Title
42775
    1SAPS     N    1   6.181   5.827   7.515  0.4815  0.4428 -0.0822
    1SAPS   HN1    2   6.265   5.783   7.558 -0.2088  0.1266  0.9772
    1SAPS   HN2    3   6.106   5.777   7.566  0.5192 -0.3243 -0.7621
    1SAPS   HN3    4   6.178   5.803   7.414  2.1333 -1.6379  0.2925
    1SAPS   C12    5   6.176   5.974   7.540  0.6360 -1.0203 -0.4900
    1SAPS  H12A    6   6.112   6.019   7.466  0.1190 -2.7624 -1.1649
    1SAPS   C13    7   6.125   5.998   7.689  0.1385  0.8464 -0.1590
    1SAPS  O13A    8   6.107   5.901   7.771 -0.3624  0.7751 -0.4969
    1SAPS  O13B    9   6.116   6.113   7.732 -0.0435 -0.2605  0.6507
    1SAPS   C11   10   6.322   6.032   7.532  0.9944 -0.2487 -0.1351
    1SAPS  H11A   11   6.385   6.001   7.618  0.3050 -0.7255  0.2156
    1SAPS  H11B   12   6.304   6.140   7.548 -0.0895 -0.2990 -0.8746
    1SAPS     P   13   6.497   6.086   7.350 -0.0563  0.1923  0.1907
    1SAPS   O13   14   6.561   6.174   7.455  0.3216 -0.1404 -0.0723
    1SAPS   O14   15   6.591   5.999   7.279  0.0136 -0.5442  0.1524
    1SAPS   O12   16   6.388   6.001   7.411 -0.0709 -0.2951  0.1108
    1SAPS   O11   17   6.426   6.178   7.245  0.7682  0.1428 -0.6066
    1SAPS    C1   18   6.363   6.116   7.127 -0.4583  0.0647 -0.0205
    1SAPS    HA   19   6.368   6.005   7.129  0.4190  0.1072  0.6931
    1SAPS    HB   20   6.255   6.139   7.123 -0.7884 -1.5549 -1.4050
    1SAPS    C2   21   6.440   6.162   7.005 -0.3933 -0.0844 -0.2979
    1SAPS    HS   22   6.546   6.127   7.011 -0.9101 -1.8696 -0.7518
    1SAPS   O21   23   6.451   6.304   6.990 -0.4281 -0.5064 -0.0665
    1SAPS   C21   24   6.344   6.373   6.970 -0.1441  0.3027 -0.5414
    1SAPS   O22   25   6.231   6.330   6.969 -0.2490  0.0971  0.0883
    1SAPS   C22   26   6.389   6.517   6.966 -0.1771 -0.8113 -0.0255
    1SAPS   H2R   27   6.301   6.583   6.952  0.1572  0.4803  3.1759
    1SAPS   H2S   28   6.430   6.532   7.068 -1.0454 -2.0759  0.5443
    1SAPS    C3   29   6.377   6.102   6.877  0.5294 -0.2537  0.1245
    1SAPS    HX   30   6.424   6.154   6.791  0.3127 -0.3358 -0.0441
    1SAPS    HY   31   6.271   6.134   6.872  0.9858  1.1077 -2.1934
    1SAPS   O31   32   6.405   5.963   6.883  0.4170  0.4347  0.4994
    1SAPS   C31   33   6.520   5.916   6.815  0.1322 -0.1622  0.5310
    1SAPS   O32   34   6.598   5.994   6.763 -0.5810  0.1438  0.2126
    1SAPS   C32   35   6.541   5.762   6.818 -0.0666  0.6095 -0.1306
    1SAPS   H2X   36   6.472   5.718   6.743  0.5161  0.4834 -0.5917
    1SAPS   H2Y   37   6.515   5.726   6.920  2.0728  1.8386  0.9309
    1SAPS   C23   38   6.501   6.541   6.861  0.0790 -0.7007  0.1283
    1SAPS   H3R   39   6.593   6.482   6.880  0.4662 -1.7351 -3.9181
    1SAPS   H3S   40   6.535   6.646   6.876 -3.0626  0.2558  1.5454
    1SAPS   C24   41   6.472   6.524   6.708  0.1429 -0.2716  0.4547
    1SAPS   H4R   42   6.392   6.592   6.672 -1.4192 -1.0814  2.2306
    1SAPS   H4S   43   6.418   6.427   6.700 -0.3804  0.0788 -0.4485
    1SAPS   C25   44   6.588   6.524   6.606 -0.2138  0.3106  0.2073
    1SAPS   H5R   45   6.640   6.620   6.603 -1.0367  0.7401 -1.2616
    1SAPS   C26   46   6.622   6.429   6.521  0.1258 -0.0069 -0.0679
    1SAPS   H6R   47   6.706   6.444   6.452 -0.5096  1.1305 -0.6133
    1SAPS   C27   48   6.555   6.298   6.512  0.8517 -0.3683 -0.0321
    1SAPS   H7R   49   6.475   6.309   6.436  0.6517 -0.5525  0.1473
    1SAPS   H7S   50   6.514   6.281   6.614 -1.7814  0.0035 -0.9611
    1SAPS   C28   51   6.649   6.193   6.471 -0.5043 -0.7808 -0.4707
    1SAPS   H8R   52   6.696   6.133   6.549  0.9361 -0.4618 -1.0568
    1SAPS   C29   53   6.686   6.157   6.349 -0.1572  0.2179  0.8639
    1SAPS   H9R   54   6.750   6.068   6.334  1.4467  1.6072 -1.1376
    1SAPS  C210   55   6.640   6.210   6.213 -0.1996  0.2265 -0.1160
    1SAPS  H10R   56   6.551   6.276   6.218  0.8617  1.7722 -0.7374
    1SAPS  H10S   57   6.608   6.127   6.147 -1.2607 -0.6634  1.4814
    1SAPS  C211   58   6.739   6.301   6.148 -0.8289 -0.0998 -0.3171
    1SAPS  H11R   59   6.838   6.292   6.196 -0.9117 -2.1585 -0.4683
    1SAPS  C212   60   6.726   6.367   6.034  0.0461 -0.3205 -0.6221
    1SAPS  H12R   61   6.807   6.436   6.005 -0.9980  0.7231 -1.1414
    1SAPS  C213   62   6.617   6.351   5.939  0.0695 -0.4648 -0.6543
    1SAPS  H13R   63   6.531   6.417   5.963 -1.5195 -2.6454  0.0702
    1SAPS  H13S   64   6.565   6.254   5.958 -0.4715  0.0216  0.4602
    1SAPS  C214   65   6.655   6.364   5.796 -0.0935 -0.5389 -0.5324
    1SAPS  H14R   66   6.667   6.470   5.769 -1.3811 -0.2345  0.0105
    1SAPS  C215   67   6.659   6.269   5.702 -0.0403  0.2296  0.1112
    1SAPS  H15R   68   6.682   6.287   5.596 -0.9624 -1.1464 -0.3430
    1SAPS  C216   69   6.637   6.119   5.712 -0.3342  0.3472 -0.2358
    1SAPS  H16R   70   6.675   6.088   5.812  0.7182  0.8251 -0.4665
    1SAPS  H16S   71   6.691   6.061   5.635  0.8531  1.6283 -0.4184
    1SAPS  C217   72   6.482   6.096   5.711  0.5992 -0.3769  0.0696
    1SAPS  H17R   73   6.443   6.134   5.614 -0.0387 -1.4027 -0.0814
    1SAPS  H17S   74   6.446   6.156   5.797  1.2824 -1.1550  0.9203
    1SAPS  C218   75   6.439   5.950   5.734  0.0002  0.3474 -0.1566
    1SAPS  H18R   76   6.521   5.884   5.699 -0.8274 -0.8554  0.0923
    1SAPS  H18S   77   6.345   5.926   5.681  0.4071 -0.9454 -0.3410
    1SAPS  C219   78   6.407   5.914   5.878 -0.9005  0.5145  0.2794
    1SAPS  H19R   79   6.325   5.980   5.913 -0.5228  1.3544 -0.3794
    1SAPS  H19S   80   6.495   5.933   5.944 -1.5259  2.7008  0.5493
    1SAPS  C220   81   6.385   5.766   5.885  0.0484 -0.3309  0.3371
    1SAPS  H20R   82   6.478   5.720   5.843 -0.5815 -0.5336 -0.8742
    1SAPS  H20S   83   6.306   5.737   5.812  1.2663  1.3566 -1.7944
    1SAPS  H20T   84   6.368   5.718   5.984  1.2177 -2.8449 -0.5911
    1SAPS   C33   85   6.682   5.720   6.783 -0.0663  0.5213  0.1545
    1SAPS   H3X   86   6.677   5.613   6.811  0.2273  0.6305  0.6372
    1SAPS   H3Y   87   6.759   5.761   6.851  0.1497 -0.3058  0.4189
    1SAPS   C34   88   6.720   5.728   6.636  0.2232 -0.7311 -0.0826
    1SAPS   H4X   89   6.712   5.836   6.611 -1.3422 -0.8916 -0.3880
    1SAPS   H4Y   90   6.648   5.681   6.566  1.7353 -1.5508 -1.1294
    1SAPS   C35   91   6.859   5.664   6.617  0.2601 -0.1811  0.4050
    1SAPS   H5X   92   6.929   5.734   6.668  0.2217  1.3543 -1.5338
    1SAPS   H5Y   93   6.870   5.681   6.508  2.7821  1.6960  0.8538
    1SAPS   C36   94   6.859   5.519   6.656  0.2070  0.1490  0.3930
    1SAPS   H6X   95   6.782   5.470   6.593  0.2926  1.6927 -0.9734
    1SAPS   H6Y   96   6.821   5.503   6.760 -1.2666 -0.1577 -0.1697
    1SAPS   C37   97   6.995   5.441   6.644  0.2973 -0.4237 -0.1070
    1SAPS   H7X   98   6.977   5.336   6.674  1.4550 -0.1544  1.7008
    1SAPS   H7Y   99   7.063   5.478   6.724  0.3547  1.9996 -1.1956
    1SAPS   C38  100   7.074   5.453   6.511  0.3798 -0.4919  0.4245
    1SAPS   H8X  101   7.180   5.429   6.536  0.6160  0.7211  0.6249
    1SAPS   H8Y  102   7.074   5.558   6.476  1.9353 -0.7704 -0.5440
    1SAPS   C39  103   7.023   5.364   6.394 -0.1680 -0.7955 -0.1469
    1SAPS   H9X  104   6.915   5.379   6.370 -0.1524  0.8186  0.6442
    1SAPS   H9Y  105   7.047   5.261   6.427  0.8681 -0.9224 -1.2229
    1SAPS  C310  106   7.090   5.393   6.259  0.4780 -0.0949  0.7438
    1SAPS  H10X  107   7.199   5.394   6.279  0.7841 -1.9878 -0.6337
    1SAPS  H10Y  108   7.065   5.496   6.224  2.7230  0.7589  1.4588
    1SAPS  C311  109   7.046   5.295   6.155 -0.4210 -0.1559  0.4406
    1SAPS  H11X  110   6.938   5.310   6.131  0.1087  0.5075 -1.6509
    1SAPS  H11Y  111   7.057   5.187   6.178 -1.5013 -0.3031  0.3498
    1SAPS  C312  112   7.142   5.303   6.032  0.2278 -0.0776  0.1353
    1SAPS  H12X  113   7.237   5.250   6.056  2.9677  3.5783 -1.6649
    1SAPS  H12Y  114   7.164   5.405   5.994 -1.7085 -0.1176 -1.2363
    1SAPS  C313  115   7.077   5.218   5.916 -0.3839 -0.2708 -0.4604
    1SAPS  H13X  116   6.967   5.233   5.919 -0.3261 -0.0003  1.0909
    1SAPS  H13Y  117   7.110   5.113   5.930 -1.1949 -0.2269  2.3394
    1SAPS  C314  118   7.135   5.256   5.778  0.1911 -0.2436 -0.0806
    1SAPS  H14X  119   7.246   5.243   5.779  0.7502  2.1819 -4.5374
    1SAPS  H14Y  120   7.105   5.362   5.765 -0.3299 -0.4312 -0.4419
    1SAPS  C315  121   7.077   5.159   5.665 -0.1102  0.3245 -0.2819
    1SAPS  H15X  122   6.966   5.149   5.675  0.0619 -2.8857 -0.4929
    1SAPS  H15Y  123   7.115   5.056   5.681  0.6451  0.8671  1.6504
    1SAPS  C316  124   7.102   5.208   5.526 -0.0909 -0.1258  0.2944
    1SAPS  H16X  125   7.210   5.230   5.511 -0.2076 -0.1877 -0.7034
    1SAPS  H16Y  126   7.042   5.301   5.537 -0.4654 -0.5607  2.4360
    1SAPS  C317  127   7.042   5.118   5.411  0.5399 -0.2207  0.6254
    1SAPS  H17X  128   6.933   5.132   5.428  0.5174  0.6815 -0.2042
    1SAPS  H17Y  129   7.067   5.013   5.439  0.7014 -0.4425 -0.3039
    1SAPS  C318  130   7.092   5.158   5.274  0.4217  0.4243  0.0923
    1SAPS  H18X  131   7.077   5.265   5.249  1.9533  0.5771 -0.2513
    1SAPS  H18Y  132   7.039   5.114   5.187  0.5271  1.2755 -0.4147
    1SAPS  H18Z  133   7.202   5.149   5.264  0.6954 -2.0218  3.5476
    2SAPS     N  134   6.225   6.642   7.653  0.1969 -0.0923  0.1203
    2SAPS   HN1  135   6.191   6.546   7.675  3.3045 -1.2613  0.2626
    2SAPS   HN2  136   6.171   6.717   7.700 -0.0731  0.5390 -1.1555
    2SAPS   HN3  137   6.218   6.659   7.551  1.8836  1.1979  0.1807
    2SAPS   C12  138   6.374   6.651   7.678 -0.0952  0.2775  0.1976
    2SAPS  H12A  139   6.391   6.634   7.783 -1.9664 -0.4743  0.4204
    2SAPS   C13  140   6.465   6.562   7.595  0.5426  0.2371 -0.3288
    2SAPS  O13A  141   6.425   6.457   7.532 -0.5674 -0.2496 -0.1067
    2SAPS  O13B  142   6.587   6.581   7.606 -0.2186 -0.3660 -0.3472
    2SAPS   C11  143   6.415   6.797   7.669 -0.0810 -0.9629 -0.1643
    2SAPS  H11A  144   6.407   6.831   7.563  2.3337  1.2656  0.2528
    2SAPS  H11B  145   6.523   6.794   7.692 -0.1214 -0.7481  0.0660
    2SAPS     P  146   6.372   7.041   7.736  0.6134  0.1797 -0.0671
    2SAPS   O13  147   6.256   7.115   7.788 -0.2442 -0.2927 -0.0742
    2SAPS   O14  148   6.507   7.073   7.789 -0.3617 -0.2910 -0.5280
    2SAPS   O12  149   6.348   6.888   7.760 -0.0514 -0.1814 -0.1292
    2SAPS   O11  150   6.379   7.057   7.577 -0.2027  0.1530  0.0033
    2SAPS    C1  151   6.260   7.037   7.498  0.4871  0.2773 -0.7104
    2SAPS    HA  152   6.233   6.929   7.489  1.4282 -0.3633  2.5729
    2SAPS    HB  153   6.165   7.076   7.541  0.9106  0.0826  0.4471
    2SAPS    C2  154   6.255   7.111   7.366 -0.7563  0.0859 -0.1195
    2SAPS    HS  155   6.164   7.078   7.311  1.3481 -5.6851 -0.7910
    2SAPS   O21  156   6.371   7.090   7.290  0.5043 -0.2915 -0.1538
    2SAPS   C21  157   6.406   6.964   7.271  0.7369  1.2345 -0.1822
    2SAPS   O22  158   6.332   6.868   7.288  0.2793 -0.0098  0.3148
    2SAPS   C22  159   6.540   6.947   7.205  0.6457 -0.8462 -0.3391
    2SAPS   H2R  160   6.573   7.051   7.182  0.7620 -1.0901 -1.3248
    2SAPS   H2S  161   6.616   6.904   7.274  0.7250 -0.2477 -0.0482
    2SAPS    C3  162   6.233   7.268   7.384 -0.0198 -0.7102  0.5079
    2SAPS    HX  163   6.315   7.312   7.444  1.3588 -2.8112  0.2869
    2SAPS    HY  164   6.146   7.269   7.452 -1.0644 -1.0222 -0.7802
    2SAPS   O31  165   6.198   7.331   7.265  0.1710  0.4641  0.5318
    2SAPS   C31  166   6.304   7.365   7.194 -0.5296 -0.3626 -0.9934
    2SAPS   O32  167   6.421   7.355   7.224 -0.1693  1.1105  0.2859
    2SAPS   C32  168   6.234   7.452   7.085 -0.3470  0.4231 -0.1008
    2SAPS   H2X  169   6.245   7.560   7.109 -2.0628  1.1264 -2.1612
    2SAPS   H2Y  170   6.128   7.425   7.069 -0.4728 -0.3969  1.8619
    2SAPS   C23  171   6.527   6.879   7.067  0.3105 -0.4421 -0.1863
    2SAPS   H3R  172   6.473   6.783   7.080  2.9308 -1.7341  2.6312
    2SAPS   H3S  173   6.631   6.853   7.036 -0.3935 -2.1308 -1.2685
    2SAPS   C24  174   6.455   6.957   6.952  0.9833 -0.8613 -0.2174
    2SAPS   H4R  175   6.364   7.010   6.987  0.0072 -2.4357 -0.2703
    2SAPS   H4S  176   6.411   6.880   6.884 -2.2754 -0.2047  0.9768
    2SAPS   C25  177   6.553   7.057   6.882  0.6911  0.1266  0.1959
    2SAPS   H5R  178   6.598   7.137   6.942  2.6783 -1.0200  0.3342
    2SAPS   C26  179   6.604   7.040   6.762  0.1361  0.6587  0.0648
    2SAPS   H6R  180   6.681   7.113   6.731  1.8233 -0.5757  1.1265
    2SAPS   C27  181   6.571   6.924   6.674 -0.0206 -0.0857 -0.6367
    2SAPS   H7R  182   6.579   6.829   6.731  0.6975  0.0775 -0.4608
    2SAPS   H7S  183   6.649   6.912   6.596  0.5136 -0.8383 -0.0040
    2SAPS   C28  184   6.438   6.928   6.607 -0.0586 -0.5889  0.8142
    2SAPS   H8R  185   6.356   6.926   6.680 -2.1486 -1.5094 -1.4112
    2SAPS   C29  186   6.416   6.952   6.472 -0.8988 -0.4000  0.2152
    2SAPS   H9R  187   6.312   6.963   6.438 -0.2700  2.3946 -1.1302
    2SAPS  C210  188   6.519   6.961   6.361  0.2175  0.5134 -0.2780
    2SAPS  H10R  189   6.606   7.021   6.393  0.6731  1.2132 -2.6319
    2SAPS  H10S  190   6.474   7.012   6.273 -1.4727  0.0962  0.2988
    2SAPS  C211  191   6.586   6.825   6.336 -0.0130 -0.2917  0.5128
    2SAPS  H11R  192   6.606   6.768   6.428  0.8054  0.3756  0.7609
    2SAPS  C212  193   6.622   6.775   6.215 -0.0478 -0.2845 -0.5729
    2SAPS  H12R  194   6.679   6.681   6.208  0.6024  0.1620 -1.5295
    2SAPS  C213  195   6.616   6.841   6.086  0.0896 -0.6591  0.2765
    2SAPS  H13R  196   6.695   6.807   6.016 -0.1256  0.6258 -0.6461
    2SAPS  H13S  197   6.645   6.947   6.105 -1.4789 -0.5178  2.2118
    2SAPS  C214  198   6.480   6.840   6.013  0.0904  0.2028  0.6569
    2SAPS  H14R  199   6.390   6.840   6.077  0.0919 -5.1086  1.0818
    2SAPS  C215  200   6.460   6.829   5.878 -0.4810  0.1041  0.5770
    2SAPS  H15R  201   6.358   6.816   5.840 -0.9901 -0.8839  2.1766
    2SAPS  C216  202   6.564   6.831   5.767  0.1922  0.3585  0.3421
    2SAPS  H16R  203   6.667   6.844   5.807 -0.3450 -0.6824  2.2219
    2SAPS  H16S  204   6.550   6.914   5.695  2.4689  0.0036 -0.5746
    2SAPS  C217  205   6.548   6.704   5.681  0.3845  0.0807  0.0601
    2SAPS  H17R  206   6.456   6.706   5.618  1.3345 -1.2650 -1.4294
    2SAPS  H17S  207   6.528   6.621   5.752 -2.5749 -0.9438 -1.7939
    2SAPS  C218  208   6.659   6.659   5.581  0.7851  0.4680 -0.1324
    2SAPS  H18R  209   6.734   6.608   5.645 -0.6032 -1.6573 -0.1158
    2SAPS  H18S  210   6.713   6.742   5.530  0.9441 -0.7708 -2.0819
    2SAPS  C219  211   6.612   6.561   5.480 -0.0981 -0.3430  0.0928
    2SAPS  H19R  212   6.550   6.482   5.529  1.6246 -0.3877  2.3614
    2SAPS  H19S  213   6.695   6.517   5.422 -0.8164 -0.9220 -0.5081
    2SAPS  C220  214   6.521   6.627   5.378 -0.0457 -0.4185  0.0179
    2SAPS  H20R  215   6.513   6.555   5.294 -0.8622 -0.3152  0.0014
    2SAPS  H20S  216   6.566   6.723   5.344  1.7443 -1.1748  0.1605
    2SAPS  H20T  217   6.420   6.651   5.418  0.4401  0.2117  0.9174
    2SAPS   C33  218   6.311   7.444   6.953 -0.1288  0.6452  0.1103
    2SAPS   H3X  219   6.252   7.509   6.884 -1.1108  0.7278  1.0078
    2SAPS   H3Y  220   6.306   7.344   6.906  0.7035  0.7615 -0.2545
    2SAPS   C34  221   6.451   7.497   6.954 -0.4823  0.2094  0.0810
    2SAPS   H4X  222   6.506   7.421   7.013 -0.3561  1.6154  1.8728
    2SAPS   H4Y  223   6.461   7.591   7.011 -1.2240 -1.4678  3.1935
    2SAPS   C35  224   6.508   7.519   6.821  0.0504 -0.2781 -0.0337
    2SAPS   H5X  225   6.607   7.569   6.821  1.0791 -2.1885 -0.6352
    2SAPS   H5Y  226   6.445   7.590   6.764  4.0182  2.9886 -0.7977
    2SAPS   C36  227   6.524   7.389   6.731  0.0760 -0.2578  0.8281
    2SAPS   H6X  228   6.427   7.337   6.734 -0.1432  0.0459 -0.3343
    2SAPS   H6Y  229   6.606   7.329   6.776  1.5493  0.8392 -0.2609
    2SAPS   C37  230   6.573   7.433   6.593 -0.4931 -0.0054  0.4783
    2SAPS   H7X  231   6.682   7.453   6.606 -0.5287 -0.4429  1.5827
    2SAPS   H7Y  232   6.531   7.531   6.565 -0.8977 -0.5134 -0.7522
    2SAPS   C38  233   6.549   7.340   6.471 -0.1097 -0.2913 -0.2729
    2SAPS   H8X  234   6.439   7.326   6.466 -0.0791 -1.0635  0.9379
    2SAPS   H8Y  235   6.591   7.238   6.481 -0.5337 -0.6927 -2.1392
    2SAPS   C39  236   6.605   7.397   6.339  0.7205 -0.2004  0.7531
    2SAPS   H9X  237   6.715   7.381   6.332  0.5367 -0.9120 -0.8466
    2SAPS   H9Y  238   6.584   7.505   6.347 -1.3525 -0.3963 -1.0031
    2SAPS  C310  239   6.547   7.337   6.208 -0.5865  0.5146 -0.4158
    2SAPS  H10X  240   6.438   7.359   6.208 -0.6624  0.1917 -1.5438
    2SAPS  H10Y  241   6.540   7.227   6.225 -1.1946  0.7528  1.0516
    2SAPS  C311  242   6.640   7.348   6.084 -0.0474  0.3077 -0.5202
    2SAPS  H11X  243   6.742   7.309   6.102 -0.4836 -0.2687  0.8756
    2SAPS  H11Y  244   6.636   7.459   6.070  0.4203  0.2385 -1.2244
    2SAPS  C312  245   6.584   7.279   5.965 -0.2717  0.6261  0.5998
    2SAPS  H12X  246   6.475   7.300   5.950 -0.0636  0.3320 -1.6723
    2SAPS  H12Y  247   6.590   7.168   5.969  1.0770  0.4884 -2.2893
    2SAPS  C313  248   6.662   7.316   5.843  0.1376 -0.0947  1.0852
    2SAPS  H13X  249   6.771   7.294   5.842  0.3917  0.9615 -1.5633
    2SAPS  H13Y  250   6.653   7.426   5.828  1.4413  0.2832  2.7432
    2SAPS  C314  251   6.617   7.243   5.713 -0.1344 -0.3247  0.6372
    2SAPS  H14X  252   6.520   7.288   5.681 -0.7146 -1.7551  0.3124
    2SAPS  H14Y  253   6.591   7.137   5.733 -2.0936  0.0229  0.1686
    2SAPS  C315  254   6.714   7.251   5.598  0.5169  0.1397 -0.0720
    2SAPS  H15X  255   6.806   7.197   5.630  1.3435  0.1236 -2.3282
    2SAPS  H15Y  256   6.762   7.350   5.585  0.0921  0.5125  1.0620
    2SAPS  C316  257   6.659   7.176   5.476  0.4424  0.1506  0.4472
    2SAPS  H16X  258   6.562   7.218   5.443  0.5165 -0.3810 -0.4656
    2SAPS  H16Y  259   6.645   7.066   5.483  3.2204 -0.2720  0.5764
    2SAPS  C317  260   6.754   7.190   5.357  0.2903 -0.2415  0.6450
    2SAPS  H17X  261   6.858   7.163   5.381  0.4749 -2.1063 -1.8054
    2SAPS  H17Y  262   6.764   7.297   5.327 -3.5293  0.0685 -0.0839
    2SAPS  C318  263   6.710   7.112   5.236  0.3851  0.1454  0.7803
    2SAPS  H18X  264   6.700   7.002   5.250  0.0262 -0.1737 -1.6590
    2SAPS  H18Y  265   6.785   7.123   5.155  0.7364 -0.6690  0.9831
    2SAPS  H18Z  266   6.613   7.148   5.197  1.0384  0.2591 -0.7737
    3SAPS     N  267   6.811   5.435   7.658 -0.1440 -0.6495 -0.6226
    3SAPS   HN1  268   6.828   5.333   7.644 -1.2063 -0.9505  0.1547
    3SAPS   HN2  269   6.727   5.455   7.601 -0.4557  1.9804  0.6029
    3SAPS   HN3  270   6.891   5.491   7.623 -1.5422  1.9550  0.1130
    3SAPS   C12  271   6.787   5.472   7.797 -0.3490 -0.1478 -0.2914
    3SAPS  H12A  272   6.720   5.393   7.827  1.7429 -2.4549 -1.4287
    3SAPS   C13  273   6.905   5.480   7.896 -0.0155  0.5609 -0.6914
    3SAPS  O13A  274   7.027   5.457   7.860  0.8514  0.1697  0.1199
    3SAPS  O13B  275   6.884   5.508   8.015 -0.4732  0.0877 -0.4310
    3SAPS   C11  276   6.712   5.613   7.785  0.3368 -0.1377  0.0860
    3SAPS  H11A  277   6.782   5.691   7.748  0.6901 -1.0396 -1.2091
    3SAPS  H11B  278   6.669   5.657   7.878 -0.5714 -1.8213  0.5137
    3SAPS     P  279   6.545   5.732   7.623  0.3932  0.5933 -0.2268
    3SAPS   O13  280   6.398   5.717   7.615 -0.1190  0.1273  0.5145
    3SAPS   O14  281   6.602   5.858   7.680 -0.1057 -0.0641  0.0057
    3SAPS   O12  282   6.595   5.601   7.699 -0.5266  0.1157 -0.0233
    3SAPS   O11  283   6.609   5.716   7.481 -0.8890 -0.4748 -0.1882
    3SAPS    C1  284   6.606   5.593   7.404 -0.2098 -0.0228 -0.5831
    3SAPS    HA  285   6.693   5.587   7.336 -1.2616 -1.8290 -1.8595
    3SAPS    HB  286   6.606   5.504   7.470 -1.1136  0.4554  0.0938
    3SAPS    C2  287   6.484   5.581   7.309  0.1216  0.1082  0.4899
    3SAPS    HS  288   6.396   5.572   7.376  0.2107 -0.8429  0.4927
    3SAPS   O21  289   6.503   5.460   7.232 -0.4404 -0.3385  0.7375
    3SAPS   C21  290   6.402   5.407   7.168  0.4301 -0.6495 -0.0733
    3SAPS   O22  291   6.282   5.426   7.187 -0.2063  0.3336  0.2289
    3SAPS   C22  292   6.451   5.339   7.041 -0.1713 -0.1224  0.2275
    3SAPS   H2R  293   6.408   5.398   6.956  0.2988 -0.6529 -0.3874
    3SAPS   H2S  294   6.561   5.340   7.030 -0.2436 -2.2624 -1.4810
    3SAPS    C3  295   6.462   5.700   7.216  0.2017 -0.2371 -0.2390
    3SAPS    HX  296   6.555   5.720   7.159  0.8287 -1.8660  0.1561
    3SAPS    HY  297   6.443   5.794   7.272 -0.3347  0.3400 -1.3655
    3SAPS   O31  298   6.359   5.677   7.118  0.1589  0.7004 -0.1120
    3SAPS   C31  299   6.237   5.700   7.152 -0.0875 -0.8763  0.1034
    3SAPS   O32  300   6.198   5.757   7.254 -0.0752 -0.0594  0.3671
    3SAPS   C32  301   6.141   5.659   7.029  0.2711 -0.6398  0.0390
    3SAPS   H2X  302   6.084   5.581   7.082  0.0091  1.1562  2.6236
    3SAPS   H2Y  303   6.195   5.614   6.943  1.3740  0.6002  0.0445
    3SAPS   C23  304   6.397   5.194   7.017 -0.0951  0.4350 -0.2789
    3SAPS   H3R  305   6.287   5.194   7.033  0.0890  0.8826  1.1252
    3SAPS   H3S  306   6.453   5.123   7.082 -2.9103 -2.5044 -0.8410
    3SAPS   C24  307   6.418   5.148   6.872 -0.3373 -0.0407 -0.2196
    3SAPS   H4R  308   6.336   5.189   6.810  0.4300  1.0003 -0.5834
    3SAPS   H4S  309   6.392   5.040   6.871 -0.5089 -0.0042 -1.6501
    3SAPS   C25  310   6.557   5.176   6.828  0.0155  0.0660  0.2941
    3SAPS   H5R  311   6.639   5.128   6.883  0.1663 -2.1821 -1.7063
    3SAPS   C26  312   6.594   5.249   6.720  0.8821  0.4659 -0.0117
    3SAPS   H6R  313   6.700   5.245   6.689  1.2246  0.2471  1.1604
    3SAPS   C27  314   6.501   5.311   6.621 -0.3484 -0.3594  0.9073
    3SAPS   H7R  315   6.547   5.397   6.568  1.4914  0.2271  3.2515
    3SAPS   H7S  316   6.424   5.366   6.678  0.3660 -0.2152  1.7561
    3SAPS   C28  317   6.450   5.222   6.514  0.1551  0.0420  0.5192
    3SAPS   H8R  318   6.419   5.125   6.555 -1.3983  1.1516  2.1041
    3SAPS   C29  319   6.426   5.246   6.379 -0.3828  0.5645  0.4376
    3SAPS   H9R  320   6.362   5.178   6.321 -0.4299  1.1570 -0.2255
    3SAPS  C210  321   6.451   5.371   6.305  0.8660 -0.3763  0.2294
    3SAPS  H10R  322   6.403   5.460   6.352  0.6167  0.0376 -0.7722
    3SAPS  H10S  323   6.389   5.368   6.213  0.0030  1.5770  0.6953
    3SAPS  C211  324   6.588   5.404   6.272 -0.6880  0.2403 -0.6245
    3SAPS  H11R  325   6.646   5.450   6.353 -1.3033  1.9157 -1.1001
    3SAPS  C212  326   6.647   5.383   6.153  0.6710  0.0045 -0.7847
    3SAPS  H12R  327   6.749   5.422   6.137 -0.8061  3.9808 -1.5902
    3SAPS  C213  328   6.581   5.323   6.033 -0.0050  0.1173 -0.1808
    3SAPS  H13R  329   6.496   5.388   6.003 -0.1970 -0.1386 -0.1871
    3SAPS  H13S  330   6.543   5.221   6.056  0.1072  0.1835  0.3124
    3SAPS  C214  331   6.672   5.313   5.909 -0.1250 -0.4311  0.5054
    3SAPS  H14R  332   6.779   5.331   5.929 -0.6730  1.9601  1.7124
    3SAPS  C215  333   6.636   5.306   5.782 -0.3915  0.4515  1.1825
    3SAPS  H15R  334   6.714   5.277   5.710 -2.1424 -2.4632  0.3015
    3SAPS  C216  335   6.495   5.291   5.721 -0.5333 -0.2040 -0.3379
    3SAPS  H16R  336   6.427   5.213   5.760  0.6504 -1.9237 -1.5281
    3SAPS  H16S  337   6.503   5.258   5.615  0.4218  0.3787 -0.4575
    3SAPS  C217  338   6.420   5.422   5.704  0.3289  0.9854  0.0624
    3SAPS  H17R  339   6.447   5.493   5.784 -1.2135  1.7284 -0.0311
    3SAPS  H17S  340   6.312   5.396   5.708  0.1866 -0.2938 -4.7664
    3SAPS  C218  341   6.451   5.481   5.571  0.1723 -0.6762 -0.2083
    3SAPS  H18R  342   6.390   5.422   5.499  0.1913  0.7338 -1.4385
    3SAPS  H18S  343   6.561   5.473   5.556  0.1654  0.1540 -0.8291
    3SAPS  C219  344   6.409   5.624   5.564 -0.6783  0.0351  0.9481
    3SAPS  H19R  345   6.308   5.640   5.608 -0.9504  1.5560 -0.1641
    3SAPS  H19S  346   6.487   5.676   5.624  2.2809 -1.2824 -1.4999
    3SAPS  C220  347   6.409   5.681   5.415  0.4365 -1.3578 -0.0491
    3SAPS  H20R  348   6.508   5.671   5.367  0.1724 -0.6427 -0.7597
    3SAPS  H20S  349   6.387   5.789   5.403 -2.4328 -1.9938 -1.4826
    3SAPS  H20T  350   6.338   5.620   5.355 -0.1987 -0.4240 -0.2717
    3SAPS   C33  351   6.032   5.772   6.999 -0.2219 -0.1802 -0.0774
    3SAPS   H3X  352   6.081   5.871   6.984 -0.4772 -0.1850 -0.9574
    3SAPS   H3Y  353   5.967   5.782   7.089 -2.1728 -3.0869 -1.0228
    3SAPS   C34  354   5.935   5.733   6.884  0.6171 -0.1914 -0.8435
    3SAPS   H4X  355   5.842   5.792   6.867  0.0548 -0.8486 -0.1545
    3SAPS   H4Y  356   5.922   5.627   6.914  2.3371 -0.7937 -2.1205
    3SAPS   C35  357   6.003   5.730   6.754 -0.1480  0.3368 -0.0333
    3SAPS   H5X  358   6.104   5.688   6.772 -0.9890 -0.8848  2.1442
    3SAPS   H5Y  359   5.959   5.650   6.690  0.5669 -0.3735  0.3542
    3SAPS   C36  360   5.988   5.858   6.667 -0.1636  0.6971 -0.1481
    3SAPS   H6X  361   6.043   5.944   6.711  0.9789 -1.0338  2.0192
    3SAPS   H6Y  362   5.878   5.869   6.660 -0.1159  0.8637 -0.7316
    3SAPS   C37  363   6.048   5.846   6.528 -0.3155  0.2038  0.3716
    3SAPS   H7X  364   6.007   5.933   6.473 -1.0183 -0.9790 -1.0512
    3SAPS   H7Y  365   6.014   5.759   6.467  1.6496 -0.0130 -0.5024
    3SAPS   C38  366   6.199   5.848   6.536  0.2049 -0.2433 -0.0594
    3SAPS   H8X  367   6.245   5.781   6.610 -0.6394 -0.8218 -0.0451
    3SAPS   H8Y  368   6.223   5.954   6.559  0.1041 -0.7003  2.4160
    3SAPS   C39  369   6.268   5.817   6.399  0.5113  0.8392  0.4449
    3SAPS   H9X  370   6.227   5.884   6.320  1.2783 -0.4693 -1.1131
    3SAPS   H9Y  371   6.230   5.717   6.371  0.1806  1.1509 -0.2480
    3SAPS  C310  372   6.420   5.821   6.401 -0.2768  0.6252  0.2023
    3SAPS  H10X  373   6.467   5.749   6.471  0.1279  0.4929 -0.1980
    3SAPS  H10Y  374   6.462   5.921   6.425  1.3651  1.3224 -4.5497
    3SAPS  C311  375   6.473   5.800   6.262 -0.8763  0.7783 -0.1032
    3SAPS  H11X  376   6.441   5.884   6.196 -1.5902  2.1401  1.8522
    3SAPS  H11Y  377   6.429   5.707   6.221  0.0554  1.5194 -3.0251
    3SAPS  C312  378   6.618   5.801   6.260 -0.9749  0.2389  0.3470
    3SAPS  H12X  379   6.647   5.710   6.317 -0.0955 -0.5297 -1.2674
    3SAPS  H12Y  380   6.662   5.886   6.316  1.0109 -1.2052  1.0973
    3SAPS  C313  381   6.673   5.790   6.116 -0.3635  0.6722 -0.0571
    3SAPS  H13X  382   6.643   5.883   6.064  0.2550  2.1714  2.1161
    3SAPS  H13Y  383   6.625   5.711   6.055  0.5395  0.7286 -0.8591
    3SAPS  C314  384   6.828   5.786   6.106 -0.5221  0.2512 -0.0039
    3SAPS  H14X  385   6.858   5.693   6.158  0.6380  0.1111 -0.8939
    3SAPS  H14Y  386   6.885   5.865   6.161  0.7451 -1.0023  0.5511
    3SAPS  C315  387   6.885   5.788   5.963  0.1168  0.4027 -0.5216
    3SAPS  H15X  388   6.996   5.786   5.963  0.1831  2.0871  1.1779
    3SAPS  H15Y  389   6.839   5.869   5.904 -0.1770  0.7778  0.2119
    3SAPS  C316  390   6.845   5.659   5.889  0.4452  0.0026  0.0492
    3SAPS  H16X  391   6.744   5.622   5.917  1.2921 -1.7281  1.0409
    3SAPS  H16Y  392   6.925   5.584   5.910  1.8359  1.3523 -0.2345
    3SAPS  C317  393   6.854   5.684   5.734  0.3647  0.3175 -0.5463
    3SAPS  H17X  394   6.945   5.746   5.715  0.1484  0.5328 -0.8695
    3SAPS  H17Y  395   6.771   5.751   5.705  0.4539 -0.4252 -2.6363
    3SAPS  C318  396   6.862   5.556   5.653  0.0968 -0.5736  0.3006
    3SAPS  H18X  397   6.935   5.479   5.686  1.2892  0.1865 -0.4997
    3SAPS  H18Y  398   6.879   5.598   5.552  0.6110  0.9352  0.9846
    3SAPS  H18Z  399   6.768   5.496   5.651 -0.2548 -0.0986  1.3581
    4SAPS     N  400   3.422   4.005   7.439 -0.1707 -0.1380  0.2647
    4SAPS   HN1  401   3.469   3.994   7.532 -0.5377  2.3812  0.8065
    4SAPS   HN2  402   3.471   4.067   7.372  0.1210 -2.6088 -1.9928
    4SAPS   HN3  403   3.326   4.034   7.465  0.3398 -0.3009  2.6498
    4SAPS   C12  404   3.419   3.868   7.386  0.6805 -0.2481  0.5009
    4SAPS  H12A  405   3.418   3.868   7.278 -0.9110 -2.1964  0.4755
    4SAPS   C13  406   3.551   3.790   7.417  0.1301 -0.3446 -0.2571
    4SAPS  O13A  407   3.627   3.830   7.513 -0.6157  0.0120 -0.1864
    4SAPS  O13B  408   3.586   3.691   7.354  0.8533 -0.1358 -0.1441
    4SAPS   C11  409   3.298   3.797   7.442  0.5732  0.3659  0.6610
    4SAPS  H11A  410   3.306   3.803   7.552 -0.4698  3.2972  0.6516
    4SAPS  H11B  411   3.304   3.694   7.399 -0.5051  0.7979 -0.6047
    4SAPS     P  412   3.038   3.822   7.464 -0.0943 -0.2464 -0.0712
    4SAPS   O13  413   3.051   3.858   7.605 -0.4248 -0.1105  0.1205
    4SAPS   O14  414   2.923   3.874   7.388 -0.2122  0.7088 -0.2291
    4SAPS   O12  415   3.176   3.851   7.384 -0.3906 -0.5384 -0.5876
    4SAPS   O11  416   3.035   3.667   7.474 -0.3341  0.1246 -0.2190
    4SAPS    C1  417   2.983   3.588   7.366 -0.4994 -0.4324 -0.7911
    4SAPS    HA  418   2.880   3.556   7.391  0.0909 -1.3162  0.6757
    4SAPS    HB  419   2.999   3.638   7.269  1.7847 -1.0819 -0.8170
    4SAPS    C2  420   3.076   3.468   7.340 -0.6095  0.2209  0.1264
    4SAPS    HS  421   3.147   3.466   7.425 -1.8459 -0.2610  1.1793
    4SAPS   O21  422   3.147   3.475   7.217  0.5064  0.1086 -0.0501
    4SAPS   C21  423   3.257   3.408   7.207 -0.1666 -0.2329 -0.3980
    4SAPS   O22  424   3.313   3.335   7.290 -0.0781  0.5703  0.4681
    4SAPS   C22  425   3.322   3.430   7.069  0.4839  0.0142 -0.8604
    4SAPS   H2R  426   3.419   3.479   7.093  1.1525 -2.4931  2.2653
    4SAPS   H2S  427   3.346   3.327   7.037  0.5581 -0.5697  0.9508
    4SAPS    C3  428   2.994   3.336   7.344 -0.3371  0.5121 -0.4179
    4SAPS    HX  429   2.943   3.335   7.443  2.1224  1.5121  0.9497
    4SAPS    HY  430   3.071   3.255   7.344 -2.4048 -1.8044  3.9806
    4SAPS   O31  431   2.903   3.338   7.232  0.4862 -0.0497  0.3426
    4SAPS   C31  432   2.921   3.246   7.140 -0.1099 -0.4751  0.3784
    4SAPS   O32  433   3.014   3.165   7.132 -0.2797 -0.1290  0.4496
    4SAPS   C32  434   2.798   3.261   7.044  0.0519 -0.8110 -0.1894
    4SAPS   H2X  435   2.766   3.367   7.029 -0.1178 -1.0745 -2.0369
    4SAPS   H2Y  436   2.721   3.194   7.086  2.7761 -2.3964  2.6406
    4SAPS   C23  437   3.240   3.510   6.968 -0.0869  0.2647 -0.2634
    4SAPS   H3R  438   3.217   3.610   7.009  1.0847  0.3473  0.2366
    4SAPS   H3S  439   3.143   3.460   6.947 -0.6597  0.5508  1.5018
    4SAPS   C24  440   3.315   3.511   6.833  0.0871  0.2478  0.3567
    4SAPS   H4R  441   3.309   3.406   6.796 -0.2336 -0.2528  1.7740
    4SAPS   H4S  442   3.424   3.525   6.850  0.0861  1.9427 -0.7594
    4SAPS   C25  443   3.252   3.603   6.730  0.1655 -0.1133  0.3139
    4SAPS   H5R  444   3.173   3.671   6.767  0.4029  1.1964 -1.4369
    4SAPS   C26  445   3.298   3.624   6.604 -0.0022 -0.0217  0.1525
    4SAPS   H6R  446   3.252   3.703   6.542 -3.5192 -1.2811  0.9172
    4SAPS   C27  447   3.403   3.538   6.542 -0.1894 -0.0764 -0.3128
    4SAPS   H7R  448   3.359   3.504   6.446  2.0084  0.4267 -1.5788
    4SAPS   H7S  449   3.420   3.445   6.600  0.2137  0.6245  0.7328
    4SAPS   C28  450   3.537   3.599   6.508  0.0235  0.4476  0.1071
    4SAPS   H8R  451   3.605   3.608   6.595  0.7080 -0.5161 -0.3213
    4SAPS   C29  452   3.570   3.662   6.399  0.3355  0.4742  0.4035
    4SAPS   H9R  453   3.674   3.692   6.375  0.7361 -1.0634  0.0969
    4SAPS  C210  454   3.481   3.662   6.271 -0.4770 -0.6048 -0.3820
    4SAPS  H10R  455   3.511   3.749   6.209  1.0570 -1.6938 -1.2578
    4SAPS  H10S  456   3.379   3.693   6.302  0.1454 -1.1242  2.4379
    4SAPS  C211  457   3.473   3.536   6.185 -0.4839  0.3681  0.3544
    4SAPS  H11R  458   3.509   3.448   6.240 -0.9795 -0.2002 -0.2234
    4SAPS  C212  459   3.465   3.520   6.047  0.2133  0.6241 -0.5712
    4SAPS  H12R  460   3.478   3.422   5.999 -0.3494 -0.3049  1.0912
    4SAPS  C213  461   3.450   3.638   5.956  0.8940  0.2179  0.2034
    4SAPS  H13R  462   3.400   3.712   6.022 -0.0891 -1.0709  0.9560
    4SAPS  H13S  463   3.372   3.606   5.883  0.2682  1.1394  0.4456
    4SAPS  C214  464   3.577   3.688   5.899  0.3023  0.1076 -0.1729
    4SAPS  H14R  465   3.668   3.640   5.939  0.6663  0.4436 -0.5947
    4SAPS  C215  466   3.579   3.773   5.793  0.1717  0.2934 -0.0980
    4SAPS  H15R  467   3.678   3.799   5.754 -0.8337  0.8155 -2.4741
    4SAPS  C216  468   3.472   3.845   5.716  0.7500 -0.0816  0.1189
    4SAPS  H16R  469   3.488   3.955   5.717 -1.6837  0.3216  0.9348
    4SAPS  H16S  470   3.373   3.842   5.766  0.5697  0.8369 -0.1492
    4SAPS  C217  471   3.436   3.789   5.581 -0.3016 -0.2850 -0.6427
    4SAPS  H17R  472   3.529   3.768   5.523  1.4034 -2.4127  2.5708
    4SAPS  H17S  473   3.363   3.846   5.520  1.1992  0.5294 -1.7559
    4SAPS  C218  474   3.365   3.649   5.595 -0.4130 -0.3206  0.4763
    4SAPS  H18R  475   3.263   3.659   5.639 -0.9345 -0.4555 -0.6615
    4SAPS  H18S  476   3.428   3.583   5.658 -0.6625 -0.8782  0.1465
    4SAPS  C219  477   3.348   3.580   5.460  0.4041 -0.1683 -0.2691
    4SAPS  H19R  478   3.442   3.596   5.402  0.2005 -3.0296 -1.5312
    4SAPS  H19S  479   3.278   3.630   5.390  3.1670  1.1038 -2.3274
    4SAPS  C220  480   3.334   3.425   5.466  0.6498 -0.5405  0.0299
    4SAPS  H20R  481   3.380   3.383   5.374  1.2833  1.3316 -0.5610
    4SAPS  H20S  482   3.227   3.399   5.471 -0.1726  2.6123  1.0986
    4SAPS  H20T  483   3.384   3.384   5.557  1.0103  0.9104  0.5147
    4SAPS   C33  484   2.829   3.205   6.908  0.3869  0.4529 -0.2286
    4SAPS   H3X  485   2.728   3.194   6.863  0.6149 -0.1296 -0.6173
    4SAPS   H3Y  486   2.865   3.100   6.912  0.3964  0.4864  2.1259
    4SAPS   C34  487   2.910   3.300   6.816 -0.2109  0.0475 -0.0243
    4SAPS   H4X  488   3.013   3.308   6.858  0.0884  0.8063 -0.8732
    4SAPS   H4Y  489   2.878   3.406   6.816 -1.6094 -0.3636 -0.3580
    4SAPS   C35  490   2.936   3.245   6.675  0.1847 -1.4769 -0.1201
    4SAPS   H5X  491   2.908   3.140   6.650  0.3310 -1.1515 -1.7925
    4SAPS   H5Y  492   3.046   3.259   6.664  0.2252 -1.5236  0.2183
    4SAPS   C36  493   2.871   3.324   6.557  0.2594  0.0803 -0.3959
    4SAPS   H6X  494   2.867   3.433   6.579 -1.9711  0.5398 -2.5574
    4SAPS   H6Y  495   2.769   3.279   6.552 -0.6806  1.7076  2.0968
    4SAPS   C37  496   2.948   3.295   6.427 -0.4312 -0.0314  0.0578
    4SAPS   H7X  497   2.963   3.189   6.398  2.1490  0.3773 -0.2778
    4SAPS   H7Y  498   3.049   3.338   6.441 -0.1348 -1.4562  3.5595
    4SAPS   C38  499   2.874   3.353   6.304 -1.3869  0.6544 -0.3538
    4SAPS   H8X  500   2.857   3.461   6.328  1.9767  1.5054 -1.2370
    4SAPS   H8Y  501   2.776   3.301   6.300 -0.7172 -0.9822  2.1298
    4SAPS   C39  502   2.948   3.336   6.167 -0.0021  0.2703  0.4294
    4SAPS   H9X  503   2.890   3.378   6.082  2.9176  2.7079 -0.5336
    4SAPS   H9Y  504   2.954   3.226   6.150 -0.0866  0.3332 -0.0242
    4SAPS  C310  505   3.085   3.415   6.165  0.4229  0.3267 -0.2039
    4SAPS  H10X  506   3.153   3.371   6.088  0.3703 -0.9345  0.4545
    4SAPS  H10Y  507   3.152   3.392   6.250 -2.3790 -1.5484  1.6465
    4SAPS  C311  508   3.071   3.563   6.146 -0.0519 -0.3579  0.7364
    4SAPS  H11X  509   3.155   3.616   6.195  0.8644 -2.6601  1.7892
    4SAPS  H11Y  510   2.980   3.603   6.196  0.2595  0.9302  0.3248
    4SAPS  C312  511   3.060   3.600   5.998 -0.2777  0.2272 -0.4297
    4SAPS  H12X  512   2.967   3.550   5.964 -0.9745  1.2994 -0.1363
    4SAPS  H12Y  513   3.143   3.547   5.947 -0.4696 -1.2326  0.7195
    4SAPS  C313  514   3.056   3.744   5.965 -0.2518 -0.5043  0.0188
    4SAPS  H13X  515   3.148   3.791   6.005 -0.7998  0.1714  0.5094
    4SAPS  H13Y  516   2.970   3.790   6.018  0.0702 -0.5115  0.5540
    4SAPS  C314  517   3.037   3.777   5.821  0.6955 -0.3424  0.2493
    4SAPS  H14X  518   3.122   3.733   5.765 -0.8681 -1.0424 -1.6568
    4SAPS  H14Y  519   3.034   3.885   5.795 -3.0743 -1.0107 -3.0273
    4SAPS  C315  520   2.902   3.729   5.767  0.0022  0.0669  0.2945
    4SAPS  H15X  521   2.814   3.780   5.811 -0.8860  2.1236 -3.3841
    4SAPS  H15Y  522   2.897   3.618   5.773  1.9078 -0.0773 -0.3515
    4SAPS  C316  523   2.886   3.757   5.612  0.2435 -0.5240  0.4233
    4SAPS  H16X  524   2.891   3.867   5.599  0.5623 -0.3306  1.9458
    4SAPS  H16Y  525   2.782   3.744   5.574 -1.3713  3.9214  2.5511
    4SAPS  C317  526   2.979   3.681   5.511 -0.7316  0.0736 -0.2302
    4SAPS  H17X  527   2.963   3.571   5.512  0.9433 -0.2349 -1.7838
    4SAPS  H17Y  528   3.087   3.697   5.536  0.0844  0.1395 -3.4338
    4SAPS  C318  529   2.977   3.728   5.366 -0.3172  0.5858 -0.0887
    4SAPS  H18X  530   2.874   3.740   5.327 -0.0951 -0.3058 -0.9847
    4SAPS  H18Y  531   3.034   3.652   5.309  0.5706  0.5939  0.7472
    4SAPS  H18Z  532   3.028   3.827   5.361  0.6588  0.0289 -2.0253
    5SAPS     N  533   5.168   0.069   7.311 -0.2171  0.2117 -0.2492
    5SAPS   HN1  534   5.092   0.001   7.331 -1.2874  1.2210 -0.7780
    5SAPS   HN2  535   5.132   0.157   7.269 -0.0480  0.5254  0.2557
    5SAPS   HN3  536   5.210   0.018   7.231  1.2802  2.2033 -0.8202
    5SAPS   C12  537   5.255   0.102   7.421  1.1915  0.2291  0.7936
    5SAPS  H12A  538   5.337   0.161   7.381  0.5546 -0.0372 -0.9811
    5SAPS   C13  539   5.186   0.178   7.537 -0.7820  0.9614 -0.2506
    5SAPS  O13A  540   5.067   0.208   7.531 -0.3710  0.1521  0.4666
    5SAPS  O13B  541   5.263   0.217   7.634  0.1687  0.4430  0.2084
    5SAPS   C11  542   5.321  -0.030   7.469 -0.3579  0.4407 -0.8108
    5SAPS  H11A  543   5.250  -0.110   7.502  2.5019 -2.2235 -0.6054
    5SAPS  H11B  544   5.388  -0.003   7.553 -2.6762  1.8532  0.7116
    5SAPS     P  545   5.528  -0.163   7.368  0.1702  0.0340 -0.1343
    5SAPS   O13  546   5.529  -0.250   7.494  0.3301  0.2801 -0.0554
    5SAPS   O14  547   5.552  -0.236   7.236 -0.0543  0.3285  0.2914
    5SAPS   O12  548   5.390  -0.089   7.361  0.6543  0.7693 -0.2876
    5SAPS   O11  549   5.633  -0.050   7.392  0.2433 -0.1316 -0.4860
    5SAPS    C1  550   5.631   0.065   7.308  0.1219 -0.0071 -0.0770
    5SAPS    HA  551   5.526   0.084   7.276 -0.2185 -1.1890  0.2742
    5SAPS    HB  552   5.666   0.146   7.375  1.6394 -1.5844  1.1255
    5SAPS    C2  553   5.736   0.054   7.190 -0.2687  0.2157 -0.3078
    5SAPS    HS  554   5.758   0.156   7.151 -0.3670  0.3599  0.0125
    5SAPS   O21  555   5.686  -0.033   7.090 -0.7971  0.1933  0.1588
    5SAPS   C21  556   5.591   0.016   7.013 -0.5424  0.3772  0.3564
    5SAPS   O22  557   5.529   0.115   7.030  0.1831  0.3648 -0.6326
    5SAPS   C22  558   5.568  -0.071   6.888 -0.2691  0.2607  0.5122
    5SAPS   H2R  559   5.651  -0.144   6.884  0.1786  0.6860  1.6761
    5SAPS   H2S  560   5.471  -0.123   6.905 -0.6192  0.3111 -1.1503
    5SAPS    C3  561   5.869   0.007   7.249 -0.5811  0.2388 -0.9912
    5SAPS    HX  562   5.845  -0.076   7.318 -2.4721  0.7736 -0.9364
    5SAPS    HY  563   5.914   0.090   7.307 -0.5311 -0.6199  0.2388
    5SAPS   O31  564   5.966  -0.052   7.152 -0.3291  0.0648 -0.6805
    5SAPS   C31  565   6.034   0.022   7.076 -0.7893 -0.2489  0.2557
    5SAPS   O32  566   6.070   0.139   7.095 -0.3583  0.5388  0.1622
    5SAPS   C32  567   6.077  -0.061   6.950 -0.1986  0.3058  0.1548
    5SAPS   H2X  568   6.086  -0.169   6.975 -0.6386  0.3716  0.6228
    5SAPS   H2Y  569   6.174  -0.025   6.909 -0.4105  0.4703 -0.2068
    5SAPS   C23  570   5.554   0.036   6.766 -0.4963 -0.1979  0.1574
    5SAPS   H3R  571   5.634   0.111   6.778 -1.5868  1.0952 -0.3743
    5SAPS   H3S  572   5.456   0.087   6.777  0.3070  1.8231 -1.3789
    5SAPS   C24  573   5.567  -0.042   6.629 -0.0897  0.1251 -0.4138
    5SAPS   H4R  574   5.483  -0.114   6.632  0.6004 -0.6575  1.6058
    5SAPS   H4S  575   5.669  -0.087   6.623 -0.5890 -1.2717  1.1551
    5SAPS   C25  576   5.548   0.066   6.525 -0.2698 -0.0416  0.5315
    5SAPS   H5R  577   5.523   0.167   6.560 -1.7630 -0.0521 -0.4084
    5SAPS   C26  578   5.553   0.059   6.385 -0.1772  0.3980  0.2506
    5SAPS   H6R  579   5.517   0.140   6.320  1.3695  0.7513 -0.1969
    5SAPS   C27  580   5.561  -0.071   6.310 -0.8647  0.2647 -0.5289
    5SAPS   H7R  581   5.465  -0.100   6.262 -2.7856 -0.2352  3.2583
    5SAPS   H7S  582   5.601  -0.142   6.385  1.3315  3.0607  1.1443
    5SAPS   C28  583   5.674  -0.046   6.216  0.4818  0.0708  0.2407
    5SAPS   H8R  584   5.765  -0.007   6.264 -0.8097  0.2421  2.6938
    5SAPS   C29  585   5.686  -0.096   6.093 -0.0245 -0.5014  0.6362
    5SAPS   H9R  586   5.778  -0.090   6.033 -1.1551 -1.4204 -1.3010
    5SAPS  C210  587   5.586  -0.181   6.015  0.9162 -0.1811 -0.2577
    5SAPS  H10R  588   5.552  -0.114   5.933  0.4321  0.9106  0.7948
    5SAPS  H10S  589   5.502  -0.225   6.073  1.5427 -1.6251 -0.4145
    5SAPS  C211  590   5.667  -0.299   5.958  0.1382  0.1288 -0.3783
    5SAPS  H11R  591   5.705  -0.368   6.035  1.4559  1.9618  0.6941
    5SAPS  C212  592   5.708  -0.317   5.828  0.5838  0.0580  0.2817
    5SAPS  H12R  593   5.779  -0.396   5.802 -0.2879 -0.3490 -0.9711
    5SAPS  C213  594   5.671  -0.220   5.715 -0.0107 -0.0282  0.4537
    5SAPS  H13R  595   5.679  -0.115   5.749 -1.2038  0.3050 -0.2435
    5SAPS  H13S  596   5.566  -0.240   5.683  0.1180 -0.5400  0.3289
    5SAPS  C214  597   5.764  -0.240   5.599 -0.1950 -0.4550  0.1038
    5SAPS  H14R  598   5.865  -0.272   5.626 -0.5312 -0.8783  0.8778
    5SAPS  C215  599   5.734  -0.197   5.473 -0.1426  0.6795 -0.2306
    5SAPS  H15R  600   5.811  -0.216   5.397 -0.8821 -4.3072 -0.0438
    5SAPS  C216  601   5.600  -0.155   5.436  0.1194 -0.2707  1.1000
    5SAPS  H16R  602   5.556  -0.089   5.513  2.3433  2.8716 -0.1306
    5SAPS  H16S  603   5.540  -0.248   5.427 -0.7787  0.3013  1.1003
    5SAPS  C217  604   5.600  -0.080   5.299 -0.2022  0.1112 -0.0429
    5SAPS  H17R  605   5.625  -0.139   5.209  1.0609  2.1702 -1.1183
    5SAPS  H17S  606   5.679  -0.002   5.297  0.0608 -0.1660 -1.9684
    5SAPS  C218  607   5.456  -0.017   5.268 -0.8121  0.5061 -0.0683
    5SAPS  H18R  608   5.401  -0.104   5.225  0.7360 -0.0799 -0.9260
    5SAPS  H18S  609   5.466   0.062   5.191  0.6840  0.3297 -0.0774
    5SAPS  C219  610   5.377   0.036   5.389 -0.3243  0.4968  0.3365
    5SAPS  H19R  611   5.359  -0.051   5.457  0.1047 -0.5678 -0.8714
    5SAPS  H19S  612   5.286   0.075   5.337  0.1447  1.9886  0.6006
    5SAPS  C220  613   5.446   0.152   5.458 -0.0651  0.1336  0.0933
    5SAPS  H20R  614   5.418   0.168   5.565  0.5238  1.2770  0.0976
    5SAPS  H20S  615   5.435   0.247   5.401  1.0302  0.1476 -0.1171
    5SAPS  H20T  616   5.556   0.134   5.460 -0.2295 -1.8419  4.7037
    5SAPS   C33  617   5.971  -0.049   6.843  1.0956  0.7191  0.6111
    5SAPS   H3X  618   5.970   0.046   6.787 -2.2927 -0.2359 -1.2323
    5SAPS   H3Y  619   5.870  -0.057   6.890  0.2924 -0.1988 -1.1858
    5SAPS   C34  620   5.985  -0.163   6.738 -0.3248 -0.1288  0.3670
    5SAPS   H4X  621   5.898  -0.158   6.669 -0.5710  0.0689  0.6831
    5SAPS   H4Y  622   5.973  -0.262   6.786 -0.2549 -0.4677 -0.3192
    5SAPS   C35  623   6.094  -0.133   6.641 -1.1289 -0.1181 -0.1746
    5SAPS   H5X  624   6.188  -0.124   6.698 -1.4777  1.8203  0.1656
    5SAPS   H5Y  625   6.083  -0.031   6.599 -0.5735  0.5570  1.2612
    5SAPS   C36  626   6.113  -0.235   6.525 -0.8416 -0.4909  0.1808
    5SAPS   H6X  627   6.014  -0.249   6.476 -1.1702  0.0475  0.6753
    5SAPS   H6Y  628   6.143  -0.330   6.573 -1.0615 -0.6426  0.0160
    5SAPS   C37  629   6.222  -0.206   6.420 -0.0558 -0.3628  0.2328
    5SAPS   H7X  630   6.322  -0.204   6.469 -1.0199  0.8167  2.2656
    5SAPS   H7Y  631   6.195  -0.108   6.375 -4.2194 -1.1840  0.5979
    5SAPS   C38  632   6.216  -0.309   6.307 -0.0812  0.3323 -0.0564
    5SAPS   H8X  633   6.116  -0.297   6.260 -1.5122 -2.3288  2.0406
    5SAPS   H8Y  634   6.223  -0.413   6.344 -0.1446 -1.0693 -3.6473
    5SAPS   C39  635   6.336  -0.301   6.210 -0.2210  0.5548  0.1628
    5SAPS   H9X  636   6.421  -0.366   6.238 -1.2984 -1.5760 -1.2164
    5SAPS   H9Y  637   6.372  -0.196   6.202 -0.1062  0.5347  0.4040
    5SAPS  C310  638   6.298  -0.345   6.066  0.5042  1.0439 -0.0716
    5SAPS  H10X  639   6.358  -0.300   5.985  0.4065 -0.5177 -1.0701
    5SAPS  H10Y  640   6.199  -0.300   6.044 -0.3776 -0.1295  1.3083
    5SAPS  C311  641   6.280  -0.492   6.027  0.6182 -0.5408 -0.0661
    5SAPS  H11X  642   6.228  -0.540   6.112  2.3779  0.4357  1.6467
    5SAPS  H11Y  643   6.378  -0.545   6.029  2.0540  1.9226 -0.0322
    5SAPS  C312  644   6.205  -0.524   5.900 -0.0742  0.1386  0.7315
    5SAPS  H12X  645   6.098  -0.515   5.925 -0.1868 -1.1594  0.8020
    5SAPS  H12Y  646   6.223  -0.630   5.870 -1.1063 -0.0474  0.7631
    5SAPS  C313  647   6.227  -0.434   5.780  0.2428  0.0689 -0.4166
    5SAPS  H13X  648   6.337  -0.434   5.765  0.3700  3.3205 -0.2338
    5SAPS  H13Y  649   6.198  -0.331   5.809 -0.6153 -0.3079  0.0973
    5SAPS  C314  650   6.152  -0.481   5.655  0.3849 -0.4485 -0.0676
    5SAPS  H14X  651   6.048  -0.442   5.660 -0.3385 -1.9447 -2.2580
    5SAPS  H14Y  652   6.167  -0.589   5.634  1.6935 -0.1653 -0.6616
    5SAPS  C315  653   6.225  -0.416   5.541  0.3903 -0.2629  0.5052
    5SAPS  H15X  654   6.332  -0.445   5.546  0.5729  0.5815  2.4149
    5SAPS  H15Y  655   6.237  -0.306   5.537  1.4183 -0.3849  0.2242
    5SAPS  C316  656   6.171  -0.470   5.412 -0.3571 -0.9574  0.3458
    5SAPS  H16X  657   6.146  -0.578   5.424 -2.5449 -0.3807  1.5348
    5SAPS  H16Y  658   6.258  -0.469   5.344 -0.6597 -1.0288 -0.0481
    5SAPS  C317  659   6.053  -0.392   5.361  0.0014 -0.6291 -0.3104
    5SAPS  H17X  660   6.078  -0.286   5.339 -1.8997 -0.1589 -0.3412
    5SAPS  H17Y  661   5.978  -0.385   5.442  0.1519  1.4292 -0.2961
    5SAPS  C318  662   5.982  -0.462   5.239 -0.3690 -0.9517  0.4470
    5SAPS  H18X  663   5.940  -0.563   5.259 -0.6681 -0.7933  0.6406
    5SAPS  H18Y  664   6.058  -0.474   5.159 -0.3625  2.1798 -0.1685
    5SAPS  H18Z  665   5.903  -0.391   5.205 -0.8438 -1.6596  0.0406
    6SAPS     N  666   2.788   0.277   7.614  0.1379 -0.0992  0.6777
    6SAPS   HN1  667   2.851   0.353   7.581 -1.0369  2.1125  3.1258
    6SAPS   HN2  668   2.778   0.193   7.554 -0.4752 -0.1865  0.8973
    6SAPS   HN3  669   2.697   0.327   7.619 -1.1960 -2.3251  0.0578
    6SAPS   C12  670   2.827   0.237   7.747  0.4828  0.3945 -1.1542
    6SAPS  H12A  671   2.825   0.333   7.796  3.7374  0.1179 -0.2488
    6SAPS   C13  672   2.728   0.146   7.826 -0.1279  0.2332  0.4840
    6SAPS  O13A  673   2.629   0.106   7.761  0.1281  0.0406 -0.0638
    6SAPS  O13B  674   2.750   0.135   7.948  0.0657 -0.1944  0.6038
    6SAPS   C11  675   2.968   0.173   7.751  0.3701  0.4866  0.2277
    6SAPS  H11A  676   2.968   0.078   7.694  0.5104  1.0727 -0.7876
    6SAPS  H11B  677   2.992   0.165   7.859 -2.4238  1.9112  1.0705
    6SAPS     P  678   3.224   0.234   7.698  0.5481  0.2343  0.2463
    6SAPS   O13  679   3.284   0.366   7.735  0.5771  0.4486 -0.0260
    6SAPS   O14  680   3.244   0.126   7.793  0.0245 -0.1006 -0.0550
    6SAPS   O12  681   3.068   0.261   7.691  0.1033  0.0893  0.5178
    6SAPS   O11  682   3.270   0.188   7.554  1.0438  0.3739 -0.0443
    6SAPS    C1  683   3.176   0.177   7.441  0.4332  0.5429 -0.0018
    6SAPS    HA  684   3.107   0.092   7.461  0.4030  0.6241  0.2436
    6SAPS    HB  685   3.115   0.268   7.427 -2.4127 -1.1835  0.2494
    6SAPS    C2  686   3.251   0.125   7.317  0.2394  0.1033  0.3653
    6SAPS    HS  687   3.322   0.047   7.350 -0.7304 -1.0322 -0.1951
    6SAPS   O21  688   3.325   0.235   7.265  0.1174 -0.4084 -0.1048
    6SAPS   C21  689   3.453   0.254   7.311 -0.6546  1.1971  0.3145
    6SAPS   O22  690   3.519   0.164   7.363 -0.2671  0.0025 -0.8314
    6SAPS   C22  691   3.498   0.399   7.283 -0.0550  0.1700  0.3367
    6SAPS   H2R  692   3.534   0.396   7.177 -0.7384 -3.7838  0.0496
    6SAPS   H2S  693   3.405   0.458   7.293  0.1152  0.3921  0.6266
    6SAPS    C3  694   3.148   0.079   7.217 -0.0240  0.0576 -0.3155
    6SAPS    HX  695   3.094   0.175   7.200 -0.8241 -0.3610 -0.1678
    6SAPS    HY  696   3.075   0.002   7.251 -0.7006  0.6159 -0.4798
    6SAPS   O31  697   3.207   0.038   7.095  0.2066  0.2199 -0.2403
    6SAPS   C31  698   3.230  -0.091   7.073  0.5710  1.0769 -0.0176
    6SAPS   O32  699   3.212  -0.185   7.151 -0.5686 -0.2094  0.1989
    6SAPS   C32  700   3.275  -0.104   6.927 -0.1040  0.1377  0.3541
    6SAPS   H2X  701   3.365  -0.038   6.924  0.2045  0.0311  3.5368
    6SAPS   H2Y  702   3.189  -0.086   6.859 -0.3003 -2.2070 -0.0935
    6SAPS   C23  703   3.615   0.432   7.371  0.5958 -0.1091  0.2385
    6SAPS   H3R  704   3.600   0.412   7.480 -0.7447  0.8221  0.2524
    6SAPS   H3S  705   3.627   0.543   7.371 -1.3734  0.1518  0.7189
    6SAPS   C24  706   3.751   0.380   7.321  0.1306 -0.4017  0.0454
    6SAPS   H4R  707   3.760   0.269   7.312  4.3020 -0.1489 -1.0611
    6SAPS   H4S  708   3.822   0.405   7.402  0.9934 -2.8612  0.1328
    6SAPS   C25  709   3.785   0.445   7.183 -0.3197 -0.3239 -0.3466
    6SAPS   H5R  710   3.782   0.554   7.171 -1.0889 -0.2710  0.2297
    6SAPS   C26  711   3.822   0.382   7.072 -0.2186 -0.1186 -0.1419
    6SAPS   H6R  712   3.862   0.442   6.989  1.5582 -0.7710  0.1934
    6SAPS   C27  713   3.843   0.235   7.045 -0.4863 -0.5112  0.1796
    6SAPS   H7R  714   3.897   0.183   7.126  1.2175 -0.4306 -0.8595
    6SAPS   H7S  715   3.912   0.235   6.958 -1.2482  0.6708 -0.4692
    6SAPS   C28  716   3.713   0.177   7.007  0.4911 -0.7925 -0.4181
    6SAPS   H8R  717   3.649   0.161   7.095 -1.3332  2.1498 -1.0594
    6SAPS   C29  718   3.665   0.130   6.889  0.3055 -0.5373  0.3826
    6SAPS   H9R  719   3.563   0.088   6.894 -0.1773  0.2706 -1.6572
    6SAPS  C210  720   3.723   0.127   6.752  0.2539  0.3413 -0.1642
    6SAPS  H10R  721   3.833   0.129   6.760  0.3311  0.6255 -1.1826
    6SAPS  H10S  722   3.697   0.218   6.693 -1.4966  0.0627  0.1163
    6SAPS  C211  723   3.685   0.004   6.677  0.1580 -0.1085  0.4690
    6SAPS  H11R  724   3.764  -0.072   6.665 -0.6199 -0.7314 -0.9894
    6SAPS  C212  725   3.571  -0.028   6.614 -0.6742 -0.4314 -0.6384
    6SAPS  H12R  726   3.575  -0.117   6.550 -0.4562 -0.4783 -0.5593
    6SAPS  C213  727   3.445   0.055   6.598 -0.4343 -0.3650  0.1269
    6SAPS  H13R  728   3.481   0.147   6.545  1.0074 -0.1464  1.4245
    6SAPS  H13S  729   3.417   0.106   6.693 -1.7132  2.2136 -1.4891
    6SAPS  C214  730   3.323  -0.012   6.540  0.5423  0.0203 -0.0029
    6SAPS  H14R  731   3.261  -0.076   6.604  0.9576  0.5809  0.9794
    6SAPS  C215  732   3.294  -0.023   6.407 -0.6168  0.0071  0.9947
    6SAPS  H15R  733   3.207  -0.076   6.366 -0.5432  0.9053 -0.3811
    6SAPS  C216  734   3.365   0.055   6.298  0.0091  0.3980 -0.0701
    6SAPS  H16R  735   3.385  -0.016   6.215 -0.4819  3.0394 -2.6222
    6SAPS  H16S  736   3.468   0.087   6.326  1.1206  0.1439 -3.3656
    6SAPS  C217  737   3.290   0.169   6.230  0.2492 -0.6014  1.0489
    6SAPS  H17R  738   3.314   0.266   6.278 -1.6166  1.6386 -2.1094
    6SAPS  H17S  739   3.184   0.158   6.259 -0.9416  1.6329 -1.9388
    6SAPS  C218  740   3.316   0.174   6.086  0.3583  0.4729  0.5040
    6SAPS  H18R  741   3.251   0.100   6.033  0.1391  1.7299 -1.0685
    6SAPS  H18S  742   3.422   0.157   6.058  0.6677  1.6905  0.8773
    6SAPS  C219  743   3.258   0.304   6.018 -0.3499  0.1181  0.3956
    6SAPS  H19R  744   3.298   0.391   6.074  2.5245 -1.0242  0.2659
    6SAPS  H19S  745   3.148   0.292   6.029 -0.9242  3.5953 -0.3210
    6SAPS  C220  746   3.303   0.320   5.873  0.1549  0.7179 -0.3200
    6SAPS  H20R  747   3.329   0.222   5.828 -0.1218 -1.6386  4.1017
    6SAPS  H20S  748   3.382   0.398   5.866 -1.3970  2.2840 -1.3984
    6SAPS  H20T  749   3.218   0.365   5.816 -3.7268 -2.8593  2.0326
    6SAPS   C33  750   3.324  -0.248   6.880 -0.0420 -0.2992  0.9312
    6SAPS   H3X  751   3.371  -0.311   6.958  1.7728 -2.0232 -1.3900
    6SAPS   H3Y  752   3.393  -0.230   6.795 -0.1139 -1.9629  0.4867
    6SAPS   C34  753   3.208  -0.338   6.825 -0.1431 -0.1515 -0.2608
    6SAPS   H4X  754   3.131  -0.369   6.899 -0.2835 -0.0201 -0.3510
    6SAPS   H4Y  755   3.273  -0.425   6.799  0.7623 -0.4523  2.6595
    6SAPS   C35  756   3.139  -0.294   6.699 -0.4340 -0.9388  0.8570
    6SAPS   H5X  757   3.211  -0.304   6.615 -0.8467  1.5658  0.1067
    6SAPS   H5Y  758   3.126  -0.183   6.697  1.6521 -0.6595 -0.9124
    6SAPS   C36  759   3.006  -0.357   6.651  0.2846 -0.4650  0.2141
    6SAPS   H6X  760   2.923  -0.328   6.719  0.1109 -0.7772  0.1402
    6SAPS   H6Y  761   3.019  -0.467   6.642 -1.0502 -0.5875 -0.4821
    6SAPS   C37  762   2.956  -0.295   6.517  0.1383  0.1747 -0.3766
    6SAPS   H7X  763   2.948  -0.184   6.528 -0.5140 -0.0088  1.3517
    6SAPS   H7Y  764   2.849  -0.324   6.504  0.5638 -0.1834 -3.7342
    6SAPS   C38  765   3.048  -0.334   6.401 -0.3311  0.3550  0.4422
    6SAPS   H8X  766   3.058  -0.445   6.399  0.4860  0.3129  2.9039
    6SAPS   H8Y  767   3.155  -0.307   6.416 -0.0408 -0.6100  0.1934
    6SAPS   C39  768   3.000  -0.294   6.260  0.0360  0.1297  0.0793
    6SAPS   H9X  769   3.029  -0.189   6.241  3.1385 -0.7225 -0.4310
    6SAPS   H9Y  770   2.890  -0.308   6.255  0.0666  0.2956 -2.1108
    6SAPS  C310  771   3.065  -0.387   6.149 -0.1523 -0.1903 -1.0635
    6SAPS  H10X  772   3.006  -0.481   6.141 -0.4256 -0.0416 -0.8419
    6SAPS  H10Y  773   3.172  -0.407   6.173 -0.4385 -0.9916 -0.3846
    6SAPS  C311  774   3.062  -0.305   6.016  0.1089  1.0748  0.1749
    6SAPS  H11X  775   3.113  -0.212   6.052  0.2961 -0.3391  4.0305
    6SAPS  H11Y  776   2.957  -0.303   5.981  0.4480  0.6119 -0.9014
    6SAPS  C312  777   3.135  -0.370   5.903 -0.5610  0.0115  0.1486
    6SAPS  H12X  778   3.236  -0.398   5.941 -0.1299  0.0751 -0.9221
    6SAPS  H12Y  779   3.158  -0.300   5.820  0.3788 -1.9104 -1.3025
    6SAPS  C313  780   3.074  -0.489   5.848  0.6130  0.8902  0.0598
    6SAPS  H13X  781   2.968  -0.460   5.829  0.3794  1.4125  1.9280
    6SAPS  H13Y  782   3.073  -0.572   5.922 -0.4408 -1.1427 -2.1033
    6SAPS  C314  783   3.138  -0.541   5.709  0.2716 -0.7467  0.0054
    6SAPS  H14X  784   3.091  -0.640   5.691 -1.4416 -0.0412  0.4139
    6SAPS  H14Y  785   3.248  -0.547   5.728  0.4134  0.8463 -0.2623
    6SAPS  C315  786   3.107  -0.460   5.579  0.1526 -0.3668 -0.1695
    6SAPS  H15X  787   3.156  -0.516   5.497  0.7375 -1.8307  1.1390
    6SAPS  H15Y  788   3.148  -0.357   5.590  0.7417 -0.4732 -1.2721
    6SAPS  C316  789   2.963  -0.460   5.540 -0.4798  0.3208  0.6157
    6SAPS  H16X  790   2.912  -0.399   5.618 -1.2391 -0.5792  0.8453
    6SAPS  H16Y  791   2.927  -0.562   5.566  3.0209 -1.1885  0.1373
    6SAPS  C317  792   2.925  -0.422   5.395  0.3300 -0.5887 -0.1596
    6SAPS  H17X  793   2.815  -0.408   5.386  0.6220  1.2070 -1.4543
    6SAPS  H17Y  794   2.954  -0.508   5.331  1.2662  0.3004 -0.9574
    6SAPS  C318  795   2.984  -0.289   5.345 -0.1455  0.6922  0.5342
    6SAPS  H18X  796   3.092  -0.310   5.329 -0.6704 -0.9941 -1.0796
    6SAPS  H18Y  797   2.981  -0.208   5.422  0.2486  0.2309  1.0457
    6SAPS  H18Z  798   2.939  -0.261   5.247 -1.4490  2.5416  1.5939
    7SAPS     N  799   5.158   0.919   8.124 -0.4908 -0.4954 -0.2582
    7SAPS   HN1  800   5.234   0.970   8.075  0.5381 -2.2989 -0.6054
    7SAPS   HN2  801   5.079   0.987   8.127 -0.2492 -0.2329  0.4325
    7SAPS   HN3  802   5.186   0.901   8.223 -1.7902  1.2954  0.4898
    7SAPS   C12  803   5.121   0.802   8.043  0.0957 -0.7872 -0.2397
    7SAPS  H12A  804   5.213   0.757   8.008  2.2577  1.7445  1.7745
    7SAPS   C13  805   5.038   0.688   8.113 -0.1584 -0.0987 -0.7490
    7SAPS  O13A  806   5.015   0.708   8.233  0.3098  0.1255  0.2913
    7SAPS  O13B  807   4.998   0.582   8.052 -0.3221 -0.4737  0.1618
    7SAPS   C11  808   5.050   0.858   7.915 -0.0515 -0.3760  0.0820
    7SAPS  H11A  809   4.951   0.902   7.940  0.8008  1.3467  0.5982
    7SAPS  H11B  810   5.020   0.770   7.854 -0.3787  1.0825 -1.9542
    7SAPS     P  811   5.198   0.907   7.715  0.2634 -0.0757 -0.1669
    7SAPS   O13  812   5.270   1.032   7.668 -0.2963  0.0641  0.0666
    7SAPS   O14  813   5.287   0.790   7.751 -0.3855  0.3974 -0.0248
    7SAPS   O12  814   5.126   0.955   7.850  0.0368  0.1286  0.4200
    7SAPS   O11  815   5.079   0.862   7.615 -0.1862  0.2562  0.1286
    7SAPS    C1  816   5.009   0.958   7.531 -0.3599 -0.1773  0.1823
    7SAPS    HA  817   4.907   0.985   7.564  0.8311  2.0739  2.4185
    7SAPS    HB  818   5.061   1.056   7.542  2.3465 -1.3895 -0.7229
    7SAPS    C2  819   5.027   0.932   7.375 -0.1026 -0.1817  0.1948
    7SAPS    HS  820   4.986   0.833   7.347 -0.0818 -0.9622  2.6640
    7SAPS   O21  821   5.163   0.956   7.341  0.7556  0.4306 -0.0540
    7SAPS   C21  822   5.233   0.839   7.326  0.3047 -0.7416  0.0451
    7SAPS   O22  823   5.190   0.732   7.315  0.2257  0.6432 -0.0076
    7SAPS   C22  824   5.377   0.881   7.313 -0.5982 -0.0600 -0.2985
    7SAPS   H2R  825   5.406   0.953   7.393 -0.0021  2.8497 -2.9181
    7SAPS   H2S  826   5.443   0.793   7.329  1.1610  1.5368  1.8633
    7SAPS    C3  827   4.947   1.034   7.294  0.5464  0.0528 -0.5843
    7SAPS    HX  828   4.994   1.133   7.314 -0.4799  0.8679 -1.9728
    7SAPS    HY  829   4.842   1.031   7.329  0.1147  2.6847 -1.4436
    7SAPS   O31  830   4.944   1.000   7.156 -0.1096 -0.2299 -0.1282
    7SAPS   C31  831   5.011   1.073   7.073  0.5607  0.5271  0.3823
    7SAPS   O32  832   5.071   1.175   7.099  0.2177  0.0204  0.4329
    7SAPS   C32  833   5.020   1.002   6.941  0.0593  0.7717  0.2682
    7SAPS   H2X  834   4.917   0.983   6.903 -0.9763 -0.8737  3.5039
    7SAPS   H2Y  835   5.067   0.905   6.969  0.9862  1.6249  1.8068
    7SAPS   C23  836   5.391   0.959   7.177  0.6151  0.4724 -0.1136
    7SAPS   H3R  837   5.492   1.003   7.162  1.1463 -0.3226  0.9632
    7SAPS   H3S  838   5.325   1.048   7.183  1.4598  0.9893  2.9424
    7SAPS   C24  839   5.351   0.870   7.057  0.1103  0.4340 -0.3501
    7SAPS   H4R  840   5.340   0.941   6.972 -1.2228  0.4177 -0.2074
    7SAPS   H4S  841   5.251   0.822   7.070  0.1105  0.7001  0.7005
    7SAPS   C25  842   5.453   0.758   7.037  0.2052 -0.8760 -0.2415
    7SAPS   H5R  843   5.466   0.686   7.119  0.4487  0.5436  1.0031
    7SAPS   C26  844   5.529   0.744   6.925  1.0662  0.0449 -0.0262
    7SAPS   H6R  845   5.602   0.662   6.935 -0.4334 -1.0951  2.2161
    7SAPS   C27  846   5.529   0.834   6.806 -0.3505 -0.0430 -0.1182
    7SAPS   H7R  847   5.511   0.938   6.841 -0.4338 -0.8619  2.4988
    7SAPS   H7S  848   5.452   0.802   6.732  0.0008 -2.2515  0.3891
    7SAPS   C28  849   5.656   0.826   6.726  0.7677  0.1906 -0.0574
    7SAPS   H8R  850   5.740   0.898   6.733  1.5062 -0.6328 -0.3231
    7SAPS   C29  851   5.672   0.729   6.635 -0.2048  0.3713  0.2900
    7SAPS   H9R  852   5.757   0.739   6.566 -1.0047  1.0838 -0.6306
    7SAPS  C210  853   5.580   0.610   6.599  1.1234 -0.7118  0.3728
    7SAPS  H10R  854   5.496   0.647   6.537 -0.1142 -3.2735  0.4006
    7SAPS  H10S  855   5.527   0.574   6.690  2.3639 -1.1835  0.9419
    7SAPS  C211  856   5.648   0.495   6.530  0.0172  0.3469 -0.1145
    7SAPS  H11R  857   5.711   0.435   6.596  0.8449  1.1216 -0.1862
    7SAPS  C212  858   5.641   0.469   6.400  0.6851 -0.0118 -0.6614
    7SAPS  H12R  859   5.680   0.374   6.360  1.7600 -0.8822  2.1688
    7SAPS  C213  860   5.568   0.548   6.291 -0.7892  0.3092  0.2981
    7SAPS  H13R  861   5.534   0.648   6.327  1.2262  2.4842 -3.2610
    7SAPS  H13S  862   5.491   0.481   6.248  0.5830 -0.4453 -1.0491
    7SAPS  C214  863   5.670   0.583   6.187 -0.0273 -0.0560  0.2408
    7SAPS  H14R  864   5.698   0.688   6.169 -1.2537  0.2676  0.0790
    7SAPS  C215  865   5.733   0.502   6.090  0.4385 -0.0230  0.1751
    7SAPS  H15R  866   5.805   0.536   6.015  0.0192 -1.7794 -1.0804
    7SAPS  C216  867   5.726   0.350   6.074  0.2667  0.0190  0.2333
    7SAPS  H16R  868   5.652   0.313   6.148 -1.3435  0.2775 -1.2053
    7SAPS  H16S  869   5.824   0.302   6.096  0.5370 -0.2416 -1.3905
    7SAPS  C217  870   5.678   0.289   5.939  0.7087 -0.0203  0.2188
    7SAPS  H17R  871   5.584   0.332   5.899 -0.6228 -2.1363  0.8959
    7SAPS  H17S  872   5.651   0.186   5.971  0.3487 -0.5676 -1.7275
    7SAPS  C218  873   5.785   0.282   5.833 -0.6233  0.5440  0.3919
    7SAPS  H18R  874   5.874   0.229   5.874 -0.9634 -0.8390 -0.5852
    7SAPS  H18S  875   5.827   0.382   5.810 -0.4237 -0.1743 -2.8716
    7SAPS  C219  876   5.729   0.230   5.704 -0.6888 -0.6259 -0.0904
    7SAPS  H19R  877   5.627   0.269   5.685  0.3776  1.7284 -1.3523
    7SAPS  H19S  878   5.721   0.119   5.708  1.5040 -0.9052 -1.7522
    7SAPS  C220  879   5.825   0.270   5.590 -0.6156 -0.0885  0.0695
    7SAPS  H20R  880   5.785   0.235   5.493 -0.4227 -0.5209  0.1472
    7SAPS  H20S  881   5.920   0.215   5.609  0.8773  1.7717 -1.5725
    7SAPS  H20T  882   5.851   0.379   5.592  1.1986 -0.4864  1.7480
    7SAPS   C33  883   5.103   1.085   6.845 -0.0522 -0.1965 -0.5729
    7SAPS   H3X  884   5.191   1.125   6.900 -1.1655  0.3284  0.8924
    7SAPS   H3Y  885   5.050   1.169   6.794 -0.0343 -0.8506 -1.7035
    7SAPS   C34  886   5.156   0.996   6.727  0.3595  0.1479  0.1054
    7SAPS   H4X  887   5.226   0.919   6.768  2.9233  1.7382 -1.0269
    7SAPS   H4Y  888   5.210   1.062   6.656 -2.1097  0.6637 -1.4167
    7SAPS   C35  889   5.049   0.932   6.639 -0.9601  0.4095 -0.6305
    7SAPS   H5X  890   4.979   1.009   6.601 -1.6022 -0.0089 -0.3180
    7SAPS   H5Y  891   4.982   0.865   6.697  0.9577 -1.5245 -0.5610
    7SAPS   C36  892   5.106   0.856   6.524 -0.0930 -0.4308 -0.6360
    7SAPS   H6X  893   5.185   0.790   6.568 -0.2992 -0.7355 -0.7203
    7SAPS   H6Y  894   5.159   0.930   6.461  2.9413 -0.2793  1.8072
    7SAPS   C37  895   5.003   0.783   6.439 -0.8697 -0.0636 -0.0247
    7SAPS   H7X  896   4.902   0.830   6.444 -1.7574 -1.9703  1.0001
    7SAPS   H7Y  897   4.998   0.684   6.489 -0.5512  0.7376  1.6605
    7SAPS   C38  898   5.035   0.780   6.294  0.5511  0.2491 -0.6123
    7SAPS   H8X  899   5.117   0.706   6.288  1.5397  1.2083  0.3865
    7SAPS   H8Y  900   5.073   0.880   6.262 -0.6083  0.0975 -2.5885
    7SAPS   C39  901   4.913   0.751   6.211  0.1302 -0.4154 -0.3265
    7SAPS   H9X  902   4.837   0.832   6.218  2.4067  1.9875 -1.5964
    7SAPS   H9Y  903   4.875   0.648   6.220 -1.6699  0.3815  2.5942
    7SAPS  C310  904   4.964   0.755   6.064 -0.2010  0.0171 -0.3441
    7SAPS  H10X  905   4.883   0.730   5.992  0.7904 -0.2358 -1.4030
    7SAPS  H10Y  906   5.045   0.681   6.047 -1.3210 -1.3981  0.1876
    7SAPS  C311  907   5.018   0.892   6.014 -0.4364 -0.2731 -0.1528
    7SAPS  H11X  908   5.111   0.922   6.066 -1.5058  2.2965  0.4373
    7SAPS  H11Y  909   4.949   0.977   6.034  1.2501  0.7554  1.6473
    7SAPS  C312  910   5.041   0.891   5.867  0.0838 -0.1601  0.3164
    7SAPS  H12X  911   4.963   0.837   5.809 -1.2094  1.4831  0.4571
    7SAPS  H12Y  912   5.139   0.840   5.856 -0.8402 -2.3827  1.6186
    7SAPS  C313  913   5.035   1.027   5.798  0.0236  0.0669  0.0655
    7SAPS  H13X  914   5.121   1.097   5.807 -1.0104  1.3744  0.2027
    7SAPS  H13Y  915   4.966   1.092   5.856  0.4124  1.1827 -0.6733
    7SAPS  C314  916   4.982   1.030   5.656 -0.2100 -0.8858 -0.3312
    7SAPS  H14X  917   4.890   0.968   5.655 -0.3098 -0.7455 -1.3637
    7SAPS  H14Y  918   5.053   0.991   5.579 -0.7893  0.8340 -1.8025
    7SAPS  C315  919   4.954   1.169   5.603  0.1602 -0.9310 -0.7848
    7SAPS  H15X  920   5.053   1.219   5.588  0.6291 -1.9573 -1.2037
    7SAPS  H15Y  921   4.892   1.219   5.681  1.3042 -2.0958  0.9296
    7SAPS  C316  922   4.880   1.172   5.469  0.2585 -0.2859 -0.2866
    7SAPS  H16X  923   4.789   1.108   5.469 -1.9105  2.6461  0.0498
    7SAPS  H16Y  924   4.944   1.120   5.394 -0.8662 -0.5128 -1.1218
    7SAPS  C317  925   4.850   1.312   5.402 -1.0088 -0.2296  0.5498
    7SAPS  H17X  926   4.763   1.373   5.435  1.2085  1.5612  3.5512
    7SAPS  H17Y  927   4.831   1.284   5.296  0.4916 -2.1356  0.7323
    7SAPS  C318  928   4.972   1.403   5.402  0.1281 -0.8823 -0.0295
    7SAPS  H18X  929   5.061   1.342   5.374  0.3823  0.6442 -3.0822
    7SAPS  H18Y  930   4.986   1.460   5.496  1.5326  1.7697 -1.7129
    7SAPS  H18Z  931   4.959   1.481   5.324 -2.4324  0.5159  1.6867
    8SAPS     N  932   1.206   1.745   7.400  0.3656 -0.5271 -0.1668
    8SAPS   HN1  933   1.194   1.670   7.329  0.0754  0.1659 -0.8671
    8SAPS   HN2  934   1.124   1.738   7.465  1.8294 -0.4874  1.7710
    8SAPS   HN3  935   1.211   1.837   7.351  1.4501 -0.6318 -0.2714
    8SAPS   C12  936   1.331   1.729   7.476  0.4719  0.4079  0.1113
    8SAPS  H12A  937   1.404   1.757   7.402  0.2499 -3.8604 -2.0530
    8SAPS   C13  938   1.358   1.820   7.598 -0.6486  0.4857 -0.5137
    8SAPS  O13A  939   1.270   1.906   7.629  0.2676  0.6418 -0.2369
    8SAPS  O13B  940   1.466   1.805   7.664 -0.4538  0.4020  0.1777
    8SAPS   C11  941   1.366   1.582   7.513  0.6172  0.2770 -0.4454
    8SAPS  H11A  942   1.287   1.550   7.584  2.3255 -3.0101  0.1351
    8SAPS  H11B  943   1.466   1.576   7.559 -0.0661  0.5276  1.1360
    8SAPS     P  944   1.409   1.362   7.392  0.0532  0.6285 -0.2100
    8SAPS   O13  945   1.556   1.362   7.388  0.6250  0.2648  0.3777
    8SAPS   O14  946   1.346   1.292   7.506 -0.1950  0.2004  0.1493
    8SAPS   O12  947   1.362   1.510   7.392 -0.5570  0.0554  0.7627
    8SAPS   O11  948   1.356   1.296   7.260  0.2686  0.1856  0.0905
    8SAPS    C1  949   1.315   1.389   7.155  0.1780  0.1838  0.3884
    8SAPS    HA  950   1.259   1.475   7.198  0.0418 -0.4578  1.5414
    8SAPS    HB  951   1.400   1.424   7.093  0.5801 -0.6435  0.4562
    8SAPS    C2  952   1.215   1.316   7.057 -1.2155  0.3217 -0.8482
    8SAPS    HS  953   1.136   1.269   7.119  0.2974  0.4404  1.3290
    8SAPS   O21  954   1.292   1.217   6.991 -0.2678 -0.1669 -0.0346
    8SAPS   C21  955   1.235   1.103   6.965 -0.6504  0.2377  0.4931
    8SAPS   O22  956   1.122   1.068   7.004  0.2001  0.9107 -0.1992
    8SAPS   C22  957   1.338   1.010   6.891 -0.3290  0.4283 -0.0852
    8SAPS   H2R  958   1.434   1.001   6.946 -0.2802  1.8672  0.1058
    8SAPS   H2S  959   1.274   0.918   6.886 -1.6291  1.3047 -0.1465
    8SAPS    C3  960   1.159   1.416   6.962 -0.0450  0.7136 -0.0717
    8SAPS    HX  961   1.248   1.473   6.926 -1.0456  1.6583 -1.1547
    8SAPS    HY  962   1.096   1.493   7.010 -0.9985 -0.5157  0.6984
    8SAPS   O31  963   1.095   1.353   6.846 -0.6864  0.0277  0.2633
    8SAPS   C31  964   0.971   1.317   6.866 -1.0836 -0.2842 -0.1588
    8SAPS   O32  965   0.905   1.347   6.965 -0.0510  0.0180 -0.4679
    8SAPS   C32  966   0.929   1.238   6.741  0.4210 -0.4867  0.0828
    8SAPS   H2X  967   0.825   1.205   6.762  0.1742  0.5041  0.4650
    8SAPS   H2Y  968   0.982   1.141   6.734 -0.6856 -1.1864  0.9931
    8SAPS   C23  969   1.377   1.071   6.754 -0.1286 -0.4566 -0.6412
    8SAPS   H3R  970   1.456   1.008   6.709  1.0608  1.0200 -0.6938
    8SAPS   H3S  971   1.440   1.160   6.779 -0.5605 -0.3609  0.1626
    8SAPS   C24  972   1.275   1.091   6.649  0.0174 -0.1234 -0.6645
    8SAPS   H4R  973   1.336   1.139   6.570 -0.4576  1.5286 -0.0786
    8SAPS   H4S  974   1.211   1.175   6.685 -0.3244 -1.0708  1.0868
    8SAPS   C25  975   1.201   0.971   6.599 -0.3524  0.2804  0.3243
    8SAPS   H5R  976   1.145   0.924   6.681 -0.2429 -2.9470 -1.2883
    8SAPS   C26  977   1.197   0.919   6.473  0.5542  0.1608  0.3135
    8SAPS   H6R  978   1.138   0.827   6.465  1.6723 -0.4373 -1.8518
    8SAPS   C27  979   1.271   0.980   6.354  0.6622 -0.4263  0.3303
    8SAPS   H7R  980   1.364   1.027   6.392  1.6080 -0.5464 -1.7048
    8SAPS   H7S  981   1.207   1.061   6.312  0.3324  0.7187  2.8789
    8SAPS   C28  982   1.304   0.875   6.249  0.3689 -0.5527  0.9747
    8SAPS   H8R  983   1.407   0.840   6.266  0.6972  0.1463  0.5048
    8SAPS   C29  984   1.236   0.831   6.144  0.4341 -0.0628  0.5988
    8SAPS   H9R  985   1.281   0.757   6.076  0.1565 -1.0207  1.4223
    8SAPS  C210  986   1.091   0.856   6.116 -0.2882  0.1383 -0.2709
    8SAPS  H10R  987   1.064   0.960   6.087 -1.7180  0.0356  0.5869
    8SAPS  H10S  988   1.027   0.843   6.206 -4.0324  0.9635 -2.5914
    8SAPS  C211  989   1.027   0.754   6.019 -0.1639  0.2263  1.4695
    8SAPS  H11R  990   0.989   0.659   6.059 -0.4213 -0.3069  0.0144
    8SAPS  C212  991   1.008   0.783   5.889 -0.0322  0.3907  0.5591
    8SAPS  H12R  992   0.949   0.716   5.825  0.6061  0.2424  0.1079
    8SAPS  C213  993   1.042   0.918   5.823  0.1675  0.6331 -0.0901
    8SAPS  H13R  994   1.105   0.982   5.887  2.5568 -0.2114 -1.4934
    8SAPS  H13S  995   0.948   0.969   5.794 -1.0958 -0.0314  2.4952
    8SAPS  C214  996   1.129   0.892   5.702  0.1637  0.0526 -0.2492
    8SAPS  H14R  997   1.230   0.884   5.743 -0.3043 -0.0756  0.9228
    8SAPS  C215  998   1.096   0.868   5.565  0.0950 -0.6730 -0.0887
    8SAPS  H15R  999   1.171   0.840   5.490  0.6769 -0.5759  0.4547
    8SAPS  C216 1000   0.954   0.885   5.509  0.4597  0.4528  0.0066
    8SAPS  H16R 1001   0.894   0.961   5.563 -0.2955 -0.6818  0.8255
    8SAPS  H16S 1002   0.901   0.791   5.535  0.6636  0.2744 -0.2195
    8SAPS  C217 1003   0.942   0.902   5.358 -0.0539 -0.5076 -0.7117
    8SAPS  H17R 1004   1.021   0.843   5.307 -1.2026 -1.3530 -1.5922
    8SAPS  H17S 1005   0.963   1.009   5.337  0.2969 -0.2273  0.8971
    8SAPS  C218 1006   0.802   0.862   5.305 -0.0113  0.6314  0.1340
    8SAPS  H18R 1007   0.779   0.754   5.319  0.3962  0.3508 -1.1641
    8SAPS  H18S 1008   0.811   0.869   5.194  1.4459 -1.4625  0.0615
    8SAPS  C219 1009   0.675   0.932   5.358 -0.0339  0.2126 -0.2288
    8SAPS  H19R 1010   0.686   1.043   5.357 -1.8084  0.4128 -1.2182
    8SAPS  H19S 1011   0.663   0.896   5.462 -2.4680 -0.2995 -0.6449
    8SAPS  C220 1012   0.554   0.905   5.270  0.0717  0.1066  0.1924
    8SAPS  H20R 1013   0.540   0.795   5.265 -1.6052  0.3124 -0.4333
    8SAPS  H20S 1014   0.561   0.952   5.169  2.1670  0.9080  0.6537
    8SAPS  H20T 1015   0.464   0.942   5.325 -0.0243 -2.2537  1.7549
    8SAPS   C33 1016   0.945   1.314   6.612 -0.4902  0.0034  0.3295
    8SAPS   H3X 1017   1.051   1.345   6.621 -1.3805  3.3766  0.4012
    8SAPS   H3Y 1018   0.894   1.411   6.598 -2.7233 -1.1448  0.0896
    8SAPS   C34 1019   0.913   1.224   6.500  0.0516  0.3066  0.2960
    8SAPS   H4X 1020   0.803   1.210   6.493  0.3221 -2.0525 -0.0372
    8SAPS   H4Y 1021   0.952   1.120   6.509 -0.0530  0.3571  1.4719
    8SAPS   C35 1022   0.950   1.280   6.361  0.9722 -0.6471 -0.8675
    8SAPS   H5X 1023   1.052   1.251   6.325  0.8270 -0.2062 -1.6677
    8SAPS   H5Y 1024   0.946   1.391   6.362  3.9724 -0.4565  0.2159
    8SAPS   C36 1025   0.849   1.234   6.251 -0.4687 -1.1368  0.5427
    8SAPS   H6X 1026   0.741   1.241   6.277 -1.1402 -0.2590 -2.2027
    8SAPS   H6Y 1027   0.868   1.125   6.237  0.0704 -1.2076  1.7236
    8SAPS   C37 1028   0.863   1.306   6.117  0.5608  0.1141  0.2394
    8SAPS   H7X 1029   0.969   1.321   6.087  0.6303 -0.2406  0.3000
    8SAPS   H7Y 1030   0.836   1.413   6.133  1.0774  0.2257  0.3829
    8SAPS   C38 1031   0.764   1.244   6.012 -0.0400 -0.4765 -1.1042
    8SAPS   H8X 1032   0.661   1.279   6.034  0.3776  0.6698 -0.8592
    8SAPS   H8Y 1033   0.771   1.134   6.022  0.5812 -0.4137 -0.7933
    8SAPS   C39 1034   0.805   1.274   5.862  0.7284 -0.4387 -0.0216
    8SAPS   H9X 1035   0.907   1.230   5.854  0.0529 -1.8802 -1.3022
    8SAPS   H9Y 1036   0.813   1.385   5.863  0.8012 -0.3836 -2.0573
    8SAPS  C310 1037   0.717   1.211   5.754  0.3464  0.3817  0.4803
    8SAPS  H10X 1038   0.701   1.105   5.784  0.8727 -0.7424 -2.8482
    8SAPS  H10Y 1039   0.771   1.217   5.657 -1.1376  1.1045 -0.3244
    8SAPS  C311 1040   0.580   1.283   5.733 -0.0214 -0.8144 -0.5802
    8SAPS  H11X 1041   0.605   1.381   5.686  1.1453  0.5101  2.5028
    8SAPS  H11Y 1042   0.536   1.311   5.831  1.5678  0.4456 -0.1702
    8SAPS  C312 1043   0.481   1.199   5.652  1.1565  0.7773 -0.1915
    8SAPS  H12X 1044   0.458   1.108   5.712 -0.7826  1.6737  0.4961
    8SAPS  H12Y 1045   0.522   1.159   5.557 -1.8485  1.6421 -1.9710
    8SAPS  C313 1046   0.354   1.276   5.623 -0.3373  0.3930 -0.7496
    8SAPS  H13X 1047   0.393   1.364   5.569  1.2562  0.0382 -0.2152
    8SAPS  H13Y 1048   0.310   1.311   5.719  0.1569 -0.7223 -0.0965
    8SAPS  C314 1049   0.246   1.205   5.542  0.0811 -0.1004 -0.4801
    8SAPS  H14X 1050   0.229   1.109   5.593 -0.5192  0.2848  0.0576
    8SAPS  H14Y 1051   0.291   1.182   5.442 -1.4282  0.8509 -1.4259
    8SAPS  C315 1052   0.112   1.275   5.541 -0.7467  0.3407 -0.8032
    8SAPS  H15X 1053   0.097   1.341   5.628  3.4690  2.1791 -1.2083
    8SAPS  H15Y 1054   0.030   1.202   5.526 -0.2771  0.1897 -3.0240
    8SAPS  C316 1055   0.118   1.374   5.428 -0.1749 -0.7608  0.3633
    8SAPS  H16X 1056   0.147   1.325   5.333 -0.4982  1.2652 -0.8466
    8SAPS  H16Y 1057   0.197   1.447   5.453 -1.2226  1.2119 -1.7049
    8SAPS  C317 1058  -0.006   1.453   5.395  0.2120 -0.0861 -0.1396
    8SAPS  H17X 1059   0.015   1.532   5.319 -0.7923  2.2106  1.8299
    8SAPS  H17Y 1060  -0.045   1.513   5.479  0.3422 -0.9072  0.5180
    8SAPS  C318 1061  -0.119   1.372   5.329  0.7480 -0.5150 -0.4802
    8SAPS  H18X 1062  -0.154   1.280   5.381 -2.6081 -0.3308 -2.1753
    8SAPS  H18Y 1063  -0.087   1.339   5.228 -1.8798 -2.7525 -0.7208
    8SAPS  H18Z 1064  -0.211   1.433   5.315  0.9467 -0.4589 -1.5887
    9SAPS     N 1065   3.003   5.757   7.410 -0.6419 -0.0205  0.1161
    9SAPS   HN1 1066   2.915   5.723   7.367 -0.8517 -1.2951  1.4601
    9SAPS   HN2 1067   3.000   5.715   7.505  0.3257 -0.7101 -0.1420
    9SAPS   HN3 1068   3.014   5.861   7.410  1.9414 -0.1763 -2.1070
    9SAPS   C12 1069   3.128   5.697   7.353  0.0370 -0.1227 -0.2151
    9SAPS  H12A 1070   3.218   5.734   7.401  3.4232 -5.1019 -1.8164
    9SAPS   C13 1071   3.134   5.546   7.375 -0.2471 -0.3232  0.1828
    9SAPS  O13A 1072   3.052   5.493   7.455  0.5480 -0.5248 -0.7553
    9SAPS  O13B 1073   3.238   5.492   7.327 -0.0016  0.6980 -0.0314
    9SAPS   C11 1074   3.130   5.736   7.201 -0.3107 -0.3765 -0.2139
    9SAPS  H11A 1075   3.029   5.713   7.160 -1.9944  1.9732  2.2945
    9SAPS  H11B 1076   3.202   5.667   7.151  2.8635  2.3528  0.2007
    9SAPS     P 1077   3.297   5.917   7.111  0.1154 -0.3385 -0.4644
    9SAPS   O13 1078   3.294   6.065   7.118 -0.1498  0.1071 -0.0630
    9SAPS   O14 1079   3.405   5.853   7.188 -0.8217 -0.2164  0.5676
    9SAPS   O12 1080   3.161   5.870   7.176 -0.5062  0.8992 -0.0853
    9SAPS   O11 1081   3.302   5.871   6.966 -0.5008  0.0527 -0.2536
    9SAPS    C1 1082   3.188   5.895   6.887 -0.0542  0.3893 -0.3237
    9SAPS    HA 1083   3.106   5.821   6.898 -0.3914  0.7262 -0.5361
    9SAPS    HB 1084   3.143   5.994   6.913 -0.2057  0.0193  0.8978
    9SAPS    C2 1085   3.226   5.911   6.738  0.3088  0.3485  0.5167
    9SAPS    HS 1086   3.235   5.810   6.691 -3.4819  0.5255 -0.8964
    9SAPS   O21 1087   3.349   5.977   6.734 -0.2574 -0.1617  0.1716
    9SAPS   C21 1088   3.465   5.906   6.714  0.0103 -0.9683 -0.1428
    9SAPS   O22 1089   3.470   5.787   6.696 -0.1402  1.0052 -0.1395
    9SAPS   C22 1090   3.580   5.997   6.693  0.3710  0.7242 -0.0576
    9SAPS   H2R 1091   3.563   6.051   6.597  3.3640  0.7736 -0.6428
    9SAPS   H2S 1092   3.601   6.070   6.774  1.3216  0.3871  0.0103
    9SAPS    C3 1093   3.115   5.980   6.666  0.5464  0.1633  0.7190
    9SAPS    HX 1094   3.090   6.080   6.709  1.8909 -0.1714  2.3736
    9SAPS    HY 1095   3.018   5.927   6.681 -0.6557  0.9695 -3.0891
    9SAPS   O31 1096   3.129   5.977   6.525  0.2456  0.4527  0.8936
    9SAPS   C31 1097   3.198   6.079   6.476 -0.6363 -0.6338 -0.2392
    9SAPS   O32 1098   3.227   6.184   6.528 -0.3542 -0.0727 -0.4214
    9SAPS   C32 1099   3.247   6.021   6.340 -0.5812  0.0125  0.0704
    9SAPS   H2X 1100   3.301   5.926   6.358 -2.6867 -1.3285 -0.3021
    9SAPS   H2Y 1101   3.322   6.084   6.289  0.5813 -1.6768 -0.4053
    9SAPS   C23 1102   3.719   5.929   6.661 -0.3574  1.0563  0.0751
    9SAPS   H3R 1103   3.735   5.832   6.713 -2.8868  0.2542 -0.4941
    9SAPS   H3S 1104   3.792   6.001   6.702 -1.4583  2.0427  0.3349
    9SAPS   C24 1105   3.740   5.911   6.514  0.3533 -0.6162  0.4079
    9SAPS   H4R 1106   3.664   5.837   6.480  0.4781 -0.3377 -0.5254
    9SAPS   H4S 1107   3.838   5.866   6.489  0.0018 -1.3772  0.3552
    9SAPS   C25 1108   3.742   6.028   6.419 -0.1768  0.7152  0.8770
    9SAPS   H5R 1109   3.784   6.126   6.450 -1.0503  2.4255 -2.8428
    9SAPS   C26 1110   3.701   6.024   6.293  0.3895  0.7850  0.2692
    9SAPS   H6R 1111   3.690   6.116   6.233 -3.3155  0.2792 -0.0960
    9SAPS   C27 1112   3.628   5.910   6.228 -0.3620 -0.2190 -0.1472
    9SAPS   H7R 1113   3.538   5.961   6.187 -0.3409  0.1350  0.2455
    9SAPS   H7S 1114   3.588   5.837   6.301  3.9879 -0.6225  2.1885
    9SAPS   C28 1115   3.726   5.848   6.130  0.4161 -0.4641  0.9603
    9SAPS   H8R 1116   3.827   5.830   6.170  0.9451  0.0546 -0.1186
    9SAPS   C29 1117   3.699   5.826   5.998 -0.3772 -0.4312 -0.1212
    9SAPS   H9R 1118   3.773   5.773   5.936 -1.0914 -2.0279  0.3282
    9SAPS  C210 1119   3.570   5.854   5.924  0.3033 -0.0384  0.6316
    9SAPS  H10R 1120   3.479   5.833   5.984 -1.2481 -0.9964 -1.8958
    9SAPS  H10S 1121   3.570   5.783   5.839 -1.2539 -2.1472  2.2997
    9SAPS  C211 1122   3.578   5.999   5.885  0.0656 -0.5519 -0.0226
    9SAPS  H11R 1123   3.633   6.069   5.949 -0.6697  0.4566 -0.4596
    9SAPS  C212 1124   3.527   6.046   5.771 -0.1995 -0.0419  0.4763
    9SAPS  H12R 1125   3.543   6.150   5.741 -1.0769  0.0169  0.1883
    9SAPS  C213 1126   3.447   5.959   5.672  0.3824  0.2601  0.0778
    9SAPS  H13R 1127   3.364   6.023   5.634  0.9904  0.6092 -0.6860
    9SAPS  H13S 1128   3.410   5.861   5.711 -2.2136  0.7329 -0.9390
    9SAPS  C214 1129   3.528   5.922   5.550  0.4380 -0.4694 -0.0739
    9SAPS  H14R 1130   3.624   5.874   5.575  1.3181  0.0267 -2.2384
    9SAPS  C215 1131   3.496   5.939   5.420  0.5632  1.1339  0.3207
    9SAPS  H15R 1132   3.567   5.907   5.343  0.8131  0.5010  0.8077
    9SAPS  C216 1133   3.364   5.988   5.365 -0.2531  0.9116  0.5414
    9SAPS  H16R 1134   3.343   6.096   5.380 -3.8117  0.2250  1.3565
    9SAPS  H16S 1135   3.280   5.951   5.427 -1.3615  1.7994 -0.3758
    9SAPS  C217 1136   3.335   5.940   5.215  0.4559  0.3133  0.4899
    9SAPS  H17R 1137   3.352   5.830   5.227 -0.4616  0.2381  1.1830
    9SAPS  H17S 1138   3.397   5.976   5.130 -0.1652  0.5039  0.1181
    9SAPS  C218 1139   3.190   5.962   5.162  0.2477 -0.1588 -0.0212
    9SAPS  H18R 1140   3.129   5.907   5.237 -0.2323  0.0973 -0.2169
    9SAPS  H18S 1141   3.165   5.919   5.062  0.6349 -1.4795  0.4197
    9SAPS  C219 1142   3.145   6.110   5.163 -0.5883 -0.6450  0.2082
    9SAPS  H19R 1143   3.167   6.140   5.268  1.2425  0.4524 -0.4437
    9SAPS  H19S 1144   3.035   6.117   5.151 -0.7688  0.9845  2.2117
    9SAPS  C220 1145   3.214   6.196   5.054  0.7367 -0.4308 -0.7258
    9SAPS  H20R 1146   3.161   6.294   5.065 -0.5384 -1.3273  2.1978
    9SAPS  H20S 1147   3.195   6.148   4.956 -1.4805 -1.0363 -0.0674
    9SAPS  H20T 1148   3.324   6.199   5.069  1.1565 -1.2201 -3.2900
    9SAPS   C33 1149   3.133   5.974   6.241  0.6590 -0.1315  0.1547
    9SAPS   H3X 1150   3.058   6.056   6.240 -1.4449 -1.9387 -2.2469
    9SAPS   H3Y 1151   3.083   5.890   6.293  0.3658  0.7832  1.4189
    9SAPS   C34 1152   3.185   5.963   6.096  0.3581 -0.3205 -0.4485
    9SAPS   H4X 1153   3.251   5.875   6.080 -1.1018 -1.3514 -1.0427
    9SAPS   H4Y 1154   3.234   6.056   6.061 -0.2970 -0.0027 -0.5282
    9SAPS   C35 1155   3.069   5.942   5.997  0.4713 -0.4410  0.5245
    9SAPS   H5X 1156   3.013   6.038   6.008 -1.0093 -1.0239 -1.3822
    9SAPS   H5Y 1157   3.001   5.861   6.030  1.0717 -1.6984 -1.2071
    9SAPS   C36 1158   3.115   5.928   5.851  0.2037  0.5102  0.2434
    9SAPS   H6X 1159   3.177   5.837   5.836  0.6987  0.9269 -0.2960
    9SAPS   H6Y 1160   3.185   6.009   5.821 -0.4917  0.6750 -1.0275
    9SAPS   C37 1161   2.987   5.930   5.762  0.3702 -0.2523  0.8199
    9SAPS   H7X 1162   2.928   6.017   5.795 -1.3383 -1.4520  1.0361
    9SAPS   H7Y 1163   2.924   5.839   5.772 -0.8217  0.5213  0.5276
    9SAPS   C38 1164   3.018   5.933   5.613 -0.5008 -0.4711  0.8398
    9SAPS   H8X 1165   3.051   5.832   5.582 -0.1342 -0.4682  1.2094
    9SAPS   H8Y 1166   3.098   6.009   5.601  1.1029 -1.9377  1.7582
    9SAPS   C39 1167   2.888   5.958   5.536  0.5147 -0.4160  0.4285
    9SAPS   H9X 1168   2.846   6.057   5.563  2.1662  0.4264  0.0667
    9SAPS   H9Y 1169   2.812   5.884   5.568  0.1880  0.8123  2.7259
    9SAPS  C310 1170   2.890   5.954   5.385  1.0263 -0.0118  0.3315
    9SAPS  H10X 1171   2.932   5.858   5.350  0.0946 -0.4603  0.4159
    9SAPS  H10Y 1172   2.950   6.040   5.347  0.9109  0.3158  0.8766
    9SAPS  C311 1173   2.747   5.973   5.333 -0.1593  0.0910  0.6283
    9SAPS  H11X 1174   2.710   6.072   5.366 -4.3320 -1.0802  0.1348
    9SAPS  H11Y 1175   2.684   5.894   5.380  0.6911 -0.8283  0.2568
    9SAPS  C312 1176   2.743   5.961   5.181  0.2868  0.1971 -0.5007
    9SAPS  H12X 1177   2.763   5.855   5.157 -1.4495 -0.6213  1.3901
    9SAPS  H12Y 1178   2.823   6.019   5.131 -0.1231  1.5605  0.3527
    9SAPS  C313 1179   2.618   6.011   5.115 -0.4987 -0.0678 -0.1357
    9SAPS  H13X 1180   2.639   6.024   5.007 -0.3670 -1.4246 -0.2864
    9SAPS  H13Y 1181   2.578   6.105   5.159  0.0597  0.4117 -0.6245
    9SAPS  C314 1182   2.503   5.910   5.106 -0.0607  0.2272  0.5720
    9SAPS  H14X 1183   2.500   5.869   5.209  1.0990  1.2746  1.0485
    9SAPS  H14Y 1184   2.525   5.825   5.038  0.2856 -0.6582  1.7446
    9SAPS  C315 1185   2.369   5.973   5.077  0.5835 -0.8272 -0.6648
    9SAPS  H15X 1186   2.351   6.047   5.159  5.9211 -1.4356  1.5211
    9SAPS  H15Y 1187   2.293   5.893   5.082 -0.5265  0.1109 -1.9029
    9SAPS  C316 1188   2.353   6.048   4.938 -0.1570  0.1770  0.3407
    9SAPS  H16X 1189   2.424   6.134   4.938 -1.1704  1.0702  2.1061
    9SAPS  H16Y 1190   2.251   6.092   4.931 -0.3066 -0.3937 -1.5614
    9SAPS  C317 1191   2.378   5.950   4.819 -0.1089 -0.1907 -0.1571
    9SAPS  H17X 1192   2.337   5.848   4.837  1.1279 -0.5396  0.8860
    9SAPS  H17Y 1193   2.488   5.936   4.811  0.1120  0.5732  1.2001
    9SAPS  C318 1194   2.319   6.003   4.684 -0.2984 -0.1116 -0.2956
    9SAPS  H18X 1195   2.213   6.030   4.700 -0.8151 -2.4957  0.7364
    9SAPS  H18Y 1196   2.321   5.935   4.596  0.0067  1.5758 -1.6441
    9SAPS  H18Z 1197   2.353   6.105   4.654 -0.9551 -0.6277 -3.1529
   10SAPS     N 1198   3.977   6.196   7.598 -0.0451 -0.2338 -0.8208
   10SAPS   HN1 1199   3.959   6.281   7.540 -2.6621 -1.4162 -1.9434
   10SAPS   HN2 1200   4.048   6.224   7.669  0.0534  0.5229 -1.2123
   10SAPS   HN3 1201   4.027   6.121   7.546  0.4885 -2.1778  2.2651
   10SAPS   C12 1202   3.850   6.158   7.659 -0.5060  0.9698  0.2250
   10SAPS  H12A 1203   3.877   6.093   7.741 -1.4556 -1.0739 -1.0107
   10SAPS   C13 1204   3.760   6.269   7.726 -0.7554  0.0300 -0.2023
   10SAPS  O13A 1205   3.782   6.392   7.704  0.0032 -0.0578  0.0223
   10SAPS  O13B 1206   3.660   6.238   7.790 -0.4285 -0.6217 -0.3272
   10SAPS   C11 1207   3.770   6.080   7.544 -0.6640  0.0534 -0.2580
   10SAPS  H11A 1208   3.760   6.143   7.453 -0.3170  0.2157 -0.1829
   10SAPS  H11B 1209   3.667   6.050   7.574  0.2851  0.2157  3.7044
   10SAPS     P 1210   3.850   5.882   7.386 -0.0133  0.3697 -0.1594
   10SAPS   O13 1211   3.943   5.767   7.393 -0.0097 -0.1963  0.1024
   10SAPS   O14 1212   3.709   5.847   7.355  0.1323  0.3271  0.2470
   10SAPS   O12 1213   3.841   5.958   7.527  0.2885 -0.3233  0.2565
   10SAPS   O11 1214   3.890   5.987   7.271  0.4397  0.1113 -0.3619
   10SAPS    C1 1215   3.790   6.056   7.183 -0.1601 -0.7589 -0.4195
   10SAPS    HA 1216   3.691   6.006   7.182  1.0934 -3.4453 -0.3760
   10SAPS    HB 1217   3.773   6.159   7.219  0.4405  0.1383 -2.4942
   10SAPS    C2 1218   3.839   6.055   7.042  0.2528 -0.9320  0.1889
   10SAPS    HS 1219   3.757   6.062   6.968  0.2645  1.5335  0.3078
   10SAPS   O21 1220   3.923   5.941   7.017 -0.0086  0.9037  0.0751
   10SAPS   C21 1221   3.853   5.826   7.009 -0.0644  0.1669  0.9277
   10SAPS   O22 1222   3.736   5.817   7.013  0.0375 -0.2609  0.0810
   10SAPS   C22 1223   3.944   5.703   6.990  0.5058 -0.0549 -0.4060
   10SAPS   H2R 1224   4.009   5.701   7.079 -0.7478 -0.1935  0.5338
   10SAPS   H2S 1225   3.867   5.623   6.991  1.2267 -0.7507 -0.0553
   10SAPS    C3 1226   3.928   6.181   7.015 -0.1090 -0.2652  0.7569
   10SAPS    HX 1227   4.023   6.177   7.072  0.9787  0.0929 -0.9602
   10SAPS    HY 1228   3.870   6.273   7.039  1.1476  1.2018 -1.4470
   10SAPS   O31 1229   3.953   6.197   6.873  0.1868  0.8206  0.5702
   10SAPS   C31 1230   4.060   6.145   6.818  0.5935  0.2207 -0.3390
   10SAPS   O32 1231   4.146   6.080   6.875  0.3897  0.1085 -0.3322
   10SAPS   C32 1232   4.058   6.178   6.667 -0.3855  0.8184 -0.6221
   10SAPS   H2X 1233   4.111   6.276   6.659  2.9159 -0.8715 -1.3875
   10SAPS   H2Y 1234   3.955   6.186   6.625 -0.7708  0.2281  0.1845
   10SAPS   C23 1235   4.036   5.710   6.865  0.9455  0.3689 -0.6742
   10SAPS   H3R 1236   4.113   5.787   6.884  2.0955 -0.4133 -2.0035
   10SAPS   H3S 1237   3.977   5.732   6.773  1.0016 -0.5461 -0.9400
   10SAPS   C24 1238   4.099   5.579   6.827 -0.0514  0.3110  0.1839
   10SAPS   H4R 1239   4.134   5.589   6.723 -0.2695  2.4678  0.2816
   10SAPS   H4S 1240   4.020   5.503   6.804  0.3282  0.1360 -0.5535
   10SAPS   C25 1241   4.204   5.529   6.922  0.5599  0.5045 -0.1277
   10SAPS   H5R 1242   4.169   5.508   7.024 -0.1959 -0.9560 -0.6578
   10SAPS   C26 1243   4.332   5.492   6.890 -0.1355  0.6881  0.0726
   10SAPS   H6R 1244   4.411   5.476   6.966  1.8031 -2.5613 -2.3567
   10SAPS   C27 1245   4.396   5.486   6.753 -0.2966 -0.5489 -0.3209
   10SAPS   H7R 1246   4.325   5.499   6.668 -0.8294  2.3304  0.4408
   10SAPS   H7S 1247   4.442   5.385   6.747  0.5031 -0.1117 -2.0193
   10SAPS   C28 1248   4.503   5.591   6.734 -0.1473 -0.3864 -0.3445
   10SAPS   H8R 1249   4.521   5.658   6.819 -0.3211  1.6021 -1.8004
   10SAPS   C29 1250   4.568   5.623   6.623 -0.5492  0.8215 -0.2633
   10SAPS   H9R 1251   4.644   5.703   6.632 -0.7590  1.0084 -0.1365
   10SAPS  C210 1252   4.556   5.542   6.499 -0.2601  0.0942  0.2880
   10SAPS  H10R 1253   4.462   5.569   6.446 -0.1358 -0.5999 -0.2955
   10SAPS  H10S 1254   4.549   5.437   6.537  1.0187 -0.0077  0.2823
   10SAPS  C211 1255   4.675   5.547   6.403 -0.0152 -0.0264  0.0940
   10SAPS  H11R 1256   4.767   5.587   6.447  0.8001 -0.1478 -1.4541
   10SAPS  C212 1257   4.686   5.471   6.293  0.3117  0.0218  0.6283
   10SAPS  H12R 1258   4.777   5.483   6.234  0.1059  0.5982  0.4199
   10SAPS  C213 1259   4.580   5.379   6.240  0.1427  0.3708 -0.0737
   10SAPS  H13R 1260   4.521   5.428   6.160  3.5151  4.8108 -0.2393
   10SAPS  H13S 1261   4.504   5.352   6.317 -1.0718 -1.3771 -1.7835
   10SAPS  C214 1262   4.659   5.252   6.209 -0.0759  0.4038  0.4559
   10SAPS  H14R 1263   4.669   5.180   6.291  1.1322  0.4997  0.4038
   10SAPS  C215 1264   4.721   5.221   6.087  0.4478  0.2936  0.2885
   10SAPS  H15R 1265   4.777   5.127   6.088  0.8161  0.4368  3.1931
   10SAPS  C216 1266   4.710   5.297   5.956  0.3383  0.3433 -0.4534
   10SAPS  H16R 1267   4.688   5.405   5.972 -0.4896  0.1297 -0.1462
   10SAPS  H16S 1268   4.628   5.243   5.905 -0.3006 -0.5009  1.3993
   10SAPS  C217 1269   4.842   5.281   5.877 -0.7961  0.2834 -0.2472
   10SAPS  H17R 1270   4.868   5.173   5.869 -1.2215  0.1460  0.2119
   10SAPS  H17S 1271   4.924   5.336   5.927  1.0331 -2.2371 -0.2621
   10SAPS  C218 1272   4.830   5.327   5.732  0.0070  0.1082 -0.3505
   10SAPS  H18R 1273   4.780   5.426   5.721 -0.7164 -0.2758 -0.5851
   10SAPS  H18S 1274   4.753   5.263   5.683  0.0289 -0.2868  0.1327
   10SAPS  C219 1275   4.967   5.321   5.661  0.4110  0.0003 -0.8388
   10SAPS  H19R 1276   5.009   5.219   5.669 -1.3744 -0.7675 -0.7294
   10SAPS  H19S 1277   5.034   5.391   5.716  1.0305 -2.0916  1.2492
   10SAPS  C220 1278   4.970   5.365   5.517 -0.1264 -0.4377 -0.8132
   10SAPS  H20R 1279   4.970   5.475   5.503 -2.5848 -0.1769  0.6486
   10SAPS  H20S 1280   4.878   5.330   5.465 -0.8995 -2.0747  1.5026
   10SAPS  H20T 1281   5.059   5.320   5.468  0.2850  0.1586 -0.6103
   10SAPS   C33 1282   4.127   6.068   6.586  0.1966  0.6439  0.1191
   10SAPS   H3X 1283   4.073   5.973   6.603  2.6175 -0.5174  2.0242
   10SAPS   H3Y 1284   4.234   6.055   6.615  0.3459  0.7413 -0.3800
   10SAPS   C34 1285   4.143   6.110   6.434  0.8853  0.6792 -0.3927
   10SAPS   H4X 1286   4.180   6.215   6.429 -0.0796  1.0043 -1.2043
   10SAPS   H4Y 1287   4.039   6.111   6.394  0.7477 -1.3362 -0.1716
   10SAPS   C35 1288   4.246   6.030   6.358 -0.2187 -0.4155 -0.3612
   10SAPS   H5X 1289   4.240   5.924   6.390  0.6023  0.0442  1.4839
   10SAPS   H5Y 1290   4.339   6.080   6.394 -0.4160  2.2381 -3.1610
   10SAPS   C36 1291   4.267   6.041   6.204 -0.3381  0.0842  0.7833
   10SAPS   H6X 1292   4.339   5.960   6.179 -1.5045 -0.1715 -2.2520
   10SAPS   H6Y 1293   4.315   6.137   6.176 -2.5014  1.7497  2.4561
   10SAPS   C37 1294   4.138   6.026   6.119  0.0332 -0.6693 -0.6992
   10SAPS   H7X 1295   4.077   6.113   6.151  2.3078  1.1200 -0.9856
   10SAPS   H7Y 1296   4.068   5.941   6.137 -0.8323  0.0876 -0.3994
   10SAPS   C38 1297   4.170   6.036   5.971  0.6321 -0.3293 -0.5254
   10SAPS   H8X 1298   4.221   5.945   5.934 -1.1865 -1.5430 -0.2249
   10SAPS   H8Y 1299   4.223   6.127   5.937  0.5497  0.7493  1.9998
   10SAPS   C39 1300   4.033   6.041   5.888 -0.4620  0.8355 -0.5087
   10SAPS   H9X 1301   3.989   6.141   5.906 -0.2550  1.1501 -1.6268
   10SAPS   H9Y 1302   3.973   5.961   5.936 -0.0025  0.1242 -1.0880
   10SAPS  C310 1303   4.048   6.029   5.737 -0.1155 -0.1154 -0.5476
   10SAPS  H10X 1304   4.087   5.926   5.718  1.9619  0.1041  1.9981
   10SAPS  H10Y 1305   4.116   6.110   5.705 -2.1072  1.4267 -1.0356
   10SAPS  C311 1306   3.916   6.054   5.656  0.5296  0.4547  0.1497
   10SAPS  H11X 1307   3.881   6.157   5.675 -1.6570 -0.3256  0.6717
   10SAPS  H11Y 1308   3.835   5.984   5.687 -0.4047  0.6923 -1.5940
   10SAPS  C312 1309   3.919   6.033   5.504  0.0184  0.1210 -0.1347
   10SAPS  H12X 1310   3.856   5.945   5.477  0.5064 -0.3020  0.0860
   10SAPS  H12Y 1311   4.021   6.003   5.471  0.4617 -1.6033  2.5002
   10SAPS  C313 1312   3.863   6.156   5.423  0.0288 -0.0422 -0.0342
   10SAPS  H13X 1313   3.927   6.245   5.439  0.4553 -0.5060  0.9565
   10SAPS  H13Y 1314   3.762   6.178   5.462  0.7569  2.9260  0.4205
   10SAPS  C314 1315   3.874   6.122   5.266 -0.1613 -0.4829 -0.8114
   10SAPS  H14X 1316   3.862   6.013   5.253 -0.6362 -0.5948  0.4922
   10SAPS  H14Y 1317   3.970   6.168   5.232 -0.4142  1.7845  1.2784
   10SAPS  C315 1318   3.780   6.212   5.187  0.7729  0.1253  0.0386
   10SAPS  H15X 1319   3.804   6.319   5.207  0.3071  0.5223 -1.3975
   10SAPS  H15Y 1320   3.675   6.191   5.218  1.5526 -3.2357  0.7382
   10SAPS  C316 1321   3.774   6.188   5.037 -0.0323 -0.1994  0.7352
   10SAPS  H16X 1322   3.854   6.252   4.993  0.1213 -0.1472  1.0884
   10SAPS  H16Y 1323   3.682   6.224   4.986 -0.5040  0.3534  1.9465
   10SAPS  C317 1324   3.794   6.041   5.003  0.1409 -0.4755 -0.2680
   10SAPS  H17X 1325   3.739   5.972   5.071  1.1241 -2.7731 -1.6949
   10SAPS  H17Y 1326   3.903   6.033   5.021  0.1125 -0.7899 -0.2256
   10SAPS  C318 1327   3.756   6.012   4.860 -0.2602 -0.6957  0.0448
   10SAPS  H18X 1328   3.808   6.091   4.803  0.3511 -0.8561  0.3690
   10SAPS  H18Y 1329   3.648   6.023   4.837 -0.1704 -0.7379 -0.4094
   10SAPS  H18Z 1330   3.791   5.913   4.825 -0.7886 -0.7038 -0.4638
   11SAPS     N 1331   1.705   4.267   2.951  0.0555 -0.1775 -0.2325
   11SAPS   HN1 1332   1.751   4.282   3.043  0.3634 -0.1451 -0.3876
   11SAPS   HN2 1333   1.639   4.343   2.928 -0.6237  0.0365  2.1738
   11SAPS   HN3 1334   1.652   4.178   2.951  0.5594 -0.4889 -1.2138
   11SAPS   C12 1335   1.807   4.250   2.840 -0.1628  0.1103 -0.3798
   11SAPS  H12A 1336   1.749   4.245   2.749 -0.2383  0.0434 -0.3280
   11SAPS   C13 1337   1.910   4.365   2.826 -0.2281 -0.1723 -0.5918
   11SAPS  O13A 1338   1.925   4.452   2.912  0.5134  0.2427 -0.2576
   11SAPS  O13B 1339   2.004   4.348   2.743  0.6350  0.1431  0.0100
   11SAPS   C11 1340   1.883   4.120   2.866 -0.2801  0.2058 -0.2981
   11SAPS  H11A 1341   1.947   4.133   2.956 -0.2689  0.2289 -0.3097
   11SAPS  H11B 1342   1.951   4.103   2.780  0.5306  2.0993 -0.0815
   11SAPS     P 1343   1.841   3.864   2.871  0.3555 -0.5096 -0.1017
   11SAPS   O13 1344   1.722   3.776   2.863  0.5535 -0.2775 -0.0281
   11SAPS   O14 1345   1.927   3.857   2.757 -0.6692  0.3040  0.4883
   11SAPS   O12 1346   1.787   4.011   2.879 -0.0518  0.3105  0.0982
   11SAPS   O11 1347   1.921   3.838   3.005 -0.0922  0.2938  0.2088
   11SAPS    C1 1348   1.839   3.870   3.122 -0.6247  0.2328 -0.0850
   11SAPS    HA 1349   1.760   3.947   3.113  0.8550  1.8229  0.0924
   11SAPS    HB 1350   1.789   3.775   3.151 -1.2401  0.2125 -1.1752
   11SAPS    C2 1351   1.918   3.906   3.246 -0.7731 -0.4202 -0.0525
   11SAPS    HS 1352   1.958   4.008   3.227 -2.4168  0.7824  2.4477
   11SAPS   O21 1353   2.018   3.808   3.283  0.4877 -0.0871  0.0136
   11SAPS   C21 1354   2.130   3.833   3.347  1.4402 -0.0852  0.3301
   11SAPS   O22 1355   2.174   3.944   3.383  0.1354 -0.6300  0.5546
   11SAPS   C22 1356   2.193   3.696   3.383  0.2084 -0.0943 -0.0747
   11SAPS   H2R 1357   2.111   3.626   3.407 -0.4731  0.5620 -0.4347
   11SAPS   H2S 1358   2.241   3.663   3.289  0.1821 -0.5871  0.0842
   11SAPS    C3 1359   1.823   3.914   3.370 -0.5229 -0.7565 -0.7807
   11SAPS    HX 1360   1.784   3.811   3.385  0.8520 -1.2179 -0.1515
   11SAPS    HY 1361   1.739   3.984   3.348 -0.9102 -1.3505 -1.2063
   11SAPS   O31 1362   1.895   3.953   3.491 -0.3109  0.1842  0.2669
   11SAPS   C31 1363   1.921   4.078   3.515 -0.1131 -0.5313  0.2652
   11SAPS   O32 1364   1.883   4.173   3.452 -0.0862  0.3487 -0.1001
   11SAPS   C32 1365   2.002   4.088   3.647 -0.2535  0.7030 -0.0733
   11SAPS   H2X 1366   2.074   4.173   3.647  1.1825 -0.4437  0.9338
   11SAPS   H2Y 1367   2.064   3.996   3.657 -0.6882  0.6423  3.2672
   11SAPS   C23 1368   2.307   3.709   3.487  0.0949 -0.4560 -0.8852
   11SAPS   H3R 1369   2.262   3.738   3.585 -0.7336  0.0943 -1.4145
   11SAPS   H3S 1370   2.372   3.792   3.452  2.2049 -1.3669  0.6661
   11SAPS   C24 1371   2.398   3.590   3.505 -0.6372  0.7759 -0.8816
   11SAPS   H4R 1372   2.470   3.623   3.582 -0.5232  2.7921 -1.7649
   11SAPS   H4S 1373   2.452   3.561   3.412 -1.0208 -1.8133 -0.3553
   11SAPS   C25 1374   2.326   3.462   3.554 -0.5822 -0.0716  0.1989
   11SAPS   H5R 1375   2.261   3.429   3.472  0.1172 -1.5693  0.2189
   11SAPS   C26 1376   2.341   3.397   3.669  0.5530 -0.2358  0.1109
   11SAPS   H6R 1377   2.278   3.308   3.679 -1.2049  0.9349 -0.0267
   11SAPS   C27 1378   2.447   3.436   3.775  0.1207 -0.0740 -0.2611
   11SAPS   H7R 1379   2.535   3.482   3.725  2.5330 -0.8733  2.9451
   11SAPS   H7S 1380   2.507   3.353   3.819  3.6847  0.0918 -4.1643
   11SAPS   C28 1381   2.383   3.535   3.865  0.0253 -0.2649  0.0973
   11SAPS   H8R 1382   2.387   3.640   3.830  1.8560 -0.3541 -0.0825
   11SAPS   C29 1383   2.328   3.508   3.983 -0.1952  0.2614 -0.0512
   11SAPS   H9R 1384   2.292   3.586   4.052 -0.4285 -0.2786  0.4496
   11SAPS  C210 1385   2.320   3.375   4.056 -0.4892 -1.0178 -0.2484
   11SAPS  H10R 1386   2.362   3.391   4.158  2.6091  2.1008 -1.8202
   11SAPS  H10S 1387   2.384   3.294   4.017  2.1936  0.8497  0.0137
   11SAPS  C211 1388   2.165   3.358   4.062  0.4797  0.0493  0.2431
   11SAPS  H11R 1389   2.112   3.364   3.966 -1.3292 -0.2699  1.1634
   11SAPS  C212 1390   2.084   3.367   4.174 -0.6909 -0.2336  0.0418
   11SAPS  H12R 1391   1.979   3.361   4.144 -0.3354 -2.2581 -0.9495
   11SAPS  C213 1392   2.122   3.364   4.326  0.2620 -0.1181  0.6798
   11SAPS  H13R 1393   2.113   3.472   4.349 -1.0610 -0.3557  1.3274
   11SAPS  H13S 1394   2.232   3.346   4.334 -0.0855 -2.0594  1.8454
   11SAPS  C214 1395   2.039   3.264   4.404  0.6831  0.1742 -0.2213
   11SAPS  H14R 1396   2.025   3.164   4.360 -2.7496  0.7893 -0.8068
   11SAPS  C215 1397   1.978   3.278   4.527 -0.1405  0.1057 -0.2452
   11SAPS  H15R 1398   1.902   3.205   4.558 -0.0839  0.0103 -0.3329
   11SAPS  C216 1399   1.996   3.389   4.615 -0.3175  0.5946 -0.7488
   11SAPS  H16R 1400   1.972   3.489   4.572  1.2579  0.8248 -1.1552
   11SAPS  H16S 1401   2.102   3.399   4.647  0.2849  3.0236 -3.1390
   11SAPS  C217 1402   1.906   3.380   4.735 -0.2233  0.5365  0.0701
   11SAPS  H17R 1403   1.797   3.378   4.716 -0.3585 -0.6554  0.8779
   11SAPS  H17S 1404   1.920   3.472   4.797  0.9309  0.4708 -0.0717
   11SAPS  C218 1405   1.942   3.252   4.823 -0.3818  0.1712 -0.7937
   11SAPS  H18R 1406   2.052   3.252   4.837 -0.5144 -0.3904  0.3301
   11SAPS  H18S 1407   1.917   3.153   4.781  1.9610  0.0730 -2.1256
   11SAPS  C219 1408   1.890   3.274   4.971 -0.3034 -0.3492  0.1771
   11SAPS  H19R 1409   1.912   3.377   5.006  0.9351  0.0401 -1.6471
   11SAPS  H19S 1410   1.954   3.212   5.037  1.0001 -0.4200 -1.1045
   11SAPS  C220 1411   1.741   3.240   4.993 -0.3867 -0.0115 -0.1341
   11SAPS  H20R 1412   1.701   3.244   5.097 -0.3336 -0.5401 -0.0892
   11SAPS  H20S 1413   1.717   3.138   4.955  0.4904 -0.8736  1.4788
   11SAPS  H20T 1414   1.673   3.313   4.945 -3.2316 -1.8694  0.7590
   11SAPS   C33 1415   1.910   4.092   3.770 -0.0338 -0.1561  0.3649
   11SAPS   H3X 1416   1.973   4.057   3.854 -0.1824  1.1785  1.0527
   11SAPS   H3Y 1417   1.825   4.020   3.768 -0.6133  0.4916 -1.8876
   11SAPS   C34 1418   1.872   4.237   3.806  0.0442  0.3646 -0.0319
   11SAPS   H4X 1419   1.762   4.247   3.812 -0.3632  0.1230 -4.3278
   11SAPS   H4Y 1420   1.910   4.302   3.724 -0.8333 -1.6055 -2.0767
   11SAPS   C35 1421   1.935   4.290   3.940 -0.2165 -0.2701  0.2904
   11SAPS   H5X 1422   1.917   4.399   3.933  0.8728 -0.0595  0.6643
   11SAPS   H5Y 1423   2.046   4.279   3.942 -0.0552  1.2005  0.1503
   11SAPS   C36 1424   1.869   4.237   4.068 -0.2468  0.7874  0.6751
   11SAPS   H6X 1425   1.871   4.126   4.063 -1.5177  0.6158  2.8837
   11SAPS   H6Y 1426   1.764   4.270   4.063 -0.9734 -1.4984 -0.5474
   11SAPS   C37 1427   1.942   4.282   4.203 -0.7430  0.2401 -0.2671
   11SAPS   H7X 1428   1.939   4.393   4.211 -0.3053  0.3307 -1.3186
   11SAPS   H7Y 1429   2.046   4.244   4.193 -1.2471 -2.2847  2.6436
   11SAPS   C38 1430   1.876   4.214   4.329  0.6704  0.4659 -0.7912
   11SAPS   H8X 1431   1.882   4.104   4.312 -0.4597  0.2221  0.2488
   11SAPS   H8Y 1432   1.770   4.246   4.328  0.5980  0.2879  0.2876
   11SAPS   C39 1433   1.950   4.259   4.458  0.5562 -0.3453 -0.3186
   11SAPS   H9X 1434   1.916   4.363   4.479 -0.3651 -0.9736  1.5833
   11SAPS   H9Y 1435   2.061   4.261   4.456  0.5910  0.3895  0.9924
   11SAPS  C310 1436   1.903   4.159   4.572  0.2879  0.2250  0.5904
   11SAPS  H10X 1437   1.931   4.057   4.539  1.4430  0.7890 -0.2262
   11SAPS  H10Y 1438   1.792   4.163   4.577  0.2987 -0.4937  1.5756
   11SAPS  C311 1439   1.958   4.211   4.711  0.3184 -0.7049  0.1242
   11SAPS  H11X 1440   1.976   4.320   4.710  0.1587 -0.6476  1.5946
   11SAPS  H11Y 1441   2.061   4.172   4.727 -0.3981 -2.7000  0.2223
   11SAPS  C312 1442   1.865   4.176   4.821 -0.4706 -0.4933  0.3746
   11SAPS  H12X 1443   1.809   4.081   4.808 -1.1561  0.2281 -2.4448
   11SAPS  H12Y 1444   1.794   4.260   4.811  0.9671  0.9124  1.3268
   11SAPS  C313 1445   1.939   4.189   4.955  0.5572 -0.2079 -0.0298
   11SAPS  H13X 1446   2.033   4.248   4.951  0.9625 -0.6817  1.5484
   11SAPS  H13Y 1447   1.972   4.085   4.976  2.1654  0.2889  0.0797
   11SAPS  C314 1448   1.863   4.260   5.071  0.0288  0.0258  0.3612
   11SAPS  H14X 1449   1.941   4.271   5.150  0.1127 -1.8797  0.5972
   11SAPS  H14Y 1450   1.780   4.200   5.114 -1.8846  2.1782 -0.1404
   11SAPS  C315 1451   1.814   4.402   5.031 -0.3432 -0.0558 -0.1163
   11SAPS  H15X 1452   1.739   4.376   4.953 -3.0542  1.1231  1.9360
   11SAPS  H15Y 1453   1.899   4.463   4.994 -0.4657  0.2664  0.1372
   11SAPS  C316 1454   1.744   4.477   5.148  0.6759 -1.1767 -0.5104
   11SAPS  H16X 1455   1.708   4.575   5.111  0.5678 -0.6535  0.8998
   11SAPS  H16Y 1456   1.811   4.505   5.233 -2.4254  1.2854  1.3669
   11SAPS  C317 1457   1.617   4.406   5.197 -0.3560 -0.3285  0.5988
   11SAPS  H17X 1458   1.645   4.318   5.259 -2.3480 -0.6752  1.0706
   11SAPS  H17Y 1459   1.569   4.373   5.103  0.4797  0.2895 -0.0643
   11SAPS  C318 1460   1.508   4.481   5.280  0.3062  0.3338 -0.1159
   11SAPS  H18X 1461   1.544   4.494   5.385  1.1261  0.0126 -0.3510
   11SAPS  H18Y 1462   1.417   4.418   5.281  1.5392 -1.5345 -0.1908
   11SAPS  H18Z 1463   1.485   4.583   5.245 -2.5054  0.5773  2.0547
   12SAPS     N 1464   2.917   4.819   2.582 -0.0946  0.0846 -0.1429
   12SAPS   HN1 1465   2.954   4.734   2.630 -0.3035  0.6222  1.0062
   12SAPS   HN2 1466   2.947   4.814   2.482  1.2271 -2.8763  0.2897
   12SAPS   HN3 1467   2.961   4.905   2.621 -0.9647  1.1231 -1.3618
   12SAPS   C12 1468   2.771   4.825   2.598  0.1154  0.1951 -0.1128
   12SAPS  H12A 1469   2.736   4.912   2.545 -3.1581 -1.6571 -1.2745
   12SAPS   C13 1470   2.692   4.703   2.538  0.5358  0.0544  1.3167
   12SAPS  O13A 1471   2.755   4.605   2.490 -0.4536  0.2478 -0.1604
   12SAPS  O13B 1472   2.569   4.712   2.544 -0.1169  0.2338  0.1678
   12SAPS   C11 1473   2.720   4.839   2.749  0.1523 -0.0885 -0.0985
   12SAPS  H11A 1474   2.766   4.755   2.807  0.0877 -1.2906 -1.7124
   12SAPS  H11B 1475   2.611   4.817   2.757  0.2636 -1.1415 -1.1831
   12SAPS     P 1476   2.871   4.998   2.889  0.4024 -0.4159  0.2086
   12SAPS   O13 1477   2.993   4.974   2.806  0.0988 -0.8600 -0.3234
   12SAPS   O14 1478   2.853   5.136   2.940  0.0596 -0.3488 -0.4237
   12SAPS   O12 1479   2.747   4.971   2.800 -0.5629 -0.2776  0.7643
   12SAPS   O11 1480   2.866   4.893   3.004 -0.3892  0.1924 -0.3166
   12SAPS    C1 1481   2.764   4.854   3.091  0.7330 -0.6601 -0.2296
   12SAPS    HA 1482   2.665   4.850   3.042  0.3854  1.1077  0.2590
   12SAPS    HB 1483   2.785   4.755   3.137 -1.0931 -0.2201  1.6898
   12SAPS    C2 1484   2.751   4.951   3.214  0.1312 -0.4299  0.5228
   12SAPS    HS 1485   2.715   5.049   3.176  0.2561 -0.1125  1.1973
   12SAPS   O21 1486   2.878   4.954   3.287 -0.4019 -0.1493  0.2540
   12SAPS   C21 1487   2.931   5.069   3.313 -0.5289 -0.2589 -0.4423
   12SAPS   O22 1488   2.899   5.175   3.264 -0.4124  0.4285  0.4573
   12SAPS   C22 1489   3.044   5.049   3.413  0.3707 -0.6167  0.0891
   12SAPS   H2R 1490   3.015   4.972   3.488 -2.6081 -1.1075 -1.4407
   12SAPS   H2S 1491   3.130   5.013   3.353  0.2239 -2.5092  0.9483
   12SAPS    C3 1492   2.642   4.895   3.306 -0.2462 -0.5721 -0.0696
   12SAPS    HX 1493   2.676   4.792   3.330  2.7628  0.6835  1.7009
   12SAPS    HY 1494   2.545   4.885   3.254 -0.8339  1.7838  0.4207
   12SAPS   O31 1495   2.625   4.973   3.427  0.2472 -0.3706 -0.0719
   12SAPS   C31 1496   2.550   5.084   3.419 -0.1110  0.7825  0.0548
   12SAPS   O32 1497   2.497   5.124   3.321  0.2994 -0.3205  0.6607
   12SAPS   C32 1498   2.531   5.153   3.554  0.8557 -0.2149  0.4532
   12SAPS   H2X 1499   2.438   5.213   3.546  1.9149  1.5998  1.0341
   12SAPS   H2Y 1500   2.607   5.231   3.576 -0.8014  1.1646  1.6075
   12SAPS   C23 1501   3.077   5.191   3.468 -0.1716  0.0669 -0.3660
   12SAPS   H3R 1502   2.980   5.223   3.512 -0.4419  0.2040 -1.0390
   12SAPS   H3S 1503   3.107   5.256   3.383 -1.9820  0.3600 -0.8352
   12SAPS   C24 1504   3.179   5.218   3.576 -1.3232 -0.6144 -0.3025
   12SAPS   H4R 1505   3.143   5.154   3.659 -0.9571 -1.4383 -0.7631
   12SAPS   H4S 1506   3.176   5.325   3.605 -1.5661 -0.9944  1.1522
   12SAPS   C25 1507   3.329   5.183   3.554  0.3723 -0.8041  0.1555
   12SAPS   H5R 1508   3.369   5.172   3.452 -1.1786  2.2445 -0.9118
   12SAPS   C26 1509   3.426   5.188   3.643 -0.1408  0.1429 -0.9581
   12SAPS   H6R 1510   3.530   5.169   3.612  0.7752  2.0531  0.7132
   12SAPS   C27 1511   3.419   5.204   3.793  0.2439 -0.3095  0.3758
   12SAPS   H7R 1512   3.315   5.234   3.817  0.0395  0.7077 -1.5999
   12SAPS   H7S 1513   3.477   5.292   3.828  1.5024 -0.9673  0.0240
   12SAPS   C28 1514   3.465   5.077   3.868  0.0866  0.4727  0.5593
   12SAPS   H8R 1515   3.389   4.999   3.857 -0.5704  1.3173 -1.3038
   12SAPS   C29 1516   3.574   5.054   3.945  0.0531  0.0655 -0.0767
   12SAPS   H9R 1517   3.596   4.955   3.987 -1.7283 -0.3130  0.0229
   12SAPS  C210 1518   3.682   5.158   3.958  0.9276  0.6003 -0.6170
   12SAPS  H10R 1519   3.698   5.182   4.066  2.0144 -3.5836  0.3623
   12SAPS  H10S 1520   3.656   5.255   3.910  1.6720  1.0469 -0.1343
   12SAPS  C211 1521   3.817   5.106   3.907  0.3828  0.1293 -0.1316
   12SAPS  H11R 1522   3.849   5.127   3.804  1.2595 -0.1575  0.0759
   12SAPS  C212 1523   3.909   5.038   3.980 -0.4011  0.3655 -0.1373
   12SAPS  H12R 1524   4.001   5.005   3.929 -1.8861 -0.9730 -2.0841
   12SAPS  C213 1525   3.897   5.017   4.128 -0.2163  0.3823 -0.3218
   12SAPS  H13R 1526   3.816   5.074   4.178 -1.3683 -1.6364  0.2176
   12SAPS  H13S 1527   3.996   5.046   4.171 -0.1527  1.7503 -1.3422
   12SAPS  C214 1528   3.873   4.870   4.161  0.4661  0.7140  0.6193
   12SAPS  H14R 1529   3.885   4.806   4.072  1.8161  2.1565 -0.3013
   12SAPS  C215 1530   3.860   4.824   4.286 -0.3420  0.2027 -0.5268
   12SAPS  H15R 1531   3.853   4.718   4.316  0.7009  0.5942  1.2611
   12SAPS  C216 1532   3.854   4.914   4.411  0.9322 -0.7599 -0.6025
   12SAPS  H16R 1533   3.755   4.963   4.420  1.3291  0.1166 -0.9359
   12SAPS  H16S 1534   3.932   4.994   4.409  0.0420  0.0987 -1.6064
   12SAPS  C217 1535   3.882   4.841   4.540 -0.1153 -0.8250 -0.1882
   12SAPS  H17R 1536   3.793   4.780   4.566 -0.6787 -0.3356 -0.9466
   12SAPS  H17S 1537   3.876   4.924   4.612 -1.7679 -0.1410 -1.0761
   12SAPS  C218 1538   4.009   4.753   4.546  0.5002  0.4269  0.1605
   12SAPS  H18R 1539   4.098   4.820   4.540  1.3514 -0.7060 -0.2918
   12SAPS  H18S 1540   4.012   4.686   4.458 -1.9159  1.5727 -0.9052
   12SAPS  C219 1541   4.017   4.670   4.675 -0.4403 -0.6385 -0.1820
   12SAPS  H19R 1542   3.943   4.588   4.686 -0.8735 -0.5477 -2.1190
   12SAPS  H19S 1543   3.992   4.728   4.767 -0.4108 -1.8119  0.5923
   12SAPS  C220 1544   4.152   4.593   4.684  0.5200  0.4448 -0.2283
   12SAPS  H20R 1545   4.168   4.546   4.783 -0.2970 -1.2386 -0.8659
   12SAPS  H20S 1546   4.228   4.672   4.665  1.3803  0.1841  1.8305
   12SAPS  H20T 1547   4.160   4.510   4.611  0.2761  1.5589 -1.5543
   12SAPS   C33 1548   2.515   5.061   3.673 -0.0938  0.1472 -0.6293
   12SAPS   H3X 1549   2.598   4.989   3.684 -0.2251  0.1100  0.1960
   12SAPS   H3Y 1550   2.425   4.995   3.672 -0.6051  0.6897  1.8504
   12SAPS   C34 1551   2.493   5.137   3.809 -0.5243  0.2365 -0.4269
   12SAPS   H4X 1552   2.392   5.182   3.817 -1.2261 -1.2345 -0.6462
   12SAPS   H4Y 1553   2.570   5.217   3.810 -0.8863  0.7762  3.5796
   12SAPS   C35 1554   2.517   5.048   3.935  0.2450 -0.0301 -0.3136
   12SAPS   H5X 1555   2.628   5.039   3.935  0.3099  0.4657  0.9738
   12SAPS   H5Y 1556   2.464   4.950   3.936  0.1100  0.0385  1.1783
   12SAPS   C36 1557   2.474   5.115   4.069  0.2293  0.3272 -0.1994
   12SAPS   H6X 1558   2.365   5.098   4.082  0.5733 -2.4629 -0.2063
   12SAPS   H6Y 1559   2.498   5.223   4.076  0.2005  0.2463  1.4775
   12SAPS   C37 1560   2.518   5.041   4.198 -0.8258 -0.1212 -0.2906
   12SAPS   H7X 1561   2.628   5.028   4.192 -1.0080 -2.1515 -0.0127
   12SAPS   H7Y 1562   2.464   4.944   4.205 -2.0298  0.4225 -1.5967
   12SAPS   C38 1563   2.483   5.128   4.323 -0.4935  0.2025  0.5040
   12SAPS   H8X 1564   2.483   5.236   4.297  0.8348 -0.0526 -0.6739
   12SAPS   H8Y 1565   2.557   5.111   4.404  0.6589 -4.0932 -1.1665
   12SAPS   C39 1566   2.340   5.092   4.384 -0.2572 -0.7178 -0.7777
   12SAPS   H9X 1567   2.319   4.984   4.395 -3.8811 -0.1797 -1.2864
   12SAPS   H9Y 1568   2.269   5.120   4.303 -0.2930  0.6660 -0.2937
   12SAPS  C310 1569   2.318   5.172   4.510  0.6636 -0.2008  0.2872
   12SAPS  H10X 1570   2.299   5.278   4.482  1.5842 -0.8072 -3.0134
   12SAPS  H10Y 1571   2.417   5.180   4.562  1.3404 -0.7830 -0.8749
   12SAPS  C311 1572   2.207   5.124   4.609 -0.8695  0.0642  0.3380
   12SAPS  H11X 1573   2.226   5.016   4.628  1.7896  0.0180 -1.9671
   12SAPS  H11Y 1574   2.106   5.136   4.565 -1.1947  0.4426  1.1566
   12SAPS  C312 1575   2.207   5.194   4.746 -0.2307 -0.6540 -0.2823
   12SAPS  H12X 1576   2.188   5.302   4.732  0.3963 -0.6933 -1.5642
   12SAPS  H12Y 1577   2.311   5.181   4.782  0.5507  0.3375 -2.0515
   12SAPS  C313 1578   2.095   5.150   4.840  0.1185 -0.1637 -0.6398
   12SAPS  H13X 1579   2.077   5.042   4.821  0.9078  0.1329 -3.6393
   12SAPS  H13Y 1580   1.995   5.192   4.816 -0.0604 -1.4035 -2.2426
   12SAPS  C314 1581   2.131   5.169   4.983 -0.1667 -0.6845 -0.2220
   12SAPS  H14X 1582   2.093   5.270   5.010 -0.4077 -0.8870  0.2059
   12SAPS  H14Y 1583   2.242   5.172   4.997 -0.2423  1.6193  0.3412
   12SAPS  C315 1584   2.071   5.061   5.072  0.5184  0.6818 -0.2636
   12SAPS  H15X 1585   2.113   5.063   5.175 -0.9502 -0.7706  0.4180
   12SAPS  H15Y 1586   2.106   4.963   5.033  1.4893  1.4784 -1.4399
   12SAPS  C316 1587   1.918   5.069   5.082  0.8227 -0.0053 -0.3206
   12SAPS  H16X 1588   1.887   5.055   4.976 -0.1035  1.8597 -0.3480
   12SAPS  H16Y 1589   1.896   5.171   5.122 -1.6379 -0.7281  0.3497
   12SAPS  C317 1590   1.850   4.962   5.161  0.2887 -0.3005 -0.6380
   12SAPS  H17X 1591   1.870   4.970   5.270 -1.3268 -3.4299  0.0137
   12SAPS  H17Y 1592   1.884   4.860   5.133 -1.2490 -1.3206  0.9863
   12SAPS  C318 1593   1.699   4.981   5.158 -1.0218  0.2895  0.1501
   12SAPS  H18X 1594   1.659   4.990   5.054 -3.5534  1.3936  1.1390
   12SAPS  H18Y 1595   1.691   5.081   5.206  5.0190  1.0229  0.3287
   12SAPS  H18Z 1596   1.641   4.899   5.204 -2.6296  1.8537  1.0459
   13SAPS     N 1597   4.909   2.663   3.329 -0.5608  0.2920  0.1983
   13SAPS   HN1 1598   4.987   2.595   3.321 -0.0505  1.0458 -2.8688
   13SAPS   HN2 1599   4.912   2.713   3.420 -1.9281  0.6375  0.0740
   13SAPS   HN3 1600   4.817   2.619   3.312  0.1726 -0.4709 -2.3119
   13SAPS   C12 1601   4.932   2.752   3.211 -0.1082 -0.5602  0.0420
   13SAPS  H12A 1602   5.024   2.805   3.229 -0.2798 -0.1688 -0.2233
   13SAPS   C13 1603   4.934   2.683   3.071 -0.3404 -0.0186  0.0724
   13SAPS  O13A 1604   4.930   2.559   3.060  0.5767 -0.4918  0.3444
   13SAPS  O13B 1605   4.982   2.750   2.978  0.4562  0.0715 -0.1157
   13SAPS   C11 1606   4.815   2.849   3.217  0.0874 -0.7560 -0.8204
   13SAPS  H11A 1607   4.715   2.799   3.214 -0.0167 -0.8433  1.5776
   13SAPS  H11B 1608   4.818   2.913   3.127  0.2296  3.6208  1.9671
   13SAPS     P 1609   4.831   3.088   3.319 -0.2136  0.0447  0.5317
   13SAPS   O13 1610   4.895   3.121   3.193  0.2063 -0.0710 -0.0520
   13SAPS   O14 1611   4.705   3.158   3.349 -0.0283 -0.5845  0.4987
   13SAPS   O12 1612   4.814   2.928   3.335 -0.5234  0.0328 -0.0014
   13SAPS   O11 1613   4.934   3.126   3.428 -0.0785 -0.7173 -0.1970
   13SAPS    C1 1614   4.939   3.052   3.551 -0.8148  0.4309 -0.8897
   13SAPS    HA 1615   4.856   2.978   3.559 -0.5989  0.3545  1.2236
   13SAPS    HB 1616   5.034   2.994   3.553 -0.2422  1.3609 -0.3129
   13SAPS    C2 1617   4.937   3.147   3.673 -1.2976 -0.4697 -0.2359
   13SAPS    HS 1618   4.947   3.083   3.763 -0.1070 -0.2237 -0.1716
   13SAPS   O21 1619   4.826   3.239   3.668 -0.0566 -0.0486  0.5491
   13SAPS   C21 1620   4.719   3.202   3.738 -0.1641  0.3054 -0.3161
   13SAPS   O22 1621   4.702   3.092   3.794  0.3957  0.2011 -0.5100
   13SAPS   C22 1622   4.614   3.312   3.736 -0.2767 -0.5818  0.1880
   13SAPS   H2R 1623   4.652   3.410   3.772 -1.1770  0.1528 -0.8086
   13SAPS   H2S 1624   4.593   3.326   3.628  1.3493 -3.3271 -0.5839
   13SAPS    C3 1625   5.060   3.238   3.679  0.1024  0.5761 -0.2452
   13SAPS    HX 1626   5.059   3.310   3.595 -0.1446 -0.5783 -1.2745
   13SAPS    HY 1627   5.147   3.171   3.661  0.5234  1.2282 -0.6545
   13SAPS   O31 1628   5.065   3.305   3.807 -0.3654 -0.3450  0.0353
   13SAPS   C31 1629   5.012   3.422   3.823  0.0474 -0.0498 -0.1572
   13SAPS   O32 1630   4.966   3.499   3.737  0.1966  0.5493 -0.5747
   13SAPS   C32 1631   5.025   3.464   3.967 -0.4447 -0.2010  0.3379
   13SAPS   H2X 1632   5.058   3.570   3.966 -0.4565 -0.1706  1.3980
   13SAPS   H2Y 1633   5.096   3.402   4.027  0.1165  0.4645  0.3755
   13SAPS   C23 1634   4.495   3.290   3.830  0.2628 -0.0068  0.2734
   13SAPS   H3R 1635   4.524   3.285   3.937 -0.6492 -0.4411  0.5111
   13SAPS   H3S 1636   4.452   3.188   3.814 -1.0083  0.2944  1.5106
   13SAPS   C24 1637   4.389   3.403   3.816 -0.2676  0.7735  0.0574
   13SAPS   H4R 1638   4.384   3.415   3.706  1.8987 -1.4906 -0.3907
   13SAPS   H4S 1639   4.434   3.501   3.844  3.2879 -0.3951 -0.9692
   13SAPS   C25 1640   4.262   3.370   3.882 -0.4733 -0.8330  0.7261
   13SAPS   H5R 1641   4.190   3.322   3.814  1.9620  0.1805 -2.8074
   13SAPS   C26 1642   4.246   3.376   4.018  0.3855 -0.2416  0.2284
   13SAPS   H6R 1643   4.150   3.346   4.063 -0.0207  0.9099  0.1611
   13SAPS   C27 1644   4.348   3.401   4.119  0.0910  0.2628 -0.6366
   13SAPS   H7R 1645   4.312   3.487   4.179  0.4716 -0.4972  0.7030
   13SAPS   H7S 1646   4.448   3.422   4.075 -1.2499  0.1130 -4.0936
   13SAPS   C28 1647   4.367   3.270   4.196 -0.7710  0.6994  0.5743
   13SAPS   H8R 1648   4.420   3.196   4.134 -2.1456 -0.5293  0.8063
   13SAPS   C29 1649   4.343   3.246   4.329 -0.0769  0.3660 -0.0871
   13SAPS   H9R 1650   4.391   3.155   4.367  0.8883  1.1126  0.5350
   13SAPS  C210 1651   4.277   3.347   4.418 -0.0996 -0.5382 -0.3760
   13SAPS  H10R 1652   4.168   3.343   4.399 -0.0832  1.9776 -1.2636
   13SAPS  H10S 1653   4.304   3.451   4.393  2.2803 -0.8932  0.4587
   13SAPS  C211 1654   4.290   3.316   4.568  0.2111  0.0793  0.8370
   13SAPS  H11R 1655   4.328   3.217   4.596  0.5716 -0.0037  0.0755
   13SAPS  C212 1656   4.258   3.411   4.664  0.2458  0.1212  0.3476
   13SAPS  H12R 1657   4.270   3.386   4.770 -2.1230  2.7264  1.3373
   13SAPS  C213 1658   4.203   3.558   4.635  0.1879  0.2758 -0.0578
   13SAPS  H13R 1659   4.268   3.611   4.562  0.3337 -0.8866 -0.8059
   13SAPS  H13S 1660   4.209   3.608   4.734 -2.6814 -0.2311  0.4688
   13SAPS  C214 1661   4.060   3.566   4.593 -0.3662  0.0606  0.4523
   13SAPS  H14R 1662   4.016   3.467   4.574  1.9424 -1.1259  0.8367
   13SAPS  C215 1663   3.987   3.676   4.575 -0.1978  0.3972  0.3689
   13SAPS  H15R 1664   3.883   3.665   4.540  0.3325  0.8016 -1.4412
   13SAPS  C216 1665   4.030   3.822   4.602 -0.1117 -0.2638 -0.2680
   13SAPS  H16R 1666   4.047   3.886   4.512 -0.7561 -0.1862 -0.3405
   13SAPS  H16S 1667   4.108   3.834   4.680 -1.7636  1.9786  1.1494
   13SAPS  C217 1668   3.931   3.909   4.676  0.2320  0.5299 -1.1157
   13SAPS  H17R 1669   3.832   3.918   4.628 -0.4913 -0.2622  0.1842
   13SAPS  H17S 1670   3.970   4.013   4.685 -0.3423  0.5662  1.6993
   13SAPS  C218 1671   3.895   3.860   4.820  0.0721 -0.0560 -0.4199
   13SAPS  H18R 1672   3.984   3.870   4.886 -0.1171  1.6004 -0.3813
   13SAPS  H18S 1673   3.867   3.753   4.816 -2.5137  0.5373  0.2879
   13SAPS  C219 1674   3.773   3.926   4.887 -0.4245 -0.2810  0.6513
   13SAPS  H19R 1675   3.682   3.912   4.824  0.3928 -0.2839 -0.5522
   13SAPS  H19S 1676   3.778   4.037   4.890  2.9123 -0.3010 -0.2080
   13SAPS  C220 1677   3.750   3.871   5.026 -0.3434 -0.1756  0.1573
   13SAPS  H20R 1678   3.726   3.763   5.017 -0.4342 -0.0779 -0.8191
   13SAPS  H20S 1679   3.660   3.923   5.065 -0.9443 -0.9392 -0.1941
   13SAPS  H20T 1680   3.843   3.895   5.083 -0.7820  2.4692 -0.1430
   13SAPS   C33 1681   4.887   3.458   4.041  0.6986 -0.3094  0.1362
   13SAPS   H3X 1682   4.824   3.370   4.016  0.8388 -0.3540 -0.0631
   13SAPS   H3Y 1683   4.832   3.548   4.007  0.2517 -0.6305 -0.0002
   13SAPS   C34 1684   4.893   3.447   4.196 -0.5722  0.1295  0.1656
   13SAPS   H4X 1685   4.885   3.550   4.238  0.2497 -0.0715  0.8681
   13SAPS   H4Y 1686   4.989   3.395   4.220 -1.6751 -0.8453  2.9512
   13SAPS   C35 1687   4.785   3.363   4.246 -0.5870  0.5486 -0.3476
   13SAPS   H5X 1688   4.788   3.255   4.220  1.7477  0.4995 -0.0554
   13SAPS   H5Y 1689   4.695   3.403   4.195 -0.5768 -0.6661 -1.3702
   13SAPS   C36 1690   4.769   3.368   4.400 -0.5066 -0.4677 -0.0468
   13SAPS   H6X 1691   4.684   3.301   4.427 -0.5208 -0.9787 -1.2900
   13SAPS   H6Y 1692   4.747   3.474   4.425 -2.7978  0.1357 -3.9204
   13SAPS   C37 1693   4.900   3.332   4.458  1.0835  0.9667  0.2319
   13SAPS   H7X 1694   4.985   3.396   4.426 -1.3787  4.4498  0.1606
   13SAPS   H7Y 1695   4.922   3.230   4.419 -0.3689  0.3189  1.0149
   13SAPS   C38 1696   4.898   3.312   4.608 -0.0007 -1.1979  0.3121
   13SAPS   H8X 1697   4.995   3.269   4.642  0.3294  0.0810  1.0875
   13SAPS   H8Y 1698   4.818   3.237   4.625 -0.5617 -0.7028 -0.1337
   13SAPS   C39 1699   4.869   3.435   4.690 -0.4739 -0.9028  0.4369
   13SAPS   H9X 1700   4.771   3.467   4.648  0.1153 -0.7835 -0.8735
   13SAPS   H9Y 1701   4.956   3.503   4.682 -0.8381 -0.5316 -0.3670
   13SAPS  C310 1702   4.852   3.409   4.841  0.2112  0.3095 -0.6579
   13SAPS  H10X 1703   4.840   3.506   4.894  1.5630 -0.8041  1.8594
   13SAPS  H10Y 1704   4.944   3.369   4.887  0.2197  0.2004 -0.7682
   13SAPS  C311 1705   4.735   3.309   4.883 -0.5461 -0.1451  0.2023
   13SAPS  H11X 1706   4.775   3.208   4.858  1.4526  0.9083 -1.0162
   13SAPS  H11Y 1707   4.639   3.326   4.829  0.7660  0.2224 -2.1136
   13SAPS  C312 1708   4.715   3.314   5.038 -0.1302 -0.2384 -0.5307
   13SAPS  H12X 1709   4.628   3.250   5.060 -0.4111  0.0442 -0.8126
   13SAPS  H12Y 1710   4.691   3.415   5.076  1.8061 -1.0740  3.3872
   13SAPS  C313 1711   4.840   3.267   5.117  0.0497  0.6545  0.3950
   13SAPS  H13X 1712   4.808   3.265   5.224  1.8350  1.8283  0.9974
   13SAPS  H13Y 1713   4.913   3.351   5.109  1.4928 -0.7114 -2.2866
   13SAPS  C314 1714   4.896   3.136   5.066  0.1635  0.1346 -0.3394
   13SAPS  H14X 1715   4.945   3.137   4.966 -1.4450  1.5476 -1.1565
   13SAPS  H14Y 1716   4.813   3.063   5.057 -0.6465  0.8129  1.2922
   13SAPS  C315 1717   4.991   3.089   5.177 -0.5486  1.4797  0.6241
   13SAPS  H15X 1718   4.919   3.067   5.259 -1.3908  0.4543 -0.3458
   13SAPS  H15Y 1719   5.055   3.174   5.207  0.2727  2.2320 -2.8212
   13SAPS  C316 1720   5.076   2.971   5.136  0.0145 -0.6584  0.0643
   13SAPS  H16X 1721   5.138   3.003   5.050  0.7467  2.4975  1.6278
   13SAPS  H16Y 1722   5.012   2.883   5.111  2.1664 -1.9102 -1.3037
   13SAPS  C317 1723   5.167   2.921   5.244 -0.7021  1.0475 -0.6297
   13SAPS  H17X 1724   5.103   2.874   5.321 -1.0733  0.7115 -1.1388
   13SAPS  H17Y 1725   5.228   3.004   5.286  2.2705 -0.3514 -1.8747
   13SAPS  C318 1726   5.267   2.811   5.198  0.0769  0.5732 -0.1788
   13SAPS  H18X 1727   5.324   2.852   5.112 -1.0831  0.1445 -1.1800
   13SAPS  H18Y 1728   5.213   2.727   5.149 -0.5977  1.3731 -0.8262
   13SAPS  H18Z 1729   5.341   2.770   5.270 -0.1228 -0.7111 -0.6720
   14SAPS     N 1730   2.623   4.417   2.646  0.3379 -0.4571 -0.1491
   14SAPS   HN1 1731   2.693   4.486   2.611  0.3827 -0.5707 -0.2874
   14SAPS   HN2 1732   2.583   4.382   2.556 -0.6254 -1.9536  0.8076
   14SAPS   HN3 1733   2.548   4.452   2.709  1.5156 -1.6165  2.0184
   14SAPS   C12 1734   2.698   4.315   2.718 -0.0871  0.5783 -0.4354
   14SAPS  H12A 1735   2.629   4.269   2.787 -0.3066 -1.7533 -2.0690
   14SAPS   C13 1736   2.751   4.205   2.623 -0.2397 -0.4291  0.0933
   14SAPS  O13A 1737   2.724   4.215   2.499 -0.1986  0.2068  0.0515
   14SAPS  O13B 1738   2.819   4.113   2.673 -0.5217 -0.0058 -0.0540
   14SAPS   C11 1739   2.812   4.381   2.800 -0.4189  0.4624  0.0788
   14SAPS  H11A 1740   2.873   4.313   2.863 -0.4755 -0.7675 -1.1610
   14SAPS  H11B 1741   2.766   4.442   2.880  2.7400  0.4778  2.0379
   14SAPS     P 1742   3.049   4.493   2.755 -0.0749 -0.0226  0.0915
   14SAPS   O13 1743   3.129   4.375   2.725 -0.1942 -0.8632 -0.2892
   14SAPS   O14 1744   3.078   4.613   2.668 -0.5602 -0.5475  0.4814
   14SAPS   O12 1745   2.895   4.457   2.722 -0.1067 -0.2670 -0.0526
   14SAPS   O11 1746   3.042   4.527   2.913  0.1700  0.0080 -0.0045
   14SAPS    C1 1747   3.105   4.442   3.016 -0.2667 -0.4994 -0.1798
   14SAPS    HA 1748   3.133   4.341   2.979  0.3056 -0.5479  0.3724
   14SAPS    HB 1749   3.195   4.487   3.062 -0.3797  1.4237 -1.6793
   14SAPS    C2 1750   2.998   4.417   3.132 -0.0612 -0.1336 -0.8758
   14SAPS    HS 1751   2.899   4.408   3.082 -0.7243 -1.1846  0.5332
   14SAPS   O21 1752   3.007   4.528   3.230 -0.8446 -0.1179 -0.1411
   14SAPS   C21 1753   2.899   4.561   3.299 -0.0012  0.4395  0.4567
   14SAPS   O22 1754   2.787   4.513   3.285 -0.6789 -0.2916  0.3781
   14SAPS   C22 1755   2.945   4.664   3.400 -0.7800 -0.0914  0.5592
   14SAPS   H2R 1756   3.008   4.740   3.348  2.4257 -3.6191 -1.2482
   14SAPS   H2S 1757   2.857   4.712   3.447 -1.0506  2.5396 -2.3701
   14SAPS    C3 1758   3.026   4.281   3.203 -0.3364 -0.3262  0.3580
   14SAPS    HX 1759   3.132   4.292   3.235 -0.0859 -0.2890 -0.4504
   14SAPS    HY 1760   3.028   4.201   3.126  1.9255  0.1398 -0.1489
   14SAPS   O31 1761   2.933   4.245   3.312  0.0503 -0.0370  0.2609
   14SAPS   C31 1762   2.884   4.121   3.317  0.0445  0.0489 -0.3946
   14SAPS   O32 1763   2.919   4.027   3.247 -0.2683  0.5953  0.3969
   14SAPS   C32 1764   2.773   4.112   3.423 -0.3083  0.5413  0.6397
   14SAPS   H2X 1765   2.684   4.154   3.372  0.5300 -1.4981 -2.8600
   14SAPS   H2Y 1766   2.800   4.179   3.507 -0.7697  0.8493  0.5431
   14SAPS   C23 1767   3.014   4.598   3.522 -0.3200 -0.1687  0.1958
   14SAPS   H3R 1768   3.095   4.534   3.481 -1.2444 -0.8831 -0.5669
   14SAPS   H3S 1769   2.950   4.522   3.572  0.1198 -1.6771 -1.3969
   14SAPS   C24 1770   3.079   4.691   3.625  0.1580 -0.8153  0.7679
   14SAPS   H4R 1771   3.142   4.760   3.565  1.1800 -0.2967  2.3931
   14SAPS   H4S 1772   3.147   4.643   3.698  1.6658  0.7835  0.4573
   14SAPS   C25 1773   2.981   4.769   3.705  0.6107  0.7015 -0.2332
   14SAPS   H5R 1774   2.898   4.790   3.636  0.5072 -1.8161 -0.9906
   14SAPS   C26 1775   3.004   4.834   3.818 -0.0553  0.5153  0.0343
   14SAPS   H6R 1776   2.922   4.890   3.867  0.9035  1.2884  0.7982
   14SAPS   C27 1777   3.128   4.826   3.903  0.1439 -1.0682 -0.4906
   14SAPS   H7R 1778   3.120   4.925   3.955 -0.7855 -0.5217 -1.6289
   14SAPS   H7S 1779   3.217   4.841   3.838 -1.8847  0.4669 -3.0690
   14SAPS   C28 1780   3.150   4.714   3.996  0.1409 -0.3246 -0.8464
   14SAPS   H8R 1781   3.154   4.615   3.948 -0.6914 -0.1412 -1.3197
   14SAPS   C29 1782   3.211   4.721   4.116  0.0891  0.6126  0.0758
   14SAPS   H9R 1783   3.233   4.622   4.159 -0.4091 -0.6890 -2.4633
   14SAPS  C210 1784   3.249   4.837   4.205 -0.0518 -0.5055  0.0251
   14SAPS  H10R 1785   3.188   4.838   4.298 -0.3570  1.6029 -0.1498
   14SAPS  H10S 1786   3.230   4.932   4.151  4.3189  0.5869 -0.0018
   14SAPS  C211 1787   3.400   4.840   4.241  0.0653  0.0680  0.7958
   14SAPS  H11R 1788   3.465   4.914   4.192  0.0447 -0.9023 -0.8057
   14SAPS  C212 1789   3.459   4.755   4.320 -0.5572  0.4548 -0.6674
   14SAPS  H12R 1790   3.567   4.768   4.338 -0.3260 -0.7017 -1.1130
   14SAPS  C213 1791   3.392   4.652   4.399  0.4297  0.4667  0.2379
   14SAPS  H13R 1792   3.422   4.552   4.362 -1.9724 -0.8146  1.4809
   14SAPS  H13S 1793   3.281   4.655   4.399  0.3564 -0.7922 -1.5092
   14SAPS  C214 1794   3.435   4.663   4.550 -0.1651  0.3138  0.2323
   14SAPS  H14R 1795   3.505   4.591   4.595 -0.6989 -1.6345 -1.8468
   14SAPS  C215 1796   3.371   4.748   4.634  0.0234  0.1670  0.1404
   14SAPS  H15R 1797   3.401   4.737   4.740 -0.3884  0.7872  0.3228
   14SAPS  C216 1798   3.257   4.835   4.595  0.0780  0.3454 -0.4494
   14SAPS  H16R 1799   3.260   4.859   4.486 -1.2175 -1.4246 -0.9289
   14SAPS  H16S 1800   3.276   4.929   4.650 -0.3679 -0.9900  2.1288
   14SAPS  C217 1801   3.109   4.797   4.634  0.8571 -0.1906 -0.0821
   14SAPS  H17R 1802   3.075   4.704   4.584  0.3687 -0.1623  0.1958
   14SAPS  H17S 1803   3.029   4.869   4.605 -1.5743 -2.0268  1.7033
   14SAPS  C218 1804   3.094   4.765   4.785 -1.2465  0.0946 -0.0511
   14SAPS  H18R 1805   3.157   4.675   4.802 -3.3686 -2.3514 -3.6777
   14SAPS  H18S 1806   2.991   4.730   4.807 -1.0851 -2.1278 -2.3381
   14SAPS  C219 1807   3.131   4.876   4.887 -0.5149 -0.5026  0.0853
   14SAPS  H19R 1808   3.042   4.942   4.891 -1.7704 -2.0202 -1.1293
   14SAPS  H19S 1809   3.220   4.937   4.861 -1.3220  0.1458 -1.2188
   14SAPS  C220 1810   3.152   4.815   5.029 -0.0245  0.6340 -0.2493
   14SAPS  H20R 1811   3.061   4.764   5.068 -0.6386  2.6551  1.1026
   14SAPS  H20S 1812   3.181   4.892   5.103 -0.8462  1.1299 -0.4344
   14SAPS  H20T 1813   3.238   4.744   5.035  0.0680  0.8325  3.4954
   14SAPS   C33 1814   2.723   3.962   3.465  0.1543  0.1476 -0.6605
   14SAPS   H3X 1815   2.803   3.915   3.525 -0.3884 -0.8755 -0.7222
   14SAPS   H3Y 1816   2.708   3.894   3.379  1.8796 -0.7075 -0.3371
   14SAPS   C34 1817   2.605   3.968   3.556 -0.7444  0.0782  0.7053
   14SAPS   H4X 1818   2.589   3.867   3.599  0.0882  0.3184  1.6284
   14SAPS   H4Y 1819   2.511   3.988   3.499 -0.6177  1.5558  0.9731
   14SAPS   C35 1820   2.600   4.073   3.668  0.3059  0.0438  0.5417
   14SAPS   H5X 1821   2.628   4.171   3.625  1.3207 -0.5174 -0.1297
   14SAPS   H5Y 1822   2.674   4.055   3.749 -0.6982  2.1288  2.0095
   14SAPS   C36 1823   2.458   4.074   3.722  0.4860 -0.0895  0.1776
   14SAPS   H6X 1824   2.418   3.976   3.758  3.1292 -1.6108 -0.7935
   14SAPS   H6Y 1825   2.390   4.114   3.644 -0.7127  2.2777  2.2958
   14SAPS   C37 1826   2.427   4.157   3.849 -0.1236 -0.0963  0.2933
   14SAPS   H7X 1827   2.321   4.151   3.880 -0.4829  0.8535 -0.6980
   14SAPS   H7Y 1828   2.449   4.263   3.826 -4.4132  1.1796  1.1526
   14SAPS   C38 1829   2.507   4.108   3.972  0.3655 -0.2243 -0.2575
   14SAPS   H8X 1830   2.612   4.094   3.939  0.3626  0.4387 -0.5610
   14SAPS   H8Y 1831   2.478   4.010   4.015  1.8716 -0.3887  0.4402
   14SAPS   C39 1832   2.491   4.223   4.072  0.4066 -0.1239 -0.3916
   14SAPS   H9X 1833   2.385   4.250   4.089  0.9265  1.6140  0.3526
   14SAPS   H9Y 1834   2.545   4.312   4.035  0.3799 -0.4789 -1.2909
   14SAPS  C310 1835   2.544   4.193   4.215 -0.4657  0.1758  0.9156
   14SAPS  H10X 1836   2.652   4.170   4.202 -0.6099 -0.1748  0.2837
   14SAPS  H10Y 1837   2.511   4.091   4.242  3.5985 -1.4435  0.5223
   14SAPS  C311 1838   2.512   4.292   4.327  0.2636  0.2487  0.5233
   14SAPS  H11X 1839   2.535   4.393   4.285  2.8645 -0.2766  0.5547
   14SAPS  H11Y 1840   2.573   4.292   4.420 -1.1606 -0.6318  1.4940
   14SAPS  C312 1841   2.365   4.297   4.365  0.3060  0.6551  0.1454
   14SAPS  H12X 1842   2.321   4.205   4.409  0.7681  0.2942 -0.1261
   14SAPS  H12Y 1843   2.318   4.324   4.268 -0.5013  1.5859  0.7786
   14SAPS  C313 1844   2.339   4.409   4.461 -0.2548  0.2399  0.1738
   14SAPS  H13X 1845   2.242   4.455   4.436 -0.1151  0.6018  0.2882
   14SAPS  H13Y 1846   2.410   4.491   4.437 -1.5866  1.5234  0.4578
   14SAPS  C314 1847   2.358   4.362   4.606 -0.0829 -0.2986 -0.5212
   14SAPS  H14X 1848   2.467   4.350   4.626 -0.4082 -2.7590  0.0192
   14SAPS  H14Y 1849   2.314   4.261   4.619 -2.3179  0.5147 -1.2909
   14SAPS  C315 1850   2.287   4.450   4.711 -0.4054  0.0454  0.0690
   14SAPS  H15X 1851   2.183   4.467   4.674 -1.7123 -1.0584  2.9280
   14SAPS  H15Y 1852   2.336   4.549   4.708 -2.5465  1.2633  2.0268
   14SAPS  C316 1853   2.300   4.399   4.858  0.8193 -0.0763 -0.0632
   14SAPS  H16X 1854   2.398   4.434   4.896 -0.0860  2.7385 -0.0313
   14SAPS  H16Y 1855   2.299   4.288   4.859 -1.1519 -0.1096 -0.5836
   14SAPS  C317 1856   2.202   4.469   4.949 -0.3203 -0.5936  0.3585
   14SAPS  H17X 1857   2.098   4.475   4.908 -0.1817 -2.3189 -0.3410
   14SAPS  H17Y 1858   2.237   4.573   4.960  0.7981 -0.7181 -1.6169
   14SAPS  C318 1859   2.193   4.414   5.094 -0.0080  0.5385  0.3024
   14SAPS  H18X 1860   2.108   4.469   5.140 -0.9694  0.0047 -0.8126
   14SAPS  H18Y 1861   2.284   4.430   5.157 -0.9695 -1.8337  2.4703
   14SAPS  H18Z 1862   2.170   4.306   5.081 -0.2888  0.5547  0.6464
   15SAPS     N 1863   1.210   4.849   2.696 -0.5397  0.6875  0.0724
   15SAPS   HN1 1864   1.306   4.885   2.683 -0.9160  0.7762 -3.3431
   15SAPS   HN2 1865   1.149   4.895   2.625  0.4140  1.2717 -0.3795
   15SAPS   HN3 1866   1.174   4.864   2.793  2.4146  0.1730  1.3415
   15SAPS   C12 1867   1.205   4.703   2.670 -0.3081 -0.0264 -0.5638
   15SAPS  H12A 1868   1.104   4.669   2.654 -0.9826  0.7555  1.6431
   15SAPS   C13 1869   1.275   4.654   2.539 -0.3052  0.0453 -0.1488
   15SAPS  O13A 1870   1.327   4.742   2.467  0.3432 -0.2322  0.2494
   15SAPS  O13B 1871   1.263   4.534   2.506 -0.2456 -0.4968  0.3247
   15SAPS   C11 1872   1.258   4.636   2.799 -0.8323 -0.1975  0.1179
   15SAPS  H11A 1873   1.249   4.529   2.770  1.4255 -0.0648 -1.3062
   15SAPS  H11B 1874   1.187   4.669   2.879  0.5851 -0.0369  1.3535
   15SAPS     P 1875   1.485   4.597   2.919 -0.1137 -0.2734 -0.0981
   15SAPS   O13 1876   1.541   4.472   2.869 -0.6586 -0.3398 -0.2182
   15SAPS   O14 1877   1.589   4.688   2.978  0.5102  0.2996  0.6621
   15SAPS   O12 1878   1.396   4.674   2.819 -0.1287  0.2426 -0.6707
   15SAPS   O11 1879   1.389   4.558   3.033  0.8540 -0.4981  0.3348
   15SAPS    C1 1880   1.363   4.661   3.140 -0.4310  0.1798 -0.1260
   15SAPS    HA 1881   1.376   4.761   3.092 -0.5389  0.2518 -0.0050
   15SAPS    HB 1882   1.256   4.644   3.165 -1.0527  1.8603 -1.4071
   15SAPS    C2 1883   1.451   4.648   3.269  0.2989  0.0994 -0.0215
   15SAPS    HS 1884   1.556   4.678   3.249  0.4727 -1.0216 -0.8845
   15SAPS   O21 1885   1.440   4.511   3.316  0.9119  0.3626 -0.0789
   15SAPS   C21 1886   1.542   4.437   3.275  0.3314 -0.5707 -0.2096
   15SAPS   O22 1887   1.637   4.473   3.207  0.8732 -0.2286 -0.3162
   15SAPS   C22 1888   1.528   4.299   3.340  0.0372  0.1699  0.2115
   15SAPS   H2R 1889   1.424   4.261   3.327  0.4423 -1.0445  0.4196
   15SAPS   H2S 1890   1.602   4.231   3.294  0.5535  2.4012 -2.5246
   15SAPS    C3 1891   1.400   4.742   3.376  0.5874  0.4815  0.3700
   15SAPS    HX 1892   1.394   4.845   3.335  1.7276  0.1581 -0.6808
   15SAPS    HY 1893   1.474   4.744   3.458 -0.2787  1.7200  1.1618
   15SAPS   O31 1894   1.265   4.694   3.424  0.0952  0.0233  0.0366
   15SAPS   C31 1895   1.209   4.780   3.509 -0.5736  0.3050  0.0313
   15SAPS   O32 1896   1.263   4.886   3.546  0.0045  0.0522  0.1877
   15SAPS   C32 1897   1.083   4.716   3.565 -0.1614  0.2419  0.1835
   15SAPS   H2X 1898   1.116   4.620   3.609 -0.2088 -0.0046 -0.3175
   15SAPS   H2Y 1899   1.018   4.694   3.478  1.4817 -0.2321 -0.9644
   15SAPS   C23 1900   1.536   4.322   3.492  0.4045 -0.0515 -0.5930
   15SAPS   H3R 1901   1.467   4.394   3.540  0.0627  0.6137 -2.0392
   15SAPS   H3S 1902   1.639   4.361   3.509  0.2891  0.0221 -0.0277
   15SAPS   C24 1903   1.510   4.182   3.576 -0.3330 -0.6535 -0.1843
   15SAPS   H4R 1904   1.560   4.195   3.674  3.1214 -0.6123 -1.8209
   15SAPS   H4S 1905   1.565   4.099   3.528 -0.4327 -1.0810  0.4236
   15SAPS   C25 1906   1.360   4.163   3.586 -0.4170  0.1264  0.4913
   15SAPS   H5R 1907   1.320   4.107   3.501 -2.1089  1.4947  0.3548
   15SAPS   C26 1908   1.278   4.192   3.690  0.0844  0.7170 -0.8878
   15SAPS   H6R 1909   1.171   4.171   3.679  0.5966 -2.2344 -0.9904
   15SAPS   C27 1910   1.319   4.263   3.818  0.0558  0.2813 -0.5405
   15SAPS   H7R 1911   1.427   4.283   3.829  0.5961 -2.7067  0.3674
   15SAPS   H7S 1912   1.305   4.191   3.901 -0.6128  0.1214 -0.7855
   15SAPS   C28 1913   1.242   4.381   3.860  0.5703 -0.1348  0.3082
   15SAPS   H8R 1914   1.137   4.374   3.826  0.5212 -1.0666  0.6175
   15SAPS   C29 1915   1.284   4.492   3.928 -0.3251 -0.0938 -0.6680
   15SAPS   H9R 1916   1.212   4.574   3.945 -0.9911 -0.1786 -2.6922
   15SAPS  C210 1917   1.421   4.512   3.987  0.5871  0.3219  0.0325
   15SAPS  H10R 1918   1.460   4.427   4.047  2.1002  1.3437  0.5742
   15SAPS  H10S 1919   1.402   4.592   4.061 -2.0315  0.6006 -0.8350
   15SAPS  C211 1920   1.522   4.559   3.889  0.3030 -0.1611  0.5039
   15SAPS  H11R 1921   1.473   4.579   3.793  0.2263  1.1517  0.7913
   15SAPS  C212 1922   1.651   4.594   3.907  0.1419 -0.4101 -0.2611
   15SAPS  H12R 1923   1.693   4.640   3.816  0.0634  1.4809  0.6186
   15SAPS  C213 1924   1.729   4.589   4.040 -0.7193 -0.3363 -0.1839
   15SAPS  H13R 1925   1.835   4.596   4.005 -0.4253  0.4372  0.8216
   15SAPS  H13S 1926   1.719   4.486   4.080 -1.7309 -0.8162 -1.5818
   15SAPS  C214 1927   1.682   4.699   4.131 -0.4122  0.2501  0.4339
   15SAPS  H14R 1928   1.649   4.793   4.084  0.0227  0.2835  0.1847
   15SAPS  C215 1929   1.681   4.685   4.261  0.0036  0.8636 -0.6145
   15SAPS  H15R 1930   1.645   4.775   4.314 -2.4015  0.4375 -1.3671
   15SAPS  C216 1931   1.713   4.556   4.338 -0.4361  0.3040 -1.0783
   15SAPS  H16R 1932   1.799   4.563   4.407 -1.3739  0.0098  0.1569
   15SAPS  H16S 1933   1.726   4.463   4.279 -0.8744  0.2192 -1.0507
   15SAPS  C217 1934   1.598   4.512   4.436  0.1823 -0.2650 -0.4427
   15SAPS  H17R 1935   1.552   4.609   4.465  0.3219 -0.7494  1.5902
   15SAPS  H17S 1936   1.638   4.466   4.529 -2.0265 -1.2732  0.0649
   15SAPS  C218 1937   1.505   4.429   4.355  0.2854  0.2424 -0.1158
   15SAPS  H18R 1938   1.548   4.332   4.321  0.6861  0.8912 -1.5793
   15SAPS  H18S 1939   1.490   4.481   4.258 -0.1893 -0.1745 -0.2685
   15SAPS  C219 1940   1.361   4.416   4.418  0.1611  0.8544  0.0782
   15SAPS  H19R 1941   1.351   4.497   4.494 -0.7593 -0.1254  1.0218
   15SAPS  H19S 1942   1.357   4.319   4.472 -0.7132  0.3098 -0.9288
   15SAPS  C220 1943   1.236   4.403   4.322 -0.0675 -0.1438 -0.0262
   15SAPS  H20R 1944   1.147   4.379   4.384 -1.7048  0.8249 -1.8718
   15SAPS  H20S 1945   1.256   4.328   4.243 -1.6762 -1.4701  0.7778
   15SAPS  H20T 1946   1.219   4.500   4.270 -0.3770 -0.1912 -0.0129
   15SAPS   C33 1947   1.002   4.795   3.680 -0.2862  0.1139 -0.2558
   15SAPS   H3X 1948   0.914   4.735   3.713 -1.4167  0.7391 -2.0087
   15SAPS   H3Y 1949   0.946   4.877   3.631 -1.2330 -0.3120  0.0879
   15SAPS   C34 1950   1.092   4.836   3.796 -0.3381 -0.6915 -0.1855
   15SAPS   H4X 1951   1.160   4.922   3.774 -0.3392 -0.5000  0.5271
   15SAPS   H4Y 1952   1.160   4.750   3.812 -2.5218 -2.2857  0.9430
   15SAPS   C35 1953   1.020   4.867   3.927  0.7085  0.9435 -0.1820
   15SAPS   H5X 1954   0.961   4.781   3.963 -1.4333  1.7820 -1.4997
   15SAPS   H5Y 1955   0.956   4.957   3.925 -1.3809 -0.4877 -0.2557
   15SAPS   C36 1956   1.126   4.891   4.034 -0.3787 -0.1350  0.2210
   15SAPS   H6X 1957   1.189   4.973   3.993 -0.6245  0.3325  0.7765
   15SAPS   H6Y 1958   1.188   4.799   4.038 -1.1156 -0.6604 -0.1469
   15SAPS   C37 1959   1.074   4.941   4.162  0.3516 -0.0703 -0.4669
   15SAPS   H7X 1960   0.972   4.985   4.159 -1.1141 -2.8951  2.1408
   15SAPS   H7Y 1961   1.143   5.013   4.212 -0.0925 -0.7679  1.2387
   15SAPS   C38 1962   1.056   4.816   4.261  0.1458 -0.9778  0.2146
   15SAPS   H8X 1963   1.143   4.751   4.235 -0.1090 -1.5468  0.7508
   15SAPS   H8Y 1964   0.966   4.755   4.238  0.4316 -0.7363 -1.6617
   15SAPS   C39 1965   1.053   4.856   4.407 -0.5182  0.3140 -0.2036
   15SAPS   H9X 1966   0.949   4.886   4.428 -0.7657 -0.4947 -0.2481
   15SAPS   H9Y 1967   1.127   4.937   4.427 -0.2604  0.0573 -0.1090
   15SAPS  C310 1968   1.078   4.733   4.507 -0.2201  0.2413 -0.4534
   15SAPS  H10X 1969   1.180   4.690   4.493 -1.0606 -1.0934 -2.9655
   15SAPS  H10Y 1970   1.015   4.647   4.477 -0.8929  0.1597  1.0815
   15SAPS  C311 1971   1.050   4.747   4.656 -0.7466 -1.1363 -0.4014
   15SAPS  H11X 1972   1.125   4.824   4.684 -0.4494  0.1907 -4.2834
   15SAPS  H11Y 1973   1.060   4.651   4.712  0.8498 -1.7995 -1.7588
   15SAPS  C312 1974   0.915   4.804   4.695  0.2354 -0.3421  0.0784
   15SAPS  H12X 1975   0.830   4.739   4.665 -1.2509  1.5153  0.0753
   15SAPS  H12Y 1976   0.901   4.899   4.640 -2.0347  0.0157  1.1202
   15SAPS  C313 1977   0.908   4.832   4.845 -0.8293  0.0586  0.4043
   15SAPS  H13X 1978   0.820   4.900   4.852 -0.7702  0.3558 -1.4092
   15SAPS  H13Y 1979   0.997   4.890   4.879 -1.3581  1.4273 -0.4743
   15SAPS  C314 1980   0.879   4.714   4.939  0.0155  0.2082 -0.4752
   15SAPS  H14X 1981   0.970   4.651   4.927  1.0065  1.6649 -0.9515
   15SAPS  H14Y 1982   0.796   4.656   4.892 -0.2254 -0.4576  0.7396
   15SAPS  C315 1983   0.859   4.759   5.086 -0.1010  0.2215  0.3773
   15SAPS  H15X 1984   0.928   4.841   5.114  0.0474 -0.0219  0.7320
   15SAPS  H15Y 1985   0.864   4.672   5.154  1.0118  0.1411  0.1966
   15SAPS  C316 1986   0.718   4.824   5.118 -0.2813  0.9429  0.1896
   15SAPS  H16X 1987   0.660   4.729   5.117  1.5241 -0.2581  1.4566
   15SAPS  H16Y 1988   0.677   4.888   5.038 -0.5669  0.2466 -0.2340
   15SAPS  C317 1989   0.710   4.887   5.261  0.2971 -0.7185  0.2000
   15SAPS  H17X 1990   0.782   4.971   5.246 -0.3039  0.0492  1.4632
   15SAPS  H17Y 1991   0.750   4.819   5.339  2.3032 -0.0964 -0.2053
   15SAPS  C318 1992   0.581   4.950   5.294 -0.3283  0.4065  0.0793
   15SAPS  H18X 1993   0.506   4.869   5.305  1.1823 -0.9076  1.2349
   15SAPS  H18Y 1994   0.537   5.011   5.212 -3.0152  2.2134  2.6500
   15SAPS  H18Z 1995   0.597   5.005   5.390 -0.7886  0.1085  0.3258
   16SAPS     N 1996   3.404   0.229   2.589 -0.7670 -0.2495  0.3877
   16SAPS   HN1 1997   3.409   0.280   2.498 -2.2687 -0.3294  0.2345
   16SAPS   HN2 1998   3.345   0.289   2.650 -1.4846  1.2554 -1.6542
   16SAPS   HN3 1999   3.497   0.225   2.634 -1.8122  1.3819  2.9079
   16SAPS   C12 2000   3.337   0.098   2.554  0.4887 -0.3134  0.3064
   16SAPS  H12A 2001   3.317   0.056   2.652  1.7298  2.0036  1.6553
   16SAPS   C13 2002   3.204   0.101   2.470  0.5658  0.3448 -0.5349
   16SAPS  O13A 2003   3.177   0.206   2.413 -0.0179  0.0299  0.3159
   16SAPS  O13B 2004   3.159  -0.013   2.424 -0.1816 -0.6964  0.1924
   16SAPS   C11 2005   3.437   0.006   2.484  0.1288  0.5063 -0.7213
   16SAPS  H11A 2006   3.473   0.050   2.388  1.8436  2.7504  0.8619
   16SAPS  H11B 2007   3.390  -0.088   2.447  3.2741 -1.0540 -1.1417
   16SAPS     P 2008   3.548  -0.163   2.645 -0.3711  0.0181  0.3042
   16SAPS   O13 2009   3.416  -0.224   2.646  0.1894 -0.1057 -0.3975
   16SAPS   O14 2010   3.656  -0.247   2.591 -0.2744 -0.9036  0.1554
   16SAPS   O12 2011   3.549  -0.026   2.574 -0.2450  0.0815  0.2890
   16SAPS   O11 2012   3.588  -0.122   2.798 -1.1078 -0.4194  0.4204
   16SAPS    C1 2013   3.511  -0.022   2.862  0.4594 -0.7552  0.2256
   16SAPS    HA 2014   3.525   0.078   2.815  2.2508 -1.1432 -0.1568
   16SAPS    HB 2015   3.406  -0.056   2.849  0.5835 -0.6121 -1.3135
   16SAPS    C2 2016   3.530  -0.032   3.018  0.4110 -0.0805 -0.5054
   16SAPS    HS 2017   3.453   0.040   3.055  0.8781  0.6360 -0.9089
   16SAPS   O21 2018   3.659   0.010   3.056 -0.6056  0.0050 -0.0708
   16SAPS   C21 2019   3.687   0.138   3.032  0.0868  0.4959  0.7159
   16SAPS   O22 2020   3.616   0.216   2.968  0.2119  0.2566  0.1667
   16SAPS   C22 2021   3.833   0.175   3.081 -0.4915  0.1795  0.0571
   16SAPS   H2R 2022   3.899   0.085   3.072  0.4737  0.9243 -0.6678
   16SAPS   H2S 2023   3.873   0.242   3.002 -0.7094  0.9859  0.6244
   16SAPS    C3 2024   3.498  -0.179   3.064  0.1422  0.6151 -0.4815
   16SAPS    HX 2025   3.563  -0.240   2.999  0.4574 -1.5911  1.7427
   16SAPS    HY 2026   3.393  -0.205   3.039  0.3463 -0.4505 -0.2782
   16SAPS   O31 2027   3.502  -0.199   3.212 -0.0277  0.5097 -0.2900
   16SAPS   C31 2028   3.537  -0.323   3.252  0.8225  0.1556  0.4342
   16SAPS   O32 2029   3.565  -0.416   3.178 -0.1453  0.2789  0.5329
   16SAPS   C32 2030   3.539  -0.335   3.401 -0.4304 -0.1041 -0.3612
   16SAPS   H2X 2031   3.512  -0.439   3.428 -3.0506 -0.2681 -3.1010
   16SAPS   H2Y 2032   3.460  -0.269   3.445  0.9180  2.6026 -1.7270
   16SAPS   C23 2033   3.850   0.252   3.215  0.1034 -0.0127  0.3677
   16SAPS   H3R 2034   3.771   0.329   3.229 -0.0130  0.4795 -2.4786
   16SAPS   H3S 2035   3.953   0.292   3.221  0.0535  0.7187 -2.3726
   16SAPS   C24 2036   3.836   0.148   3.331 -0.4222  1.1695  0.3400
   16SAPS   H4R 2037   3.748   0.081   3.321 -0.2480  0.6562  2.0146
   16SAPS   H4S 2038   3.815   0.208   3.422  2.6884  0.2580  1.7600
   16SAPS   C25 2039   3.951   0.064   3.356  0.9232  0.0617  0.0581
   16SAPS   H5R 2040   3.983   0.006   3.268  1.6987  3.1899 -1.9301
   16SAPS   C26 2041   4.004   0.036   3.475 -0.3972 -0.8288 -0.7627
   16SAPS   H6R 2042   4.091  -0.032   3.477  0.4417  0.2298 -0.3697
   16SAPS   C27 2043   3.968   0.095   3.613 -0.7145  0.3691  1.1864
   16SAPS   H7R 2044   3.939   0.016   3.685  0.2557 -1.1484 -0.0397
   16SAPS   H7S 2045   3.882   0.165   3.606  0.5648  1.8789 -0.2778
   16SAPS   C28 2046   4.078   0.178   3.669  0.3115 -0.1580 -0.1440
   16SAPS   H8R 2047   4.129   0.254   3.607  0.0357  1.6047  1.6938
   16SAPS   C29 2048   4.146   0.152   3.781  0.4908 -0.0150 -0.1767
   16SAPS   H9R 2049   4.233   0.219   3.795 -0.9291  2.2633 -1.6412
   16SAPS  C210 2050   4.110   0.051   3.892 -0.2666  0.1160  0.2703
   16SAPS  H10R 2051   4.111  -0.051   3.847  0.8654 -0.8388  2.3579
   16SAPS  H10S 2052   4.004   0.075   3.914 -0.5802  1.0335 -1.9430
   16SAPS  C211 2053   4.196   0.059   4.012  0.6769 -0.4536 -0.2645
   16SAPS  H11R 2054   4.295   0.107   4.003  0.5415  0.3332  1.9285
   16SAPS  C212 2055   4.166   0.002   4.135 -0.1426  0.4506 -0.0315
   16SAPS  H12R 2056   4.245   0.022   4.210 -1.4463  2.7425  0.8475
   16SAPS  C213 2057   4.042  -0.077   4.173  0.3758  0.0914 -1.1655
   16SAPS  H13R 2058   4.065  -0.180   4.209 -0.3165  0.3842  0.2251
   16SAPS  H13S 2059   3.974  -0.084   4.085  0.5434  2.6156 -1.5430
   16SAPS  C214 2060   3.967  -0.005   4.288 -0.1936 -0.0678 -0.3703
   16SAPS  H14R 2061   4.037   0.007   4.372  0.0914 -0.1083 -0.5986
   16SAPS  C215 2062   3.834   0.021   4.294  0.0694  0.8348 -0.3765
   16SAPS  H15R 2063   3.788   0.070   4.380 -2.1163 -2.7361  0.6875
   16SAPS  C216 2064   3.745  -0.010   4.172  0.3421 -0.0615  0.8799
   16SAPS  H16R 2065   3.787  -0.071   4.088  0.2183 -0.2309  0.9402
   16SAPS  H16S 2066   3.710   0.087   4.131 -1.6429 -0.2435  2.0426
   16SAPS  C217 2067   3.611  -0.084   4.205 -0.2080 -0.0248  0.3746
   16SAPS  H17R 2068   3.640  -0.188   4.231  2.0598  0.2791 -0.6374
   16SAPS  H17S 2069   3.564  -0.091   4.104 -0.6002  1.4276  0.4333
   16SAPS  C218 2070   3.524  -0.009   4.303 -0.1152  0.3830 -0.2213
   16SAPS  H18R 2071   3.509   0.096   4.269  1.8002  0.5372 -0.7017
   16SAPS  H18S 2072   3.578  -0.011   4.401  0.9201  0.5160 -0.7790
   16SAPS  C219 2073   3.382  -0.068   4.327 -0.2988  0.2121  0.3430
   16SAPS  H19R 2074   3.335  -0.087   4.228  2.0494 -0.4704 -0.7041
   16SAPS  H19S 2075   3.326   0.005   4.389  0.8273  1.2324  0.1918
   16SAPS  C220 2076   3.373  -0.207   4.396 -0.2160  0.1912  0.1577
   16SAPS  H20R 2077   3.413  -0.290   4.333  0.1875  0.2427  0.3433
   16SAPS  H20S 2078   3.267  -0.239   4.411 -0.5627  1.1845 -0.0864
   16SAPS  H20T 2079   3.433  -0.215   4.489  1.0857  2.3576 -0.4315
   16SAPS   C33 2080   3.682  -0.292   3.457  0.7914  0.2018 -0.2108
   16SAPS   H3X 2081   3.684  -0.184   3.432 -0.2165  0.1406 -0.5993
   16SAPS   H3Y 2082   3.769  -0.333   3.401 -1.2469  0.7722 -4.1420
   16SAPS   C34 2083   3.678  -0.318   3.613 -0.0171  0.6867 -0.0908
   16SAPS   H4X 2084   3.682  -0.426   3.639  0.8620  0.8666  0.5483
   16SAPS   H4Y 2085   3.592  -0.265   3.660 -1.5174 -0.8019 -1.0301
   16SAPS   C35 2086   3.804  -0.255   3.669  0.2182 -0.3646  0.3905
   16SAPS   H5X 2087   3.793  -0.154   3.624 -2.2437  0.0059  1.6622
   16SAPS   H5Y 2088   3.889  -0.308   3.621  0.7205 -1.6073  2.5218
   16SAPS   C36 2089   3.825  -0.243   3.816  0.6094  0.2488  0.1064
   16SAPS   H6X 2090   3.732  -0.195   3.855  0.7768  0.6984 -0.0433
   16SAPS   H6Y 2091   3.908  -0.173   3.840  0.3332  0.6200 -0.0135
   16SAPS   C37 2092   3.822  -0.380   3.880 -0.3125  0.0437 -0.0447
   16SAPS   H7X 2093   3.913  -0.435   3.849 -1.2532 -3.7601  3.0686
   16SAPS   H7Y 2094   3.745  -0.451   3.842  1.2760 -2.1458  0.6154
   16SAPS   C38 2095   3.807  -0.385   4.033 -0.1863 -0.4311  0.4038
   16SAPS   H8X 2096   3.710  -0.334   4.050  1.2743  3.1538 -1.0765
   16SAPS   H8Y 2097   3.882  -0.316   4.075 -1.0670  0.6510  0.2666
   16SAPS   C39 2098   3.822  -0.526   4.083 -0.0684  0.0000  0.5974
   16SAPS   H9X 2099   3.901  -0.571   4.018 -0.1963 -0.6218  0.8640
   16SAPS   H9Y 2100   3.732  -0.589   4.069 -0.5536  1.0243 -1.0606
   16SAPS  C310 2101   3.863  -0.528   4.233  0.1477 -0.8814  0.0593
   16SAPS  H10X 2102   3.954  -0.468   4.250  0.0278 -0.6406 -0.1396
   16SAPS  H10Y 2103   3.898  -0.633   4.248  0.0301 -1.1092 -1.1556
   16SAPS  C311 2104   3.751  -0.493   4.328  0.5060 -0.1673  0.4012
   16SAPS  H11X 2105   3.701  -0.591   4.347  0.1960  0.2970  2.1378
   16SAPS  H11Y 2106   3.674  -0.436   4.272 -0.6702 -1.1759  0.9296
   16SAPS  C312 2107   3.775  -0.429   4.456 -1.0852  0.3129  0.1400
   16SAPS  H12X 2108   3.851  -0.479   4.520  0.1920  3.2697  1.1283
   16SAPS  H12Y 2109   3.683  -0.443   4.518 -0.4842 -2.0257  0.6139
   16SAPS  C313 2110   3.805  -0.272   4.444  0.1319  0.3358  0.0436
   16SAPS  H13X 2111   3.711  -0.215   4.451 -0.0181  0.0734  0.1861
   16SAPS  H13Y 2112   3.834  -0.257   4.338 -1.4906 -1.7424 -0.7706
   16SAPS  C314 2113   3.919  -0.235   4.533 -0.2830 -0.5047  0.1793
   16SAPS  H14X 2114   3.968  -0.136   4.533  0.3294 -0.7694  2.3052
   16SAPS  H14Y 2115   4.002  -0.308   4.517 -0.2603 -0.3654 -0.3572
   16SAPS  C315 2116   3.870  -0.244   4.678 -0.2520  0.6280 -0.3648
   16SAPS  H15X 2117   3.947  -0.293   4.741 -0.7428  2.0575  1.4142
   16SAPS  H15Y 2118   3.787  -0.317   4.692 -0.3865  0.9769  0.6779
   16SAPS  C316 2119   3.832  -0.105   4.736 -0.7674  0.0260 -0.9950
   16SAPS  H16X 2120   3.743  -0.051   4.697  1.1295  2.7259 -1.8905
   16SAPS  H16Y 2121   3.925  -0.044   4.730  1.7285 -3.2284  1.1430
   16SAPS  C317 2122   3.805  -0.121   4.895  0.5535 -0.4122  0.0078
   16SAPS  H17X 2123   3.805  -0.020   4.943  0.2354  0.1975 -1.2404
   16SAPS  H17Y 2124   3.891  -0.169   4.945  0.7936  1.0553  1.0819
   16SAPS  C318 2125   3.682  -0.196   4.929  0.1143  0.7808 -0.2998
   16SAPS  H18X 2126   3.676  -0.298   4.884  1.6082  1.4420 -2.0904
   16SAPS  H18Y 2127   3.601  -0.130   4.893  0.8901 -0.0237 -3.8317
   16SAPS  H18Z 2128   3.676  -0.211   5.039 -0.7761  0.7734 -0.3448
   17SAPS     N 2129   1.567   4.962   2.958  0.0645 -0.0947  0.5278
   17SAPS   HN1 2130   1.557   4.858   2.959  1.4472 -0.2365  1.2120
   17SAPS   HN2 2131   1.607   5.004   3.044 -0.7860  2.4490 -0.2433
   17SAPS   HN3 2132   1.475   5.005   2.938  0.6877  0.1514 -2.1291
   17SAPS   C12 2133   1.645   5.009   2.836  0.2108  0.3841 -0.0713
   17SAPS  H12A 2134   1.729   4.942   2.830 -0.3934 -0.5607  1.3928
   17SAPS   C13 2135   1.565   5.013   2.700 -0.0387 -0.5149 -0.6977
   17SAPS  O13A 2136   1.450   4.966   2.693 -0.1787  0.5182 -0.3529
   17SAPS  O13B 2137   1.626   5.034   2.591 -0.0423  0.3419  0.0264
   17SAPS   C11 2138   1.685   5.161   2.863  0.2619  0.6592  0.1414
   17SAPS  H11A 2139   1.594   5.225   2.856 -0.7661 -0.6963  0.6288
   17SAPS  H11B 2140   1.743   5.200   2.777  0.2689 -2.3271 -1.3166
   17SAPS     P 2141   1.865   5.279   3.017  0.1663  0.1437 -0.0928
   17SAPS   O13 2142   1.980   5.191   3.055  0.2634  0.0840  0.2678
   17SAPS   O14 2143   1.879   5.376   2.908 -0.1575  0.1116  0.2346
   17SAPS   O12 2144   1.741   5.182   2.988 -0.7304  0.0144  0.5725
   17SAPS   O11 2145   1.814   5.359   3.144 -0.4561 -0.0581 -0.0726
   17SAPS    C1 2146   1.694   5.429   3.158  0.7296  0.7375 -0.3860
   17SAPS    HA 2147   1.717   5.538   3.163  0.7897  0.6561  2.2276
   17SAPS    HB 2148   1.629   5.409   3.070  2.6784 -0.6446 -1.5961
   17SAPS    C2 2149   1.616   5.404   3.295 -0.0322  0.7210  0.3978
   17SAPS    HS 2150   1.531   5.341   3.260  1.2662 -0.5518 -0.5809
   17SAPS   O21 2151   1.577   5.531   3.352  0.7699 -0.4621  0.3643
   17SAPS   C21 2152   1.480   5.597   3.277 -0.4463  0.5605 -0.3701
   17SAPS   O22 2153   1.430   5.545   3.183  0.1056  0.9218  0.2068
   17SAPS   C22 2154   1.454   5.738   3.310  0.2177 -0.5735  0.0238
   17SAPS   H2R 2155   1.503   5.757   3.407  2.3170 -3.5595 -0.3022
   17SAPS   H2S 2156   1.516   5.784   3.230 -1.8251  1.3787 -0.5537
   17SAPS    C3 2157   1.709   5.327   3.385  0.2355 -0.6063  0.3407
   17SAPS    HX 2158   1.782   5.403   3.422 -0.1414 -0.6563  1.2061
   17SAPS    HY 2159   1.751   5.239   3.332 -0.6681 -3.3548  3.7874
   17SAPS   O31 2160   1.640   5.288   3.502  0.0752  0.2144  0.7625
   17SAPS   C31 2161   1.576   5.171   3.498 -0.2572  0.7176  0.0025
   17SAPS   O32 2162   1.586   5.084   3.416 -0.4698  0.1101  0.9712
   17SAPS   C32 2163   1.472   5.168   3.613  0.8384  0.1060  0.4888
   17SAPS   H2X 2164   1.382   5.112   3.581  1.0251  0.0249  0.0981
   17SAPS   H2Y 2165   1.444   5.273   3.639 -0.0607 -0.4337  1.7773
   17SAPS   C23 2166   1.300   5.784   3.293 -0.2555 -0.2602 -0.2665
   17SAPS   H3R 2167   1.255   5.746   3.199  0.2423 -2.5397  0.3419
   17SAPS   H3S 2168   1.298   5.895   3.288 -0.0165 -0.2722 -0.6528
   17SAPS   C24 2169   1.204   5.744   3.409  0.7914 -0.1483 -0.2024
   17SAPS   H4R 2170   1.103   5.783   3.384  1.3984  2.5798  1.2041
   17SAPS   H4S 2171   1.226   5.798   3.503 -2.7044  0.6584  0.2856
   17SAPS   C25 2172   1.213   5.591   3.436 -0.1643  0.4679 -0.2416
   17SAPS   H5R 2173   1.205   5.521   3.352  0.4100  1.0615 -0.8041
   17SAPS   C26 2174   1.267   5.543   3.547 -0.0035  0.2707 -0.5027
   17SAPS   H6R 2175   1.295   5.436   3.544  1.2632  0.6017 -1.8067
   17SAPS   C27 2176   1.320   5.617   3.668 -0.0167 -0.4712 -0.3974
   17SAPS   H7R 2177   1.260   5.589   3.757  0.7881 -0.7335  0.0749
   17SAPS   H7S 2178   1.307   5.727   3.665 -1.4250 -0.6453 -1.5968
   17SAPS   C28 2179   1.454   5.565   3.707  0.0281 -0.3920  0.4783
   17SAPS   H8R 2180   1.527   5.555   3.625  0.4640 -1.8563  1.0057
   17SAPS   C29 2181   1.480   5.518   3.826 -0.5081  0.5456 -0.4723
   17SAPS   H9R 2182   1.582   5.486   3.853 -0.4211 -0.0225 -1.4378
   17SAPS  C210 2183   1.394   5.515   3.951 -0.3056  0.2182 -0.1958
   17SAPS  H10R 2184   1.394   5.408   3.981 -0.5655  0.5339  1.0129
   17SAPS  H10S 2185   1.289   5.533   3.919 -0.5393 -0.0438  0.4053
   17SAPS  C211 2186   1.420   5.612   4.063 -0.3223  0.0003 -0.3119
   17SAPS  H11R 2187   1.468   5.707   4.036 -0.1118 -0.1476 -0.4599
   17SAPS  C212 2188   1.386   5.588   4.191 -1.0373  0.2596 -0.1576
   17SAPS  H12R 2189   1.414   5.654   4.274  0.3785 -0.5885  0.0854
   17SAPS  C213 2190   1.294   5.473   4.239 -0.1573  0.7875  0.3936
   17SAPS  H13R 2191   1.264   5.408   4.153  1.1942 -0.2153  0.6490
   17SAPS  H13S 2192   1.195   5.519   4.258 -0.5190 -0.0995  0.7174
   17SAPS  C214 2193   1.354   5.405   4.361  0.2203  0.8184 -0.1567
   17SAPS  H14R 2194   1.443   5.345   4.338  0.1907  0.6328  0.2007
   17SAPS  C215 2195   1.308   5.403   4.485  0.0100 -0.6924 -1.4603
   17SAPS  H15R 2196   1.378   5.354   4.554  2.0758  3.3070 -0.4639
   17SAPS  C216 2197   1.185   5.474   4.550 -0.4690 -0.5233 -0.0618
   17SAPS  H16R 2198   1.123   5.384   4.572  2.3937 -3.5262 -3.0152
   17SAPS  H16S 2199   1.138   5.537   4.472 -1.1879 -1.8177 -0.7177
   17SAPS  C217 2200   1.230   5.551   4.676 -0.2781  0.3805 -0.7825
   17SAPS  H17R 2201   1.297   5.634   4.646 -0.6458  0.9521 -0.0484
   17SAPS  H17S 2202   1.281   5.482   4.747 -1.9281 -0.9545 -0.8318
   17SAPS  C218 2203   1.116   5.615   4.755 -0.6136 -0.1715 -0.4982
   17SAPS  H18R 2204   1.043   5.666   4.688 -0.4706 -1.0204 -1.3274
   17SAPS  H18S 2205   1.163   5.679   4.832 -0.0994 -0.9121 -0.1827
   17SAPS  C219 2206   1.024   5.516   4.836 -0.5219  0.5615  0.6705
   17SAPS  H19R 2207   0.988   5.549   4.936  2.6524 -0.6695  2.3641
   17SAPS  H19S 2208   1.077   5.422   4.861  0.2575  0.7430 -0.2377
   17SAPS  C220 2209   0.901   5.481   4.749 -0.5765  0.7056 -0.3621
   17SAPS  H20R 2210   0.860   5.389   4.796  3.1023 -0.1121  1.6424
   17SAPS  H20S 2211   0.946   5.463   4.649  0.1654  0.9661 -0.0854
   17SAPS  H20T 2212   0.834   5.570   4.754 -0.3951  0.8228  0.0163
   17SAPS   C33 2213   1.537   5.096   3.733  0.0564  0.6039 -0.5181
   17SAPS   H3X 2214   1.646   5.117   3.747  1.2643 -2.5408 -3.7491
   17SAPS   H3Y 2215   1.544   4.987   3.712 -0.3380  0.9092 -2.3877
   17SAPS   C34 2216   1.455   5.125   3.864  0.6377  0.7383 -0.1178
   17SAPS   H4X 2217   1.347   5.107   3.848  0.1431  2.6597  0.7852
   17SAPS   H4Y 2218   1.474   5.233   3.881  2.5433  0.3135  0.6867
   17SAPS   C35 2219   1.490   5.041   3.988  0.5442  0.0524  1.2678
   17SAPS   H5X 2220   1.596   5.007   3.994  0.2450 -0.7809  2.1327
   17SAPS   H5Y 2221   1.432   4.948   3.969 -0.3401  0.5600  1.4144
   17SAPS   C36 2222   1.432   5.103   4.117  0.5109 -0.2021  0.6905
   17SAPS   H6X 2223   1.323   5.124   4.108  0.9698  2.1475 -0.0456
   17SAPS   H6Y 2224   1.484   5.195   4.151 -1.6295  1.1632  0.4700
   17SAPS   C37 2225   1.454   5.003   4.232 -0.3221 -0.3087 -0.0760
   17SAPS   H7X 2226   1.555   4.958   4.236  1.0845  2.7584  2.8815
   17SAPS   H7Y 2227   1.383   4.918   4.215 -1.4514  0.5588  0.1744
   17SAPS   C38 2228   1.429   5.067   4.369  0.1063 -0.2046 -0.0153
   17SAPS   H8X 2229   1.324   5.104   4.379  0.8635  1.8936  0.7941
   17SAPS   H8Y 2230   1.509   5.136   4.402  1.7966 -1.3444 -1.5505
   17SAPS   C39 2231   1.426   4.957   4.470 -0.1933  0.9151 -0.0215
   17SAPS   H9X 2232   1.531   4.924   4.476  0.0207  1.4256 -0.7291
   17SAPS   H9Y 2233   1.358   4.875   4.437 -0.0047 -0.3166  2.4307
   17SAPS  C310 2234   1.369   4.997   4.600  0.4810  0.4600 -0.1681
   17SAPS  H10X 2235   1.355   4.902   4.655 -1.8425 -0.2927 -1.9196
   17SAPS  H10Y 2236   1.276   5.056   4.584 -0.1106  0.0632  1.6211
   17SAPS  C311 2237   1.455   5.086   4.697 -0.4061 -0.2098  0.3352
   17SAPS  H11X 2238   1.475   5.177   4.636  0.5453 -0.6702 -0.0673
   17SAPS  H11Y 2239   1.555   5.040   4.709  1.3337  3.2781  0.3397
   17SAPS  C312 2240   1.385   5.116   4.828  1.1518 -0.3571 -0.3410
   17SAPS  H12X 2241   1.295   5.169   4.790  0.8346  1.1070  2.1888
   17SAPS  H12Y 2242   1.445   5.185   4.891 -0.6798  1.2613 -0.2839
   17SAPS  C313 2243   1.340   4.996   4.918 -0.7392 -1.0159  0.3631
   17SAPS  H13X 2244   1.426   4.926   4.931  0.6464  0.8653  2.0645
   17SAPS  H13Y 2245   1.264   4.930   4.871  0.2805 -1.6724 -0.4228
   17SAPS  C314 2246   1.291   5.031   5.058 -0.3583  0.1099  0.2216
   17SAPS  H14X 2247   1.200   5.092   5.043  0.4675  1.1224 -0.8247
   17SAPS  H14Y 2248   1.364   5.101   5.104 -0.9354  1.0647 -0.2934
   17SAPS  C315 2249   1.255   4.914   5.157  0.4269  0.3018 -0.2424
   17SAPS  H15X 2250   1.346   4.849   5.152  0.0791 -0.3655  1.4379
   17SAPS  H15Y 2251   1.167   4.857   5.121 -0.8517  2.1815 -0.2204
   17SAPS  C316 2252   1.233   4.946   5.298  0.3193 -0.4779 -0.5255
   17SAPS  H16X 2253   1.154   5.023   5.308 -0.1415 -1.0431  0.2957
   17SAPS  H16Y 2254   1.327   4.990   5.336  0.3142 -1.9080  1.2562
   17SAPS  C317 2255   1.191   4.822   5.376 -0.9115 -0.6625  0.1368
   17SAPS  H17X 2256   1.281   4.759   5.359 -0.2144  0.2186  0.4684
   17SAPS  H17Y 2257   1.103   4.772   5.330 -1.3897  0.6626 -0.4359
   17SAPS  C318 2258   1.182   4.843   5.523  0.1253 -0.1850 -0.5459
   17SAPS  H18X 2259   1.089   4.901   5.544 -0.1184 -0.2161 -1.4852
   17SAPS  H18Y 2260   1.263   4.910   5.559 -0.9621  0.9010 -0.0307
   17SAPS  H18Z 2261   1.185   4.743   5.572 -2.3959 -0.0264  0.0793
   18SAPS     N 2262   4.073   4.363   3.110  0.2347 -0.3378  0.0397
   18SAPS   HN1 2263   4.009   4.328   3.184  1.8865 -1.2580  1.1008
   18SAPS   HN2 2264   4.168   4.367   3.153  0.1100 -0.4976  0.3335
   18SAPS   HN3 2265   4.053   4.463   3.089  0.6925 -0.3901 -0.6890
   18SAPS   C12 2266   4.079   4.276   2.987 -0.0723 -0.6878  0.1367
   18SAPS  H12A 2267   4.018   4.189   3.004  1.4170 -1.9276 -0.5879
   18SAPS   C13 2268   4.031   4.347   2.855 -0.3818  0.4405  0.2370
   18SAPS  O13A 2269   3.987   4.463   2.846  0.0441  0.2898 -0.2184
   18SAPS  O13B 2270   4.053   4.283   2.747 -0.0067  0.0436 -0.1394
   18SAPS   C11 2271   4.229   4.233   2.970 -0.4035  0.0102  0.2469
   18SAPS  H11A 2272   4.290   4.322   2.945 -0.1371 -0.4534 -0.7888
   18SAPS  H11B 2273   4.236   4.166   2.883  2.0823 -0.1672  0.5144
   18SAPS     P 2274   4.354   4.027   3.071 -0.1784  0.1365 -0.0242
   18SAPS   O13 2275   4.236   3.940   3.061 -0.4286 -0.0682  0.0852
   18SAPS   O14 2276   4.463   4.017   2.974  0.1933  0.2812  0.7524
   18SAPS   O12 2277   4.295   4.168   3.078 -0.2427 -0.5116 -0.0102
   18SAPS   O11 2278   4.430   4.008   3.213  0.2845  0.1297 -0.3881
   18SAPS    C1 2279   4.448   4.118   3.303  0.3148  1.0366 -0.5822
   18SAPS    HA 2280   4.535   4.091   3.367  0.5680 -1.7410 -1.9417
   18SAPS    HB 2281   4.469   4.217   3.256  0.7136  1.5439  0.6162
   18SAPS    C2 2282   4.328   4.143   3.390  0.1668  0.2768 -0.1240
   18SAPS    HS 2283   4.243   4.154   3.320 -1.2523  1.7945  1.7010
   18SAPS   O21 2284   4.344   4.271   3.466 -0.3016  0.0370 -0.4421
   18SAPS   C21 2285   4.312   4.375   3.403  0.0356 -0.8961 -0.1296
   18SAPS   O22 2286   4.263   4.380   3.291  0.2472  0.3921  0.1483
   18SAPS   C22 2287   4.331   4.501   3.492  0.0714 -0.4820 -0.7281
   18SAPS   H2R 2288   4.230   4.548   3.490  0.4102  0.3445  0.6120
   18SAPS   H2S 2289   4.365   4.480   3.595  0.0755 -1.6039 -0.9470
   18SAPS    C3 2290   4.289   4.026   3.480 -0.4344  0.0188  0.9342
   18SAPS    HX 2291   4.285   3.932   3.421 -1.8188 -1.3475  3.0857
   18SAPS    HY 2292   4.192   4.059   3.523  0.3910  1.6754  1.6294
   18SAPS   O31 2293   4.380   4.025   3.583 -0.2199 -0.2874 -0.3796
   18SAPS   C31 2294   4.435   3.920   3.626 -0.3081  0.6003 -0.1891
   18SAPS   O32 2295   4.414   3.803   3.592 -0.2334 -0.0705  0.1431
   18SAPS   C32 2296   4.539   3.949   3.742  0.5012 -0.7431 -0.3885
   18SAPS   H2X 2297   4.520   4.055   3.770  0.4529 -0.6372 -0.8125
   18SAPS   H2Y 2298   4.642   3.934   3.705  0.7742 -3.3726  1.2385
   18SAPS   C23 2299   4.429   4.601   3.431 -0.5944 -0.3113 -0.3342
   18SAPS   H3R 2300   4.452   4.589   3.323  2.6123 -0.9926  0.3390
   18SAPS   H3S 2301   4.523   4.595   3.489 -1.2635  0.5475  0.8860
   18SAPS   C24 2302   4.375   4.749   3.436 -0.1466  0.6491 -0.8631
   18SAPS   H4R 2303   4.283   4.754   3.373 -1.4671 -0.7529  0.8520
   18SAPS   H4S 2304   4.444   4.816   3.380 -1.1131  0.5763 -2.1989
   18SAPS   C25 2305   4.345   4.818   3.572 -0.4670 -0.1301 -0.3796
   18SAPS   H5R 2306   4.246   4.859   3.598  0.3749  0.2806  2.5306
   18SAPS   C26 2307   4.437   4.842   3.665 -0.1182  0.3359 -0.1740
   18SAPS   H6R 2308   4.404   4.892   3.758 -0.5372  0.0771 -0.1818
   18SAPS   C27 2309   4.575   4.800   3.663 -0.3472 -0.4457 -0.0072
   18SAPS   H7R 2310   4.637   4.890   3.680  3.0408 -2.7607  0.8968
   18SAPS   H7S 2311   4.607   4.755   3.566 -0.1691 -2.6151  0.9963
   18SAPS   C28 2312   4.602   4.701   3.773 -0.3549  0.4158  0.5022
   18SAPS   H8R 2313   4.606   4.596   3.743  0.8258 -0.0930  2.2587
   18SAPS   C29 2314   4.651   4.733   3.897  0.1792 -0.5484 -0.2637
   18SAPS   H9R 2315   4.692   4.656   3.963  2.9233  0.2588 -0.8761
   18SAPS  C210 2316   4.676   4.880   3.950  0.0390  0.3737 -0.0028
   18SAPS  H10R 2317   4.599   4.902   4.027 -0.5682 -0.2547 -0.4179
   18SAPS  H10S 2318   4.662   4.948   3.863 -1.3697 -0.5273 -0.5014
   18SAPS  C211 2319   4.818   4.889   3.998  0.1287  0.5666 -0.0642
   18SAPS  H11R 2320   4.886   4.849   3.921 -0.0604  0.2901 -0.0922
   18SAPS  C212 2321   4.854   4.957   4.108 -0.0624 -0.3996  0.1858
   18SAPS  H12R 2322   4.957   4.957   4.147  0.1305  2.3088 -0.0879
   18SAPS  C213 2323   4.759   5.030   4.202 -0.7011 -0.1388 -0.1264
   18SAPS  H13R 2324   4.690   5.095   4.144 -1.1597  0.1391  0.7247
   18SAPS  H13S 2325   4.820   5.101   4.261  1.6607 -2.0100 -0.1547
   18SAPS  C214 2326   4.673   4.951   4.286  0.5205 -0.4301 -1.1231
   18SAPS  H14R 2327   4.655   4.847   4.256 -1.9184 -0.7718  1.2021
   18SAPS  C215 2328   4.631   4.990   4.412  0.0596  0.0345  0.3524
   18SAPS  H15R 2329   4.564   4.923   4.467 -0.0095  0.9048  1.3699
   18SAPS  C216 2330   4.673   5.121   4.476  0.6094  0.0941  0.4831
   18SAPS  H16R 2331   4.608   5.200   4.432  1.2282  1.3522  1.7886
   18SAPS  H16S 2332   4.778   5.155   4.464 -0.8200  5.6616  1.0591
   18SAPS  C217 2333   4.633   5.138   4.623 -0.6667 -0.1353  0.4900
   18SAPS  H17R 2334   4.523   5.121   4.631 -0.4419 -0.8186  3.1580
   18SAPS  H17S 2335   4.658   5.239   4.659 -0.3546  0.3440 -0.9983
   18SAPS  C218 2336   4.706   5.045   4.716 -0.1097 -0.2417  0.0768
   18SAPS  H18R 2337   4.814   5.069   4.727  0.4517 -1.9868 -1.1231
   18SAPS  H18S 2338   4.713   4.943   4.672  2.8968  0.7883 -2.1363
   18SAPS  C219 2339   4.645   5.016   4.855  0.0116 -0.6376 -1.0429
   18SAPS  H19R 2340   4.671   5.104   4.917  0.2988 -1.0629 -0.5514
   18SAPS  H19S 2341   4.702   4.933   4.901 -0.5427 -0.2471  0.4239
   18SAPS  C220 2342   4.497   4.978   4.857 -0.1356 -0.1953  0.4640
   18SAPS  H20R 2343   4.464   4.971   4.963  0.6430  1.4988  0.8586
   18SAPS  H20S 2344   4.468   4.888   4.799 -1.3907  1.6445 -1.9669
   18SAPS  H20T 2345   4.439   5.068   4.827 -2.6131 -0.9462  2.7029
   18SAPS   C33 2346   4.511   3.850   3.852  0.3371 -0.9167 -1.2342
   18SAPS   H3X 2347   4.506   3.745   3.819 -0.6166 -1.6365  1.0310
   18SAPS   H3Y 2348   4.408   3.869   3.889 -0.7337 -1.2659 -3.8949
   18SAPS   C34 2349   4.621   3.855   3.971  0.8362  0.5142 -0.5341
   18SAPS   H4X 2350   4.646   3.963   3.981 -2.4184  1.4114 -0.8685
   18SAPS   H4Y 2351   4.708   3.796   3.935  1.6181  2.0374 -1.2384
   18SAPS   C35 2352   4.569   3.796   4.100  0.1632 -0.3400  0.2167
   18SAPS   H5X 2353   4.545   3.689   4.085  0.3756 -0.3303 -0.1958
   18SAPS   H5Y 2354   4.479   3.849   4.139  0.4712 -2.3001  4.1042
   18SAPS   C36 2355   4.666   3.806   4.214 -0.1202  0.0488  1.2130
   18SAPS   H6X 2356   4.691   3.912   4.234  1.4351  0.3134 -1.6160
   18SAPS   H6Y 2357   4.755   3.744   4.192 -1.2394 -2.2347  2.7061
   18SAPS   C37 2358   4.604   3.744   4.339  0.1994 -0.4881 -0.2592
   18SAPS   H7X 2359   4.585   3.636   4.325  1.3301 -0.8941  1.0940
   18SAPS   H7Y 2360   4.503   3.785   4.359  0.2893 -0.4949  0.2304
   18SAPS   C38 2361   4.681   3.756   4.473 -0.5272 -0.5030 -0.4187
   18SAPS   H8X 2362   4.705   3.863   4.489 -0.7575 -0.4491 -0.4188
   18SAPS   H8Y 2363   4.776   3.700   4.459 -0.3085 -0.3219  0.3284
   18SAPS   C39 2364   4.590   3.702   4.583 -0.5028  0.1200  0.4789
   18SAPS   H9X 2365   4.613   3.594   4.567  4.6447  1.1821 -1.5052
   18SAPS   H9Y 2366   4.486   3.729   4.557  0.0371  1.9972  0.1103
   18SAPS  C310 2367   4.628   3.734   4.729 -0.1082 -0.5164  0.8313
   18SAPS  H10X 2368   4.649   3.843   4.733 -1.8818 -0.1386  0.5396
   18SAPS  H10Y 2369   4.720   3.685   4.767 -0.2808 -0.1971  1.6695
   18SAPS  C311 2370   4.517   3.717   4.830 -0.5514  0.4160  0.1198
   18SAPS  H11X 2371   4.459   3.622   4.833 -1.1869  0.7540 -0.9726
   18SAPS  H11Y 2372   4.440   3.791   4.802  0.8605  2.1680  0.6861
   18SAPS  C312 2373   4.558   3.759   4.972  0.2070  0.0331  0.3578
   18SAPS  H12X 2374   4.579   3.868   4.970  2.8230 -0.4085 -1.0317
   18SAPS  H12Y 2375   4.652   3.711   5.007  1.3169  1.0100 -1.1283
   18SAPS  C313 2376   4.451   3.728   5.085 -0.4601 -0.1899 -0.1913
   18SAPS  H13X 2377   4.490   3.798   5.163  0.2348 -1.7909  0.9393
   18SAPS  H13Y 2378   4.461   3.623   5.118  1.5620 -0.4462 -1.5030
   18SAPS  C314 2379   4.301   3.752   5.040 -0.4629 -0.5958 -0.2155
   18SAPS  H14X 2380   4.269   3.675   4.967  0.5910 -1.0445 -0.2215
   18SAPS  H14Y 2381   4.295   3.845   4.979 -1.6060 -1.3331 -1.2777
   18SAPS  C315 2382   4.201   3.756   5.153  0.6826 -0.6156  0.0786
   18SAPS  H15X 2383   4.213   3.661   5.209  0.7770 -0.5071  0.2420
   18SAPS  H15Y 2384   4.103   3.769   5.103  1.2570 -0.5122 -1.0738
   18SAPS  C316 2385   4.222   3.869   5.246  0.3178 -0.4097 -0.5686
   18SAPS  H16X 2386   4.200   3.964   5.192 -3.8550 -0.5481  0.5795
   18SAPS  H16Y 2387   4.325   3.866   5.288  0.6123 -0.5862 -1.2765
   18SAPS  C317 2388   4.110   3.866   5.359 -0.5707 -0.1022  0.0934
   18SAPS  H17X 2389   4.112   3.769   5.413 -2.0128 -0.2309 -0.0441
   18SAPS  H17Y 2390   4.008   3.873   5.315 -0.8629  0.4858  0.8449
   18SAPS  C318 2391   4.116   3.987   5.444 -0.1280 -0.0577 -0.1792
   18SAPS  H18X 2392   4.036   3.993   5.520  2.4037  1.5611  2.5575
   18SAPS  H18Y 2393   4.115   4.078   5.379  3.7598 -0.0462 -0.4797
   18SAPS  H18Z 2394   4.215   3.990   5.494 -0.8014 -0.3880  1.2255
   19SAPS     N 2395   4.520   2.465   3.631 -0.1637  0.2308  0.6851
   19SAPS   HN1 2396   4.489   2.384   3.690  2.4281 -2.0188 -0.8049
   19SAPS   HN2 2397   4.565   2.535   3.694  0.4288 -2.2541  3.2841
   19SAPS   HN3 2398   4.436   2.496   3.578  2.4932  2.6075 -2.5604
   19SAPS   C12 2399   4.610   2.437   3.509 -0.3574 -0.5249 -0.0654
   19SAPS  H12A 2400   4.566   2.361   3.445 -1.5927  2.5335 -3.1348
   19SAPS   C13 2401   4.622   2.567   3.417  0.6364 -0.7938 -0.0998
   19SAPS  O13A 2402   4.538   2.658   3.443  0.0548  0.4953 -0.4203
   19SAPS  O13B 2403   4.665   2.558   3.297 -0.4126 -0.4184 -0.1201
   19SAPS   C11 2404   4.755   2.385   3.556  0.2445 -0.7079  0.1348
   19SAPS  H11A 2405   4.743   2.299   3.626 -0.9005  0.2561  1.1716
   19SAPS  H11B 2406   4.784   2.472   3.619 -1.3339  1.3620 -1.7992
   19SAPS     P 2407   5.000   2.334   3.470  0.2871 -0.0224  0.1877
   19SAPS   O13 2408   5.039   2.201   3.426  0.5553  0.1265 -0.2702
   19SAPS   O14 2409   5.060   2.448   3.397  0.1556 -0.1814 -0.0471
   19SAPS   O12 2410   4.840   2.360   3.446 -0.2931  0.1933  0.3107
   19SAPS   O11 2411   5.016   2.346   3.621 -0.1768  0.2756 -0.9961
   19SAPS    C1 2412   5.042   2.223   3.696 -0.4627  0.1738  0.7169
   19SAPS    HA 2413   4.981   2.137   3.660 -0.4502  0.2191  0.5846
   19SAPS    HB 2414   5.149   2.195   3.689 -0.9253 -1.5609  0.0726
   19SAPS    C2 2415   5.015   2.235   3.843 -0.0124  0.0605 -0.3788
   19SAPS    HS 2416   4.915   2.279   3.861  0.5041  1.0305  0.2390
   19SAPS   O21 2417   5.113   2.312   3.918 -0.7618  0.1788  0.0304
   19SAPS   C21 2418   5.088   2.444   3.910 -0.2195  0.1582  0.0403
   19SAPS   O22 2419   4.983   2.493   3.888 -0.5112  0.3077  0.6384
   19SAPS   C22 2420   5.207   2.521   3.970  1.2171  0.9094  0.2398
   19SAPS   H2R 2421   5.306   2.470   3.974  0.4645 -0.6339 -0.1681
   19SAPS   H2S 2422   5.214   2.612   3.906 -3.3064  1.3690  0.0753
   19SAPS    C3 2423   5.019   2.090   3.896 -0.7907  0.5541 -0.7192
   19SAPS    HX 2424   5.115   2.056   3.852  0.6173 -0.1860  2.6254
   19SAPS    HY 2425   4.933   2.035   3.853  0.1782  0.0421 -2.0539
   19SAPS   O31 2426   5.039   2.070   4.038 -0.0318  0.3655 -0.2681
   19SAPS   C31 2427   4.946   2.130   4.114  0.9480  0.7363 -0.5084
   19SAPS   O32 2428   4.845   2.180   4.072  0.1483 -0.5320  0.2707
   19SAPS   C32 2429   4.981   2.112   4.262  0.1173  0.0580 -0.0957
   19SAPS   H2X 2430   5.089   2.135   4.278  0.1882 -1.1702  1.5904
   19SAPS   H2Y 2431   4.984   2.001   4.268  3.1855 -0.0004 -0.7698
   19SAPS   C23 2432   5.179   2.567   4.114 -0.0507  0.0902 -0.0898
   19SAPS   H3R 2433   5.084   2.624   4.113  0.2152  0.5432 -0.9345
   19SAPS   H3S 2434   5.256   2.645   4.131 -0.2452  0.4800 -0.9350
   19SAPS   C24 2435   5.175   2.448   4.215  0.2210  0.1530  0.2530
   19SAPS   H4R 2436   5.272   2.393   4.214  0.0563 -0.1516  0.7461
   19SAPS   H4S 2437   5.100   2.373   4.184  0.8328 -0.4123  0.1036
   19SAPS   C25 2438   5.141   2.497   4.346  0.8339  0.5749 -0.8276
   19SAPS   H5R 2439   5.099   2.599   4.345 -0.5534  0.0423  0.1031
   19SAPS   C26 2440   5.178   2.446   4.465 -0.1698 -0.3236 -0.1705
   19SAPS   H6R 2441   5.129   2.489   4.553 -1.0548  2.6471 -1.9577
   19SAPS   C27 2442   5.244   2.313   4.488  0.1804  0.5016  1.1042
   19SAPS   H7R 2443   5.225   2.247   4.401  1.2306  2.1109 -0.4197
   19SAPS   H7S 2444   5.212   2.261   4.581  0.7400 -3.3480 -0.6955
   19SAPS   C28 2445   5.394   2.336   4.490  0.1087 -0.4116  0.3971
   19SAPS   H8R 2446   5.436   2.394   4.406  0.0049 -2.2223 -0.9834
   19SAPS   C29 2447   5.483   2.292   4.580 -0.5471 -0.0100  0.3789
   19SAPS   H9R 2448   5.582   2.335   4.554 -1.5045  0.9528 -2.0572
   19SAPS  C210 2449   5.467   2.202   4.699  0.4473 -0.0353  0.1061
   19SAPS  H10R 2450   5.569   2.160   4.715 -0.3651 -2.1986 -0.0522
   19SAPS  H10S 2451   5.394   2.124   4.671 -0.6373  0.2176  2.0089
   19SAPS  C211 2452   5.410   2.253   4.829  0.1007 -1.0668 -0.0669
   19SAPS  H11R 2453   5.320   2.316   4.819  0.3206 -0.8185 -0.5134
   19SAPS  C212 2454   5.437   2.202   4.948 -0.5594 -0.1986  0.4431
   19SAPS  H12R 2455   5.387   2.253   5.032  2.6178  1.9401  1.2097
   19SAPS  C213 2456   5.525   2.078   4.987 -0.0774  0.3195 -0.4656
   19SAPS  H13R 2457   5.623   2.081   4.935  0.4789 -1.2873  0.4432
   19SAPS  H13S 2458   5.476   1.985   4.950  1.8903 -1.3558  0.9697
   19SAPS  C214 2459   5.545   2.080   5.134  0.0818  0.1251  0.7389
   19SAPS  H14R 2460   5.643   2.119   5.163  0.4257 -0.4033  0.3014
   19SAPS  C215 2461   5.467   2.018   5.232  0.1813  0.0275  0.2725
   19SAPS  H15R 2462   5.505   2.026   5.335  0.9607  0.3175 -0.0330
   19SAPS  C216 2463   5.329   1.956   5.207  0.1561 -1.1161 -0.0035
   19SAPS  H16R 2464   5.310   1.872   5.277  0.0398 -0.6197  0.5740
   19SAPS  H16S 2465   5.318   1.909   5.107 -0.5812 -2.4526  0.6738
   19SAPS  C217 2466   5.219   2.055   5.249 -0.5290  0.2555 -0.3258
   19SAPS  H17R 2467   5.172   2.090   5.155  0.7023 -0.2448 -1.1567
   19SAPS  H17S 2468   5.256   2.142   5.309 -0.1797  0.0487 -0.2389
   19SAPS  C218 2469   5.109   2.001   5.343 -0.0919  0.3333 -0.1358
   19SAPS  H18R 2470   5.169   1.973   5.432 -0.5363  1.1364  0.4365
   19SAPS  H18S 2471   5.056   1.913   5.300  0.1309 -1.4046  2.8592
   19SAPS  C219 2472   4.994   2.105   5.367  0.1806  0.0242  0.4818
   19SAPS  H19R 2473   4.947   2.113   5.267  0.4110 -1.6533  0.2113
   19SAPS  H19S 2474   5.040   2.199   5.406 -0.9670  0.4652  0.8216
   19SAPS  C220 2475   4.897   2.043   5.474  0.0819 -0.1043  0.1398
   19SAPS  H20R 2476   4.895   1.932   5.476 -1.7188 -0.0980  0.2707
   19SAPS  H20S 2477   4.797   2.081   5.447  0.3028 -0.1425 -0.7772
   19SAPS  H20T 2478   4.931   2.085   5.571  0.8037 -0.2190 -0.0525
   19SAPS   C33 2479   4.878   2.176   4.350  0.5560 -0.6391 -0.6285
   19SAPS   H3X 2480   4.773   2.148   4.330  0.2588 -0.7032  0.8732
   19SAPS   H3Y 2481   4.883   2.287   4.341  0.1882 -0.5381  0.2947
   19SAPS   C34 2482   4.910   2.141   4.497 -0.5823  0.4797 -0.1924
   19SAPS   H4X 2483   5.021   2.144   4.510 -0.6155  1.1153 -0.0394
   19SAPS   H4Y 2484   4.891   2.032   4.508  0.1191  0.5326  1.9535
   19SAPS   C35 2485   4.860   2.229   4.608  0.5788 -0.1221 -0.2614
   19SAPS   H5X 2486   4.900   2.333   4.600 -1.9532  0.9033 -0.5097
   19SAPS   H5Y 2487   4.900   2.184   4.701  3.5671  0.5243 -1.1249
   19SAPS   C36 2488   4.703   2.225   4.617 -0.2244 -0.6757  0.1576
   19SAPS   H6X 2489   4.660   2.124   4.633 -1.3164 -0.2057  0.2568
   19SAPS   H6Y 2490   4.674   2.265   4.518  0.0101 -0.0133  0.3530
   19SAPS   C37 2491   4.646   2.319   4.729  0.1942  0.0137  0.3234
   19SAPS   H7X 2492   4.537   2.326   4.708  0.2681  0.3138  0.0170
   19SAPS   H7Y 2493   4.688   2.422   4.726 -0.1526  0.1545  0.3208
   19SAPS   C38 2494   4.653   2.263   4.872 -0.1048 -0.1721 -0.1513
   19SAPS   H8X 2495   4.759   2.236   4.893  0.2255  0.3153 -1.1429
   19SAPS   H8Y 2496   4.598   2.167   4.880  0.1985 -0.3534 -0.2212
   19SAPS   C39 2497   4.604   2.370   4.974 -0.7055  0.0462 -0.7580
   19SAPS   H9X 2498   4.496   2.390   4.956 -1.0067 -1.4540 -0.8085
   19SAPS   H9Y 2499   4.664   2.463   4.966 -1.5698  0.8273  1.1416
   19SAPS  C310 2500   4.617   2.331   5.124  0.1840  0.4182 -0.1910
   19SAPS  H10X 2501   4.722   2.299   5.141 -0.2251 -0.2641  1.2339
   19SAPS  H10Y 2502   4.561   2.240   5.154  1.0026  0.6501  2.2425
   19SAPS  C311 2503   4.592   2.445   5.227 -0.4346 -0.2068 -0.0685
   19SAPS  H11X 2504   4.595   2.384   5.320  0.4575 -2.8327 -1.7104
   19SAPS  H11Y 2505   4.499   2.505   5.222 -0.4313 -0.1426  0.5051
   19SAPS  C312 2506   4.711   2.545   5.234 -0.1204  0.3716 -0.3228
   19SAPS  H12X 2507   4.713   2.579   5.128 -1.4147 -1.6574 -1.0546
   19SAPS  H12Y 2508   4.805   2.491   5.256 -0.1686  0.9884  1.5562
   19SAPS  C313 2509   4.693   2.657   5.335  0.1859  0.3060 -0.2780
   19SAPS  H13X 2510   4.675   2.603   5.431  1.1594  0.6006  0.0788
   19SAPS  H13Y 2511   4.591   2.693   5.309 -0.2898 -1.6865 -1.3244
   19SAPS  C314 2512   4.795   2.773   5.333  0.1301 -0.3098  0.3053
   19SAPS  H14X 2513   4.794   2.822   5.233 -1.2779 -1.0811 -0.0920
   19SAPS  H14Y 2514   4.893   2.731   5.365 -0.6247 -0.9492  1.8858
   19SAPS  C315 2515   4.758   2.885   5.431  0.1828  0.0238 -0.0372
   19SAPS  H15X 2516   4.849   2.941   5.463 -0.9621  1.0221  1.6650
   19SAPS  H15Y 2517   4.712   2.826   5.513  1.2337 -0.1419  0.4482
   19SAPS  C316 2518   4.660   2.984   5.370  0.0408 -1.1367 -0.1544
   19SAPS  H16X 2519   4.558   2.940   5.362 -0.2238 -0.5955  0.1731
   19SAPS  H16Y 2520   4.697   3.019   5.272 -0.8354  0.0090 -0.1045
   19SAPS  C317 2521   4.642   3.118   5.449 -0.1254  0.5683 -0.3870
   19SAPS  H17X 2522   4.737   3.173   5.462  1.9995 -2.5759 -1.5619
   19SAPS  H17Y 2523   4.603   3.103   5.552 -0.5363  2.6511 -0.1943
   19SAPS  C318 2524   4.556   3.217   5.375  1.0388  0.0772  0.6267
   19SAPS  H18X 2525   4.547   3.313   5.430  0.5893  0.7440 -0.5732
   19SAPS  H18Y 2526   4.452   3.178   5.376  1.4635 -1.0916  0.4708
   19SAPS  H18Z 2527   4.582   3.230   5.268  0.6491  0.0092  0.5205
   20SAPS     N 2528   5.236   2.019   3.457 -0.6202  0.0027  0.1836
   20SAPS   HN1 2529   5.142   2.064   3.452 -0.3247  0.6999  0.7646
   20SAPS   HN2 2530   5.294   2.066   3.529 -2.0756 -0.0458  1.4610
   20SAPS   HN3 2531   5.289   2.040   3.371  0.4954 -1.1969  0.5437
   20SAPS   C12 2532   5.214   1.873   3.466 -0.4357  0.0971  0.5156
   20SAPS  H12A 2533   5.139   1.854   3.391 -0.1483  0.2084  0.2018
   20SAPS   C13 2534   5.336   1.787   3.440 -0.2493 -0.5197 -0.3178
   20SAPS  O13A 2535   5.450   1.845   3.437 -0.0646 -0.0240  0.1967
   20SAPS  O13B 2536   5.333   1.665   3.452 -0.3638  0.0289 -0.0835
   20SAPS   C11 2537   5.148   1.829   3.606 -0.4500 -0.5802 -0.3419
   20SAPS  H11A 2538   5.218   1.847   3.690  1.7483 -0.8388 -2.0208
   20SAPS  H11B 2539   5.140   1.719   3.616  0.9227 -0.5952  1.1470
   20SAPS     P 2540   4.888   1.832   3.593 -0.2902  0.3450 -0.1356
   20SAPS   O13 2541   4.780   1.936   3.594 -0.8198  0.2944 -0.3709
   20SAPS   O14 2542   4.911   1.764   3.464  0.4994 -0.5845  0.1238
   20SAPS   O12 2543   5.028   1.898   3.644 -0.1001 -0.2423  0.4958
   20SAPS   O11 2544   4.848   1.721   3.690  0.0730 -0.4686  0.0022
   20SAPS    C1 2545   4.902   1.706   3.824 -0.1901  0.0153 -0.3140
   20SAPS    HA 2546   4.964   1.614   3.822  0.9449  0.7488  0.2329
   20SAPS    HB 2547   4.961   1.792   3.864 -0.0766 -0.7296  1.1838
   20SAPS    C2 2548   4.791   1.713   3.929 -0.0186 -0.3669 -0.0658
   20SAPS    HS 2549   4.841   1.715   4.029  0.8995 -3.3072 -0.3856
   20SAPS   O21 2550   4.708   1.593   3.920  0.4889 -0.5031 -0.0621
   20SAPS   C21 2551   4.771   1.481   3.975  0.3932 -0.4251  0.3779
   20SAPS   O22 2552   4.881   1.488   4.028 -0.0335 -0.1426 -0.0781
   20SAPS   C22 2553   4.680   1.360   3.966 -0.5450 -0.2683  0.2861
   20SAPS   H2R 2554   4.583   1.394   4.008 -0.8033 -0.4411 -0.1681
   20SAPS   H2S 2555   4.665   1.345   3.857  0.4538  0.9137 -0.0424
   20SAPS    C3 2556   4.693   1.834   3.912 -0.7460  0.7217  0.8350
   20SAPS    HX 2557   4.637   1.822   3.817  1.0378 -0.4683 -0.1109
   20SAPS    HY 2558   4.741   1.934   3.903 -1.2668  0.7874 -2.4071
   20SAPS   O31 2559   4.600   1.834   4.019 -0.4583  0.4631 -0.4522
   20SAPS   C31 2560   4.516   1.939   4.012  0.9851  0.7908  0.7579
   20SAPS   O32 2561   4.501   2.016   3.923  0.4020 -0.1089  0.5021
   20SAPS   C32 2562   4.427   1.944   4.140 -0.5121  1.1169  0.3451
   20SAPS   H2X 2563   4.463   1.861   4.203  1.5448  1.8768  0.2420
   20SAPS   H2Y 2564   4.320   1.931   4.112 -0.6026 -2.8537  1.9523
   20SAPS   C23 2565   4.718   1.220   4.019  0.4047 -0.5782 -0.1657
   20SAPS   H3R 2566   4.726   1.228   4.129 -0.5840 -0.2692 -0.1050
   20SAPS   H3S 2567   4.811   1.185   3.970  0.5914  1.9747 -1.8086
   20SAPS   C24 2568   4.608   1.112   3.997  0.8337 -0.5758 -0.1207
   20SAPS   H4R 2569   4.627   1.027   4.066  0.1501 -0.6384 -0.0028
   20SAPS   H4S 2570   4.619   1.069   3.895  1.3953  1.7537 -1.1078
   20SAPS   C25 2571   4.466   1.157   4.014  0.1472  0.6179  0.3558
   20SAPS   H5R 2572   4.422   1.199   3.922  0.2288  0.6749  0.3430
   20SAPS   C26 2573   4.398   1.166   4.129 -0.0335  0.8996  0.2884
   20SAPS   H6R 2574   4.298   1.211   4.126  0.7133  2.6515  0.1449
   20SAPS   C27 2575   4.458   1.137   4.265  0.8282 -0.0498 -0.3650
   20SAPS   H7R 2576   4.537   1.060   4.277  0.6579 -0.1584  0.0989
   20SAPS   H7S 2577   4.373   1.089   4.318  1.4663 -1.2669 -0.4191
   20SAPS   C28 2578   4.496   1.258   4.346  0.1538 -0.5351 -1.1520
   20SAPS   H8R 2579   4.590   1.311   4.328  0.2521  0.8396  2.4680
   20SAPS   C29 2580   4.417   1.310   4.446  0.5679 -0.2806  0.3823
   20SAPS   H9R 2581   4.453   1.402   4.495 -0.7351  0.8610 -0.7387
   20SAPS  C210 2582   4.283   1.271   4.500  0.0788 -0.0408 -0.2696
   20SAPS  H10R 2583   4.295   1.200   4.585 -0.2961  0.2902  0.0681
   20SAPS  H10S 2584   4.219   1.230   4.419 -2.0516 -1.2972  1.9061
   20SAPS  C211 2585   4.192   1.376   4.561  0.0447  0.8468 -0.2416
   20SAPS  H11R 2586   4.180   1.452   4.482 -0.8438 -0.4773 -1.4369
   20SAPS  C212 2587   4.120   1.372   4.670  0.2481 -0.6269 -0.1492
   20SAPS  H12R 2588   4.058   1.460   4.695  1.1877 -0.1006  0.3902
   20SAPS  C213 2589   4.128   1.270   4.783  0.3549  0.5973  0.1495
   20SAPS  H13R 2590   4.118   1.311   4.886  1.2654  0.5776  0.2508
   20SAPS  H13S 2591   4.234   1.237   4.788  0.8532  2.2407  1.2049
   20SAPS  C214 2592   4.024   1.163   4.756  0.5470 -0.7113 -0.2372
   20SAPS  H14R 2593   4.003   1.140   4.651 -0.8792  0.6425 -0.2897
   20SAPS  C215 2594   3.958   1.087   4.844 -0.0826  0.3257  0.9805
   20SAPS  H15R 2595   3.898   1.004   4.802 -2.1918  1.8080  0.8938
   20SAPS  C216 2596   3.962   1.091   4.992 -0.0615  0.4998  0.3100
   20SAPS  H16R 2597   4.047   1.146   5.036  2.3924 -1.4567 -1.6675
   20SAPS  H16S 2598   3.971   0.990   5.038  2.6139  1.2987  1.7371
   20SAPS  C217 2599   3.843   1.165   5.045  0.8584  0.7380 -0.4916
   20SAPS  H17R 2600   3.756   1.124   4.990  3.6702  0.2303 -5.0884
   20SAPS  H17S 2601   3.854   1.272   5.016  1.6857  0.6642 -0.4796
   20SAPS  C218 2602   3.815   1.154   5.189 -0.1111  0.0520 -0.6981
   20SAPS  H18R 2603   3.898   1.206   5.242  0.7440 -1.2909 -0.6694
   20SAPS  H18S 2604   3.813   1.052   5.234 -0.2433 -0.0590 -0.9571
   20SAPS  C219 2605   3.680   1.219   5.237  0.2723 -0.3668  0.0311
   20SAPS  H19R 2606   3.584   1.164   5.223  0.2058 -0.3636  0.4390
   20SAPS  H19S 2607   3.669   1.304   5.167  2.3369 -1.2275 -1.4282
   20SAPS  C220 2608   3.687   1.263   5.383 -0.3399  0.5421 -0.7171
   20SAPS  H20R 2609   3.783   1.318   5.392  2.0704 -3.0759 -1.8999
   20SAPS  H20S 2610   3.690   1.169   5.443 -0.5979  0.5270 -0.7295
   20SAPS  H20T 2611   3.599   1.329   5.398 -1.3161 -0.0518 -3.3507
   20SAPS   C33 2612   4.439   2.078   4.217  0.3460 -0.9413 -0.0832
   20SAPS   H3X 2613   4.395   2.155   4.150 -1.4188 -0.8351  1.1381
   20SAPS   H3Y 2614   4.547   2.103   4.223 -0.1072  1.3556 -0.6956
   20SAPS   C34 2615   4.359   2.092   4.347  0.4466 -0.0469 -0.3127
   20SAPS   H4X 2616   4.260   2.044   4.332  1.4490 -2.0923 -0.7742
   20SAPS   H4Y 2617   4.355   2.197   4.381 -1.5677  0.1344 -0.9730
   20SAPS   C35 2618   4.409   2.003   4.462 -0.3718  0.0304 -0.0261
   20SAPS   H5X 2619   4.514   2.022   4.490 -0.6341  1.0465  0.2989
   20SAPS   H5Y 2620   4.392   1.895   4.442 -0.0607  0.0556 -0.4324
   20SAPS   C36 2621   4.333   2.017   4.595 -0.0559  0.3127  0.2242
   20SAPS   H6X 2622   4.227   1.994   4.572  0.0726  0.4732 -0.5799
   20SAPS   H6Y 2623   4.338   2.125   4.622 -1.5999  0.7962 -1.2192
   20SAPS   C37 2624   4.371   1.918   4.703  0.6529 -0.0735 -0.2353
   20SAPS   H7X 2625   4.478   1.943   4.719 -0.1429  2.4121  1.9112
   20SAPS   H7Y 2626   4.359   1.814   4.665  2.0195 -0.0675 -0.7739
   20SAPS   C38 2627   4.307   1.937   4.847 -1.2485  0.1593 -0.0272
   20SAPS   H8X 2628   4.197   1.926   4.838 -1.2364 -2.2142  1.7678
   20SAPS   H8Y 2629   4.339   2.041   4.873  0.3447 -0.1117 -0.8198
   20SAPS   C39 2630   4.364   1.847   4.955  1.3442  0.1741 -0.1800
   20SAPS   H9X 2631   4.333   1.886   5.054 -1.3220 -0.1760 -0.8050
   20SAPS   H9Y 2632   4.474   1.855   4.969  1.3136  0.7427 -0.2513
   20SAPS  C310 2633   4.334   1.691   4.946 -0.6953  0.1644 -0.7119
   20SAPS  H10X 2634   4.348   1.656   4.841  0.6394  0.6946 -0.7360
   20SAPS  H10Y 2635   4.226   1.678   4.968 -0.6591  3.0985  1.8581
   20SAPS  C311 2636   4.416   1.609   5.045  0.3640 -0.6569 -0.1638
   20SAPS  H11X 2637   4.392   1.647   5.147 -0.1717  0.6998 -0.7689
   20SAPS  H11Y 2638   4.522   1.621   5.014  0.0425  0.8393 -0.8112
   20SAPS  C312 2639   4.381   1.460   5.041 -0.3299  0.1747  0.0480
   20SAPS  H12X 2640   4.405   1.423   4.939  0.5496  0.3882  0.1686
   20SAPS  H12Y 2641   4.271   1.451   5.053 -0.2363 -1.5382 -0.1805
   20SAPS  C313 2642   4.456   1.384   5.151  0.3943  0.2388 -0.2419
   20SAPS  H13X 2643   4.434   1.440   5.244 -0.8512 -1.8248  0.7660
   20SAPS  H13Y 2644   4.563   1.395   5.123  0.0378 -0.2043 -1.9453
   20SAPS  C314 2645   4.430   1.241   5.185 -0.1638  0.2675  0.5970
   20SAPS  H14X 2646   4.499   1.205   5.265  1.1458  0.5991 -0.3590
   20SAPS  H14Y 2647   4.446   1.179   5.095  0.0308  2.7162 -1.1447
   20SAPS  C315 2648   4.281   1.214   5.232  0.2205  0.2081  0.3998
   20SAPS  H15X 2649   4.216   1.212   5.142  1.6828 -1.7133 -0.6843
   20SAPS  H15Y 2650   4.244   1.295   5.298  1.2309  1.0458 -0.0336
   20SAPS  C316 2651   4.288   1.081   5.304 -0.2860  0.1834 -0.1081
   20SAPS  H16X 2652   4.344   1.082   5.400 -0.5139 -0.3888  0.0352
   20SAPS  H16Y 2653   4.330   1.003   5.236  0.0220  0.9086 -0.7597
   20SAPS  C317 2654   4.148   1.042   5.351  0.8180  0.1370  0.3910
   20SAPS  H17X 2655   4.086   1.028   5.260  4.0908 -2.6740 -1.6548
   20SAPS  H17Y 2656   4.105   1.122   5.417 -0.8461 -1.4533  1.3396
   20SAPS  C318 2657   4.148   0.903   5.407  0.3759  0.2190 -0.2131
   20SAPS  H18X 2658   4.189   0.833   5.332 -0.2427  0.9659 -1.2710
   20SAPS  H18Y 2659   4.044   0.862   5.412  0.5266 -0.3789 -1.4913
   20SAPS  H18Z 2660   4.196   0.896   5.507 -0.1283 -2.8977 -0.0876
   21CHL1    C3 2661   4.791   5.079   6.942  0.1144  0.3879  0.1515
   21CHL1    H3 2662   4.863   4.995   6.949 -2.7095 -2.3113 -1.1735
   21CHL1    O3 2663   4.705   5.077   7.055  0.5585  0.1528 -0.1296
   21CHL1   H3' 2664   4.647   5.153   7.061  2.2862  1.4491  1.0304
   21CHL1    C4 2665   4.870   5.217   6.926 -0.3739 -0.2214 -0.4037
   21CHL1   H4A 2666   4.797   5.300   6.917  0.2257  0.3983  0.2979
   21CHL1   H4B 2667   4.929   5.237   7.018  0.0827  0.9706 -0.9376
   21CHL1    C5 2668   4.954   5.222   6.803  0.0971  0.1875  0.0203
   21CHL1    C6 2669   5.081   5.271   6.808 -0.0786 -0.5525  0.0224
   21CHL1    H6 2670   5.113   5.322   6.900 -1.5507  1.3475 -0.4577
   21CHL1    C7 2671   5.175   5.285   6.691 -0.3983 -0.1297 -0.5650
   21CHL1   H7A 2672   5.217   5.388   6.689  0.4369 -0.4632 -0.9059
   21CHL1   H7B 2673   5.263   5.219   6.709 -2.3700 -2.5252  0.9633
   21CHL1    C8 2674   5.103   5.263   6.558  0.7704 -0.3483 -0.1376
   21CHL1    H8 2675   5.041   5.354   6.538 -0.5947 -1.1431  0.3899
   21CHL1   C14 2676   5.197   5.243   6.437  1.2469 -0.3692  0.0549
   21CHL1   H14 2677   5.257   5.156   6.470  1.3091  0.9259  3.8633
   21CHL1   C15 2678   5.302   5.350   6.404  0.5444 -0.3846 -0.0899
   21CHL1  H15A 2679   5.257   5.449   6.429  2.7520  0.7195 -0.2593
   21CHL1  H15B 2680   5.383   5.351   6.479 -0.4691  0.9954  1.0449
   21CHL1   C16 2681   5.335   5.329   6.256 -0.2555  0.7563 -0.2362
   21CHL1  H16A 2682   5.325   5.430   6.210  0.3940  1.6657  1.5442
   21CHL1  H16B 2683   5.436   5.284   6.246  0.0021  1.5381 -1.4922
   21CHL1   C17 2684   5.232   5.220   6.202  0.6468  0.1560 -0.1949
   21CHL1   H17 2685   5.290   5.126   6.212  2.1168  1.1623  1.4120
   21CHL1   C13 2686   5.121   5.216   6.303 -0.1623 -1.4249 -0.1759
   21CHL1   C18 2687   5.028   5.339   6.270 -0.5721 -0.1386 -0.3828
   21CHL1  H18A 2688   4.973   5.326   6.174 -1.0576 -0.4660 -0.0634
   21CHL1  H18B 2689   4.952   5.346   6.350 -0.2892 -3.1242  0.2728
   21CHL1  H18C 2690   5.077   5.439   6.271 -0.4201 -0.2057 -0.6736
   21CHL1   C12 2691   5.039   5.089   6.314 -0.2761 -0.4581 -0.1580
   21CHL1  H12A 2692   4.990   5.059   6.218 -2.6312 -0.4020  0.9582
   21CHL1  H12B 2693   5.114   5.010   6.337 -0.4602 -1.0754 -1.5201
   21CHL1   C11 2694   4.935   5.097   6.433  0.8528  0.1865  0.0528
   21CHL1  H11A 2695   4.850   5.160   6.399  1.4135  0.6967 -0.4319
   21CHL1  H11B 2696   4.897   4.994   6.452 -0.5054  0.7525  0.5807
   21CHL1    C9 2697   4.996   5.145   6.565  0.3892 -0.2651 -0.9318
   21CHL1    H9 2698   5.054   5.057   6.598 -1.3277 -0.6618  1.2397
   21CHL1   C10 2699   4.887   5.168   6.675 -0.0818 -0.0524  0.1101
   21CHL1   C19 2700   4.797   5.283   6.625 -0.1582  0.5048 -0.5203
   21CHL1  H19A 2701   4.857   5.367   6.584  0.9558 -1.2875 -2.7569
   21CHL1  H19B 2702   4.729   5.251   6.543  0.8029 -1.4263 -0.6162
   21CHL1  H19C 2703   4.725   5.334   6.693 -0.5697  0.6236 -1.0422
   21CHL1    C1 2704   4.803   5.040   6.692  0.1483  0.1807 -0.2070
   21CHL1   H1A 2705   4.738   5.034   6.602 -1.1442  0.4471  0.6799
   21CHL1   H1B 2706   4.871   4.953   6.702  0.7190  0.6058 -0.3390
   21CHL1    C2 2707   4.711   5.048   6.813 -0.2532  0.0602  0.9267
   21CHL1   H2A 2708   4.667   4.948   6.836 -1.0641  0.4153  0.9454
   21CHL1   H2B 2709   4.623   5.114   6.802 -1.1689 -1.1775  0.5709
   21CHL1   C20 2710   5.205   5.232   6.050  0.7139  0.2550  0.0962
   21CHL1   H20 2711   5.167   5.335   6.029 -0.7028 -0.2391  0.1406
   21CHL1   C21 2712   5.112   5.117   6.000 -0.3433 -0.9153  0.0741
   21CHL1  H21A 2713   5.099   5.115   5.890  2.0679  0.4332 -0.3026
   21CHL1  H21B 2714   5.011   5.138   6.041 -0.4781 -0.5940 -0.4264
   21CHL1  H21C 2715   5.157   5.025   6.042 -0.1081 -0.1951  1.4531
   21CHL1   C22 2716   5.342   5.221   5.975  0.1643 -0.1568  0.6824
   21CHL1  H22A 2717   5.409   5.301   6.014  0.9975  0.7135 -2.2896
   21CHL1  H22B 2718   5.386   5.120   5.992 -0.8227 -0.5321  1.0821
   21CHL1   C23 2719   5.328   5.269   5.830 -0.7211  0.2131  0.1838
   21CHL1  H23A 2720   5.246   5.213   5.779 -0.8348 -0.5430  1.1563
   21CHL1  H23B 2721   5.307   5.378   5.824  1.9435  0.7460 -0.5471
   21CHL1   C24 2722   5.453   5.233   5.750 -0.2814  0.3517 -0.2036
   21CHL1  H24A 2723   5.541   5.280   5.799 -1.5762  1.2258  1.3878
   21CHL1  H24B 2724   5.461   5.122   5.750 -1.2611  0.2673 -0.7193
   21CHL1   C25 2725   5.454   5.272   5.601  0.1535 -0.3433  0.6470
   21CHL1   H25 2726   5.409   5.373   5.611  0.2062 -0.4185  1.7314
   21CHL1   C26 2727   5.591   5.289   5.535 -0.0601  0.5685 -0.1043
   21CHL1  H26A 2728   5.594   5.321   5.429  4.5057 -1.7893 -0.9401
   21CHL1  H26B 2729   5.657   5.351   5.599  0.4419 -1.3493  1.3449
   21CHL1  H26C 2730   5.626   5.184   5.529 -0.8540  0.3617 -1.5182
   21CHL1   C27 2731   5.364   5.180   5.513 -0.5080 -0.0701 -0.9870
   21CHL1  H27A 2732   5.389   5.074   5.532  1.2321  0.3786 -0.5748
   21CHL1  H27B 2733   5.260   5.203   5.545 -0.0080  0.6308  0.2014
   21CHL1  H27C 2734   5.375   5.201   5.404 -0.1572  0.2952 -0.8847
   22CHL1    C3 2735   4.068   4.493   6.987  0.3787  0.2417 -0.9181
   22CHL1    H3 2736   4.178   4.479   6.998  0.0724 -3.4732 -1.3053
   22CHL1    O3 2737   4.014   4.514   7.116 -0.4352  0.1511  0.6976
   22CHL1   H3' 2738   4.067   4.589   7.144 -0.5597  1.9704 -3.2366
   22CHL1    C4 2739   4.032   4.615   6.902  0.0947  0.1646 -0.7878
   22CHL1   H4A 2740   3.922   4.613   6.919  0.0719 -2.0116 -0.9882
   22CHL1   H4B 2741   4.085   4.702   6.947  0.7378 -0.2542 -0.7279
   22CHL1    C5 2742   4.072   4.592   6.754 -0.1981  0.1547  0.3013
   22CHL1    C6 2743   4.136   4.692   6.691 -0.4148  0.0581 -0.9146
   22CHL1    H6 2744   4.154   4.786   6.745  2.1222 -0.7556 -0.2347
   22CHL1    C7 2745   4.169   4.685   6.547  0.4235  0.1739  0.1799
   22CHL1   H7A 2746   4.130   4.772   6.490 -1.1751  0.2295  1.3311
   22CHL1   H7B 2747   4.279   4.681   6.527  0.4474  1.3828 -0.0341
   22CHL1    C8 2748   4.117   4.559   6.466 -0.1626 -0.2780 -0.0349
   22CHL1    H8 2749   4.017   4.586   6.427 -0.7623 -1.2127  0.8116
   22CHL1   C14 2750   4.197   4.541   6.335  0.3867 -0.4559 -0.6764
   22CHL1   H14 2751   4.301   4.520   6.370 -0.4617 -0.6848  1.9358
   22CHL1   C15 2752   4.217   4.659   6.238 -0.1821  0.2717 -0.3524
   22CHL1  H15A 2753   4.118   4.707   6.227 -1.0517 -1.5124 -0.7644
   22CHL1  H15B 2754   4.288   4.737   6.273 -0.6142  0.2548  0.6035
   22CHL1   C16 2755   4.250   4.585   6.101 -0.7268  0.1740 -0.3764
   22CHL1  H16A 2756   4.180   4.613   6.020 -0.7573 -1.1450 -0.8321
   22CHL1  H16B 2757   4.352   4.619   6.075 -0.9264  1.8966  0.8791
   22CHL1   C17 2758   4.242   4.429   6.130  0.2741  0.0003 -0.8522
   22CHL1   H17 2759   4.346   4.398   6.152  1.2219  2.9650 -0.7336
   22CHL1   C13 2760   4.153   4.420   6.255 -0.3623 -0.0380  0.1933
   22CHL1   C18 2761   4.008   4.438   6.202 -0.2604  0.0377  0.2039
   22CHL1  H18A 2762   3.985   4.332   6.176  1.9890 -1.1149  2.4608
   22CHL1  H18B 2763   3.940   4.475   6.282 -0.7255 -0.6691  0.1503
   22CHL1  H18C 2764   4.008   4.511   6.118 -0.7103 -0.7796 -0.5300
   22CHL1   C12 2765   4.179   4.304   6.353  0.6629 -0.4149 -0.0948
   22CHL1  H12A 2766   4.167   4.206   6.304 -0.2662 -0.5351  0.3428
   22CHL1  H12B 2767   4.281   4.306   6.396  1.1703 -0.7274 -1.2615
   22CHL1   C11 2768   4.078   4.310   6.469 -0.4665  0.7111 -0.0670
   22CHL1  H11A 2769   3.978   4.328   6.424  0.5646  2.4102 -1.8487
   22CHL1  H11B 2770   4.090   4.216   6.528  1.1503  0.7147 -0.3593
   22CHL1    C9 2771   4.117   4.439   6.554  0.1337  0.4315  0.2643
   22CHL1    H9 2772   4.220   4.432   6.596 -0.9484 -0.5794  2.9134
   22CHL1   C10 2773   4.038   4.456   6.688 -0.8887 -0.1637 -0.4095
   22CHL1   C19 2774   3.888   4.462   6.653  0.1926  1.2071 -0.5979
   22CHL1  H19A 2775   3.835   4.514   6.735  1.1429  0.2861  0.6385
   22CHL1  H19B 2776   3.878   4.528   6.564  0.9222  3.4598  0.8978
   22CHL1  H19C 2777   3.843   4.361   6.643  1.1706  0.4974  1.5272
   22CHL1    C1 2778   4.083   4.345   6.782 -0.5163 -0.0277 -0.2604
   22CHL1   H1A 2779   4.052   4.243   6.749  0.1399 -0.3147 -0.0133
   22CHL1   H1B 2780   4.193   4.337   6.770 -0.6995 -1.6603 -1.3311
   22CHL1    C2 2781   4.021   4.360   6.921  0.2504  0.2007 -0.2682
   22CHL1   H2A 2782   4.069   4.276   6.976  1.6618  1.4779  0.5455
   22CHL1   H2B 2783   3.911   4.351   6.918  0.2772 -0.7502  0.8519
   22CHL1   C20 2784   4.207   4.353   5.999 -0.3317  0.4573  0.2986
   22CHL1   H20 2785   4.105   4.365   5.957 -0.5498  1.1406  1.0093
   22CHL1   C21 2786   4.232   4.197   6.028 -0.4695 -0.5388 -0.2449
   22CHL1  H21A 2787   4.156   4.168   6.104 -1.6343 -0.7607 -1.4641
   22CHL1  H21B 2788   4.330   4.189   6.079  0.4714  1.4965 -1.6078
   22CHL1  H21C 2789   4.223   4.137   5.935 -0.6698  0.6493 -1.0048
   22CHL1   C22 2790   4.295   4.394   5.878 -0.2320  0.2246 -0.3777
   22CHL1  H22A 2791   4.315   4.501   5.858 -0.4262  0.2393 -0.4965
   22CHL1  H22B 2792   4.399   4.365   5.904 -1.0759 -1.2092  1.6730
   22CHL1   C23 2793   4.255   4.342   5.742  0.0948  0.3288  0.4021
   22CHL1  H23A 2794   4.269   4.233   5.726  0.8183  0.1427  2.0508
   22CHL1  H23B 2795   4.144   4.352   5.738 -0.0936 -0.3667  2.6460
   22CHL1   C24 2796   4.320   4.426   5.625  0.1312  0.2037 -0.0628
   22CHL1  H24A 2797   4.283   4.530   5.637 -4.0713 -1.1561  0.5316
   22CHL1  H24B 2798   4.429   4.431   5.643 -0.2685 -1.0966  3.5709
   22CHL1   C25 2799   4.296   4.377   5.483  0.5672 -0.6205 -0.2205
   22CHL1   H25 2800   4.329   4.455   5.411  2.7158  1.4563  2.7977
   22CHL1   C26 2801   4.373   4.250   5.450  0.4684  0.5203  0.4695
   22CHL1  H26A 2802   4.481   4.257   5.423  0.2657 -0.4508 -0.7247
   22CHL1  H26B 2803   4.368   4.184   5.540 -0.0552  0.5553  0.4704
   22CHL1  H26C 2804   4.324   4.194   5.367  0.4620  1.1632  0.0381
   22CHL1   C27 2805   4.143   4.354   5.460  0.2088  0.4104  0.4807
   22CHL1  H27A 2806   4.095   4.278   5.525 -0.7932 -0.3896 -1.1258
   22CHL1  H27B 2807   4.081   4.446   5.465  1.2119  1.3196 -2.0638
   22CHL1  H27C 2808   4.129   4.317   5.356 -1.1917  1.6850  0.1856
   23CHL1    C3 2809   2.332   3.479   6.824 -0.0655  0.0493  0.3016
   23CHL1    H3 2810   2.222   3.491   6.809 -0.7402  1.1421  4.6206
   23CHL1    O3 2811   2.342   3.442   6.957 -0.1690  0.2832 -0.4241
   23CHL1   H3' 2812   2.298   3.513   7.005  2.4497  0.9643  1.1933
   23CHL1    C4 2813   2.389   3.362   6.743  0.7810  0.5204  0.3186
   23CHL1   H4A 2814   2.490   3.342   6.783  1.3495  0.1031 -1.2623
   23CHL1   H4B 2815   2.325   3.273   6.763  0.6658  0.0896 -1.7936
   23CHL1    C5 2816   2.397   3.385   6.597 -0.0841 -0.0939 -0.2624
   23CHL1    C6 2817   2.343   3.304   6.507  0.3451 -0.0354 -0.1669
   23CHL1    H6 2818   2.299   3.211   6.547 -0.0636 -0.0580 -0.6514
   23CHL1    C7 2819   2.346   3.321   6.358 -0.1438  0.2231 -0.4543
   23CHL1   H7A 2820   2.374   3.228   6.304 -1.1858  0.0267 -0.6778
   23CHL1   H7B 2821   2.240   3.348   6.337 -0.2186  0.5924  0.3451
   23CHL1    C8 2822   2.434   3.437   6.310  0.1252  0.0215 -0.0571
   23CHL1    H8 2823   2.539   3.402   6.304  0.4545  1.1444 -1.2455
   23CHL1   C14 2824   2.400   3.479   6.169 -0.0536 -0.1871  0.5845
   23CHL1   H14 2825   2.301   3.529   6.178  0.7679  1.4481  0.8641
   23CHL1   C15 2826   2.385   3.371   6.053 -0.1542  0.1567  0.1961
   23CHL1  H15A 2827   2.469   3.300   6.063 -0.7475 -0.6150 -0.2100
   23CHL1  H15B 2828   2.287   3.319   6.066 -0.1178  0.1502  0.4577
   23CHL1   C16 2829   2.397   3.450   5.928 -0.3115  0.9864  0.1399
   23CHL1  H16A 2830   2.479   3.412   5.863 -1.5454 -1.6981  0.0225
   23CHL1  H16B 2831   2.305   3.427   5.870  1.2704 -0.8727 -1.8370
   23CHL1   C17 2832   2.416   3.596   5.965  0.0870  0.2567 -0.0461
   23CHL1   H17 2833   2.314   3.641   5.974  0.2665  1.0109 -1.5177
   23CHL1   C13 2834   2.478   3.596   6.107  0.0593 -0.1461 -0.0421
   23CHL1   C18 2835   2.630   3.564   6.091  0.3000  0.0775  0.1317
   23CHL1  H18A 2836   2.677   3.660   6.059  1.0015 -0.0626  0.7089
   23CHL1  H18B 2837   2.668   3.535   6.191  0.3410  0.7031  0.3063
   23CHL1  H18C 2838   2.658   3.485   6.018 -0.3694 -0.0670  0.0283
   23CHL1   C12 2839   2.452   3.720   6.207 -0.2748  0.2428 -0.2106
   23CHL1  H12A 2840   2.505   3.812   6.175  1.7123 -0.3569  1.2023
   23CHL1  H12B 2841   2.343   3.740   6.217 -0.7565 -1.4160 -1.5499
   23CHL1   C11 2842   2.500   3.687   6.346 -0.2172 -0.2379 -0.2087
   23CHL1  H11A 2843   2.611   3.676   6.345 -0.2252 -0.4989 -1.8658
   23CHL1  H11B 2844   2.478   3.771   6.415  2.4758  1.5297 -1.3431
   23CHL1    C9 2845   2.423   3.560   6.399 -0.6557 -0.1200  0.2643
   23CHL1    H9 2846   2.316   3.587   6.386 -1.3536 -2.6474  0.2006
   23CHL1   C10 2847   2.447   3.528   6.547 -0.6801  0.6193 -0.2010
   23CHL1   C19 2848   2.597   3.524   6.571 -0.0161  0.5181  0.2252
   23CHL1  H19A 2849   2.645   3.459   6.495  0.9566  3.2769 -1.6699
   23CHL1  H19B 2850   2.649   3.622   6.561  1.9110 -0.4430  0.5553
   23CHL1  H19C 2851   2.612   3.486   6.674 -2.2029 -0.7641  0.1418
   23CHL1    C1 2852   2.391   3.641   6.637  0.7789  0.7439 -0.0246
   23CHL1   H1A 2853   2.436   3.741   6.622 -1.7288  1.9419 -0.0578
   23CHL1   H1B 2854   2.288   3.661   6.601  0.3581 -2.0939 -0.6815
   23CHL1    C2 2855   2.401   3.609   6.787 -0.3330 -0.2614  0.5338
   23CHL1   H2A 2856   2.349   3.691   6.841 -0.4998 -1.0063  1.5389
   23CHL1   H2B 2857   2.503   3.620   6.831 -0.8670  0.7655  1.5824
   23CHL1   C20 2858   2.481   3.685   5.852 -0.2255 -0.1935  0.0116
   23CHL1   H20 2859   2.585   3.649   5.835  0.6408  2.5014 -0.8185
   23CHL1   C21 2860   2.490   3.830   5.897 -0.4123 -0.6941  0.3287
   23CHL1  H21A 2861   2.552   3.868   5.813 -0.0343 -0.4704  0.7093
   23CHL1  H21B 2862   2.547   3.833   5.992 -3.2304 -1.4863  2.1842
   23CHL1  H21C 2863   2.391   3.879   5.907  0.0898  0.0393  1.8942
   23CHL1   C22 2864   2.406   3.675   5.716  0.0556 -0.0174 -0.3371
   23CHL1  H22A 2865   2.388   3.566   5.701  0.4630 -0.0537 -0.5797
   23CHL1  H22B 2866   2.306   3.719   5.733  0.3436  1.1750 -1.5790
   23CHL1   C23 2867   2.478   3.730   5.598 -0.4967 -0.2386 -0.3067
   23CHL1  H23A 2868   2.512   3.832   5.622 -0.5588 -0.6438  1.6511
   23CHL1  H23B 2869   2.573   3.674   5.583 -0.8332 -0.2802 -2.6332
   23CHL1   C24 2870   2.403   3.741   5.458 -0.2249  0.3052 -0.1051
   23CHL1  H24A 2871   2.370   3.640   5.427  1.7384 -0.5360  0.3819
   23CHL1  H24B 2872   2.315   3.808   5.472  1.7573  2.8723  1.0312
   23CHL1   C25 2873   2.479   3.806   5.337  0.1204  0.4923 -1.0306
   23CHL1   H25 2874   2.528   3.900   5.369  2.9429 -0.2778 -2.7279
   23CHL1   C26 2875   2.597   3.718   5.292  0.0149 -1.1259  0.1648
   23CHL1  H26A 2876   2.670   3.778   5.235 -0.2221 -0.6704  0.3385
   23CHL1  H26B 2877   2.646   3.683   5.386  0.3629  0.4698  0.6128
   23CHL1  H26C 2878   2.556   3.631   5.236  0.0073 -1.0723  0.0894
   23CHL1   C27 2879   2.390   3.827   5.219 -0.2747 -0.3489  0.2684
   23CHL1  H27A 2880   2.321   3.898   5.270  2.0127 -0.4719  3.8603
   23CHL1  H27B 2881   2.446   3.872   5.134 -0.9447 -0.4021 -0.2171
   23CHL1  H27C 2882   2.341   3.739   5.170 -2.6141 -0.5463  2.7416
   24CHL1    C3 2883   5.366   4.238   6.916  0.0152 -0.0640 -0.3816
   24CHL1    H3 2884   5.379   4.348   6.915  0.2943 -0.0462  1.4560
   24CHL1    O3 2885   5.343   4.221   7.051  0.4188  0.9583  0.0438
   24CHL1   H3' 2886   5.373   4.130   7.059  0.7576  0.7124 -2.9048
   24CHL1    C4 2887   5.242   4.203   6.839 -0.4467 -0.2430 -0.2787
   24CHL1   H4A 2888   5.212   4.103   6.877 -0.9628 -0.0378 -0.1448
   24CHL1   H4B 2889   5.160   4.272   6.869  1.3427  1.4686  0.9466
   24CHL1    C5 2890   5.257   4.197   6.694 -0.0346 -0.3832  0.4958
   24CHL1    C6 2891   5.164   4.274   6.620 -0.4859 -0.6730 -0.1279
   24CHL1    H6 2892   5.079   4.328   6.664 -1.2737 -0.3212 -1.9656
   24CHL1    C7 2893   5.168   4.281   6.472  0.1371 -0.1226  0.1352
   24CHL1   H7A 2894   5.069   4.271   6.423  0.7834  0.8076 -1.4290
   24CHL1   H7B 2895   5.222   4.371   6.437  0.3200  0.0942  0.9511
   24CHL1    C8 2896   5.258   4.167   6.413 -0.2275  0.6954  0.0349
   24CHL1    H8 2897   5.195   4.075   6.421  0.8629 -0.1063 -0.3820
   24CHL1   C14 2898   5.286   4.205   6.271  0.0608  0.2693  0.7125
   24CHL1   H14 2899   5.330   4.307   6.274 -0.9438  0.7896 -0.9689
   24CHL1   C15 2900   5.164   4.226   6.173 -0.1414  0.5426 -0.7724
   24CHL1  H15A 2901   5.094   4.142   6.190  3.6652 -2.2896  2.9277
   24CHL1  H15B 2902   5.116   4.326   6.188  0.9688  0.6027  3.7730
   24CHL1   C16 2903   5.228   4.213   6.035  0.0564  0.0236 -0.5015
   24CHL1  H16A 2904   5.169   4.132   5.987 -0.8758  1.4388 -1.8436
   24CHL1  H16B 2905   5.211   4.307   5.979 -0.6532  0.8931  1.0989
   24CHL1   C17 2906   5.375   4.163   6.056  0.4200  0.2543  0.0428
   24CHL1   H17 2907   5.439   4.253   6.048  0.6606 -0.0323 -1.6771
   24CHL1   C13 2908   5.377   4.106   6.198 -0.7351  0.2751 -0.2519
   24CHL1   C18 2909   5.311   3.967   6.188  0.8271  0.6305  0.5372
   24CHL1  H18A 2910   5.269   3.937   6.287 -2.0111  0.0338 -0.7303
   24CHL1  H18B 2911   5.230   3.973   6.113  1.8301  0.4575 -0.5821
   24CHL1  H18C 2912   5.387   3.890   6.165 -0.0084 -0.3932  1.1108
   24CHL1   C12 2913   5.519   4.102   6.267  0.2909 -0.6330 -0.3742
   24CHL1  H12A 2914   5.580   4.019   6.225  1.9162  0.2460  0.1735
   24CHL1  H12B 2915   5.567   4.200   6.248 -2.5084  0.6873 -1.2840
   24CHL1   C11 2916   5.495   4.074   6.414 -0.8813 -0.3856 -0.7936
   24CHL1  H11A 2917   5.459   3.970   6.429 -3.5867  0.7459  1.3561
   24CHL1  H11B 2918   5.584   4.089   6.479 -1.5581  0.2789 -0.0077
   24CHL1    C9 2919   5.394   4.161   6.490  0.1969  0.3784  0.2075
   24CHL1    H9 2920   5.430   4.265   6.483  0.0252  0.3601 -1.2423
   24CHL1   C10 2921   5.384   4.125   6.641 -0.5818 -0.2743  0.0013
   24CHL1   C19 2922   5.359   3.968   6.656  0.0047  0.0297 -0.0715
   24CHL1  H19A 2923   5.433   3.904   6.603 -2.2776 -1.4473 -1.7371
   24CHL1  H19B 2924   5.345   3.952   6.765  1.1414  0.7573  0.1932
   24CHL1  H19C 2925   5.258   3.942   6.617 -0.0482 -0.1075  0.1568
   24CHL1    C1 2926   5.507   4.165   6.720 -0.4346  0.2222 -0.2132
   24CHL1   H1A 2927   5.605   4.116   6.699  0.5959  2.2761 -0.4475
   24CHL1   H1B 2928   5.525   4.272   6.698 -1.9078  0.5907  0.2749
   24CHL1    C2 2929   5.492   4.157   6.874 -0.0437  0.4389  0.0923
   24CHL1   H2A 2930   5.578   4.196   6.932  2.1965 -1.9583 -1.4161
   24CHL1   H2B 2931   5.492   4.049   6.898 -1.4188  0.8383  2.1368
   24CHL1   C20 2932   5.420   4.075   5.934  0.3682 -0.8598 -0.1566
   24CHL1   H20 2933   5.349   3.990   5.922 -0.4798 -0.1134 -0.5682
   24CHL1   C21 2934   5.566   4.028   5.939  0.1904  0.6563  0.3682
   24CHL1  H21A 2935   5.631   4.111   5.975  1.6045 -0.1943 -0.1551
   24CHL1  H21B 2936   5.607   3.996   5.841  0.1550 -0.8476  0.8256
   24CHL1  H21C 2937   5.574   3.942   6.008  0.2918  0.5080  0.1719
   24CHL1   C22 2938   5.402   4.141   5.787 -0.1090 -0.3344 -0.2698
   24CHL1  H22A 2939   5.442   4.061   5.721 -0.4199 -3.0611  2.5691
   24CHL1  H22B 2940   5.295   4.149   5.757 -0.5116 -0.9232  0.9244
   24CHL1   C23 2941   5.476   4.269   5.766  0.1119  0.2569 -0.1638
   24CHL1  H23A 2942   5.428   4.341   5.836  1.6528  0.0523  1.1722
   24CHL1  H23B 2943   5.581   4.262   5.800 -0.1306 -1.3133  0.3672
   24CHL1   C24 2944   5.461   4.334   5.622  0.0280 -0.7869 -0.6071
   24CHL1  H24A 2945   5.352   4.336   5.601 -0.4131 -2.3994  1.2725
   24CHL1  H24B 2946   5.508   4.435   5.620  2.0866 -1.6769 -0.1565
   24CHL1   C25 2947   5.530   4.255   5.511  0.2835  0.0707  0.1731
   24CHL1   H25 2948   5.494   4.150   5.514  0.7506 -0.0783  1.5913
   24CHL1   C26 2949   5.476   4.296   5.375 -0.7775  0.2398 -0.1586
   24CHL1  H26A 2950   5.367   4.272   5.371 -1.1941  1.8567  0.7086
   24CHL1  H26B 2951   5.484   4.406   5.375 -0.6918  0.2585  1.3443
   24CHL1  H26C 2952   5.522   4.253   5.284 -0.4322  1.0950 -0.3922
   24CHL1   C27 2953   5.679   4.248   5.525 -0.0774 -0.1861  0.1774
   24CHL1  H27A 2954   5.695   4.160   5.592  0.9966 -0.8722 -0.9228
   24CHL1  H27B 2955   5.727   4.222   5.428  0.7861 -1.7653  0.9969
   24CHL1  H27C 2956   5.726   4.343   5.559  0.2080 -0.5541  0.8470
   25CHL1    C3 2957   0.261   0.588   6.813  0.5831  0.8329  0.4264
   25CHL1    H3 2958   0.162   0.633   6.789  0.1183  0.2616  1.2214
   25CHL1    O3 2959   0.308   0.614   6.937  0.0289  0.2440 -0.7859
   25CHL1   H3' 2960   0.379   0.552   6.953 -0.0486  0.2092 -0.5671
   25CHL1    C4 2961   0.243   0.435   6.788 -0.1655  0.8721 -0.0643
   25CHL1   H4A 2962   0.326   0.369   6.821 -1.6692 -0.4782  1.1320
   25CHL1   H4B 2963   0.158   0.405   6.852 -0.2309  0.5267 -0.3091
   25CHL1    C5 2964   0.219   0.399   6.641 -0.3599 -0.7523 -0.8588
   25CHL1    C6 2965   0.111   0.336   6.610 -0.3859 -0.1272  0.0800
   25CHL1    H6 2966   0.047   0.310   6.696  0.3014 -2.0896  0.0406
   25CHL1    C7 2967   0.081   0.283   6.475 -0.1773  0.5511  0.6622
   25CHL1   H7A 2968   0.050   0.176   6.466  0.5280  0.4330 -0.5261
   25CHL1   H7B 2969  -0.001   0.339   6.426 -1.0561 -1.2315 -0.0164
   25CHL1    C8 2970   0.199   0.297   6.375  0.8192  0.4439  0.1465
   25CHL1    H8 2971   0.269   0.211   6.385  0.1975  0.0491  1.3214
   25CHL1   C14 2972   0.159   0.295   6.227  0.0407 -0.4947 -0.1795
   25CHL1   H14 2973   0.098   0.386   6.208 -0.4577 -0.7205  0.3212
   25CHL1   C15 2974   0.069   0.175   6.191 -0.1321  0.6182  0.2222
   25CHL1  H15A 2975   0.116   0.086   6.238 -2.8678 -0.1692  1.6582
   25CHL1  H15B 2976  -0.034   0.178   6.232 -0.3504  3.5084 -0.2855
   25CHL1   C16 2977   0.072   0.177   6.041 -0.2685  0.0255  0.0488
   25CHL1  H16A 2978   0.097   0.072   6.015 -1.0390 -0.5437  1.4855
   25CHL1  H16B 2979  -0.023   0.209   5.993  0.0564  2.1717  0.7347
   25CHL1   C17 2980   0.187   0.279   5.999 -0.1555 -0.0347 -0.0272
   25CHL1   H17 2981   0.131   0.374   5.994  0.1962  0.1377 -0.7511
   25CHL1   C13 2982   0.271   0.302   6.123 -0.4142  0.7163 -0.0974
   25CHL1   C18 2983   0.376   0.184   6.131  0.3007 -0.2171 -0.0746
   25CHL1  H18A 2984   0.329   0.093   6.089 -1.6372 -0.0716  1.6209
   25CHL1  H18B 2985   0.465   0.204   6.068  0.2225  0.7397  0.1032
   25CHL1  H18C 2986   0.402   0.165   6.238 -1.1999  1.9912  0.7457
   25CHL1   C12 2987   0.342   0.439   6.145 -0.5112 -0.0918 -0.0721
   25CHL1  H12A 2988   0.437   0.430   6.089  1.2604  0.9265  2.6007
   25CHL1  H12B 2989   0.276   0.521   6.108  0.4388  0.2702 -1.0167
   25CHL1   C11 2990   0.387   0.454   6.296 -0.6124  0.3151  0.5919
   25CHL1  H11A 2991   0.474   0.386   6.311 -0.2154  0.4012 -1.1255
   25CHL1  H11B 2992   0.413   0.562   6.305  0.5214  0.1757 -0.6108
   25CHL1    C9 2993   0.277   0.423   6.400  0.0383 -0.5758 -0.3198
   25CHL1    H9 2994   0.195   0.496   6.384 -0.8868 -1.8036 -1.3819
   25CHL1   C10 2995   0.322   0.445   6.539  0.3797 -1.0654 -0.3531
   25CHL1   C19 2996   0.459   0.370   6.574 -0.5823  0.1309 -0.2052
   25CHL1  H19A 2997   0.447   0.260   6.576  1.9447 -0.2062 -0.0400
   25CHL1  H19B 2998   0.540   0.408   6.508 -0.1363 -0.4856 -0.0180
   25CHL1  H19C 2999   0.488   0.394   6.679  2.6332 -1.2079 -0.6716
   25CHL1    C1 3000   0.348   0.601   6.563  0.5559 -0.8777 -0.0236
   25CHL1   H1A 3001   0.442   0.623   6.508  1.1698  2.1390  1.9732
   25CHL1   H1B 3002   0.270   0.663   6.514 -0.5235 -1.1541  1.2870
   25CHL1    C2 3003   0.371   0.637   6.711  0.0889 -0.1619  0.3617
   25CHL1   H2A 3004   0.392   0.746   6.721  2.0712 -0.5292  0.6735
   25CHL1   H2B 3005   0.470   0.604   6.751  0.1336  0.3335  0.6699
   25CHL1   C20 3006   0.252   0.262   5.867  1.1889  0.1249 -0.1305
   25CHL1   H20 3007   0.355   0.223   5.881  1.0606  0.2329  1.2271
   25CHL1   C21 3008   0.258   0.404   5.806 -0.6863 -0.0167 -0.3156
   25CHL1  H21A 3009   0.315   0.473   5.872  2.1365 -0.1608 -2.4459
   25CHL1  H21B 3010   0.156   0.443   5.783 -0.5870  0.3467 -0.1569
   25CHL1  H21C 3011   0.311   0.399   5.709 -1.2610 -0.4364 -0.6147
   25CHL1   C22 3012   0.175   0.167   5.766  0.0071 -0.5794 -0.1676
   25CHL1  H22A 3013   0.154   0.066   5.808 -2.0390  0.1703  0.7342
   25CHL1  H22B 3014   0.076   0.214   5.753  1.4487  2.7576  0.0338
   25CHL1   C23 3015   0.232   0.164   5.633 -0.7089  0.4346  0.4629
   25CHL1  H23A 3016   0.250   0.266   5.592  3.2492 -0.1729  0.3248
   25CHL1  H23B 3017   0.333   0.119   5.638 -0.9321 -0.2611 -0.9233
   25CHL1   C24 3018   0.148   0.082   5.538  0.1982  1.0740 -0.8191
   25CHL1  H24A 3019   0.101   0.000   5.597  0.9145  0.9489 -0.4136
   25CHL1  H24B 3020   0.060   0.137   5.497 -0.0426  0.0908 -1.6986
   25CHL1   C25 3021   0.222   0.011   5.423 -0.1142 -1.0547 -1.1534
   25CHL1   H25 3022   0.304  -0.054   5.461 -0.3423 -0.9809 -0.5196
   25CHL1   C26 3023   0.126  -0.075   5.333 -0.2818 -0.1558 -0.7743
   25CHL1  H26A 3024   0.037  -0.017   5.301  0.4615  1.1723 -0.5395
   25CHL1  H26B 3025   0.178  -0.119   5.246 -0.2102  1.0899 -1.3861
   25CHL1  H26C 3026   0.085  -0.158   5.393 -2.6308 -0.5995 -2.8192
   25CHL1   C27 3027   0.305   0.114   5.342  0.2875 -1.0043 -0.0535
   25CHL1  H27A 3028   0.328   0.071   5.242 -0.5464 -1.4598 -0.0605
   25CHL1  H27B 3029   0.249   0.208   5.324  0.4861 -1.1429 -1.5519
   25CHL1  H27C 3030   0.400   0.131   5.396  1.6955 -0.7466 -2.4417
   26CHL1    C3 3031   4.641   4.342   7.100  0.8141 -0.6038 -0.2889
   26CHL1    H3 3032   4.713   4.413   7.147 -0.3798 -1.7856  3.7468
   26CHL1    O3 3033   4.579   4.268   7.209  0.1166 -0.2825 -0.4052
   26CHL1   H3' 3034   4.513   4.208   7.174 -0.1011  0.1886 -0.8034
   26CHL1    C4 3035   4.525   4.406   7.022 -0.9449 -1.0768  0.1521
   26CHL1   H4A 3036   4.453   4.326   6.997  0.5839 -3.0087  1.6006
   26CHL1   H4B 3037   4.483   4.487   7.086 -1.1899 -2.0883  1.3075
   26CHL1    C5 3038   4.551   4.474   6.892  0.0612 -0.0977  0.3080
   26CHL1    C6 3039   4.515   4.595   6.863  1.6265 -0.2542  0.5161
   26CHL1    H6 3040   4.449   4.650   6.932 -0.0946 -1.4677 -0.0756
   26CHL1    C7 3041   4.533   4.669   6.737 -0.3231  0.0395  0.8062
   26CHL1   H7A 3042   4.438   4.713   6.699  0.2643  0.0081 -0.7715
   26CHL1   H7B 3043   4.601   4.757   6.745 -1.6733  1.3519 -1.2874
   26CHL1    C8 3044   4.586   4.576   6.624 -0.3082 -0.1766 -0.3406
   26CHL1    H8 3045   4.509   4.515   6.573  1.7588 -1.3676 -2.2210
   26CHL1   C14 3046   4.659   4.660   6.515  0.4538  0.0246  0.2146
   26CHL1   H14 3047   4.753   4.703   6.557  1.4766  0.0008 -1.9118
   26CHL1   C15 3048   4.584   4.775   6.459 -0.6541 -0.3238 -0.2484
   26CHL1  H15A 3049   4.479   4.752   6.431 -1.0525  1.6916 -0.5642
   26CHL1  H15B 3050   4.588   4.859   6.531 -1.7035 -0.6185  0.1628
   26CHL1   C16 3051   4.666   4.803   6.333  0.5163 -0.6063  0.5451
   26CHL1  H16A 3052   4.595   4.823   6.249 -0.3088 -0.5715  1.2360
   26CHL1  H16B 3053   4.720   4.898   6.354 -0.2998  0.1998 -0.8136
   26CHL1   C17 3054   4.767   4.690   6.311 -0.4555  0.4056  0.1324
   26CHL1   H17 3055   4.857   4.726   6.365 -0.9021  0.8329  0.6131
   26CHL1   C13 3056   4.715   4.575   6.400 -0.4022 -0.2880  0.0665
   26CHL1   C18 3057   4.608   4.497   6.329 -0.2943 -0.0647  0.2325
   26CHL1  H18A 3058   4.541   4.443   6.400  1.4093 -1.2993  0.9787
   26CHL1  H18B 3059   4.541   4.554   6.261  0.1538  0.7368  0.4596
   26CHL1  H18C 3060   4.648   4.415   6.266 -1.3888  0.9979 -1.9658
   26CHL1   C12 3061   4.820   4.479   6.469 -0.0267  0.0444 -0.5196
   26CHL1  H12A 3062   4.876   4.420   6.393  0.4704 -1.6942  1.1293
   26CHL1  H12B 3063   4.887   4.533   6.539 -1.2132  0.4428  0.3331
   26CHL1   C11 3064   4.751   4.383   6.570  0.3552 -0.2425 -0.0706
   26CHL1  H11A 3065   4.678   4.316   6.519  1.4652 -0.9618 -0.7920
   26CHL1  H11B 3066   4.834   4.323   6.615 -0.8758  0.0552  2.7527
   26CHL1    C9 3067   4.685   4.472   6.680  0.0651  0.1598 -0.5803
   26CHL1    H9 3068   4.765   4.527   6.734  0.0897 -1.5997  1.3259
   26CHL1   C10 3069   4.632   4.395   6.798 -0.1128  0.3755 -0.6885
   26CHL1   C19 3070   4.532   4.292   6.744 -0.3536 -0.2397  0.4193
   26CHL1  H19A 3071   4.591   4.226   6.677 -0.8433  0.4972 -0.7699
   26CHL1  H19B 3072   4.484   4.224   6.818 -0.7553  0.2168  0.5891
   26CHL1  H19C 3073   4.450   4.331   6.679 -1.1282  0.8485  1.9711
   26CHL1    C1 3074   4.753   4.330   6.882  0.0240 -0.4828  0.5116
   26CHL1   H1A 3075   4.796   4.264   6.805  3.0690  1.1928  0.6351
   26CHL1   H1B 3076   4.828   4.411   6.890 -1.7853  1.2790  0.6710
   26CHL1    C2 3077   4.720   4.255   7.010  0.4817  0.1928 -0.2575
   26CHL1   H2A 3078   4.809   4.218   7.065  1.8299  1.3644 -1.5670
   26CHL1   H2B 3079   4.667   4.164   6.972 -0.4248  0.4398  0.3873
   26CHL1   C20 3080   4.803   4.674   6.170  0.0133  0.2748  0.3179
   26CHL1   H20 3081   4.708   4.657   6.114  1.4390  0.5743 -2.3423
   26CHL1   C21 3082   4.900   4.553   6.150  0.0822 -0.1481  0.4507
   26CHL1  H21A 3083   5.006   4.566   6.181 -0.6398  1.0223  2.5766
   26CHL1  H21B 3084   4.896   4.545   6.039 -0.6158  1.7305  0.3058
   26CHL1  H21C 3085   4.854   4.456   6.181 -1.4687  0.5589  0.4485
   26CHL1   C22 3086   4.869   4.805   6.116  0.4670 -0.3497 -0.0323
   26CHL1  H22A 3087   4.798   4.887   6.140  0.9885 -0.8439  3.7344
   26CHL1  H22B 3088   4.968   4.816   6.165  0.0985  1.2715  0.4018
   26CHL1   C23 3089   4.885   4.815   5.963  0.3016 -0.2709 -0.1996
   26CHL1  H23A 3090   4.956   4.900   5.950  1.0759 -1.1581 -2.1924
   26CHL1  H23B 3091   4.926   4.721   5.920  0.6637  0.3013 -1.1384
   26CHL1   C24 3092   4.751   4.853   5.885  0.5802 -0.2341  0.7844
   26CHL1  H24A 3093   4.663   4.795   5.920  0.5356  0.8397  2.5485
   26CHL1  H24B 3094   4.728   4.959   5.908 -0.8093  0.3036 -2.5288
   26CHL1   C25 3095   4.784   4.846   5.735  0.4535  0.2917  0.3077
   26CHL1   H25 3096   4.881   4.899   5.721  0.1830  0.7924  0.3082
   26CHL1   C26 3097   4.781   4.707   5.666  0.3718 -0.8827 -0.3038
   26CHL1  H26A 3098   4.810   4.716   5.559 -0.5828  2.4546 -0.3906
   26CHL1  H26B 3099   4.854   4.638   5.714  1.2431  0.4504  0.3434
   26CHL1  H26C 3100   4.679   4.664   5.673 -0.2341  0.7580  1.5866
   26CHL1   C27 3101   4.677   4.937   5.687  0.1102 -0.5229  0.0749
   26CHL1  H27A 3102   4.697   5.034   5.737  1.0108 -0.1387 -0.9915
   26CHL1  H27B 3103   4.694   4.956   5.578  0.7436  0.2423  0.2980
   26CHL1  H27C 3104   4.576   4.890   5.692 -0.6433  1.1499  1.4906
   27CHL1    C3 3105   1.622   4.195   7.196 -0.5379 -0.0425 -0.1508
   27CHL1    H3 3106   1.718   4.231   7.153 -0.5065  1.1374  0.8609
   27CHL1    O3 3107   1.617   4.209   7.334  0.2741  0.0328  0.9826
   27CHL1   H3' 3108   1.535   4.249   7.362  0.9286  1.5085  0.8613
   27CHL1    C4 3109   1.516   4.274   7.138  1.0159 -0.1730 -0.2545
   27CHL1   H4A 3110   1.419   4.227   7.167 -0.4267  2.8828  0.2076
   27CHL1   H4B 3111   1.514   4.378   7.175  1.7041 -0.5843  0.9739
   27CHL1    C5 3112   1.523   4.267   6.984 -0.3079  0.0800  1.0009
   27CHL1    C6 3113   1.557   4.383   6.915  0.3930  0.4869 -0.8658
   27CHL1    H6 3114   1.559   4.478   6.969 -0.7722 -0.6518  1.3248
   27CHL1    C7 3115   1.562   4.383   6.764  0.1680  0.7638  0.2917
   27CHL1   H7A 3116   1.509   4.472   6.725  0.3084  2.5928  3.8751
   27CHL1   H7B 3117   1.667   4.392   6.729 -0.3879  0.4038 -1.5583
   27CHL1    C8 3118   1.516   4.254   6.696  0.0526 -0.4087 -0.1140
   27CHL1    H8 3119   1.406   4.264   6.684  0.0849 -0.2825 -0.3165
   27CHL1   C14 3120   1.566   4.244   6.555  0.0535  0.1776  0.1314
   27CHL1   H14 3121   1.676   4.225   6.561 -0.2358 -2.2969 -1.2224
   27CHL1   C15 3122   1.544   4.371   6.469  0.0723 -0.4657  0.1066
   27CHL1  H15A 3123   1.447   4.423   6.479  0.0868 -0.4264  0.0443
   27CHL1  H15B 3124   1.628   4.438   6.498  0.1372 -0.6978  0.4733
   27CHL1   C16 3125   1.564   4.316   6.329  0.4989 -0.0337 -0.2250
   27CHL1  H16A 3126   1.477   4.343   6.265 -1.8590 -1.5700  2.1331
   27CHL1  H16B 3127   1.653   4.370   6.288  0.7580  1.4000  2.0545
   27CHL1   C17 3128   1.587   4.157   6.340 -0.6639  0.4171 -0.2001
   27CHL1   H17 3129   1.696   4.142   6.356 -0.5540  0.3088 -1.0071
   27CHL1   C13 3130   1.525   4.115   6.476 -0.5582 -0.2006  0.9419
   27CHL1   C18 3131   1.364   4.101   6.469 -0.7706  0.3768  0.2442
   27CHL1  H18A 3132   1.316   4.195   6.435 -2.4393 -0.8815 -1.0789
   27CHL1  H18B 3133   1.336   4.017   6.402  0.4504  1.8421 -2.2161
   27CHL1  H18C 3134   1.327   4.084   6.573  1.1664 -2.1137  0.6329
   27CHL1   C12 3135   1.585   3.993   6.551  0.0940  0.2599 -0.4115
   27CHL1  H12A 3136   1.555   3.897   6.503 -0.9786 -0.2255  1.1830
   27CHL1  H12B 3137   1.696   3.986   6.551  0.0976 -0.1652  1.4191
   27CHL1   C11 3138   1.537   3.986   6.700  0.1469 -0.2350  0.0014
   27CHL1  H11A 3139   1.429   3.960   6.700  0.2626 -0.7235  0.1743
   27CHL1  H11B 3140   1.600   3.906   6.745 -0.7120 -0.8933  0.0765
   27CHL1    C9 3141   1.567   4.126   6.773 -0.3682  0.9967 -0.2111
   27CHL1    H9 3142   1.678   4.129   6.780  0.1875 -1.6256 -4.3620
   27CHL1   C10 3143   1.516   4.126   6.920 -0.0870 -0.6473 -0.5271
   27CHL1   C19 3144   1.363   4.090   6.925  0.2198  0.1522  0.4538
   27CHL1  H19A 3145   1.338   3.990   6.884 -2.4244  1.1296 -0.5131
   27CHL1  H19B 3146   1.342   4.084   7.033  2.3747  1.8647  1.0488
   27CHL1  H19C 3147   1.310   4.171   6.870  0.3463 -1.4110 -2.1589
   27CHL1    C1 3148   1.601   4.022   7.015  0.3688 -1.0105  0.5260
   27CHL1   H1A 3149   1.556   3.921   7.001 -2.6904  0.3308 -0.3257
   27CHL1   H1B 3150   1.705   4.032   6.977  0.1382  0.6972  0.2550
   27CHL1    C2 3151   1.601   4.048   7.169  0.1220 -0.1632 -0.3421
   27CHL1   H2A 3152   1.674   3.980   7.218 -0.6000 -1.2827 -0.7788
   27CHL1   H2B 3153   1.501   4.012   7.204 -0.2775  0.4792 -0.8044
   27CHL1   C20 3154   1.539   4.083   6.209  0.8911  0.2746  0.5596
   27CHL1   H20 3155   1.429   4.096   6.201  0.7972 -1.2463 -1.4728
   27CHL1   C21 3156   1.580   3.935   6.218 -0.0269  0.0098 -0.6198
   27CHL1  H21A 3157   1.689   3.915   6.226 -0.0348 -0.0541 -0.6775
   27CHL1  H21B 3158   1.538   3.894   6.124 -1.8442  0.2553  0.0453
   27CHL1  H21C 3159   1.518   3.891   6.299  0.3423  1.2790  0.3918
   27CHL1   C22 3160   1.605   4.143   6.087  0.3343 -0.0387  0.2322
   27CHL1  H22A 3161   1.593   4.254   6.081 -0.9165 -0.0988  1.2740
   27CHL1  H22B 3162   1.716   4.137   6.089  0.5163  2.0172 -0.6488
   27CHL1   C23 3163   1.551   4.096   5.955 -0.1629  0.3275  0.5204
   27CHL1  H23A 3164   1.567   3.986   5.953 -2.0487  0.0278 -0.2051
   27CHL1  H23B 3165   1.442   4.116   5.942 -0.4005 -0.9093  0.4911
   27CHL1   C24 3166   1.624   4.156   5.836 -0.1432  0.4034  1.3257
   27CHL1  H24A 3167   1.612   4.266   5.847 -1.2456  0.6002 -1.0721
   27CHL1  H24B 3168   1.730   4.127   5.846 -0.7896 -1.8193  2.3776
   27CHL1   C25 3169   1.571   4.094   5.706  0.6616 -0.1124 -0.8298
   27CHL1   H25 3170   1.461   4.107   5.709  0.5243 -1.2452  1.5929
   27CHL1   C26 3171   1.618   4.172   5.589  0.3747 -0.1866  0.3353
   27CHL1  H26A 3172   1.597   4.104   5.504 -1.7653 -2.6384  2.6259
   27CHL1  H26B 3173   1.560   4.267   5.584 -0.0376 -0.4765 -0.6666
   27CHL1  H26C 3174   1.724   4.205   5.586  0.1714  0.4114 -1.5561
   27CHL1   C27 3175   1.596   3.946   5.693  0.0325 -0.3598  0.1765
   27CHL1  H27A 3176   1.543   3.886   5.770  1.1170  0.6359  1.7659
   27CHL1  H27B 3177   1.706   3.931   5.701 -0.0082 -0.2518  1.0720
   27CHL1  H27C 3178   1.561   3.920   5.591 -0.5621 -1.2850  0.5987
   28CHL1    C3 3179   1.327   3.530   7.115  0.4389  0.1640 -0.4085
   28CHL1    H3 3180   1.412   3.458   7.118  1.2261  1.0636 -0.4697
   28CHL1    O3 3181   1.290   3.573   7.240  0.3102  0.1735 -0.1865
   28CHL1   H3' 3182   1.374   3.574   7.286  1.0459 -2.7478 -1.2465
   28CHL1    C4 3183   1.376   3.651   7.039  0.4840  0.6767  0.2036
   28CHL1   H4A 3184   1.295   3.726   7.033 -1.0336 -0.9931 -1.6059
   28CHL1   H4B 3185   1.455   3.713   7.087  2.3975 -1.0275 -0.5873
   28CHL1    C5 3186   1.421   3.614   6.891  0.3276 -0.2278 -0.0272
   28CHL1    C6 3187   1.542   3.643   6.844  0.1281  0.1016  0.2959
   28CHL1    H6 3188   1.618   3.691   6.909 -2.4351  3.8922  0.8082
   28CHL1    C7 3189   1.582   3.619   6.701 -0.3366 -0.1916 -0.4691
   28CHL1   H7A 3190   1.651   3.703   6.677  0.3258 -0.3214  0.9304
   28CHL1   H7B 3191   1.642   3.526   6.707  1.5970  1.0482  0.3298
   28CHL1    C8 3192   1.455   3.600   6.598 -0.2665 -0.8901 -0.9948
   28CHL1    H8 3193   1.403   3.698   6.587  0.0135 -0.4278  1.3270
   28CHL1   C14 3194   1.497   3.538   6.468  0.1451 -1.0226 -0.0882
   28CHL1   H14 3195   1.536   3.436   6.487 -1.7894 -1.2368  3.6681
   28CHL1   C15 3196   1.611   3.613   6.392  0.3568  1.1865 -0.3022
   28CHL1  H15A 3197   1.578   3.719   6.391 -0.6082  0.8987 -0.2195
   28CHL1  H15B 3198   1.713   3.609   6.435  1.1246 -2.7593 -2.0237
   28CHL1   C16 3199   1.595   3.558   6.252 -0.5934 -0.0131  0.1106
   28CHL1  H16A 3200   1.591   3.641   6.178  1.6401 -0.4367 -0.5740
   28CHL1  H16B 3201   1.680   3.488   6.236 -0.9470 -0.2911 -0.5705
   28CHL1   C17 3202   1.458   3.480   6.241 -0.0724 -0.8101  0.4002
   28CHL1   H17 3203   1.481   3.373   6.257  2.3739 -0.6036 -1.1644
   28CHL1   C13 3204   1.383   3.517   6.371  0.1715 -0.1693 -0.3096
   28CHL1   C18 3205   1.310   3.653   6.342  0.1385 -0.2053 -0.3912
   28CHL1  H18A 3206   1.233   3.636   6.263 -0.2623  0.5680 -0.1733
   28CHL1  H18B 3207   1.262   3.680   6.438 -2.2709  2.5684 -2.2062
   28CHL1  H18C 3208   1.380   3.736   6.320 -1.3080  0.7982 -1.4194
   28CHL1   C12 3209   1.292   3.411   6.441  0.3332 -0.8587 -0.4614
   28CHL1  H12A 3210   1.208   3.376   6.376  0.3457 -0.4003 -0.7285
   28CHL1  H12B 3211   1.353   3.319   6.455 -0.5012 -1.7381 -2.2582
   28CHL1   C11 3212   1.240   3.454   6.575  0.0248  0.6724  0.4365
   28CHL1  H11A 3213   1.169   3.538   6.561 -1.3171 -0.1422  1.8653
   28CHL1  H11B 3214   1.181   3.376   6.630 -2.7363  2.6897  0.5762
   28CHL1    C9 3215   1.356   3.501   6.671  0.0034  0.2981 -0.5158
   28CHL1    H9 3216   1.414   3.409   6.691  1.1545  1.3157  1.1202
   28CHL1   C10 3217   1.304   3.556   6.810 -0.6453  0.2757 -0.0954
   28CHL1   C19 3218   1.185   3.653   6.790 -0.2336  0.3430 -0.6640
   28CHL1  H19A 3219   1.101   3.592   6.749  1.5148 -3.0172  0.3186
   28CHL1  H19B 3220   1.153   3.698   6.886  2.5925  0.6606  0.2199
   28CHL1  H19C 3221   1.213   3.734   6.720 -0.2662  0.2407 -0.7958
   28CHL1    C1 3222   1.256   3.431   6.893 -1.0265 -0.3851 -0.1374
   28CHL1   H1A 3223   1.164   3.385   6.851 -1.0416 -0.2962 -0.2016
   28CHL1   H1B 3224   1.336   3.354   6.895  0.4031  1.0536  0.3780
   28CHL1    C2 3225   1.217   3.458   7.040  0.9200  0.0592 -0.4487
   28CHL1   H2A 3226   1.193   3.358   7.083  2.5874 -0.7317 -1.2885
   28CHL1   H2B 3227   1.124   3.519   7.047  0.0250 -1.3486  0.5291
   28CHL1   C20 3228   1.386   3.491   6.102  0.5596  0.3598 -0.5765
   28CHL1   H20 3229   1.357   3.596   6.084 -0.3538  0.5111  1.3890
   28CHL1   C21 3230   1.260   3.402   6.107 -0.2328 -0.2929  0.1677
   28CHL1  H21A 3231   1.213   3.377   6.010 -0.4179  0.8041 -0.0303
   28CHL1  H21B 3232   1.185   3.451   6.173  1.0533  0.8523  0.8281
   28CHL1  H21C 3233   1.290   3.305   6.154  2.7567  1.2188  1.7054
   28CHL1   C22 3234   1.478   3.462   5.981 -0.2518 -0.0791  1.0228
   28CHL1  H22A 3235   1.578   3.512   5.986 -0.3593  0.2214  0.2568
   28CHL1  H22B 3236   1.508   3.356   5.967 -2.2926 -0.3557 -2.1898
   28CHL1   C23 3237   1.417   3.511   5.846 -0.0490 -0.6764 -1.0320
   28CHL1  H23A 3238   1.310   3.480   5.843 -0.1054 -0.5942 -0.1092
   28CHL1  H23B 3239   1.430   3.621   5.842 -2.8227 -0.2971 -1.4824
   28CHL1   C24 3240   1.491   3.444   5.724  0.0009  0.5626  0.3226
   28CHL1  H24A 3241   1.601   3.460   5.725  0.1506 -0.2175  2.7265
   28CHL1  H24B 3242   1.484   3.333   5.718  1.6746  0.3883  1.1412
   28CHL1   C25 3243   1.448   3.501   5.591  0.5248 -0.5152  0.0917
   28CHL1   H25 3244   1.504   3.462   5.504 -2.0026 -0.9364 -1.4466
   28CHL1   C26 3245   1.304   3.460   5.557  0.0111  0.1887 -0.1144
   28CHL1  H26A 3246   1.276   3.512   5.463 -1.8059 -0.4506  0.0418
   28CHL1  H26B 3247   1.302   3.354   5.527 -0.9236  0.8344 -2.5121
   28CHL1  H26C 3248   1.221   3.482   5.627 -0.8023 -1.8595 -0.3820
   28CHL1   C27 3249   1.465   3.654   5.588 -0.1602  0.5375 -0.0941
   28CHL1  H27A 3250   1.398   3.699   5.664 -0.4894 -1.5347  0.9170
   28CHL1  H27B 3251   1.567   3.678   5.624  0.4168 -1.7406 -0.0494
   28CHL1  H27C 3252   1.447   3.699   5.488  0.1291  0.1725 -0.3138
   29CHL1    C3 3253   2.713   3.773   7.100 -0.0668  0.4031 -0.0302
   29CHL1    H3 3254   2.646   3.699   7.051  0.0497  1.2497 -1.5344
   29CHL1    O3 3255   2.739   3.734   7.226  0.4625 -0.6677 -0.2769
   29CHL1   H3' 3256   2.793   3.803   7.266  1.3412 -1.2448 -0.4338
   29CHL1    C4 3257   2.852   3.759   7.030 -0.6288  0.2922  0.6461
   29CHL1   H4A 3258   2.925   3.826   7.080 -0.7132  1.5367 -0.8160
   29CHL1   H4B 3259   2.895   3.659   7.051 -0.4836 -0.0227 -0.9723
   29CHL1    C5 3260   2.854   3.782   6.878 -0.0835 -0.5536  0.2706
   29CHL1    C6 3261   2.899   3.695   6.789  0.3766  0.6258 -0.2011
   29CHL1    H6 3262   2.950   3.609   6.835  1.8066  2.0356  0.9973
   29CHL1    C7 3263   2.907   3.730   6.643 -0.2168  0.3046  0.9217
   29CHL1   H7A 3264   3.007   3.707   6.601  0.1307 -0.1397  1.9626
   29CHL1   H7B 3265   2.834   3.663   6.594  1.6734 -1.6930  0.6936
   29CHL1    C8 3266   2.861   3.880   6.607  0.3630 -0.0923  0.4381
   29CHL1    H8 3267   2.949   3.942   6.636  0.4478 -0.6112  1.2965
   29CHL1   C14 3268   2.833   3.897   6.458 -0.0518 -0.3987  0.0927
   29CHL1   H14 3269   2.748   3.829   6.437  0.7900 -1.1377 -1.0387
   29CHL1   C15 3270   2.938   3.860   6.365  0.1484  0.4938 -0.0562
   29CHL1  H15A 3271   3.037   3.903   6.391  0.8294  1.2656 -3.4312
   29CHL1  H15B 3272   2.938   3.750   6.347 -1.1430  0.8612 -2.7481
   29CHL1   C16 3273   2.888   3.925   6.235  0.4325  0.1434  1.2672
   29CHL1  H16A 3274   2.970   3.969   6.176 -1.1970 -0.0574 -1.3188
   29CHL1  H16B 3275   2.846   3.838   6.180  0.3625 -0.3087  2.0319
   29CHL1   C17 3276   2.775   4.025   6.262 -0.7742  0.4314  0.5522
   29CHL1   H17 3277   2.686   3.968   6.229  1.7130 -2.1568 -2.2737
   29CHL1   C13 3278   2.788   4.040   6.416  0.1636  1.0107 -0.4673
   29CHL1   C18 3279   2.899   4.151   6.445  1.0899  0.2642  0.0481
   29CHL1  H18A 3280   2.920   4.168   6.552  2.0276  2.3764 -0.4035
   29CHL1  H18B 3281   2.999   4.136   6.398  0.6671 -2.7017 -0.1007
   29CHL1  H18C 3282   2.870   4.253   6.410  0.1168  0.3387  1.0393
   29CHL1   C12 3283   2.663   4.076   6.493  0.2031  0.1246  0.3131
   29CHL1  H12A 3284   2.634   4.183   6.484 -2.2478 -0.5056  0.1206
   29CHL1  H12B 3285   2.586   4.013   6.445  2.5119 -2.2061 -0.5800
   29CHL1   C11 3286   2.669   4.047   6.644  0.4919  0.6584  0.3108
   29CHL1  H11A 3287   2.719   4.137   6.686 -3.2220  2.0473  2.2173
   29CHL1  H11B 3288   2.562   4.046   6.674  0.1518  0.4377 -0.8717
   29CHL1    C9 3289   2.738   3.914   6.690 -0.0484 -0.2115 -0.9791
   29CHL1    H9 3290   2.672   3.827   6.669  2.2495 -2.2292 -0.2673
   29CHL1   C10 3291   2.776   3.916   6.844  0.0038  0.7854 -0.3849
   29CHL1   C19 3292   2.877   4.027   6.879  0.1007 -0.7162 -0.0269
   29CHL1  H19A 3293   2.838   4.126   6.848  0.8808 -0.9681 -1.9204
   29CHL1  H19B 3294   2.900   4.020   6.988  1.2575  2.4031  0.0125
   29CHL1  H19C 3295   2.964   3.997   6.818  0.4520  2.0221 -1.0051
   29CHL1    C1 3296   2.642   3.931   6.929  0.1287 -0.7863  0.3203
   29CHL1   H1A 3297   2.599   4.032   6.912 -0.2671 -0.8661  0.8277
   29CHL1   H1B 3298   2.572   3.854   6.891 -0.4036 -0.6483  1.0065
   29CHL1    C2 3299   2.658   3.912   7.077  0.1631 -0.7408 -0.3994
   29CHL1   H2A 3300   2.567   3.930   7.138  0.0762 -1.9293 -0.1545
   29CHL1   H2B 3301   2.740   3.974   7.119 -0.8076 -0.0064  0.4429
   29CHL1   C20 3302   2.784   4.155   6.173  0.2345  0.2031  0.2804
   29CHL1   H20 3303   2.876   4.212   6.197 -1.0973  2.1482  1.0935
   29CHL1   C21 3304   2.665   4.246   6.196  0.3310  0.4676 -0.7197
   29CHL1  H21A 3305   2.655   4.279   6.302 -1.1628 -0.5732 -0.5129
   29CHL1  H21B 3306   2.569   4.199   6.166  0.4194 -0.2668  0.1237
   29CHL1  H21C 3307   2.674   4.337   6.132 -0.2762  0.6907 -0.4936
   29CHL1   C22 3308   2.807   4.113   6.022  0.1451  0.3607 -0.2911
   29CHL1  H22A 3309   2.898   4.053   6.004  0.1139  0.5205 -1.0346
   29CHL1  H22B 3310   2.718   4.055   5.987  0.9873  0.4606 -2.7697
   29CHL1   C23 3311   2.823   4.230   5.924 -0.0206  0.0916 -0.4509
   29CHL1  H23A 3312   2.733   4.295   5.915  1.3653  2.3154  0.7959
   29CHL1  H23B 3313   2.900   4.300   5.964  0.0876  0.6719 -1.6216
   29CHL1   C24 3314   2.858   4.179   5.783 -0.2456 -0.3704  0.2963
   29CHL1  H24A 3315   2.952   4.226   5.745 -0.2651 -0.2582  0.3840
   29CHL1  H24B 3316   2.879   4.070   5.788 -1.5401 -0.7921 -2.2230
   29CHL1   C25 3317   2.755   4.209   5.678  0.8528 -0.3748 -0.1168
   29CHL1   H25 3318   2.727   4.316   5.685  0.6025 -0.3058 -1.7172
   29CHL1   C26 3319   2.806   4.183   5.537  0.1180 -0.4155  0.3537
   29CHL1  H26A 3320   2.724   4.195   5.463  0.2722 -1.4999  0.0000
   29CHL1  H26B 3321   2.886   4.258   5.519 -0.7127  0.8006  1.5138
   29CHL1  H26C 3322   2.843   4.079   5.523  0.8092 -0.1100 -0.1574
   29CHL1   C27 3323   2.631   4.120   5.706  0.1926 -0.7056  0.0559
   29CHL1  H27A 3324   2.648   4.012   5.686 -1.1915 -0.8496 -0.4573
   29CHL1  H27B 3325   2.592   4.137   5.809 -0.9222 -0.8729 -0.3304
   29CHL1  H27C 3326   2.556   4.144   5.628 -3.2020 -1.0281  2.9722
   30CHL1    C3 3327   5.238   6.054   6.972  0.8004 -0.3092 -0.1625
   30CHL1    H3 3328   5.194   5.956   6.946  4.3857 -1.8993 -0.8611
   30CHL1    O3 3329   5.256   6.065   7.110 -0.4210 -0.4948  0.2063
   30CHL1   H3' 3330   5.317   6.136   7.129  0.6257 -0.8427 -1.6316
   30CHL1    C4 3331   5.377   6.054   6.909 -0.7656  0.3074 -0.1769
   30CHL1   H4A 3332   5.431   6.146   6.938 -0.4637 -0.2388  1.0473
   30CHL1   H4B 3333   5.431   5.965   6.949 -0.9889  0.5212  0.6183
   30CHL1    C5 3334   5.384   6.054   6.759 -0.8693  0.1453 -0.4659
   30CHL1    C6 3335   5.456   5.962   6.697  0.5824  0.4048  0.1292
   30CHL1    H6 3336   5.514   5.900   6.767 -1.1877 -0.6768  0.7037
   30CHL1    C7 3337   5.460   5.944   6.545  0.4390  0.3012  0.2398
   30CHL1   H7A 3338   5.561   5.913   6.512  0.7596  2.6529 -1.2354
   30CHL1   H7B 3339   5.394   5.866   6.502  0.7608 -0.5962  1.3031
   30CHL1    C8 3340   5.413   6.080   6.472  0.1492  0.3807  0.2443
   30CHL1    H8 3341   5.495   6.153   6.486  1.2425 -1.2836  3.5048
   30CHL1   C14 3342   5.392   6.062   6.322  0.0479  0.2362 -0.0238
   30CHL1   H14 3343   5.310   5.988   6.313  0.2007 -0.0224  0.6191
   30CHL1   C15 3344   5.513   6.010   6.239 -0.3113 -0.4032  0.1194
   30CHL1  H15A 3345   5.607   6.058   6.271 -0.7469 -0.5307  1.6543
   30CHL1  H15B 3346   5.523   5.900   6.246  1.8815 -0.1991  0.7447
   30CHL1   C16 3347   5.483   6.057   6.091  0.4580  0.3749 -0.1224
   30CHL1  H16A 3348   5.564   6.126   6.057  0.3940 -0.0678 -1.2020
   30CHL1  H16B 3349   5.477   5.964   6.031  2.2129 -0.1348  0.4204
   30CHL1   C17 3350   5.346   6.131   6.101 -0.3108 -0.8069 -0.3782
   30CHL1   H17 3351   5.266   6.054   6.087 -0.1187 -0.9122 -0.9290
   30CHL1   C13 3352   5.335   6.176   6.246 -0.9898  0.6651  0.3780
   30CHL1   C18 3353   5.424   6.304   6.256  0.3949  0.0779 -0.1724
   30CHL1  H18A 3354   5.369   6.385   6.203 -1.7610 -0.8092  0.5783
   30CHL1  H18B 3355   5.424   6.334   6.363  1.8054 -2.2111  0.5437
   30CHL1  H18C 3356   5.527   6.292   6.216  0.1529 -0.5485 -0.6113
   30CHL1   C12 3357   5.183   6.199   6.301  0.7398  1.1641  0.6754
   30CHL1  H12A 3358   5.135   6.292   6.264 -0.7899  0.7009  1.3731
   30CHL1  H12B 3359   5.116   6.115   6.272  0.1029  1.7856  0.3124
   30CHL1   C11 3360   5.195   6.226   6.454  0.1895 -0.3895  1.6476
   30CHL1  H11A 3361   5.239   6.328   6.461 -1.5258  0.5073  0.1478
   30CHL1  H11B 3362   5.093   6.229   6.498 -0.2687 -0.7850  0.6333
   30CHL1    C9 3363   5.281   6.125   6.538  0.2445  0.3547  0.2100
   30CHL1    H9 3364   5.216   6.035   6.532  0.8271 -0.0300 -0.6764
   30CHL1   C10 3365   5.291   6.164   6.687 -0.2276  0.3251  0.5235
   30CHL1   C19 3366   5.365   6.300   6.708  0.0889 -0.5311 -0.0580
   30CHL1  H19A 3367   5.310   6.383   6.659  0.8173 -0.9469 -1.6155
   30CHL1  H19B 3368   5.380   6.328   6.815 -2.1075 -0.8866  0.3909
   30CHL1  H19C 3369   5.466   6.294   6.662  0.5998  0.4313  0.8907
   30CHL1    C1 3370   5.148   6.164   6.761  0.3220  0.8049  0.5235
   30CHL1   H1A 3371   5.071   6.235   6.721  0.7324  0.7363 -0.4106
   30CHL1   H1B 3372   5.101   6.068   6.733  1.1184  0.5361  0.0818
   30CHL1    C2 3373   5.149   6.168   6.911 -0.3018  0.5497 -0.2121
   30CHL1   H2A 3374   5.047   6.152   6.952  0.0817  1.8061  1.3694
   30CHL1   H2B 3375   5.184   6.268   6.944  2.7673 -1.3323  2.9261
   30CHL1   C20 3376   5.318   6.234   5.988 -0.0465 -0.3600 -0.7821
   30CHL1   H20 3377   5.391   6.317   6.001 -1.5639  0.5523  3.3412
   30CHL1   C21 3378   5.180   6.300   6.003  0.1095  0.1789 -0.1163
   30CHL1  H21A 3379   5.179   6.370   6.089 -1.3998  0.2708 -0.1794
   30CHL1  H21B 3380   5.111   6.216   6.022  0.2246  0.4011  1.4505
   30CHL1  H21C 3381   5.153   6.351   5.908 -2.4271  0.1250  0.5213
   30CHL1   C22 3382   5.330   6.179   5.846  0.3205 -0.5531  0.2318
   30CHL1  H22A 3383   5.268   6.087   5.838 -0.0275 -0.3147  0.1818
   30CHL1  H22B 3384   5.274   6.244   5.776  0.7906 -3.2205 -2.8759
   30CHL1   C23 3385   5.468   6.179   5.779  0.0888  0.0968 -0.4650
   30CHL1  H23A 3386   5.522   6.274   5.798 -0.0835  0.1769 -0.3710
   30CHL1  H23B 3387   5.538   6.102   5.817  2.5485  2.0148 -0.8915
   30CHL1   C24 3388   5.455   6.167   5.626  0.0848 -0.1504 -0.3398
   30CHL1  H24A 3389   5.431   6.070   5.578  2.6557 -0.9183 -0.2116
   30CHL1  H24B 3390   5.389   6.248   5.586  2.8783  1.5550 -1.7739
   30CHL1   C25 3391   5.594   6.212   5.571 -0.6670  0.1159 -0.0540
   30CHL1   H25 3392   5.629   6.312   5.604 -1.2710  0.2562  0.1896
   30CHL1   C26 3393   5.713   6.125   5.615 -0.9010 -0.1600 -0.0392
   30CHL1  H26A 3394   5.810   6.152   5.569  0.5098 -0.6497  2.4848
   30CHL1  H26B 3395   5.715   6.124   5.726 -3.1510 -1.5232  0.0682
   30CHL1  H26C 3396   5.676   6.022   5.595  0.9326 -1.0761  1.0822
   30CHL1   C27 3397   5.596   6.215   5.420  0.3837  0.3954  0.0754
   30CHL1  H27A 3398   5.578   6.112   5.385 -3.4673  1.2668 -0.9617
   30CHL1  H27B 3399   5.520   6.283   5.374 -1.4154 -1.4062  0.2554
   30CHL1  H27C 3400   5.694   6.248   5.379 -0.9378  2.9144 -1.3735
   31CHL1    C3 3401   2.574   5.200   6.657  1.1342 -0.3542 -0.4873
   31CHL1    H3 3402   2.505   5.280   6.622  0.6647 -1.2067 -1.5569
   31CHL1    O3 3403   2.546   5.205   6.796  0.4326 -0.0310  0.0978
   31CHL1   H3' 3404   2.627   5.170   6.834 -1.0449 -1.3725  2.3065
   31CHL1    C4 3405   2.533   5.064   6.595  0.0810 -0.6069  0.4505
   31CHL1   H4A 3406   2.595   4.984   6.642  1.2499 -0.3425 -0.5948
   31CHL1   H4B 3407   2.427   5.034   6.612  0.1184 -1.1239 -0.1595
   31CHL1    C5 3408   2.568   5.064   6.448  0.4367 -0.5392 -0.0162
   31CHL1    C6 3409   2.478   5.045   6.352  0.3083 -0.9678  0.4659
   31CHL1    H6 3410   2.380   5.009   6.388  0.3235  0.1004  1.6592
   31CHL1    C7 3411   2.504   5.045   6.209  0.6112  0.1798 -0.0988
   31CHL1   H7A 3412   2.445   4.963   6.162  0.2810 -0.1575  0.8923
   31CHL1   H7B 3413   2.467   5.144   6.176 -1.3795  0.0183  1.4600
   31CHL1    C8 3414   2.652   5.032   6.169  0.4144  0.7185  0.0587
   31CHL1    H8 3415   2.687   4.931   6.198 -0.3472  1.0067  2.1800
   31CHL1   C14 3416   2.678   5.057   6.021 -0.0316 -0.0795  0.4489
   31CHL1   H14 3417   2.646   5.163   6.013 -1.3233 -0.5053 -0.2769
   31CHL1   C15 3418   2.585   5.001   5.914 -0.3307  0.0081  0.2000
   31CHL1  H15A 3419   2.568   4.893   5.933  0.5590 -0.1418  0.2179
   31CHL1  H15B 3420   2.492   5.061   5.925  0.9363  1.9379  0.9435
   31CHL1   C16 3421   2.664   5.012   5.787 -0.3208 -0.7025 -0.0807
   31CHL1  H16A 3422   2.684   4.912   5.742 -1.5342 -0.9645 -0.0792
   31CHL1  H16B 3423   2.607   5.072   5.713 -1.6749  0.2154  1.6429
   31CHL1   C17 3424   2.797   5.087   5.828 -0.2598  0.0259 -0.2105
   31CHL1   H17 3425   2.776   5.196   5.834  1.0795  0.3088 -0.3222
   31CHL1   C13 3426   2.818   5.053   5.971  0.5052  0.6812 -0.4024
   31CHL1   C18 3427   2.867   4.907   5.978 -0.4529 -0.4829  0.5664
   31CHL1  H18A 3428   2.866   4.873   6.084  1.9109 -2.0693  0.1470
   31CHL1  H18B 3429   2.796   4.838   5.927 -0.2744  0.5547 -1.1472
   31CHL1  H18C 3430   2.961   4.888   5.922  0.8042  0.6442  2.1896
   31CHL1   C12 3431   2.892   5.159   6.060  0.3811  0.2158  0.3518
   31CHL1  H12A 3432   3.000   5.175   6.038 -0.0090  0.6938 -1.3895
   31CHL1  H12B 3433   2.855   5.263   6.043  1.5158  0.2933 -2.0759
   31CHL1   C11 3434   2.876   5.128   6.209 -0.2352  0.0661  0.6158
   31CHL1  H11A 3435   2.929   5.032   6.230  0.2311  0.3266  0.6422
   31CHL1  H11B 3436   2.926   5.212   6.262  0.1446  0.9327 -1.0594
   31CHL1    C9 3437   2.730   5.126   6.256 -0.1134 -0.1516 -0.0092
   31CHL1    H9 3438   2.684   5.222   6.224 -0.8416 -0.4501  0.1133
   31CHL1   C10 3439   2.709   5.101   6.405 -0.0966 -0.0998  0.1172
   31CHL1   C19 3440   2.808   4.993   6.460  0.4312  1.0008 -1.2835
   31CHL1  H19A 3441   2.815   4.900   6.400  0.0858 -0.4357  0.8284
   31CHL1  H19B 3442   2.905   5.048   6.456  0.1959  1.6578  0.8476
   31CHL1  H19C 3443   2.791   4.977   6.568  1.6879  1.0323 -1.0705
   31CHL1    C1 3444   2.744   5.238   6.476  0.2476  0.0857 -0.0871
   31CHL1   H1A 3445   2.852   5.264   6.470  0.3761  0.7701  3.4080
   31CHL1   H1B 3446   2.680   5.319   6.435  0.7883  0.4756 -0.1750
   31CHL1    C2 3447   2.716   5.238   6.632 -0.3107 -0.2252 -0.0431
   31CHL1   H2A 3448   2.740   5.333   6.684 -2.5698  0.4593 -0.1330
   31CHL1   H2B 3449   2.787   5.164   6.674 -1.5572 -1.2502  0.3518
   31CHL1   C20 3450   2.914   5.077   5.727  0.6630 -0.2563 -0.0526
   31CHL1   H20 3451   2.969   4.981   5.731 -1.2083 -1.3701  0.4324
   31CHL1   C21 3452   3.017   5.188   5.753  0.7953 -0.2775  0.1692
   31CHL1  H21A 3453   3.065   5.166   5.851  2.5513  1.8394 -0.1281
   31CHL1  H21B 3454   2.954   5.279   5.748 -1.5355 -1.8768 -1.5950
   31CHL1  H21C 3455   3.103   5.202   5.685  0.6760 -0.2631  0.0216
   31CHL1   C22 3456   2.869   5.099   5.580  0.1106 -0.3711 -0.9781
   31CHL1  H22A 3457   2.806   5.009   5.560 -2.8539  1.4752 -0.5058
   31CHL1  H22B 3458   2.794   5.179   5.564 -0.9969 -0.6905  1.9994
   31CHL1   C23 3459   2.984   5.100   5.479  0.5097 -0.1908  0.0174
   31CHL1  H23A 3460   3.044   5.193   5.490  0.7137 -0.0984 -1.6310
   31CHL1  H23B 3461   3.045   5.008   5.494 -2.5824 -2.8898 -2.3546
   31CHL1   C24 3462   2.924   5.087   5.340  0.0746  0.1379  0.2937
   31CHL1  H24A 3463   2.889   4.983   5.320 -2.1070  1.0113 -0.6845
   31CHL1  H24B 3464   2.831   5.148   5.337 -0.3279 -0.4917 -1.5328
   31CHL1   C25 3465   3.013   5.114   5.218  0.8044  0.1859  0.2867
   31CHL1   H25 3466   3.100   5.045   5.210  1.0716  0.5546  0.0297
   31CHL1   C26 3467   2.930   5.098   5.087  0.6730  0.2033  0.5349
   31CHL1  H26A 3468   2.899   4.993   5.072  1.8890 -0.2640  1.0953
   31CHL1  H26B 3469   2.851   5.176   5.079  2.9751  2.5665 -0.8530
   31CHL1  H26C 3470   3.006   5.121   5.009  0.6804  0.6920  0.6797
   31CHL1   C27 3471   3.069   5.252   5.218 -0.5704 -0.3120  0.3173
   31CHL1  H27A 3472   3.137   5.262   5.131 -0.6616 -3.5706 -0.2366
   31CHL1  H27B 3473   2.976   5.313   5.212 -0.9503 -0.8913  0.2971
   31CHL1  H27C 3474   3.131   5.270   5.309 -2.4478 -1.7182  1.9568
   32CHL1    C3 3475   3.557   2.486   6.814 -0.2953  0.3852  0.4407
   32CHL1    H3 3476   3.631   2.569   6.812  0.3986 -0.2324 -0.2497
   32CHL1    O3 3477   3.518   2.458   6.948  0.6289  0.2146 -0.7424
   32CHL1   H3' 3478   3.600   2.447   6.997  0.6038 -2.5165 -1.1400
   32CHL1    C4 3479   3.429   2.534   6.738  0.6244  0.3317 -0.2607
   32CHL1   H4A 3480   3.347   2.460   6.756 -0.0379  0.8009 -1.2525
   32CHL1   H4B 3481   3.399   2.632   6.781 -2.3023  0.1689 -1.6259
   32CHL1    C5 3482   3.462   2.543   6.587 -0.2939 -0.3606 -0.0569
   32CHL1    C6 3483   3.445   2.665   6.522  0.0993  0.1685 -0.1766
   32CHL1    H6 3484   3.411   2.753   6.579 -0.3486  0.0899 -0.3188
   32CHL1    C7 3485   3.467   2.681   6.369 -0.1345 -0.9288 -0.1717
   32CHL1   H7A 3486   3.380   2.731   6.323  0.5907 -0.1347 -0.6876
   32CHL1   H7B 3487   3.547   2.756   6.352  0.6589 -1.6021  0.4569
   32CHL1    C8 3488   3.484   2.554   6.288 -0.7834 -0.0741 -0.4192
   32CHL1    H8 3489   3.387   2.504   6.270 -0.1422 -1.2894 -0.5961
   32CHL1   C14 3490   3.544   2.591   6.157  0.8231  0.7171 -0.4978
   32CHL1   H14 3491   3.640   2.637   6.189  0.8540 -0.9543  2.0774
   32CHL1   C15 3492   3.473   2.703   6.079 -0.5309  0.0495  0.7263
   32CHL1  H15A 3493   3.363   2.688   6.078 -0.2788 -2.1305  0.9126
   32CHL1  H15B 3494   3.489   2.806   6.119 -0.4000  0.2799  0.0953
   32CHL1   C16 3495   3.534   2.687   5.934  0.5104 -0.0700 -0.0226
   32CHL1  H16A 3496   3.461   2.660   5.855 -0.7952 -3.0283  2.0120
   32CHL1  H16B 3497   3.599   2.771   5.903  0.9801 -0.5531 -0.3582
   32CHL1   C17 3498   3.641   2.574   5.952  0.1385 -0.3329 -0.8296
   32CHL1   H17 3499   3.730   2.623   5.998 -1.2493  1.8915 -0.4094
   32CHL1   C13 3500   3.583   2.478   6.061 -0.5937 -0.6226 -0.4957
   32CHL1   C18 3501   3.451   2.417   6.006 -0.2304 -0.0915 -0.6391
   32CHL1  H18A 3502   3.403   2.363   6.090  2.3095 -0.4317  0.7027
   32CHL1  H18B 3503   3.383   2.492   5.960 -0.3523  0.0421 -0.2464
   32CHL1  H18C 3504   3.480   2.335   5.936 -2.2614 -2.3335  0.9823
   32CHL1   C12 3505   3.686   2.386   6.134  0.4893  0.2072 -0.8453
   32CHL1  H12A 3506   3.704   2.294   6.073  1.2802  0.0391 -0.3695
   32CHL1  H12B 3507   3.782   2.431   6.165  0.0830  1.0924 -0.8488
   32CHL1   C11 3508   3.616   2.340   6.271 -0.2438 -0.3898 -0.3023
   32CHL1  H11A 3509   3.519   2.291   6.248 -1.4538  1.3194  0.9085
   32CHL1  H11B 3510   3.681   2.269   6.326 -0.0826 -0.9080 -1.1518
   32CHL1    C9 3511   3.568   2.456   6.367  0.0682 -0.7046  0.6377
   32CHL1    H9 3512   3.658   2.518   6.384 -0.2092 -0.0719 -0.1203
   32CHL1   C10 3513   3.517   2.423   6.512  0.0568  0.4010  0.6795
   32CHL1   C19 3514   3.422   2.303   6.493 -0.6686  0.1044 -0.0146
   32CHL1  H19A 3515   3.372   2.277   6.589  0.1159 -1.4155  0.0278
   32CHL1  H19B 3516   3.350   2.309   6.409  0.4128  0.6255 -0.9395
   32CHL1  H19C 3517   3.482   2.214   6.463  0.5159  0.9320 -0.1700
   32CHL1    C1 3518   3.641   2.378   6.601 -0.6331 -0.0642  0.6858
   32CHL1   H1A 3519   3.693   2.286   6.566  1.8600 -0.1086  3.9699
   32CHL1   H1B 3520   3.723   2.452   6.586  1.6942 -1.9062  3.2520
   32CHL1    C2 3521   3.616   2.357   6.755  0.6909  0.2863  0.8675
   32CHL1   H2A 3522   3.699   2.325   6.822 -0.6544 -0.8308  2.0779
   32CHL1   H2B 3523   3.542   2.275   6.762  0.8640 -0.0294 -0.5850
   32CHL1   C20 3524   3.677   2.515   5.820 -0.4248  0.1128 -0.0355
   32CHL1   H20 3525   3.618   2.425   5.792  1.2299 -0.4177 -2.1170
   32CHL1   C21 3526   3.830   2.467   5.835  0.0110  0.0483  0.6559
   32CHL1  H21A 3527   3.859   2.426   5.736 -2.2981  0.3569 -0.2323
   32CHL1  H21B 3528   3.853   2.397   5.918  0.7229 -2.5908 -1.6196
   32CHL1  H21C 3529   3.889   2.559   5.852 -0.4344  0.9474 -2.1218
   32CHL1   C22 3530   3.674   2.608   5.694  0.5130 -0.3252  0.0700
   32CHL1  H22A 3531   3.565   2.624   5.680  0.8372  0.4963 -1.9396
   32CHL1  H22B 3532   3.719   2.709   5.701  0.6411 -0.2061 -1.8561
   32CHL1   C23 3533   3.723   2.546   5.567 -0.0041 -0.8234 -0.6842
   32CHL1  H23A 3534   3.834   2.558   5.571 -0.1739  0.7106 -0.2641
   32CHL1  H23B 3535   3.698   2.437   5.570 -1.7535 -0.4555 -0.7960
   32CHL1   C24 3536   3.666   2.605   5.439 -0.3031  0.1426  0.5235
   32CHL1  H24A 3537   3.556   2.620   5.450 -0.1073  3.3672 -0.7461
   32CHL1  H24B 3538   3.718   2.703   5.437  0.3964 -0.2337 -1.1644
   32CHL1   C25 3539   3.698   2.535   5.309 -0.5612 -0.1715  0.9112
   32CHL1   H25 3540   3.670   2.428   5.323  0.0986 -0.1145  3.0827
   32CHL1   C26 3541   3.617   2.579   5.190  0.2204  0.3153 -0.2342
   32CHL1  H26A 3542   3.638   2.513   5.103 -2.1624 -1.3856  0.3782
   32CHL1  H26B 3543   3.509   2.562   5.211  0.6772 -4.0898 -0.4701
   32CHL1  H26C 3544   3.652   2.682   5.167 -0.3479  1.4331  3.2898
   32CHL1   C27 3545   3.852   2.530   5.278  0.2856 -0.6782  0.7663
   32CHL1  H27A 3546   3.874   2.450   5.204 -1.4990  0.8131 -1.5277
   32CHL1  H27B 3547   3.885   2.627   5.234 -2.1527  1.2453  2.9289
   32CHL1  H27C 3548   3.916   2.517   5.368 -0.6378  2.0086  1.9255
   33CHL1    C3 3549   1.976   2.923   6.676 -0.8724  0.5457  0.7838
   33CHL1    H3 3550   1.933   3.011   6.624  2.1150  1.5878 -0.0918
   33CHL1    O3 3551   1.977   2.948   6.816  0.1021  0.3022  0.3557
   33CHL1   H3' 3552   1.986   2.863   6.858 -0.7369  0.4584  0.8723
   33CHL1    C4 3553   1.892   2.800   6.637 -0.4970 -0.3713 -0.2575
   33CHL1   H4A 3554   1.946   2.714   6.682  2.6692  0.6920 -1.7459
   33CHL1   H4B 3555   1.797   2.827   6.688  1.0933  2.2091  1.6419
   33CHL1    C5 3556   1.900   2.793   6.486  0.2106 -0.8094  0.9526
   33CHL1    C6 3557   1.787   2.799   6.416 -0.2057 -0.0615  0.1102
   33CHL1    H6 3558   1.691   2.822   6.464 -1.5341  1.2049 -2.9093
   33CHL1    C7 3559   1.779   2.768   6.266  0.5053 -0.7157  0.3607
   33CHL1   H7A 3560   1.690   2.702   6.255 -0.9180  1.1655  0.0196
   33CHL1   H7B 3561   1.753   2.854   6.201 -0.2348 -0.3869  1.0883
   33CHL1    C8 3562   1.904   2.703   6.212  0.6004 -0.6055 -0.3385
   33CHL1    H8 3563   1.904   2.597   6.244 -1.3264 -0.8375 -1.0075
   33CHL1   C14 3564   1.903   2.708   6.064  0.2760  0.6840  0.3899
   33CHL1   H14 3565   1.916   2.815   6.036  1.5651 -0.0321 -2.0005
   33CHL1   C15 3566   1.779   2.656   5.987  0.1357  0.2239 -0.8060
   33CHL1  H15A 3567   1.736   2.572   6.047  0.4965  0.1040 -0.7126
   33CHL1  H15B 3568   1.704   2.738   5.982 -0.8684 -0.6989 -1.1968
   33CHL1   C16 3569   1.833   2.627   5.850 -0.6272 -0.9436  0.5284
   33CHL1  H16A 3570   1.825   2.518   5.829 -0.9499 -0.8760  0.2718
   33CHL1  H16B 3571   1.785   2.682   5.766 -0.4544 -1.2928  0.1950
   33CHL1   C17 3572   1.981   2.659   5.860 -0.5963 -0.6263  0.1273
   33CHL1   H17 3573   1.977   2.770   5.848 -2.6061 -0.6429  0.2671
   33CHL1   C13 3574   2.024   2.639   6.003 -0.0695 -0.4762  0.8015
   33CHL1   C18 3575   2.042   2.494   6.037  0.0878  0.5731  0.4661
   33CHL1  H18A 3576   1.958   2.436   5.992  0.3291  0.9858 -0.5606
   33CHL1  H18B 3577   2.132   2.447   5.990 -0.7914 -0.1478 -0.5605
   33CHL1  H18C 3578   2.043   2.480   6.147 -0.7750  0.9444  0.5325
   33CHL1   C12 3579   2.148   2.721   6.043 -0.1865 -0.3979 -0.1612
   33CHL1  H12A 3580   2.238   2.662   6.016  0.3394 -1.0093  2.6007
   33CHL1  H12B 3581   2.141   2.824   6.002 -0.2338  0.0188  0.8660
   33CHL1   C11 3582   2.162   2.727   6.196  0.6153 -0.1744 -0.4186
   33CHL1  H11A 3583   2.190   2.627   6.235 -0.0037 -0.0403  0.3986
   33CHL1  H11B 3584   2.239   2.793   6.240  0.6297 -0.5499  0.1196
   33CHL1    C9 3585   2.032   2.767   6.270  0.3256 -0.3545  0.2728
   33CHL1    H9 3586   2.015   2.874   6.247  0.6841 -0.5681 -1.0531
   33CHL1   C10 3587   2.035   2.767   6.422  0.2730  0.1543 -0.4281
   33CHL1   C19 3588   2.107   2.642   6.469  0.0731  0.0849  0.1239
   33CHL1  H19A 3589   2.213   2.649   6.437 -0.5947 -0.7125 -2.5238
   33CHL1  H19B 3590   2.118   2.623   6.578  3.7872  0.3628 -0.0944
   33CHL1  H19C 3591   2.056   2.559   6.416 -0.8606  1.0785 -0.5654
   33CHL1    C1 3592   2.131   2.883   6.472 -0.8156  0.2981  0.1389
   33CHL1   H1A 3593   2.236   2.862   6.443 -0.8829 -2.3358  1.5045
   33CHL1   H1B 3594   2.098   2.980   6.428  0.0018  0.0708 -1.0203
   33CHL1    C2 3595   2.121   2.912   6.623 -0.0735 -0.2770  0.3922
   33CHL1   H2A 3596   2.183   2.999   6.655  2.0368 -1.4626 -0.2991
   33CHL1   H2B 3597   2.171   2.828   6.676  1.4097  1.5172  2.0118
   33CHL1   C20 3598   2.073   2.626   5.736  0.0828  0.0428  0.2513
   33CHL1   H20 3599   2.180   2.648   5.757  0.5411 -1.0327 -0.8750
   33CHL1   C21 3600   2.021   2.710   5.620 -0.8714 -0.3614  0.5538
   33CHL1  H21A 3601   2.076   2.687   5.526 -3.1535 -1.8674 -0.4899
   33CHL1  H21B 3602   2.018   2.820   5.635  2.4040 -0.0316 -0.2751
   33CHL1  H21C 3603   1.923   2.662   5.601 -0.3786 -1.2779  0.2476
   33CHL1   C22 3604   2.076   2.475   5.695 -0.3089  0.5643  0.2326
   33CHL1  H22A 3605   2.089   2.406   5.781  0.1025  2.0360  1.3949
   33CHL1  H22B 3606   1.983   2.454   5.639 -0.3072 -0.5372  0.6148
   33CHL1   C23 3607   2.187   2.458   5.594 -0.4267  0.4151 -0.3678
   33CHL1  H23A 3608   2.153   2.506   5.500 -0.6326  2.5308  0.7363
   33CHL1  H23B 3609   2.270   2.524   5.625  0.7213 -0.8512 -0.6347
   33CHL1   C24 3610   2.232   2.312   5.578 -0.8860  0.3747 -0.0617
   33CHL1  H24A 3611   2.288   2.276   5.667 -1.9710 -0.2914  0.3754
   33CHL1  H24B 3612   2.148   2.240   5.562  1.3765 -2.0671 -1.9117
   33CHL1   C25 3613   2.340   2.298   5.467  0.7229 -0.0874  0.6480
   33CHL1   H25 3614   2.409   2.385   5.473  0.0272  0.6649 -1.4197
   33CHL1   C26 3615   2.425   2.177   5.480 -0.4187 -0.2630  0.9082
   33CHL1  H26A 3616   2.474   2.164   5.382 -1.1085  3.8314 -0.2086
   33CHL1  H26B 3617   2.507   2.192   5.553  1.6429 -1.6134 -1.0194
   33CHL1  H26C 3618   2.365   2.086   5.503  0.0664 -0.7037  0.4463
   33CHL1   C27 3619   2.273   2.305   5.326  0.0574  0.4448 -0.1734
   33CHL1  H27A 3620   2.198   2.224   5.312  0.5271 -0.3475  1.5983
   33CHL1  H27B 3621   2.214   2.398   5.305 -3.3836 -1.6990 -0.8624
   33CHL1  H27C 3622   2.345   2.293   5.243  0.3852 -1.6168  0.3615
   34CHL1    C3 3623   3.516   5.434   6.661  0.0844 -0.3646 -0.4762
   34CHL1    H3 3624   3.487   5.533   6.620  1.3230  0.3428  0.2760
   34CHL1    O3 3625   3.425   5.382   6.755  0.1143  0.4729  0.1161
   34CHL1   H3' 3626   3.418   5.462   6.807 -1.0417  0.0104  0.7123
   34CHL1    C4 3627   3.533   5.327   6.561 -0.4505 -0.2021  0.4426
   34CHL1   H4A 3628   3.568   5.239   6.618  0.8786 -0.4336 -0.6715
   34CHL1   H4B 3629   3.434   5.299   6.519 -0.1956  2.8449 -2.6577
   34CHL1    C5 3630   3.631   5.368   6.454 -0.9341 -0.1117  0.8077
   34CHL1    C6 3631   3.597   5.364   6.325 -0.3558  0.7754  0.2622
   34CHL1    H6 3632   3.496   5.347   6.285  0.2429  0.6190 -1.2434
   34CHL1    C7 3633   3.687   5.401   6.210 -0.5206  0.1897 -0.0474
   34CHL1   H7A 3634   3.666   5.342   6.118 -0.0905  0.9003 -0.6199
   34CHL1   H7B 3635   3.667   5.509   6.189 -0.6019  0.6798  2.2847
   34CHL1    C8 3636   3.841   5.416   6.253 -0.1086  1.1417  0.2807
   34CHL1    H8 3637   3.892   5.318   6.264 -2.2402  0.0833  1.3662
   34CHL1   C14 3638   3.916   5.489   6.138  0.1248 -0.5097  0.1359
   34CHL1   H14 3639   3.860   5.586   6.134  1.3018  0.3450  2.4948
   34CHL1   C15 3640   3.916   5.436   5.998 -0.0201  0.2786  0.5512
   34CHL1  H15A 3641   3.937   5.326   6.002  0.7759  0.4042  0.0154
   34CHL1  H15B 3642   3.828   5.457   5.934  1.4524  0.1194 -1.6456
   34CHL1   C16 3643   4.028   5.505   5.929  0.4804 -0.3398  0.0668
   34CHL1  H16A 3644   4.087   5.437   5.865 -0.6295 -1.0459 -0.2499
   34CHL1  H16B 3645   3.984   5.575   5.855  0.2253  0.4926  0.9766
   34CHL1   C17 3646   4.101   5.587   6.035 -0.1988 -0.3856 -0.1145
   34CHL1   H17 3647   4.060   5.690   6.034  0.5182 -0.0851  0.1892
   34CHL1   C13 3648   4.063   5.525   6.167 -0.0993 -0.0824  0.0426
   34CHL1   C18 3649   4.149   5.399   6.192 -0.7231  0.0143  0.9026
   34CHL1  H18A 3650   4.239   5.426   6.250 -0.0563 -0.5024  0.1279
   34CHL1  H18B 3651   4.092   5.319   6.245  1.2388 -0.5441  2.2923
   34CHL1  H18C 3652   4.181   5.341   6.103  1.8027  3.1268 -0.4145
   34CHL1   C12 3653   4.067   5.602   6.302 -0.1375 -0.5982  0.1676
   34CHL1  H12A 3654   4.169   5.632   6.334  0.2829  0.8593 -2.3195
   34CHL1  H12B 3655   4.010   5.694   6.281 -0.7313 -0.8488  0.6452
   34CHL1   C11 3656   3.994   5.534   6.423  0.7937 -0.0476  0.2978
   34CHL1  H11A 3657   4.042   5.438   6.451 -0.3669 -0.4977  0.8065
   34CHL1  H11B 3658   4.000   5.596   6.516  0.3521 -0.2765  0.4842
   34CHL1    C9 3659   3.849   5.489   6.387  0.8670  0.4768 -0.2355
   34CHL1    H9 3660   3.795   5.585   6.372 -0.7180 -0.5944 -1.7846
   34CHL1   C10 3661   3.768   5.413   6.501 -0.2667 -0.3762 -0.3227
   34CHL1   C19 3662   3.857   5.290   6.546  0.0801 -0.1886 -0.1964
   34CHL1  H19A 3663   3.953   5.323   6.592  0.2988 -0.8377 -0.1800
   34CHL1  H19B 3664   3.799   5.239   6.626  2.8169 -1.5825  1.0481
   34CHL1  H19C 3665   3.884   5.220   6.464  1.0851 -0.6756  0.5253
   34CHL1    C1 3666   3.761   5.518   6.627  0.4937  0.3639  0.8014
   34CHL1   H1A 3667   3.862   5.528   6.674  0.4985  1.7916  0.5502
   34CHL1   H1B 3668   3.725   5.613   6.581 -2.9460 -1.5670 -0.8846
   34CHL1    C2 3669   3.650   5.472   6.731 -1.2602 -0.7029 -0.0606
   34CHL1   H2A 3670   3.626   5.545   6.811 -1.7768 -1.8298  0.8468
   34CHL1   H2B 3671   3.672   5.377   6.784 -0.0648 -0.7979 -0.6879
   34CHL1   C20 3672   4.250   5.602   6.000  0.3005  0.2253 -0.4439
   34CHL1   H20 3673   4.294   5.501   6.011 -0.2214  0.0849  0.4779
   34CHL1   C21 3674   4.324   5.694   6.102 -0.3616  0.1563  0.0097
   34CHL1  H21A 3675   4.363   5.630   6.184 -0.1484 -0.3367 -0.4724
   34CHL1  H21B 3676   4.242   5.759   6.138 -1.1344 -0.1590 -1.1289
   34CHL1  H21C 3677   4.407   5.756   6.063 -0.4580  1.8006  2.2251
   34CHL1   C22 3678   4.269   5.659   5.854  0.2991  0.3740  0.3406
   34CHL1  H22A 3679   4.205   5.599   5.785 -1.8177 -0.3102  2.7202
   34CHL1  H22B 3680   4.223   5.760   5.852 -2.3956 -0.7669 -0.9143
   34CHL1   C23 3681   4.404   5.673   5.796 -0.1208  1.0517  0.3270
   34CHL1  H23A 3682   4.460   5.744   5.860  1.6550 -0.1372  0.1852
   34CHL1  H23B 3683   4.452   5.573   5.808 -1.6536  0.3080  0.4524
   34CHL1   C24 3684   4.395   5.702   5.643  0.2801 -0.0032  0.6853
   34CHL1  H24A 3685   4.339   5.628   5.582  0.8638 -0.7955  1.0783
   34CHL1  H24B 3686   4.346   5.798   5.618  2.1703  0.3351 -2.2128
   34CHL1   C25 3687   4.531   5.729   5.582 -0.8250  0.1583  0.1721
   34CHL1   H25 3688   4.582   5.814   5.632  1.8877 -0.7421 -0.8975
   34CHL1   C26 3689   4.628   5.604   5.598  0.0960  0.1499 -0.2079
   34CHL1  H26A 3690   4.718   5.613   5.532  1.3059  0.1168  1.3687
   34CHL1  H26B 3691   4.657   5.595   5.705 -0.6011 -1.6250 -0.1375
   34CHL1  H26C 3692   4.578   5.509   5.572 -0.2053 -0.4624  2.3306
   34CHL1   C27 3693   4.525   5.752   5.426  0.5070 -0.5567 -0.3516
   34CHL1  H27A 3694   4.624   5.749   5.375  1.5052 -0.5061  1.4981
   34CHL1  H27B 3695   4.466   5.673   5.375  0.5163  0.4060 -1.9139
   34CHL1  H27C 3696   4.484   5.854   5.408  1.0491 -0.4532 -1.0647
   35CHL1    C3 3697   4.253   6.702   6.642  0.0097  0.6498 -0.6649
   35CHL1    H3 3698   4.159   6.755   6.614 -4.0908 -4.0389  2.3473
   35CHL1    O3 3699   4.275   6.710   6.786 -0.4066 -0.0977  0.4550
   35CHL1   H3' 3700   4.359   6.664   6.796  0.2259  1.1740  1.2691
   35CHL1    C4 3701   4.237   6.553   6.601  0.4403 -0.3899 -0.7081
   35CHL1   H4A 3702   4.331   6.495   6.618  1.1012 -0.9879 -5.1166
   35CHL1   H4B 3703   4.155   6.510   6.661 -0.0809  1.1978 -0.2347
   35CHL1    C5 3704   4.214   6.548   6.454  0.2868 -0.0326  0.3123
   35CHL1    C6 3705   4.106   6.489   6.406 -0.1184 -0.4036  0.9152
   35CHL1    H6 3706   4.036   6.440   6.475 -1.5832 -0.0026 -0.2301
   35CHL1    C7 3707   4.082   6.476   6.257 -0.1970 -0.1819  0.3585
   35CHL1   H7A 3708   4.051   6.370   6.247 -0.9142  0.1170 -0.7803
   35CHL1   H7B 3709   4.001   6.544   6.225  0.9167  0.7242 -0.6286
   35CHL1    C8 3710   4.206   6.497   6.166 -0.1617 -0.1385 -0.1797
   35CHL1    H8 3711   4.279   6.414   6.179 -0.1369 -0.3868 -1.7323
   35CHL1   C14 3712   4.162   6.507   6.026  0.0133 -0.3819  0.4285
   35CHL1   H14 3713   4.090   6.592   6.036 -0.4175 -0.4261 -1.6886
   35CHL1   C15 3714   4.079   6.395   5.956  0.1941 -0.4333 -0.3344
   35CHL1  H15A 3715   4.144   6.305   5.964 -1.2393 -1.6060 -1.3501
   35CHL1  H15B 3716   3.983   6.373   6.006  0.7137 -0.3949  0.7129
   35CHL1   C16 3717   4.083   6.417   5.804  0.8036 -0.2387  0.0642
   35CHL1  H16A 3718   4.144   6.336   5.759  3.4124  0.6620  1.7563
   35CHL1  H16B 3719   3.984   6.434   5.756 -0.1493 -0.8820  1.7239
   35CHL1   C17 3720   4.151   6.556   5.800  0.0968 -0.0327  0.1338
   35CHL1   H17 3721   4.078   6.634   5.832  1.5122  0.9414  1.1070
   35CHL1   C13 3722   4.260   6.557   5.920  0.0342 -0.4496  0.0469
   35CHL1   C18 3723   4.371   6.454   5.890 -0.1591  0.0042 -1.1941
   35CHL1  H18A 3724   4.316   6.368   5.845 -2.1878  1.4394 -1.6273
   35CHL1  H18B 3725   4.433   6.512   5.818 -0.0829 -1.4572 -2.3632
   35CHL1  H18C 3726   4.432   6.415   5.974 -0.8393 -2.5071 -1.7739
   35CHL1   C12 3727   4.322   6.689   5.973  0.5902 -0.4066 -0.3499
   35CHL1  H12A 3728   4.393   6.709   5.890 -0.8262 -1.5722 -1.9216
   35CHL1  H12B 3729   4.237   6.760   5.982  0.1947 -1.0707  1.4898
   35CHL1   C11 3730   4.385   6.672   6.110  0.2736 -0.5682  0.0604
   35CHL1  H11A 3731   4.467   6.597   6.110 -0.2816 -1.3348  3.1573
   35CHL1  H11B 3732   4.420   6.771   6.147 -1.0039 -0.3327  0.6685
   35CHL1    C9 3733   4.275   6.617   6.213 -0.3803  0.5726  0.4477
   35CHL1    H9 3734   4.195   6.693   6.207 -1.5967 -0.6678  0.3753
   35CHL1   C10 3735   4.325   6.613   6.363  0.1806  0.2403 -0.0370
   35CHL1   C19 3736   4.457   6.524   6.373 -0.6610  0.2148  0.4208
   35CHL1  H19A 3737   4.451   6.439   6.301  2.5651 -0.1192  0.4067
   35CHL1  H19B 3738   4.537   6.587   6.329 -0.1501 -0.7430 -0.0456
   35CHL1  H19C 3739   4.496   6.491   6.472 -0.0709  0.7082  0.3581
   35CHL1    C1 3740   4.342   6.755   6.414 -0.0697 -0.0383 -1.2415
   35CHL1   H1A 3741   4.419   6.809   6.355  0.1436 -0.7095 -1.5912
   35CHL1   H1B 3742   4.249   6.814   6.409  0.2290  1.1074  2.8890
   35CHL1    C2 3743   4.373   6.766   6.563  0.1409 -0.2009 -0.0220
   35CHL1   H2A 3744   4.386   6.874   6.587  2.0353 -0.1290 -1.1447
   35CHL1   H2B 3745   4.462   6.704   6.587 -1.4092 -1.7309  2.1693
   35CHL1   C20 3746   4.207   6.597   5.662 -0.5238 -0.0428 -0.4409
   35CHL1   H20 3747   4.313   6.564   5.651 -0.9582 -1.0043 -2.0186
   35CHL1   C21 3748   4.211   6.751   5.658 -0.5805  0.5186  0.6419
   35CHL1  H21A 3749   4.106   6.790   5.654  0.7596  4.5134 -1.6580
   35CHL1  H21B 3750   4.263   6.798   5.572  0.6567 -0.6946  0.6993
   35CHL1  H21C 3751   4.258   6.789   5.751  0.3560  0.4517  0.1987
   35CHL1   C22 3752   4.125   6.538   5.550  0.3924 -0.3104 -0.1472
   35CHL1  H22A 3753   4.135   6.427   5.551  2.1603 -0.1933 -0.5252
   35CHL1  H22B 3754   4.019   6.569   5.558  0.2367 -0.2771 -1.9617
   35CHL1   C23 3755   4.174   6.581   5.409  0.2422  0.4190  0.1715
   35CHL1  H23A 3756   4.172   6.688   5.381 -0.0762 -0.3599 -3.2178
   35CHL1  H23B 3757   4.280   6.550   5.397  0.3486  0.4336  0.9868
   35CHL1   C24 3758   4.094   6.508   5.295  0.7906 -0.0531  0.1013
   35CHL1  H24A 3759   4.114   6.402   5.321 -0.3134 -0.1972  0.3855
   35CHL1  H24B 3760   3.985   6.527   5.304  0.4950 -0.2157 -2.3118
   35CHL1   C25 3761   4.143   6.539   5.156 -0.0771 -0.6099  0.4848
   35CHL1   H25 3762   4.112   6.642   5.127 -0.2813 -1.1337 -1.2831
   35CHL1   C26 3763   4.290   6.526   5.131 -0.5152  0.0760 -0.2636
   35CHL1  H26A 3764   4.333   6.424   5.139 -0.2448  0.3135  2.4224
   35CHL1  H26B 3765   4.305   6.563   5.027  1.5780 -0.3200 -0.1534
   35CHL1  H26C 3766   4.348   6.596   5.195 -0.2485  2.1526 -2.6340
   35CHL1   C27 3767   4.072   6.436   5.056 -0.1482  0.2660  0.2032
   35CHL1  H27A 3768   3.962   6.421   5.070 -0.1022 -1.2684 -0.7887
   35CHL1  H27B 3769   4.090   6.463   4.950  1.2811 -1.9718 -0.1776
   35CHL1  H27C 3770   4.116   6.335   5.071 -1.7825 -0.3467  1.2201
   36CHL1    C3 3771   1.885   4.750   6.950 -1.1272 -0.1786 -0.3411
   36CHL1    H3 3772   1.948   4.658   6.952 -0.3900  0.2686  2.5580
   36CHL1    O3 3773   1.859   4.784   7.082 -0.4192 -0.0986 -0.4471
   36CHL1   H3' 3774   1.869   4.880   7.090  1.7717 -0.2982 -0.0740
   36CHL1    C4 3775   1.980   4.861   6.884  0.4309 -0.1077  0.0595
   36CHL1   H4A 3776   1.927   4.959   6.891  0.1052 -0.2850  0.1057
   36CHL1   H4B 3777   2.072   4.873   6.945  0.3757 -0.2167  0.1650
   36CHL1    C5 3778   2.004   4.841   6.737 -0.0363 -0.9183  0.2838
   36CHL1    C6 3779   2.132   4.844   6.686  0.2989  0.3109  0.1735
   36CHL1    H6 3780   2.220   4.851   6.751  0.0629  2.0833  0.3576
   36CHL1    C7 3781   2.155   4.836   6.537 -0.6162  0.0857 -0.7268
   36CHL1   H7A 3782   2.211   4.927   6.507  0.1140  0.8342  2.5434
   36CHL1   H7B 3783   2.225   4.753   6.512 -2.5281 -1.5168 -0.9820
   36CHL1    C8 3784   2.032   4.822   6.448 -0.2436  0.2170  0.1633
   36CHL1    H8 3785   1.990   4.924   6.436 -1.9338 -0.1508  2.2242
   36CHL1   C14 3786   2.069   4.749   6.323  0.4897 -0.9889 -0.1279
   36CHL1   H14 3787   2.094   4.643   6.343 -1.8722 -1.5807 -0.0517
   36CHL1   C15 3788   2.195   4.807   6.254 -0.2677  0.2692  0.1355
   36CHL1  H15A 3789   2.204   4.918   6.258  1.8793  0.1018  1.6055
   36CHL1  H15B 3790   2.273   4.756   6.313 -0.4411 -1.0361 -0.7318
   36CHL1   C16 3791   2.181   4.756   6.113 -0.0156 -0.0667  0.6325
   36CHL1  H16A 3792   2.192   4.849   6.053 -0.1260 -0.4443  0.0228
   36CHL1  H16B 3793   2.260   4.682   6.090  1.1322  1.1852  0.4205
   36CHL1   C17 3794   2.037   4.696   6.096 -0.1546 -0.2863 -0.4427
   36CHL1   H17 3795   2.060   4.588   6.106  0.7618 -0.1704 -1.2151
   36CHL1   C13 3796   1.956   4.747   6.224  0.2716 -0.4292  0.7994
   36CHL1   C18 3797   1.898   4.892   6.206 -0.2692  0.7693  1.1961
   36CHL1  H18A 3798   1.820   4.893   6.126  0.2355 -1.1157  0.6169
   36CHL1  H18B 3799   1.849   4.936   6.296  1.6942  1.2521  2.0685
   36CHL1  H18C 3800   1.978   4.962   6.175  1.0439 -0.4671  1.6930
   36CHL1   C12 3801   1.847   4.652   6.292 -0.3291 -0.1900  0.0378
   36CHL1  H12A 3802   1.759   4.656   6.225  0.0886 -0.4871 -0.5372
   36CHL1  H12B 3803   1.893   4.551   6.299  1.8215  0.7905  1.3830
   36CHL1   C11 3804   1.803   4.697   6.432  0.2565 -0.2113 -0.4486
   36CHL1  H11A 3805   1.742   4.789   6.422 -0.4581 -0.2175  2.9487
   36CHL1  H11B 3806   1.752   4.612   6.480  0.4819 -0.4949 -0.7069
   36CHL1    C9 3807   1.925   4.739   6.520 -0.2411 -1.0931 -0.0668
   36CHL1    H9 3808   1.977   4.644   6.547 -0.4000 -0.4611  2.8634
   36CHL1   C10 3809   1.881   4.800   6.653 -0.0911  0.3423 -0.4054
   36CHL1   C19 3810   1.804   4.936   6.640  0.3085 -0.1015 -0.2258
   36CHL1  H19A 3811   1.857   5.015   6.583  0.7925 -1.7766 -2.2222
   36CHL1  H19B 3812   1.703   4.913   6.600  0.0767  1.7876 -0.8114
   36CHL1  H19C 3813   1.784   4.981   6.740 -1.9068  1.1053 -1.1615
   36CHL1    C1 3814   1.791   4.698   6.728 -0.2341  0.4029  0.7521
   36CHL1   H1A 3815   1.695   4.689   6.673 -0.4889 -1.0798  1.3804
   36CHL1   H1B 3816   1.843   4.600   6.733 -0.0907  0.2906 -1.6769
   36CHL1    C2 3817   1.756   4.733   6.869 -0.6345 -0.2471 -0.5638
   36CHL1   H2A 3818   1.707   4.645   6.917  0.6519  0.1129  1.5293
   36CHL1   H2B 3819   1.690   4.821   6.884 -0.5011 -0.2035 -0.2301
   36CHL1   C20 3820   1.975   4.717   5.961  0.0357  0.6656 -0.5313
   36CHL1   H20 3821   1.961   4.827   5.951 -1.7660  0.6605  1.2845
   36CHL1   C21 3822   1.847   4.641   5.937 -0.1687  0.2134 -0.5920
   36CHL1  H21A 3823   1.765   4.661   6.009 -0.3491 -2.6136  0.0814
   36CHL1  H21B 3824   1.859   4.532   5.951 -1.8759 -0.0381 -0.9052
   36CHL1  H21C 3825   1.811   4.659   5.833 -1.4888 -0.2101 -0.2252
   36CHL1   C22 3826   2.080   4.686   5.843 -0.0507 -0.4648 -0.8264
   36CHL1  H22A 3827   2.173   4.742   5.866 -0.5864  0.5802 -1.1364
   36CHL1  H22B 3828   2.116   4.581   5.855  1.4203  0.2335  1.7283
   36CHL1   C23 3829   2.041   4.739   5.703  0.6169  0.0892  0.2304
   36CHL1  H23A 3830   1.940   4.704   5.673  0.3522  0.7831  0.2834
   36CHL1  H23B 3831   2.027   4.849   5.707  1.3498  0.1978 -0.1226
   36CHL1   C24 3832   2.144   4.702   5.594  0.2192 -0.9012  0.0533
   36CHL1  H24A 3833   2.237   4.748   5.634 -0.1989 -1.5869  1.8988
   36CHL1  H24B 3834   2.148   4.591   5.594 -0.4068 -0.9284 -0.2763
   36CHL1   C25 3835   2.108   4.743   5.447 -0.0726 -0.5812 -0.2205
   36CHL1   H25 3836   2.078   4.850   5.450  1.4748 -0.1050 -0.5110
   36CHL1   C26 3837   2.225   4.752   5.348 -0.3128 -0.3706 -0.3844
   36CHL1  H26A 3838   2.194   4.792   5.249 -1.2869 -1.4692 -0.5494
   36CHL1  H26B 3839   2.301   4.827   5.381  1.0520 -0.5717 -2.8502
   36CHL1  H26C 3840   2.276   4.656   5.323  0.3070 -0.3465  0.7045
   36CHL1   C27 3841   1.990   4.665   5.391  0.3564 -0.0995  0.7412
   36CHL1  H27A 3842   2.040   4.588   5.329 -0.7514 -2.1880  2.3246
   36CHL1  H27B 3843   1.922   4.612   5.461 -0.2861 -2.4821 -1.5199
   36CHL1  H27C 3844   1.934   4.732   5.323  1.0847 -0.1992  0.0281
   37CHL1    C3 3845   1.127   6.691   6.663  0.5768  0.0423 -0.3798
   37CHL1    H3 3846   1.147   6.602   6.726 -3.0375  0.0113  0.9652
   37CHL1    O3 3847   1.081   6.794   6.749  0.5170  0.1211  0.5354
   37CHL1   H3' 3848   1.106   6.877   6.708 -0.9021  1.1278  1.6032
   37CHL1    C4 3849   1.258   6.752   6.596  0.2890 -0.0930  0.4372
   37CHL1   H4A 3850   1.236   6.852   6.555  0.6383 -0.3686 -0.4645
   37CHL1   H4B 3851   1.324   6.782   6.680 -1.1346  1.7854  0.9279
   37CHL1    C5 3852   1.320   6.670   6.482  0.1711 -0.0617  0.0524
   37CHL1    C6 3853   1.443   6.625   6.482 -0.1724  0.5965 -0.0000
   37CHL1    H6 3854   1.515   6.659   6.559 -1.5364  2.3385  0.5652
   37CHL1    C7 3855   1.500   6.548   6.366 -0.2257 -0.9604  0.2180
   37CHL1   H7A 3856   1.597   6.598   6.342 -0.4153 -0.0562  1.2385
   37CHL1   H7B 3857   1.516   6.442   6.392 -0.7392 -0.9644  0.5333
   37CHL1    C8 3858   1.410   6.566   6.237 -0.1906  0.1660  0.3676
   37CHL1    H8 3859   1.416   6.671   6.200 -1.9359  0.1510 -0.0486
   37CHL1   C14 3860   1.463   6.477   6.119  0.2018  0.4140  0.3367
   37CHL1   H14 3861   1.480   6.375   6.159  1.5549  1.3534  2.3000
   37CHL1   C15 3862   1.601   6.498   6.064 -0.0148 -0.6613  0.5348
   37CHL1  H15A 3863   1.618   6.607   6.052 -0.2938 -0.4444  1.9518
   37CHL1  H15B 3864   1.677   6.450   6.128  0.0677  1.0922  1.8308
   37CHL1   C16 3865   1.602   6.432   5.931 -0.8199 -0.2030 -0.0877
   37CHL1  H16A 3866   1.628   6.496   5.845 -0.2789  0.8575  0.8397
   37CHL1  H16B 3867   1.686   6.360   5.938  0.7553  1.5997  0.4039
   37CHL1   C17 3868   1.464   6.367   5.908 -1.3727 -0.6230  0.3128
   37CHL1   H17 3869   1.459   6.267   5.956 -0.1701 -1.5610 -1.4416
   37CHL1   C13 3870   1.377   6.465   5.999  0.5748 -0.1839  0.0935
   37CHL1   C18 3871   1.358   6.604   5.930 -0.1791 -0.4005  0.2806
   37CHL1  H18A 3872   1.328   6.681   6.005  1.3428  2.2859 -1.6968
   37CHL1  H18B 3873   1.448   6.636   5.873 -1.4869  0.0799 -1.5887
   37CHL1  H18C 3874   1.276   6.607   5.855  1.1500 -0.0512 -1.1998
   37CHL1   C12 3875   1.244   6.405   6.048 -0.4907 -0.1001  0.5075
   37CHL1  H12A 3876   1.174   6.385   5.964 -0.5646 -0.9206  0.7552
   37CHL1  H12B 3877   1.253   6.306   6.098 -2.8658 -1.3793 -1.3860
   37CHL1   C11 3878   1.184   6.500   6.152  0.4639 -0.2804  0.0493
   37CHL1  H11A 3879   1.158   6.599   6.107  1.7736  0.8620  1.6715
   37CHL1  H11B 3880   1.088   6.447   6.171 -0.2375  0.4246 -1.3272
   37CHL1    C9 3881   1.270   6.525   6.279 -0.0341  0.5254 -0.7672
   37CHL1    H9 3882   1.275   6.433   6.341  0.0328  0.5344 -0.7585
   37CHL1   C10 3883   1.214   6.634   6.375  0.1425  0.0148 -0.1413
   37CHL1   C19 3884   1.176   6.751   6.295 -0.1104 -0.3843  0.1838
   37CHL1  H19A 3885   1.143   6.842   6.350  0.9129  1.0457 -1.4762
   37CHL1  H19B 3886   1.244   6.785   6.213 -1.3551  1.3895 -0.1755
   37CHL1  H19C 3887   1.093   6.719   6.229  0.7702 -2.5527  0.0446
   37CHL1    C1 3888   1.089   6.568   6.445 -0.8965 -0.0790  0.3813
   37CHL1   H1A 3889   1.011   6.544   6.369  0.1994 -0.2681 -0.7237
   37CHL1   H1B 3890   1.120   6.472   6.490 -0.1712  0.4627  1.0711
   37CHL1    C2 3891   1.022   6.651   6.554  0.6530 -0.0542 -0.1939
   37CHL1   H2A 3892   0.937   6.594   6.597 -0.1324  2.3253  1.6495
   37CHL1   H2B 3893   0.973   6.744   6.518 -2.0026 -2.0779 -2.2001
   37CHL1   C20 3894   1.428   6.346   5.759  0.3121  0.1139 -0.1658
   37CHL1   H20 3895   1.438   6.440   5.702  0.6034  1.2061  1.6094
   37CHL1   C21 3896   1.292   6.274   5.742  0.7041 -0.3555 -0.4645
   37CHL1  H21A 3897   1.211   6.348   5.759  1.4153  0.5211 -0.8405
   37CHL1  H21B 3898   1.284   6.190   5.815 -3.2206 -1.0190 -1.4544
   37CHL1  H21C 3899   1.278   6.218   5.647  0.7204  0.6927 -1.1041
   37CHL1   C22 3900   1.538   6.259   5.697 -0.5214 -0.3568  0.3310
   37CHL1  H22A 3901   1.514   6.231   5.593  2.2693 -0.3719 -0.3819
   37CHL1  H22B 3902   1.633   6.315   5.691 -0.3173 -0.7368 -0.0079
   37CHL1   C23 3903   1.573   6.125   5.756 -0.4793 -1.1264 -0.1677
   37CHL1  H23A 3904   1.632   6.137   5.849 -0.6020  1.7207 -0.3530
   37CHL1  H23B 3905   1.476   6.078   5.781 -1.5867  1.6816  1.2512
   37CHL1   C24 3906   1.638   6.025   5.655  0.1213 -0.8142  0.0539
   37CHL1  H24A 3907   1.650   5.931   5.713 -0.6073 -0.3755  0.9497
   37CHL1  H24B 3908   1.568   6.010   5.571 -2.8757 -2.4689  2.6143
   37CHL1   C25 3909   1.768   6.067   5.595 -0.0628 -0.1069  1.2626
   37CHL1   H25 3910   1.751   6.168   5.551  1.4270  0.5706  2.1783
   37CHL1   C26 3911   1.880   6.099   5.700  0.5782 -0.2776 -0.1382
   37CHL1  H26A 3912   1.959   6.157   5.648  0.7641 -0.9694 -0.6486
   37CHL1  H26B 3913   1.832   6.160   5.779 -2.2140 -0.0062 -1.9201
   37CHL1  H26C 3914   1.921   6.001   5.732  0.0580 -0.2694  0.5748
   37CHL1   C27 3915   1.826   5.971   5.488 -0.7196 -0.6584  0.0482
   37CHL1  H27A 3916   1.914   6.020   5.441 -1.1934 -1.6962 -2.0256
   37CHL1  H27B 3917   1.862   5.879   5.538 -0.3474 -0.0261  0.9763
   37CHL1  H27C 3918   1.756   5.952   5.404 -1.3022 -3.1210  0.9976
   38CHL1    C3 3919   4.608   1.672   6.988 -0.5582  0.0718  0.5547
   38CHL1    H3 3920   4.652   1.571   6.977 -0.7557  0.0947 -0.5495
   38CHL1    O3 3921   4.618   1.716   7.129  0.0596 -0.0553 -0.1376
   38CHL1   H3' 3922   4.531   1.745   7.156  0.1407  1.3182 -1.2354
   38CHL1    C4 3923   4.677   1.768   6.891  0.6426  0.2100 -0.0451
   38CHL1   H4A 3924   4.644   1.869   6.924 -1.3978 -0.1865 -0.7234
   38CHL1   H4B 3925   4.786   1.756   6.910  0.6556  1.8538  1.1705
   38CHL1    C5 3926   4.643   1.751   6.741 -0.1521  0.0226 -0.6523
   38CHL1    C6 3927   4.734   1.760   6.651 -0.5549  0.3681 -0.2910
   38CHL1    H6 3928   4.833   1.786   6.691 -1.6068  1.9465  1.4933
   38CHL1    C7 3929   4.716   1.738   6.503 -0.2966 -0.4033 -0.7006
   38CHL1   H7A 3930   4.776   1.812   6.447 -1.8744  0.3260 -1.4872
   38CHL1   H7B 3931   4.754   1.637   6.476  1.3743  0.8492 -3.3740
   38CHL1    C8 3932   4.571   1.770   6.464 -0.2856 -0.5820 -0.2373
   38CHL1    H8 3933   4.560   1.880   6.477  0.2100 -0.2113 -2.4539
   38CHL1   C14 3934   4.539   1.733   6.323 -0.1191 -0.2095 -0.2189
   38CHL1   H14 3935   4.560   1.625   6.309  2.3760  0.3494 -1.3610
   38CHL1   C15 3936   4.634   1.787   6.209  0.6518  0.8687  0.7490
   38CHL1  H15A 3937   4.660   1.895   6.209 -2.2169  1.6675 -1.4671
   38CHL1  H15B 3938   4.729   1.731   6.198  1.4229  2.4806 -1.3710
   38CHL1   C16 3939   4.550   1.750   6.083  0.7219  0.1233  0.3438
   38CHL1  H16A 3940   4.531   1.846   6.031 -0.3323 -0.0670  0.3617
   38CHL1  H16B 3941   4.599   1.673   6.020 -4.4129 -1.6800 -1.9888
   38CHL1   C17 3942   4.407   1.700   6.128  0.1345 -0.2528  0.2333
   38CHL1   H17 3943   4.411   1.590   6.144 -0.9888 -0.4271 -0.5194
   38CHL1   C13 3944   4.401   1.761   6.273 -0.2247 -0.0802  0.5807
   38CHL1   C18 3945   4.381   1.919   6.269 -0.0649 -0.1673  0.5195
   38CHL1  H18A 3946   4.359   1.953   6.372 -1.2737 -0.2562  0.3029
   38CHL1  H18B 3947   4.469   1.969   6.222  1.4029 -1.8391  1.3782
   38CHL1  H18C 3948   4.305   1.945   6.192  2.2803  2.5287 -1.0731
   38CHL1   C12 3949   4.294   1.698   6.364  0.3795 -0.4846  0.1859
   38CHL1  H12A 3950   4.191   1.730   6.336  1.3409  3.9687  0.9734
   38CHL1  H12B 3951   4.305   1.592   6.334  0.0363  0.1776 -2.4802
   38CHL1   C11 3952   4.314   1.731   6.513  0.9527  0.5528  0.1166
   38CHL1  H11A 3953   4.288   1.837   6.536  1.5454  0.7560 -0.1473
   38CHL1  H11B 3954   4.260   1.665   6.585  2.4414  0.1961  0.9597
   38CHL1    C9 3955   4.459   1.718   6.562 -0.2605 -0.3260 -0.2615
   38CHL1    H9 3956   4.473   1.608   6.555 -1.9146 -0.5479 -0.4870
   38CHL1   C10 3957   4.491   1.742   6.713  0.0510 -0.0540  0.5376
   38CHL1   C19 3958   4.417   1.875   6.743 -0.6512 -0.0278 -0.0894
   38CHL1  H19A 3959   4.306   1.868   6.742 -0.6210 -0.6459 -1.6453
   38CHL1  H19B 3960   4.441   1.920   6.842 -1.4923 -0.8728  0.5224
   38CHL1  H19C 3961   4.447   1.953   6.670  0.6535 -1.4116 -1.0753
   38CHL1    C1 3962   4.442   1.626   6.803 -0.4955 -0.3406 -0.7279
   38CHL1   H1A 3963   4.331   1.628   6.794 -0.8735 -1.2806  2.6562
   38CHL1   H1B 3964   4.481   1.525   6.778 -0.7099 -0.8629  0.9787
   38CHL1    C2 3965   4.462   1.656   6.952  0.6253 -1.2368  0.4947
   38CHL1   H2A 3966   4.417   1.584   7.023 -2.1999  2.3276  2.6983
   38CHL1   H2B 3967   4.408   1.752   6.970  4.3100  1.1517  0.0689
   38CHL1   C20 3968   4.302   1.729   6.023  0.5050 -0.4908 -0.0162
   38CHL1   H20 3969   4.297   1.839   6.004  3.0546 -0.4335 -0.7785
   38CHL1   C21 3970   4.163   1.679   6.052 -0.0797  0.2837 -0.1560
   38CHL1  H21A 3971   4.115   1.739   6.132  1.6865  0.3663  0.8901
   38CHL1  H21B 3972   4.165   1.568   6.058 -0.3622  0.2397 -0.8115
   38CHL1  H21C 3973   4.104   1.693   5.959  0.6084 -0.7265 -0.7643
   38CHL1   C22 3974   4.338   1.668   5.882  0.1428  0.3604 -0.2685
   38CHL1  H22A 3975   4.265   1.704   5.807 -1.0853  0.3406  0.8702
   38CHL1  H22B 3976   4.432   1.711   5.841  1.8249 -2.2408  0.5840
   38CHL1   C23 3977   4.357   1.517   5.875  0.3343  0.2922 -0.4741
   38CHL1  H23A 3978   4.443   1.492   5.940  2.4730  0.5748 -3.0079
   38CHL1  H23B 3979   4.268   1.462   5.913  2.5407 -3.2025  0.1526
   38CHL1   C24 3980   4.375   1.471   5.728 -0.1753 -0.2460 -0.5346
   38CHL1  H24A 3981   4.278   1.479   5.674 -0.4831  1.9137  0.2426
   38CHL1  H24B 3982   4.434   1.548   5.672  0.9585  0.3516  1.3841
   38CHL1   C25 3983   4.440   1.330   5.711  0.3458  0.0302  0.0007
   38CHL1   H25 3984   4.528   1.315   5.777  1.6567 -0.3817 -1.7772
   38CHL1   C26 3985   4.332   1.222   5.737 -0.3569  0.2374  0.2525
   38CHL1  H26A 3986   4.380   1.123   5.718  1.0655  1.1584 -1.2913
   38CHL1  H26B 3987   4.290   1.230   5.839  0.1905  2.6012  0.3458
   38CHL1  H26C 3988   4.254   1.245   5.661 -0.2682 -0.4827 -0.0676
   38CHL1   C27 3989   4.498   1.302   5.569 -0.3011 -0.3381 -0.1453
   38CHL1  H27A 3990   4.546   1.202   5.564 -1.6723 -0.9779 -1.3289
   38CHL1  H27B 3991   4.421   1.307   5.489 -0.7089  1.8358  0.3128
   38CHL1  H27C 3992   4.577   1.380   5.556 -0.0698 -0.4470  0.6092
   39CHL1    C3 3993   6.266   0.540   3.478  0.3060  0.2397 -0.1363
   39CHL1    H3 3994   6.364   0.544   3.529  0.0720  1.7549  0.2441
   39CHL1    O3 3995   6.286   0.523   3.336 -0.6195  0.2023 -0.3429
   39CHL1   H3' 3996   6.198   0.511   3.301 -0.2510 -1.9496 -0.6863
   39CHL1    C4 3997   6.180   0.425   3.541  0.6800 -0.0340  0.0391
   39CHL1   H4A 3998   6.090   0.409   3.478  2.0115 -0.4358 -1.8524
   39CHL1   H4B 3999   6.246   0.337   3.525  0.5339 -0.2844  0.7862
   39CHL1    C5 4000   6.149   0.455   3.688 -0.2125  0.4462  0.7774
   39CHL1    C6 4001   6.176   0.363   3.780 -0.2865 -0.2264  0.2118
   39CHL1    H6 4002   6.201   0.259   3.751  0.8808 -0.2782  1.3380
   39CHL1    C7 4003   6.152   0.383   3.929 -0.1775  0.4830 -0.4440
   39CHL1   H7A 4004   6.093   0.295   3.962  0.0422 -0.3073 -2.1049
   39CHL1   H7B 4005   6.245   0.384   3.989  0.1827 -0.4934 -0.9798
   39CHL1    C8 4006   6.058   0.500   3.957 -0.1851  0.1557 -0.3865
   39CHL1    H8 4007   5.957   0.475   3.919  0.7496 -3.2747 -0.9897
   39CHL1   C14 4008   6.049   0.521   4.108 -0.3327 -0.2659 -0.1474
   39CHL1   H14 4009   6.147   0.559   4.142 -0.4144  1.4618 -1.6750
   39CHL1   C15 4010   6.024   0.410   4.209  0.2960 -0.2237  0.9023
   39CHL1  H15A 4011   5.951   0.337   4.167  1.5286 -0.0076 -1.8980
   39CHL1  H15B 4012   6.121   0.357   4.217  1.7561  1.8484 -1.5998
   39CHL1   C16 4013   5.987   0.483   4.335 -0.2726  0.1635  0.3803
   39CHL1  H16A 4014   5.893   0.437   4.371  0.8266 -1.2294  1.6326
   39CHL1  H16B 4015   6.065   0.487   4.415  0.3654  1.2216 -0.2786
   39CHL1   C17 4016   5.964   0.631   4.298 -0.5913  0.4315  0.4298
   39CHL1   H17 4017   6.060   0.678   4.329  1.5837 -2.1666 -1.7980
   39CHL1   C13 4018   5.960   0.644   4.143 -0.7207 -0.6300 -0.5936
   39CHL1   C18 4019   5.815   0.620   4.090 -0.2324  0.0809  0.4202
   39CHL1  H18A 4020   5.793   0.521   4.137  2.4616 -0.0564  1.5417
   39CHL1  H18B 4021   5.745   0.704   4.112  0.8041  1.3821 -1.0101
   39CHL1  H18C 4022   5.816   0.617   3.979  0.6502 -0.8964  0.4413
   39CHL1   C12 4023   6.019   0.770   4.073 -0.1025  0.3387 -0.2574
   39CHL1  H12A 4024   5.965   0.859   4.111 -1.9251 -1.1752  0.8989
   39CHL1  H12B 4025   6.126   0.782   4.101 -0.2945  1.9182 -0.1443
   39CHL1   C11 4026   6.033   0.754   3.920  0.4312 -0.3972  0.2634
   39CHL1  H11A 4027   5.931   0.761   3.877  0.6202  2.9125  0.1135
   39CHL1  H11B 4028   6.083   0.844   3.880 -0.6831 -0.6571 -1.8811
   39CHL1    C9 4029   6.108   0.624   3.879  0.1894 -0.6380 -0.1423
   39CHL1    H9 4030   6.217   0.631   3.902  0.4053  0.5011 -1.3632
   39CHL1   C10 4031   6.104   0.593   3.725  0.0103  0.5087  0.4587
   39CHL1   C19 4032   5.953   0.613   3.673 -0.4606 -0.1346 -0.0946
   39CHL1  H19A 4033   5.876   0.556   3.730 -2.3259  2.3745  0.1228
   39CHL1  H19B 4034   5.918   0.718   3.685 -1.0494 -0.3301 -0.0464
   39CHL1  H19C 4035   5.943   0.590   3.565  0.6300  1.6019 -0.6087
   39CHL1    C1 4036   6.183   0.706   3.650  0.0111  0.5136  0.2468
   39CHL1   H1A 4037   6.130   0.803   3.664 -2.6226 -0.7821 -0.1625
   39CHL1   H1B 4038   6.282   0.718   3.698  0.0287 -0.1797  0.3926
   39CHL1    C2 4039   6.204   0.679   3.495 -0.3116 -0.1452 -0.2028
   39CHL1   H2A 4040   6.266   0.762   3.454  1.9084 -1.1138  0.9970
   39CHL1   H2B 4041   6.104   0.680   3.448 -0.6603 -1.4606  0.4749
   39CHL1   C20 4042   5.846   0.689   4.377 -0.2189  0.4382 -0.1583
   39CHL1   H20 4043   5.751   0.637   4.350  0.5384 -2.1813  1.7452
   39CHL1   C21 4044   5.835   0.840   4.354 -0.1103  0.3944 -0.1741
   39CHL1  H21A 4045   5.746   0.881   4.405 -1.3535  0.2130 -2.0895
   39CHL1  H21B 4046   5.827   0.864   4.246 -2.1918  1.7703  0.2358
   39CHL1  H21C 4047   5.929   0.887   4.391  1.8993 -2.6629 -0.9788
   39CHL1   C22 4048   5.875   0.675   4.538 -0.3358 -1.0289  0.2901
   39CHL1  H22A 4049   5.907   0.570   4.554 -0.3278 -1.1113 -0.2498
   39CHL1  H22B 4050   5.962   0.741   4.557 -0.1174 -1.6657  1.5745
   39CHL1   C23 4051   5.759   0.709   4.639 -0.3189  0.2544 -0.3336
   39CHL1  H23A 4052   5.731   0.813   4.613  1.5777  1.5214  2.1906
   39CHL1  H23B 4053   5.680   0.634   4.617 -2.0738  1.4272  1.5623
   39CHL1   C24 4054   5.804   0.700   4.787 -0.3281 -0.7695  0.8672
   39CHL1  H24A 4055   5.873   0.614   4.805  1.9826  0.7287 -0.3706
   39CHL1  H24B 4056   5.862   0.793   4.804  3.4964 -2.7673 -0.2273
   39CHL1   C25 4057   5.686   0.698   4.885 -0.3290 -0.1384 -0.3040
   39CHL1   H25 4058   5.635   0.600   4.876 -0.1300 -0.3689  0.8632
   39CHL1   C26 4059   5.734   0.708   5.032  0.1406  0.4569  0.2979
   39CHL1  H26A 4060   5.798   0.624   5.068  0.3550 -0.2330 -1.5591
   39CHL1  H26B 4061   5.795   0.799   5.048 -1.4323  1.3441  1.4522
   39CHL1  H26C 4062   5.646   0.725   5.098 -0.0765  0.4486  0.0093
   39CHL1   C27 4063   5.576   0.798   4.849 -0.3937 -0.3317 -0.1206
   39CHL1  H27A 4064   5.541   0.791   4.744 -1.9550  1.1312  0.2520
   39CHL1  H27B 4065   5.482   0.766   4.899 -1.0442 -0.8480 -1.6191
   39CHL1  H27C 4066   5.603   0.903   4.872  1.4595 -0.1853 -2.5984
   40CHL1    C3 4067   5.108   6.756   6.942 -0.6706 -0.4762  0.0897
   40CHL1    H3 4068   5.004   6.777   6.975 -0.8559 -0.2070 -0.6349
   40CHL1    O3 4069   5.201   6.769   7.053  0.4869 -0.2323 -0.0211
   40CHL1   H3' 4070   5.233   6.683   7.080 -0.9435 -0.3433  1.5182
   40CHL1    C4 4071   5.118   6.616   6.878  0.4017 -0.6066  0.0361
   40CHL1   H4A 4072   5.226   6.595   6.862  0.7393  1.1668 -0.2891
   40CHL1   H4B 4073   5.070   6.546   6.949  0.4245 -0.7183 -0.0587
   40CHL1    C5 4074   5.041   6.606   6.746 -0.1091 -0.0615 -0.7664
   40CHL1    C6 4075   4.965   6.494   6.713 -0.3612  0.4561  0.9831
   40CHL1    H6 4076   4.968   6.407   6.780 -0.9631 -2.2999 -2.2908
   40CHL1    C7 4077   4.913   6.473   6.573 -0.4009  0.5096 -0.5592
   40CHL1   H7A 4078   4.930   6.366   6.551  0.4807  0.5895 -0.3422
   40CHL1   H7B 4079   4.805   6.494   6.591 -0.6354  0.7401 -2.1323
   40CHL1    C8 4080   4.955   6.573   6.464 -0.6791  0.0216 -0.0920
   40CHL1    H8 4081   5.058   6.544   6.432 -1.0762  0.2029 -1.6215
   40CHL1   C14 4082   4.860   6.583   6.342  0.2725 -0.7060 -0.0471
   40CHL1   H14 4083   4.762   6.618   6.381  0.1155 -0.9830 -0.1892
   40CHL1   C15 4084   4.831   6.448   6.276 -0.1974 -0.5604  0.3899
   40CHL1  H15A 4085   4.915   6.376   6.283  1.4996  1.3003  0.1051
   40CHL1  H15B 4086   4.744   6.403   6.327 -2.4397  0.9963 -1.8389
   40CHL1   C16 4087   4.790   6.476   6.132 -0.0169 -0.4167  0.2437
   40CHL1  H16A 4088   4.852   6.420   6.060 -0.4508  0.4860 -0.8673
   40CHL1  H16B 4089   4.683   6.448   6.116 -0.7516  2.1489  0.1929
   40CHL1   C17 4090   4.801   6.629   6.117  0.1658 -0.4928 -0.4370
   40CHL1   H17 4091   4.705   6.673   6.152 -0.3650  0.5412 -2.9358
   40CHL1   C13 4092   4.904   6.666   6.225  1.4214 -0.4757 -0.4584
   40CHL1   C18 4093   5.043   6.617   6.177 -0.2894  0.1297 -0.2567
   40CHL1  H18A 4094   5.113   6.633   6.262 -1.1505 -1.8471  0.9079
   40CHL1  H18B 4095   5.054   6.511   6.147  0.3367 -0.8877  3.0990
   40CHL1  H18C 4096   5.082   6.695   6.109 -0.8593  0.3811 -0.2980
   40CHL1   C12 4097   4.905   6.810   6.283  0.4570  0.6991  0.4874
   40CHL1  H12A 4098   4.953   6.880   6.213  1.8245 -0.1812  0.5099
   40CHL1  H12B 4099   4.802   6.850   6.299 -0.8984 -2.6577  1.0351
   40CHL1   C11 4100   4.988   6.820   6.417  0.0109 -0.0098  0.8897
   40CHL1  H11A 4101   5.088   6.816   6.369 -0.1669 -1.0310  0.5932
   40CHL1  H11B 4102   4.979   6.922   6.459 -0.4911  0.1757  0.3452
   40CHL1    C9 4103   4.962   6.716   6.528  0.7905 -0.4868  0.5189
   40CHL1    H9 4104   4.858   6.737   6.564 -0.5099 -3.3461 -1.2147
   40CHL1   C10 4105   5.064   6.727   6.646  0.2051 -0.1972  0.1045
   40CHL1   C19 4106   5.205   6.716   6.591 -0.0544 -0.2360  0.0641
   40CHL1  H19A 4107   5.233   6.801   6.526  2.0528 -1.0112 -0.1081
   40CHL1  H19B 4108   5.275   6.707   6.676 -1.0428  0.3463  0.9736
   40CHL1  H19C 4109   5.213   6.618   6.538 -1.5621 -0.0533 -0.5732
   40CHL1    C1 4110   5.043   6.864   6.717  0.2201 -0.4914 -0.4651
   40CHL1   H1A 4111   5.075   6.942   6.644 -1.3038  1.1788  0.5647
   40CHL1   H1B 4112   4.939   6.891   6.746  0.8498 -0.5178  2.0448
   40CHL1    C2 4113   5.135   6.872   6.840 -0.0535  0.0097 -0.0983
   40CHL1   H2A 4114   5.128   6.969   6.893  1.2842 -1.4910  3.0559
   40CHL1   H2B 4115   5.242   6.861   6.812 -0.8856 -1.4136 -3.1863
   40CHL1   C20 4116   4.819   6.689   5.980  0.2935  0.1649  0.0384
   40CHL1   H20 4117   4.922   6.675   5.943 -0.5668 -1.3063 -1.9514
   40CHL1   C21 4118   4.778   6.834   5.972 -0.4392 -0.4546 -0.1746
   40CHL1  H21A 4119   4.668   6.835   5.983 -0.7286 -1.1515 -2.4841
   40CHL1  H21B 4120   4.796   6.876   5.871 -0.1494 -3.4799 -1.5008
   40CHL1  H21C 4121   4.843   6.896   6.038  0.0611  0.0220 -1.0969
   40CHL1   C22 4122   4.758   6.601   5.876 -0.2804 -0.2974  0.6062
   40CHL1  H22A 4123   4.810   6.503   5.885  0.3545  0.0082  0.3308
   40CHL1  H22B 4124   4.653   6.581   5.905  0.0065  0.3330  2.1634
   40CHL1   C23 4125   4.754   6.651   5.728 -0.0481 -0.3854  1.0524
   40CHL1  H23A 4126   4.693   6.744   5.723 -1.0613 -0.9761  2.0812
   40CHL1  H23B 4127   4.857   6.685   5.699 -0.4924  0.3395  0.2697
   40CHL1   C24 4128   4.712   6.550   5.617 -0.2725 -0.2865 -0.3114
   40CHL1  H24A 4129   4.788   6.470   5.600 -0.8265 -0.6075 -1.3913
   40CHL1  H24B 4130   4.623   6.493   5.650  0.8366 -1.2058  1.2291
   40CHL1   C25 4131   4.676   6.605   5.477  0.0500 -0.8028  0.2779
   40CHL1   H25 4132   4.770   6.654   5.446 -0.4737  0.1930  0.2337
   40CHL1   C26 4133   4.652   6.508   5.359  0.4117  0.4035  0.6405
   40CHL1  H26A 4134   4.745   6.461   5.321 -1.5316 -0.6432 -3.3813
   40CHL1  H26B 4135   4.582   6.424   5.379  0.2131  1.0317  2.7882
   40CHL1  H26C 4136   4.610   6.565   5.273  2.1396  0.4842 -0.1893
   40CHL1   C27 4137   4.565   6.715   5.473  0.4161  0.0626  0.0117
   40CHL1  H27A 4138   4.546   6.756   5.372  0.2817  1.2625  0.5077
   40CHL1  H27B 4139   4.463   6.687   5.508  0.7360  0.2476  1.1303
   40CHL1  H27C 4140   4.596   6.803   5.532 -1.7409  1.5953 -1.0048
   41CHL1    C3 4141   2.406   5.570   6.862 -0.3119  0.0406  0.6623
   41CHL1    H3 4142   2.444   5.469   6.838 -1.5917 -0.3992  0.4111
   41CHL1    O3 4143   2.359   5.580   6.994  0.4373 -0.1709  0.2512
   41CHL1   H3' 4144   2.437   5.595   7.047 -0.4906  0.0622  1.5861
   41CHL1    C4 4145   2.516   5.673   6.830 -0.0410  0.0724 -0.1783
   41CHL1   H4A 4146   2.495   5.778   6.859  1.0488  0.4823 -0.8093
   41CHL1   H4B 4147   2.607   5.650   6.890  0.9712  1.7036 -1.0076
   41CHL1    C5 4148   2.549   5.681   6.678 -0.3981 -0.4109 -0.5314
   41CHL1    C6 4149   2.676   5.667   6.651  0.5827 -0.1416 -0.0939
   41CHL1    H6 4150   2.745   5.670   6.737  2.0144  1.9125 -1.2155
   41CHL1    C7 4151   2.733   5.653   6.513 -0.7812 -0.0930 -0.7037
   41CHL1   H7A 4152   2.814   5.728   6.499  0.2093 -0.2888  3.0203
   41CHL1   H7B 4153   2.783   5.556   6.491 -0.6134  0.4707 -3.1172
   41CHL1    C8 4154   2.628   5.678   6.401  0.2544  0.5126  0.0826
   41CHL1    H8 4155   2.619   5.787   6.384  2.3186  0.7314  0.0770
   41CHL1   C14 4156   2.672   5.605   6.279 -0.1180 -0.2111  1.1943
   41CHL1   H14 4157   2.672   5.496   6.300 -2.0173 -0.7932 -1.2692
   41CHL1   C15 4158   2.819   5.640   6.239  0.1159  0.4005  0.1777
   41CHL1  H15A 4159   2.828   5.748   6.261  0.6085  0.3257  0.3672
   41CHL1  H15B 4160   2.902   5.585   6.288  0.6000  0.2051 -0.8389
   41CHL1   C16 4161   2.819   5.615   6.086 -0.6251  0.1847  0.7453
   41CHL1  H16A 4162   2.859   5.708   6.041  0.7424 -1.4374 -1.5738
   41CHL1  H16B 4163   2.893   5.534   6.072 -0.9952  0.1057 -0.8965
   41CHL1   C17 4164   2.677   5.559   6.046  0.3780 -0.0066  0.0026
   41CHL1   H17 4165   2.692   5.454   6.077  0.4949  0.6640  2.4181
   41CHL1   C13 4166   2.585   5.623   6.154  0.6911 -0.1474  0.1122
   41CHL1   C18 4167   2.571   5.778   6.116  0.0741 -0.2183 -0.6552
   41CHL1  H18A 4168   2.667   5.824   6.086  0.8096  0.2020  2.1585
   41CHL1  H18B 4169   2.507   5.799   6.027 -0.1198  0.7364 -0.2987
   41CHL1  H18C 4170   2.539   5.840   6.202  1.5821 -0.1345 -0.1447
   41CHL1   C12 4171   2.456   5.555   6.186  0.2034 -0.3204 -0.2958
   41CHL1  H12A 4172   2.382   5.578   6.106 -1.0298  0.2681  0.9630
   41CHL1  H12B 4173   2.479   5.447   6.195  1.2981 -0.3664 -2.7199
   41CHL1   C11 4174   2.399   5.611   6.316 -0.3306 -0.1013 -0.0254
   41CHL1  H11A 4175   2.375   5.717   6.293  0.9535  0.1180 -0.4552
   41CHL1  H11B 4176   2.301   5.562   6.336 -0.5887  1.2477  2.4043
   41CHL1    C9 4177   2.493   5.614   6.438 -0.1013  0.4039 -0.6834
   41CHL1    H9 4178   2.513   5.506   6.455 -2.4665  0.2851  2.0893
   41CHL1   C10 4179   2.436   5.671   6.567 -0.3284 -0.1305 -0.2731
   41CHL1   C19 4180   2.378   5.811   6.552  0.4866 -0.4088  1.3218
   41CHL1  H19A 4181   2.282   5.814   6.496  0.4126  0.0301  1.4681
   41CHL1  H19B 4182   2.380   5.871   6.645  2.1616  2.6941 -0.5536
   41CHL1  H19C 4183   2.440   5.877   6.487 -0.0785  0.4324  1.6193
   41CHL1    C1 4184   2.319   5.578   6.618 -0.1181  0.2257 -0.2343
   41CHL1   H1A 4185   2.226   5.601   6.561 -0.8554  0.0086  0.8532
   41CHL1   H1B 4186   2.353   5.477   6.587  3.2482  0.9167  0.8396
   41CHL1    C2 4187   2.289   5.592   6.765 -0.1912  0.3412 -0.5241
   41CHL1   H2A 4188   2.204   5.525   6.790 -0.8710  1.8982  1.7244
   41CHL1   H2B 4189   2.254   5.697   6.779  0.1578  1.0163 -3.8596
   41CHL1   C20 4190   2.636   5.572   5.902  0.0024 -0.5192 -0.0954
   41CHL1   H20 4191   2.578   5.666   5.891 -2.1867 -1.5564  1.5803
   41CHL1   C21 4192   2.534   5.457   5.872  0.5470 -0.3616 -0.1802
   41CHL1  H21A 4193   2.571   5.353   5.884  0.0907 -0.4837  0.2159
   41CHL1  H21B 4194   2.498   5.483   5.771 -1.4729 -0.7205  0.3950
   41CHL1  H21C 4195   2.445   5.447   5.939 -0.7279 -0.5008 -1.8438
   41CHL1   C22 4196   2.760   5.571   5.802  0.1627  0.2426  0.0047
   41CHL1  H22A 4197   2.831   5.654   5.820  0.9696  0.0985 -2.2618
   41CHL1  H22B 4198   2.822   5.479   5.803  2.4047  1.6909 -0.2295
   41CHL1   C23 4199   2.719   5.586   5.658 -0.6726  0.7945  1.1039
   41CHL1  H23A 4200   2.648   5.505   5.631  1.0687 -0.8241  1.1878
   41CHL1  H23B 4201   2.675   5.688   5.652  0.7104  1.5192  2.6159
   41CHL1   C24 4202   2.839   5.570   5.559  0.1005  0.1761 -0.3893
   41CHL1  H24A 4203   2.907   5.656   5.578 -0.2591  0.3681  0.0564
   41CHL1  H24B 4204   2.895   5.476   5.578  1.6857  1.0533 -0.5764
   41CHL1   C25 4205   2.797   5.579   5.411 -0.4470 -0.6149  0.1950
   41CHL1   H25 4206   2.743   5.673   5.387  2.9910  1.4129 -0.1473
   41CHL1   C26 4207   2.924   5.590   5.325 -0.2620  0.6118 -0.0313
   41CHL1  H26A 4208   2.892   5.614   5.222 -0.0588  0.1096 -0.2134
   41CHL1  H26B 4209   3.001   5.668   5.345  0.4968  0.2949 -1.5884
   41CHL1  H26C 4210   2.979   5.493   5.329 -1.1255  0.0862 -0.4981
   41CHL1   C27 4211   2.722   5.464   5.368  1.0636 -0.3957  0.9189
   41CHL1  H27A 4212   2.719   5.475   5.257  0.2428  1.7387  1.1012
   41CHL1  H27B 4213   2.763   5.366   5.400  2.3756 -0.5701 -1.1270
   41CHL1  H27C 4214   2.619   5.456   5.411  0.2855  0.2316 -0.7382
   42CHL1    C3 4215   3.795   3.223   6.829  0.1790 -0.9741 -0.0839
   42CHL1    H3 4216   3.863   3.300   6.786 -0.7891  0.1901  0.3994
   42CHL1    O3 4217   3.732   3.287   6.938 -0.2163  0.4084  0.4625
   42CHL1   H3' 4218   3.726   3.210   6.995 -1.2485  0.7643  0.8592
   42CHL1    C4 4219   3.693   3.172   6.725 -0.1983 -0.4918  0.5713
   42CHL1   H4A 4220   3.624   3.099   6.772 -0.0368 -0.8242  0.3000
   42CHL1   H4B 4221   3.628   3.258   6.699  0.2497  0.1764  1.6032
   42CHL1    C5 4222   3.748   3.105   6.602  0.0155  0.2704 -0.2319
   42CHL1    C6 4223   3.701   3.148   6.483 -0.0835  1.5091  0.0658
   42CHL1    H6 4224   3.619   3.220   6.469 -0.6497  0.6408 -1.2622
   42CHL1    C7 4225   3.758   3.099   6.353 -0.8865 -0.6949  0.3600
   42CHL1   H7A 4226   3.680   3.080   6.277  0.0170  1.4899 -1.2393
   42CHL1   H7B 4227   3.821   3.182   6.314 -1.7581  0.2523  0.9117
   42CHL1    C8 4228   3.846   2.968   6.378 -0.2855 -0.3474 -1.1443
   42CHL1    H8 4229   3.779   2.881   6.395 -0.0865 -0.2582  0.1869
   42CHL1   C14 4230   3.926   2.941   6.254  0.1186  0.4236  0.9073
   42CHL1   H14 4231   3.989   3.031   6.237  0.9874 -0.2556  0.4799
   42CHL1   C15 4232   3.852   2.926   6.127  0.0053 -0.7375  0.0489
   42CHL1  H15A 4233   3.781   2.841   6.138 -0.4269 -0.3957 -0.0729
   42CHL1  H15B 4234   3.786   3.010   6.095  0.5978  0.3234  1.5215
   42CHL1   C16 4235   3.950   2.869   6.022 -0.1851  0.1076 -0.2225
   42CHL1  H16A 4236   3.891   2.800   5.959  0.0929  0.4239 -0.8315
   42CHL1  H16B 4237   3.996   2.941   5.952  2.0121 -1.0669 -0.0602
   42CHL1   C17 4238   4.065   2.803   6.110 -0.5257  0.0780 -0.4272
   42CHL1   H17 4239   4.152   2.872   6.103  0.8003 -1.5790 -0.6762
   42CHL1   C13 4240   4.017   2.819   6.265 -0.3487 -0.1851  0.4535
   42CHL1   C18 4241   3.937   2.686   6.292 -0.3219 -0.2525  1.0380
   42CHL1  H18A 4242   4.018   2.609   6.298  0.4320  0.1833 -2.0004
   42CHL1  H18B 4243   3.880   2.682   6.388 -0.3390 -0.4885  1.0192
   42CHL1  H18C 4244   3.867   2.648   6.215 -0.5032  0.1746  0.9894
   42CHL1   C12 4245   4.121   2.852   6.375  0.7119  0.0898  0.2913
   42CHL1  H12A 4246   4.200   2.774   6.376  1.3880  0.6337 -2.5819
   42CHL1  H12B 4247   4.183   2.941   6.350 -0.2023  0.6470 -0.0421
   42CHL1   C11 4248   4.045   2.870   6.514  0.2153  0.2979  0.0450
   42CHL1  H11A 4249   3.989   2.780   6.545 -0.4841  1.2486  1.7084
   42CHL1  H11B 4250   4.116   2.882   6.599 -0.0406  2.3463  0.0344
   42CHL1    C9 4251   3.941   2.988   6.503 -0.9409 -0.2303 -0.1171
   42CHL1    H9 4252   3.998   3.080   6.478 -0.3319  0.0239  1.9820
   42CHL1   C10 4253   3.863   3.007   6.631  0.2289 -0.5417 -0.0251
   42CHL1   C19 4254   3.795   2.871   6.680 -0.0864 -0.7394 -0.2848
   42CHL1  H19A 4255   3.856   2.778   6.681  1.1238  0.0274  0.4486
   42CHL1  H19B 4256   3.739   2.893   6.774  2.2990  0.4794  0.9297
   42CHL1  H19C 4257   3.717   2.838   6.609  0.0599 -0.6421 -0.4892
   42CHL1    C1 4258   3.958   3.063   6.748  0.5524  0.5413 -0.1070
   42CHL1   H1A 4259   4.032   2.987   6.779 -0.5314 -0.3228  0.4130
   42CHL1   H1B 4260   4.006   3.157   6.711  0.0516  1.6403  1.8904
   42CHL1    C2 4261   3.882   3.107   6.874  0.1774  0.6632  0.5785
   42CHL1   H2A 4262   3.957   3.148   6.946  1.0207 -0.4322  0.3523
   42CHL1   H2B 4263   3.821   3.030   6.927 -0.0705  0.3247 -0.1804
   42CHL1   C20 4264   4.128   2.671   6.055 -0.9276  0.1335 -0.0903
   42CHL1   H20 4265   4.052   2.591   6.065 -0.6806 -0.1191 -0.2172
   42CHL1   C21 4266   4.257   2.630   6.131 -0.3187  0.4188  0.2946
   42CHL1  H21A 4267   4.283   2.523   6.118 -1.2007  0.0293  1.5602
   42CHL1  H21B 4268   4.245   2.641   6.241  0.7602 -1.6889  0.6818
   42CHL1  H21C 4269   4.337   2.696   6.092 -0.9802  2.2504  1.9060
   42CHL1   C22 4270   4.151   2.689   5.897  0.5404  0.2978 -0.4781
   42CHL1  H22A 4271   4.062   2.716   5.836  1.1911 -0.8033 -1.9840
   42CHL1  H22B 4272   4.226   2.769   5.879  1.2392  0.0826  1.2797
   42CHL1   C23 4273   4.205   2.555   5.830  0.2446 -0.2707  0.5258
   42CHL1  H23A 4274   4.291   2.525   5.894  0.7931 -2.0598 -0.9799
   42CHL1  H23B 4275   4.126   2.479   5.843 -1.0923  0.9766  0.0012
   42CHL1   C24 4276   4.243   2.590   5.688 -0.3072  0.3714  0.5413
   42CHL1  H24A 4277   4.158   2.654   5.656  0.0827 -0.3403 -2.2178
   42CHL1  H24B 4278   4.328   2.659   5.672 -0.0637  0.0851  0.6012
   42CHL1   C25 4279   4.249   2.465   5.598  0.7215 -0.4827  0.1452
   42CHL1   H25 4280   4.152   2.412   5.591 -0.1933  1.0545  0.6249
   42CHL1   C26 4281   4.276   2.519   5.457 -0.3519 -0.1896  0.3589
   42CHL1  H26A 4282   4.271   2.447   5.373 -1.3258  0.2519  0.0219
   42CHL1  H26B 4283   4.205   2.604   5.443  1.8515  1.5279 -1.1275
   42CHL1  H26C 4284   4.374   2.570   5.467 -0.1902 -0.3877 -0.1952
   42CHL1   C27 4285   4.355   2.366   5.644 -0.6537 -0.7295  0.5548
   42CHL1  H27A 4286   4.451   2.412   5.676  0.7086 -2.4456 -0.8192
   42CHL1  H27B 4287   4.324   2.312   5.736 -0.9097 -1.4334  0.0648
   42CHL1  H27C 4288   4.373   2.296   5.560  0.6403  0.2479 -0.0255
   43CHL1    C3 4289   1.914   2.196   6.620 -0.6014  0.0812  0.3059
   43CHL1    H3 4290   1.994   2.138   6.672 -1.9550 -1.1447  1.0763
   43CHL1    O3 4291   1.828   2.257   6.709 -0.2246  0.1357 -0.0798
   43CHL1   H3' 4292   1.868   2.341   6.733  1.4359 -0.6184 -0.0720
   43CHL1    C4 4293   1.963   2.298   6.513  0.3127 -0.5357  0.2687
   43CHL1   H4A 4294   1.876   2.349   6.467  1.2348  1.5732  0.7399
   43CHL1   H4B 4295   2.023   2.379   6.560  0.6330 -0.5369 -0.1293
   43CHL1    C5 4296   2.039   2.223   6.404  0.7039 -0.4189 -0.5641
   43CHL1    C6 4297   2.166   2.239   6.375  0.4843 -0.2192  0.5513
   43CHL1    H6 4298   2.228   2.314   6.426  0.8842 -0.2032  0.0573
   43CHL1    C7 4299   2.237   2.174   6.261 -0.0101  0.0954 -0.4121
   43CHL1   H7A 4300   2.313   2.244   6.221  0.3251  1.4890  2.4579
   43CHL1   H7B 4301   2.301   2.092   6.298 -0.0460 -0.7509 -2.1112
   43CHL1    C8 4302   2.135   2.122   6.153 -0.1335 -0.3960 -0.1148
   43CHL1    H8 4303   2.097   2.212   6.100  1.5734  0.9548  0.8501
   43CHL1   C14 4304   2.216   2.038   6.061  0.0594  0.3898  0.0775
   43CHL1   H14 4305   2.236   1.948   6.123  0.7265  1.5654  1.6325
   43CHL1   C15 4306   2.352   2.095   6.012  0.2239 -0.2757 -0.1923
   43CHL1  H15A 4307   2.351   2.204   5.993  0.5997 -0.0060  1.2381
   43CHL1  H15B 4308   2.430   2.065   6.086 -0.0327 -0.4633  0.0034
   43CHL1   C16 4309   2.366   2.022   5.872  0.0601 -0.9641 -0.5536
   43CHL1  H16A 4310   2.356   2.098   5.792 -0.9686 -1.2043 -0.6650
   43CHL1  H16B 4311   2.472   1.991   5.858  0.5343 -0.1503  0.9460
   43CHL1   C17 4312   2.248   1.919   5.857 -0.5965  0.1052  0.2117
   43CHL1   H17 4313   2.255   1.826   5.917 -0.4699  0.0111  0.0518
   43CHL1   C13 4314   2.133   1.987   5.940  0.1088  0.3708  0.8391
   43CHL1   C18 4315   2.077   2.104   5.859 -0.2535  0.2793  0.3627
   43CHL1  H18A 4316   2.066   2.064   5.756  1.3259 -0.4847  0.4657
   43CHL1  H18B 4317   1.975   2.133   5.894  0.1503 -0.4595  2.2635
   43CHL1  H18C 4318   2.138   2.197   5.856 -1.0259  0.7842 -0.6533
   43CHL1   C12 4319   2.017   1.897   5.994 -0.6239 -0.4291  0.0967
   43CHL1  H12A 4320   1.954   1.853   5.914 -0.4256 -0.1608 -0.2094
   43CHL1  H12B 4321   2.076   1.818   6.046 -1.0587 -0.0522  1.1936
   43CHL1   C11 4322   1.934   1.975   6.104 -0.7350 -0.1540 -0.1363
   43CHL1  H11A 4323   1.880   2.055   6.048  1.5334  1.6790  0.1162
   43CHL1  H11B 4324   1.867   1.900   6.150 -1.3545  1.5621  1.9688
   43CHL1    C9 4325   2.026   2.040   6.215  0.3846  0.0576  0.2185
   43CHL1    H9 4326   2.071   1.948   6.259 -1.2753 -0.5138  0.7842
   43CHL1   C10 4327   1.952   2.120   6.331  0.5339  0.5458  0.1456
   43CHL1   C19 4328   1.828   2.187   6.265 -0.5990  0.5238  0.1344
   43CHL1  H19A 4329   1.771   2.262   6.325 -2.5628 -0.7806  0.0141
   43CHL1  H19B 4330   1.854   2.236   6.169 -1.2852 -2.5619 -1.7566
   43CHL1  H19C 4331   1.754   2.105   6.246  1.6695 -1.3301 -1.2404
   43CHL1    C1 4332   1.901   2.021   6.434 -0.4052 -0.4602  0.5974
   43CHL1   H1A 4333   1.828   1.948   6.392 -1.7883  0.5515  1.1629
   43CHL1   H1B 4334   1.983   1.963   6.481  0.9516 -0.3978 -1.5844
   43CHL1    C2 4335   1.823   2.087   6.545 -0.8162 -0.1242 -0.1671
   43CHL1   H2A 4336   1.800   2.005   6.617  1.4534  0.9878  1.9408
   43CHL1   H2B 4337   1.729   2.128   6.502 -1.4752 -1.0809  0.3134
   43CHL1   C20 4338   2.227   1.867   5.712  0.2704  0.0043  0.0415
   43CHL1   H20 4339   2.196   1.952   5.647 -0.2487 -0.4183 -0.2722
   43CHL1   C21 4340   2.115   1.762   5.705  0.3816  0.0196 -0.0482
   43CHL1  H21A 4341   2.017   1.805   5.736  0.0260 -1.3619  0.8067
   43CHL1  H21B 4342   2.133   1.676   5.774  1.2237 -0.7730 -1.2142
   43CHL1  H21C 4343   2.113   1.736   5.597 -0.3860  0.5756 -0.1781
   43CHL1   C22 4344   2.355   1.818   5.636 -0.4464  1.0240 -0.1351
   43CHL1  H22A 4345   2.315   1.767   5.546 -0.3482 -0.1081  0.4542
   43CHL1  H22B 4346   2.407   1.908   5.597  1.4509 -1.1477 -3.0978
   43CHL1   C23 4347   2.441   1.732   5.722  0.1527 -0.2677 -0.4671
   43CHL1  H23A 4348   2.465   1.786   5.816 -1.9659  0.9733 -0.5686
   43CHL1  H23B 4349   2.385   1.643   5.756  0.2663  0.1072  0.7339
   43CHL1   C24 4350   2.575   1.703   5.657  0.1239 -0.1025 -0.1725
   43CHL1  H24A 4351   2.546   1.665   5.556 -2.4403  2.8311 -0.7019
   43CHL1  H24B 4352   2.620   1.801   5.632  0.9899 -0.6818 -0.9756
   43CHL1   C25 4353   2.685   1.628   5.724  0.4739 -0.0334  0.2880
   43CHL1   H25 4354   2.763   1.606   5.649 -0.4451 -0.0337 -0.7032
   43CHL1   C26 4355   2.747   1.708   5.844 -1.0373 -0.8689  0.0158
   43CHL1  H26A 4356   2.679   1.722   5.930  0.0347  3.0470  0.4357
   43CHL1  H26B 4357   2.827   1.650   5.895 -1.2503  0.1424  1.5672
   43CHL1  H26C 4358   2.791   1.805   5.811  1.6126 -1.6318  1.0854
   43CHL1   C27 4359   2.633   1.490   5.772 -0.5634 -0.5805  0.0061
   43CHL1  H27A 4360   2.723   1.427   5.790 -0.4976 -1.5072 -2.9684
   43CHL1  H27B 4361   2.568   1.503   5.860  0.1842  0.3908  0.4403
   43CHL1  H27C 4362   2.572   1.437   5.696 -0.3248  3.1257 -3.0830
   44CHL1    C3 4363   0.196   4.416   7.101 -0.2152  0.2067 -0.2721
   44CHL1    H3 4364   0.303   4.415   7.069 -0.5909 -2.3190 -1.6978
   44CHL1    O3 4365   0.192   4.446   7.245 -0.4265  0.1544  0.2983
   44CHL1   H3' 4366   0.123   4.385   7.272  0.2744 -0.5597  0.5270
   44CHL1    C4 4367   0.118   4.525   7.024  0.0358  0.7786 -0.1924
   44CHL1   H4A 4368   0.013   4.535   7.056  0.1612 -2.5789  1.6865
   44CHL1   H4B 4369   0.169   4.618   7.057  1.4190 -0.6706  2.0017
   44CHL1    C5 4370   0.129   4.496   6.876  0.3854  0.6376  0.5759
   44CHL1    C6 4371   0.171   4.591   6.785 -0.0405  0.1995 -0.3103
   44CHL1    H6 4372   0.198   4.694   6.813 -0.1488  0.5119 -1.3166
   44CHL1    C7 4373   0.166   4.564   6.643 -0.3915  0.4552  0.1771
   44CHL1   H7A 4374   0.109   4.645   6.591  0.2490  0.2933 -0.8039
   44CHL1   H7B 4375   0.270   4.551   6.608  1.4440  1.7683  4.5439
   44CHL1    C8 4376   0.086   4.435   6.597 -0.1532 -1.3890  0.0759
   44CHL1    H8 4377  -0.022   4.448   6.618  0.7728  0.3075  5.2188
   44CHL1   C14 4378   0.113   4.394   6.450 -0.2732  0.0350 -0.4276
   44CHL1   H14 4379   0.217   4.357   6.442  0.3460  1.8078 -0.9944
   44CHL1   C15 4380   0.098   4.501   6.341  0.1377 -0.2623  0.6276
   44CHL1  H15A 4381  -0.002   4.546   6.355 -0.2201 -1.1375  0.9253
   44CHL1  H15B 4382   0.167   4.589   6.352 -0.2224  0.3893 -1.8437
   44CHL1   C16 4383   0.085   4.426   6.208 -0.0527  0.1776 -0.8675
   44CHL1  H16A 4384  -0.004   4.463   6.152 -0.6716 -0.1639 -0.1288
   44CHL1  H16B 4385   0.175   4.446   6.146 -0.0502 -0.8621 -1.2220
   44CHL1   C17 4386   0.088   4.274   6.250  0.3932  0.5962  0.6171
   44CHL1   H17 4387   0.196   4.250   6.255 -0.0058 -1.1352  3.1564
   44CHL1   C13 4388   0.039   4.270   6.398  0.0449 -0.6221  0.1946
   44CHL1   C18 4389  -0.116   4.287   6.407  0.3676 -0.5670  0.2461
   44CHL1  H18A 4390  -0.152   4.288   6.512 -0.6122  2.2489 -0.0482
   44CHL1  H18B 4391  -0.141   4.382   6.357  4.2399 -0.7884 -2.5969
   44CHL1  H18C 4392  -0.169   4.204   6.355 -0.6560  0.5653 -0.5847
   44CHL1   C12 4393   0.098   4.154   6.474  0.4593 -0.0147 -0.2420
   44CHL1  H12A 4394   0.049   4.058   6.448 -2.7071  1.6715 -1.1500
   44CHL1  H12B 4395   0.206   4.148   6.449  0.5256  1.1154 -0.2645
   44CHL1   C11 4396   0.077   4.177   6.628  0.1514 -0.5352 -1.0365
   44CHL1  H11A 4397  -0.032   4.168   6.650  0.6804 -0.5717  1.9386
   44CHL1  H11B 4398   0.120   4.099   6.694  0.6722  1.6103  1.2737
   44CHL1    C9 4399   0.130   4.314   6.685  0.5158 -0.9551 -0.0092
   44CHL1    H9 4400   0.240   4.312   6.674  0.2443 -1.5998 -3.9879
   44CHL1   C10 4401   0.082   4.348   6.836 -0.0498 -0.4896  0.4171
   44CHL1   C19 4402  -0.071   4.326   6.847 -0.2120 -0.1580 -0.2816
   44CHL1  H19A 4403  -0.078   4.215   6.848 -1.7558 -0.1497  2.9428
   44CHL1  H19B 4404  -0.098   4.360   6.949  0.6133  0.4823 -0.2622
   44CHL1  H19C 4405  -0.136   4.366   6.767 -0.5616 -1.1768 -0.5157
   44CHL1    C1 4406   0.157   4.240   6.933 -0.0306 -0.4640  0.3841
   44CHL1   H1A 4407   0.121   4.140   6.900 -1.6087  0.6367 -1.5218
   44CHL1   H1B 4408   0.266   4.248   6.913  0.0171 -0.4148  0.6629
   44CHL1    C2 4409   0.147   4.272   7.076 -0.3416 -0.8377  0.2983
   44CHL1   H2A 4410   0.203   4.198   7.138  2.7660  0.6063 -0.5803
   44CHL1   H2B 4411   0.042   4.268   7.113 -0.5368  0.4981 -0.0562
   44CHL1   C20 4412   0.038   4.166   6.152 -0.3380  0.3390  0.2679
   44CHL1   H20 4413  -0.071   4.181   6.141 -0.5180 -1.2942 -0.4005
   44CHL1   C21 4414   0.079   4.025   6.195  1.0988 -0.6505 -0.0227
   44CHL1  H21A 4415   0.064   3.951   6.114 -1.4253 -1.5300  1.1481
   44CHL1  H21B 4416  -0.002   3.988   6.261 -0.2334  0.3069 -1.0588
   44CHL1  H21C 4417   0.179   4.022   6.243  1.3198  2.0035 -0.1797
   44CHL1   C22 4418   0.109   4.189   6.016  0.2288  0.4610 -0.0551
   44CHL1  H22A 4419   0.072   4.285   5.975 -0.0217  0.3298 -0.1347
   44CHL1  H22B 4420   0.220   4.195   6.023  0.1455  1.9365  0.3867
   44CHL1   C23 4421   0.076   4.087   5.901 -0.0045  0.3193 -0.0341
   44CHL1  H23A 4422   0.127   3.989   5.914  0.7369  0.8293  0.9733
   44CHL1  H23B 4423  -0.028   4.050   5.917  0.7404 -1.0389  2.0328
   44CHL1   C24 4424   0.097   4.151   5.760 -0.0040 -0.6411  0.1640
   44CHL1  H24A 4425   0.023   4.231   5.739  0.5819 -0.5313 -1.6471
   44CHL1  H24B 4426   0.197   4.200   5.756  1.9120 -4.2102  0.1974
   44CHL1   C25 4427   0.081   4.060   5.641 -0.3348  0.2710  0.1952
   44CHL1   H25 4428   0.162   3.984   5.637 -2.2581 -1.8826  0.1108
   44CHL1   C26 4429  -0.067   4.001   5.638 -0.3046  0.7553  0.1404
   44CHL1  H26A 4430  -0.090   3.949   5.543  1.1573  0.3460 -0.0155
   44CHL1  H26B 4431  -0.072   3.919   5.712 -0.6310 -1.6997 -2.4392
   44CHL1  H26C 4432  -0.135   4.088   5.645 -0.4633  0.7170 -0.8244
   44CHL1   C27 4433   0.105   4.139   5.511 -0.3539  0.6995 -0.5555
   44CHL1  H27A 4434   0.214   4.161   5.505 -0.4987  1.0804 -2.2842
   44CHL1  H27B 4435   0.078   4.090   5.415 -1.6811 -0.4927  0.3839
   44CHL1  H27C 4436   0.043   4.231   5.516  0.2185  1.0238  2.1879
   45CHL1    C3 4437   2.039   4.192   6.989 -0.3303 -0.5494 -0.1722
   45CHL1    H3 4438   1.995   4.090   6.982 -0.6258 -0.4457  0.1248
   45CHL1    O3 4439   2.049   4.231   7.123  0.0471 -0.2112 -0.0072
   45CHL1   H3' 4440   2.114   4.169   7.157  0.4400 -0.8374 -1.8098
   45CHL1    C4 4441   2.179   4.194   6.935  0.3687 -0.3649 -0.2852
   45CHL1   H4A 4442   2.220   4.292   6.965  1.1869 -1.0412  0.9203
   45CHL1   H4B 4443   2.240   4.116   6.987  1.1545  0.5544  0.1908
   45CHL1    C5 4444   2.186   4.167   6.781 -0.1490 -0.6899  0.3535
   45CHL1    C6 4445   2.265   4.077   6.718 -0.0355 -0.1204 -0.4573
   45CHL1    H6 4446   2.336   4.011   6.770 -1.5863 -0.1069  1.8152
   45CHL1    C7 4447   2.276   4.063   6.565 -0.7986  0.7463  0.2758
   45CHL1   H7A 4448   2.385   4.060   6.542  0.2518  3.2833  3.9412
   45CHL1   H7B 4449   2.229   3.967   6.534 -0.3277  0.2910  0.9139
   45CHL1    C8 4450   2.226   4.178   6.484 -0.3978 -0.6199 -1.0604
   45CHL1    H8 4451   2.306   4.255   6.490 -0.0381 -1.0720  0.1679
   45CHL1   C14 4452   2.207   4.139   6.340  0.6905  0.4461 -0.3635
   45CHL1   H14 4453   2.136   4.054   6.346  2.3564 -1.2255 -2.6073
   45CHL1   C15 4454   2.330   4.087   6.268 -0.4493  1.1600  0.3504
   45CHL1  H15A 4455   2.416   4.156   6.282  1.5935 -0.7042 -2.0708
   45CHL1  H15B 4456   2.351   3.986   6.309 -0.4025  1.0172 -0.0282
   45CHL1   C16 4457   2.282   4.091   6.119  0.1503  0.3966  0.0121
   45CHL1  H16A 4458   2.361   4.135   6.055  0.5374 -0.7591 -0.3271
   45CHL1  H16B 4459   2.268   3.988   6.079 -0.7602  0.8957 -1.0193
   45CHL1   C17 4460   2.145   4.165   6.116  0.0254 -0.0491  0.2704
   45CHL1   H17 4461   2.071   4.082   6.123  1.1352 -0.9345  3.4237
   45CHL1   C13 4462   2.138   4.236   6.250  0.0259 -0.1450 -0.5027
   45CHL1   C18 4463   2.212   4.369   6.233 -0.0489 -0.3766  0.2566
   45CHL1  H18A 4464   2.310   4.350   6.184 -0.1051 -2.2270  0.7939
   45CHL1  H18B 4465   2.153   4.440   6.171  3.2078  1.2389 -1.2115
   45CHL1  H18C 4466   2.227   4.416   6.332 -3.6897  0.8936  0.3753
   45CHL1   C12 4467   1.993   4.258   6.312 -0.6285  0.4039  0.0370
   45CHL1  H12A 4468   1.920   4.325   6.262 -0.3077  0.8451  0.1528
   45CHL1  H12B 4469   1.943   4.159   6.321 -0.7728  0.4320 -0.4336
   45CHL1   C11 4470   2.011   4.311   6.452  0.6331 -0.0157 -0.0266
   45CHL1  H11A 4471   2.047   4.416   6.449  1.4690 -0.3000 -0.4851
   45CHL1  H11B 4472   1.911   4.314   6.499 -0.5645  0.5141 -2.4705
   45CHL1    C9 4473   2.094   4.227   6.550  0.0907 -0.0049  0.8227
   45CHL1    H9 4474   2.043   4.128   6.555  3.8076 -2.4235 -2.6004
   45CHL1   C10 4475   2.106   4.274   6.699 -0.6031 -0.8901 -0.4205
   45CHL1   C19 4476   2.167   4.420   6.703  0.4381 -0.0150  0.3532
   45CHL1  H19A 4477   2.273   4.425   6.670  0.9050  2.2034  2.0237
   45CHL1  H19B 4478   2.103   4.497   6.656  0.9888  1.5526  2.0492
   45CHL1  H19C 4479   2.168   4.444   6.811 -2.8746  1.2987  0.1841
   45CHL1    C1 4480   1.961   4.280   6.761  0.0050  0.0927 -1.0472
   45CHL1   H1A 4481   1.909   4.371   6.724 -2.7932 -0.0371  2.0614
   45CHL1   H1B 4482   1.901   4.192   6.731 -1.6016  0.1332  1.7150
   45CHL1    C2 4483   1.950   4.291   6.913 -0.5241 -0.0806 -0.5881
   45CHL1   H2A 4484   1.843   4.284   6.941  0.0940  2.1087  2.9445
   45CHL1   H2B 4485   1.976   4.395   6.943 -0.2295 -0.0392 -0.9720
   45CHL1   C20 4486   2.136   4.247   5.987  0.0501  1.3141 -0.2092
   45CHL1   H20 4487   2.215   4.324   5.982 -0.7535  2.1214 -0.8779
   45CHL1   C21 4488   1.993   4.298   5.981  0.1618 -0.0406  0.2288
   45CHL1  H21A 4489   1.971   4.356   5.889  1.9575  0.8688  0.3340
   45CHL1  H21B 4490   1.967   4.374   6.057  2.3286  3.5558 -2.3226
   45CHL1  H21C 4491   1.933   4.205   5.989 -0.5961  0.2771 -1.3220
   45CHL1   C22 4492   2.146   4.143   5.874 -0.7730 -0.1198  0.0181
   45CHL1  H22A 4493   2.248   4.099   5.872 -0.8289 -0.3313  1.0498
   45CHL1  H22B 4494   2.070   4.061   5.877  0.4335 -1.3032 -0.5035
   45CHL1   C23 4495   2.126   4.200   5.738  0.3051 -0.3492 -0.0682
   45CHL1  H23A 4496   2.015   4.206   5.739  0.3628  1.2825  1.7343
   45CHL1  H23B 4497   2.160   4.304   5.718  1.5197 -0.8042 -0.4489
   45CHL1   C24 4498   2.159   4.097   5.632  0.3549 -0.0112 -0.2670
   45CHL1  H24A 4499   2.263   4.058   5.646  0.7963  0.6179 -1.6355
   45CHL1  H24B 4500   2.097   4.007   5.654  1.1958  0.0917  3.1320
   45CHL1   C25 4501   2.138   4.136   5.482  0.3444  1.3979 -0.7713
   45CHL1   H25 4502   2.168   4.044   5.427 -1.8909  1.5393 -2.3509
   45CHL1   C26 4503   1.998   4.171   5.445  0.0882  0.2329  0.2424
   45CHL1  H26A 4504   1.921   4.090   5.453  0.0720  0.2635  0.4080
   45CHL1  H26B 4505   1.947   4.253   5.499 -2.7972  0.8575 -3.1092
   45CHL1  H26C 4506   2.005   4.197   5.337  0.7913 -0.9334 -0.0110
   45CHL1   C27 4507   2.235   4.248   5.449  0.6044  0.1234 -0.5763
   45CHL1  H27A 4508   2.184   4.345   5.468 -2.0797 -0.9110 -1.9653
   45CHL1  H27B 4509   2.328   4.250   5.510  0.0134  0.3677  0.3302
   45CHL1  H27C 4510   2.276   4.239   5.346 -0.2518  0.7997 -0.9926
   46CHL1    C3 4511   1.363   0.584   6.816  0.3012 -0.6144 -0.1627
   46CHL1    H3 4512   1.263   0.549   6.785  0.1479 -1.1603  0.9058
   46CHL1    O3 4513   1.345   0.654   6.943 -0.0355 -0.1776  0.9659
   46CHL1   H3' 4514   1.436   0.673   6.968  1.6123 -4.8972 -0.3709
   46CHL1    C4 4515   1.449   0.458   6.829 -0.2123  0.4133 -1.2183
   46CHL1   H4A 4516   1.530   0.471   6.905  0.5559 -1.3439 -1.6783
   46CHL1   H4B 4517   1.372   0.395   6.878  0.2110  0.8081  0.0075
   46CHL1    C5 4518   1.508   0.390   6.703  1.1342 -0.0560 -0.2033
   46CHL1    C6 4519   1.483   0.261   6.678  0.4867  0.9797 -0.2543
   46CHL1    H6 4520   1.420   0.207   6.750 -0.4110  0.5364 -1.3326
   46CHL1    C7 4521   1.521   0.189   6.545  0.4442 -0.4870  0.6009
   46CHL1   H7A 4522   1.581   0.098   6.562  2.2746  0.5736  0.1364
   46CHL1   H7B 4523   1.431   0.181   6.481  1.3066 -1.1142 -0.5703
   46CHL1    C8 4524   1.624   0.278   6.470  0.2927 -0.2741  0.8541
   46CHL1    H8 4525   1.716   0.277   6.533 -1.0077 -0.0472  2.8351
   46CHL1   C14 4526   1.640   0.223   6.333  0.1491  0.3797 -0.5527
   46CHL1   H14 4527   1.543   0.246   6.284 -0.6268  2.0422  1.6013
   46CHL1   C15 4528   1.663   0.079   6.314  0.5074  0.4438  0.5470
   46CHL1  H15A 4529   1.729   0.030   6.390 -0.5075  1.0095  1.8209
   46CHL1  H15B 4530   1.571   0.019   6.330  0.0981  0.1545 -2.3200
   46CHL1   C16 4531   1.710   0.056   6.166 -0.1706  0.6462 -0.4272
   46CHL1  H16A 4532   1.797  -0.013   6.175 -1.8400 -1.3724  1.7451
   46CHL1  H16B 4533   1.637   0.009   6.097 -0.5584 -0.3366  0.6222
   46CHL1   C17 4534   1.744   0.199   6.117  0.0832 -0.8646  0.3761
   46CHL1   H17 4535   1.653   0.233   6.063  0.4392 -2.2690 -1.2013
   46CHL1   C13 4536   1.744   0.294   6.246 -0.5001  0.6176  0.2239
   46CHL1   C18 4537   1.879   0.294   6.311  0.7215  0.0572 -0.4746
   46CHL1  H18A 4538   1.959   0.357   6.265  2.4307 -0.3066  1.7925
   46CHL1  H18B 4539   1.870   0.341   6.412 -4.9691  0.2222 -0.7466
   46CHL1  H18C 4540   1.908   0.187   6.319 -2.8519 -1.1344 -1.5980
   46CHL1   C12 4541   1.681   0.433   6.222 -0.5835  0.4381  0.5597
   46CHL1  H12A 4542   1.760   0.491   6.171  0.9290 -2.3471 -0.4355
   46CHL1  H12B 4543   1.586   0.422   6.165 -0.2046 -3.7927  0.4200
   46CHL1   C11 4544   1.664   0.498   6.365  0.0802 -0.0651  0.5983
   46CHL1  H11A 4545   1.764   0.502   6.412  0.6629 -1.2609 -0.4763
   46CHL1  H11B 4546   1.633   0.601   6.335  0.8085  0.0167  0.1042
   46CHL1    C9 4547   1.578   0.425   6.465 -0.7854  0.4458  0.2243
   46CHL1    H9 4548   1.478   0.431   6.416 -1.1225  0.8766  0.9566
   46CHL1   C10 4549   1.563   0.484   6.600 -0.1420 -0.1347  0.2233
   46CHL1   C19 4550   1.700   0.522   6.660  0.5872  0.9083  0.4203
   46CHL1  H19A 4551   1.698   0.558   6.765  1.4095 -0.6052  0.9796
   46CHL1  H19B 4552   1.765   0.432   6.662  0.3515  0.7425  0.6227
   46CHL1  H19C 4553   1.759   0.593   6.597  1.1275  0.6419  0.6219
   46CHL1    C1 4554   1.465   0.605   6.584 -0.2783 -0.3280  0.4128
   46CHL1   H1A 4555   1.506   0.673   6.506 -1.1218 -0.1712  0.0959
   46CHL1   H1B 4556   1.372   0.565   6.538 -0.1124  0.7743 -0.9596
   46CHL1    C2 4557   1.425   0.682   6.709 -0.4778 -0.2188 -0.5683
   46CHL1   H2A 4558   1.354   0.766   6.694 -2.0623 -1.6201 -1.2166
   46CHL1   H2B 4559   1.515   0.728   6.756  0.9265 -0.9933 -2.3821
   46CHL1   C20 4560   1.853   0.194   6.007 -0.6061  0.3508 -0.4861
   46CHL1   H20 4561   1.944   0.157   6.061 -1.2745  1.0503  1.1985
   46CHL1   C21 4562   1.879   0.332   5.950 -0.0063 -0.2752 -0.0559
   46CHL1  H21A 4563   1.919   0.398   6.029  0.7819  3.1306 -3.0441
   46CHL1  H21B 4564   1.791   0.385   5.909  1.3695  0.7262 -1.8326
   46CHL1  H21C 4565   1.955   0.333   5.869  0.0388  0.7706 -0.0149
   46CHL1   C22 4566   1.832   0.096   5.886  0.1199 -0.0828 -0.7602
   46CHL1  H22A 4567   1.927   0.097   5.830  1.4519  0.6526  1.3908
   46CHL1  H22B 4568   1.806  -0.006   5.923  1.1095 -0.3530 -0.8049
   46CHL1   C23 4569   1.721   0.127   5.786  0.3520  0.0588  0.3568
   46CHL1  H23A 4570   1.623   0.136   5.837  0.1492 -0.6648  0.1022
   46CHL1  H23B 4571   1.746   0.218   5.727  1.6465  0.7046  1.8160
   46CHL1   C24 4572   1.700   0.009   5.691 -0.0731 -0.7551 -0.3542
   46CHL1  H24A 4573   1.801  -0.004   5.648 -0.6997  2.7197 -3.4294
   46CHL1  H24B 4574   1.660  -0.075   5.752  0.4018 -0.8428 -0.1657
   46CHL1   C25 4575   1.614   0.049   5.567 -0.1586  0.6023 -0.2662
   46CHL1   H25 4576   1.649   0.149   5.535 -2.0882  0.5005 -3.1183
   46CHL1   C26 4577   1.644  -0.045   5.451 -0.1726  0.4816 -0.2862
   46CHL1  H26A 4578   1.751  -0.043   5.421 -0.3032  1.1962 -0.7365
   46CHL1  H26B 4579   1.612  -0.146   5.484  0.2935  0.7509  1.0206
   46CHL1  H26C 4580   1.573  -0.015   5.371 -0.1601  0.9619 -0.1193
   46CHL1   C27 4581   1.464   0.046   5.606  0.4244  0.1648 -0.8384
   46CHL1  H27A 4582   1.405   0.043   5.511  0.7189  0.8713 -1.0487
   46CHL1  H27B 4583   1.427  -0.040   5.667 -1.9907  2.9424  1.9434
   46CHL1  H27C 4584   1.433   0.137   5.661 -0.0183  0.4132 -1.4847
   47CHL1    C3 4585   0.680   5.860   6.547  0.4664 -0.4360  0.2694
   47CHL1    H3 4586   0.674   5.965   6.510 -0.2339 -0.1143  1.2639
   47CHL1    O3 4587   0.671   5.877   6.687  0.1809  0.6974  0.2459
   47CHL1   H3' 4588   0.673   5.795   6.736  1.1989  1.0649  0.8277
   47CHL1    C4 4589   0.563   5.774   6.494  0.2307  0.2727  0.2801
   47CHL1   H4A 4590   0.564   5.680   6.553 -1.4757 -0.2072 -0.3756
   47CHL1   H4B 4591   0.469   5.823   6.528  0.1449  1.2196 -1.2039
   47CHL1    C5 4592   0.570   5.761   6.343 -0.4187  1.0156 -1.1300
   47CHL1    C6 4593   0.467   5.806   6.265 -0.4491  0.3467  0.4442
   47CHL1    H6 4594   0.373   5.839   6.312 -0.1194  0.5604  0.9666
   47CHL1    C7 4595   0.470   5.789   6.119  0.4733  0.3526 -0.1785
   47CHL1   H7A 4596   0.369   5.755   6.089  0.6608 -1.2469  0.9016
   47CHL1   H7B 4597   0.491   5.883   6.064 -0.7746  0.8755  0.2071
   47CHL1    C8 4598   0.569   5.686   6.072 -0.4009 -0.3878  0.3095
   47CHL1    H8 4599   0.531   5.586   6.104 -1.5354  0.4045  1.5521
   47CHL1   C14 4600   0.586   5.688   5.921 -0.2215  0.4495  0.3228
   47CHL1   H14 4601   0.622   5.792   5.906 -1.0743  1.3637  3.6299
   47CHL1   C15 4602   0.461   5.673   5.822  0.3630  0.7822 -0.4718
   47CHL1  H15A 4603   0.417   5.584   5.871 -0.7001  0.1102 -2.5384
   47CHL1  H15B 4604   0.393   5.760   5.834 -1.3957 -0.4736 -1.0476
   47CHL1   C16 4605   0.519   5.638   5.687  0.0285  0.1052  0.0099
   47CHL1  H16A 4606   0.482   5.542   5.644  2.4326 -1.2542  0.7698
   47CHL1  H16B 4607   0.503   5.729   5.626  2.1244  0.1534 -0.5215
   47CHL1   C17 4608   0.676   5.618   5.713 -0.8236  0.0757  1.4056
   47CHL1   H17 4609   0.717   5.720   5.695 -1.1222  0.2117  1.4717
   47CHL1   C13 4610   0.689   5.595   5.862 -0.7430  0.6749 -0.1298
   47CHL1   C18 4611   0.649   5.447   5.888  0.1320  0.2726 -0.1543
   47CHL1  H18A 4612   0.640   5.419   5.995  0.1076 -2.9858 -0.8872
   47CHL1  H18B 4613   0.543   5.433   5.858 -0.2888  1.2319  0.8557
   47CHL1  H18C 4614   0.714   5.373   5.835 -0.3397  0.8676 -1.6214
   47CHL1   C12 4615   0.823   5.629   5.927  0.1908  0.5124  0.1963
   47CHL1  H12A 4616   0.908   5.568   5.892 -0.0462  0.2933  0.0006
   47CHL1  H12B 4617   0.840   5.734   5.894 -1.5077  0.1451 -2.1378
   47CHL1   C11 4618   0.812   5.616   6.080 -0.4709  0.4210  0.4959
   47CHL1  H11A 4619   0.795   5.508   6.099  0.3945 -0.0923 -1.3498
   47CHL1  H11B 4620   0.912   5.646   6.119  0.5870  1.9601 -2.9794
   47CHL1    C9 4621   0.706   5.707   6.138 -0.0185  0.7502 -0.3046
   47CHL1    H9 4622   0.748   5.808   6.119  2.0530 -0.1266 -0.5969
   47CHL1   C10 4623   0.697   5.694   6.299  0.0618  0.1018  0.3092
   47CHL1   C19 4624   0.705   5.553   6.344  0.3211  0.8085  0.2080
   47CHL1  H19A 4625   0.714   5.547   6.454  1.1842 -1.1531  0.0731
   47CHL1  H19B 4626   0.618   5.491   6.315  1.8529  0.3637 -4.2601
   47CHL1  H19C 4627   0.801   5.506   6.311  0.9780  1.5883  0.9598
   47CHL1    C1 4628   0.822   5.776   6.361  0.7401 -0.0444  0.1158
   47CHL1   H1A 4629   0.916   5.724   6.331  0.7441 -0.3984  0.7386
   47CHL1   H1B 4630   0.830   5.873   6.308 -1.8194 -0.8046 -1.9088
   47CHL1    C2 4631   0.815   5.792   6.510 -0.2417 -0.1552  0.7437
   47CHL1   H2A 4632   0.890   5.865   6.546  1.5512 -1.5329 -0.0680
   47CHL1   H2B 4633   0.822   5.696   6.566 -0.8256 -0.8213 -0.2860
   47CHL1   C20 4634   0.740   5.525   5.608  0.3089 -0.3381  1.3526
   47CHL1   H20 4635   0.692   5.425   5.610 -1.1118  0.2859  0.1243
   47CHL1   C21 4636   0.891   5.511   5.637 -0.0999  0.0594  0.0246
   47CHL1  H21A 4637   0.897   5.458   5.735  0.3926 -3.0885 -1.5929
   47CHL1  H21B 4638   0.938   5.611   5.629  0.2856 -0.1803 -0.7567
   47CHL1  H21C 4639   0.933   5.444   5.559 -0.6136  0.1987 -0.3760
   47CHL1   C22 4640   0.707   5.595   5.472 -0.1835  0.7931  0.2822
   47CHL1  H22A 4641   0.598   5.601   5.454 -0.1197 -1.8276 -1.5260
   47CHL1  H22B 4642   0.770   5.687   5.468  0.9424  0.2225  2.6886
   47CHL1   C23 4643   0.757   5.523   5.346 -0.0631 -0.0402  0.1671
   47CHL1  H23A 4644   0.758   5.593   5.259  1.2984  0.3345  0.4708
   47CHL1  H23B 4645   0.855   5.476   5.365 -1.0370 -0.8792  3.7233
   47CHL1   C24 4646   0.652   5.415   5.305 -0.3874  0.1646 -0.0685
   47CHL1  H24A 4647   0.658   5.347   5.393 -1.4753 -1.3598 -1.1291
   47CHL1  H24B 4648   0.548   5.454   5.299 -1.6721 -2.9982  0.0145
   47CHL1   C25 4649   0.691   5.340   5.172  1.9041 -0.4386 -0.0375
   47CHL1   H25 4650   0.619   5.257   5.155 -0.0704  1.4178 -1.2829
   47CHL1   C26 4651   0.661   5.435   5.056  0.1499  0.0090 -0.1506
   47CHL1  H26A 4652   0.664   5.382   4.958  0.7116  1.8293 -1.1840
   47CHL1  H26B 4653   0.556   5.465   5.072 -0.2734 -1.9607  1.1332
   47CHL1  H26C 4654   0.723   5.527   5.057  1.5330 -0.8171  2.9730
   47CHL1   C27 4655   0.834   5.280   5.163  0.0180  0.5185 -0.0995
   47CHL1  H27A 4656   0.903   5.361   5.194  1.7394 -1.2759  0.9927
   47CHL1  H27B 4657   0.849   5.194   5.232  1.0940  1.1221  0.4462
   47CHL1  H27C 4658   0.856   5.245   5.060 -0.1108 -0.7222  0.2743
   48CHL1    C3 4659   6.607   1.174   6.744 -0.0914 -0.4228  0.3685
   48CHL1    H3 4660   6.551   1.082   6.770 -1.7665  0.1988 -0.8794
   48CHL1    O3 4661   6.620   1.261   6.858  0.8529  0.0423 -0.1587
   48CHL1   H3' 4662   6.689   1.219   6.911  0.6947 -1.3960 -1.0298
   48CHL1    C4 4663   6.752   1.138   6.706  0.0411 -0.1783  0.8056
   48CHL1   H4A 4664   6.811   1.231   6.697 -2.4910  1.6278  1.6753
   48CHL1   H4B 4665   6.797   1.079   6.789 -0.9065  2.0316  3.0010
   48CHL1    C5 4666   6.759   1.056   6.578  0.2565 -0.1878 -0.0960
   48CHL1    C6 4667   6.808   0.934   6.570 -0.1679  0.0715 -0.0106
   48CHL1    H6 4668   6.855   0.895   6.661  2.4299  2.6120 -0.1300
   48CHL1    C7 4669   6.824   0.864   6.440 -0.1400 -0.5202  0.9614
   48CHL1   H7A 4670   6.921   0.810   6.444 -0.9496 -2.0069  1.2236
   48CHL1   H7B 4671   6.744   0.791   6.415 -0.7793  0.7719 -1.0063
   48CHL1    C8 4672   6.826   0.966   6.318 -0.2958  0.0991  0.1138
   48CHL1    H8 4673   6.916   1.029   6.337 -1.0584  0.6719  2.0511
   48CHL1   C14 4674   6.834   0.880   6.185 -0.8925  0.2753 -0.4399
   48CHL1   H14 4675   6.750   0.806   6.186 -1.7148  1.1870  1.0197
   48CHL1   C15 4676   6.958   0.794   6.156 -0.6744  0.1664  0.1650
   48CHL1  H15A 4677   7.052   0.854   6.162  0.4412 -1.4332 -0.5948
   48CHL1  H15B 4678   6.970   0.715   6.233 -1.1926 -1.4223 -1.3428
   48CHL1   C16 4679   6.920   0.744   6.016 -0.1020 -0.1567  0.2957
   48CHL1  H16A 4680   7.020   0.735   5.967 -0.3975 -0.4381 -0.2546
   48CHL1  H16B 4681   6.874   0.643   6.015  0.5827 -0.4933  0.9755
   48CHL1   C17 4682   6.832   0.850   5.952 -0.0803  0.5767 -0.1960
   48CHL1   H17 4683   6.734   0.798   5.946 -0.0143 -0.6541  4.7393
   48CHL1   C13 4684   6.817   0.957   6.059  0.8012 -0.0332  0.1028
   48CHL1   C18 4685   6.927   1.069   6.036 -0.2001  0.0430  0.6558
   48CHL1  H18A 4686   6.961   1.123   6.127 -2.2697 -0.9529  2.0883
   48CHL1  H18B 4687   7.018   1.019   5.996 -1.0572  0.8162 -2.5724
   48CHL1  H18C 4688   6.890   1.130   5.951  0.1718 -2.5469 -1.5474
   48CHL1   C12 4689   6.679   1.034   6.065  0.2944  0.0239  0.8362
   48CHL1  H12A 4690   6.666   1.092   5.971  1.1150 -0.3989  0.4483
   48CHL1  H12B 4691   6.600   0.957   6.080  0.4796 -0.2914  0.2471
   48CHL1   C11 4692   6.671   1.133   6.191  0.3785 -0.5129 -0.3075
   48CHL1  H11A 4693   6.742   1.212   6.156 -0.4277 -0.6203 -2.3639
   48CHL1  H11B 4694   6.575   1.188   6.205  0.4654 -0.5180  0.3287
   48CHL1    C9 4695   6.706   1.052   6.324  0.7003 -0.0643  0.1468
   48CHL1    H9 4696   6.618   0.985   6.334 -0.9185  2.1995  2.3149
   48CHL1   C10 4697   6.704   1.132   6.454  0.4359 -1.1034 -0.8352
   48CHL1   C19 4698   6.778   1.274   6.426 -0.4443  0.5542  0.6582
   48CHL1  H19A 4699   6.708   1.351   6.388  1.3137  1.1885 -1.4735
   48CHL1  H19B 4700   6.820   1.334   6.510  0.7888  1.1326 -0.3357
   48CHL1  H19C 4701   6.863   1.257   6.357 -0.4352 -0.7538  0.9661
   48CHL1    C1 4702   6.562   1.164   6.502  0.5012  0.2816  0.0032
   48CHL1   H1A 4703   6.514   1.223   6.421 -1.7369  0.7637  1.5818
   48CHL1   H1B 4704   6.514   1.064   6.513 -2.8659  1.8265  0.6806
   48CHL1    C2 4705   6.542   1.250   6.624 -0.5809  0.1570  0.0997
   48CHL1   H2A 4706   6.435   1.264   6.652 -0.2062  1.8785  0.7422
   48CHL1   H2B 4707   6.599   1.344   6.613 -0.1153 -0.0207  0.9072
   48CHL1   C20 4708   6.858   0.883   5.801 -0.0397 -0.3187  0.4206
   48CHL1   H20 4709   6.947   0.950   5.789 -0.6866  0.2316 -2.0041
   48CHL1   C21 4710   6.730   0.952   5.746  0.0002  1.0051  0.1983
   48CHL1  H21A 4711   6.755   1.059   5.764  2.1227  0.2829  1.9679
   48CHL1  H21B 4712   6.714   0.940   5.636 -0.7730  1.3515  0.2722
   48CHL1  H21C 4713   6.642   0.916   5.802  0.1256  0.2981 -0.0441
   48CHL1   C22 4714   6.884   0.759   5.715 -0.5707  0.5649  0.1722
   48CHL1  H22A 4715   6.914   0.668   5.771 -2.7610 -1.3006 -1.4554
   48CHL1  H22B 4716   6.798   0.716   5.658 -0.2581 -0.0870  0.1838
   48CHL1   C23 4717   6.993   0.778   5.613 -0.3739  0.4042  0.1590
   48CHL1  H23A 4718   6.978   0.877   5.565 -0.2013  0.3530 -0.0027
   48CHL1  H23B 4719   7.087   0.761   5.669 -0.2346 -1.2204 -0.4924
   48CHL1   C24 4720   7.003   0.674   5.492 -0.1042 -0.4266  0.2252
   48CHL1  H24A 4721   7.044   0.576   5.525 -1.7875 -1.4935 -0.7243
   48CHL1  H24B 4722   6.903   0.673   5.444  0.7206 -0.6666 -1.6015
   48CHL1   C25 4723   7.097   0.711   5.382  0.1219 -0.1128 -0.1165
   48CHL1   H25 4724   7.194   0.739   5.430  0.4223  0.4728 -1.0424
   48CHL1   C26 4725   7.127   0.600   5.285 -0.6460 -0.6580 -0.3113
   48CHL1  H26A 4726   7.219   0.628   5.230 -0.1388  1.8169  1.6483
   48CHL1  H26B 4727   7.156   0.510   5.343  0.4491  0.6989  1.3190
   48CHL1  H26C 4728   7.057   0.577   5.202 -1.2422 -0.3765  0.1062
   48CHL1   C27 4729   7.043   0.832   5.297  0.0212  0.5101 -0.1725
   48CHL1  H27A 4730   6.994   0.917   5.350  1.1103  1.2623 -0.3457
   48CHL1  H27B 4731   7.129   0.877   5.242  0.2984 -1.4842 -1.4662
   48CHL1  H27C 4732   6.970   0.803   5.218 -0.3507  1.2934 -0.1300
   49CHL1    C3 4733   3.809   0.516   3.603 -0.2347 -0.1859 -0.0420
   49CHL1    H3 4734   3.784   0.409   3.590 -4.7632  0.5716  0.8870
   49CHL1    O3 4735   3.835   0.585   3.486 -0.0539  0.0742  0.1944
   49CHL1   H3' 4736   3.752   0.570   3.438  0.3514  0.2868 -0.5925
   49CHL1    C4 4737   3.685   0.581   3.658 -0.3474 -0.0228  0.4987
   49CHL1   H4A 4738   3.708   0.689   3.675  2.2917 -0.4869  0.3382
   49CHL1   H4B 4739   3.599   0.573   3.589  0.7766  1.0790 -1.1087
   49CHL1    C5 4740   3.645   0.541   3.796  0.1601 -0.3590 -0.3419
   49CHL1    C6 4741   3.526   0.495   3.830  0.2551  0.7675  0.2501
   49CHL1    H6 4742   3.448   0.498   3.752  2.0524 -0.2594 -1.6844
   49CHL1    C7 4743   3.490   0.448   3.969 -0.5235 -0.8480 -0.5205
   49CHL1   H7A 4744   3.386   0.484   3.983 -0.8211 -0.4649 -3.2509
   49CHL1   H7B 4745   3.494   0.338   3.982 -0.2119 -0.6293  1.4943
   49CHL1    C8 4746   3.591   0.490   4.083 -0.8337 -0.2791  0.0935
   49CHL1    H8 4747   3.567   0.595   4.111  3.5608  0.6826  0.9433
   49CHL1   C14 4748   3.582   0.402   4.202 -0.0360 -0.1831  0.6972
   49CHL1   H14 4749   3.609   0.304   4.157  0.1341  0.3041 -0.2807
   49CHL1   C15 4750   3.441   0.390   4.265  0.8772  0.2212  0.1358
   49CHL1  H15A 4751   3.399   0.492   4.276  1.1027  0.0675  3.3801
   49CHL1  H15B 4752   3.375   0.317   4.214  1.9803 -0.2062 -0.7359
   49CHL1   C16 4753   3.469   0.347   4.407 -0.1094  0.0833 -0.2732
   49CHL1  H16A 4754   3.428   0.422   4.477  1.5333 -1.0132  1.9816
   49CHL1  H16B 4755   3.416   0.252   4.431 -2.6703  1.5285  0.0701
   49CHL1   C17 4756   3.626   0.341   4.419  0.0456  0.3933  0.1039
   49CHL1   H17 4757   3.650   0.238   4.384 -0.1600  0.1629  0.6355
   49CHL1   C13 4758   3.678   0.439   4.316 -0.1117 -0.7291  0.3361
   49CHL1   C18 4759   3.657   0.589   4.359  0.3340  0.0869 -0.2723
   49CHL1  H18A 4760   3.716   0.613   4.450 -0.7840  1.0634  0.2238
   49CHL1  H18B 4761   3.668   0.666   4.280 -1.4463  1.7309  0.9678
   49CHL1  H18C 4762   3.555   0.598   4.401  0.2810  1.5222 -0.6476
   49CHL1   C12 4763   3.818   0.422   4.284 -0.1086  0.0322  0.6077
   49CHL1  H12A 4764   3.887   0.470   4.358  1.8688  1.1107 -1.7920
   49CHL1  H12B 4765   3.851   0.317   4.273 -2.0246 -0.5216 -0.2535
   49CHL1   C11 4766   3.846   0.502   4.148 -0.1378  0.3127 -0.1677
   49CHL1  H11A 4767   3.868   0.608   4.174 -0.8803  0.8189 -1.5274
   49CHL1  H11B 4768   3.944   0.470   4.105  1.1683  2.5016  1.0101
   49CHL1    C9 4769   3.741   0.480   4.033  0.5849 -0.5596  0.3909
   49CHL1    H9 4770   3.762   0.373   4.012 -1.2084 -0.8077 -0.2836
   49CHL1   C10 4771   3.768   0.562   3.893 -0.1739  0.5259 -0.4762
   49CHL1   C19 4772   3.795   0.713   3.928 -0.1709  0.3219  0.5836
   49CHL1  H19A 4773   3.705   0.768   3.960 -0.9439 -0.3170 -0.4437
   49CHL1  H19B 4774   3.871   0.720   4.009 -0.5476  3.2642  0.7662
   49CHL1  H19C 4775   3.846   0.767   3.846  0.1260 -0.6624  0.1045
   49CHL1    C1 4776   3.897   0.492   3.831 -0.2511  0.0001 -0.4545
   49CHL1   H1A 4777   3.983   0.507   3.899  0.5418 -1.4167 -1.1054
   49CHL1   H1B 4778   3.876   0.385   3.813  2.1642 -0.4163 -1.0799
   49CHL1    C2 4779   3.933   0.545   3.694 -0.1607  0.1305  0.0042
   49CHL1   H2A 4780   4.020   0.499   3.642 -0.8102 -0.0084 -0.9868
   49CHL1   H2B 4781   3.949   0.654   3.703 -1.3174  0.4337 -1.2485
   49CHL1   C20 4782   3.659   0.361   4.572  0.2331  0.8394 -0.3560
   49CHL1   H20 4783   3.613   0.457   4.606  0.5807  0.2349  1.9750
   49CHL1   C21 4784   3.805   0.367   4.606 -0.5103  0.6431 -0.2669
   49CHL1  H21A 4785   3.814   0.334   4.712 -0.0367  2.1219  0.1905
   49CHL1  H21B 4786   3.840   0.473   4.603 -0.0218  0.5623  1.2698
   49CHL1  H21C 4787   3.877   0.309   4.544 -0.4580 -0.7098  1.0099
   49CHL1   C22 4788   3.585   0.255   4.662  0.4210  0.3930 -0.4384
   49CHL1  H22A 4789   3.477   0.247   4.637  0.0334 -0.6213  1.3986
   49CHL1  H22B 4790   3.620   0.151   4.647  4.0168  1.1273  1.6957
   49CHL1   C23 4791   3.589   0.275   4.816  0.3429  0.3032 -0.3796
   49CHL1  H23A 4792   3.682   0.248   4.869  0.9597  0.1253 -1.5254
   49CHL1  H23B 4793   3.568   0.384   4.830 -0.6261  0.0661  0.0741
   49CHL1   C24 4794   3.467   0.204   4.878  0.1137 -0.7080  0.5076
   49CHL1  H24A 4795   3.378   0.243   4.824  0.7536  2.3387  1.4800
   49CHL1  H24B 4796   3.481   0.095   4.864  0.6132 -0.8414  1.9200
   49CHL1   C25 4797   3.446   0.244   5.024  0.2019  0.1040 -0.6619
   49CHL1   H25 4798   3.446   0.355   5.030 -2.0990  0.1678 -1.0642
   49CHL1   C26 4799   3.308   0.208   5.070  0.3030  0.5195 -0.3644
   49CHL1  H26A 4800   3.286   0.239   5.174 -0.7831 -0.1659 -0.3683
   49CHL1  H26B 4801   3.234   0.252   4.999 -1.9719  1.0319  2.1677
   49CHL1  H26C 4802   3.294   0.098   5.080  1.4094  0.4208  0.2938
   49CHL1   C27 4803   3.557   0.200   5.113  0.0100  0.8432  0.3633
   49CHL1  H27A 4804   3.559   0.089   5.123  0.0265  0.9134  1.2131
   49CHL1  H27B 4805   3.656   0.242   5.084  0.4057  0.3983  1.0371
   49CHL1  H27C 4806   3.534   0.232   5.217  0.0992 -0.0432  0.6665
   50CHL1    C3 4807   3.425   3.545   3.590  0.1312  0.0406 -0.3514
   50CHL1    H3 4808   3.506   3.477   3.625 -0.4870 -1.6311 -2.0285
   50CHL1    O3 4809   3.427   3.529   3.446 -0.1082  0.0240 -0.0045
   50CHL1   H3' 4810   3.357   3.465   3.431  0.2325 -0.2876 -0.2855
   50CHL1    C4 4811   3.297   3.501   3.660 -0.1129  0.3249 -0.3414
   50CHL1   H4A 4812   3.212   3.559   3.619  0.2836  0.7116 -0.6231
   50CHL1   H4B 4813   3.285   3.396   3.626 -0.8867  0.5540 -0.7990
   50CHL1    C5 4814   3.296   3.517   3.809  0.4117 -0.2001  0.3680
   50CHL1    C6 4815   3.287   3.415   3.892  0.4297  0.9623 -0.2303
   50CHL1    H6 4816   3.288   3.313   3.852  3.1412  1.2096 -1.0071
   50CHL1    C7 4817   3.288   3.421   4.043 -0.2624  0.0108  0.1694
   50CHL1   H7A 4818   3.203   3.360   4.079 -0.8634  0.6619 -0.1340
   50CHL1   H7B 4819   3.377   3.372   4.089  1.9625  1.0934 -2.7188
   50CHL1    C8 4820   3.265   3.570   4.094 -0.5620 -0.2279 -0.0020
   50CHL1    H8 4821   3.163   3.607   4.068  0.3637  2.1048 -0.6411
   50CHL1   C14 4822   3.297   3.588   4.243  0.5391  0.2806 -0.0598
   50CHL1   H14 4823   3.404   3.558   4.245  0.4704  0.0909  0.9529
   50CHL1   C15 4824   3.218   3.504   4.348 -0.1338  0.3930  0.3976
   50CHL1  H15A 4825   3.112   3.528   4.324  0.7927  2.3251 -2.2975
   50CHL1  H15B 4826   3.228   3.394   4.339  1.0708  0.4611  0.7528
   50CHL1   C16 4827   3.249   3.559   4.483 -0.0375  0.1874 -0.4028
   50CHL1  H16A 4828   3.168   3.591   4.551  0.3057 -1.2940  0.7641
   50CHL1  H16B 4829   3.317   3.494   4.543  2.3770  2.4389 -0.4762
   50CHL1   C17 4830   3.333   3.688   4.448  0.6418 -0.5293 -0.0260
   50CHL1   H17 4831   3.437   3.650   4.441  0.5587 -1.4043  2.5979
   50CHL1   C13 4832   3.302   3.726   4.293  0.6754  0.0158 -0.5549
   50CHL1   C18 4833   3.166   3.797   4.289  0.3605 -0.3139 -0.1602
   50CHL1  H18A 4834   3.094   3.751   4.360  0.4935 -0.9739 -0.4483
   50CHL1  H18B 4835   3.179   3.904   4.318  1.9869 -0.3867 -0.5393
   50CHL1  H18C 4836   3.125   3.796   4.186 -0.3889 -1.4977  0.1391
   50CHL1   C12 4837   3.409   3.808   4.216 -0.8351  0.3426  0.5734
   50CHL1  H12A 4838   3.411   3.913   4.249 -3.5793  0.3470  0.9820
   50CHL1  H12B 4839   3.508   3.760   4.228  0.2269  2.3797  0.3522
   50CHL1   C11 4840   3.362   3.813   4.070 -0.1286  0.4366 -0.1002
   50CHL1  H11A 4841   3.266   3.869   4.065 -0.1889  0.3747  0.3417
   50CHL1  H11B 4842   3.444   3.866   4.015  0.2108  1.0946  1.0079
   50CHL1    C9 4843   3.354   3.672   4.011 -0.2282 -0.2064  0.0078
   50CHL1    H9 4844   3.453   3.623   4.020 -0.6968 -1.0712  0.7745
   50CHL1   C10 4845   3.330   3.660   3.858  0.3850  0.5269  0.6918
   50CHL1   C19 4846   3.213   3.750   3.824  0.4865  0.0497 -0.1397
   50CHL1  H19A 4847   3.122   3.735   3.885  0.7466  0.7236  0.4183
   50CHL1  H19B 4848   3.250   3.853   3.839  0.0499  0.2957 -0.6939
   50CHL1  H19C 4849   3.174   3.750   3.720  0.1997 -0.4136 -0.0394
   50CHL1    C1 4850   3.452   3.704   3.783 -0.3422 -1.0802  0.7089
   50CHL1   H1A 4851   3.491   3.802   3.818 -2.0247 -0.7677  1.8589
   50CHL1   H1B 4852   3.536   3.636   3.810  0.9404 -0.4603 -1.5126
   50CHL1    C2 4853   3.449   3.693   3.629  0.8636 -0.0331  0.7537
   50CHL1   H2A 4854   3.549   3.723   3.593 -0.8043  2.0106 -2.7323
   50CHL1   H2B 4855   3.370   3.756   3.581 -0.7808 -1.3172  1.6672
   50CHL1   C20 4856   3.335   3.794   4.556 -0.2246 -0.0704  0.1332
   50CHL1   H20 4857   3.239   3.845   4.535 -1.4221 -2.6130 -0.9824
   50CHL1   C21 4858   3.457   3.885   4.543 -0.4522  0.0550 -0.3852
   50CHL1  H21A 4859   3.478   3.962   4.620  1.7525 -1.9281  1.1364
   50CHL1  H21B 4860   3.468   3.930   4.442 -1.5080 -0.7165 -0.8674
   50CHL1  H21C 4861   3.541   3.815   4.558  1.2767  2.3629  1.6339
   50CHL1   C22 4862   3.335   3.749   4.707 -0.3030  0.2003 -0.4077
   50CHL1  H22A 4863   3.261   3.668   4.729  0.7258 -0.2764  1.5479
   50CHL1  H22B 4864   3.434   3.701   4.720  0.0704  0.5008 -1.9781
   50CHL1   C23 4865   3.314   3.857   4.818 -0.5461  0.6273  0.6427
   50CHL1  H23A 4866   3.396   3.932   4.824 -1.3952  1.5933  0.3830
   50CHL1  H23B 4867   3.218   3.903   4.787  0.5515  2.4270 -0.2774
   50CHL1   C24 4868   3.294   3.780   4.948 -0.3160  0.2828 -0.2243
   50CHL1  H24A 4869   3.230   3.690   4.937 -0.0354  0.0123  0.3159
   50CHL1  H24B 4870   3.393   3.736   4.971 -0.3995  0.2289  0.0404
   50CHL1   C25 4871   3.238   3.846   5.069 -0.1837  0.1625 -0.1022
   50CHL1   H25 4872   3.258   3.770   5.147  0.8655  1.0218  0.5119
   50CHL1   C26 4873   3.318   3.972   5.113  0.0250  0.2228  0.1778
   50CHL1  H26A 4874   3.417   3.938   5.151  0.4169  3.0552  1.9165
   50CHL1  H26B 4875   3.331   4.051   5.037 -2.0632 -0.4847 -1.0035
   50CHL1  H26C 4876   3.274   4.001   5.211 -0.7190  1.1111 -0.4091
   50CHL1   C27 4877   3.093   3.892   5.041  0.2262  0.9466 -0.7205
   50CHL1  H27A 4878   3.096   3.966   4.959  1.3596  2.0893  0.3014
   50CHL1  H27B 4879   3.029   3.807   5.007 -0.2411  1.5072 -1.2488
   50CHL1  H27C 4880   3.052   3.934   5.135  1.2763 -0.2981  0.3436
   51CHL1    C3 4881   2.760   3.192   3.629  0.2734 -0.4358  0.0716
   51CHL1    H3 4882   2.703   3.281   3.664 -2.6043 -2.3904  0.7659
   51CHL1    O3 4883   2.796   3.218   3.496  0.0826 -0.0846 -0.9029
   51CHL1   H3' 4884   2.760   3.148   3.441 -1.6408 -1.1653  1.4553
   51CHL1    C4 4885   2.884   3.169   3.713  0.1712  0.0938  0.3483
   51CHL1   H4A 4886   2.931   3.071   3.688 -0.0692 -0.2210  1.1079
   51CHL1   H4B 4887   2.948   3.258   3.694  0.3098  0.1981  1.2577
   51CHL1    C5 4888   2.846   3.164   3.862  0.0175 -1.0289  0.5638
   51CHL1    C6 4889   2.902   3.245   3.955 -0.1906  0.9003  0.1309
   51CHL1    H6 4890   2.967   3.326   3.917 -0.0433  1.2557  1.1088
   51CHL1    C7 4891   2.860   3.254   4.095 -0.5678 -0.4863 -0.2963
   51CHL1   H7A 4892   2.938   3.278   4.171  0.6226 -4.5094 -0.0176
   51CHL1   H7B 4893   2.783   3.334   4.091 -0.0885 -0.0472 -0.7722
   51CHL1    C8 4894   2.776   3.137   4.140  1.0464 -0.4231 -0.6418
   51CHL1    H8 4895   2.841   3.048   4.151 -0.8651 -1.9001 -0.6797
   51CHL1   C14 4896   2.705   3.175   4.269 -0.1353  0.7866  0.3235
   51CHL1   H14 4897   2.636   3.258   4.243  1.2511  1.7982 -0.1937
   51CHL1   C15 4898   2.790   3.236   4.378  0.1101 -0.0993 -0.0018
   51CHL1  H15A 4899   2.885   3.185   4.407 -0.5928 -0.4760  1.7251
   51CHL1  H15B 4900   2.801   3.346   4.375 -0.6370  0.0447  1.7722
   51CHL1   C16 4901   2.712   3.210   4.506  0.5231 -0.2394  0.0287
   51CHL1  H16A 4902   2.769   3.145   4.575  0.2258 -0.4017  0.1223
   51CHL1  H16B 4903   2.686   3.306   4.555  1.0436 -0.0465 -0.0767
   51CHL1   C17 4904   2.578   3.137   4.463  0.3793  0.0907 -0.2718
   51CHL1   H17 4905   2.498   3.209   4.437  0.3796 -0.0583 -0.6994
   51CHL1   C13 4906   2.614   3.067   4.328 -0.7689  0.2993  0.0618
   51CHL1   C18 4907   2.698   2.936   4.357  0.1810 -0.5926 -0.3376
   51CHL1  H18A 4908   2.776   2.956   4.433 -0.5146 -0.3106  0.3133
   51CHL1  H18B 4909   2.632   2.855   4.394 -0.5010 -0.3898 -1.0850
   51CHL1  H18C 4910   2.748   2.896   4.267  2.1935  0.8412  0.0814
   51CHL1   C12 4911   2.509   3.045   4.222  0.0775 -0.5244  0.1127
   51CHL1  H12A 4912   2.445   2.958   4.249 -0.5546  0.2072  1.0335
   51CHL1  H12B 4913   2.451   3.138   4.206  0.8792  0.4951  2.6496
   51CHL1   C11 4914   2.572   2.991   4.091 -0.8316 -0.2739  0.1754
   51CHL1  H11A 4915   2.610   2.890   4.116 -2.1779 -1.3887 -1.9354
   51CHL1  H11B 4916   2.495   2.986   4.011  1.4304  0.8110 -2.2274
   51CHL1    C9 4917   2.677   3.095   4.037 -0.1007  0.5397 -0.7027
   51CHL1    H9 4918   2.609   3.180   4.014 -2.5139 -1.9184 -3.6149
   51CHL1   C10 4919   2.738   3.061   3.899  0.0106  0.4795 -0.1936
   51CHL1   C19 4920   2.801   2.919   3.905 -0.2021 -1.0494 -0.6058
   51CHL1  H19A 4921   2.873   2.911   3.989  0.9507 -1.7284 -1.6190
   51CHL1  H19B 4922   2.725   2.840   3.924  0.5375 -1.2531  1.8928
   51CHL1  H19C 4923   2.863   2.889   3.817  1.1801 -0.3592  0.0920
   51CHL1    C1 4924   2.621   3.063   3.791  0.6119 -0.3871 -0.5869
   51CHL1   H1A 4925   2.559   2.972   3.806  0.2901  0.1349  1.5945
   51CHL1   H1B 4926   2.554   3.150   3.803  0.8107 -0.3376  0.2358
   51CHL1    C2 4927   2.669   3.072   3.646  0.4436  0.3351 -0.1853
   51CHL1   H2A 4928   2.579   3.070   3.582 -1.0605 -2.3971  1.8380
   51CHL1   H2B 4929   2.732   2.981   3.633 -1.0899 -1.0413  1.5076
   51CHL1   C20 4930   2.503   3.059   4.572 -0.2989 -0.2127  0.4482
   51CHL1   H20 4931   2.578   2.992   4.619 -2.4338 -1.2286  2.5813
   51CHL1   C21 4932   2.401   2.967   4.512 -0.1815 -0.1963  0.1416
   51CHL1  H21A 4933   2.439   2.885   4.447 -1.2244  0.0137 -0.7672
   51CHL1  H21B 4934   2.323   3.021   4.453  0.2926  1.2381  0.7823
   51CHL1  H21C 4935   2.354   2.915   4.597  0.9125 -1.8329 -0.2163
   51CHL1   C22 4936   2.457   3.164   4.679 -0.0777  0.5226 -0.1470
   51CHL1  H22A 4937   2.520   3.256   4.677  1.1667 -0.2577  1.2227
   51CHL1  H22B 4938   2.351   3.190   4.661 -0.6081 -1.1650  0.3965
   51CHL1   C23 4939   2.447   3.108   4.823 -0.4311 -0.6409  0.4450
   51CHL1  H23A 4940   2.365   3.036   4.802 -0.8949  0.4120 -1.7675
   51CHL1  H23B 4941   2.533   3.046   4.854  0.8838  1.6612  1.6763
   51CHL1   C24 4942   2.403   3.211   4.925 -0.2932 -0.0788 -0.2316
   51CHL1  H24A 4943   2.459   3.306   4.920 -0.6422  0.2697  1.7084
   51CHL1  H24B 4944   2.300   3.240   4.893 -0.3067  1.5182  1.1151
   51CHL1   C25 4945   2.407   3.165   5.071 -0.3884 -0.4419 -0.6684
   51CHL1   H25 4946   2.505   3.123   5.102 -1.1285 -1.2570  0.6777
   51CHL1   C26 4947   2.374   3.285   5.158 -0.1017  0.3450  0.6968
   51CHL1  H26A 4948   2.271   3.306   5.122  1.2891  1.5783 -3.1048
   51CHL1  H26B 4949   2.371   3.273   5.268  0.9682  0.3497  0.7350
   51CHL1  H26C 4950   2.427   3.375   5.120  2.8673 -1.8365 -0.7379
   51CHL1   C27 4951   2.303   3.058   5.102  0.0705  0.3366 -0.1591
   51CHL1  H27A 4952   2.321   3.021   5.205 -1.9163 -1.2329 -0.3173
   51CHL1  H27B 4953   2.198   3.094   5.093 -0.2870 -0.6554 -0.0561
   51CHL1  H27C 4954   2.322   2.974   5.031 -0.3935  1.5967 -1.8443
   52CHL1    C3 4955   1.927   4.989   3.526  0.2144  0.3832  0.4311
   52CHL1    H3 4956   1.816   4.995   3.532  0.0740  0.4546 -1.6423
   52CHL1    O3 4957   1.965   4.947   3.392  0.0939  0.0897  0.1615
   52CHL1   H3' 4958   2.059   4.965   3.394  0.4574 -1.4895  3.4764
   52CHL1    C4 4959   1.973   5.129   3.559  0.0929  0.0216 -0.0550
   52CHL1   H4A 4960   2.084   5.132   3.557  0.0676  0.9814 -0.6740
   52CHL1   H4B 4961   1.924   5.193   3.483 -2.3387 -1.0687  0.4913
   52CHL1    C5 4962   1.946   5.178   3.699  0.4998 -0.0373 -0.3816
   52CHL1    C6 4963   1.891   5.297   3.721  0.6238  0.0071 -0.7026
   52CHL1    H6 4964   1.882   5.359   3.631  0.5966 -0.2451 -0.8729
   52CHL1    C7 4965   1.840   5.348   3.859 -0.0748  0.5484  0.4703
   52CHL1   H7A 4966   1.862   5.457   3.864  0.1329  0.7787 -2.9096
   52CHL1   H7B 4967   1.732   5.323   3.863 -0.2127  0.8571 -0.7761
   52CHL1    C8 4968   1.898   5.263   3.973  0.1408  0.7445  0.0371
   52CHL1    H8 4969   2.007   5.284   3.982  0.7657 -0.7472 -2.8023
   52CHL1   C14 4970   1.814   5.286   4.096  0.4694 -0.7178 -0.2220
   52CHL1   H14 4971   1.712   5.251   4.069  0.1165  1.7237 -2.4203
   52CHL1   C15 4972   1.808   5.439   4.141 -0.5396  0.7549 -0.2853
   52CHL1  H15A 4973   1.906   5.491   4.135 -1.0733  1.9074  0.5707
   52CHL1  H15B 4974   1.731   5.484   4.075 -2.4995 -2.9878 -0.8534
   52CHL1   C16 4975   1.777   5.433   4.289  0.4291  0.0272 -0.0256
   52CHL1  H16A 4976   1.851   5.491   4.347 -0.7922  0.3327  1.2945
   52CHL1  H16B 4977   1.675   5.478   4.297  0.6994  1.3509 -2.8097
   52CHL1   C17 4978   1.781   5.281   4.330 -0.3239  0.4445 -0.4562
   52CHL1   H17 4979   1.681   5.233   4.319  0.8709 -2.1240 -0.8074
   52CHL1   C13 4980   1.869   5.210   4.220  0.1559  0.2681 -0.3226
   52CHL1   C18 4981   2.015   5.247   4.254  0.3255 -0.6340 -0.0254
   52CHL1  H18A 4982   2.032   5.355   4.273  0.1824 -0.3572 -1.3699
   52CHL1  H18B 4983   2.055   5.198   4.346 -3.6622 -3.6626  0.3795
   52CHL1  H18C 4984   2.083   5.215   4.173 -0.1435 -2.6845  0.3279
   52CHL1   C12 4985   1.855   5.062   4.189 -0.0023 -0.0451  0.7696
   52CHL1  H12A 4986   1.896   4.996   4.268  1.2239 -2.5933 -1.8161
   52CHL1  H12B 4987   1.745   5.044   4.190 -0.6814  3.3762  2.3365
   52CHL1   C11 4988   1.930   5.026   4.061 -0.3964  0.0157 -0.2001
   52CHL1  H11A 4989   2.038   5.046   4.079 -0.4779  0.6230 -0.3880
   52CHL1  H11B 4990   1.919   4.916   4.044 -0.2435 -0.1499  0.7262
   52CHL1    C9 4991   1.887   5.110   3.937  0.1996 -0.4390 -0.0776
   52CHL1    H9 4992   1.777   5.093   3.931 -0.0777  1.0735  0.2327
   52CHL1   C10 4993   1.964   5.075   3.813  0.0223 -0.6831  0.6945
   52CHL1   C19 4994   2.115   5.087   3.837 -0.1889  0.0620  0.2653
   52CHL1  H19A 4995   2.159   5.189   3.833  0.5512 -0.2428  0.3770
   52CHL1  H19B 4996   2.152   5.028   3.924  0.2671  0.3496  0.2671
   52CHL1  H19C 4997   2.167   5.047   3.747  0.2717 -0.4555  0.7528
   52CHL1    C1 4998   1.920   4.932   3.764  0.0244 -0.2865 -0.1487
   52CHL1   H1A 4999   1.950   4.857   3.841 -0.6301  1.4461  1.8944
   52CHL1   H1B 5000   1.811   4.948   3.749  0.0900  1.3695  0.8411
   52CHL1    C2 5001   1.977   4.891   3.627 -0.0701 -0.0093  0.0915
   52CHL1   H2A 5002   1.929   4.797   3.590 -2.0785  0.0293  2.3668
   52CHL1   H2B 5003   2.088   4.884   3.629  0.1233  1.1960 -2.1918
   52CHL1   C20 5004   1.824   5.276   4.475 -0.4098 -0.5279 -0.0137
   52CHL1   H20 5005   1.929   5.311   4.483 -0.3075 -0.1330 -2.4236
   52CHL1   C21 5006   1.827   5.127   4.511  0.2673  0.2182 -0.5105
   52CHL1  H21A 5007   1.729   5.079   4.490 -0.0620  1.3971 -1.8682
   52CHL1  H21B 5008   1.845   5.111   4.619  2.5523 -2.9322 -1.2383
   52CHL1  H21C 5009   1.918   5.076   4.474  0.9497 -0.9640  2.5318
   52CHL1   C22 5010   1.728   5.360   4.565 -0.5501 -0.4618  0.2257
   52CHL1  H22A 5011   1.769   5.463   4.564  2.2037 -1.4730  0.1804
   52CHL1  H22B 5012   1.622   5.368   4.533 -0.0616 -0.1401 -1.4037
   52CHL1   C23 5013   1.741   5.328   4.713 -0.2357  0.0078 -0.2966
   52CHL1  H23A 5014   1.711   5.222   4.725  0.3395  0.0456  1.8479
   52CHL1  H23B 5015   1.846   5.340   4.747 -0.4998  2.0909 -0.0622
   52CHL1   C24 5016   1.650   5.423   4.791  0.2054 -0.1895  0.2037
   52CHL1  H24A 5017   1.688   5.527   4.776 -0.1069 -0.0849  0.1254
   52CHL1  H24B 5018   1.547   5.405   4.753  0.6665  0.6094 -1.5024
   52CHL1   C25 5019   1.654   5.387   4.940  0.7434  0.0527 -0.2116
   52CHL1   H25 5020   1.658   5.276   4.946 -0.9231 -0.0360 -0.4527
   52CHL1   C26 5021   1.779   5.444   5.004 -0.6204 -0.5291 -0.4400
   52CHL1  H26A 5022   1.771   5.460   5.114 -1.1421  2.3038 -0.8196
   52CHL1  H26B 5023   1.871   5.383   4.991  0.6335  1.1675  0.0495
   52CHL1  H26C 5024   1.815   5.542   4.968  0.1038 -0.1047  1.3141
   52CHL1   C27 5025   1.528   5.433   5.024 -0.4759  0.3778  0.1707
   52CHL1  H27A 5026   1.428   5.414   4.980 -0.0863  0.3384 -0.7167
   52CHL1  H27B 5027   1.537   5.366   5.113 -0.3965 -1.4632 -1.1547
   52CHL1  H27C 5028   1.522   5.537   5.063 -0.1992  0.1387  0.8747
   53CHL1    C3 5029   0.905   5.918   3.555  0.1177 -0.0929 -0.5556
   53CHL1    H3 5030   1.016   5.924   3.553  0.1159  0.0869 -0.1986
   53CHL1    O3 5031   0.860   5.892   3.431  0.5923 -0.4408  0.1238
   53CHL1   H3' 5032   0.834   5.976   3.391 -0.6387 -0.8050  0.1251
   53CHL1    C4 5033   0.860   5.796   3.637 -0.5692 -0.4892 -0.1728
   53CHL1   H4A 5034   0.758   5.755   3.619 -0.3751 -0.4381 -1.4563
   53CHL1   H4B 5035   0.928   5.728   3.581 -1.8371 -2.8461  0.9680
   53CHL1    C5 5036   0.881   5.807   3.787  0.7542 -0.1555 -0.2874
   53CHL1    C6 5037   0.943   5.711   3.858  0.5537  0.3271 -0.7615
   53CHL1    H6 5038   0.970   5.618   3.805  0.1763 -1.1388  1.4687
   53CHL1    C7 5039   0.949   5.713   4.007  0.4453  0.1862  0.0337
   53CHL1   H7A 5040   0.928   5.610   4.041  1.8539  0.0344  0.5113
   53CHL1   H7B 5041   1.054   5.729   4.038 -0.3516  0.5198  2.8847
   53CHL1    C8 5042   0.864   5.821   4.078 -0.1489  0.3110  0.1358
   53CHL1    H8 5043   0.755   5.798   4.080 -0.1729  0.3850 -0.2416
   53CHL1   C14 5044   0.925   5.851   4.219  0.0319  0.2158 -0.0406
   53CHL1   H14 5045   1.033   5.876   4.211 -0.2735  1.4232 -0.5773
   53CHL1   C15 5046   0.926   5.732   4.317 -0.3309 -0.1793 -0.1205
   53CHL1  H15A 5047   0.826   5.685   4.330  0.1058 -1.1032 -0.0442
   53CHL1  H15B 5048   1.001   5.664   4.272 -1.0026  0.8051 -2.9358
   53CHL1   C16 5049   0.959   5.795   4.455 -0.1705 -0.0612  0.6314
   53CHL1  H16A 5050   0.887   5.768   4.536  0.9108 -1.1384  1.2747
   53CHL1  H16B 5051   1.061   5.757   4.477  0.5598  1.1941 -0.4579
   53CHL1   C17 5052   0.950   5.957   4.430 -0.8147  0.4608 -0.1391
   53CHL1   H17 5053   1.050   6.001   4.411 -1.2820  1.6366  0.0460
   53CHL1   C13 5054   0.864   5.966   4.299  0.0601  0.1364 -0.1284
   53CHL1   C18 5055   0.715   5.928   4.340 -0.1959 -0.1477 -0.3028
   53CHL1  H18A 5056   0.672   6.023   4.377  1.7329  0.6221  0.0495
   53CHL1  H18B 5057   0.655   5.907   4.249 -1.6155  1.9367  0.0931
   53CHL1  H18C 5058   0.701   5.845   4.412  0.8647  0.0430  0.1411
   53CHL1   C12 5059   0.880   6.096   4.217  0.0508 -0.0357 -0.2540
   53CHL1  H12A 5060   0.835   6.184   4.268  2.5632  0.9977  0.3339
   53CHL1  H12B 5061   0.987   6.121   4.202  0.1500  0.0707  0.5718
   53CHL1   C11 5062   0.815   6.075   4.081 -0.3798 -0.2164  0.7669
   53CHL1  H11A 5063   0.706   6.056   4.096 -0.8712  0.1038 -1.8868
   53CHL1  H11B 5064   0.831   6.171   4.028 -2.1022 -0.6868 -0.7200
   53CHL1    C9 5065   0.876   5.952   4.000  0.2727 -0.3804 -0.0931
   53CHL1    H9 5066   0.986   5.971   3.998 -0.1123  2.4739  1.0386
   53CHL1   C10 5067   0.825   5.942   3.855 -0.0276 -0.4474 -0.1198
   53CHL1   C19 5068   0.672   5.959   3.851 -0.2401 -0.7256  0.6128
   53CHL1  H19A 5069   0.617   5.896   3.924 -0.8457 -0.3450  0.4945
   53CHL1  H19B 5070   0.650   6.067   3.866  0.5260 -0.2111 -1.6570
   53CHL1  H19C 5071   0.640   5.942   3.746  1.4775 -1.3794  0.1787
   53CHL1    C1 5072   0.888   6.061   3.765  0.0990 -0.6219  0.5189
   53CHL1   H1A 5073   0.841   6.158   3.791  0.9068  0.9282 -3.1077
   53CHL1   H1B 5074   0.998   6.072   3.777 -0.0133  0.2266  0.8200
   53CHL1    C2 5075   0.856   6.048   3.611 -0.3617 -1.1978 -0.0036
   53CHL1   H2A 5076   0.902   6.128   3.549 -1.0539 -0.0300  0.9396
   53CHL1   H2B 5077   0.747   6.049   3.588 -0.3752 -2.8110 -0.1430
   53CHL1   C20 5078   0.899   6.030   4.553 -0.0694  0.6271 -0.2105
   53CHL1   H20 5079   0.809   5.978   4.590  0.9525 -1.4518 -0.5201
   53CHL1   C21 5080   0.852   6.174   4.529 -0.2634 -0.4793  0.2317
   53CHL1  H21A 5081   0.752   6.191   4.483 -0.2390  2.0055  0.9739
   53CHL1  H21B 5082   0.932   6.220   4.467 -1.1387  0.5163 -0.1777
   53CHL1  H21C 5083   0.842   6.223   4.628  0.4191 -2.0023  1.1010
   53CHL1   C22 5084   1.009   6.028   4.664  0.3863 -0.3320 -0.1718
   53CHL1  H22A 5085   1.052   5.925   4.664 -0.6865 -0.8008  0.4269
   53CHL1  H22B 5086   1.091   6.096   4.633  1.4244 -0.3090  2.4231
   53CHL1   C23 5087   0.949   6.056   4.805  0.4811  0.3899 -0.4984
   53CHL1  H23A 5088   1.039   6.072   4.868  0.2192 -0.5330  0.1361
   53CHL1  H23B 5089   0.889   6.149   4.807  0.8617  0.6251  0.6862
   53CHL1   C24 5090   0.861   5.936   4.855  0.2494 -0.3996 -0.0657
   53CHL1  H24A 5091   0.775   5.914   4.787 -0.2729  1.0571  0.0957
   53CHL1  H24B 5092   0.908   5.835   4.856 -0.1439 -0.5855  0.1657
   53CHL1   C25 5093   0.787   5.956   4.990 -0.4656 -0.2472 -0.2531
   53CHL1   H25 5094   0.708   6.032   4.972 -0.4600  0.1535  1.2452
   53CHL1   C26 5095   0.736   5.822   5.030  0.0671 -0.7367 -0.8390
   53CHL1  H26A 5096   0.669   5.778   4.953  1.8885 -2.8742 -1.3022
   53CHL1  H26B 5097   0.814   5.745   5.044  1.5041  1.2346  3.8882
   53CHL1  H26C 5098   0.679   5.830   5.125  0.8294 -0.9125 -0.3637
   53CHL1   C27 5099   0.885   6.010   5.096 -0.0766  0.1212 -0.1572
   53CHL1  H27A 5100   0.931   6.109   5.074 -1.4892  0.9127  0.2976
   53CHL1  H27B 5101   0.839   6.011   5.197 -1.0672  0.4740 -0.5956
   53CHL1  H27C 5102   0.968   5.937   5.106 -0.3340 -0.4150 -1.5792
   54CHL1    C3 5103   1.898   0.345   3.613 -0.1916 -0.0700 -0.0357
   54CHL1    H3 5104   1.898   0.442   3.668 -2.6162  0.2269 -0.4423
   54CHL1    O3 5105   1.900   0.361   3.468  0.3811 -0.0451  0.1208
   54CHL1   H3' 5106   1.884   0.275   3.428 -3.7577  0.1797  0.8117
   54CHL1    C4 5107   2.019   0.263   3.651 -0.1304 -0.2134  0.2330
   54CHL1   H4A 5108   2.018   0.164   3.601 -0.9821  0.2190 -0.6353
   54CHL1   H4B 5109   2.113   0.310   3.616  1.4789 -2.3946  1.4193
   54CHL1    C5 5110   2.024   0.239   3.798  0.1007  0.8053 -0.6656
   54CHL1    C6 5111   2.135   0.274   3.862  0.3215  0.0894  0.0120
   54CHL1    H6 5112   2.220   0.316   3.806  1.1661 -1.9568 -0.3555
   54CHL1    C7 5113   2.152   0.236   4.006 -0.1195 -0.8337 -0.1022
   54CHL1   H7A 5114   2.244   0.174   4.020  0.3214 -0.2358 -0.2947
   54CHL1   H7B 5115   2.138   0.322   4.075 -2.7286  0.6412 -2.3072
   54CHL1    C8 5116   2.035   0.143   4.062 -0.4299  0.4338  0.1582
   54CHL1    H8 5117   2.062   0.045   4.017  1.2689  1.2704 -0.7374
   54CHL1   C14 5118   2.031   0.143   4.217 -0.3527 -0.0015  0.5312
   54CHL1   H14 5119   2.006   0.249   4.239 -0.4741  0.4036 -1.4265
   54CHL1   C15 5120   2.159   0.103   4.285 -0.0952  0.0659 -0.7866
   54CHL1  H15A 5121   2.211   0.013   4.247  0.7637  0.9358 -1.7096
   54CHL1  H15B 5122   2.227   0.191   4.289 -0.9571  0.7220  0.6149
   54CHL1   C16 5123   2.110   0.086   4.431 -0.7878  0.8190 -0.7637
   54CHL1  H16A 5124   2.158  -0.006   4.470 -3.0351  0.9898  2.8177
   54CHL1  H16B 5125   2.141   0.169   4.498 -0.1549 -0.5866  0.7431
   54CHL1   C17 5126   1.956   0.062   4.427 -0.2014 -0.5024  0.4246
   54CHL1   H17 5127   1.913   0.160   4.456 -0.7669 -1.2200  2.1289
   54CHL1   C13 5128   1.928   0.049   4.278 -0.1972 -0.0419 -0.6135
   54CHL1   C18 5129   1.953  -0.094   4.240  0.4052  0.4694  0.9708
   54CHL1  H18A 5130   1.960  -0.113   4.131  2.0521  3.6006  0.4318
   54CHL1  H18B 5131   2.052  -0.124   4.282  0.7739 -1.0048 -0.8109
   54CHL1  H18C 5132   1.876  -0.164   4.280  0.4748  0.2014  0.6444
   54CHL1   C12 5133   1.790   0.097   4.236  0.5123 -0.1413  0.5218
   54CHL1  H12A 5134   1.709   0.031   4.275 -0.2558  0.3814 -0.1367
   54CHL1  H12B 5135   1.770   0.201   4.269 -1.4070 -0.5517  0.7593
   54CHL1   C11 5136   1.781   0.100   4.083 -0.0550  0.3497  0.3401
   54CHL1  H11A 5137   1.760  -0.004   4.047  1.6908 -0.5206  1.6843
   54CHL1  H11B 5138   1.690   0.161   4.065 -0.7980 -0.2181  1.9876
   54CHL1    C9 5139   1.896   0.178   4.009 -0.2308  0.6333  0.0616
   54CHL1    H9 5140   1.883   0.286   4.029 -0.1868  1.0041 -1.7139
   54CHL1   C10 5141   1.898   0.177   3.855  0.0568 -1.1882  0.2467
   54CHL1   C19 5142   1.889   0.027   3.805 -0.1266 -0.3574 -0.0662
   54CHL1  H19A 5143   1.982  -0.026   3.837  0.2168  1.3609  2.0914
   54CHL1  H19B 5144   1.800  -0.021   3.851  0.7192 -0.3892  1.6464
   54CHL1  H19C 5145   1.885   0.031   3.695  1.2434  2.6784 -0.1022
   54CHL1    C1 5146   1.768   0.252   3.809 -0.9271  1.0918  0.0461
   54CHL1   H1A 5147   1.687   0.178   3.830  0.8565 -0.8830  0.2804
   54CHL1   H1B 5148   1.750   0.346   3.866  0.0449  1.1133  0.3202
   54CHL1    C2 5149   1.767   0.273   3.664 -0.5513 -0.0646 -0.2956
   54CHL1   H2A 5150   1.674   0.327   3.632 -0.9557 -0.3824  0.3348
   54CHL1   H2B 5151   1.765   0.177   3.608 -1.0934  0.6915 -1.6262
   54CHL1   C20 5152   1.912  -0.039   4.537  0.0993 -0.4657 -0.2691
   54CHL1   H20 5153   1.952  -0.139   4.509  0.2180 -0.0505 -1.6406
   54CHL1   C21 5154   1.761  -0.051   4.543  0.6123 -0.1221 -0.2619
   54CHL1  H21A 5155   1.714  -0.084   4.447 -0.8803 -0.1683  0.4599
   54CHL1  H21B 5156   1.724   0.049   4.572 -0.1333 -0.3570 -0.3946
   54CHL1  H21C 5157   1.726  -0.125   4.617 -0.2042 -1.0357 -1.5140
   54CHL1   C22 5158   1.970  -0.006   4.680  0.1595  0.4335 -0.1762
   54CHL1  H22A 5159   2.081  -0.003   4.668 -0.0102 -0.2965 -2.3748
   54CHL1  H22B 5160   1.929   0.093   4.708  0.0317  0.2345  0.3477
   54CHL1   C23 5161   1.942  -0.110   4.788 -0.4786  0.3015 -0.3631
   54CHL1  H23A 5162   1.833  -0.109   4.813 -0.3714 -0.6041  0.1607
   54CHL1  H23B 5163   1.954  -0.209   4.739  0.3812 -0.5509  1.4891
   54CHL1   C24 5164   2.022  -0.099   4.918 -0.3498 -0.7192 -0.8932
   54CHL1  H24A 5165   2.123  -0.143   4.902  0.5728  0.4283  1.2870
   54CHL1  H24B 5166   2.037   0.009   4.941  0.4098 -0.6055 -1.8676
   54CHL1   C25 5167   1.971  -0.170   5.040  0.7230  0.3010 -0.3744
   54CHL1   H25 5168   1.908  -0.251   4.998  2.1312  0.7904 -3.7319
   54CHL1   C26 5169   2.084  -0.217   5.125  0.4765  0.4497 -0.5928
   54CHL1  H26A 5170   2.046  -0.242   5.226 -1.3565 -0.9121 -1.5589
   54CHL1  H26B 5171   2.152  -0.290   5.076  0.7757  1.5389 -1.8754
   54CHL1  H26C 5172   2.156  -0.135   5.147  0.7942 -0.0289  0.2050
   54CHL1   C27 5173   1.867  -0.087   5.111  0.2581 -0.5340  1.1938
   54CHL1  H27A 5174   1.920  -0.010   5.172  0.5259 -0.7406  1.2269
   54CHL1  H27B 5175   1.801  -0.040   5.036 -0.2525  0.7984  2.4145
   54CHL1  H27C 5176   1.807  -0.150   5.179  1.6542 -1.2858  1.7811
   55CHL1    C3 5177   1.656   2.038   3.449  0.2253  0.2646 -0.1575
   55CHL1    H3 5178   1.570   1.966   3.456  0.7461 -0.4404 -0.8329
   55CHL1    O3 5179   1.664   2.083   3.315  0.3189  0.3611 -0.3365
   55CHL1   H3' 5180   1.721   2.160   3.308  0.5816  0.2376  0.3698
   55CHL1    C4 5181   1.614   2.154   3.540 -0.3431  0.1630  0.5079
   55CHL1   H4A 5182   1.682   2.242   3.530 -0.8624  0.5557  0.4292
   55CHL1   H4B 5183   1.519   2.191   3.498  0.0977  1.2954  0.4705
   55CHL1    C5 5184   1.593   2.121   3.687  0.7326 -0.1456  0.2688
   55CHL1    C6 5185   1.474   2.126   3.753 -0.9084 -0.2605  0.4760
   55CHL1    H6 5186   1.387   2.161   3.694  0.2871  1.5656 -0.2759
   55CHL1    C7 5187   1.448   2.082   3.893 -0.0554 -0.0866  0.2936
   55CHL1   H7A 5188   1.380   2.150   3.948 -0.0815  1.3162 -1.3974
   55CHL1   H7B 5189   1.395   1.984   3.891  1.0648 -0.7887 -4.0607
   55CHL1    C8 5190   1.581   2.059   3.977  0.0415  0.0529  0.1335
   55CHL1    H8 5191   1.633   2.153   4.004  0.7385 -0.1122 -0.5749
   55CHL1   C14 5192   1.552   1.975   4.105 -0.1464  0.0779  0.2398
   55CHL1   H14 5193   1.497   1.881   4.082 -1.9545  1.0781  0.2668
   55CHL1   C15 5194   1.450   2.035   4.210 -0.0819 -0.0782  0.1608
   55CHL1  H15A 5195   1.474   2.142   4.229  2.3590 -0.5450 -0.0421
   55CHL1  H15B 5196   1.344   2.015   4.182  0.0262  0.1776 -0.4430
   55CHL1   C16 5197   1.488   1.961   4.339 -1.0371  0.0704 -0.2613
   55CHL1  H16A 5198   1.526   2.032   4.415 -1.0980 -1.1222  0.9121
   55CHL1  H16B 5199   1.402   1.902   4.378 -1.2697  1.6584  1.7923
   55CHL1   C17 5200   1.610   1.866   4.311 -0.3610  0.4134  0.0688
   55CHL1   H17 5201   1.568   1.769   4.275 -2.2772  2.0186 -2.3568
   55CHL1   C13 5202   1.677   1.930   4.185  0.2568 -0.2815  0.0394
   55CHL1   C18 5203   1.756   2.046   4.237 -1.0043 -0.5123  0.0607
   55CHL1  H18A 5204   1.845   1.996   4.283 -2.2728 -2.4062  0.5890
   55CHL1  H18B 5205   1.794   2.111   4.156  0.3567 -1.3322 -0.0003
   55CHL1  H18C 5206   1.698   2.106   4.310 -0.7693  0.6456 -0.6939
   55CHL1   C12 5207   1.766   1.839   4.089  0.2564 -0.4425 -0.5925
   55CHL1  H12A 5208   1.858   1.810   4.145 -0.2312  0.2878  0.6326
   55CHL1  H12B 5209   1.704   1.748   4.079 -1.1566  0.3722  0.4145
   55CHL1   C11 5210   1.793   1.904   3.959 -0.4096  0.4891 -0.1128
   55CHL1  H11A 5211   1.864   1.985   3.983  1.5712 -0.9905 -0.7309
   55CHL1  H11B 5212   1.843   1.838   3.885  0.7907 -0.4489  1.4637
   55CHL1    C9 5213   1.676   1.975   3.884  0.7203  0.1741  0.0809
   55CHL1    H9 5214   1.611   1.893   3.846 -2.3814  1.3753  2.3286
   55CHL1   C10 5215   1.713   2.047   3.747  0.6841  0.0479 -0.2573
   55CHL1   C19 5216   1.824   2.149   3.778  0.0035  0.3185 -0.0001
   55CHL1  H19A 5217   1.923   2.107   3.806  1.0327  2.7862  0.3914
   55CHL1  H19B 5218   1.842   2.218   3.693  1.4765 -0.3185 -0.2436
   55CHL1  H19C 5219   1.784   2.214   3.859 -2.4748 -1.4217  0.2772
   55CHL1    C1 5220   1.774   1.939   3.644  0.3240 -0.0981  0.0709
   55CHL1   H1A 5221   1.877   1.926   3.682  0.3780 -0.1655 -0.0960
   55CHL1   H1B 5222   1.717   1.844   3.656  2.1415 -1.3709 -0.8651
   55CHL1    C2 5223   1.789   1.984   3.501  0.3901 -0.0121  1.1265
   55CHL1   H2A 5224   1.838   1.906   3.438  0.6234  0.9815  0.0298
   55CHL1   H2B 5225   1.867   2.063   3.509  0.7514 -0.4306  1.8498
   55CHL1   C20 5226   1.693   1.845   4.438  0.1829 -0.5782 -0.4942
   55CHL1   H20 5227   1.755   1.933   4.466  2.8402 -1.9314 -1.7192
   55CHL1   C21 5228   1.798   1.731   4.416 -0.1040 -0.2600 -0.8705
   55CHL1  H21A 5229   1.746   1.655   4.353  0.9731 -1.5666 -0.2458
   55CHL1  H21B 5230   1.854   1.700   4.507  0.4718  0.6481 -0.9064
   55CHL1  H21C 5231   1.878   1.768   4.349 -0.0579  1.6154  0.1611
   55CHL1   C22 5232   1.608   1.800   4.562 -0.1993  0.3613  0.8117
   55CHL1  H22A 5233   1.528   1.873   4.587 -0.1006  0.7171  0.1156
   55CHL1  H22B 5234   1.559   1.704   4.535  0.1876  0.8017 -1.7756
   55CHL1   C23 5235   1.680   1.789   4.695 -0.2706  0.8818  0.5796
   55CHL1  H23A 5236   1.719   1.685   4.700  1.8543  1.5957 -0.2295
   55CHL1  H23B 5237   1.777   1.843   4.694 -0.2666  0.8753  0.1888
   55CHL1   C24 5238   1.599   1.831   4.813  0.5797  0.4007 -0.1654
   55CHL1  H24A 5239   1.591   1.942   4.802  2.2326  0.5632 -0.1122
   55CHL1  H24B 5240   1.502   1.781   4.798  0.6198 -0.0820  1.0701
   55CHL1   C25 5241   1.651   1.793   4.953  0.0850  0.2870  0.3257
   55CHL1   H25 5242   1.630   1.684   4.959 -2.5443  0.5780 -1.5454
   55CHL1   C26 5243   1.800   1.828   4.982  0.2161 -0.1043 -0.2843
   55CHL1  H26A 5244   1.821   1.936   4.968 -0.9162 -0.0036 -1.2924
   55CHL1  H26B 5245   1.826   1.782   5.080  1.3109  2.4052  0.6911
   55CHL1  H26C 5246   1.856   1.771   4.905 -0.7537  2.2062 -2.8474
   55CHL1   C27 5247   1.555   1.856   5.060  0.3038 -0.4215 -0.3493
   55CHL1  H27A 5248   1.573   1.813   5.161 -1.4739  2.0048  1.0942
   55CHL1  H27B 5249   1.571   1.965   5.069 -2.1874  0.2049 -2.4153
   55CHL1  H27C 5250   1.447   1.852   5.035  0.0409  0.9854  0.4818
   56CHL1    C3 5251   6.073   3.894   3.706  0.4295  0.9097 -0.1164
   56CHL1    H3 5252   6.170   3.942   3.733  0.6711 -0.3418  1.3628
   56CHL1    O3 5253   6.042   3.930   3.576  0.2657 -0.1398 -0.5047
   56CHL1   H3' 5254   5.983   3.859   3.550 -1.4238  0.3659  1.6323
   56CHL1    C4 5255   6.084   3.745   3.720 -0.2445  0.5958 -0.4403
   56CHL1   H4A 5256   5.987   3.702   3.687 -0.5755  0.2725  0.8757
   56CHL1   H4B 5257   6.150   3.715   3.636 -0.7662  0.3868 -0.7775
   56CHL1    C5 5258   6.117   3.694   3.857  0.0064 -0.4569  0.1329
   56CHL1    C6 5259   6.232   3.628   3.889  0.6311  0.4524 -0.4571
   56CHL1    H6 5260   6.309   3.595   3.818  0.1022 -0.4494 -0.6351
   56CHL1    C7 5261   6.256   3.569   4.026 -0.0128  0.0923 -0.3984
   56CHL1   H7A 5262   6.282   3.461   4.023 -1.4790 -0.2915  0.0575
   56CHL1   H7B 5263   6.342   3.618   4.075 -0.1200  2.4648 -2.3672
   56CHL1    C8 5264   6.129   3.582   4.118 -0.3229  0.6032 -0.2969
   56CHL1    H8 5265   6.056   3.512   4.072  0.0491  0.0365 -0.0388
   56CHL1   C14 5266   6.167   3.541   4.265 -0.4504  0.2333 -0.0882
   56CHL1   H14 5267   6.248   3.616   4.280  0.8822 -0.7002 -2.0926
   56CHL1   C15 5268   6.247   3.411   4.285  0.6525  0.3646 -0.1580
   56CHL1  H15A 5269   6.192   3.330   4.232  1.4300  0.1070 -0.5967
   56CHL1  H15B 5270   6.350   3.400   4.243  1.2866  0.6487  1.2467
   56CHL1   C16 5271   6.244   3.403   4.438 -0.1985 -0.1652  0.0222
   56CHL1  H16A 5272   6.192   3.307   4.459  0.7543 -0.5017  0.9108
   56CHL1  H16B 5273   6.338   3.399   4.496  0.4421 -1.2566 -1.0282
   56CHL1   C17 5274   6.157   3.521   4.493 -0.1098  0.4542  1.1586
   56CHL1   H17 5275   6.223   3.605   4.521 -1.5826  1.9457  0.3095
   56CHL1   C13 5276   6.066   3.557   4.371 -0.6932  0.1373 -0.1336
   56CHL1   C18 5277   5.959   3.454   4.353  0.2483 -0.0423 -0.1193
   56CHL1  H18A 5278   5.870   3.470   4.416 -0.0453  0.9659 -0.7676
   56CHL1  H18B 5279   5.918   3.443   4.250  0.6396 -0.3381 -0.2516
   56CHL1  H18C 5280   5.987   3.353   4.390  1.4062  0.4696  0.4605
   56CHL1   C12 5281   6.017   3.701   4.369  0.4862 -0.3098 -0.0325
   56CHL1  H12A 5282   5.945   3.717   4.453  0.0890  1.1653 -0.6102
   56CHL1  H12B 5283   6.098   3.776   4.383 -0.0982  0.4446 -0.6509
   56CHL1   C11 5284   5.958   3.729   4.228 -0.5202  0.5975 -0.2478
   56CHL1  H11A 5285   5.872   3.660   4.214  1.5724 -2.5982  1.4789
   56CHL1  H11B 5286   5.929   3.837   4.231  0.9417  1.0285 -0.6866
   56CHL1    C9 5287   6.056   3.713   4.111 -0.0513 -0.1682  0.4203
   56CHL1    H9 5288   6.139   3.784   4.132  1.0262 -0.9510 -0.9777
   56CHL1   C10 5289   6.005   3.741   3.960 -0.6697  0.1399 -0.3820
   56CHL1   C19 5290   5.869   3.670   3.946  0.1269  0.3296  0.0628
   56CHL1  H19A 5291   5.876   3.563   3.976  0.6702  0.5045  0.5932
   56CHL1  H19B 5292   5.788   3.714   4.008 -2.3088 -0.9553 -2.0265
   56CHL1  H19C 5293   5.825   3.676   3.844  1.3136  1.1020 -0.4288
   56CHL1    C1 5294   5.983   3.891   3.945  0.2703 -0.4619 -0.0686
   56CHL1   H1A 5295   5.902   3.920   4.015 -0.8650 -1.2698 -0.9854
   56CHL1   H1B 5296   6.079   3.934   3.980 -0.6176  0.6991  1.0252
   56CHL1    C2 5297   5.959   3.935   3.794 -0.1047  0.4258 -1.0997
   56CHL1   H2A 5298   5.934   4.043   3.800  1.2225  0.6778  0.7009
   56CHL1   H2B 5299   5.868   3.884   3.756 -0.3582  1.2093 -1.5577
   56CHL1   C20 5300   6.085   3.486   4.620  0.3988  0.4305  0.1259
   56CHL1   H20 5301   6.020   3.398   4.602  0.3667  0.4992 -0.1003
   56CHL1   C21 5302   5.997   3.602   4.673  0.5545  0.2242  0.2991
   56CHL1  H21A 5303   5.967   3.595   4.780  0.3780 -1.9613  0.1502
   56CHL1  H21B 5304   5.905   3.598   4.611  2.4417  1.5006 -2.8634
   56CHL1  H21C 5305   6.042   3.699   4.640 -1.8511  0.7776 -1.7150
   56CHL1   C22 5306   6.181   3.442   4.734  0.1148 -0.4122 -0.1099
   56CHL1  H22A 5307   6.125   3.389   4.814  0.1223 -1.5641 -0.8328
   56CHL1  H22B 5308   6.255   3.364   4.704  1.3220  1.2709 -1.7601
   56CHL1   C23 5309   6.256   3.561   4.803 -0.4250  0.9139 -0.4329
   56CHL1  H23A 5310   6.298   3.630   4.727 -2.7360  1.8297 -0.9756
   56CHL1  H23B 5311   6.186   3.611   4.874  1.6035 -0.6667  2.9085
   56CHL1   C24 5312   6.381   3.513   4.882 -0.1611  1.0111 -0.5899
   56CHL1  H24A 5313   6.337   3.455   4.966 -0.0755  1.2309 -0.3945
   56CHL1  H24B 5314   6.439   3.441   4.820  0.9778 -0.9505  2.5430
   56CHL1   C25 5315   6.465   3.618   4.948 -0.5989  0.2772 -0.5210
   56CHL1   H25 5316   6.516   3.693   4.885 -0.8142 -0.0783 -1.1275
   56CHL1   C26 5317   6.387   3.686   5.056 -0.2700  0.5264 -0.3670
   56CHL1  H26A 5318   6.453   3.742   5.125 -0.1091 -0.2118  0.0784
   56CHL1  H26B 5319   6.312   3.760   5.020 -0.6175  0.6795  0.6564
   56CHL1  H26C 5320   6.340   3.611   5.123  0.8424  0.7058  0.6341
   56CHL1   C27 5321   6.589   3.542   5.012  0.3055  0.0490  0.1895
   56CHL1  H27A 5322   6.666   3.616   5.041  0.0079  1.5800 -2.6107
   56CHL1  H27B 5323   6.552   3.488   5.102 -2.5116 -1.0582 -1.4913
   56CHL1  H27C 5324   6.618   3.475   4.928 -0.0099 -0.5407  0.5407
   57CHL1    C3 5325   5.807   1.271   3.910 -0.2995 -0.3266  0.8057
   57CHL1    H3 5326   5.726   1.196   3.924 -0.3177 -0.3117  0.7782
   57CHL1    O3 5327   5.840   1.287   3.773  0.3538 -0.4452  0.5996
   57CHL1   H3' 5328   5.888   1.370   3.768  3.6397 -2.2224  0.2044
   57CHL1    C4 5329   5.773   1.406   3.981  0.0200 -0.3398 -0.1356
   57CHL1   H4A 5330   5.855   1.480   3.970 -0.1771 -0.1380 -0.2349
   57CHL1   H4B 5331   5.691   1.452   3.923  1.7338  0.7901 -1.7880
   57CHL1    C5 5332   5.750   1.386   4.132 -0.3691  0.9797 -0.5865
   57CHL1    C6 5333   5.631   1.413   4.183  0.1365  0.3387 -0.4388
   57CHL1    H6 5334   5.548   1.450   4.121 -0.4040  0.4685  0.3509
   57CHL1    C7 5335   5.597   1.387   4.322 -0.1321 -0.5621 -0.4934
   57CHL1   H7A 5336   5.535   1.471   4.360  1.2383 -0.6783  2.2067
   57CHL1   H7B 5337   5.527   1.301   4.334 -2.7939  1.5716  0.3134
   57CHL1    C8 5338   5.728   1.373   4.410  0.2608  0.1416 -0.3227
   57CHL1    H8 5339   5.782   1.470   4.415 -1.0100  0.8600 -0.1445
   57CHL1   C14 5340   5.691   1.324   4.553  0.6391  0.4939 -0.1399
   57CHL1   H14 5341   5.648   1.223   4.533  1.7638  0.1036 -0.6796
   57CHL1   C15 5342   5.584   1.401   4.640  0.5895  0.2585 -0.0522
   57CHL1  H15A 5343   5.618   1.507   4.638  0.5358  0.3305  1.5085
   57CHL1  H15B 5344   5.480   1.382   4.605  0.3252  0.5955  0.5335
   57CHL1   C16 5345   5.606   1.344   4.784  0.1415  1.2081  0.2623
   57CHL1  H16A 5346   5.621   1.432   4.850 -0.5172 -0.4474  2.7711
   57CHL1  H16B 5347   5.516   1.292   4.823 -0.1499 -1.0152 -3.0232
   57CHL1   C17 5348   5.736   1.257   4.781  0.7483  0.1581  0.0903
   57CHL1   H17 5349   5.702   1.152   4.781 -0.6807  0.4009  4.4790
   57CHL1   C13 5350   5.809   1.297   4.649  0.5375 -0.0495 -0.5803
   57CHL1   C18 5351   5.895   1.425   4.675  0.6415  0.1521 -0.3189
   57CHL1  H18A 5352   5.989   1.416   4.733  0.0756 -0.5775  0.5029
   57CHL1  H18B 5353   5.920   1.472   4.578  0.0905 -1.0627 -1.0855
   57CHL1  H18C 5354   5.832   1.496   4.732  3.1497  2.1220  0.1515
   57CHL1   C12 5355   5.894   1.189   4.588 -0.1785  0.4335  1.0372
   57CHL1  H12A 5356   5.991   1.185   4.642  0.7802  0.0420 -0.6557
   57CHL1  H12B 5357   5.839   1.093   4.591 -1.0619  0.8246 -0.8901
   57CHL1   C11 5358   5.932   1.222   4.440  0.1819  0.4971  0.3883
   57CHL1  H11A 5359   6.014   1.297   4.442  0.2380  0.4318  0.5560
   57CHL1  H11B 5360   5.978   1.130   4.398  0.6658 -0.5881  3.0764
   57CHL1    C9 5361   5.816   1.267   4.347 -0.3146  0.1059  0.5532
   57CHL1    H9 5362   5.759   1.174   4.325 -0.3749  0.8640 -3.0723
   57CHL1   C10 5363   5.868   1.314   4.202 -0.1330 -0.4870  0.1192
   57CHL1   C19 5364   5.982   1.413   4.218 -0.5434  0.1601 -0.2296
   57CHL1  H19A 5365   6.066   1.357   4.264 -1.0939 -0.4844  0.0093
   57CHL1  H19B 5366   6.014   1.447   4.117  1.7686  1.4164  0.8435
   57CHL1  H19C 5367   5.947   1.502   4.273  0.4430  0.8210 -0.6360
   57CHL1    C1 5368   5.916   1.184   4.127 -0.7499  0.1760  0.0500
   57CHL1   H1A 5369   6.015   1.149   4.164  0.2144  1.2430 -1.4324
   57CHL1   H1B 5370   5.840   1.104   4.143 -2.0965  1.5311  0.7084
   57CHL1    C2 5371   5.934   1.208   3.984 -0.7742 -0.6298 -0.3337
   57CHL1   H2A 5372   5.960   1.112   3.934  2.1864  1.4187 -3.1172
   57CHL1   H2B 5373   6.009   1.283   3.953 -0.9038 -0.1541  0.4666
   57CHL1   C20 5374   5.823   1.267   4.916  0.2823  0.5743  0.7890
   57CHL1   H20 5375   5.882   1.361   4.919  1.1380  0.1157 -0.7841
   57CHL1   C21 5376   5.931   1.156   4.912  0.8690  0.7212 -0.4113
   57CHL1  H21A 5377   5.971   1.149   5.016 -1.2963 -0.9460  0.3776
   57CHL1  H21B 5378   6.007   1.183   4.836  0.3273 -0.9874 -1.6015
   57CHL1  H21C 5379   5.879   1.062   4.883 -0.9039  1.6626 -0.4470
   57CHL1   C22 5380   5.740   1.262   5.047 -0.0249  0.0798  0.3545
   57CHL1  H22A 5381   5.804   1.304   5.128 -0.3930  0.1832  0.5958
   57CHL1  H22B 5382   5.647   1.324   5.044 -0.4183 -0.5247 -0.1948
   57CHL1   C23 5383   5.697   1.115   5.082 -0.0494 -0.3040  0.1943
   57CHL1  H23A 5384   5.655   1.069   4.990 -1.5926  0.1278  0.6511
   57CHL1  H23B 5385   5.778   1.046   5.114 -0.8303 -1.9315 -1.1878
   57CHL1   C24 5386   5.594   1.116   5.208 -0.0399 -0.2238 -0.3557
   57CHL1  H24A 5387   5.501   1.162   5.169  1.1200  0.4271 -2.5215
   57CHL1  H24B 5388   5.571   1.011   5.237  1.9772 -0.0103  2.4008
   57CHL1   C25 5389   5.634   1.200   5.333 -0.3495 -0.3286 -0.2368
   57CHL1   H25 5390   5.690   1.293   5.310  1.8236 -0.3119  4.0137
   57CHL1   C26 5391   5.512   1.229   5.423  0.0992 -0.2096  0.3795
   57CHL1  H26A 5392   5.533   1.274   5.522 -0.7531  0.5066  0.2457
   57CHL1  H26B 5393   5.444   1.292   5.362  0.1680 -1.2654 -0.8279
   57CHL1  H26C 5394   5.456   1.134   5.438 -3.3559  1.4096 -1.0512
   57CHL1   C27 5395   5.742   1.120   5.413 -0.5296  0.4047  0.8759
   57CHL1  H27A 5396   5.785   1.176   5.498  1.7771  0.2763 -0.1028
   57CHL1  H27B 5397   5.705   1.021   5.446  1.1668 -1.5136 -2.3972
   57CHL1  H27C 5398   5.825   1.093   5.343 -1.9456 -1.2455 -0.2349
   58CHL1    C3 5399   3.227   4.221   3.609  0.0429 -0.0511  0.1142
   58CHL1    H3 5400   3.289   4.310   3.630  2.3366 -1.4490 -0.3623
   58CHL1    O3 5401   3.260   4.168   3.486 -0.0173 -0.1808  0.1585
   58CHL1   H3' 5402   3.209   4.091   3.460  0.0500  0.1432 -0.9937
   58CHL1    C4 5403   3.284   4.116   3.708  0.5298  0.0388  0.2569
   58CHL1   H4A 5404   3.235   4.018   3.688 -2.6767  1.2245  1.5444
   58CHL1   H4B 5405   3.391   4.106   3.681  0.3378  2.3941 -1.7168
   58CHL1    C5 5406   3.253   4.152   3.854 -0.8706 -0.2447  0.9269
   58CHL1    C6 5407   3.352   4.154   3.946  0.3163  0.5448 -0.1452
   58CHL1    H6 5408   3.456   4.128   3.921  0.2658  1.2447 -1.1526
   58CHL1    C7 5409   3.323   4.190   4.096 -0.0646  0.2379  0.5889
   58CHL1   H7A 5410   3.380   4.130   4.170 -0.7626 -0.1293  0.8380
   58CHL1   H7B 5411   3.345   4.298   4.108 -0.6253  0.3689  0.4897
   58CHL1    C8 5412   3.172   4.177   4.127  0.1765  0.7223 -0.2291
   58CHL1    H8 5413   3.134   4.073   4.117  0.5756  0.7914 -3.6631
   58CHL1   C14 5414   3.149   4.238   4.263  0.5110 -0.0090  0.4809
   58CHL1   H14 5415   3.174   4.346   4.252  0.0815  0.4832  3.4103
   58CHL1   C15 5416   3.235   4.192   4.385  0.2744 -0.7547  0.0408
   58CHL1  H15A 5417   3.272   4.087   4.390  0.3858 -0.7454 -0.5061
   58CHL1  H15B 5418   3.328   4.253   4.378  0.1523 -0.6902 -1.2585
   58CHL1   C16 5419   3.156   4.210   4.512 -0.2387  0.0942  0.7627
   58CHL1  H16A 5420   3.129   4.111   4.556  1.6163 -0.2824  1.1558
   58CHL1  H16B 5421   3.197   4.279   4.588 -1.8455  0.5439  1.2680
   58CHL1   C17 5422   3.025   4.278   4.458  0.1005 -0.2651  0.0743
   58CHL1   H17 5423   3.058   4.383   4.443 -0.7782  0.1240  0.7860
   58CHL1   C13 5424   3.007   4.224   4.312 -0.0390 -0.2993  0.6141
   58CHL1   C18 5425   2.957   4.082   4.310  0.1084  0.2491 -0.6489
   58CHL1  H18A 5426   2.986   4.025   4.219 -3.4906  0.2920 -1.9879
   58CHL1  H18B 5427   3.000   4.023   4.394 -0.6703  0.7022  0.0888
   58CHL1  H18C 5428   2.849   4.069   4.331  0.6002 -2.5338  0.6029
   58CHL1   C12 5429   2.919   4.309   4.218 -0.0104 -0.5013  0.8691
   58CHL1  H12A 5430   2.815   4.305   4.257 -0.5510  4.3296  0.5364
   58CHL1  H12B 5431   2.940   4.418   4.205 -1.7704  0.0263  2.1150
   58CHL1   C11 5432   2.932   4.253   4.074 -0.7910 -0.1291 -0.3315
   58CHL1  H11A 5433   2.874   4.158   4.064  0.9147 -1.0466 -2.3733
   58CHL1  H11B 5434   2.885   4.327   4.006  0.8783  1.8201  0.5577
   58CHL1    C9 5435   3.079   4.245   4.034  0.0127  0.6178  1.0460
   58CHL1    H9 5436   3.118   4.349   4.037  0.9400  0.2717  2.0410
   58CHL1   C10 5437   3.108   4.195   3.885 -0.0851 -0.2051 -0.1171
   58CHL1   C19 5438   3.011   4.074   3.869  0.1897 -0.2846 -0.3380
   58CHL1  H19A 5439   3.016   4.001   3.953  3.1005  0.3721  0.1946
   58CHL1  H19B 5440   2.905   4.106   3.863  0.1488 -0.3260  0.0884
   58CHL1  H19C 5441   3.039   4.016   3.779 -0.7378  0.8627 -1.4038
   58CHL1    C1 5442   3.056   4.288   3.773  0.2512  0.7494  0.2960
   58CHL1   H1A 5443   2.947   4.302   3.793 -0.0040 -0.5848 -0.1132
   58CHL1   H1B 5444   3.095   4.389   3.799 -0.4908  0.6450  1.9722
   58CHL1    C2 5445   3.079   4.247   3.629 -0.3434 -0.1213  0.0523
   58CHL1   H2A 5446   3.032   4.320   3.559 -1.1662 -1.0031 -0.3295
   58CHL1   H2B 5447   3.029   4.149   3.613 -0.4287  0.0746 -0.9661
   58CHL1   C20 5448   2.900   4.290   4.558 -0.5850 -0.0665  0.5436
   58CHL1   H20 5449   2.810   4.303   4.494 -0.6185  2.0458  0.9467
   58CHL1   C21 5450   2.919   4.423   4.625 -0.4010 -0.0157  0.1122
   58CHL1  H21A 5451   3.014   4.432   4.683 -1.1686  1.8392  1.1841
   58CHL1  H21B 5452   2.827   4.449   4.682 -1.3742  0.6395 -1.6733
   58CHL1  H21C 5453   2.928   4.495   4.541 -0.9700 -1.3067 -1.0873
   58CHL1   C22 5454   2.883   4.164   4.641  0.3869  0.7296  0.4180
   58CHL1  H22A 5455   2.874   4.073   4.577 -0.6611  0.4102  0.9819
   58CHL1  H22B 5456   2.972   4.142   4.704 -0.2492 -0.7339  0.8534
   58CHL1   C23 5457   2.749   4.167   4.732 -0.2721  0.6825 -0.4788
   58CHL1  H23A 5458   2.763   4.252   4.802 -1.4170  2.4671 -2.3401
   58CHL1  H23B 5459   2.665   4.190   4.664 -1.8055  1.7812  1.6665
   58CHL1   C24 5460   2.727   4.045   4.826  1.0141 -0.2581  0.5108
   58CHL1  H24A 5461   2.722   3.959   4.756 -1.6976 -0.7945  1.2357
   58CHL1  H24B 5462   2.819   4.033   4.887  1.1983  3.6391  1.2753
   58CHL1   C25 5463   2.595   4.041   4.903 -0.1737 -0.1447  0.8354
   58CHL1   H25 5464   2.599   3.953   4.971 -2.2481 -1.0343 -0.1231
   58CHL1   C26 5465   2.600   4.156   5.004  0.0154 -0.2686 -0.1924
   58CHL1  H26A 5466   2.614   4.257   4.961 -0.2818 -0.1408  0.0040
   58CHL1  H26B 5467   2.498   4.163   5.050 -0.4580 -0.3865 -1.2006
   58CHL1  H26C 5468   2.671   4.126   5.084 -0.2935 -0.8582 -0.1274
   58CHL1   C27 5469   2.472   4.033   4.818  0.4544  0.2070  0.2111
   58CHL1  H27A 5470   2.454   4.126   4.760  0.1884 -0.2671 -0.4756
   58CHL1  H27B 5471   2.470   3.950   4.744 -0.8518  1.8219 -1.6569
   58CHL1  H27C 5472   2.378   4.020   4.876  0.2026  0.2274 -0.1921
   59CHL1    C3 5473   4.117   2.811   3.795 -0.0641 -0.4138 -0.8369
   59CHL1    H3 5474   4.015   2.852   3.783  0.7645  2.1726  0.2726
   59CHL1    O3 5475   4.178   2.793   3.669 -0.1654  0.5970 -0.0549
   59CHL1   H3' 5476   4.138   2.863   3.617  0.9774  0.6239 -0.9601
   59CHL1    C4 5477   4.185   2.922   3.880 -0.8385  0.0118 -0.8614
   59CHL1   H4A 5478   4.292   2.896   3.893 -0.8791  0.4776  0.6191
   59CHL1   H4B 5479   4.197   3.016   3.823 -3.0160  1.1202  0.3591
   59CHL1    C5 5480   4.132   2.930   4.022  0.0233  0.2400  0.3998
   59CHL1    C6 5481   4.085   3.049   4.070 -0.1120  0.3082  0.5890
   59CHL1    H6 5482   4.080   3.133   3.999 -1.3115 -0.5977 -0.4602
   59CHL1    C7 5483   4.038   3.068   4.210 -0.5530 -0.7639 -0.4590
   59CHL1   H7A 5484   4.075   3.166   4.249 -1.1797 -1.0869  0.9928
   59CHL1   H7B 5485   3.928   3.081   4.206 -0.3629  2.2574  1.1642
   59CHL1    C8 5486   4.065   2.951   4.306  0.3488 -0.1873 -0.4115
   59CHL1    H8 5487   4.171   2.956   4.339  0.0497  0.4456  0.4946
   59CHL1   C14 5488   3.968   2.965   4.421  1.0224 -0.4642 -0.3842
   59CHL1   H14 5489   3.864   2.951   4.384 -0.3034  0.5721  2.6205
   59CHL1   C15 5490   3.975   3.096   4.503  0.2053  0.3198 -0.2999
   59CHL1  H15A 5491   4.082   3.125   4.510  0.4727 -0.2081 -1.7995
   59CHL1  H15B 5492   3.922   3.179   4.453 -0.4970  0.6211  0.8927
   59CHL1   C16 5493   3.904   3.060   4.633 -0.3506 -0.4225 -0.4902
   59CHL1  H16A 5494   3.957   3.091   4.726  2.6593 -2.0147 -1.5563
   59CHL1  H16B 5495   3.802   3.105   4.633  1.0552  3.2213  1.4246
   59CHL1   C17 5496   3.895   2.902   4.633  0.3674  0.1972 -0.6794
   59CHL1   H17 5497   3.796   2.878   4.590  0.6810 -0.8465 -0.8388
   59CHL1   C13 5498   3.985   2.852   4.520  0.2648  0.8525  0.0044
   59CHL1   C18 5499   4.123   2.837   4.582  0.0034 -0.3375 -0.2075
   59CHL1  H18A 5500   4.156   2.935   4.623 -1.9969 -0.6114  2.2866
   59CHL1  H18B 5501   4.137   2.762   4.663 -3.2925  2.7891  3.6952
   59CHL1  H18C 5502   4.200   2.812   4.505 -0.4833 -0.4263 -0.6729
   59CHL1   C12 5503   3.933   2.731   4.442 -0.0508  0.8165 -0.3182
   59CHL1  H12A 5504   3.932   2.644   4.512  1.0351  1.0714  0.0338
   59CHL1  H12B 5505   3.831   2.731   4.400 -0.3261 -3.1502 -0.0230
   59CHL1   C11 5506   4.031   2.707   4.324 -0.5767  0.5456 -0.4613
   59CHL1  H11A 5507   4.128   2.678   4.370 -0.6252  1.6766  0.3947
   59CHL1  H11B 5508   4.004   2.614   4.269  2.5699 -0.0623 -1.1790
   59CHL1    C9 5509   4.037   2.823   4.229  0.3160  0.3958  0.3259
   59CHL1    H9 5510   3.934   2.839   4.190  0.4063  0.9046  0.2885
   59CHL1   C10 5511   4.125   2.800   4.103 -0.3787  0.1575  0.2571
   59CHL1   C19 5512   4.269   2.751   4.145  0.3259 -0.5389  0.1905
   59CHL1  H19A 5513   4.319   2.828   4.207  1.0649 -0.0094 -1.0291
   59CHL1  H19B 5514   4.274   2.654   4.200 -0.1674 -0.7281 -0.0895
   59CHL1  H19C 5515   4.318   2.740   4.045 -0.7267  1.3338 -0.5824
   59CHL1    C1 5516   4.045   2.696   4.015  0.3964  0.3053 -0.1708
   59CHL1   H1A 5517   4.049   2.597   4.065  1.4640  1.2498  1.7594
   59CHL1   H1B 5518   3.938   2.726   4.010 -0.0481 -0.8608  1.4384
   59CHL1    C2 5519   4.110   2.674   3.873  1.0929  0.2630  0.0489
   59CHL1   H2A 5520   4.039   2.607   3.822 -1.6442  2.5562  0.6020
   59CHL1   H2B 5521   4.214   2.634   3.881  0.4265 -1.6616 -0.4884
   59CHL1   C20 5522   3.900   2.851   4.775  0.0455 -0.4715  0.6839
   59CHL1   H20 5523   4.000   2.878   4.817 -0.9674  0.7273  2.4337
   59CHL1   C21 5524   3.870   2.697   4.787  0.7299  0.2491  0.0481
   59CHL1  H21A 5525   3.935   2.639   4.718 -2.2610 -3.9233  0.2877
   59CHL1  H21B 5526   3.771   2.684   4.737  1.5535 -1.6305 -1.2127
   59CHL1  H21C 5527   3.874   2.669   4.895 -1.8709  2.6856  0.8974
   59CHL1   C22 5528   3.791   2.924   4.864  1.1478 -0.9125  0.7651
   59CHL1  H22A 5529   3.781   3.031   4.836  1.6289 -0.9163  0.5594
   59CHL1  H22B 5530   3.691   2.885   4.838  1.0094  1.2631 -2.6894
   59CHL1   C23 5531   3.817   2.922   5.013 -0.9313 -0.2629 -0.0902
   59CHL1  H23A 5532   3.799   2.823   5.060 -2.1623  0.4553  1.0018
   59CHL1  H23B 5533   3.923   2.952   5.024 -0.6819 -1.6301  1.6435
   59CHL1   C24 5534   3.723   3.028   5.073 -0.8619  0.1629  0.4706
   59CHL1  H24A 5535   3.727   3.122   5.014 -0.2622 -0.3249 -0.2810
   59CHL1  H24B 5536   3.617   2.999   5.058 -1.6844  2.2456  1.8213
   59CHL1   C25 5537   3.748   3.069   5.220 -0.0579  0.3560  0.0988
   59CHL1   H25 5538   3.833   3.141   5.214 -0.2979  0.5603 -1.2792
   59CHL1   C26 5539   3.635   3.145   5.288 -0.4124 -0.0372 -0.3074
   59CHL1  H26A 5540   3.542   3.087   5.303 -0.4249  0.0145 -0.1776
   59CHL1  H26B 5541   3.661   3.191   5.386 -1.2546  1.3265 -0.6931
   59CHL1  H26C 5542   3.608   3.230   5.221 -1.9226  0.5506  0.9866
   59CHL1   C27 5543   3.792   2.949   5.297 -0.4219  1.1168 -0.9193
   59CHL1  H27A 5544   3.710   2.875   5.288  0.9667 -0.7397  0.7161
   59CHL1  H27B 5545   3.884   2.895   5.268 -0.7113 -0.8964  1.5451
   59CHL1  H27C 5546   3.807   2.983   5.402 -1.7455  1.3604 -0.7898
   60CHL1    C3 5547   4.663   0.622   3.708  0.0149  0.2448  0.5683
   60CHL1    H3 5548   4.668   0.515   3.679 -2.2892  0.5949 -1.5014
   60CHL1    O3 5549   4.692   0.696   3.586 -0.1094 -0.0178 -0.2597
   60CHL1   H3' 5550   4.661   0.786   3.602 -0.4571  0.4506 -3.0898
   60CHL1    C4 5551   4.521   0.666   3.760 -0.2263 -0.0681 -0.5331
   60CHL1   H4A 5552   4.526   0.775   3.780 -4.4006  0.5957 -2.1235
   60CHL1   H4B 5553   4.450   0.650   3.676  0.1593 -4.7918 -0.2216
   60CHL1    C5 5554   4.471   0.590   3.881  0.1907  0.4002  0.0887
   60CHL1    C6 5555   4.348   0.533   3.879 -0.0648 -0.0096  0.5961
   60CHL1    H6 5556   4.280   0.555   3.795  0.7311 -1.6614 -0.5381
   60CHL1    C7 5557   4.300   0.467   4.000 -0.7590  0.1008  0.1578
   60CHL1   H7A 5558   4.194   0.497   4.013 -0.4585  0.1705  3.2036
   60CHL1   H7B 5559   4.298   0.357   3.981 -2.1180  0.0908  0.2465
   60CHL1    C8 5560   4.378   0.493   4.131 -0.8618  0.5063 -0.0562
   60CHL1    H8 5561   4.345   0.595   4.161 -1.4680 -0.5203  3.1203
   60CHL1   C14 5562   4.336   0.402   4.241  0.4997  0.1631  0.0605
   60CHL1   H14 5563   4.363   0.301   4.203  0.8712 -0.3294  1.5737
   60CHL1   C15 5564   4.185   0.397   4.274  0.2209  0.3690 -0.5322
   60CHL1  H15A 5565   4.142   0.498   4.294  2.0521  1.0031  0.4062
   60CHL1  H15B 5566   4.127   0.347   4.194  1.3590 -0.8445 -0.6373
   60CHL1   C16 5567   4.182   0.317   4.403  0.0963 -0.2084 -0.2673
   60CHL1  H16A 5568   4.112   0.362   4.477  1.2985  2.1077 -0.4458
   60CHL1  H16B 5569   4.148   0.215   4.377  2.8919 -0.6745 -2.6459
   60CHL1   C17 5570   4.331   0.309   4.457  0.4054  0.3065 -0.0127
   60CHL1   H17 5571   4.364   0.206   4.433 -0.6257 -0.0597  0.0963
   60CHL1   C13 5572   4.411   0.420   4.383 -0.5304  0.2301  0.9281
   60CHL1   C18 5573   4.378   0.563   4.446 -0.1309  0.1181 -0.1638
   60CHL1  H18A 5574   4.439   0.586   4.536  0.6378  2.2135 -1.1540
   60CHL1  H18B 5575   4.389   0.650   4.377  1.9473 -0.1864 -0.2600
   60CHL1  H18C 5576   4.270   0.565   4.472 -0.1100 -0.7705 -0.0011
   60CHL1   C12 5577   4.557   0.401   4.351  0.1313 -0.3400 -0.4359
   60CHL1  H12A 5578   4.618   0.412   4.443  0.8927  2.7013 -1.1705
   60CHL1  H12B 5579   4.577   0.303   4.302  0.5669  0.5985 -2.2053
   60CHL1   C11 5580   4.611   0.501   4.245 -0.9433  0.8430 -0.1348
   60CHL1  H11A 5581   4.600   0.601   4.291  0.1802  0.5641  0.8008
   60CHL1  H11B 5582   4.717   0.479   4.218 -0.3909 -2.0031  3.5647
   60CHL1    C9 5583   4.530   0.494   4.112 -0.7765  0.1912  0.0504
   60CHL1    H9 5584   4.556   0.389   4.087 -2.4084  0.0140 -1.1205
   60CHL1   C10 5585   4.583   0.590   3.990  1.1325  0.9031 -0.6026
   60CHL1   C19 5586   4.587   0.735   4.059 -0.5354 -0.4225 -0.7521
   60CHL1  H19A 5587   4.632   0.815   3.996 -0.0797  0.1549  0.2847
   60CHL1  H19B 5588   4.489   0.767   4.099  0.2601 -1.5757  2.4203
   60CHL1  H19C 5589   4.659   0.733   4.143 -1.3309 -0.5538 -0.0559
   60CHL1    C1 5590   4.727   0.564   3.944 -0.0650 -0.7019  0.2451
   60CHL1   H1A 5591   4.791   0.593   4.030  0.3720 -0.2249 -0.2261
   60CHL1   H1B 5592   4.745   0.456   3.924 -0.1438 -0.5764 -0.5774
   60CHL1    C2 5593   4.771   0.646   3.823 -0.3581 -0.1770 -0.2693
   60CHL1   H2A 5594   4.864   0.593   3.793 -0.0035 -0.8766  1.8856
   60CHL1   H2B 5595   4.780   0.750   3.862  0.9140 -1.2145  2.4852
   60CHL1   C20 5596   4.340   0.320   4.617  0.4467 -0.1479  0.3427
   60CHL1   H20 5597   4.305   0.423   4.642 -1.6834 -0.0593 -2.4362
   60CHL1   C21 5598   4.481   0.309   4.654 -0.6672 -0.5372 -0.1992
   60CHL1  H21A 5599   4.494   0.312   4.764  0.5701  2.0790 -0.3553
   60CHL1  H21B 5600   4.540   0.401   4.633 -0.0648 -0.9661 -0.4334
   60CHL1  H21C 5601   4.532   0.225   4.602 -1.7316 -0.9572 -0.6007
   60CHL1   C22 5602   4.253   0.217   4.690  0.3378  0.3115 -0.2494
   60CHL1  H22A 5603   4.149   0.231   4.654 -1.1062 -3.4737  1.8749
   60CHL1  H22B 5604   4.288   0.112   4.674  0.9087  0.6208 -1.1094
   60CHL1   C23 5605   4.233   0.260   4.843 -0.3968  0.0290 -0.0510
   60CHL1  H23A 5606   4.323   0.225   4.898 -1.4525 -0.7306  1.2452
   60CHL1  H23B 5607   4.239   0.369   4.864 -1.5491 -0.1153  1.1321
   60CHL1   C24 5608   4.116   0.190   4.905 -0.1233 -0.8141 -0.0257
   60CHL1  H24A 5609   4.030   0.247   4.865  2.3403  2.1248 -1.5738
   60CHL1  H24B 5610   4.115   0.080   4.884  2.7827 -0.8361 -0.5250
   60CHL1   C25 5611   4.103   0.205   5.066 -0.7320 -0.2546  0.5291
   60CHL1   H25 5612   4.134   0.309   5.085  1.3857 -0.4372 -1.4564
   60CHL1   C26 5613   3.961   0.174   5.114 -0.6136 -0.0920  0.8992
   60CHL1  H26A 5614   3.893   0.232   5.048 -0.7307 -0.9127  0.2873
   60CHL1  H26B 5615   3.945   0.065   5.101 -3.1843  0.2208  0.9653
   60CHL1  H26C 5616   3.943   0.190   5.223 -0.1927 -5.7238  2.1051
   60CHL1   C27 5617   4.203   0.113   5.132  0.3610 -0.7464  0.0461
   60CHL1  H27A 5618   4.194   0.133   5.241 -0.7502  2.4223 -0.5196
   60CHL1  H27B 5619   4.173   0.006   5.124 -0.0812 -0.5736 -0.6463
   60CHL1  H27C 5620   4.307   0.137   5.101  1.5729 -1.5289  3.0702
   61CHL1    C3 5621   6.491   1.739   3.771  0.8140 -0.1793 -0.0059
   61CHL1    H3 5622   6.575   1.803   3.805  2.3401 -1.3354 -1.3732
   61CHL1    O3 5623   6.484   1.764   3.630  0.2149  0.2511  0.2668
   61CHL1   H3' 5624   6.401   1.724   3.606  0.7681 -0.6338 -0.2294
   61CHL1    C4 5625   6.534   1.592   3.800 -0.5600 -0.2510 -0.2018
   61CHL1   H4A 5626   6.457   1.524   3.759 -1.1682 -0.5932  1.4060
   61CHL1   H4B 5627   6.634   1.570   3.757 -2.1238 -3.4244 -2.5893
   61CHL1    C5 5628   6.531   1.575   3.954  0.3067 -0.7921  0.3129
   61CHL1    C6 5629   6.641   1.532   4.018  0.4994  0.1387  0.2551
   61CHL1    H6 5630   6.730   1.496   3.963  1.7713  0.6749  1.8836
   61CHL1    C7 5631   6.643   1.514   4.162 -0.1353  0.1313 -0.4074
   61CHL1   H7A 5632   6.709   1.428   4.187 -0.5272 -0.3322 -0.9517
   61CHL1   H7B 5633   6.688   1.606   4.205  0.4100 -0.8729  1.2800
   61CHL1    C8 5634   6.506   1.502   4.226 -0.1839 -0.9567 -0.5152
   61CHL1    H8 5635   6.469   1.408   4.182  0.4067 -0.8054 -1.3621
   61CHL1   C14 5636   6.520   1.506   4.381  0.3331  0.4583 -0.0380
   61CHL1   H14 5637   6.569   1.604   4.399  0.7372  0.7126 -2.2582
   61CHL1   C15 5638   6.611   1.399   4.445 -0.1869  0.2509  0.1604
   61CHL1  H15A 5639   6.568   1.304   4.404  2.8781 -1.2821  0.2481
   61CHL1  H15B 5640   6.718   1.406   4.417 -0.3415  3.2754  0.0829
   61CHL1   C16 5641   6.577   1.408   4.591  0.0752 -0.5615 -0.4475
   61CHL1  H16A 5642   6.565   1.310   4.641  2.0840  0.7648  2.9908
   61CHL1  H16B 5643   6.661   1.455   4.647  1.1511  0.1063 -2.5231
   61CHL1   C17 5644   6.446   1.501   4.601 -0.5804 -0.2844 -0.9463
   61CHL1   H17 5645   6.483   1.603   4.621 -3.1143  0.6105 -0.4985
   61CHL1   C13 5646   6.391   1.507   4.457 -0.2070  0.3787 -0.7560
   61CHL1   C18 5647   6.314   1.377   4.429 -0.0761 -0.1379  0.6892
   61CHL1  H18A 5648   6.285   1.373   4.321 -0.4834  0.3781  0.7787
   61CHL1  H18B 5649   6.369   1.283   4.452  0.9664  0.6209  1.3821
   61CHL1  H18C 5650   6.216   1.372   4.481 -0.5285 -1.2775 -0.2142
   61CHL1   C12 5651   6.317   1.637   4.426  0.7714  0.1830  0.2228
   61CHL1  H12A 5652   6.214   1.640   4.468  0.1243 -0.9081 -1.2138
   61CHL1  H12B 5653   6.380   1.723   4.458  1.3773 -0.4238  0.6638
   61CHL1   C11 5654   6.291   1.639   4.271 -0.7077  0.4083  0.0648
   61CHL1  H11A 5655   6.209   1.567   4.247 -0.3635 -0.3829  1.1465
   61CHL1  H11B 5656   6.244   1.734   4.239  1.4282  1.1771 -0.9039
   61CHL1    C9 5657   6.414   1.615   4.180 -0.8320  0.2061  0.8445
   61CHL1    H9 5658   6.474   1.703   4.212 -0.8949  0.5036  0.1531
   61CHL1   C10 5659   6.398   1.620   4.028 -0.4240 -0.2266  0.2073
   61CHL1   C19 5660   6.287   1.513   3.998  0.2123 -0.4813  0.1244
   61CHL1  H19A 5661   6.191   1.554   4.038  0.9185  0.6557  0.7162
   61CHL1  H19B 5662   6.255   1.495   3.893  0.6237  1.2222 -0.3265
   61CHL1  H19C 5663   6.315   1.413   4.038 -0.2739 -0.8596 -0.4756
   61CHL1    C1 5664   6.355   1.764   3.992 -0.3953  0.2604 -0.2924
   61CHL1   H1A 5665   6.252   1.777   4.032 -0.8971 -0.3849 -1.3469
   61CHL1   H1B 5666   6.429   1.838   4.030 -0.7033  1.9048 -2.6730
   61CHL1    C2 5667   6.357   1.770   3.834  0.5400  0.2735 -0.0231
   61CHL1   H2A 5668   6.330   1.875   3.809  1.7505  0.6367  0.0902
   61CHL1   H2B 5669   6.278   1.704   3.792 -0.6841  0.9876  1.0900
   61CHL1   C20 5670   6.356   1.455   4.713  0.1645 -0.2780  0.7814
   61CHL1   H20 5671   6.305   1.360   4.685 -1.2840  0.8509 -0.5784
   61CHL1   C21 5672   6.239   1.553   4.730 -0.8370 -0.1861 -0.1530
   61CHL1  H21A 5673   6.183   1.538   4.825 -1.2229  1.4040 -0.1071
   61CHL1  H21B 5674   6.171   1.550   4.642 -0.0087 -1.4100 -0.7802
   61CHL1  H21C 5675   6.273   1.659   4.741 -1.7416  0.2081 -1.0284
   61CHL1   C22 5676   6.412   1.441   4.849 -0.4343 -0.0187 -0.6212
   61CHL1  H22A 5677   6.520   1.416   4.841 -0.3109 -0.3536  1.4831
   61CHL1  H22B 5678   6.415   1.540   4.901 -1.6390  0.7763 -1.9736
   61CHL1   C23 5679   6.349   1.340   4.939 -0.7078  0.1995  0.8021
   61CHL1  H23A 5680   6.244   1.368   4.961 -0.5260 -0.5590  2.8023
   61CHL1  H23B 5681   6.354   1.237   4.896  0.8190 -0.0365  1.4771
   61CHL1   C24 5682   6.406   1.328   5.074  0.3626  0.8047 -0.6043
   61CHL1  H24A 5683   6.511   1.293   5.070  0.8025  1.6153  2.0350
   61CHL1  H24B 5684   6.409   1.430   5.117 -1.5548  0.6172  0.0661
   61CHL1   C25 5685   6.327   1.239   5.175 -0.6228 -0.5157 -0.0777
   61CHL1   H25 5686   6.309   1.147   5.115  0.2352 -0.2865 -0.6906
   61CHL1   C26 5687   6.410   1.183   5.292  0.4696 -0.2077  0.2361
   61CHL1  H26A 5688   6.366   1.094   5.342  0.8647 -0.4583  0.1449
   61CHL1  H26B 5689   6.512   1.168   5.250  0.3816  2.6079 -1.2416
   61CHL1  H26C 5690   6.422   1.259   5.371 -2.1402  1.0272 -0.4362
   61CHL1   C27 5691   6.193   1.295   5.221  0.1793  0.3555  0.4023
   61CHL1  H27A 5692   6.203   1.400   5.256  0.2155  0.6423 -0.4357
   61CHL1  H27B 5693   6.142   1.288   5.122 -0.9309 -2.2339  1.0666
   61CHL1  H27C 5694   6.146   1.237   5.303 -2.9634 -1.6542 -2.5378
   62CHL1    C3 5695   5.398   3.444   3.874 -0.5179 -0.1852 -0.9176
   62CHL1    H3 5696   5.308   3.380   3.886 -1.9900  1.8423 -0.5960
   62CHL1    O3 5697   5.402   3.490   3.745 -0.5542 -0.0901 -0.4139
   62CHL1   H3' 5698   5.451   3.573   3.741 -0.2046 -0.2786 -0.0570
   62CHL1    C4 5699   5.391   3.554   3.981  0.2975 -0.5256  0.9300
   62CHL1   H4A 5700   5.480   3.614   3.953 -1.4409  0.8328 -2.1706
   62CHL1   H4B 5701   5.297   3.611   3.963  0.3492 -1.2450 -2.2404
   62CHL1    C5 5702   5.399   3.511   4.126 -0.4105  0.6161  0.2213
   62CHL1    C6 5703   5.306   3.557   4.213 -0.8047  0.2988 -0.4118
   62CHL1    H6 5704   5.235   3.632   4.176  1.0073  2.9173  1.1433
   62CHL1    C7 5705   5.292   3.506   4.357 -0.0829  0.7589  0.6268
   62CHL1   H7A 5706   5.257   3.584   4.428 -2.5674 -0.6384  1.0722
   62CHL1   H7B 5707   5.204   3.442   4.377 -0.8102  1.6801  0.5009
   62CHL1    C8 5708   5.408   3.419   4.401  0.5866  0.3417  0.0064
   62CHL1    H8 5709   5.488   3.496   4.407  0.3657  0.4637  1.7484
   62CHL1   C14 5710   5.378   3.343   4.522  0.4088 -0.0086  0.1002
   62CHL1   H14 5711   5.295   3.272   4.498 -0.7294  1.3382 -0.0448
   62CHL1   C15 5712   5.321   3.422   4.643 -0.6080 -0.4529 -0.3342
   62CHL1  H15A 5713   5.387   3.511   4.653 -0.3521 -0.5653 -0.9734
   62CHL1  H15B 5714   5.217   3.458   4.626 -0.4598 -0.8537 -2.2198
   62CHL1   C16 5715   5.324   3.336   4.769  0.2264 -0.0044 -0.6272
   62CHL1  H16A 5716   5.380   3.404   4.836 -1.7540 -0.6803  1.8705
   62CHL1  H16B 5717   5.227   3.315   4.820  0.1903  0.1255 -0.6413
   62CHL1   C17 5718   5.412   3.212   4.719  0.3448  0.6497  0.1342
   62CHL1   H17 5719   5.336   3.136   4.691 -0.8914  0.3325  3.8091
   62CHL1   C13 5720   5.488   3.259   4.589  0.6495  0.7466  0.6223
   62CHL1   C18 5721   5.610   3.341   4.622 -0.4692 -0.1105 -0.0752
   62CHL1  H18A 5722   5.695   3.271   4.638 -0.1504  0.4967  0.9914
   62CHL1  H18B 5723   5.647   3.403   4.537 -0.5647 -1.8880 -1.4889
   62CHL1  H18C 5724   5.609   3.406   4.712  1.5715  0.7608 -0.5987
   62CHL1   C12 5725   5.524   3.159   4.482  0.3184 -0.7562 -0.7441
   62CHL1  H12A 5726   5.598   3.086   4.522 -0.5555 -1.5578 -0.5544
   62CHL1  H12B 5727   5.429   3.102   4.467 -0.6773  0.9506 -1.1643
   62CHL1   C11 5728   5.571   3.227   4.348 -0.3649  0.0914  0.3455
   62CHL1  H11A 5729   5.666   3.284   4.359 -0.3517  1.3375 -4.2496
   62CHL1  H11B 5730   5.581   3.142   4.278 -1.4354 -0.5654  0.9476
   62CHL1    C9 5731   5.461   3.318   4.296  0.5726  0.0433  0.2886
   62CHL1    H9 5732   5.370   3.259   4.271  0.3300  0.8533 -0.8203
   62CHL1   C10 5733   5.491   3.385   4.157 -0.8830  0.1178  0.0580
   62CHL1   C19 5734   5.637   3.439   4.169  1.0132  0.0521 -0.4768
   62CHL1  H19A 5735   5.656   3.504   4.080 -0.5669  0.0385 -0.8574
   62CHL1  H19B 5736   5.641   3.509   4.256 -1.7044  2.0205 -1.7797
   62CHL1  H19C 5737   5.719   3.364   4.171  2.7595  1.8486 -0.5780
   62CHL1    C1 5738   5.494   3.287   4.035  0.0237 -0.5411  0.1617
   62CHL1   H1A 5739   5.569   3.208   4.058 -0.8092 -1.2921  0.3402
   62CHL1   H1B 5740   5.398   3.233   4.024  0.4889 -1.4032  0.1655
   62CHL1    C2 5741   5.517   3.349   3.902 -0.1344 -0.8327 -0.0248
   62CHL1   H2A 5742   5.513   3.269   3.826 -1.3212 -0.3531 -0.4847
   62CHL1   H2B 5743   5.616   3.398   3.895 -1.0834  1.0896 -0.5456
   62CHL1   C20 5744   5.497   3.143   4.831 -0.2072  0.3813  0.6149
   62CHL1   H20 5745   5.602   3.172   4.808  0.1845 -1.0628  0.4635
   62CHL1   C21 5746   5.474   2.989   4.803 -0.4302  0.1276 -0.4933
   62CHL1  H21A 5747   5.368   2.961   4.821 -0.9004  2.3937  0.5273
   62CHL1  H21B 5748   5.531   2.918   4.867 -2.8108 -1.5592 -0.0998
   62CHL1  H21C 5749   5.487   2.959   4.696 -1.1475 -2.5164  0.0926
   62CHL1   C22 5750   5.478   3.191   4.976 -0.0858  0.4738 -0.7755
   62CHL1  H22A 5751   5.505   3.298   4.988 -0.6022  0.7254 -1.7192
   62CHL1  H22B 5752   5.373   3.172   5.008 -0.0335  1.2183 -0.1213
   62CHL1   C23 5753   5.564   3.113   5.081 -0.1922 -0.1456  0.2435
   62CHL1  H23A 5754   5.545   3.004   5.070 -2.2471  0.2143 -0.2562
   62CHL1  H23B 5755   5.670   3.141   5.065 -0.0419  0.8669  2.6066
   62CHL1   C24 5756   5.528   3.129   5.232 -0.2646  0.1482  0.2383
   62CHL1  H24A 5757   5.556   3.233   5.259  0.9817 -0.1917  0.3028
   62CHL1  H24B 5758   5.418   3.116   5.232 -0.1887 -0.6955  1.5446
   62CHL1   C25 5759   5.599   3.031   5.334  0.3317  0.2325 -0.2914
   62CHL1   H25 5760   5.601   2.935   5.278 -0.8724  1.2362 -2.1725
   62CHL1   C26 5761   5.749   3.074   5.350  0.3767 -0.1062 -0.2900
   62CHL1  H26A 5762   5.804   3.099   5.256  0.9530  1.2184  0.3742
   62CHL1  H26B 5763   5.741   3.166   5.411 -2.8982  0.1305 -0.8674
   62CHL1  H26C 5764   5.810   2.999   5.404  3.4044  2.3300 -0.0895
   62CHL1   C27 5765   5.515   3.039   5.461 -0.0718 -0.3527  0.2024
   62CHL1  H27A 5766   5.406   3.040   5.438  0.1705  0.0077 -1.0002
   62CHL1  H27B 5767   5.543   2.947   5.517 -0.3854 -1.0326 -0.7407
   62CHL1  H27C 5768   5.536   3.126   5.528 -0.5982 -1.0685  1.3304
   63CHL1    C3 5769   5.157   0.076   3.482 -0.3948  1.0148 -0.4699
   63CHL1    H3 5770   5.048   0.052   3.474  0.2174 -1.6015 -2.3482
   63CHL1    O3 5771   5.213   0.098   3.355 -0.2145  0.1447  0.6029
   63CHL1   H3' 5772   5.238   0.013   3.319  0.2265  1.0999 -1.5287
   63CHL1    C4 5773   5.168   0.212   3.560 -0.2531  0.1307  0.1070
   63CHL1   H4A 5774   5.271   0.252   3.548 -0.0586 -0.3702  0.1112
   63CHL1   H4B 5775   5.102   0.283   3.506 -0.4467  0.4616  0.7756
   63CHL1    C5 5776   5.125   0.205   3.707  0.4690 -0.1615 -0.3976
   63CHL1    C6 5777   5.033   0.290   3.755  0.0011 -0.6550  0.2629
   63CHL1    H6 5778   4.996   0.374   3.694 -0.7668 -1.8065 -0.8951
   63CHL1    C7 5779   4.997   0.293   3.900  0.1827  0.3427 -0.4469
   63CHL1   H7A 5780   5.004   0.393   3.948  3.2519  0.8328 -1.6616
   63CHL1   H7B 5781   4.891   0.264   3.917 -0.4535  1.5619 -2.0302
   63CHL1    C8 5782   5.083   0.206   3.993 -0.7075  0.2048  0.4174
   63CHL1    H8 5783   5.175   0.261   4.022 -1.4702  1.7722 -0.0387
   63CHL1   C14 5784   5.004   0.177   4.120  0.7592  0.1160 -0.0352
   63CHL1   H14 5785   4.908   0.132   4.089  0.2500  0.8371  0.4644
   63CHL1   C15 5786   4.958   0.298   4.203 -0.0208  0.3133  0.0789
   63CHL1  H15A 5787   5.034   0.377   4.223 -0.2895  0.4508  0.5692
   63CHL1  H15B 5788   4.866   0.342   4.159  0.3589  1.0183 -0.0201
   63CHL1   C16 5789   4.929   0.228   4.341 -0.2810 -0.2124 -0.1335
   63CHL1  H16A 5790   4.985   0.283   4.420 -0.1275 -0.8602  0.2164
   63CHL1  H16B 5791   4.821   0.244   4.357 -0.0565  3.7154 -1.4219
   63CHL1   C17 5792   4.971   0.080   4.337  0.3091 -0.2605  0.4342
   63CHL1   H17 5793   4.877   0.024   4.315 -0.7459  1.3752  0.5719
   63CHL1   C13 5794   5.070   0.083   4.224  0.3710 -0.5617  0.7455
   63CHL1   C18 5795   5.198   0.152   4.273  0.3102 -0.4386 -0.6844
   63CHL1  H18A 5796   5.265   0.178   4.189  0.2589 -1.6004 -1.1064
   63CHL1  H18B 5797   5.174   0.243   4.332  0.1595 -0.1588 -1.1709
   63CHL1  H18C 5798   5.251   0.073   4.331  1.7557  1.1618  0.2766
   63CHL1   C12 5799   5.093  -0.050   4.146  0.9136 -0.6533  0.1232
   63CHL1  H12A 5800   5.127  -0.136   4.208 -0.5903 -0.3912  1.3768
   63CHL1  H12B 5801   4.992  -0.077   4.109 -0.0306  2.8930 -0.2465
   63CHL1   C11 5802   5.187  -0.028   4.022  0.0381  0.2687 -0.3652
   63CHL1  H11A 5803   5.284   0.004   4.066  0.2159 -0.9700  0.1837
   63CHL1  H11B 5804   5.191  -0.123   3.964  2.2738 -0.6711  1.1858
   63CHL1    C9 5805   5.116   0.073   3.923  0.0118  0.4163 -0.3777
   63CHL1    H9 5806   5.020   0.024   3.894 -0.3946 -1.0163  2.9272
   63CHL1   C10 5807   5.191   0.092   3.784  0.5118 -0.1445 -0.6962
   63CHL1   C19 5808   5.342   0.127   3.808 -0.3744 -0.1499 -0.6505
   63CHL1  H19A 5809   5.388   0.132   3.707  2.8424 -0.5058  0.6825
   63CHL1  H19B 5810   5.351   0.230   3.848  2.3410 -0.8835  0.8645
   63CHL1  H19C 5811   5.406   0.055   3.864 -1.5771 -1.8945 -1.4466
   63CHL1    C1 5812   5.185  -0.044   3.705 -0.5003  0.1261  0.1092
   63CHL1   H1A 5813   5.259  -0.117   3.745  0.3831  1.4083  0.8816
   63CHL1   H1B 5814   5.082  -0.086   3.704 -0.3762 -0.4791  3.5252
   63CHL1    C2 5815   5.231  -0.031   3.554  0.2648  0.3875 -0.4496
   63CHL1   H2A 5816   5.219  -0.130   3.506  0.6779  0.5366 -0.8803
   63CHL1   H2B 5817   5.340  -0.006   3.550  0.8197 -1.6729  0.7860
   63CHL1   C20 5818   5.010   0.040   4.478 -0.1914 -0.2824  0.3186
   63CHL1   H20 5819   5.106   0.093   4.494 -0.4100  0.1320  0.2563
   63CHL1   C21 5820   5.034  -0.103   4.484 -0.0860  0.7008 -0.0140
   63CHL1  H21A 5821   5.123  -0.128   4.421  0.5159  1.1013  0.6641
   63CHL1  H21B 5822   4.953  -0.167   4.443 -0.2181  0.0726  1.1791
   63CHL1  H21C 5823   5.068  -0.135   4.585 -0.7994 -0.2565 -0.0663
   63CHL1   C22 5824   4.905   0.085   4.591  0.3195 -0.3575  0.1380
   63CHL1  H22A 5825   4.894   0.195   4.586 -1.5624 -0.5510 -0.8147
   63CHL1  H22B 5826   4.807   0.036   4.575  0.1421  0.0332  0.0191
   63CHL1   C23 5827   4.948   0.060   4.739 -0.0434  0.2054 -0.0154
   63CHL1  H23A 5828   4.868   0.105   4.801  1.5728 -1.1571  3.3134
   63CHL1  H23B 5829   4.939  -0.050   4.750  0.4132  0.2207  0.5726
   63CHL1   C24 5830   5.089   0.108   4.779  0.0045 -0.5575  0.0343
   63CHL1  H24A 5831   5.171   0.075   4.712  0.3523  0.7351 -0.2135
   63CHL1  H24B 5832   5.087   0.218   4.761  1.2424 -0.2583  1.5528
   63CHL1   C25 5833   5.143   0.079   4.924 -0.1425 -0.3031  0.3900
   63CHL1   H25 5834   5.052   0.104   4.983  0.4701  0.9973  0.8355
   63CHL1   C26 5835   5.179  -0.070   4.938 -0.1595  0.3959 -0.3069
   63CHL1  H26A 5836   5.185  -0.100   5.045 -2.0053  0.1973 -0.2266
   63CHL1  H26B 5837   5.094  -0.132   4.902 -1.0571  2.2703 -1.5966
   63CHL1  H26C 5838   5.274  -0.107   4.893 -0.0454 -0.1055  0.3218
   63CHL1   C27 5839   5.256   0.172   4.975  0.2365 -0.2851 -0.0116
   63CHL1  H27A 5840   5.226   0.278   4.986  4.3108  1.0498  0.0388
   63CHL1  H27B 5841   5.281   0.142   5.079  1.8014 -1.8449 -0.7787
   63CHL1  H27C 5842   5.356   0.163   4.928 -0.2842 -0.9965 -1.0318
   64CHL1    C3 5843   0.532   5.405   3.747 -0.3318 -0.1942 -0.0989
   64CHL1    H3 5844   0.610   5.333   3.778 -0.7752 -1.4489 -1.7946
   64CHL1    O3 5845   0.519   5.395   3.605  0.1369  0.0048  0.8067
   64CHL1   H3' 5846   0.609   5.396   3.572  0.3027 -1.3584  1.1494
   64CHL1    C4 5847   0.396   5.377   3.803 -0.1221  0.1921 -0.1881
   64CHL1   H4A 5848   0.311   5.429   3.754  1.4935  1.9939 -1.2221
   64CHL1   H4B 5849   0.386   5.268   3.781  0.0948  0.4323 -1.6062
   64CHL1    C5 5850   0.390   5.395   3.955 -0.3177 -0.3586 -0.0725
   64CHL1    C6 5851   0.342   5.296   4.031 -0.0661  1.0015  0.1180
   64CHL1    H6 5852   0.304   5.207   3.979 -1.4113  1.1465  0.8152
   64CHL1    C7 5853   0.313   5.327   4.172 -0.3045 -0.6213 -0.4091
   64CHL1   H7A 5854   0.211   5.284   4.187  0.4387 -2.3238  0.0554
   64CHL1   H7B 5855   0.386   5.270   4.233 -0.2052  0.0887  0.1373
   64CHL1    C8 5856   0.312   5.473   4.223 -0.4026  0.2610  0.3799
   64CHL1    H8 5857   0.216   5.525   4.201 -0.7032 -0.1158  0.7850
   64CHL1   C14 5858   0.334   5.483   4.374  0.1041  0.3289 -0.2393
   64CHL1   H14 5859   0.430   5.429   4.391 -0.1501  0.4234  1.6646
   64CHL1   C15 5860   0.230   5.410   4.463 -0.0421  0.2772  0.1466
   64CHL1  H15A 5861   0.121   5.425   4.449 -0.2058  0.4372  1.4300
   64CHL1  H15B 5862   0.235   5.300   4.455 -2.7165  0.1228 -0.4431
   64CHL1   C16 5863   0.271   5.461   4.605  0.0188 -0.4583  0.4994
   64CHL1  H16A 5864   0.181   5.501   4.656 -1.3401 -0.2496 -1.9104
   64CHL1  H16B 5865   0.308   5.371   4.658  0.9872 -0.4779 -0.1950
   64CHL1   C17 5866   0.379   5.575   4.586  0.2379 -0.1444 -0.6636
   64CHL1   H17 5867   0.477   5.526   4.603  1.3981  2.5204  1.0630
   64CHL1   C13 5868   0.358   5.616   4.436  0.6174  0.4522  0.0368
   64CHL1   C18 5869   0.231   5.708   4.423  0.9416 -0.0624  0.0173
   64CHL1  H18A 5870   0.130   5.670   4.450  0.3634  1.6623  0.4225
   64CHL1  H18B 5871   0.248   5.804   4.476  1.8719 -0.9143  1.3044
   64CHL1  H18C 5872   0.211   5.741   4.319  0.9027 -4.2012 -1.4780
   64CHL1   C12 5873   0.483   5.678   4.361 -0.2191  0.4093 -0.4872
   64CHL1  H12A 5874   0.489   5.785   4.389 -1.5903  0.2112  0.6558
   64CHL1  H12B 5875   0.575   5.619   4.383 -1.2346 -1.0202  0.0687
   64CHL1   C11 5876   0.459   5.682   4.214  0.1461 -0.7263 -0.6120
   64CHL1  H11A 5877   0.379   5.756   4.196 -0.6533 -1.6302 -0.8111
   64CHL1  H11B 5878   0.546   5.720   4.156  0.3014  1.4601  0.9302
   64CHL1    C9 5879   0.435   5.540   4.157  0.3548 -0.0267 -0.3105
   64CHL1    H9 5880   0.521   5.475   4.185 -0.2524 -0.9807 -0.6172
   64CHL1   C10 5881   0.428   5.539   4.002 -0.7442  0.3909  0.5129
   64CHL1   C19 5882   0.326   5.646   3.954  0.2084 -0.2237 -0.3638
   64CHL1  H19A 5883   0.358   5.750   3.978 -0.7553  0.1326 -0.5563
   64CHL1  H19B 5884   0.309   5.652   3.844  0.8722  2.2269 -0.3831
   64CHL1  H19C 5885   0.228   5.632   4.005  0.3326  1.5113  0.4280
   64CHL1    C1 5886   0.571   5.567   3.943  0.5650 -0.1332  0.2075
   64CHL1   H1A 5887   0.597   5.672   3.966 -0.1569 -0.0220  0.5339
   64CHL1   H1B 5888   0.644   5.496   3.988 -0.4465  0.8574  3.6511
   64CHL1    C2 5889   0.578   5.550   3.789 -0.7944 -0.0774 -0.1487
   64CHL1   H2A 5890   0.682   5.569   3.753 -0.9626  1.4851  0.1447
   64CHL1   H2B 5891   0.509   5.621   3.739  2.8352  1.7025 -3.1393
   64CHL1   C20 5892   0.379   5.674   4.703  0.4804  0.8663  0.5496
   64CHL1   H20 5893   0.283   5.730   4.696 -0.5251 -0.9064 -0.5711
   64CHL1   C21 5894   0.481   5.778   4.678  0.4177  0.5912  0.4007
   64CHL1  H21A 5895   0.441   5.843   4.598  0.8524  0.2191 -0.1278
   64CHL1  H21B 5896   0.582   5.736   4.661 -0.8782 -1.5500 -3.0270
   64CHL1  H21C 5897   0.490   5.837   4.772  0.8687 -2.4133  2.3989
   64CHL1   C22 5898   0.387   5.615   4.843  0.5543 -0.1473  0.3840
   64CHL1  H22A 5899   0.366   5.506   4.840 -2.6852  0.3651 -1.3138
   64CHL1  H22B 5900   0.487   5.627   4.888  0.0331 -0.1703  1.5761
   64CHL1   C23 5901   0.283   5.670   4.942  0.3303  0.5452  0.2243
   64CHL1  H23A 5902   0.267   5.778   4.924  0.4483  0.8827  1.9832
   64CHL1  H23B 5903   0.186   5.618   4.925  1.1039 -0.8478 -0.1338
   64CHL1   C24 5904   0.335   5.642   5.089 -0.2816  0.1164 -0.0343
   64CHL1  H24A 5905   0.350   5.534   5.111 -0.3376  0.2670  0.7962
   64CHL1  H24B 5906   0.432   5.696   5.089 -0.3649  0.3525 -2.1487
   64CHL1   C25 5907   0.248   5.712   5.197 -0.6700  0.2590  0.3030
   64CHL1   H25 5908   0.235   5.815   5.159 -0.6844  0.1104 -0.1021
   64CHL1   C26 5909   0.111   5.648   5.221  0.2467  0.2801  1.3636
   64CHL1  H26A 5910   0.057   5.695   5.307 -1.1333  1.7439 -0.2225
   64CHL1  H26B 5911   0.047   5.663   5.131  0.4556  0.1229  1.1900
   64CHL1  H26C 5912   0.113   5.539   5.240 -1.9465 -0.0966 -0.1309
   64CHL1   C27 5913   0.325   5.718   5.333 -0.2248 -0.5586  0.1643
   64CHL1  H27A 5914   0.366   5.616   5.346  1.0430 -0.7007 -3.5845
   64CHL1  H27B 5915   0.414   5.784   5.321 -0.2876 -0.5776 -0.4223
   64CHL1  H27C 5916   0.271   5.764   5.419  2.1735  3.3425 -0.1724
   65CHL1    C3 5917   5.542   4.159   3.954  0.5740 -0.1064  0.1137
   65CHL1    H3 5918   5.528   4.257   4.005 -1.1387  0.6718 -1.7029
   65CHL1    O3 5919   5.546   4.178   3.810 -0.7507 -0.1968 -0.7374
   65CHL1   H3' 5920   5.604   4.114   3.768  1.3668  2.0935 -1.5322
   65CHL1    C4 5921   5.677   4.105   4.004 -0.2606 -0.9254  0.8224
   65CHL1   H4A 5922   5.689   4.017   3.938  1.0337 -0.7468  0.8086
   65CHL1   H4B 5923   5.762   4.172   3.978 -0.6587  0.2177  2.3379
   65CHL1    C5 5924   5.687   4.062   4.145 -0.0602 -0.0600 -0.3969
   65CHL1    C6 5925   5.780   4.112   4.232 -0.3593  0.3397  0.2802
   65CHL1    H6 5926   5.863   4.168   4.187  1.9070 -2.2183  0.9847
   65CHL1    C7 5927   5.785   4.097   4.376 -0.4404 -0.2462 -0.5740
   65CHL1   H7A 5928   5.891   4.075   4.401 -0.7161 -2.4286 -1.1467
   65CHL1   H7B 5929   5.745   4.192   4.417 -2.5035 -0.3364 -2.2181
   65CHL1    C8 5930   5.706   3.969   4.418  0.1591  0.4924  0.8395
   65CHL1    H8 5931   5.764   3.881   4.383 -1.8630 -0.5569 -0.0218
   65CHL1   C14 5932   5.686   3.963   4.567  0.3691  0.3682 -0.3942
   65CHL1   H14 5933   5.635   4.058   4.597 -1.9724 -0.2437 -2.1610
   65CHL1   C15 5934   5.812   3.952   4.653  0.6591  0.1630 -0.5076
   65CHL1  H15A 5935   5.889   3.881   4.615 -0.2610 -0.1325 -1.9136
   65CHL1  H15B 5936   5.860   4.052   4.649  1.0313 -0.0465 -1.6590
   65CHL1   C16 5937   5.775   3.897   4.793  0.1298 -0.2144  0.2858
   65CHL1  H16A 5938   5.838   3.810   4.822  0.8861 -0.0641 -0.8362
   65CHL1  H16B 5939   5.787   3.973   4.873  0.2179 -0.3101  0.3635
   65CHL1   C17 5940   5.622   3.881   4.778  0.3226  0.3104 -0.3767
   65CHL1   H17 5941   5.565   3.973   4.804 -0.4597  0.1315 -1.4003
   65CHL1   C13 5942   5.597   3.858   4.628 -0.1901 -0.4568  0.2646
   65CHL1   C18 5943   5.649   3.717   4.592  0.2010  0.5929  0.2861
   65CHL1  H18A 5944   5.662   3.706   4.483 -0.5167  1.3353  0.1109
   65CHL1  H18B 5945   5.743   3.687   4.643 -1.4325 -3.3725  1.2869
   65CHL1  H18C 5946   5.581   3.640   4.634  1.5396  0.1041  1.6631
   65CHL1   C12 5947   5.455   3.879   4.572  0.0649 -0.0119  0.0467
   65CHL1  H12A 5948   5.410   3.783   4.606  0.2429 -0.1011  0.0305
   65CHL1  H12B 5949   5.398   3.965   4.614 -1.4747  0.0112 -1.9110
   65CHL1   C11 5950   5.452   3.888   4.420 -0.2506 -0.3841  0.1396
   65CHL1  H11A 5951   5.469   3.788   4.376 -0.1079 -0.8507  1.2349
   65CHL1  H11B 5952   5.350   3.919   4.386 -0.2875 -1.1313 -0.4397
   65CHL1    C9 5953   5.564   3.975   4.356  0.2140 -0.3622 -0.6011
   65CHL1    H9 5954   5.525   4.073   4.391  1.0565 -0.2232 -0.0003
   65CHL1   C10 5955   5.568   3.984   4.196  0.5632 -0.9392  0.1219
   65CHL1   C19 5956   5.574   3.839   4.142  0.4808  0.2848  0.0710
   65CHL1  H19A 5957   5.661   3.782   4.180  0.5814  0.3848 -0.0083
   65CHL1  H19B 5958   5.477   3.789   4.163  0.0935  2.0088  2.9847
   65CHL1  H19C 5959   5.590   3.841   4.032  1.1925  1.0399  0.1768
   65CHL1    C1 5960   5.437   4.052   4.145 -0.4759  0.2883 -0.6760
   65CHL1   H1A 5961   5.347   3.993   4.176  1.0956 -1.0071  1.7645
   65CHL1   H1B 5962   5.426   4.143   4.208  1.3897 -0.0343  0.1637
   65CHL1    C2 5963   5.426   4.075   3.992 -0.3042 -0.0514  0.0133
   65CHL1   H2A 5964   5.337   4.133   3.960  0.0815  0.5581  0.0202
   65CHL1   H2B 5965   5.430   3.988   3.924  1.3073  0.1600 -0.2013
   65CHL1   C20 5966   5.576   3.771   4.876 -0.8111 -0.1753 -0.5583
   65CHL1   H20 5967   5.621   3.673   4.848  0.6663 -0.2023  1.6162
   65CHL1   C21 5968   5.421   3.766   4.873  0.1696 -0.3880  0.4253
   65CHL1  H21A 5969   5.386   3.871   4.879 -0.4732 -0.5900  0.2437
   65CHL1  H21B 5970   5.376   3.701   4.952  0.7539 -4.2382 -2.1468
   65CHL1  H21C 5971   5.380   3.716   4.783  1.2457 -1.1244  0.3324
   65CHL1   C22 5972   5.614   3.793   5.025 -0.6652 -0.3695  0.4823
   65CHL1  H22A 5973   5.724   3.810   5.033 -0.5194 -1.8457  2.0471
   65CHL1  H22B 5974   5.566   3.886   5.064  3.3371  1.9943  0.3521
   65CHL1   C23 5975   5.583   3.671   5.115 -0.4836 -0.1590  0.3310
   65CHL1  H23A 5976   5.618   3.699   5.216 -1.9774  2.7970  0.1070
   65CHL1  H23B 5977   5.473   3.660   5.125 -0.8564  0.4532 -2.3019
   65CHL1   C24 5978   5.649   3.532   5.076  0.1851 -0.2609 -0.3614
   65CHL1  H24A 5979   5.639   3.461   5.161  1.4074 -0.8503 -0.6921
   65CHL1  H24B 5980   5.596   3.499   4.985 -0.9259  3.0558 -1.0619
   65CHL1   C25 5981   5.796   3.539   5.041 -0.2905  0.1329 -0.3379
   65CHL1   H25 5982   5.810   3.599   4.949 -1.3174  0.7775 -0.0888
   65CHL1   C26 5983   5.876   3.602   5.152 -0.0283  0.1838 -0.1199
   65CHL1  H26A 5984   5.861   3.566   5.257 -0.4437 -1.0001 -0.5648
   65CHL1  H26B 5985   5.980   3.575   5.123  0.7574  0.5774  2.0841
   65CHL1  H26C 5986   5.862   3.712   5.159 -2.0248 -0.1091  1.4974
   65CHL1   C27 5987   5.851   3.401   5.004 -0.2789 -0.1622 -0.0827
   65CHL1  H27A 5988   5.960   3.405   4.984 -0.4479 -1.6219 -1.5477
   65CHL1  H27B 5989   5.819   3.335   5.088  0.3942 -0.0470  0.2692
   65CHL1  H27C 5990   5.805   3.369   4.907 -0.2185  1.1718 -0.5672
   66CHL1    C3 5991   4.018   2.349   3.624 -0.5232  0.0024 -0.2302
   66CHL1    H3 5992   4.051   2.452   3.650 -0.5033 -0.0004 -0.2437
   66CHL1    O3 5993   4.047   2.317   3.488  0.2660 -0.1703  0.4208
   66CHL1   H3' 5994   4.028   2.224   3.475  0.0415 -0.5604  2.9928
   66CHL1    C4 5995   4.092   2.241   3.711 -0.2115  0.2211 -0.1412
   66CHL1   H4A 5996   4.057   2.143   3.672 -0.6228  0.4530 -0.3585
   66CHL1   H4B 5997   4.201   2.248   3.690 -0.3785  0.6085 -0.9014
   66CHL1    C5 5998   4.061   2.242   3.855  0.0723  0.5410  0.0015
   66CHL1    C6 5999   4.155   2.262   3.954 -0.2481  0.0424 -0.4612
   66CHL1    H6 6000   4.258   2.273   3.916  0.2172 -0.6977  0.5519
   66CHL1    C7 6001   4.126   2.279   4.095 -0.0430 -0.4534 -0.2086
   66CHL1   H7A 6002   4.196   2.232   4.168  0.5246  1.5779  0.6367
   66CHL1   H7B 6003   4.141   2.389   4.106  0.0682 -0.6180  1.6588
   66CHL1    C8 6004   3.984   2.233   4.127  0.2143  0.0746 -0.3113
   66CHL1    H8 6005   3.992   2.122   4.125  0.2631  0.0689  0.2279
   66CHL1   C14 6006   3.934   2.273   4.267  0.6892 -0.0370 -0.6025
   66CHL1   H14 6007   3.918   2.383   4.268  0.4131 -0.0422  1.8217
   66CHL1   C15 6008   4.028   2.238   4.379  0.5074  0.4103  0.3451
   66CHL1  H15A 6009   4.077   2.138   4.372  1.0009  0.6664  0.0937
   66CHL1  H15B 6010   4.116   2.306   4.382  0.9013 -0.1193  1.1780
   66CHL1   C16 6011   3.940   2.258   4.500  0.1013  0.3113 -0.4736
   66CHL1  H16A 6012   3.947   2.161   4.554 -0.2414  0.4544 -0.1698
   66CHL1  H16B 6013   3.976   2.345   4.558  0.0432  1.5473 -2.2005
   66CHL1   C17 6014   3.793   2.273   4.452  0.6380 -0.2472  0.1747
   66CHL1   H17 6015   3.787   2.384   4.447 -1.4423 -0.3515 -0.2716
   66CHL1   C13 6016   3.795   2.222   4.313 -0.1941  0.1496 -0.4214
   66CHL1   C18 6017   3.794   2.062   4.311  0.0139 -0.2539  0.1040
   66CHL1  H18A 6018   3.702   2.016   4.354  0.2728  0.6061  1.6295
   66CHL1  H18B 6019   3.803   2.014   4.211 -0.3915 -2.5057  1.0774
   66CHL1  H18C 6020   3.885   2.019   4.357 -0.2854 -1.1749 -0.1364
   66CHL1   C12 6021   3.689   2.288   4.219 -0.4646  0.4968 -0.9484
   66CHL1  H12A 6022   3.592   2.238   4.239  1.4209 -3.3621 -0.4834
   66CHL1  H12B 6023   3.692   2.397   4.236  1.5200  0.3366  0.0840
   66CHL1   C11 6024   3.728   2.261   4.077  0.2938 -0.8178 -0.5510
   66CHL1  H11A 6025   3.696   2.157   4.055  0.3957 -0.8039 -0.7710
   66CHL1  H11B 6026   3.664   2.326   4.013  0.1871 -1.0931 -0.7264
   66CHL1    C9 6027   3.882   2.290   4.032  0.2722  0.2246  0.5140
   66CHL1    H9 6028   3.903   2.399   4.019 -0.1237  0.2188 -0.2194
   66CHL1   C10 6029   3.911   2.247   3.892  0.1170 -0.4583 -0.4471
   66CHL1   C19 6030   3.871   2.100   3.869  0.3414 -0.6843  0.0879
   66CHL1  H19A 6031   3.902   2.048   3.776 -3.4953 -0.1161 -1.7085
   66CHL1  H19B 6032   3.906   2.037   3.954 -1.0242  0.3576  1.4648
   66CHL1  H19C 6033   3.761   2.100   3.856  0.5234 -1.0058 -1.7321
   66CHL1    C1 6034   3.832   2.338   3.787 -0.0041  0.1186 -0.5179
   66CHL1   H1A 6035   3.728   2.301   3.797  1.1535 -2.8221  2.4511
   66CHL1   H1B 6036   3.829   2.445   3.818  2.1803  0.0026  0.2669
   66CHL1    C2 6037   3.873   2.325   3.644  0.0292 -0.2555 -0.0233
   66CHL1   H2A 6038   3.826   2.410   3.589  1.1596 -0.1739 -0.8880
   66CHL1   H2B 6039   3.836   2.235   3.591 -0.6668  0.9413 -1.6433
   66CHL1   C20 6040   3.694   2.219   4.548 -0.1031  0.5414  0.5011
   66CHL1   H20 6041   3.693   2.108   4.549 -0.0568  0.5176 -0.8582
   66CHL1   C21 6042   3.558   2.277   4.510 -0.7438 -0.5222 -0.3412
   66CHL1  H21A 6043   3.489   2.257   4.594  0.3776 -1.5978  0.3571
   66CHL1  H21B 6044   3.514   2.223   4.423  0.4203 -2.2913  0.1076
   66CHL1  H21C 6045   3.576   2.384   4.485 -0.2311 -0.1752  1.3840
   66CHL1   C22 6046   3.718   2.261   4.699  0.1933 -0.6437  0.1086
   66CHL1  H22A 6047   3.825   2.256   4.730  0.2153  0.8803  0.3467
   66CHL1  H22B 6048   3.690   2.365   4.724 -1.5352 -1.4079  1.5873
   66CHL1   C23 6049   3.642   2.165   4.800 -0.1372 -0.3633  0.4457
   66CHL1  H23A 6050   3.543   2.139   4.757  0.5615 -0.9484 -0.8517
   66CHL1  H23B 6051   3.698   2.072   4.779  1.6497  0.6549  0.5096
   66CHL1   C24 6052   3.650   2.209   4.942  0.1013 -0.4323 -0.0316
   66CHL1  H24A 6053   3.757   2.222   4.969 -0.3908  0.8858  1.3789
   66CHL1  H24B 6054   3.603   2.308   4.960 -1.7368 -1.1106 -0.7871
   66CHL1   C25 6055   3.583   2.102   5.040  0.2029 -0.5508  0.5642
   66CHL1   H25 6056   3.624   2.001   5.019  1.2954  0.1896 -1.0878
   66CHL1   C26 6057   3.622   2.148   5.186  0.5982 -0.9064 -0.1101
   66CHL1  H26A 6058   3.579   2.071   5.254  2.7616 -0.8065  1.4499
   66CHL1  H26B 6059   3.732   2.149   5.201  0.9202 -0.3889 -2.1784
   66CHL1  H26C 6060   3.585   2.252   5.196  3.2042  0.1868 -1.0090
   66CHL1   C27 6061   3.429   2.104   5.031 -0.4966  0.4563 -0.1528
   66CHL1  H27A 6062   3.400   2.211   5.024  1.3125  0.9873  0.0740
   66CHL1  H27B 6063   3.387   2.042   5.113 -1.3925 -0.8193 -1.5180
   66CHL1  H27C 6064   3.411   2.055   4.933 -0.0347  3.2985 -1.7821
   67CHL1    C3 6065   4.647   2.590   4.000 -0.7347 -0.3930  0.5671
   67CHL1    H3 6066   4.544   2.626   3.980 -0.6266 -0.4721 -0.1587
   67CHL1    O3 6067   4.689   2.545   3.872 -0.3424 -0.3747  0.2330
   67CHL1   H3' 6068   4.784   2.532   3.878 -0.6284 -2.2696  2.5067
   67CHL1    C4 6069   4.744   2.698   4.052 -0.2533  0.5190  0.0199
   67CHL1   H4A 6070   4.844   2.652   4.068 -1.0350 -1.3079 -0.1117
   67CHL1   H4B 6071   4.755   2.776   3.974  0.6757 -1.2999 -1.7486
   67CHL1    C5 6072   4.692   2.744   4.187  0.0271  0.4278  0.2125
   67CHL1    C6 6073   4.662   2.875   4.195  0.0723 -0.5824 -0.7110
   67CHL1    H6 6074   4.692   2.945   4.115  2.9237  1.9272  2.2778
   67CHL1    C7 6075   4.620   2.940   4.324 -0.4260  0.9208 -0.8432
   67CHL1   H7A 6076   4.670   3.036   4.348 -0.1437  0.4102  0.7321
   67CHL1   H7B 6077   4.517   2.978   4.309 -0.9106 -0.6820 -1.8641
   67CHL1    C8 6078   4.631   2.839   4.444  0.5974  0.1184 -0.1005
   67CHL1    H8 6079   4.740   2.830   4.466  0.8562  0.1710 -1.3145
   67CHL1   C14 6080   4.552   2.891   4.564 -0.0318 -0.6888 -0.6901
   67CHL1   H14 6081   4.444   2.890   4.541 -1.2693 -0.3982  4.1894
   67CHL1   C15 6082   4.582   3.032   4.613  0.2168 -0.0695  0.2014
   67CHL1  H15A 6083   4.693   3.038   4.606  0.0540  0.8762 -3.2757
   67CHL1  H15B 6084   4.537   3.105   4.544  1.4341  0.5465  0.0365
   67CHL1   C16 6085   4.519   3.039   4.754  0.1179  0.1374 -0.0368
   67CHL1  H16A 6086   4.591   3.081   4.828 -1.7881  0.8000  1.5096
   67CHL1  H16B 6087   4.428   3.103   4.747 -1.3699 -1.8982 -0.0006
   67CHL1   C17 6088   4.477   2.897   4.792  0.6687 -0.6217 -0.3675
   67CHL1   H17 6089   4.368   2.889   4.773  0.2928  0.0264  1.3918
   67CHL1   C13 6090   4.556   2.807   4.693  0.1316  0.2509  0.0975
   67CHL1   C18 6091   4.703   2.778   4.744  0.0940 -0.1152 -0.5923
   67CHL1  H18A 6092   4.750   2.872   4.779  1.9543 -0.9596 -0.7067
   67CHL1  H18B 6093   4.701   2.702   4.825  0.3917  1.2504  0.7286
   67CHL1  H18C 6094   4.761   2.734   4.660  0.0981  0.7973 -1.0764
   67CHL1   C12 6095   4.497   2.669   4.655 -0.0705 -0.0709  0.4579
   67CHL1  H12A 6096   4.506   2.594   4.738 -0.7630 -0.7895 -0.1024
   67CHL1  H12B 6097   4.389   2.678   4.633  0.2525  1.9877 -0.4989
   67CHL1   C11 6098   4.561   2.603   4.536  0.3053  0.1503  0.0836
   67CHL1  H11A 6099   4.664   2.573   4.565  0.2105  1.8791  2.4598
   67CHL1  H11B 6100   4.506   2.509   4.516  0.8977 -0.3553  0.7796
   67CHL1    C9 6101   4.579   2.704   4.405  0.4253  0.2649  0.5053
   67CHL1    H9 6102   4.477   2.720   4.365  0.8053 -0.5445 -0.8689
   67CHL1   C10 6103   4.665   2.637   4.289  0.1981 -0.1927 -0.3212
   67CHL1   C19 6104   4.799   2.588   4.346  0.5847  0.2720 -0.3305
   67CHL1  H19A 6105   4.863   2.660   4.402  1.2065 -0.5732  0.0590
   67CHL1  H19B 6106   4.778   2.516   4.428 -1.1276  1.1790  0.0715
   67CHL1  H19C 6107   4.858   2.541   4.265  0.8757 -0.9074  0.5386
   67CHL1    C1 6108   4.585   2.524   4.230  0.6781  0.3257  0.3188
   67CHL1   H1A 6109   4.583   2.443   4.306 -0.6245 -0.5475 -0.6069
   67CHL1   H1B 6110   4.481   2.560   4.211  0.6505 -0.0424 -0.2664
   67CHL1    C2 6111   4.634   2.467   4.095 -0.0756 -0.6800 -0.2481
   67CHL1   H2A 6112   4.564   2.394   4.050 -0.9618 -0.9612  1.5061
   67CHL1   H2B 6113   4.732   2.415   4.105  1.6686  2.6910  2.0339
   67CHL1   C20 6114   4.493   2.872   4.945 -0.0487  0.0843  0.2418
   67CHL1   H20 6115   4.600   2.852   4.967  0.1847  0.1622 -0.7910
   67CHL1   C21 6116   4.422   2.741   4.977 -0.0437  0.4195  0.1809
   67CHL1  H21A 6117   4.320   2.734   4.932  0.6278 -2.7567 -1.1142
   67CHL1  H21B 6118   4.422   2.732   5.087 -0.2347  1.9153  0.3271
   67CHL1  H21C 6119   4.479   2.659   4.928 -0.1118  1.1154 -1.1275
   67CHL1   C22 6120   4.447   2.982   5.038 -0.5184 -0.3006 -0.5415
   67CHL1  H22A 6121   4.476   2.947   5.140 -1.8031 -1.3986 -0.5263
   67CHL1  H22B 6122   4.508   3.074   5.021  0.7780 -1.0723 -0.2256
   67CHL1   C23 6123   4.296   3.003   5.041  0.7444  0.2257  0.1919
   67CHL1  H23A 6124   4.266   3.030   4.938 -3.4490  0.1816  1.2266
   67CHL1  H23B 6125   4.226   2.925   5.077  0.7378 -0.2784 -0.8699
   67CHL1   C24 6126   4.257   3.131   5.125 -0.6469 -0.1993  0.4403
   67CHL1  H24A 6127   4.259   3.095   5.230  1.2820 -1.8689 -0.1005
   67CHL1  H24B 6128   4.333   3.211   5.109 -0.9880  0.3094  1.2613
   67CHL1   C25 6129   4.119   3.205   5.099  0.5004  0.4532  0.6317
   67CHL1   H25 6130   4.034   3.133   5.100 -0.5173  1.5769 -0.4974
   67CHL1   C26 6131   4.111   3.301   5.208  0.0804 -0.1451  0.0725
   67CHL1  H26A 6132   4.174   3.389   5.186 -0.8220  0.1258 -1.5309
   67CHL1  H26B 6133   4.010   3.341   5.232  0.3244  0.2693  0.4254
   67CHL1  H26C 6134   4.139   3.255   5.306 -1.1431  1.6925  1.3422
   67CHL1   C27 6135   4.121   3.274   4.968  0.3601 -0.4602  0.0205
   67CHL1  H27A 6136   4.023   3.326   4.956 -0.2977 -1.7277 -0.3001
   67CHL1  H27B 6137   4.214   3.334   4.962 -0.9754  1.8366  0.9822
   67CHL1  H27C 6138   4.127   3.199   4.886 -1.1698 -1.4898  0.7880
   68CHL1    C3 6139   1.105   0.741   3.660  0.5289 -0.1759  0.2083
   68CHL1    H3 6140   1.182   0.671   3.699 -0.9417 -1.5792  0.7270
   68CHL1    O3 6141   1.129   0.770   3.524 -0.1390 -0.8581 -0.3006
   68CHL1   H3' 6142   1.043   0.811   3.507  0.1571 -0.4820 -0.9338
   68CHL1    C4 6143   0.961   0.681   3.671 -0.2581  0.0094 -0.3509
   68CHL1   H4A 6144   0.888   0.753   3.629 -0.8028 -0.5455 -0.3832
   68CHL1   H4B 6145   0.951   0.595   3.600 -2.2754  0.2137 -0.3831
   68CHL1    C5 6146   0.922   0.645   3.814  1.0610 -0.4613  0.4121
   68CHL1    C6 6147   0.883   0.520   3.846 -0.1486  0.3265 -0.0024
   68CHL1    H6 6148   0.883   0.436   3.776 -1.1020  0.0383  0.3266
   68CHL1    C7 6149   0.848   0.484   3.990 -0.2220  0.3849 -0.0928
   68CHL1   H7A 6150   0.754   0.426   3.984 -0.4483  0.2510  3.2585
   68CHL1   H7B 6151   0.928   0.414   4.021  0.0538  0.7386  0.0065
   68CHL1    C8 6152   0.823   0.597   4.087 -0.6359 -0.3565 -0.1789
   68CHL1    H8 6153   0.718   0.628   4.069 -0.4905  2.2849  2.6832
   68CHL1   C14 6154   0.831   0.548   4.229  0.4111 -0.2552 -0.2414
   68CHL1   H14 6155   0.936   0.519   4.253  0.6803  1.5990  0.9789
   68CHL1   C15 6156   0.747   0.422   4.260 -0.0108  0.5006 -0.1332
   68CHL1  H15A 6157   0.649   0.413   4.208  0.2414 -0.1885 -0.4928
   68CHL1  H15B 6158   0.806   0.335   4.225  1.3646  0.2948  2.4537
   68CHL1   C16 6159   0.737   0.425   4.411 -0.0179 -0.9292  0.1577
   68CHL1  H16A 6160   0.629   0.420   4.437 -0.3223 -0.6883 -1.0109
   68CHL1  H16B 6161   0.780   0.335   4.461  2.4558  1.1128  1.9605
   68CHL1   C17 6162   0.801   0.560   4.457 -0.1913 -0.6996 -0.3014
   68CHL1   H17 6163   0.909   0.539   4.475 -0.8117 -3.8088  0.2902
   68CHL1   C13 6164   0.795   0.649   4.330 -0.0199 -0.7248 -0.2448
   68CHL1   C18 6165   0.655   0.708   4.309  0.5720  0.6472  0.3906
   68CHL1  H18A 6166   0.591   0.619   4.289  0.1709  0.6103  1.7237
   68CHL1  H18B 6167   0.615   0.769   4.392  0.3709  0.3308  0.5253
   68CHL1  H18C 6168   0.649   0.761   4.211 -1.6280 -1.7806 -0.9186
   68CHL1   C12 6169   0.900   0.762   4.314 -0.0700  0.4627 -0.3744
   68CHL1  H12A 6170   0.871   0.847   4.379 -1.3476 -0.0979 -0.1671
   68CHL1  H12B 6171   0.998   0.724   4.350  0.2449  0.7244 -0.9425
   68CHL1   C11 6172   0.910   0.813   4.174 -0.2001 -0.0131 -0.0725
   68CHL1  H11A 6173   0.818   0.871   4.153 -1.4742 -0.4928  3.4842
   68CHL1  H11B 6174   0.992   0.888   4.173 -0.1693 -0.0300  0.4742
   68CHL1    C9 6175   0.928   0.708   4.066 -0.7286  0.9864  0.0065
   68CHL1    H9 6176   1.023   0.661   4.098 -1.8262  0.8978  3.5908
   68CHL1   C10 6177   0.942   0.758   3.918  0.8102 -0.2485 -0.8205
   68CHL1   C19 6178   0.824   0.856   3.888 -0.9851 -0.1368  0.4260
   68CHL1  H19A 6179   0.839   0.948   3.948 -2.3680  2.0858 -2.3854
   68CHL1  H19B 6180   0.824   0.895   3.784 -1.8855 -1.3399 -0.0518
   68CHL1  H19C 6181   0.726   0.807   3.908 -0.1768 -1.5689  1.0635
   68CHL1    C1 6182   1.078   0.828   3.893  0.4518 -0.6561 -0.0489
   68CHL1   H1A 6183   1.082   0.919   3.955 -2.9664  0.6639 -1.4803
   68CHL1   H1B 6184   1.154   0.756   3.931 -1.0305 -1.6737  1.1628
   68CHL1    C2 6185   1.110   0.867   3.746 -0.1610 -0.0797 -0.3082
   68CHL1   H2A 6186   1.215   0.903   3.749  0.7432 -2.5409  0.3405
   68CHL1   H2B 6187   1.032   0.941   3.718 -1.5811 -1.8245 -1.2082
   68CHL1   C20 6188   0.736   0.608   4.586 -0.1050  0.0047 -0.1774
   68CHL1   H20 6189   0.626   0.620   4.579 -0.5270  0.0119  4.0237
   68CHL1   C21 6190   0.792   0.748   4.632 -0.6309  0.8050  0.6834
   68CHL1  H21A 6191   0.775   0.823   4.551  2.4304  0.2204 -0.6480
   68CHL1  H21B 6192   0.901   0.744   4.650 -0.7580  1.9366  1.8684
   68CHL1  H21C 6193   0.733   0.780   4.721  2.1334 -0.6834  3.2415
   68CHL1   C22 6194   0.758   0.502   4.698  0.3358  0.0067  0.4553
   68CHL1  H22A 6195   0.727   0.404   4.658 -0.5523  0.3274  0.3274
   68CHL1  H22B 6196   0.866   0.497   4.721  0.5769  0.6328 -0.5233
   68CHL1   C23 6197   0.665   0.516   4.820  0.6174  0.6795  0.3026
   68CHL1  H23A 6198   0.701   0.611   4.864  1.0631  1.2737 -1.2653
   68CHL1  H23B 6199   0.564   0.530   4.774  0.2857 -2.0926  0.0120
   68CHL1   C24 6200   0.663   0.403   4.920  0.5216  0.1184  0.1568
   68CHL1  H24A 6201   0.619   0.311   4.875 -4.0436  2.0418  0.1607
   68CHL1  H24B 6202   0.763   0.366   4.952 -0.1477 -0.6427  1.4812
   68CHL1   C25 6203   0.585   0.431   5.051 -0.1858  0.2626  0.2820
   68CHL1   H25 6204   0.505   0.507   5.037 -1.2580 -0.2737  2.9425
   68CHL1   C26 6205   0.520   0.300   5.095  0.0285 -0.9541 -0.5295
   68CHL1  H26A 6206   0.422   0.286   5.043 -1.1766  2.9742  0.3024
   68CHL1  H26B 6207   0.595   0.219   5.091  1.7143  0.5360 -0.3202
   68CHL1  H26C 6208   0.496   0.332   5.198  2.8949  2.8236 -0.8054
   68CHL1   C27 6209   0.678   0.483   5.166 -0.6549  0.1366 -0.1494
   68CHL1  H27A 6210   0.611   0.512   5.249 -1.0347  0.7505 -0.6630
   68CHL1  H27B 6211   0.738   0.403   5.215 -3.2098 -1.0847  1.2142
   68CHL1  H27C 6212   0.728   0.573   5.123 -2.1968  1.5676  0.9555
   69CHL1    C3 6213   6.740   5.672   3.570  0.0035 -0.1216  0.3260
   69CHL1    H3 6214   6.793   5.749   3.629 -0.1920 -1.4365  2.3305
   69CHL1    O3 6215   6.758   5.692   3.428  0.3335 -0.2544  0.1617
   69CHL1   H3' 6216   6.841   5.652   3.401 -0.2755 -1.5626  0.1567
   69CHL1    C4 6217   6.764   5.523   3.617 -0.0023 -0.5445  0.5795
   69CHL1   H4A 6218   6.695   5.464   3.552  2.3230 -1.2732 -1.3834
   69CHL1   H4B 6219   6.866   5.498   3.582 -0.3729 -2.3064  0.6623
   69CHL1    C5 6220   6.741   5.510   3.764 -0.9041  0.6404  0.7817
   69CHL1    C6 6221   6.839   5.476   3.844  0.4988 -0.5305 -0.4742
   69CHL1    H6 6222   6.926   5.440   3.788  0.2744 -0.2325 -1.0284
   69CHL1    C7 6223   6.823   5.450   3.986  0.9781  0.1182  0.1619
   69CHL1   H7A 6224   6.880   5.358   4.009  0.0885 -0.5196 -0.1525
   69CHL1   H7B 6225   6.857   5.536   4.048 -0.1387  1.1183 -0.5533
   69CHL1    C8 6226   6.672   5.434   4.027  0.6216 -1.3122  0.0782
   69CHL1    H8 6227   6.646   5.335   3.985 -2.1055  0.2620 -2.3678
   69CHL1   C14 6228   6.654   5.435   4.180  0.4038 -0.0381 -0.5710
   69CHL1   H14 6229   6.684   5.537   4.213  2.8666 -0.4960 -1.1977
   69CHL1   C15 6230   6.741   5.343   4.270 -0.4689 -0.7714 -0.1738
   69CHL1  H15A 6231   6.738   5.245   4.218 -0.8523  0.0891 -1.8396
   69CHL1  H15B 6232   6.845   5.383   4.276  0.7288 -3.4100 -1.7191
   69CHL1   C16 6233   6.667   5.349   4.405 -0.1252 -0.1036 -0.2635
   69CHL1  H16A 6234   6.641   5.246   4.438  1.2617 -0.7519 -1.1046
   69CHL1  H16B 6235   6.727   5.398   4.484  1.1596 -0.9213 -0.6959
   69CHL1   C17 6236   6.532   5.424   4.381 -0.5816 -0.6920 -1.3170
   69CHL1   H17 6237   6.557   5.529   4.405 -2.0588 -0.8909  1.4994
   69CHL1   C13 6238   6.504   5.409   4.230 -1.0681 -0.6855  0.0748
   69CHL1   C18 6239   6.458   5.269   4.186  0.3967  0.2904 -0.3015
   69CHL1  H18A 6240   6.521   5.194   4.239  1.8537  2.4700  1.2228
   69CHL1  H18B 6241   6.357   5.244   4.225  0.5197 -2.3485 -1.4249
   69CHL1  H18C 6242   6.465   5.255   4.076  1.7040  2.2453 -0.5179
   69CHL1   C12 6243   6.428   5.525   4.166  0.8180  0.2049  0.1304
   69CHL1  H12A 6244   6.320   5.521   4.188  0.5935 -1.4694 -1.0926
   69CHL1  H12B 6245   6.471   5.622   4.200  2.3359  1.0253 -3.6547
   69CHL1   C11 6246   6.437   5.526   4.012  0.2777 -0.0804  0.0899
   69CHL1  H11A 6247   6.382   5.438   3.971  0.7850 -0.1737 -0.4068
   69CHL1  H11B 6248   6.359   5.598   3.980  0.8314  0.0431 -1.0371
   69CHL1    C9 6249   6.583   5.536   3.960 -0.0499 -0.0217  0.0465
   69CHL1    H9 6250   6.625   5.636   3.985 -0.1693 -0.1209  0.6558
   69CHL1   C10 6251   6.602   5.542   3.808  0.1817  0.4964  0.9313
   69CHL1   C19 6252   6.514   5.428   3.748  0.1877 -0.2706  0.0013
   69CHL1  H19A 6253   6.527   5.402   3.640  2.2013  1.0405 -0.1405
   69CHL1  H19B 6254   6.540   5.335   3.803  0.9414 -0.7750 -1.1643
   69CHL1  H19C 6255   6.405   5.445   3.754 -0.2175 -2.7993  1.1222
   69CHL1    C1 6256   6.565   5.679   3.755 -0.0120 -0.2840 -0.1480
   69CHL1   H1A 6257   6.462   5.698   3.791  0.2813 -1.2659  1.2952
   69CHL1   H1B 6258   6.635   5.744   3.813 -0.0503 -0.4426  0.0778
   69CHL1    C2 6259   6.588   5.698   3.600 -0.4783 -0.5662 -0.3908
   69CHL1   H2A 6260   6.558   5.804   3.588 -0.0588 -0.1807  1.6184
   69CHL1   H2B 6261   6.537   5.623   3.537  0.7315 -2.1980  0.5117
   69CHL1   C20 6262   6.426   5.387   4.488 -0.5036  0.1441 -0.0092
   69CHL1   H20 6263   6.397   5.280   4.474  0.5046 -0.1402  0.0043
   69CHL1   C21 6264   6.297   5.466   4.458  0.7553  0.3655 -0.3791
   69CHL1  H21A 6265   6.304   5.576   4.444 -2.5989  0.7970  0.6135
   69CHL1  H21B 6266   6.219   5.454   4.536 -1.4789 -0.1985 -2.5660
   69CHL1  H21C 6267   6.250   5.429   4.364  0.7875  1.5140 -0.8621
   69CHL1   C22 6268   6.479   5.419   4.632  0.1440  0.1456 -0.5442
   69CHL1  H22A 6269   6.576   5.370   4.656  0.0953  0.5296  0.4943
   69CHL1  H22B 6270   6.480   5.530   4.642  0.1064  0.6460 -4.5835
   69CHL1   C23 6271   6.382   5.373   4.743  0.3442 -0.5380  0.0171
   69CHL1  H23A 6272   6.283   5.422   4.731  0.4232  0.0392  1.5252
   69CHL1  H23B 6273   6.363   5.263   4.738  1.4773 -0.8173  1.1595
   69CHL1   C24 6274   6.445   5.401   4.880  0.6736 -0.0462  0.0957
   69CHL1  H24A 6275   6.521   5.321   4.892 -1.1350 -2.2631 -2.2972
   69CHL1  H24B 6276   6.503   5.495   4.897 -0.5337  0.6246  0.6091
   69CHL1   C25 6277   6.341   5.387   4.996  0.0534 -0.3927  0.2598
   69CHL1   H25 6278   6.280   5.295   4.986 -1.4630  0.7272 -1.1507
   69CHL1   C26 6279   6.408   5.398   5.135  0.6013 -0.5592  0.1444
   69CHL1  H26A 6280   6.330   5.404   5.214  0.9393  1.2564  0.3644
   69CHL1  H26B 6281   6.463   5.302   5.146  0.6545 -0.3840  1.5221
   69CHL1  H26C 6282   6.475   5.486   5.132  0.2840 -0.2539  1.3612
   69CHL1   C27 6283   6.252   5.504   4.994 -0.5044  0.5160  0.3458
   69CHL1  H27A 6284   6.183   5.508   5.082 -0.5572  0.9740  0.2852
   69CHL1  H27B 6285   6.311   5.596   4.978 -0.1447  0.1153 -0.7116
   69CHL1  H27C 6286   6.183   5.492   4.908  2.2455  0.3603 -1.9838
   70CHL1    C3 6287   1.518   2.662   3.168  0.0623 -0.5699 -0.1116
   70CHL1    H3 6288   1.440   2.584   3.156  2.2033 -2.5360 -2.2660
   70CHL1    O3 6289   1.542   2.712   3.039  0.1165  0.1949  0.3852
   70CHL1   H3' 6290   1.607   2.650   3.004  1.3747 -1.1540  4.4453
   70CHL1    C4 6291   1.470   2.780   3.264 -0.3361  0.6142  0.0531
   70CHL1   H4A 6292   1.554   2.853   3.260 -1.5159  2.0197  0.1741
   70CHL1   H4B 6293   1.385   2.836   3.220  0.8848  2.3622 -0.1884
   70CHL1    C5 6294   1.444   2.738   3.401 -0.3468  0.1771 -0.1011
   70CHL1    C6 6295   1.325   2.756   3.470 -0.1393 -0.1296  0.0700
   70CHL1    H6 6296   1.247   2.820   3.425  1.0770  1.4042  0.0570
   70CHL1    C7 6297   1.301   2.724   3.613  1.0665  0.3033  0.2797
   70CHL1   H7A 6298   1.270   2.814   3.670  0.1153  1.0051 -1.2760
   70CHL1   H7B 6299   1.222   2.650   3.635 -0.6026  2.5817  2.4429
   70CHL1    C8 6300   1.434   2.687   3.684  0.0642  0.0105 -0.1978
   70CHL1    H8 6301   1.501   2.775   3.697  0.9576 -0.5869 -0.6172
   70CHL1   C14 6302   1.404   2.625   3.817  0.0840  0.2372 -0.1883
   70CHL1   H14 6303   1.337   2.540   3.795 -1.1879  1.2676 -0.4184
   70CHL1   C15 6304   1.312   2.706   3.914 -0.0966 -0.3857 -0.3721
   70CHL1  H15A 6305   1.345   2.811   3.928  1.2625 -0.7765 -0.5242
   70CHL1  H15B 6306   1.204   2.704   3.888 -0.8117  1.1948  2.1127
   70CHL1   C16 6307   1.334   2.631   4.043 -0.6005 -0.2434  0.0420
   70CHL1  H16A 6308   1.349   2.700   4.129  0.8674 -1.0014  0.4268
   70CHL1  H16B 6309   1.244   2.570   4.062 -1.1890  0.8952  1.0866
   70CHL1   C17 6310   1.457   2.540   4.042 -0.6216  0.2022  0.5752
   70CHL1   H17 6311   1.420   2.440   4.014 -1.7570  0.3758  1.3791
   70CHL1   C13 6312   1.526   2.584   3.905  0.3627 -0.2058  0.0350
   70CHL1   C18 6313   1.626   2.688   3.937  0.0884  0.2747  0.5563
   70CHL1  H18A 6314   1.673   2.732   3.847  1.3172 -2.1806 -0.0918
   70CHL1  H18B 6315   1.569   2.768   3.989 -3.1100 -1.8491  0.5905
   70CHL1  H18C 6316   1.717   2.654   3.991 -0.0362 -1.6933 -0.3989
   70CHL1   C12 6317   1.598   2.468   3.827  0.4295 -0.2227 -0.4064
   70CHL1  H12A 6318   1.689   2.434   3.881 -0.8791 -2.1926  0.7167
   70CHL1  H12B 6319   1.531   2.380   3.818  0.6955 -0.3641 -1.0882
   70CHL1   C11 6320   1.633   2.526   3.686  0.7524 -0.4170 -0.9347
   70CHL1  H11A 6321   1.715   2.597   3.707 -0.3165  0.2978  1.1430
   70CHL1  H11B 6322   1.665   2.445   3.617 -0.9759 -0.4937 -1.6826
   70CHL1    C9 6323   1.521   2.593   3.600  0.3969 -1.1150 -0.4783
   70CHL1    H9 6324   1.445   2.515   3.578 -1.7875  0.9749 -0.6842
   70CHL1   C10 6325   1.562   2.661   3.468  0.2063 -0.6208 -0.4332
   70CHL1   C19 6326   1.673   2.772   3.488 -0.5908 -0.8350  0.0524
   70CHL1  H19A 6327   1.727   2.805   3.397  2.1706  0.1726  1.9452
   70CHL1  H19B 6328   1.639   2.861   3.545  1.1598 -0.0600 -0.0583
   70CHL1  H19C 6329   1.749   2.724   3.553 -0.8370 -1.0762  0.1695
   70CHL1    C1 6330   1.616   2.552   3.364 -0.5642 -0.4141  0.3439
   70CHL1   H1A 6331   1.713   2.517   3.406 -0.3550 -0.4775 -0.1801
   70CHL1   H1B 6332   1.539   2.473   3.358 -0.2815 -0.7971  1.4537
   70CHL1    C2 6333   1.647   2.594   3.223  0.4651  0.4087 -0.2846
   70CHL1   H2A 6334   1.655   2.510   3.150 -1.6206 -0.3158  0.2693
   70CHL1   H2B 6335   1.733   2.664   3.232  0.7245  0.1828 -0.8840
   70CHL1   C20 6336   1.533   2.526   4.177 -0.1623 -0.3160 -0.6661
   70CHL1   H20 6337   1.575   2.627   4.199 -0.9305  0.3477 -2.1308
   70CHL1   C21 6338   1.657   2.435   4.155 -0.1713  0.7903 -0.3198
   70CHL1  H21A 6339   1.731   2.450   4.237  0.5620  1.6624 -1.1231
   70CHL1  H21B 6340   1.720   2.456   4.066  1.7497  0.2710  0.8644
   70CHL1  H21C 6341   1.617   2.332   4.149 -1.9291  1.4722 -1.0596
   70CHL1   C22 6342   1.440   2.488   4.294  0.1112 -0.1087 -0.1270
   70CHL1  H22A 6343   1.357   2.561   4.305 -0.4859 -1.1240  2.9035
   70CHL1  H22B 6344   1.406   2.385   4.272 -1.5607 -0.2334  2.5848
   70CHL1   C23 6345   1.509   2.473   4.431 -0.4266  0.0931  1.3070
   70CHL1  H23A 6346   1.573   2.383   4.434 -0.4000  0.0912  0.7243
   70CHL1  H23B 6347   1.569   2.566   4.437 -1.9066  1.1029  1.0139
   70CHL1   C24 6348   1.415   2.452   4.552  0.5072  0.0128 -0.4865
   70CHL1  H24A 6349   1.342   2.536   4.553 -0.1513 -0.5512 -0.1964
   70CHL1  H24B 6350   1.368   2.354   4.532  0.1706 -0.5818  2.6081
   70CHL1   C25 6351   1.484   2.449   4.688  0.3962 -0.0047  0.2706
   70CHL1   H25 6352   1.532   2.350   4.696  2.2143  0.4127 -3.5328
   70CHL1   C26 6353   1.588   2.562   4.698 -0.2773 -0.0401 -0.1165
   70CHL1  H26A 6354   1.533   2.655   4.670 -1.5450  0.3515  3.2641
   70CHL1  H26B 6355   1.605   2.579   4.806  1.2782  1.8369 -0.6077
   70CHL1  H26C 6356   1.681   2.554   4.638  1.1996  0.8510  1.9291
   70CHL1   C27 6357   1.385   2.475   4.808 -0.8835  0.1925 -0.3694
   70CHL1  H27A 6358   1.303   2.401   4.814 -1.3024  0.7601  1.7570
   70CHL1  H27B 6359   1.423   2.491   4.911 -0.6155 -1.6208 -0.1503
   70CHL1  H27C 6360   1.353   2.580   4.786  2.1245  1.1591 -0.5741
   71CHL1    C3 6361   0.541   1.368   3.187  0.0783 -0.3206 -0.2499
   71CHL1    H3 6362   0.518   1.265   3.222  0.1488  0.3409  1.8737
   71CHL1    O3 6363   0.566   1.363   3.046  0.2350  0.4108  0.4673
   71CHL1   H3' 6364   0.506   1.431   3.014  0.5117  0.7454  0.6508
   71CHL1    C4 6365   0.416   1.455   3.211  0.3874 -0.4174  0.5529
   71CHL1   H4A 6366   0.432   1.555   3.167 -0.1630 -0.8181 -0.6125
   71CHL1   H4B 6367   0.333   1.404   3.158  1.7266 -0.6060 -1.4574
   71CHL1    C5 6368   0.397   1.456   3.361 -0.0967  0.7705  0.4586
   71CHL1    C6 6369   0.281   1.404   3.416  0.3449 -0.2580  0.0986
   71CHL1    H6 6370   0.199   1.370   3.351 -0.4165  1.5598  0.0507
   71CHL1    C7 6371   0.253   1.397   3.566 -0.7320 -0.7686 -0.4655
   71CHL1   H7A 6372   0.149   1.431   3.586 -0.0393  2.3040 -1.5958
   71CHL1   H7B 6373   0.263   1.297   3.615 -0.3136 -1.2861 -1.5686
   71CHL1    C8 6374   0.350   1.499   3.643  0.5524  0.1288  0.4620
   71CHL1    H8 6375   0.302   1.598   3.630 -1.1015 -0.6571  0.2091
   71CHL1   C14 6376   0.332   1.471   3.794  0.0153 -0.2731 -0.2120
   71CHL1   H14 6377   0.358   1.364   3.808  0.8033 -0.2506 -1.3887
   71CHL1   C15 6378   0.189   1.481   3.849 -0.2685 -0.1385  0.2474
   71CHL1  H15A 6379   0.144   1.575   3.811  1.3298 -0.2113 -2.0859
   71CHL1  H15B 6380   0.124   1.395   3.824  0.3612 -0.6619  0.3862
   71CHL1   C16 6381   0.206   1.488   4.003  0.0929  0.1588 -0.0535
   71CHL1  H16A 6382   0.150   1.577   4.039  0.3239  0.0804  0.5177
   71CHL1  H16B 6383   0.164   1.394   4.046  1.2067 -0.5885 -0.5682
   71CHL1   C17 6384   0.367   1.493   4.025 -0.2724 -0.5480  0.0149
   71CHL1   H17 6385   0.403   1.388   4.026  1.9387  0.1312 -1.3338
   71CHL1   C13 6386   0.415   1.560   3.890  0.0518  0.0303 -0.0834
   71CHL1   C18 6387   0.368   1.713   3.883 -0.4973  0.1877  0.0900
   71CHL1  H18A 6388   0.266   1.731   3.923 -1.4340  0.1054 -2.1179
   71CHL1  H18B 6389   0.436   1.770   3.949 -0.1286 -0.2106  0.0646
   71CHL1  H18C 6390   0.365   1.750   3.779  0.8144  1.5207  0.4993
   71CHL1   C12 6391   0.565   1.546   3.849  0.1230 -0.0315  0.7178
   71CHL1  H12A 6392   0.618   1.624   3.908  1.6587  0.7939 -1.6445
   71CHL1  H12B 6393   0.600   1.446   3.880 -0.4627 -0.1358  1.0664
   71CHL1   C11 6394   0.586   1.571   3.697  0.7959 -0.7524  0.1195
   71CHL1  H11A 6395   0.565   1.680   3.695 -0.7356 -0.9409  2.1681
   71CHL1  H11B 6396   0.692   1.552   3.669  1.1376 -1.8629  1.9587
   71CHL1    C9 6397   0.496   1.488   3.601  0.4865  1.1819 -0.6343
   71CHL1    H9 6398   0.521   1.382   3.625 -0.6995  0.7051 -1.4045
   71CHL1   C10 6399   0.514   1.503   3.447  0.3244  0.7793 -0.7887
   71CHL1   C19 6400   0.536   1.651   3.427  0.8758  0.0769  0.2750
   71CHL1  H19A 6401   0.465   1.721   3.477  0.4596  1.2212 -1.8095
   71CHL1  H19B 6402   0.630   1.672   3.484  0.7955 -0.2417  0.5294
   71CHL1  H19C 6403   0.548   1.687   3.323 -0.6985 -0.1036  0.0145
   71CHL1    C1 6404   0.651   1.431   3.406 -0.4551 -0.5209  0.9908
   71CHL1   H1A 6405   0.732   1.488   3.457  0.6734 -0.8000 -0.4334
   71CHL1   H1B 6406   0.644   1.326   3.440 -0.3224 -1.4674 -1.6545
   71CHL1    C2 6407   0.668   1.422   3.256 -0.4668 -0.6734  0.6096
   71CHL1   H2A 6408   0.748   1.351   3.226 -0.2580  0.3936 -1.6222
   71CHL1   H2B 6409   0.694   1.522   3.214 -0.0747 -0.5938  1.0345
   71CHL1   C20 6410   0.398   1.560   4.164  0.3156 -0.9319 -0.3050
   71CHL1   H20 6411   0.369   1.666   4.155  0.1892 -0.9830 -0.5109
   71CHL1   C21 6412   0.552   1.555   4.188 -0.7121  0.1743 -1.0009
   71CHL1  H21A 6413   0.567   1.602   4.287 -0.1103  1.1224 -1.5245
   71CHL1  H21B 6414   0.610   1.618   4.117 -0.3343  2.1657  0.9778
   71CHL1  H21C 6415   0.580   1.448   4.192 -1.0335  0.1117 -0.2361
   71CHL1   C22 6416   0.321   1.509   4.291 -0.3853 -0.1683  0.4218
   71CHL1  H22A 6417   0.215   1.481   4.270 -0.6399  0.3335  0.9963
   71CHL1  H22B 6418   0.379   1.424   4.333  0.6445  0.9540  1.3372
   71CHL1   C23 6419   0.313   1.607   4.412 -0.3519  0.4557  0.2280
   71CHL1  H23A 6420   0.419   1.640   4.422  0.2752 -1.5313  0.6013
   71CHL1  H23B 6421   0.250   1.695   4.385 -1.6154 -0.2256  0.8929
   71CHL1   C24 6422   0.253   1.548   4.537  0.2628  1.0026  0.1242
   71CHL1  H24A 6423   0.251   1.621   4.620  0.8880 -1.0353  2.0186
   71CHL1  H24B 6424   0.150   1.520   4.506  0.8260  1.2147 -2.1465
   71CHL1   C25 6425   0.342   1.433   4.595 -0.1758 -0.3198  0.0958
   71CHL1   H25 6426   0.337   1.349   4.523  1.6040 -0.1420 -0.2738
   71CHL1   C26 6427   0.489   1.465   4.623 -0.0924  0.3307 -0.9279
   71CHL1  H26A 6428   0.517   1.541   4.699  0.9508 -3.1800  2.5644
   71CHL1  H26B 6429   0.537   1.367   4.646  0.3230  0.9723  1.1581
   71CHL1  H26C 6430   0.525   1.494   4.522  0.8141 -0.8669 -0.9756
   71CHL1   C27 6431   0.281   1.385   4.727 -0.4406  0.4105  0.2295
   71CHL1  H27A 6432   0.347   1.302   4.760  0.0625 -0.8971 -3.5852
   71CHL1  H27B 6433   0.285   1.464   4.805 -1.1204  1.8491 -1.1194
   71CHL1  H27C 6434   0.180   1.344   4.705  0.9207 -2.6562 -0.8250
   72CHL1    C3 6435   6.522   3.843   3.744  0.0065  0.8333  0.7814
   72CHL1    H3 6436   6.428   3.783   3.742 -1.0558  2.4694 -0.6323
   72CHL1    O3 6437   6.537   3.921   3.625 -0.1911 -0.1161 -0.1013
   72CHL1   H3' 6438   6.621   3.964   3.643  0.8427 -2.1478  0.2365
   72CHL1    C4 6439   6.532   3.940   3.865 -0.6186  0.2287  1.0939
   72CHL1   H4A 6440   6.627   3.993   3.843 -1.1448  0.2724 -1.3804
   72CHL1   H4B 6441   6.452   4.018   3.861 -0.8668 -0.0569 -1.3620
   72CHL1    C5 6442   6.553   3.869   3.995 -0.3071  0.1988  0.1470
   72CHL1    C6 6443   6.487   3.891   4.105  0.0208  0.1237 -0.5677
   72CHL1    H6 6444   6.417   3.975   4.095 -0.1353  0.2829  1.5750
   72CHL1    C7 6445   6.498   3.826   4.242  1.0589  0.1829 -0.5851
   72CHL1   H7A 6446   6.504   3.903   4.322 -0.1260  1.5287 -1.7305
   72CHL1   H7B 6447   6.413   3.755   4.249  1.7939 -0.5743  1.7265
   72CHL1    C8 6448   6.633   3.749   4.253  0.0118 -0.1338 -0.1464
   72CHL1    H8 6449   6.714   3.824   4.266  1.1745 -1.5802  1.3052
   72CHL1   C14 6450   6.625   3.656   4.373  0.1371  0.1638  0.7869
   72CHL1   H14 6451   6.542   3.585   4.353 -0.8788  1.3765  0.5756
   72CHL1   C15 6452   6.587   3.722   4.511 -0.2525 -0.0984  0.3512
   72CHL1  H15A 6453   6.656   3.802   4.544  0.6285 -0.2845 -0.9356
   72CHL1  H15B 6454   6.481   3.756   4.512  0.1344  1.1509  0.6559
   72CHL1   C16 6455   6.602   3.601   4.606  0.1670 -0.0861  0.3230
   72CHL1  H16A 6456   6.660   3.629   4.696  0.8732 -2.1848  0.5749
   72CHL1  H16B 6457   6.511   3.549   4.642 -1.2710  1.2563 -1.2476
   72CHL1   C17 6458   6.689   3.492   4.519  0.0934 -0.6066  0.8519
   72CHL1   H17 6459   6.610   3.426   4.478 -1.3015  1.2366  0.4163
   72CHL1   C13 6460   6.743   3.567   4.394 -0.6907 -0.2191  0.5622
   72CHL1   C18 6461   6.872   3.636   4.442 -0.3938 -0.5297 -0.1101
   72CHL1  H18A 6462   6.903   3.716   4.372  2.4815 -2.5025 -1.3270
   72CHL1  H18B 6463   6.852   3.687   4.539  0.3106 -1.1136  0.3635
   72CHL1  H18C 6464   6.956   3.564   4.456  0.0204 -0.4839 -2.1178
   72CHL1   C12 6465   6.762   3.484   4.262 -0.5394 -0.7258  0.2273
   72CHL1  H12A 6466   6.853   3.420   4.267 -0.2151 -0.2771  0.0896
   72CHL1  H12B 6467   6.675   3.416   4.248  0.6821 -2.4891  0.8065
   72CHL1   C11 6468   6.780   3.578   4.142  0.0996  0.1931 -0.3435
   72CHL1  H11A 6469   6.878   3.628   4.159  0.6086 -0.7206 -0.5311
   72CHL1  H11B 6470   6.781   3.518   4.049 -0.1353  2.1416 -1.6559
   72CHL1    C9 6471   6.653   3.665   4.128 -0.2382 -0.1599 -0.3263
   72CHL1    H9 6472   6.569   3.593   4.122  0.9798 -1.5790 -1.1722
   72CHL1   C10 6473   6.656   3.751   3.998  0.2457 -0.2222  0.3034
   72CHL1   C19 6474   6.800   3.810   3.983 -0.2573  0.3293 -0.3564
   72CHL1  H19A 6475   6.806   3.900   3.917 -0.7334 -1.3432 -2.8323
   72CHL1  H19B 6476   6.830   3.845   4.084  0.5136 -2.0385  0.2943
   72CHL1  H19C 6477   6.868   3.727   3.954  0.6490  0.3908  1.4907
   72CHL1    C1 6478   6.625   3.661   3.879  0.0189  0.4335  0.9875
   72CHL1   H1A 6479   6.690   3.571   3.875  0.9305  1.1278 -0.5492
   72CHL1   H1B 6480   6.525   3.617   3.901 -0.4669  0.8280 -0.3442
   72CHL1    C2 6481   6.635   3.735   3.747  0.4006 -0.1795 -0.8056
   72CHL1   H2A 6482   6.624   3.666   3.660 -0.3222 -1.1921  0.0587
   72CHL1   H2B 6483   6.729   3.793   3.739  0.2614  0.4953  1.6333
   72CHL1   C20 6484   6.791   3.404   4.602 -0.3184  0.7201  0.3857
   72CHL1   H20 6485   6.862   3.471   4.656 -1.1472  1.3467  0.7245
   72CHL1   C21 6486   6.862   3.298   4.507  0.4576 -0.3230  0.4042
   72CHL1  H21A 6487   6.793   3.254   4.432 -0.8193 -1.2159  2.0315
   72CHL1  H21B 6488   6.906   3.214   4.564 -1.3474 -2.6924 -1.4910
   72CHL1  H21C 6489   6.935   3.351   4.442 -0.2690  1.3883  0.9024
   72CHL1   C22 6490   6.720   3.316   4.709 -0.9379  0.2901  0.5576
   72CHL1  H22A 6491   6.634   3.375   4.748  1.0005  1.5222  3.3732
   72CHL1  H22B 6492   6.685   3.217   4.674  1.0184 -1.1797  2.4515
   72CHL1   C23 6493   6.814   3.278   4.827  0.2141  0.7205 -0.7333
   72CHL1  H23A 6494   6.900   3.217   4.790 -0.5892 -0.8406 -0.1400
   72CHL1  H23B 6495   6.864   3.368   4.870  1.5317 -1.2893  2.3099
   72CHL1   C24 6496   6.741   3.211   4.939 -0.7718 -0.2799  0.5726
   72CHL1  H24A 6497   6.690   3.290   4.998  0.3480 -0.3641  1.7098
   72CHL1  H24B 6498   6.671   3.135   4.899 -1.4880  0.2151  0.8772
   72CHL1   C25 6499   6.841   3.132   5.037 -0.4236  0.1118  0.0139
   72CHL1   H25 6500   6.897   3.062   4.970 -0.3581 -0.4143  0.6161
   72CHL1   C26 6501   6.951   3.219   5.092 -0.6626 -0.1779  0.2815
   72CHL1  H26A 6502   7.009   3.280   5.020 -0.7330  0.2742  0.6037
   72CHL1  H26B 6503   6.902   3.282   5.169  1.2969 -0.2085  1.6311
   72CHL1  H26C 6504   7.029   3.161   5.146  0.4097  3.6974  3.3374
   72CHL1   C27 6505   6.768   3.062   5.150 -0.6742 -0.4542  0.2039
   72CHL1  H27A 6506   6.711   3.136   5.210 -2.6309 -1.7360  0.0384
   72CHL1  H27B 6507   6.702   2.979   5.118 -0.7086 -0.4681  0.3137
   72CHL1  H27C 6508   6.840   3.025   5.226 -0.2209  1.5996  0.8364
   73CHL1    C3 6509   2.025   1.032   3.552 -0.0085  0.1107 -0.0466
   73CHL1    H3 6510   2.127   0.988   3.556  0.6101  1.5128  0.6046
   73CHL1    O3 6511   2.008   1.105   3.426 -0.2958 -0.0256 -0.4915
   73CHL1   H3' 6512   1.917   1.135   3.426 -0.4171 -0.3534  0.3590
   73CHL1    C4 6513   1.928   0.911   3.564  0.9406  0.3935  0.4670
   73CHL1   H4A 6514   1.831   0.954   3.530  1.0798 -1.0854 -2.0350
   73CHL1   H4B 6515   1.959   0.843   3.482  0.1489 -0.4744  0.8564
   73CHL1    C5 6516   1.916   0.846   3.701  0.1829  0.1265 -0.2361
   73CHL1    C6 6517   1.928   0.709   3.716  0.0900 -0.6842  0.5998
   73CHL1    H6 6518   1.941   0.657   3.620  0.8583  1.7069 -0.6790
   73CHL1    C7 6519   1.893   0.643   3.848  0.0260  0.1152 -0.3058
   73CHL1   H7A 6520   1.817   0.563   3.836 -0.8510  0.8723  0.0484
   73CHL1   H7B 6521   1.981   0.602   3.903 -1.4595  1.5431  3.4638
   73CHL1    C8 6522   1.839   0.753   3.953 -0.8115  0.7744  0.2573
   73CHL1    H8 6523   1.734   0.757   3.916 -0.2302 -4.3257 -2.8486
   73CHL1   C14 6524   1.839   0.694   4.093  1.0999 -0.3022 -0.6101
   73CHL1   H14 6525   1.947   0.678   4.116  1.1990  0.5800 -0.4550
   73CHL1   C15 6526   1.781   0.554   4.109 -0.0036 -0.4242  0.3211
   73CHL1  H15A 6527   1.687   0.535   4.052  0.1948 -2.3026  0.5754
   73CHL1  H15B 6528   1.862   0.490   4.069 -0.4623 -0.9856  0.2830
   73CHL1   C16 6529   1.778   0.538   4.265 -0.0427  0.3341  0.1217
   73CHL1  H16A 6530   1.678   0.506   4.300 -1.0606 -0.3178 -3.0553
   73CHL1  H16B 6531   1.855   0.461   4.285 -0.3195 -0.0395 -0.2425
   73CHL1   C17 6532   1.817   0.678   4.327 -0.0286 -0.1266  0.4862
   73CHL1   H17 6533   1.926   0.675   4.350  0.1969 -1.8196 -0.5915
   73CHL1   C13 6534   1.794   0.777   4.208 -0.5367  0.2199  0.2008
   73CHL1   C18 6535   1.645   0.815   4.203  0.6053 -0.3981  0.4027
   73CHL1  H18A 6536   1.622   0.849   4.100 -0.7823 -0.1351  0.7712
   73CHL1  H18B 6537   1.577   0.728   4.221  0.5896 -0.3554  0.5512
   73CHL1  H18C 6538   1.618   0.898   4.272 -0.5021 -0.7592  0.4328
   73CHL1   C12 6539   1.887   0.900   4.210 -0.9738 -0.1613 -0.0197
   73CHL1  H12A 6540   1.871   0.960   4.302 -0.0714 -2.7760  1.9332
   73CHL1  H12B 6541   1.992   0.871   4.228 -0.7928  0.4085 -0.1306
   73CHL1   C11 6542   1.880   0.976   4.077  0.0005  0.0002  0.7955
   73CHL1  H11A 6543   1.778   1.020   4.068 -0.3718 -0.4516  2.4741
   73CHL1  H11B 6544   1.949   1.063   4.085 -1.4702  1.5240 -1.7548
   73CHL1    C9 6545   1.924   0.884   3.957  0.3394 -0.4364  0.5883
   73CHL1    H9 6546   2.028   0.848   3.968  0.9429  0.1649 -2.2400
   73CHL1   C10 6547   1.909   0.947   3.816 -0.0650  0.1075  0.5422
   73CHL1   C19 6548   1.774   1.019   3.806 -0.3995 -0.1411  0.1827
   73CHL1  H19A 6549   1.691   0.967   3.858 -2.0020  0.0957 -2.0010
   73CHL1  H19B 6550   1.786   1.112   3.866  0.0170  1.1600 -1.8393
   73CHL1  H19C 6551   1.739   1.037   3.702 -1.8834 -0.2380  0.6507
   73CHL1    C1 6552   2.022   1.053   3.796  0.4915  0.2022 -0.6305
   73CHL1   H1A 6553   2.016   1.127   3.878  0.3356 -0.9320  0.4182
   73CHL1   H1B 6554   2.123   1.009   3.810  0.6452  1.2141  1.8804
   73CHL1    C2 6555   2.023   1.133   3.664 -0.3618 -0.9557  0.5089
   73CHL1   H2A 6556   2.105   1.206   3.646 -0.9640  0.0413  1.6513
   73CHL1   H2B 6557   1.936   1.201   3.652  0.5256 -0.1740 -2.3742
   73CHL1   C20 6558   1.758   0.716   4.465 -0.2367 -0.0736  0.6778
   73CHL1   H20 6559   1.653   0.752   4.454  0.5154  1.7592 -1.2399
   73CHL1   C21 6560   1.827   0.843   4.519 -0.4482  0.0919 -0.0157
   73CHL1  H21A 6561   1.818   0.855   4.630 -0.7874 -1.0234  0.0930
   73CHL1  H21B 6562   1.784   0.934   4.471 -0.6374 -1.2998 -2.6307
   73CHL1  H21C 6563   1.938   0.848   4.513 -0.0041 -5.6248 -3.5700
   73CHL1   C22 6564   1.771   0.598   4.563 -0.1935 -0.2413  0.4484
   73CHL1  H22A 6565   1.724   0.632   4.658 -0.2121 -0.1805  0.4178
   73CHL1  H22B 6566   1.706   0.514   4.529  0.6254 -0.5018 -0.5408
   73CHL1   C23 6567   1.915   0.539   4.595  0.1650  0.5072  0.8799
   73CHL1  H23A 6568   1.964   0.515   4.498 -1.6385 -0.1363  0.0887
   73CHL1  H23B 6569   1.973   0.620   4.643  0.6718 -0.4682  1.9435
   73CHL1   C24 6570   1.901   0.409   4.680  0.6730  0.2762 -0.4405
   73CHL1  H24A 6571   1.799   0.368   4.660  1.4263 -0.4093 -3.2717
   73CHL1  H24B 6572   1.983   0.344   4.645 -0.2850 -0.4878 -1.3208
   73CHL1   C25 6573   1.921   0.433   4.833  0.3920 -0.9518  0.0827
   73CHL1   H25 6574   1.852   0.515   4.860  1.2578  0.7700 -2.5005
   73CHL1   C26 6575   1.895   0.310   4.919  0.2329 -0.0237  0.1467
   73CHL1  H26A 6576   1.882   0.338   5.026  0.7860  1.9321 -0.2555
   73CHL1  H26B 6577   1.799   0.267   4.884  0.9205 -0.0466 -1.8229
   73CHL1  H26C 6578   1.973   0.232   4.908  0.2004 -0.0651  0.2087
   73CHL1   C27 6579   2.065   0.477   4.865 -0.4611 -0.2115  0.4346
   73CHL1  H27A 6580   2.065   0.545   4.952 -0.1236 -0.7031  0.8207
   73CHL1  H27B 6581   2.132   0.390   4.876  1.1271  0.5519 -2.2491
   73CHL1  H27C 6582   2.104   0.542   4.783  0.3421 -0.3582  0.6994
   74CHL1    C3 6583   0.586   0.462   3.515 -0.2848 -0.0761  0.1738
   74CHL1    H3 6584   0.643   0.376   3.555 -0.1150 -0.0836 -0.0788
   74CHL1    O3 6585   0.624   0.466   3.380  0.7563  0.5403 -0.6398
   74CHL1   H3' 6586   0.566   0.535   3.347 -1.7322  0.3473  2.7346
   74CHL1    C4 6587   0.434   0.449   3.518  0.0769  0.0222  0.8301
   74CHL1   H4A 6588   0.393   0.534   3.459  3.8445  0.5419 -1.3566
   74CHL1   H4B 6589   0.400   0.364   3.456 -0.1472  0.4108  0.4163
   74CHL1    C5 6590   0.372   0.459   3.654  0.0868 -0.0862 -0.4815
   74CHL1    C6 6591   0.284   0.366   3.695  0.1560 -0.0130 -0.1865
   74CHL1    H6 6592   0.248   0.297   3.617  3.0604 -1.1374 -0.6931
   74CHL1    C7 6593   0.220   0.370   3.828 -0.4298 -0.0973 -0.2932
   74CHL1   H7A 6594   0.111   0.354   3.812 -0.8018  0.1841  1.7531
   74CHL1   H7B 6595   0.257   0.285   3.889  1.1657  0.1010 -0.9210
   74CHL1    C8 6596   0.238   0.498   3.904 -1.1845 -0.1019 -0.0223
   74CHL1    H8 6597   0.163   0.574   3.872 -1.1961 -0.5077 -0.9565
   74CHL1   C14 6598   0.215   0.470   4.053  0.5700  0.0233 -0.5244
   74CHL1   H14 6599   0.295   0.399   4.081 -0.4809 -1.7877 -1.9285
   74CHL1   C15 6600   0.079   0.419   4.095  0.3699  0.3176  0.4158
   74CHL1  H15A 6601  -0.009   0.470   4.051  1.1828  1.1371 -0.2908
   74CHL1  H15B 6602   0.080   0.313   4.062  2.7825  0.4624 -0.1280
   74CHL1   C16 6603   0.073   0.434   4.247 -0.2484 -0.0323  0.3954
   74CHL1  H16A 6604  -0.032   0.463   4.266 -0.0798  1.6507 -0.9704
   74CHL1  H16B 6605   0.097   0.330   4.279  0.2028 -0.7741 -2.0668
   74CHL1   C17 6606   0.189   0.535   4.274  0.0949 -0.4189  0.4614
   74CHL1   H17 6607   0.280   0.478   4.302  1.0077  1.3814  1.3074
   74CHL1   C13 6608   0.222   0.596   4.141 -0.0721 -0.3442 -0.1603
   74CHL1   C18 6609   0.117   0.704   4.107 -0.3737 -0.1528 -0.7900
   74CHL1  H18A 6610   0.135   0.799   4.161 -0.5601  0.8939 -2.5054
   74CHL1  H18B 6611   0.118   0.734   4.001  1.9792 -1.4060 -1.2080
   74CHL1  H18C 6612   0.018   0.663   4.134  0.2238 -0.3232  1.3681
   74CHL1   C12 6613   0.369   0.647   4.126 -0.1212  0.2410 -0.3898
   74CHL1  H12A 6614   0.395   0.738   4.183  0.6543 -0.4257  0.3556
   74CHL1  H12B 6615   0.422   0.557   4.164 -0.1994  0.6042  0.6059
   74CHL1   C11 6616   0.405   0.677   3.975 -0.4087  0.0739  0.0651
   74CHL1  H11A 6617   0.329   0.751   3.942 -2.6645 -2.3481 -0.5157
   74CHL1  H11B 6618   0.510   0.708   3.958 -0.2991  0.4589  1.3660
   74CHL1    C9 6619   0.376   0.554   3.885 -0.4037 -0.7047 -0.3369
   74CHL1    H9 6620   0.443   0.474   3.922  0.3348 -0.6576 -1.5011
   74CHL1   C10 6621   0.422   0.577   3.734 -0.4324  0.4051 -0.5882
   74CHL1   C19 6622   0.344   0.702   3.687  0.3187 -0.2833  0.2461
   74CHL1  H19A 6623   0.357   0.706   3.577  0.3681  1.8727  0.2789
   74CHL1  H19B 6624   0.235   0.698   3.704  0.1986  0.8266 -0.1674
   74CHL1  H19C 6625   0.389   0.793   3.734  0.8794 -0.8546  0.8397
   74CHL1    C1 6626   0.578   0.601   3.726  0.1783 -0.3180 -0.1952
   74CHL1   H1A 6627   0.620   0.693   3.771  0.7222 -0.7456  0.1747
   74CHL1   H1B 6628   0.621   0.511   3.774 -1.3486 -0.8083  0.3280
   74CHL1    C2 6629   0.623   0.592   3.584  0.1056 -0.7933  0.5508
   74CHL1   H2A 6630   0.734   0.599   3.572 -0.0929 -0.3857 -1.5795
   74CHL1   H2B 6631   0.578   0.675   3.525  1.3161  0.5296  1.4010
   74CHL1   C20 6632   0.158   0.623   4.397 -0.2345  0.0491  0.0906
   74CHL1   H20 6633   0.073   0.690   4.373  0.8960  1.2109 -0.8590
   74CHL1   C21 6634   0.270   0.725   4.427  0.5356  0.1267 -0.2218
   74CHL1  H21A 6635   0.261   0.817   4.366  0.7371  1.5245  1.7556
   74CHL1  H21B 6636   0.373   0.687   4.409 -0.2808 -1.6337 -1.5691
   74CHL1  H21C 6637   0.273   0.749   4.535  2.0481 -4.1218  0.8727
   74CHL1   C22 6638   0.125   0.540   4.520  0.2020  0.3731 -1.0080
   74CHL1  H22A 6639   0.063   0.608   4.582  0.6746 -0.3272  0.2591
   74CHL1  H22B 6640   0.055   0.457   4.499 -0.1379  0.2604  0.4396
   74CHL1   C23 6641   0.241   0.475   4.602 -0.3353 -0.2491 -0.2808
   74CHL1  H23A 6642   0.308   0.426   4.528  1.3648  1.5140  0.0262
   74CHL1  H23B 6643   0.305   0.554   4.646  1.6780 -0.7951 -2.0700
   74CHL1   C24 6644   0.196   0.385   4.716  0.7944  0.1100 -0.6248
   74CHL1  H24A 6645   0.133   0.304   4.673  1.3719 -0.9870  0.5142
   74CHL1  H24B 6646   0.290   0.336   4.752  1.4014  1.3297 -0.5033
   74CHL1   C25 6647   0.125   0.470   4.829 -0.8468  0.7620 -0.1116
   74CHL1   H25 6648   0.023   0.497   4.796 -0.5191  0.8110 -1.0947
   74CHL1   C26 6649   0.110   0.377   4.954 -0.5152  0.3614  0.4174
   74CHL1  H26A 6650   0.056   0.284   4.928 -3.1225  0.8756  3.3985
   74CHL1  H26B 6651   0.210   0.353   4.998  0.2752 -0.7607 -1.8264
   74CHL1  H26C 6652   0.053   0.431   5.032  0.0282  0.4289  0.7782
   74CHL1   C27 6653   0.200   0.598   4.877  0.6181  0.2234 -0.4771
   74CHL1  H27A 6654   0.304   0.580   4.913  1.6275  1.5348 -2.5534
   74CHL1  H27B 6655   0.187   0.685   4.809 -1.4397 -0.1180 -0.5663
   74CHL1  H27C 6656   0.149   0.624   4.972  0.9892 -1.0976  0.0996
   75CHL1    C3 6657   0.616   0.006   3.570 -0.3847 -0.2792 -0.8816
   75CHL1    H3 6658   0.573  -0.095   3.554 -0.7936  0.0798 -2.1906
   75CHL1    O3 6659   0.660   0.070   3.452 -0.8261  0.0852  0.6432
   75CHL1   H3' 6660   0.738   0.125   3.460  0.3361 -1.2476 -0.6431
   75CHL1    C4 6661   0.496   0.083   3.614  0.8200 -0.4309  0.9771
   75CHL1   H4A 6662   0.516   0.192   3.619 -2.1524  0.3192 -0.6999
   75CHL1   H4B 6663   0.423   0.078   3.530  1.7805  1.4186 -0.0255
   75CHL1    C5 6664   0.444   0.036   3.751  0.1426  0.0199  1.0041
   75CHL1    C6 6665   0.316  -0.003   3.764 -0.3299 -0.2822  0.2176
   75CHL1    H6 6666   0.239   0.004   3.686 -1.2009  0.0108  1.0749
   75CHL1    C7 6667   0.259  -0.048   3.891  0.2012 -0.3443  0.0333
   75CHL1   H7A 6668   0.157  -0.006   3.906  0.2539 -0.4696  0.7378
   75CHL1   H7B 6669   0.258  -0.159   3.890  0.5666 -0.3487 -0.2901
   75CHL1    C8 6670   0.336  -0.008   4.013  0.1034  0.1184 -0.5044
   75CHL1    H8 6671   0.321   0.100   4.031  1.7873  0.1388  1.0439
   75CHL1   C14 6672   0.288  -0.084   4.130 -0.4758  0.0085  0.8324
   75CHL1   H14 6673   0.309  -0.190   4.106 -1.1178 -0.4244  2.1202
   75CHL1   C15 6674   0.137  -0.081   4.150  0.2667 -0.5448  0.3295
   75CHL1  H15A 6675   0.089   0.019   4.140  1.2674 -0.1737 -1.0412
   75CHL1  H15B 6676   0.089  -0.135   4.065 -0.3095  3.6933 -2.3631
   75CHL1   C16 6677   0.118  -0.124   4.290 -0.3144  0.3336  0.1510
   75CHL1  H16A 6678   0.067  -0.051   4.356 -0.3197  0.2114  0.2825
   75CHL1  H16B 6679   0.077  -0.226   4.298 -0.0340  0.1884 -0.1909
   75CHL1   C17 6680   0.266  -0.135   4.350  0.0154  1.2632 -0.6395
   75CHL1   H17 6681   0.306  -0.236   4.330 -0.5299  1.2586 -1.7724
   75CHL1   C13 6682   0.352  -0.053   4.257 -0.7565  0.5832  0.2635
   75CHL1   C18 6683   0.341   0.096   4.299 -0.4434  0.2928  0.8103
   75CHL1  H18A 6684   0.420   0.160   4.256  0.3711 -0.7624  0.7077
   75CHL1  H18B 6685   0.241   0.145   4.295 -0.2231  0.9459  2.3192
   75CHL1  H18C 6686   0.365   0.096   4.408  1.8386 -2.1486  0.3818
   75CHL1   C12 6687   0.500  -0.089   4.251 -0.1810 -0.3452  0.1285
   75CHL1  H12A 6688   0.558  -0.067   4.343  0.4770  1.6054 -0.6963
   75CHL1  H12B 6689   0.510  -0.198   4.233  1.2641 -0.6297  2.3042
   75CHL1   C11 6690   0.568  -0.019   4.129 -0.8378  0.2716  0.3683
   75CHL1  H11A 6691   0.591   0.088   4.149  2.9111 -0.2650 -0.3550
   75CHL1  H11B 6692   0.662  -0.067   4.096 -0.0587  1.5490  0.6808
   75CHL1    C9 6693   0.483  -0.042   3.994  0.1046  0.0960 -0.6021
   75CHL1    H9 6694   0.481  -0.152   3.985  2.5325 -0.2811  2.0407
   75CHL1   C10 6695   0.539   0.022   3.865  0.2494  0.0860 -0.1282
   75CHL1   C19 6696   0.582   0.164   3.911 -0.3992 -0.0426  0.4425
   75CHL1  H19A 6697   0.669   0.165   3.980  0.3138  0.1103 -0.4413
   75CHL1  H19B 6698   0.620   0.222   3.824  0.5961 -3.0726 -1.2727
   75CHL1  H19C 6699   0.497   0.221   3.955 -1.6455 -0.2269 -1.6091
   75CHL1    C1 6700   0.661  -0.056   3.815 -0.4103 -0.3196  0.3760
   75CHL1   H1A 6701   0.731  -0.040   3.900 -0.4460  1.7361  0.0787
   75CHL1   H1B 6702   0.617  -0.158   3.814  0.0045 -0.5746  2.5769
   75CHL1    C2 6703   0.718  -0.008   3.682 -0.2298  0.1695 -0.6814
   75CHL1   H2A 6704   0.792  -0.078   3.637 -0.7975  0.5018 -2.1684
   75CHL1   H2B 6705   0.777   0.083   3.704  3.0391 -1.4644 -2.0435
   75CHL1   C20 6706   0.265  -0.120   4.503 -0.0957  0.3470 -0.3856
   75CHL1   H20 6707   0.257  -0.011   4.523 -1.0951  0.4159 -1.0938
   75CHL1   C21 6708   0.398  -0.160   4.569  0.3247  0.2979 -0.2298
   75CHL1  H21A 6709   0.480  -0.103   4.519  0.9457  0.3505  0.8294
   75CHL1  H21B 6710   0.420  -0.268   4.560 -1.3088  0.0955 -2.6107
   75CHL1  H21C 6711   0.398  -0.134   4.677  0.9788  0.5905 -0.2946
   75CHL1   C22 6712   0.147  -0.183   4.577 -0.4542 -0.3087  0.4282
   75CHL1  H22A 6713   0.169  -0.162   4.684  0.1881  2.1076 -0.0999
   75CHL1  H22B 6714   0.052  -0.127   4.565  1.0288  2.0680 -1.0651
   75CHL1   C23 6715   0.142  -0.331   4.554 -0.0438  0.8676 -0.1595
   75CHL1  H23A 6716   0.109  -0.350   4.450  0.3734  1.2489 -0.3624
   75CHL1  H23B 6717   0.242  -0.377   4.571  0.3136  1.7119  0.1069
   75CHL1   C24 6718   0.039  -0.393   4.656 -0.5101  0.0951  0.0821
   75CHL1  H24A 6719   0.081  -0.363   4.754 -1.1302 -1.6293  0.9241
   75CHL1  H24B 6720  -0.068  -0.370   4.637 -0.9221 -0.3918  1.6297
   75CHL1   C25 6721   0.051  -0.542   4.681 -0.4941  0.7081 -0.2249
   75CHL1   H25 6722   0.160  -0.555   4.692 -0.4488  1.8642  1.0289
   75CHL1   C26 6723  -0.012  -0.595   4.815 -0.1117 -0.0588 -0.3145
   75CHL1  H26A 6724  -0.123  -0.592   4.820 -0.2124 -1.1111 -1.3163
   75CHL1  H26B 6725   0.018  -0.701   4.831  1.0711  0.4763  1.2633
   75CHL1  H26C 6726   0.038  -0.539   4.896  3.3368  1.3028 -3.1294
   75CHL1   C27 6727   0.005  -0.634   4.570 -0.6544 -0.8677 -0.7417
   75CHL1  H27A 6728   0.026  -0.738   4.601 -0.1380  0.0264  2.2777
   75CHL1  H27B 6729  -0.106  -0.620   4.572 -0.6629 -1.0081  0.2074
   75CHL1  H27C 6730   0.043  -0.614   4.468  1.4903 -1.0014 -0.0248
   76CHL1    C3 6731   5.386   5.666   3.643  0.5670  0.0074  1.3193
   76CHL1    H3 6732   5.450   5.583   3.607 -0.9710 -1.2034  1.2968
   76CHL1    O3 6733   5.364   5.746   3.529  0.0131  0.2610  0.3355
   76CHL1   H3' 6734   5.324   5.693   3.459 -2.0800  1.5027  0.5067
   76CHL1    C4 6735   5.258   5.613   3.700  0.4907 -0.2246 -0.5030
   76CHL1   H4A 6736   5.192   5.701   3.719 -0.0526 -0.3538 -1.6687
   76CHL1   H4B 6737   5.211   5.553   3.618 -0.9401 -1.7728  1.3632
   76CHL1    C5 6738   5.274   5.534   3.826  0.1523  0.4256  0.2171
   76CHL1    C6 6739   5.219   5.409   3.830  0.4384 -0.4096 -0.3819
   76CHL1    H6 6740   5.151   5.376   3.751 -1.0538 -1.4479  1.2585
   76CHL1    C7 6741   5.236   5.326   3.949 -0.1338 -0.1456 -0.2781
   76CHL1   H7A 6742   5.141   5.271   3.967 -2.2891  3.0281 -1.1354
   76CHL1   H7B 6743   5.309   5.246   3.926  0.6163  0.7340 -1.0404
   76CHL1    C8 6744   5.272   5.402   4.080  0.8798 -0.2045  0.8323
   76CHL1    H8 6745   5.189   5.464   4.119 -0.3659 -1.6025  0.5026
   76CHL1   C14 6746   5.321   5.301   4.174  0.3488 -0.2296  0.2713
   76CHL1   H14 6747   5.405   5.241   4.133  0.3967 -0.6422  0.9590
   76CHL1   C15 6748   5.211   5.201   4.215 -0.7098  0.8126 -0.4819
   76CHL1  H15A 6749   5.122   5.264   4.234 -0.8604  0.1682  1.0479
   76CHL1  H15B 6750   5.195   5.125   4.135  0.3016 -0.8757  0.8609
   76CHL1   C16 6751   5.255   5.144   4.345 -0.3300 -0.2073 -0.0505
   76CHL1  H16A 6752   5.173   5.150   4.420  0.1479  0.3475  0.4405
   76CHL1  H16B 6753   5.283   5.037   4.332 -0.9310 -0.3697 -0.0472
   76CHL1   C17 6754   5.381   5.229   4.383  0.7377 -0.5880  0.5928
   76CHL1   H17 6755   5.468   5.181   4.334  1.0577  0.3885  0.1637
   76CHL1   C13 6756   5.370   5.362   4.305  0.0514 -0.8525 -0.3072
   76CHL1   C18 6757   5.268   5.452   4.379  0.2704 -0.3793 -0.0549
   76CHL1  H18A 6758   5.232   5.535   4.315  1.5988  1.2694  1.2695
   76CHL1  H18B 6759   5.178   5.399   4.416  0.5791  0.5632  2.1909
   76CHL1  H18C 6760   5.329   5.500   4.458  0.0880 -2.7023  1.5950
   76CHL1   C12 6761   5.496   5.444   4.270  0.2206  0.0135 -1.3104
   76CHL1  H12A 6762   5.541   5.495   4.358 -0.0634  0.3166 -1.3405
   76CHL1  H12B 6763   5.582   5.386   4.230  2.8964  1.6040  1.7003
   76CHL1   C11 6764   5.462   5.553   4.163 -0.4348 -0.1630 -0.3917
   76CHL1  H11A 6765   5.382   5.621   4.197 -0.5132  0.3696 -1.5862
   76CHL1  H11B 6766   5.559   5.605   4.147 -0.2394 -0.5637 -0.5441
   76CHL1    C9 6767   5.398   5.484   4.041  1.1679  0.5176 -0.1817
   76CHL1    H9 6768   5.477   5.417   4.000  1.0192  0.8207 -0.9882
   76CHL1   C10 6769   5.361   5.590   3.935  0.1630 -0.3110 -0.0915
   76CHL1   C19 6770   5.271   5.706   3.996  0.1374  0.2671 -0.1178
   76CHL1  H19A 6771   5.185   5.661   4.051  0.2753  0.9647  0.6757
   76CHL1  H19B 6772   5.341   5.751   4.069  0.6296  0.9343 -0.9804
   76CHL1  H19C 6773   5.237   5.783   3.923 -1.0004 -0.6404 -0.5918
   76CHL1    C1 6774   5.492   5.649   3.870  0.0092 -0.6341  0.1261
   76CHL1   H1A 6775   5.552   5.702   3.947  1.4700  0.5747 -1.7778
   76CHL1   H1B 6776   5.547   5.559   3.835 -0.9429 -2.6196  3.2426
   76CHL1    C2 6777   5.464   5.742   3.751  0.4834 -0.2080 -0.6037
   76CHL1   H2A 6778   5.557   5.786   3.710  0.5668  0.6238  0.4236
   76CHL1   H2B 6779   5.397   5.827   3.778  1.4975  0.1524  0.8783
   76CHL1   C20 6780   5.406   5.233   4.536  0.7033  0.1162 -0.5098
   76CHL1   H20 6781   5.325   5.298   4.575  0.0248  0.5208 -2.4709
   76CHL1   C21 6782   5.537   5.304   4.576  0.1138  0.2699 -0.4915
   76CHL1  H21A 6783   5.565   5.293   4.683  0.2047 -1.0667 -0.6314
   76CHL1  H21B 6784   5.540   5.408   4.539 -1.1527  0.2449 -0.6907
   76CHL1  H21C 6785   5.613   5.255   4.511 -0.3786 -1.0689 -0.0995
   76CHL1   C22 6786   5.395   5.094   4.605  0.4935 -0.6245 -0.1223
   76CHL1  H22A 6787   5.433   5.113   4.708 -0.7998 -0.4231  0.3370
   76CHL1  H22B 6788   5.290   5.058   4.607  0.0373  0.3942 -2.2788
   76CHL1   C23 6789   5.497   4.979   4.555  0.7397 -0.1141 -0.5552
   76CHL1  H23A 6790   5.471   4.974   4.447  1.1825 -0.2148 -0.6590
   76CHL1  H23B 6791   5.600   5.017   4.572 -0.2564  2.4140  0.3962
   76CHL1   C24 6792   5.479   4.835   4.613  0.0718 -0.1157 -0.7900
   76CHL1  H24A 6793   5.372   4.807   4.604 -0.3260  1.1321 -0.1306
   76CHL1  H24B 6794   5.546   4.760   4.565  2.8557  1.3139  0.6331
   76CHL1   C25 6795   5.503   4.829   4.771  1.2287 -0.3148 -0.2271
   76CHL1   H25 6796   5.455   4.918   4.818 -0.4758 -1.0043 -0.5941
   76CHL1   C26 6797   5.439   4.704   4.827 -0.4790  0.1850 -0.9514
   76CHL1  H26A 6798   5.462   4.680   4.933  1.0290 -0.6103 -1.4299
   76CHL1  H26B 6799   5.330   4.714   4.813 -0.3935  3.0323 -0.2887
   76CHL1  H26C 6800   5.486   4.617   4.778  0.9379 -0.4857  1.4180
   76CHL1   C27 6801   5.647   4.831   4.803 -0.1057  0.4720 -0.3318
   76CHL1  H27A 6802   5.658   4.822   4.913 -0.0352  0.0364 -0.3737
   76CHL1  H27B 6803   5.705   4.746   4.762  1.3724  0.3063  1.9140
   76CHL1  H27C 6804   5.694   4.925   4.766  1.6937  0.4382  1.6761
   77SOPE     N 6805   5.084   4.184   7.603 -0.9160 -0.4038 -0.1541
   77SOPE   HN1 6806   5.135   4.102   7.564  0.8555  0.6195 -0.1033
   77SOPE   HN2 6807   5.063   4.168   7.704  1.1370 -0.9994  0.2264
   77SOPE   HN3 6808   4.994   4.209   7.559 -0.0121  2.6512 -0.4795
   77SOPE   C12 6809   5.178   4.305   7.600 -0.2785 -0.0978 -0.3929
   77SOPE  H12A 6810   5.169   4.354   7.501  1.4982  0.4993 -0.2883
   77SOPE  H12B 6811   5.284   4.276   7.613  0.3290  2.6113  1.6008
   77SOPE   C11 6812   5.144   4.403   7.712 -0.7541 -0.0258  0.3018
   77SOPE  H11A 6813   5.228   4.475   7.713 -0.3630 -0.4628 -0.4366
   77SOPE  H11B 6814   5.152   4.353   7.811 -1.3666  3.6416  2.4204
   77SOPE     P 6815   4.989   4.618   7.699 -0.0806  0.1031 -0.1211
   77SOPE   O13 6816   5.018   4.645   7.843 -0.1818 -0.3401 -0.8291
   77SOPE   O14 6817   4.856   4.663   7.643 -0.6538 -0.0989 -0.7597
   77SOPE   O12 6818   5.019   4.456   7.684  0.5684 -0.0125  0.5832
   77SOPE   O11 6819   5.110   4.682   7.605 -0.7079 -0.1396 -0.5600
   77SOPE    C1 6820   5.124   4.642   7.472  0.2066  0.4960 -0.3113
   77SOPE    HA 6821   5.072   4.545   7.458  0.1096  0.6614 -1.1344
   77SOPE    HB 6822   5.232   4.618   7.454 -0.4340 -2.5353 -0.7786
   77SOPE    C2 6823   5.076   4.750   7.378  0.2062  0.1756 -0.6520
   77SOPE    HS 6824   4.966   4.764   7.380 -0.0887 -1.8478 -0.8624
   77SOPE   O21 6825   5.107   4.712   7.244  0.2844  0.2808 -0.9130
   77SOPE   C21 6826   5.025   4.611   7.204 -0.2757 -0.1591 -0.1945
   77SOPE   O22 6827   4.926   4.571   7.264 -0.4841  0.1673 -0.5415
   77SOPE   C22 6828   5.054   4.593   7.057 -0.7318  0.7990  0.5838
   77SOPE   H2R 6829   5.011   4.495   7.027  0.0655 -0.2526  2.6668
   77SOPE   H2S 6830   5.164   4.592   7.042 -1.0167  2.9030 -2.6736
   77SOPE    C3 6831   5.138   4.882   7.416  1.0317 -0.2815 -0.8341
   77SOPE    HX 6832   5.249   4.870   7.414  0.9558 -0.9189 -1.6806
   77SOPE    HY 6833   5.114   4.916   7.519  0.5765 -2.6689 -0.1080
   77SOPE   O31 6834   5.101   4.994   7.325  0.6586 -0.0779 -0.8957
   77SOPE   C31 6835   5.149   5.110   7.366 -0.6472  0.2847  0.2970
   77SOPE   O32 6836   5.237   5.124   7.454  0.4813 -0.1590  0.3193
   77SOPE   C32 6837   5.082   5.221   7.285 -0.0508  0.3653  0.6421
   77SOPE   H2X 6838   4.985   5.250   7.332 -0.3908 -0.6950  0.6412
   77SOPE   H2Y 6839   5.055   5.168   7.191  0.1820 -2.3039  1.9763
   77SOPE   C23 6840   5.019   4.705   6.959  0.4763  0.4521 -0.2885
   77SOPE   H3R 6841   5.083   4.787   6.998 -0.4154  0.6001  0.9214
   77SOPE   H3S 6842   4.909   4.719   6.964  0.1432 -1.2730 -1.6249
   77SOPE   C24 6843   5.057   4.669   6.820 -0.3305  0.0384 -0.3135
   77SOPE   H4R 6844   5.019   4.568   6.794  0.0683 -0.4409  0.8586
   77SOPE   H4S 6845   5.006   4.742   6.754  1.2623  0.1361 -1.4835
   77SOPE   C25 6846   5.200   4.667   6.778  0.3418  0.4396  0.9636
   77SOPE   H5R 6847   5.259   4.761   6.786 -0.1085  0.9809 -1.5242
   77SOPE   H5S 6848   5.263   4.589   6.827 -0.1535 -0.1930  0.6114
   77SOPE   C26 6849   5.203   4.642   6.619 -0.5575 -0.0050 -0.0648
   77SOPE   H6R 6850   5.311   4.626   6.596 -0.2053  0.4526  1.1934
   77SOPE   H6S 6851   5.140   4.552   6.602 -2.2204  1.2335 -0.7039
   77SOPE   C27 6852   5.166   4.752   6.524 -0.5299 -0.7152  0.5938
   77SOPE   H7R 6853   5.055   4.766   6.527 -0.3155  1.2175  2.6337
   77SOPE   H7S 6854   5.216   4.845   6.559  0.2831 -0.3855 -1.3255
   77SOPE   C28 6855   5.198   4.715   6.375  0.5266 -0.4679  0.3337
   77SOPE   H8R 6856   5.154   4.613   6.365  0.5531 -0.4383 -0.1380
   77SOPE   H8S 6857   5.149   4.782   6.301 -1.1663 -2.9886 -0.9728
   77SOPE   C29 6858   5.344   4.710   6.342  1.1683 -0.4875 -0.4485
   77SOPE   H91 6859   5.412   4.726   6.426  0.1474  0.5069  0.2283
   77SOPE  C210 6860   5.389   4.664   6.225 -0.0232 -0.6322  0.2357
   77SOPE  H101 6861   5.498   4.662   6.209 -0.2553 -0.8468 -1.5865
   77SOPE  C211 6862   5.303   4.624   6.108  0.3849  0.0588 -0.0107
   77SOPE  H11R 6863   5.194   4.637   6.126 -0.2040 -2.1177 -1.5548
   77SOPE  H11S 6864   5.311   4.517   6.077 -0.3748  0.6444 -2.4196
   77SOPE  C212 6865   5.316   4.712   5.987 -0.0252  0.5582  0.3383
   77SOPE  H12R 6866   5.413   4.734   5.937 -1.7655  1.1083 -3.1097
   77SOPE  H12S 6867   5.285   4.814   6.016 -2.9510 -0.1575  0.0725
   77SOPE  C213 6868   5.245   4.653   5.860 -0.4158 -0.2879 -0.3837
   77SOPE  H13R 6869   5.138   4.649   5.887 -0.6993  2.9011 -0.6713
   77SOPE  H13S 6870   5.289   4.554   5.836 -1.0891 -0.3573 -1.3534
   77SOPE  C214 6871   5.240   4.754   5.741 -0.4266 -0.3930 -0.0519
   77SOPE  H14R 6872   5.343   4.781   5.708 -0.6664  0.8440  0.1534
   77SOPE  H14S 6873   5.195   4.849   5.776 -0.9923 -0.1351 -1.4296
   77SOPE  C215 6874   5.162   4.702   5.619 -1.1616 -0.6339 -0.1509
   77SOPE  H15R 6875   5.056   4.675   5.637 -0.6397 -1.5759  1.7644
   77SOPE  H15S 6876   5.219   4.615   5.580  1.0327  1.0029 -0.8475
   77SOPE  C216 6877   5.157   4.809   5.499 -0.1075  0.1171 -0.8205
   77SOPE  H16R 6878   5.155   4.746   5.408  1.1010 -0.7655 -0.2650
   77SOPE  H16S 6879   5.247   4.874   5.486 -1.7277  2.5222 -0.7289
   77SOPE  C217 6880   5.050   4.918   5.508 -0.1160  0.1971  0.6798
   77SOPE  H17R 6881   5.074   4.976   5.600  0.4359  0.1522  0.5663
   77SOPE  H17S 6882   4.951   4.869   5.510 -1.5041  2.7971  0.4785
   77SOPE  C218 6883   5.047   5.004   5.381  0.1258 -0.1610 -0.3484
   77SOPE  H18R 6884   5.151   5.025   5.348  0.4313 -1.0926  0.0067
   77SOPE  H18S 6885   4.989   5.097   5.403  1.3838 -0.0931  3.4283
   77SOPE  H18T 6886   5.004   4.957   5.290  0.9136  3.9363 -3.1484
   77SOPE   C33 6887   5.169   5.346   7.270 -0.4410  0.2693  0.2913
   77SOPE   H3X 6888   5.211   5.384   7.365  0.1303 -0.3160  0.2846
   77SOPE   H3Y 6889   5.108   5.423   7.218  1.8052  2.1807  0.3263
   77SOPE   C34 6890   5.282   5.315   7.175 -0.6316  0.3585 -0.3796
   77SOPE   H4X 6891   5.268   5.223   7.115 -0.7620  0.7694 -0.9923
   77SOPE   H4Y 6892   5.374   5.286   7.231 -0.2404  0.9203 -0.7169
   77SOPE   C35 6893   5.313   5.427   7.075 -0.4404 -0.2128 -0.1263
   77SOPE   H5X 6894   5.348   5.514   7.134 -0.7183  0.7510 -1.3292
   77SOPE   H5Y 6895   5.221   5.448   7.016 -0.2288  2.4667  0.3858
   77SOPE   C36 6896   5.426   5.381   6.975 -0.4927  0.0480 -0.5929
   77SOPE   H6X 6897   5.391   5.311   6.896  0.3063  0.1272 -1.0307
   77SOPE   H6Y 6898   5.514   5.337   7.028 -0.3367  1.1381  0.0666
   77SOPE   C37 6899   5.485   5.497   6.896 -0.2470  0.4965 -0.2744
   77SOPE   H7X 6900   5.546   5.564   6.961  1.5218  0.0821 -1.4432
   77SOPE   H7Y 6901   5.402   5.554   6.848 -0.1680  0.1444 -0.8401
   77SOPE   C38 6902   5.571   5.437   6.783 -0.1316  0.3590 -0.0856
   77SOPE   H8X 6903   5.529   5.348   6.731  1.5764 -1.5449  1.6543
   77SOPE   H8Y 6904   5.665   5.394   6.823 -1.4089 -2.1194  0.4965
   77SOPE   C39 6905   5.603   5.552   6.692 -0.1799  0.2650 -0.3471
   77SOPE   H9X 6906   5.669   5.629   6.739  1.6142 -0.1702 -2.0404
   77SOPE   H9Y 6907   5.510   5.608   6.666 -0.8020 -0.0493  1.0862
   77SOPE  C310 6908   5.677   5.524   6.557 -0.2782 -0.3611 -0.9030
   77SOPE  H10X 6909   5.627   5.442   6.501 -2.1334 -0.6789  1.0935
   77SOPE  H10Y 6910   5.781   5.486   6.570 -0.2655  0.2679  1.0122
   77SOPE  C311 6911   5.674   5.651   6.474 -0.1661  0.4062  0.0875
   77SOPE  H11X 6912   5.731   5.734   6.521 -0.0334 -0.0198  0.6901
   77SOPE  H11Y 6913   5.568   5.684   6.477  0.1199  1.3666  0.0511
   77SOPE  C312 6914   5.712   5.646   6.329  0.0806 -0.1288  0.0658
   77SOPE  H12X 6915   5.814   5.604   6.320  0.8259  1.4093  0.8817
   77SOPE  H12Y 6916   5.711   5.747   6.282 -0.2091  0.7962  1.9763
   77SOPE  C313 6917   5.629   5.545   6.249  0.2492 -0.1012  0.6012
   77SOPE  H13X 6918   5.521   5.559   6.267  0.5586  1.5189  1.4208
   77SOPE  H13Y 6919   5.650   5.444   6.288  0.1152 -0.8444 -1.1453
   77SOPE  C314 6920   5.669   5.522   6.093 -0.2501  0.1622 -0.9809
   77SOPE  H14X 6921   5.618   5.425   6.074  0.3063 -0.6127  1.1581
   77SOPE  H14Y 6922   5.776   5.501   6.076 -0.0191  1.0939 -0.7504
   77SOPE  C315 6923   5.616   5.633   5.999 -0.0461  0.5417  0.2746
   77SOPE  H15X 6924   5.672   5.726   6.022  0.5252  0.8283 -2.1000
   77SOPE  H15Y 6925   5.508   5.645   6.023  0.1928  0.6943  1.3676
   77SOPE  C316 6926   5.630   5.625   5.850  0.7629  0.5918  0.6389
   77SOPE  H16X 6927   5.580   5.536   5.808  0.5773  1.1964 -0.4513
   77SOPE  H16Y 6928   5.735   5.603   5.821  0.3678  1.3979 -1.5702
   77SOPE  C317 6929   5.579   5.744   5.774  0.1858 -0.1059  0.2930
   77SOPE  H17X 6930   5.631   5.839   5.796 -2.5650  2.0180 -1.6757
   77SOPE  H17Y 6931   5.476   5.754   5.813  0.4404 -1.3259  1.3516
   77SOPE  C318 6932   5.581   5.726   5.623 -0.8982  0.1796 -0.0485
   77SOPE  H18X 6933   5.549   5.820   5.575  0.6511 -0.0576 -1.6293
   77SOPE  H18Y 6934   5.519   5.638   5.594  1.8321 -2.4591  1.4494
   77SOPE  H18Z 6935   5.684   5.706   5.586  0.3546  2.3746  1.9293
   78SOPE     N 6936   3.846   3.660   7.451 -0.0360 -1.0249  0.0409
   78SOPE   HN1 6937   3.899   3.725   7.514  0.2397  0.0346 -1.2412
   78SOPE   HN2 6938   3.752   3.702   7.437  1.0583  1.1223 -1.4243
   78SOPE   HN3 6939   3.834   3.574   7.508  2.4356 -1.2492  0.3305
   78SOPE   C12 6940   3.915   3.660   7.317 -0.1121 -0.5899  0.0571
   78SOPE  H12A 6941   3.860   3.590   7.250 -3.1363  1.3198  0.3198
   78SOPE  H12B 6942   4.013   3.612   7.336 -2.3107 -4.5709  2.8914
   78SOPE   C11 6943   3.927   3.801   7.260  0.6761 -0.3432  0.3420
   78SOPE  H11A 6944   3.831   3.857   7.263  0.2173 -1.1640  1.1377
   78SOPE  H11B 6945   3.948   3.794   7.151  0.9570 -2.6634  0.4954
   78SOPE     P 6946   4.019   3.974   7.450 -0.0032 -0.3876  0.2162
   78SOPE   O13 6947   4.141   4.052   7.474 -0.3123 -0.2128 -0.0970
   78SOPE   O14 6948   3.961   3.900   7.562  0.4188  0.4088  0.0717
   78SOPE   O12 6949   4.036   3.866   7.328 -0.3091  0.1172 -0.7612
   78SOPE   O11 6950   3.908   4.064   7.384  0.3247 -0.3075 -0.4735
   78SOPE    C1 6951   3.936   4.135   7.262 -0.4494  0.3187 -0.2374
   78SOPE    HA 6952   4.015   4.089   7.199  1.4657  3.3739 -0.2660
   78SOPE    HB 6953   3.976   4.237   7.282 -0.7738  0.5968 -0.9643
   78SOPE    C2 6954   3.808   4.143   7.175  0.3546 -0.2624 -0.7254
   78SOPE    HS 6955   3.734   4.076   7.224  0.8682 -0.6919 -0.5261
   78SOPE   O21 6956   3.840   4.099   7.042 -0.1352  0.1759 -0.5728
   78SOPE   C21 6957   3.767   4.001   6.990 -0.3168 -0.4624 -0.6943
   78SOPE   O22 6958   3.672   3.942   7.041  0.3802 -0.3483  0.0761
   78SOPE   C22 6959   3.819   3.970   6.856 -0.2083  0.1271  0.6435
   78SOPE   H2R 6960   3.872   3.873   6.871  1.4465  0.8860 -0.0409
   78SOPE   H2S 6961   3.889   4.052   6.830 -0.1536 -0.5039 -1.4073
   78SOPE    C3 6962   3.754   4.291   7.179  0.0676  0.0913 -0.7914
   78SOPE    HX 6963   3.835   4.354   7.137 -0.5950  0.4438 -1.5669
   78SOPE    HY 6964   3.743   4.332   7.281  1.7584  4.7532 -2.2178
   78SOPE   O31 6965   3.633   4.320   7.107  0.0741  0.0477  0.1704
   78SOPE   C31 6966   3.523   4.248   7.144 -0.1569  0.8408  0.4993
   78SOPE   O32 6967   3.517   4.164   7.235 -0.6159 -0.5733  0.1492
   78SOPE   C32 6968   3.416   4.272   7.041  0.5198 -0.3859 -0.3716
   78SOPE   H2X 6969   3.447   4.257   6.936  0.0559  0.1733 -0.5887
   78SOPE   H2Y 6970   3.396   4.380   7.057  0.4402 -0.6738  1.8700
   78SOPE   C23 6971   3.710   3.957   6.744  1.1232 -0.5421 -1.2877
   78SOPE   H3R 6972   3.648   4.049   6.733  2.7576  0.7568 -0.1745
   78SOPE   H3S 6973   3.633   3.883   6.776  0.1839  0.8754 -0.1258
   78SOPE   C24 6974   3.761   3.908   6.611 -0.0757 -0.2624 -0.0477
   78SOPE   H4R 6975   3.825   3.817   6.615  1.9672  1.1049 -0.0345
   78SOPE   H4S 6976   3.663   3.885   6.563 -1.2842  0.4911  1.9413
   78SOPE   C25 6977   3.842   4.016   6.531  0.2321 -0.0029 -0.6590
   78SOPE   H5R 6978   3.776   4.105   6.530 -0.8692 -0.7902 -0.2149
   78SOPE   H5S 6979   3.932   4.039   6.593  0.5142 -1.4872 -0.4669
   78SOPE   C26 6980   3.886   3.984   6.384  0.4169  0.3542  0.1861
   78SOPE   H6R 6981   3.953   4.065   6.350 -1.4936  2.1375  0.4324
   78SOPE   H6S 6982   3.946   3.891   6.381  0.9793  0.6714  1.1801
   78SOPE   C27 6983   3.765   3.971   6.293 -1.0867 -0.0628  0.3535
   78SOPE   H7R 6984   3.674   3.940   6.349 -0.1820  1.2033  2.6535
   78SOPE   H7S 6985   3.732   4.072   6.259 -0.8646 -0.7649 -2.1308
   78SOPE   C28 6986   3.781   3.881   6.169  0.3284  1.1038  0.1975
   78SOPE   H8R 6987   3.782   3.773   6.194 -1.8851  0.6429 -1.4099
   78SOPE   H8S 6988   3.686   3.892   6.111  0.4119  0.3977 -0.0875
   78SOPE   C29 6989   3.900   3.918   6.083  0.5236  0.0270 -0.1821
   78SOPE   H91 6990   3.984   3.847   6.083  0.8053  0.3360 -1.4335
   78SOPE  C210 6991   3.894   4.029   6.008 -0.6107 -0.4850  0.6839
   78SOPE  H101 6992   3.985   4.062   5.955  0.0480 -2.7804  0.2785
   78SOPE  C211 6993   3.784   4.129   5.989 -0.3352 -0.3362 -0.7369
   78SOPE  H11R 6994   3.824   4.227   6.023  1.8273 -1.8427  1.4011
   78SOPE  H11S 6995   3.690   4.103   6.041 -1.0686  0.7552 -1.4680
   78SOPE  C212 6996   3.749   4.159   5.844  0.3278  0.1315  0.3797
   78SOPE  H12R 6997   3.653   4.213   5.831  0.2287 -0.0707  0.2677
   78SOPE  H12S 6998   3.751   4.065   5.785  0.3405  1.4052 -1.7529
   78SOPE  C213 6999   3.848   4.246   5.769  0.4489  0.2862 -0.4804
   78SOPE  H13R 7000   3.941   4.184   5.764 -0.5373 -1.1835 -1.2670
   78SOPE  H13S 7001   3.858   4.338   5.830 -3.0486 -0.0789  0.9051
   78SOPE  C214 7002   3.813   4.298   5.626  0.3797 -0.1872 -0.1641
   78SOPE  H14R 7003   3.893   4.364   5.585 -0.8399  0.6568 -1.2690
   78SOPE  H14S 7004   3.722   4.360   5.635 -1.0491 -2.4133  2.1428
   78SOPE  C215 7005   3.785   4.183   5.528  0.3341  0.0672 -0.0676
   78SOPE  H15R 7006   3.832   4.090   5.564 -2.0036 -0.5744  1.5927
   78SOPE  H15S 7007   3.840   4.212   5.436 -1.2422  1.3391 -0.6669
   78SOPE  C216 7008   3.641   4.153   5.490 -0.2491 -0.5332  0.1584
   78SOPE  H16R 7009   3.575   4.241   5.474 -1.9503 -1.7093  0.3780
   78SOPE  H16S 7010   3.581   4.112   5.575 -1.7463 -0.4794 -0.8410
   78SOPE  C217 7011   3.636   4.063   5.378 -0.5949  0.4449 -0.3040
   78SOPE  H17R 7012   3.655   4.124   5.287  1.2220  1.2488  0.5760
   78SOPE  H17S 7013   3.534   4.020   5.369 -2.0262  2.7904  2.8591
   78SOPE  C218 7014   3.738   3.948   5.377 -0.0407 -0.0314 -0.3806
   78SOPE  H18R 7015   3.701   3.871   5.306 -1.8714  1.3426 -0.9845
   78SOPE  H18S 7016   3.745   3.904   5.479  0.0391 -2.5444 -1.3971
   78SOPE  H18T 7017   3.842   3.984   5.363  0.2616 -0.7142  0.0143
   78SOPE   C33 7018   3.279   4.206   7.072 -0.0599 -0.1890  0.2567
   78SOPE   H3X 7019   3.205   4.241   6.997 -0.2710  1.2079  1.0907
   78SOPE   H3Y 7020   3.232   4.238   7.167 -1.2564  0.6217 -0.5760
   78SOPE   C34 7021   3.283   4.050   7.064 -0.4756  0.2537 -0.5202
   78SOPE   H4X 7022   3.186   4.007   7.097 -0.6417  2.0777  1.6301
   78SOPE   H4Y 7023   3.369   4.021   7.128 -0.7906  0.0542 -0.1815
   78SOPE   C35 7024   3.332   3.993   6.925 -0.8327  0.4321 -0.1250
   78SOPE   H5X 7025   3.327   3.884   6.942 -0.4633  0.4125 -0.1438
   78SOPE   H5Y 7026   3.441   4.015   6.922 -0.1489 -2.6204 -0.1757
   78SOPE   C36 7027   3.264   4.048   6.800 -0.0594 -1.2641 -0.2782
   78SOPE   H6X 7028   3.272   4.159   6.809  6.6062 -1.2370 -1.2386
   78SOPE   H6Y 7029   3.156   4.023   6.794 -1.2883  3.1468 -0.0919
   78SOPE   C37 7030   3.343   4.016   6.676 -0.4167 -0.1209  0.6503
   78SOPE   H7X 7031   3.356   3.906   6.667 -0.4622 -0.1621  1.0588
   78SOPE   H7Y 7032   3.445   4.058   6.688 -0.4163  0.8134 -2.0358
   78SOPE   C38 7033   3.288   4.082   6.551  0.6721  0.3916  0.7008
   78SOPE   H8X 7034   3.295   4.193   6.541  1.5267  0.3510  0.7448
   78SOPE   H8Y 7035   3.182   4.049   6.544  1.4237 -2.0224 -0.0745
   78SOPE   C39 7036   3.343   4.025   6.419 -0.3605 -0.4179 -0.1027
   78SOPE   H9X 7037   3.310   3.921   6.402 -1.8028  0.3395 -2.3251
   78SOPE   H9Y 7038   3.453   4.043   6.424 -0.6588  1.3353  1.9666
   78SOPE  C310 7039   3.307   4.096   6.291  0.3286  0.0013 -0.0059
   78SOPE  H10X 7040   3.345   4.201   6.287 -0.1549  0.2706  1.7226
   78SOPE  H10Y 7041   3.197   4.104   6.280  0.2065 -0.5272  0.7755
   78SOPE  C311 7042   3.370   4.032   6.165 -0.2452 -0.3208 -0.4461
   78SOPE  H11X 7043   3.337   3.929   6.142 -0.8342  0.0535 -1.3123
   78SOPE  H11Y 7044   3.479   4.030   6.188 -0.0952  1.0411 -0.9610
   78SOPE  C312 7045   3.351   4.114   6.038 -0.0751  0.0185  0.1145
   78SOPE  H12X 7046   3.422   4.088   5.957 -0.3528  3.0959 -1.2647
   78SOPE  H12Y 7047   3.376   4.220   6.060  1.2902 -0.3534  0.4281
   78SOPE  C313 7048   3.206   4.094   5.969  1.2062  0.1168 -0.3692
   78SOPE  H13X 7049   3.124   4.156   6.010 -0.1194 -1.0259 -1.1765
   78SOPE  H13Y 7050   3.175   3.989   5.988  3.3195 -0.5873 -0.5486
   78SOPE  C314 7051   3.212   4.120   5.818  0.5364  0.7993  0.7776
   78SOPE  H14X 7052   3.112   4.101   5.771  1.0742  1.7579 -0.8375
   78SOPE  H14Y 7053   3.268   4.031   5.783  0.4740  0.7231  0.8685
   78SOPE  C315 7054   3.265   4.255   5.763 -0.2555 -0.2206  0.4523
   78SOPE  H15X 7055   3.361   4.274   5.815 -0.5885  2.1240  0.3502
   78SOPE  H15Y 7056   3.211   4.344   5.802 -1.7303 -0.8701 -0.0320
   78SOPE  C316 7057   3.299   4.251   5.612  0.3830  0.2888 -0.0325
   78SOPE  H16X 7058   3.319   4.146   5.585 -2.1373 -0.5587  1.0588
   78SOPE  H16Y 7059   3.395   4.306   5.599  1.5058 -1.3346  1.0733
   78SOPE  C317 7060   3.182   4.298   5.521 -0.1912 -0.1942  0.6387
   78SOPE  H17X 7061   3.181   4.409   5.520 -3.7576 -0.0934 -0.6109
   78SOPE  H17Y 7062   3.084   4.263   5.561 -0.7090  0.7226  0.2049
   78SOPE  C318 7063   3.198   4.254   5.369  0.2342  0.1952  0.7633
   78SOPE  H18X 7064   3.288   4.300   5.322  1.0297 -0.0809  1.9630
   78SOPE  H18Y 7065   3.117   4.300   5.309 -0.6306 -0.7735  1.1701
   78SOPE  H18Z 7066   3.192   4.145   5.354  1.4455  0.1518  0.4518
   79SOPE     N 7067   2.414   1.862   7.473 -0.6037 -0.0329 -0.3692
   79SOPE   HN1 7068   2.493   1.871   7.406  0.1634 -1.3561  0.3206
   79SOPE   HN2 7069   2.440   1.790   7.544  0.1706 -1.2890 -1.8789
   79SOPE   HN3 7070   2.336   1.819   7.419  1.7044 -2.0768 -2.3128
   79SOPE   C12 7071   2.376   1.990   7.538 -0.0191  0.4678  0.3513
   79SOPE  H12A 7072   2.447   2.016   7.619  0.6994 -0.0348 -0.1017
   79SOPE  H12B 7073   2.275   1.970   7.581  0.0897 -2.0436 -0.3744
   79SOPE   C11 7074   2.359   2.095   7.439 -0.8841 -0.0496 -0.2003
   79SOPE  H11A 7075   2.275   2.079   7.368 -0.4617 -1.1692 -0.4782
   79SOPE  H11B 7076   2.438   2.106   7.361 -0.6620  1.6882  0.2310
   79SOPE     P 7077   2.248   2.328   7.457  0.0827 -0.3300  0.3701
   79SOPE   O13 7078   2.291   2.455   7.527 -0.1808  0.3757  0.1218
   79SOPE   O14 7079   2.116   2.267   7.461 -0.0393 -0.1666 -0.4144
   79SOPE   O12 7080   2.357   2.220   7.507 -0.2501 -0.8363 -0.6681
   79SOPE   O11 7081   2.291   2.354   7.306 -0.5295  0.0692  0.0542
   79SOPE    C1 7082   2.410   2.443   7.289 -0.4897  0.0595  0.6234
   79SOPE    HA 7083   2.496   2.375   7.308  0.2356  0.1099 -2.0155
   79SOPE    HB 7084   2.422   2.539   7.344  4.1816  0.2077 -0.2354
   79SOPE    C2 7085   2.410   2.487   7.134  0.3468  0.3653  0.3378
   79SOPE    HS 7086   2.328   2.561   7.123 -0.5096 -0.0730  3.0338
   79SOPE   O21 7087   2.405   2.375   7.046 -0.0518  0.0715 -0.4230
   79SOPE   C21 7088   2.327   2.395   6.947 -0.2005 -0.5979  1.0996
   79SOPE   O22 7089   2.276   2.503   6.916 -0.1227  0.2953 -0.5590
   79SOPE   C22 7090   2.319   2.266   6.865  0.5591 -0.5677  0.0578
   79SOPE   H2R 7091   2.216   2.230   6.884  0.7705 -0.5617  1.2910
   79SOPE   H2S 7092   2.380   2.181   6.903  0.6069 -0.1225  1.0032
   79SOPE    C3 7093   2.537   2.563   7.100 -0.2903  0.7360  0.0520
   79SOPE    HX 7094   2.626   2.498   7.118  0.7811  2.5215  1.5351
   79SOPE    HY 7095   2.558   2.641   7.176  0.8895 -1.0206  1.6217
   79SOPE   O31 7096   2.537   2.605   6.961  0.0867  0.1795 -0.1153
   79SOPE   C31 7097   2.519   2.736   6.945 -0.0877  0.8893  0.0803
   79SOPE   O32 7098   2.511   2.820   7.032 -0.7065 -0.9462 -0.0606
   79SOPE   C32 7099   2.508   2.764   6.790 -0.1913 -0.4669  0.9292
   79SOPE   H2X 7100   2.417   2.715   6.747 -0.5023  2.0071 -1.5344
   79SOPE   H2Y 7101   2.591   2.706   6.744 -1.6817 -2.1879  0.2555
   79SOPE   C23 7102   2.342   2.287   6.716 -0.5268 -0.3201 -0.2479
   79SOPE   H3R 7103   2.274   2.362   6.671 -0.1709  0.2448  0.1468
   79SOPE   H3S 7104   2.332   2.192   6.659  0.8760 -1.2804  1.0376
   79SOPE   C24 7105   2.479   2.347   6.683 -0.5490  0.1392 -0.0422
   79SOPE   H4R 7106   2.507   2.436   6.743  0.6363 -0.2575  0.0096
   79SOPE   H4S 7107   2.558   2.269   6.687 -3.7735 -3.4040  1.4345
   79SOPE   C25 7108   2.482   2.409   6.545  0.9504  0.3245  0.0217
   79SOPE   H5R 7109   2.463   2.330   6.469  0.9794  0.3682 -0.0307
   79SOPE   H5S 7110   2.407   2.491   6.539  0.8543  0.4083  1.9228
   79SOPE   C26 7111   2.620   2.470   6.506 -0.5393 -0.6523  0.2808
   79SOPE   H6R 7112   2.674   2.516   6.592 -0.5269 -0.9028  0.4059
   79SOPE   H6S 7113   2.681   2.388   6.462 -0.1447  0.0930 -0.6070
   79SOPE   C27 7114   2.610   2.576   6.392 -0.0387 -0.4352 -0.2486
   79SOPE   H7R 7115   2.547   2.660   6.427 -0.8799 -0.9695 -0.4435
   79SOPE   H7S 7116   2.713   2.608   6.365 -0.0251  0.1680  0.4889
   79SOPE   C28 7117   2.538   2.523   6.267 -1.1308  0.3812  0.1119
   79SOPE   H8R 7118   2.561   2.418   6.238 -2.5959  0.0623  0.0643
   79SOPE   H8S 7119   2.428   2.520   6.281 -1.1367  0.8461  0.1877
   79SOPE   C29 7120   2.587   2.614   6.155  0.3320  0.2668  0.5377
   79SOPE   H91 7121   2.655   2.694   6.188 -0.0946 -0.1633  2.5924
   79SOPE  C210 7122   2.562   2.588   6.026  0.8912 -0.2512 -0.4235
   79SOPE  H101 7123   2.604   2.648   5.944  0.1108 -0.6279 -1.1130
   79SOPE  C211 7124   2.477   2.477   5.971 -0.4247  0.0298  0.3945
   79SOPE  H11R 7125   2.387   2.506   5.913 -0.1232  0.6182  0.2113
   79SOPE  H11S 7126   2.434   2.414   6.051 -0.4899 -1.5626 -0.8361
   79SOPE  C212 7127   2.561   2.374   5.888  0.1895 -0.4023  0.2739
   79SOPE  H12R 7128   2.618   2.418   5.803 -0.8587 -1.2867 -0.9297
   79SOPE  H12S 7129   2.482   2.309   5.844  1.8572 -1.8110 -0.8087
   79SOPE  C213 7130   2.658   2.279   5.968  0.6200 -0.5383 -0.0138
   79SOPE  H13R 7131   2.607   2.235   6.056  2.1817 -1.3278  0.5331
   79SOPE  H13S 7132   2.749   2.326   6.010 -0.4469  0.2615  1.4654
   79SOPE  C214 7133   2.693   2.156   5.877  0.0980 -0.6474 -0.1258
   79SOPE  H14R 7134   2.615   2.136   5.801  0.3206  2.0603 -1.1824
   79SOPE  H14S 7135   2.703   2.069   5.945 -1.7133 -1.1364 -0.4343
   79SOPE  C215 7136   2.830   2.184   5.797  0.8081  0.2546  0.8265
   79SOPE  H15R 7137   2.903   2.222   5.872  0.6810  3.3277 -0.4636
   79SOPE  H15S 7138   2.814   2.262   5.720 -1.4052 -2.5669 -1.8075
   79SOPE  C216 7139   2.880   2.060   5.719  0.3940 -0.5655 -0.4777
   79SOPE  H16R 7140   2.882   1.987   5.803  0.6671  0.2242  0.2143
   79SOPE  H16S 7141   2.980   2.087   5.678  0.3882 -1.9849 -1.5038
   79SOPE  C217 7142   2.791   2.021   5.603  0.4127  0.1421 -0.1019
   79SOPE  H17R 7143   2.689   2.005   5.645  1.4089 -1.4954  1.8895
   79SOPE  H17S 7144   2.825   1.920   5.571  3.3816  0.8143  0.6356
   79SOPE  C218 7145   2.782   2.118   5.486  0.3829 -0.1805 -0.1342
   79SOPE  H18R 7146   2.882   2.158   5.461 -0.0129 -0.0976 -1.7077
   79SOPE  H18S 7147   2.717   2.205   5.508 -3.8005 -2.3183 -2.6989
   79SOPE  H18T 7148   2.735   2.065   5.400  0.6583 -1.2706  0.3730
   79SOPE   C33 7149   2.523   2.909   6.733 -0.3627 -0.0631 -0.2538
   79SOPE   H3X 7150   2.624   2.946   6.759  0.3486 -0.8972 -1.7506
   79SOPE   H3Y 7151   2.445   2.970   6.786 -1.8500  0.8118 -3.2160
   79SOPE   C34 7152   2.517   2.934   6.583  0.1679 -0.4477 -0.1883
   79SOPE   H4X 7153   2.445   3.018   6.578  0.7083 -0.0510 -2.7491
   79SOPE   H4Y 7154   2.461   2.852   6.535  0.3032 -0.4648 -0.3173
   79SOPE   C35 7155   2.648   2.977   6.525  0.6679  0.3731  0.2474
   79SOPE   H5X 7156   2.710   2.885   6.518  1.8758  1.2624 -1.8272
   79SOPE   H5Y 7157   2.702   3.052   6.587  1.3415 -0.6603  0.9214
   79SOPE   C36 7158   2.638   3.046   6.391 -0.5263  0.5340 -0.2519
   79SOPE   H6X 7159   2.744   3.066   6.365 -1.0425  2.0176 -1.3579
   79SOPE   H6Y 7160   2.590   3.146   6.389  0.0412  0.9109  1.8504
   79SOPE   C37 7161   2.588   2.964   6.272  0.0111 -0.1511 -0.7415
   79SOPE   H7X 7162   2.487   2.923   6.294 -1.2014  1.2618 -3.2631
   79SOPE   H7Y 7163   2.663   2.885   6.249  1.3811  0.4160  1.4892
   79SOPE   C38 7164   2.569   3.045   6.140  0.1900 -0.7050 -0.3827
   79SOPE   H8X 7165   2.511   3.138   6.159  2.1539  0.3621  0.8894
   79SOPE   H8Y 7166   2.504   2.990   6.070  0.5517 -1.2067 -0.3303
   79SOPE   C39 7167   2.705   3.078   6.069  0.2517 -0.1201  0.2812
   79SOPE   H9X 7168   2.754   2.983   6.039 -0.2561 -0.6749  1.1745
   79SOPE   H9Y 7169   2.771   3.136   6.137 -0.4546  0.1394  0.7654
   79SOPE  C310 7170   2.679   3.172   5.944 -0.4310  0.5805  0.4134
   79SOPE  H10X 7171   2.691   3.280   5.967  1.6941  0.7539 -1.2068
   79SOPE  H10Y 7172   2.575   3.145   5.916  0.0522  0.6163 -1.5510
   79SOPE  C311 7173   2.779   3.135   5.835 -0.7490 -0.3685 -0.3942
   79SOPE  H11X 7174   2.757   3.030   5.806  0.2237 -0.5393 -0.5423
   79SOPE  H11Y 7175   2.881   3.142   5.876 -1.2181  0.8913  0.5979
   79SOPE  C312 7176   2.769   3.230   5.718 -0.8037 -0.2346 -0.0196
   79SOPE  H12X 7177   2.853   3.197   5.653 -0.6755 -0.7008  0.3793
   79SOPE  H12Y 7178   2.785   3.336   5.747  1.7141 -0.4785 -0.2894
   79SOPE  C313 7179   2.636   3.214   5.644  0.1581  0.9376  0.0012
   79SOPE  H13X 7180   2.551   3.223   5.715 -1.0359 -2.8206 -0.7177
   79SOPE  H13Y 7181   2.631   3.109   5.607  1.7048  0.2286  1.6598
   79SOPE  C314 7182   2.635   3.314   5.532  0.3059  0.3499  0.5267
   79SOPE  H14X 7183   2.627   3.421   5.561 -0.1789  0.8356 -1.2545
   79SOPE  H14Y 7184   2.555   3.295   5.458  0.6436  2.2583 -0.3975
   79SOPE  C315 7185   2.762   3.318   5.432  0.3143  0.5626 -0.4047
   79SOPE  H15X 7186   2.851   3.357   5.485 -0.9744  0.6651  1.8450
   79SOPE  H15Y 7187   2.733   3.384   5.348 -0.8731 -0.4903 -0.8611
   79SOPE  C316 7188   2.797   3.179   5.369  0.3062 -0.4844  0.2937
   79SOPE  H16X 7189   2.720   3.167   5.290  0.2215  0.0859  0.2871
   79SOPE  H16Y 7190   2.769   3.107   5.449 -2.9014  0.7694  0.4404
   79SOPE  C317 7191   2.939   3.161   5.319  0.1448 -0.6084  0.4755
   79SOPE  H17X 7192   2.964   3.248   5.253 -0.4070 -1.6349 -1.1598
   79SOPE  H17Y 7193   2.955   3.059   5.278  0.6281 -0.4474  0.2520
   79SOPE  C318 7194   3.039   3.157   5.440 -0.6904  0.1619  1.2004
   79SOPE  H18X 7195   3.143   3.146   5.404 -0.1048  1.6578  2.3489
   79SOPE  H18Y 7196   3.021   3.070   5.507  1.9199 -1.0702  0.4292
   79SOPE  H18Z 7197   3.036   3.243   5.511  1.4390  1.5918 -0.3100
   80SOPE     N 7198   3.586   5.654   7.200 -0.1939  0.0349 -0.2970
   80SOPE   HN1 7199   3.645   5.682   7.119 -0.8841  0.5528 -0.6359
   80SOPE   HN2 7200   3.502   5.715   7.202 -0.4144 -0.2754 -0.1743
   80SOPE   HN3 7201   3.648   5.698   7.270  0.3389  0.3073 -0.9232
   80SOPE   C12 7202   3.577   5.505   7.210 -0.0758  0.0049  0.3520
   80SOPE  H12A 7203   3.476   5.483   7.169 -0.3445  0.8292  0.5747
   80SOPE  H12B 7204   3.588   5.480   7.317  0.7465  0.5909  0.4074
   80SOPE   C11 7205   3.696   5.440   7.139 -0.0793  0.2036  0.4691
   80SOPE  H11A 7206   3.692   5.452   7.028 -0.5101 -0.6306  0.3868
   80SOPE  H11B 7207   3.681   5.333   7.165 -2.7551  0.8450  1.8841
   80SOPE     P 7208   3.931   5.387   7.264 -0.2687  0.1796  0.1922
   80SOPE   O13 7209   3.890   5.349   7.407 -0.3579  0.0025 -0.1537
   80SOPE   O14 7210   4.068   5.442   7.234  0.5379 -0.5388  0.2550
   80SOPE   O12 7211   3.821   5.483   7.194 -0.1946  0.2091  0.2155
   80SOPE   O11 7212   3.912   5.255   7.172  0.1379 -0.7126  0.1395
   80SOPE    C1 7213   3.968   5.242   7.034  0.0987 -0.1974  0.0763
   80SOPE    HA 7214   4.029   5.330   7.009 -0.0549 -0.1482 -0.1338
   80SOPE    HB 7215   3.888   5.220   6.960 -0.0590 -1.1768  0.5146
   80SOPE    C2 7216   4.061   5.120   7.023  0.2669  0.3934 -0.5867
   80SOPE    HS 7217   4.118   5.119   7.119  0.7792  2.7155 -0.8020
   80SOPE   O21 7218   4.149   5.147   6.906  1.0687  0.2680 -0.5681
   80SOPE   C21 7219   4.255   5.078   6.910  0.0964  0.6523  0.4848
   80SOPE   O22 7220   4.294   5.006   7.000  0.0606 -0.4376 -0.4176
   80SOPE   C22 7221   4.336   5.098   6.783  0.0997 -0.7382  0.3799
   80SOPE   H2R 7222   4.429   5.040   6.800  1.2029  0.8553  0.0446
   80SOPE   H2S 7223   4.361   5.206   6.792  0.7889 -0.7435 -1.1479
   80SOPE    C3 7224   3.992   4.979   6.992  0.5866  0.1723 -0.4540
   80SOPE    HX 7225   3.903   4.964   7.057  0.6420  0.5092 -0.2974
   80SOPE    HY 7226   4.069   4.907   7.026  1.2595  0.8062 -0.6172
   80SOPE   O31 7227   3.960   4.959   6.852 -0.0518 -0.7840 -0.0830
   80SOPE   C31 7228   3.833   4.941   6.821  0.2979 -0.3591 -0.1146
   80SOPE   O32 7229   3.737   4.943   6.903  0.2442  0.4829 -0.1634
   80SOPE   C32 7230   3.823   4.924   6.670  0.2787  0.2602 -0.6985
   80SOPE   H2X 7231   3.853   4.822   6.638  1.7183  0.8022 -1.1365
   80SOPE   H2Y 7232   3.890   5.001   6.626  1.3731  1.2565  2.4296
   80SOPE   C23 7233   4.265   5.074   6.648 -0.2693  0.2095  0.0661
   80SOPE   H3R 7234   4.172   5.135   6.651 -0.3702  0.0714 -0.1953
   80SOPE   H3S 7235   4.227   4.970   6.639  0.6575 -0.0355 -1.2793
   80SOPE   C24 7236   4.349   5.087   6.525  0.0688  0.5984 -0.2737
   80SOPE   H4R 7237   4.388   5.190   6.510  0.3724  0.2645 -2.0207
   80SOPE   H4S 7238   4.436   5.019   6.533 -0.0676  0.3395 -0.9634
   80SOPE   C25 7239   4.273   5.049   6.402  0.5749  0.9076  0.1084
   80SOPE   H5R 7240   4.236   4.944   6.406 -0.5474  1.1949 -1.7833
   80SOPE   H5S 7241   4.192   5.124   6.392  0.2088  0.7237  1.4694
   80SOPE   C26 7242   4.366   5.061   6.277 -0.0763 -0.4202 -0.7704
   80SOPE   H6R 7243   4.376   5.170   6.258  1.0310 -0.1018  1.3657
   80SOPE   H6S 7244   4.463   5.016   6.308 -0.9436 -0.5048  2.1484
   80SOPE   C27 7245   4.312   5.004   6.145  0.2822 -0.0767  0.2242
   80SOPE   H7R 7246   4.320   4.894   6.154 -2.1427 -0.2353  1.1301
   80SOPE   H7S 7247   4.207   5.036   6.131  1.3178  2.3246 -3.3282
   80SOPE   C28 7248   4.393   5.050   6.023  0.0655  0.1817 -0.2297
   80SOPE   H8R 7249   4.388   5.160   6.005  0.6355  0.9508  3.5313
   80SOPE   H8S 7250   4.497   5.020   6.046 -0.3543 -0.4065  0.9379
   80SOPE   C29 7251   4.346   4.973   5.906  0.2268 -0.1325  0.2733
   80SOPE   H91 7252   4.328   4.865   5.914  1.0615 -0.2240  1.0602
   80SOPE  C210 7253   4.341   5.023   5.783 -0.0357 -0.4432 -0.1577
   80SOPE  H101 7254   4.296   4.962   5.703  0.7871  0.0152 -0.9980
   80SOPE  C211 7255   4.382   5.162   5.739 -0.1097 -0.6292 -0.0280
   80SOPE  H11R 7256   4.492   5.174   5.734 -0.1733 -0.5317 -1.9587
   80SOPE  H11S 7257   4.337   5.242   5.801  1.0076  0.3904 -0.4926
   80SOPE  C212 7258   4.333   5.194   5.598 -0.1194 -0.5059  0.0424
   80SOPE  H12R 7259   4.222   5.196   5.594 -0.2594 -3.1034  1.0178
   80SOPE  H12S 7260   4.383   5.118   5.534  2.0620  1.9654 -1.3963
   80SOPE  C213 7261   4.381   5.334   5.560  0.4972 -0.0108  0.7578
   80SOPE  H13R 7262   4.492   5.328   5.572  0.6011 -0.7837 -0.4179
   80SOPE  H13S 7263   4.330   5.405   5.628  0.6715 -0.1719  1.0602
   80SOPE  C214 7264   4.360   5.381   5.407  0.6068  0.3713 -0.2694
   80SOPE  H14R 7265   4.380   5.488   5.387 -2.3572  1.5316  2.1144
   80SOPE  H14S 7266   4.254   5.380   5.373  1.0774 -1.6361 -1.8711
   80SOPE  C215 7267   4.422   5.277   5.308 -0.5578 -0.0419 -0.1107
   80SOPE  H15R 7268   4.407   5.305   5.202  1.1317 -2.7429 -1.1740
   80SOPE  H15S 7269   4.373   5.179   5.327  1.7523 -1.1879  0.3946
   80SOPE  C216 7270   4.578   5.268   5.323 -0.2188 -0.3506  0.7862
   80SOPE  H16R 7271   4.610   5.218   5.416  0.2383 -0.3940  0.6094
   80SOPE  H16S 7272   4.623   5.369   5.314  2.4503 -1.3820  1.5854
   80SOPE  C217 7273   4.633   5.177   5.204  0.7673 -0.8684 -0.1116
   80SOPE  H17R 7274   4.593   5.215   5.107  1.0260 -1.3607 -0.4179
   80SOPE  H17S 7275   4.588   5.076   5.218  0.1617 -0.3330  2.1156
   80SOPE  C218 7276   4.782   5.173   5.203  0.6424 -0.3030 -0.5670
   80SOPE  H18R 7277   4.825   5.275   5.206  1.3871 -0.6060  2.4530
   80SOPE  H18S 7278   4.829   5.128   5.113  1.1218  2.0875 -1.5923
   80SOPE  H18T 7279   4.829   5.123   5.291  3.2690  0.6307 -1.3304
   80SOPE   C33 7280   3.675   4.934   6.616  0.1657 -0.5328 -0.0008
   80SOPE   H3X 7281   3.619   5.020   6.659  0.9737  0.9148 -1.6991
   80SOPE   H3Y 7282   3.621   4.841   6.641  1.4995 -1.2869  0.1590
   80SOPE   C34 7283   3.666   4.953   6.465 -0.2760 -0.4436 -0.0833
   80SOPE   H4X 7284   3.671   5.062   6.448  0.2965 -0.6618 -1.4321
   80SOPE   H4Y 7285   3.562   4.920   6.442  0.0851 -1.2865 -0.5402
   80SOPE   C35 7286   3.776   4.889   6.387  0.2451  0.3919 -0.3531
   80SOPE   H5X 7287   3.764   4.780   6.399 -1.0342  0.2261 -2.6340
   80SOPE   H5Y 7288   3.878   4.908   6.428  0.3247  1.4633 -0.9913
   80SOPE   C36 7289   3.760   4.891   6.240  0.0256 -0.4179  0.4818
   80SOPE   H6X 7290   3.775   4.994   6.202  0.3485 -1.2158 -1.6697
   80SOPE   H6Y 7291   3.658   4.855   6.213 -1.6900  0.3711  4.9531
   80SOPE   C37 7292   3.869   4.811   6.163 -0.2100 -0.2426  0.8720
   80SOPE   H7X 7293   3.859   4.702   6.185 -0.6303 -0.4528 -0.2709
   80SOPE   H7Y 7294   3.968   4.842   6.204  0.3032 -2.1197  1.1405
   80SOPE   C38 7295   3.867   4.846   6.009  0.2940 -0.0888 -0.0140
   80SOPE   H8X 7296   3.903   4.948   5.984  0.5607 -0.4020 -0.9998
   80SOPE   H8Y 7297   3.763   4.831   5.972  0.0764  0.5615  0.3402
   80SOPE   C39 7298   3.949   4.746   5.927 -0.0844 -0.1324  0.7772
   80SOPE   H9X 7299   3.927   4.645   5.970 -0.8855 -0.1857  0.2576
   80SOPE   H9Y 7300   4.057   4.764   5.946  0.4319 -1.9696 -0.1541
   80SOPE  C310 7301   3.931   4.765   5.775  0.1255 -0.2448 -0.0142
   80SOPE  H10X 7302   3.952   4.873   5.759 -0.0494 -0.1392  0.4495
   80SOPE  H10Y 7303   3.824   4.755   5.749  0.7300 -1.3711 -2.3034
   80SOPE  C311 7304   4.022   4.678   5.694 -0.3266  0.8678 -0.0193
   80SOPE  H11X 7305   3.974   4.579   5.677 -1.0785  0.8404  2.0108
   80SOPE  H11Y 7306   4.117   4.645   5.740 -0.5679  0.6331  0.3219
   80SOPE  C312 7307   4.043   4.744   5.553  0.1205 -0.1005 -0.1812
   80SOPE  H12X 7308   4.118   4.680   5.500 -0.5569 -1.7616  0.8056
   80SOPE  H12Y 7309   4.098   4.840   5.556  2.3083 -1.2624 -0.8813
   80SOPE  C313 7310   3.924   4.765   5.464 -0.2035 -0.0806 -0.1823
   80SOPE  H13X 7311   3.855   4.843   5.504  0.3452  1.0388 -1.3322
   80SOPE  H13Y 7312   3.873   4.668   5.453 -0.5087  0.0786 -0.1905
   80SOPE  C314 7313   3.949   4.829   5.325 -0.2065 -0.6280 -0.3496
   80SOPE  H14X 7314   4.045   4.884   5.315 -1.4314  1.8337  0.6607
   80SOPE  H14Y 7315   3.870   4.905   5.309  1.1298  1.3441  1.7057
   80SOPE  C315 7316   3.934   4.723   5.211  0.5433  0.0999  0.2430
   80SOPE  H15X 7317   3.983   4.626   5.234  0.3893 -0.0040  0.1299
   80SOPE  H15Y 7318   3.974   4.767   5.117 -0.4048  0.1319 -0.1602
   80SOPE  C316 7319   3.785   4.679   5.169 -0.1322  0.0964  0.0963
   80SOPE  H16X 7320   3.730   4.765   5.126 -0.7650  1.2753  3.0018
   80SOPE  H16Y 7321   3.739   4.642   5.263 -0.0812  1.3098  0.6190
   80SOPE  C317 7322   3.782   4.563   5.065  0.4425  0.4945 -0.5798
   80SOPE  H17X 7323   3.870   4.497   5.078 -0.5105 -0.4202  1.9058
   80SOPE  H17Y 7324   3.779   4.608   4.963  1.8833 -0.5053 -1.0920
   80SOPE  C318 7325   3.666   4.459   5.078 -1.3476 -0.8846 -0.0228
   80SOPE  H18X 7326   3.572   4.501   5.034  0.8513  1.6484 -2.7241
   80SOPE  H18Y 7327   3.647   4.430   5.183 -2.3620 -0.8611 -0.1848
   80SOPE  H18Z 7328   3.694   4.376   5.011  0.3307 -0.1833 -0.2324
   81SOPE     N 7329   3.899   1.797   7.230 -0.0629 -0.3410  0.2556
   81SOPE   HN1 7330   3.820   1.862   7.250  0.9467  0.3944  2.1692
   81SOPE   HN2 7331   3.981   1.839   7.183 -0.9277 -0.0289 -1.0293
   81SOPE   HN3 7332   3.865   1.717   7.172  2.0973 -1.2093  0.1138
   81SOPE   C12 7333   3.954   1.728   7.340 -0.3829  0.2630  1.0303
   81SOPE  H12A 7334   3.876   1.663   7.385  0.4998 -1.5885  0.0170
   81SOPE  H12B 7335   3.978   1.806   7.415  2.4273  2.3856 -1.7906
   81SOPE   C11 7336   4.082   1.647   7.305  0.0603  0.0783  0.6584
   81SOPE  H11A 7337   4.073   1.628   7.196  1.0659  1.3360  0.3361
   81SOPE  H11B 7338   4.072   1.546   7.351  0.6862 -0.3335 -0.0868
   81SOPE     P 7339   4.251   1.851   7.272 -0.0390  0.8433 -0.6766
   81SOPE   O13 7340   4.399   1.840   7.248  0.6456  0.0906 -0.4019
   81SOPE   O14 7341   4.222   1.947   7.373  0.4196 -0.6219  0.3829
   81SOPE   O12 7342   4.206   1.705   7.329 -0.0992  0.2623  0.1345
   81SOPE   O11 7343   4.160   1.870   7.140  0.2146  0.4111 -0.3786
   81SOPE    C1 7344   4.195   1.980   7.059  0.7043 -0.3810 -0.9733
   81SOPE    HA 7345   4.299   1.973   7.021  0.6338  0.0424 -1.2403
   81SOPE    HB 7346   4.186   2.070   7.123  1.6627 -0.7735 -0.2584
   81SOPE    C2 7347   4.097   1.997   6.939 -0.1744  0.4531 -0.5128
   81SOPE    HS 7348   3.992   2.019   6.968 -0.7422 -2.7217  0.2095
   81SOPE   O21 7349   4.102   1.869   6.870 -0.0768 -0.3811  0.8906
   81SOPE   C21 7350   3.996   1.792   6.890  0.2940  0.3074  0.2361
   81SOPE   O22 7351   3.897   1.821   6.952 -0.5592 -0.6251  0.2115
   81SOPE   C22 7352   4.018   1.663   6.817 -0.1644  0.0148 -0.8098
   81SOPE   H2R 7353   3.978   1.585   6.886 -0.2264 -0.4168 -1.3236
   81SOPE   H2S 7354   4.127   1.643   6.811 -0.4875 -2.0812 -0.5328
   81SOPE    C3 7355   4.147   2.109   6.845  0.7538  0.1508  0.2953
   81SOPE    HX 7356   4.256   2.125   6.861  1.4715 -2.4774 -1.3662
   81SOPE    HY 7357   4.098   2.206   6.869  0.4689  0.3400 -0.9604
   81SOPE   O31 7358   4.139   2.077   6.705  0.2413  0.1497  0.2459
   81SOPE   C31 7359   4.018   2.080   6.660  0.0517 -0.1927  0.2375
   81SOPE   O32 7360   3.914   2.096   6.727 -0.8320 -0.0913  0.1369
   81SOPE   C32 7361   4.013   2.036   6.513 -1.0685  0.2472  0.7026
   81SOPE   H2X 7362   3.923   1.974   6.497 -0.2200 -0.9196  0.3097
   81SOPE   H2Y 7363   4.103   1.973   6.498 -1.0072  0.6234 -0.5807
   81SOPE   C23 7364   3.943   1.670   6.675 -0.2147  0.6142 -0.1100
   81SOPE   H3R 7365   4.014   1.731   6.616  1.1746 -1.6398 -0.8701
   81SOPE   H3S 7366   3.838   1.707   6.683 -0.5815 -0.5530  0.7715
   81SOPE   C24 7367   3.926   1.536   6.597 -0.1496  0.6708  0.0441
   81SOPE   H4R 7368   4.017   1.478   6.624 -0.3509  0.5161  0.3892
   81SOPE   H4S 7369   3.832   1.488   6.631  0.8782 -0.2684  1.7085
   81SOPE   C25 7370   3.915   1.557   6.446 -0.7684  0.9825  0.2955
   81SOPE   H5R 7371   3.840   1.636   6.423  1.3773  2.8460 -0.7373
   81SOPE   H5S 7372   4.014   1.597   6.413  0.4945 -1.2489  1.2158
   81SOPE   C26 7373   3.881   1.422   6.380  0.3949  0.3068 -0.2740
   81SOPE   H6R 7374   3.971   1.408   6.317 -0.0377  0.3507 -0.9163
   81SOPE   H6S 7375   3.875   1.335   6.449  1.7520  1.5865  1.5691
   81SOPE   C27 7376   3.746   1.435   6.308  0.5733 -0.6496  0.3669
   81SOPE   H7R 7377   3.672   1.450   6.390  0.7161 -2.4630  0.8539
   81SOPE   H7S 7378   3.752   1.532   6.254  2.0773 -0.7111  0.3688
   81SOPE   C28 7379   3.719   1.324   6.211 -0.5240  0.7949 -0.3341
   81SOPE   H8R 7380   3.801   1.311   6.137 -0.4679  0.2029 -0.1718
   81SOPE   H8S 7381   3.721   1.229   6.270 -2.1922  1.3655  0.7047
   81SOPE   C29 7382   3.588   1.331   6.144  1.0871 -0.4100  0.1353
   81SOPE   H91 7383   3.509   1.319   6.220  4.2252  1.8455  4.1448
   81SOPE  C210 7384   3.553   1.348   6.013  0.4871 -0.0538  0.7295
   81SOPE  H101 7385   3.451   1.333   5.978  1.0893  0.8143 -1.5674
   81SOPE  C211 7386   3.654   1.368   5.916 -0.8258  0.4212 -0.3041
   81SOPE  H11R 7387   3.621   1.301   5.834  0.0535 -0.8118  0.3096
   81SOPE  H11S 7388   3.751   1.318   5.940 -1.1152 -0.4483 -0.8940
   81SOPE  C212 7389   3.680   1.508   5.865  0.8541  0.0674  0.1043
   81SOPE  H12R 7390   3.634   1.588   5.928 -1.7916 -1.6646  0.5536
   81SOPE  H12S 7391   3.623   1.523   5.771  0.6511 -1.8709 -0.1136
   81SOPE  C213 7392   3.827   1.530   5.833 -0.1721 -0.4134  0.1005
   81SOPE  H13R 7393   3.893   1.468   5.898  1.1829  1.9431  1.0884
   81SOPE  H13S 7394   3.856   1.634   5.859  2.3505 -1.0289  0.0761
   81SOPE  C214 7395   3.850   1.510   5.683 -0.2480  0.0985 -0.0415
   81SOPE  H14R 7396   3.774   1.573   5.633 -1.3573 -0.4552  0.8880
   81SOPE  H14S 7397   3.815   1.409   5.652 -0.4356  0.2190 -0.2276
   81SOPE  C215 7398   3.994   1.543   5.630  0.7232 -0.5053 -0.2074
   81SOPE  H15R 7399   4.070   1.479   5.681  1.2160 -0.0285 -0.3420
   81SOPE  H15S 7400   4.011   1.648   5.662 -2.3701 -0.2613  1.0233
   81SOPE  C216 7401   4.000   1.507   5.486 -0.3207  0.6071  1.1506
   81SOPE  H16R 7402   3.934   1.566   5.418  2.3709  1.2814 -1.0529
   81SOPE  H16S 7403   3.955   1.405   5.480  0.1582  0.4615 -1.1454
   81SOPE  C217 7404   4.128   1.520   5.408 -0.4804  0.4178 -0.3235
   81SOPE  H17R 7405   4.133   1.468   5.311 -1.1758 -0.5271  0.1358
   81SOPE  H17S 7406   4.208   1.482   5.475  0.8848  2.2830 -0.7977
   81SOPE  C218 7407   4.162   1.670   5.380 -0.3462 -0.0498 -0.3773
   81SOPE  H18R 7408   4.086   1.724   5.320  1.6525  2.9648 -0.3850
   81SOPE  H18S 7409   4.255   1.667   5.319  1.1558  3.3356  1.5288
   81SOPE  H18T 7410   4.180   1.713   5.480 -0.2068  2.8346 -1.5499
   81SOPE   C33 7411   4.019   2.156   6.420  0.1716 -0.5740 -0.6103
   81SOPE   H3X 7412   4.101   2.226   6.450 -0.4228  0.6580 -1.7642
   81SOPE   H3Y 7413   3.928   2.218   6.434  0.5947 -0.2358  0.7613
   81SOPE   C34 7414   4.038   2.122   6.277 -0.0978  0.2331  0.4339
   81SOPE   H4X 7415   3.964   2.048   6.240  0.5591 -0.4960  0.5525
   81SOPE   H4Y 7416   4.133   2.067   6.259  0.2308  0.9823 -0.1994
   81SOPE   C35 7417   4.026   2.242   6.183  0.2972 -0.2340  0.1415
   81SOPE   H5X 7418   4.058   2.337   6.230  1.8552 -0.5431 -0.2463
   81SOPE   H5Y 7419   3.919   2.238   6.151  0.1542  1.0063  0.4186
   81SOPE   C36 7420   4.111   2.233   6.055  0.3882  0.5968 -0.2059
   81SOPE   H6X 7421   4.219   2.224   6.079 -0.2735 -0.1879  2.9593
   81SOPE   H6Y 7422   4.097   2.326   5.996  3.8181  1.1461 -0.4010
   81SOPE   C37 7423   4.085   2.107   5.972  0.3499  0.1725  0.7149
   81SOPE   H7X 7424   3.977   2.091   5.950  0.5857 -1.5287  0.6280
   81SOPE   H7Y 7425   4.122   2.020   6.031  0.7210 -0.3408 -0.2448
   81SOPE   C38 7426   4.158   2.115   5.839 -0.1392  0.0290 -1.2088
   81SOPE   H8X 7427   4.267   2.129   5.855 -0.2284  0.6378 -1.1096
   81SOPE   H8Y 7428   4.106   2.193   5.780 -1.5913 -0.7530 -0.9958
   81SOPE   C39 7429   4.143   1.992   5.744  0.1364  0.7043 -0.2800
   81SOPE   H9X 7430   4.034   1.969   5.747  0.5430 -1.2665  1.2051
   81SOPE   H9Y 7431   4.194   1.903   5.787 -1.3916 -0.8912 -1.6287
   81SOPE  C310 7432   4.196   2.005   5.605 -0.3395 -0.2919  0.0678
   81SOPE  H10X 7433   4.256   1.915   5.582 -3.2323 -2.4827  0.5643
   81SOPE  H10Y 7434   4.254   2.100   5.599 -0.4250 -0.1623  1.1103
   81SOPE  C311 7435   4.084   2.023   5.497 -0.9649  0.6386 -0.3055
   81SOPE  H11X 7436   4.016   2.105   5.527 -2.1256 -0.6925  0.8807
   81SOPE  H11Y 7437   4.032   1.924   5.495  1.3911 -0.6750 -0.4733
   81SOPE  C312 7438   4.148   2.071   5.357  0.6062  0.4690 -0.2886
   81SOPE  H12X 7439   4.212   1.988   5.320  2.3096  0.5714  2.2043
   81SOPE  H12Y 7440   4.219   2.156   5.367 -2.4011  2.9178  2.0917
   81SOPE  C313 7441   4.045   2.115   5.252 -0.6929 -0.3027 -0.0732
   81SOPE  H13X 7442   3.970   2.187   5.292 -0.6904  0.5660 -1.5485
   81SOPE  H13Y 7443   3.979   2.028   5.234 -4.3422  1.9117  1.3711
   81SOPE  C314 7444   4.118   2.180   5.132 -0.1154  0.1381 -0.3383
   81SOPE  H14X 7445   4.195   2.111   5.092  0.5068  0.4779  0.2585
   81SOPE  H14Y 7446   4.178   2.266   5.169  0.4973 -0.5883  0.4069
   81SOPE  C315 7447   4.006   2.209   5.031 -0.7698 -0.2793  0.0473
   81SOPE  H15X 7448   3.920   2.248   5.090 -0.1016 -2.1914  2.4630
   81SOPE  H15Y 7449   3.973   2.115   4.983  0.2900 -0.6630  0.0345
   81SOPE  C316 7450   4.048   2.323   4.933  0.5796 -0.5984  0.3672
   81SOPE  H16X 7451   4.086   2.403   5.000 -1.4283  1.2789 -0.6129
   81SOPE  H16Y 7452   3.960   2.359   4.876  1.6112 -0.2230 -1.0657
   81SOPE  C317 7453   4.148   2.286   4.827 -0.1893  0.0844  0.0334
   81SOPE  H17X 7454   4.116   2.197   4.769  1.0336  0.4706 -1.2840
   81SOPE  H17Y 7455   4.243   2.249   4.871 -1.5033 -1.6594  1.5346
   81SOPE  C318 7456   4.183   2.404   4.735 -0.4840  0.0299 -0.6099
   81SOPE  H18X 7457   4.218   2.491   4.796  0.3677  0.6237 -1.9025
   81SOPE  H18Y 7458   4.102   2.443   4.670  0.3056 -0.3514 -1.8510
   81SOPE  H18Z 7459   4.268   2.383   4.668 -1.3978 -4.1305 -0.7127
   82SOPE     N 7460   4.689   3.034   7.951  0.1802 -0.7491 -0.2293
   82SOPE   HN1 7461   4.714   3.132   7.929 -0.6432 -0.5446 -0.2916
   82SOPE   HN2 7462   4.587   3.019   7.967  0.5039 -0.5368  2.4088
   82SOPE   HN3 7463   4.746   3.020   8.036  2.2940  2.4743 -0.9523
   82SOPE   C12 7464   4.739   2.955   7.838  0.2127 -0.3725  0.2186
   82SOPE  H12A 7465   4.712   2.850   7.861 -1.4573 -0.5091 -2.0081
   82SOPE  H12B 7466   4.850   2.955   7.835  0.2056 -0.4674 -1.3171
   82SOPE   C11 7467   4.699   2.990   7.697  0.0544  0.0751 -0.0783
   82SOPE  H11A 7468   4.751   2.929   7.619  0.0052 -0.3457  0.2134
   82SOPE  H11B 7469   4.719   3.098   7.682 -1.6494  0.3687 -0.3568
   82SOPE     P 7470   4.482   2.830   7.644  0.1614  0.2399  0.2787
   82SOPE   O13 7471   4.369   2.824   7.738  0.4612  0.4547 -0.0768
   82SOPE   O14 7472   4.577   2.718   7.624 -0.1045 -0.2415  0.1731
   82SOPE   O12 7473   4.563   2.958   7.681 -0.3760 -0.3570  0.8068
   82SOPE   O11 7474   4.423   2.868   7.502 -0.0799 -0.1910  0.3272
   82SOPE    C1 7475   4.333   2.979   7.492 -0.6205 -0.1796  0.7859
   82SOPE    HA 7476   4.379   3.070   7.537  1.8697  1.0837 -3.7312
   82SOPE    HB 7477   4.237   2.951   7.539 -0.2663 -1.2439  0.8969
   82SOPE    C2 7478   4.297   3.020   7.345  0.4766  1.2087  0.0413
   82SOPE    HS 7479   4.214   3.094   7.348 -0.7912 -0.0508 -1.4958
   82SOPE   O21 7480   4.247   2.898   7.284 -0.0070  0.2741 -0.3837
   82SOPE   C21 7481   4.180   2.894   7.174 -0.5580 -0.2633  0.2881
   82SOPE   O22 7482   4.148   2.992   7.101 -0.2156 -0.0609 -0.2697
   82SOPE   C22 7483   4.137   2.754   7.137 -0.1366 -0.7080  0.3739
   82SOPE   H2R 7484   4.037   2.738   7.183 -0.7442  0.4789 -0.4671
   82SOPE   H2S 7485   4.222   2.697   7.178  0.9414 -0.1616 -1.0150
   82SOPE    C3 7486   4.426   3.071   7.272 -0.0488  0.1161 -0.8657
   82SOPE    HX 7487   4.510   2.999   7.280  1.5515  1.8486 -1.4837
   82SOPE    HY 7488   4.455   3.160   7.332 -0.9011 -0.4030  0.3773
   82SOPE   O31 7489   4.404   3.106   7.140 -0.4579  0.4744 -0.1327
   82SOPE   C31 7490   4.443   3.029   7.038 -0.5604  0.2639 -0.5091
   82SOPE   O32 7491   4.477   2.914   7.053 -0.2970  0.0575  0.2237
   82SOPE   C32 7492   4.435   3.102   6.906 -0.3433 -0.6705  0.0242
   82SOPE   H2X 7493   4.508   3.184   6.921 -1.2918 -0.2195  2.7470
   82SOPE   H2Y 7494   4.338   3.155   6.899  0.7154  1.4980  0.8523
   82SOPE   C23 7495   4.128   2.741   6.983  0.3510  0.9318  0.3451
   82SOPE   H3R 7496   4.227   2.745   6.932  0.6545 -1.2040  0.6973
   82SOPE   H3S 7497   4.063   2.813   6.929  1.0920  0.0647 -1.8290
   82SOPE   C24 7498   4.053   2.603   6.953  0.0711 -0.3287 -0.2605
   82SOPE   H4R 7499   4.105   2.520   7.006 -3.7481 -2.0831  1.1211
   82SOPE   H4S 7500   3.950   2.603   6.996  0.5965 -0.4092  1.0293
   82SOPE   C25 7501   4.035   2.564   6.807 -0.3717 -0.0057  0.0246
   82SOPE   H5R 7502   3.969   2.475   6.800  0.0890 -0.2904 -0.8343
   82SOPE   H5S 7503   3.984   2.648   6.755 -0.4464  0.2463  0.4933
   82SOPE   C26 7504   4.168   2.564   6.724 -0.0955 -0.6131  0.7647
   82SOPE   H6R 7505   4.214   2.663   6.705  1.6559 -1.2495  1.5049
   82SOPE   H6S 7506   4.252   2.517   6.779 -0.0730 -0.3009  0.9979
   82SOPE   C27 7507   4.143   2.491   6.590 -0.4761  0.0076 -0.2123
   82SOPE   H7R 7508   4.119   2.384   6.608  0.5899 -0.2040  0.0363
   82SOPE   H7S 7509   4.053   2.535   6.542 -1.8777 -0.7487  1.6276
   82SOPE   C28 7510   4.264   2.505   6.497 -0.2456  0.9363  0.5031
   82SOPE   H8R 7511   4.253   2.481   6.389  3.2391 -1.0724  0.4551
   82SOPE   H8S 7512   4.288   2.614   6.503 -1.9404  1.3651  0.2787
   82SOPE   C29 7513   4.371   2.408   6.544  0.2947  0.9252  0.1511
   82SOPE   H91 7514   4.354   2.373   6.647 -0.4662  1.2841  0.1555
   82SOPE  C210 7515   4.478   2.366   6.473  0.6580 -0.0799 -0.0906
   82SOPE  H101 7516   4.539   2.286   6.518  0.2957  0.0622  0.6698
   82SOPE  C211 7517   4.531   2.399   6.340  0.0172 -0.2808  0.1894
   82SOPE  H11R 7518   4.441   2.413   6.277 -2.0190 -2.3606  2.4444
   82SOPE  H11S 7519   4.582   2.309   6.298 -1.1628 -1.0210  0.3129
   82SOPE  C212 7520   4.609   2.526   6.324  0.2046 -0.8964  0.2014
   82SOPE  H12R 7521   4.709   2.512   6.370  1.4644  1.5665 -1.6031
   82SOPE  H12S 7522   4.566   2.618   6.370 -0.0670 -1.0169  0.1920
   82SOPE  C213 7523   4.622   2.552   6.170 -0.8890 -0.0777  0.4070
   82SOPE  H13R 7524   4.523   2.570   6.122  0.8651  1.8503 -2.9673
   82SOPE  H13S 7525   4.684   2.471   6.127  2.6561  2.5107  0.1504
   82SOPE  C214 7526   4.695   2.684   6.146 -0.1182  0.5152  0.7724
   82SOPE  H14R 7527   4.797   2.688   6.189  0.7810 -0.3706 -1.1601
   82SOPE  H14S 7528   4.639   2.762   6.202 -0.4713 -0.0250  1.1744
   82SOPE  C215 7529   4.686   2.722   5.999 -0.1086  0.7684 -0.0168
   82SOPE  H15R 7530   4.755   2.803   5.967 -1.0042  1.6409  0.2079
   82SOPE  H15S 7531   4.581   2.745   5.971 -0.7300  0.3260  1.7726
   82SOPE  C216 7532   4.730   2.602   5.909 -0.1352 -0.6750 -0.4140
   82SOPE  H16R 7533   4.655   2.520   5.910  1.2618 -2.0533 -2.2059
   82SOPE  H16S 7534   4.820   2.554   5.953 -1.8555 -2.4625  1.3913
   82SOPE  C217 7535   4.758   2.647   5.766  0.7058 -0.0217 -0.9337
   82SOPE  H17R 7536   4.844   2.717   5.770  2.5271 -1.9862 -3.0769
   82SOPE  H17S 7537   4.674   2.700   5.717  0.6478  2.1215  1.2891
   82SOPE  C218 7538   4.806   2.533   5.673  0.9058 -0.5215 -0.0840
   82SOPE  H18R 7539   4.723   2.460   5.671  0.1584  0.3278 -0.9502
   82SOPE  H18S 7540   4.893   2.480   5.718 -0.5503 -3.0508 -0.0859
   82SOPE  H18T 7541   4.830   2.568   5.570 -2.3080  1.5618 -0.2542
   82SOPE   C33 7542   4.457   3.018   6.776  0.0588  0.1130 -0.1894
   82SOPE   H3X 7543   4.385   2.933   6.769  2.1775 -1.7319 -0.6018
   82SOPE   H3Y 7544   4.565   2.991   6.784  0.3460  0.7617 -1.6239
   82SOPE   C34 7545   4.448   3.106   6.656 -0.1388 -0.5119  0.8135
   82SOPE   H4X 7546   4.522   3.189   6.655 -0.9228  0.2102 -0.7530
   82SOPE   H4Y 7547   4.343   3.140   6.653 -0.0046 -0.0822  0.9856
   82SOPE   C35 7548   4.493   3.029   6.525 -0.2885  0.5287 -0.3261
   82SOPE   H5X 7549   4.446   2.928   6.532  0.4804  0.0602 -1.6910
   82SOPE   H5Y 7550   4.602   3.012   6.520 -0.2123  0.9759 -0.2218
   82SOPE   C36 7551   4.434   3.092   6.396 -0.4382  0.2321  0.0580
   82SOPE   H6X 7552   4.465   3.199   6.389 -1.7901  0.7055  0.8808
   82SOPE   H6Y 7553   4.323   3.091   6.396 -0.4437  0.3567  0.5475
   82SOPE   C37 7554   4.478   3.030   6.265 -0.2122  0.2279  0.3356
   82SOPE   H7X 7555   4.458   2.921   6.277 -0.8663  0.3458  0.3433
   82SOPE   H7Y 7556   4.588   3.037   6.252 -0.0911  0.4045  1.3603
   82SOPE   C38 7557   4.409   3.096   6.145  0.0742  0.4272 -0.3190
   82SOPE   H8X 7558   4.443   3.202   6.150  0.7203  0.2485 -0.8399
   82SOPE   H8Y 7559   4.298   3.095   6.155 -0.0131  4.3997  1.0836
   82SOPE   C39 7560   4.437   3.025   6.006  0.1001 -0.3524 -0.4302
   82SOPE   H9X 7561   4.415   2.916   6.013  0.5568 -0.3832  0.6852
   82SOPE   H9Y 7562   4.546   3.031   5.985  0.4661  1.7750  1.7015
   82SOPE  C310 7563   4.375   3.090   5.876  0.3350  0.3768  0.1347
   82SOPE  H10X 7564   4.265   3.103   5.880  0.3471  0.6165 -0.3047
   82SOPE  H10Y 7565   4.384   3.023   5.788  1.0027 -2.1292  1.9848
   82SOPE  C311 7566   4.450   3.219   5.855 -0.6982  0.0200  0.5846
   82SOPE  H11X 7567   4.555   3.185   5.839 -0.0755  2.5195 -1.1455
   82SOPE  H11Y 7568   4.444   3.287   5.942 -0.7706 -3.0080  3.1167
   82SOPE  C312 7569   4.398   3.294   5.728 -0.0808 -0.2929  1.0648
   82SOPE  H12X 7570   4.290   3.315   5.739  0.0456  1.1173 -0.0660
   82SOPE  H12Y 7571   4.421   3.237   5.635  0.5736 -0.2684  1.2053
   82SOPE  C313 7572   4.468   3.436   5.713  0.3767 -0.7802  1.1926
   82SOPE  H13X 7573   4.575   3.430   5.685  0.2871  1.0657  0.3315
   82SOPE  H13Y 7574   4.466   3.499   5.805  2.6497  1.3983 -0.1214
   82SOPE  C314 7575   4.397   3.513   5.594  0.7703  0.3924 -0.4087
   82SOPE  H14X 7576   4.289   3.524   5.616  0.0433 -1.0770 -2.7779
   82SOPE  H14Y 7577   4.409   3.458   5.498 -0.9900 -0.2792 -0.2701
   82SOPE  C315 7578   4.458   3.657   5.578  0.1126  0.3393 -0.2708
   82SOPE  H15X 7579   4.418   3.695   5.482 -0.4230 -1.9592 -1.0324
   82SOPE  H15Y 7580   4.568   3.648   5.570 -0.0848 -1.5505 -1.6555
   82SOPE  C316 7581   4.405   3.745   5.696  0.3052 -0.3179  1.1715
   82SOPE  H16X 7582   4.437   3.708   5.796 -0.7155  1.6308  2.2659
   82SOPE  H16Y 7583   4.294   3.751   5.697  0.3332  0.3222  0.8258
   82SOPE  C317 7584   4.448   3.887   5.676  0.1616  0.2901  0.0071
   82SOPE  H17X 7585   4.439   3.919   5.569 -1.7902 -2.6501 -0.8449
   82SOPE  H17Y 7586   4.554   3.885   5.709  0.0830 -2.5931  0.3111
   82SOPE  C318 7587   4.357   3.983   5.755 -0.3794  0.5690 -0.4422
   82SOPE  H18X 7588   4.402   4.085   5.757  0.2091  0.3266 -0.9801
   82SOPE  H18Y 7589   4.358   3.942   5.858 -0.3026 -3.1968 -1.7767
   82SOPE  H18Z 7590   4.255   3.970   5.712 -0.2241 -1.2743 -0.3300
   83SOPE     N 7591   1.847   4.649   3.094  0.7502  0.7385 -0.4762
   83SOPE   HN1 7592   1.895   4.585   3.028 -1.3144  0.0138 -1.3523
   83SOPE   HN2 7593   1.745   4.632   3.104  0.7866  1.5529  2.0042
   83SOPE   HN3 7594   1.871   4.746   3.065  3.2774  0.7284  1.2559
   83SOPE   C12 7595   1.910   4.627   3.234  0.5564 -0.2908 -0.2912
   83SOPE  H12A 7596   1.905   4.516   3.236 -1.1392 -0.2378  0.0971
   83SOPE  H12B 7597   1.839   4.673   3.306 -1.9017 -1.5126 -1.7533
   83SOPE   C11 7598   2.047   4.686   3.253  0.3740 -0.1645 -0.1029
   83SOPE  H11A 7599   2.076   4.682   3.360  0.0072  0.0111  0.0063
   83SOPE  H11B 7600   2.042   4.795   3.233 -3.2673  0.1670  1.6947
   83SOPE     P 7601   2.296   4.654   3.186  0.1893 -0.1725 -0.1180
   83SOPE   O13 7602   2.321   4.801   3.182  0.2364 -1.1467  0.1763
   83SOPE   O14 7603   2.356   4.568   3.077 -0.2946  0.3222 -0.2131
   83SOPE   O12 7604   2.138   4.630   3.163  0.1809  0.6419 -0.0528
   83SOPE   O11 7605   2.335   4.607   3.336 -0.1215 -0.4112 -0.6311
   83SOPE    C1 7606   2.312   4.469   3.368 -0.6728 -0.3663  0.5181
   83SOPE    HA 7607   2.363   4.399   3.298  0.9590 -0.6457  1.9378
   83SOPE    HB 7608   2.204   4.444   3.373 -0.9090 -0.4157 -2.4978
   83SOPE    C2 7609   2.387   4.427   3.499  0.5078 -0.0958 -0.3109
   83SOPE    HS 7610   2.375   4.318   3.515  0.4750 -0.2911 -1.5768
   83SOPE   O21 7611   2.327   4.504   3.613 -0.5718  0.0498 -0.0158
   83SOPE   C21 7612   2.200   4.483   3.632 -0.2195  1.0007 -0.3715
   83SOPE   O22 7613   2.132   4.395   3.585  0.0308  0.4660 -0.3181
   83SOPE   C22 7614   2.155   4.583   3.745  0.1621 -0.8092  0.5542
   83SOPE   H2R 7615   2.044   4.584   3.738  0.2495  0.7425 -2.8277
   83SOPE   H2S 7616   2.184   4.680   3.698 -1.2951  0.5149  2.2614
   83SOPE    C3 7617   2.542   4.464   3.497  0.4175 -0.0351 -0.2994
   83SOPE    HX 7618   2.555   4.571   3.472 -0.0330  0.5865  1.9779
   83SOPE    HY 7619   2.585   4.400   3.416 -0.1991 -2.4984  1.2025
   83SOPE   O31 7620   2.618   4.445   3.624 -0.1157  0.3292  0.0750
   83SOPE   C31 7621   2.642   4.555   3.696 -0.0238  0.5321  0.4585
   83SOPE   O32 7622   2.613   4.666   3.664 -0.3406 -0.8300  0.7960
   83SOPE   C32 7623   2.693   4.518   3.830  0.5370 -0.2321  0.3176
   83SOPE   H2X 7624   2.803   4.529   3.835  0.4572  0.1465  1.8688
   83SOPE   H2Y 7625   2.683   4.408   3.845  0.1182 -0.1662  0.5486
   83SOPE   C23 7626   2.217   4.571   3.883  0.4418 -0.4808  0.6271
   83SOPE   H3R 7627   2.327   4.586   3.884  0.1886  1.8624  0.3329
   83SOPE   H3S 7628   2.189   4.473   3.928 -0.2901 -0.2982  0.5841
   83SOPE   C24 7629   2.174   4.686   3.976 -0.2564 -0.1687  0.0649
   83SOPE   H4R 7630   2.221   4.778   3.935  0.7772 -1.8417 -2.7826
   83SOPE   H4S 7631   2.064   4.698   3.960 -0.4605 -1.1135  0.7220
   83SOPE   C25 7632   2.193   4.663   4.127 -0.0537 -0.8459  0.4474
   83SOPE   H5R 7633   2.156   4.558   4.135 -0.0045 -0.8959  0.0373
   83SOPE   H5S 7634   2.301   4.673   4.151  0.3406 -1.1400 -1.0559
   83SOPE   C26 7635   2.107   4.750   4.215 -0.6292 -0.4696  0.0514
   83SOPE   H6R 7636   2.145   4.854   4.216 -1.2801 -0.1599  3.5673
   83SOPE   H6S 7637   2.004   4.739   4.174  0.5058 -1.2599 -2.8323
   83SOPE   C27 7638   2.130   4.703   4.366 -0.6973  0.1358  0.0380
   83SOPE   H7R 7639   2.090   4.599   4.377  0.3447 -0.3640 -0.7416
   83SOPE   H7S 7640   2.239   4.699   4.388 -0.9500  0.0116  1.3631
   83SOPE   C28 7641   2.061   4.784   4.475  0.5533  0.1507 -0.0524
   83SOPE   H8R 7642   2.071   4.893   4.457  0.5648  0.0384 -0.7552
   83SOPE   H8S 7643   1.951   4.767   4.468  0.4867 -0.0439  1.1278
   83SOPE   C29 7644   2.108   4.747   4.610 -0.4805 -0.1435  0.4426
   83SOPE   H91 7645   2.216   4.754   4.629 -0.2473  0.7762 -1.1242
   83SOPE  C210 7646   2.037   4.700   4.714  0.4376  0.2017 -0.4866
   83SOPE  H101 7647   2.090   4.679   4.808  0.0793  2.1697  0.2004
   83SOPE  C211 7648   1.890   4.665   4.703 -0.5273 -0.2148  0.1319
   83SOPE  H11R 7649   1.873   4.569   4.757 -1.3488 -0.6968 -0.9459
   83SOPE  H11S 7650   1.863   4.640   4.598 -0.9954 -2.0868  0.6609
   83SOPE  C212 7651   1.797   4.779   4.745 -0.3866 -0.1585 -0.5352
   83SOPE  H12R 7652   1.823   4.869   4.685  0.9155 -0.4740 -0.4912
   83SOPE  H12S 7653   1.834   4.807   4.846  1.2384 -0.5814 -0.9708
   83SOPE  C213 7654   1.649   4.749   4.732  0.3892  0.0711  0.0931
   83SOPE  H13R 7655   1.635   4.691   4.638 -3.1014  0.9305 -0.0641
   83SOPE  H13S 7656   1.598   4.847   4.729  1.1675  1.1284  6.5749
   83SOPE  C214 7657   1.596   4.673   4.854  0.8378  0.5926  0.1369
   83SOPE  H14R 7658   1.605   4.744   4.939 -0.7323  1.3195 -0.2584
   83SOPE  H14S 7659   1.653   4.579   4.870 -0.5696 -0.9671 -2.9983
   83SOPE  C215 7660   1.450   4.629   4.840 -0.0229 -0.2093  0.6788
   83SOPE  H15R 7661   1.439   4.553   4.760 -1.4351 -1.9066  2.4071
   83SOPE  H15S 7662   1.383   4.707   4.799 -0.1801 -1.0048 -0.6264
   83SOPE  C216 7663   1.387   4.596   4.977  0.4920  0.0517  0.0630
   83SOPE  H16R 7664   1.409   4.671   5.056 -1.3451  0.5754  0.1437
   83SOPE  H16S 7665   1.434   4.501   5.010  1.0356  0.9284  1.9169
   83SOPE  C217 7666   1.240   4.569   4.961  0.0698  0.0871 -0.6317
   83SOPE  H17R 7667   1.223   4.490   4.884  1.3115  1.9198 -2.9041
   83SOPE  H17S 7668   1.191   4.660   4.920  0.4946  1.3178  1.4534
   83SOPE  C218 7669   1.175   4.539   5.091  0.1560  0.3728  0.1517
   83SOPE  H18R 7670   1.211   4.452   5.151 -2.3164  1.2056  3.1377
   83SOPE  H18S 7671   1.065   4.528   5.081  0.3126 -1.8672  0.3892
   83SOPE  H18T 7672   1.193   4.622   5.162 -0.3848  1.9569 -1.4779
   83SOPE   C33 7673   2.610   4.582   3.946 -0.4705 -0.3954  0.5439
   83SOPE   H3X 7674   2.513   4.532   3.967 -0.1582 -0.0276  3.2824
   83SOPE   H3Y 7675   2.591   4.690   3.927 -2.0301 -0.6282  0.6091
   83SOPE   C34 7676   2.683   4.584   4.079 -0.4149  0.3660 -0.7159
   83SOPE   H4X 7677   2.782   4.633   4.080  0.4010 -1.2154 -1.2183
   83SOPE   H4Y 7678   2.703   4.478   4.101 -2.1657  0.1953  0.2771
   83SOPE   C35 7679   2.608   4.661   4.187 -0.1940  0.6311 -0.3459
   83SOPE   H5X 7680   2.504   4.622   4.195 -1.2340  2.9856 -1.3827
   83SOPE   H5Y 7681   2.596   4.764   4.149 -0.0657  0.0825 -1.9530
   83SOPE   C36 7682   2.690   4.662   4.315  0.3418 -0.1070 -0.2292
   83SOPE   H6X 7683   2.795   4.690   4.293  0.5119  0.0898  0.7909
   83SOPE   H6Y 7684   2.679   4.560   4.358  2.2181 -0.0371  0.5290
   83SOPE   C37 7685   2.644   4.775   4.400  0.3196 -0.3997 -0.8622
   83SOPE   H7X 7686   2.536   4.794   4.382 -1.6793 -3.3006  5.1789
   83SOPE   H7Y 7687   2.699   4.870   4.384  0.8105 -0.3151  1.0046
   83SOPE   C38 7688   2.630   4.736   4.555 -0.2783 -0.0338  0.7376
   83SOPE   H8X 7689   2.732   4.737   4.599  0.2918 -1.7747 -0.4620
   83SOPE   H8Y 7690   2.586   4.636   4.575 -0.1110 -0.4769 -0.9950
   83SOPE   C39 7691   2.550   4.844   4.629 -0.6571  0.5907 -0.1753
   83SOPE   H9X 7692   2.445   4.821   4.601 -0.8484  0.1021  0.9066
   83SOPE   H9Y 7693   2.580   4.947   4.603 -2.0878  1.0820  0.0494
   83SOPE  C310 7694   2.562   4.830   4.776  0.0881 -0.0377 -0.5534
   83SOPE  H10X 7695   2.670   4.840   4.801  0.4134  2.2866 -2.5113
   83SOPE  H10Y 7696   2.541   4.723   4.793  1.7516 -0.0630  1.8608
   83SOPE  C311 7697   2.470   4.919   4.856  0.0154  0.0149  0.2496
   83SOPE  H11X 7698   2.366   4.894   4.825 -0.0173  0.7080 -0.2178
   83SOPE  H11Y 7699   2.482   5.028   4.841 -0.7039 -0.3629 -4.6242
   83SOPE  C312 7700   2.472   4.885   5.007  0.2862  0.1996  0.4833
   83SOPE  H12X 7701   2.451   4.778   5.025  4.1348 -0.3691  2.9769
   83SOPE  H12Y 7702   2.386   4.937   5.055 -0.4300  0.4464 -1.0186
   83SOPE  C313 7703   2.602   4.918   5.078 -0.1197 -0.5386 -0.1557
   83SOPE  H13X 7704   2.641   5.013   5.037 -2.2496  0.1036 -0.8479
   83SOPE  H13Y 7705   2.673   4.836   5.054  0.7678  0.8274 -2.5547
   83SOPE  C314 7706   2.593   4.905   5.237  0.6413 -0.4552  0.2763
   83SOPE  H14X 7707   2.697   4.898   5.275  1.7083  0.3878 -2.2304
   83SOPE  H14Y 7708   2.528   4.819   5.264 -2.1923  1.9770  1.8815
   83SOPE  C315 7709   2.518   5.026   5.303  0.1006  0.0972 -0.5390
   83SOPE  H15X 7710   2.412   5.033   5.268 -0.0398 -0.2130 -0.1851
   83SOPE  H15Y 7711   2.561   5.125   5.277  1.1325  0.6862  2.9011
   83SOPE  C316 7712   2.508   5.011   5.456  0.0762 -0.0113  0.3474
   83SOPE  H16X 7713   2.601   5.043   5.508  0.0457 -0.1240  0.4731
   83SOPE  H16Y 7714   2.485   4.905   5.480 -1.5337  0.7310  2.3982
   83SOPE  C317 7715   2.389   5.085   5.518 -0.0001 -0.6970  0.5180
   83SOPE  H17X 7716   2.361   5.044   5.617  0.5290 -0.0854  0.9310
   83SOPE  H17Y 7717   2.300   5.053   5.459 -0.1871 -1.4093  1.1693
   83SOPE  C318 7718   2.393   5.242   5.537 -0.4337  0.3424 -0.4055
   83SOPE  H18X 7719   2.362   5.290   5.442 -0.4927  0.4880 -0.3130
   83SOPE  H18Y 7720   2.495   5.277   5.566 -0.3240  3.2023 -3.6176
   83SOPE  H18Z 7721   2.307   5.270   5.600 -0.5050 -2.1277  0.7055
   84SOPE     N 7722   5.727   4.764   3.281 -0.2341 -0.6308 -0.0011
   84SOPE   HN1 7723   5.678   4.804   3.363 -0.4266  0.0316 -0.4283
   84SOPE   HN2 7724   5.711   4.833   3.204 -0.9018 -0.3058  0.4234
   84SOPE   HN3 7725   5.674   4.677   3.263 -1.5733  0.1988 -0.2132
   84SOPE   C12 7726   5.870   4.723   3.301 -0.2031 -0.1373 -0.0002
   84SOPE  H12A 7727   5.933   4.813   3.281 -1.4713  0.7101 -0.2970
   84SOPE  H12B 7728   5.902   4.644   3.231 -0.4683 -1.5729  1.4338
   84SOPE   C11 7729   5.891   4.645   3.430 -0.3283 -0.2723 -0.0538
   84SOPE  H11A 7730   5.840   4.708   3.506 -1.9058 -1.2723 -0.2264
   84SOPE  H11B 7731   5.997   4.631   3.460 -0.5586 -0.5662  0.6410
   84SOPE     P 7732   5.903   4.381   3.367  0.3319 -0.1730  0.1212
   84SOPE   O13 7733   5.954   4.424   3.235  0.7222  0.2708  0.4839
   84SOPE   O14 7734   5.818   4.261   3.369  0.3365 -0.0498 -0.3199
   84SOPE   O12 7735   5.826   4.514   3.430  0.0528 -0.3015 -0.0573
   84SOPE   O11 7736   6.025   4.361   3.469 -0.4575 -0.3792  0.2784
   84SOPE    C1 7737   5.991   4.381   3.611 -1.0267  0.4828  0.0054
   84SOPE    HA 7738   5.939   4.289   3.645 -1.0850  0.8406  0.8975
   84SOPE    HB 7739   5.924   4.466   3.634 -0.4711  0.2591  2.7748
   84SOPE    C2 7740   6.128   4.399   3.681 -0.0966  0.3971  0.4023
   84SOPE    HS 7741   6.195   4.321   3.641 -0.0708  1.1065 -0.9776
   84SOPE   O21 7742   6.110   4.389   3.824 -0.2021  0.1162 -0.0290
   84SOPE   C21 7743   6.212   4.322   3.887 -0.3970  0.8374 -0.3882
   84SOPE   O22 7744   6.289   4.244   3.832  0.2974 -1.0543  0.3112
   84SOPE   C22 7745   6.210   4.347   4.031  0.9965 -0.4840  0.0656
   84SOPE   H2R 7746   6.133   4.416   4.070  0.3209 -0.9547 -0.4027
   84SOPE   H2S 7747   6.307   4.389   4.064 -0.0222  1.6224  0.5127
   84SOPE    C3 7748   6.183   4.538   3.648 -0.3413 -0.2123 -0.0543
   84SOPE    HX 7749   6.105   4.612   3.678  0.3247  0.2454  0.6019
   84SOPE    HY 7750   6.191   4.541   3.537 -1.1308 -0.4860 -0.1197
   84SOPE   O31 7751   6.311   4.568   3.714 -0.0362  0.1604 -0.0628
   84SOPE   C31 7752   6.384   4.657   3.649 -0.3658  0.7876 -0.0826
   84SOPE   O32 7753   6.356   4.721   3.549  0.5921 -0.2249  0.2311
   84SOPE   C32 7754   6.517   4.676   3.717  0.7542 -0.6994 -0.2320
   84SOPE   H2X 7755   6.506   4.739   3.808 -2.3304  0.1551 -1.0642
   84SOPE   H2Y 7756   6.578   4.720   3.635 -0.1573 -2.2378 -1.8222
   84SOPE   C23 7757   6.187   4.206   4.100  0.4726  0.0370  0.5893
   84SOPE   H3R 7758   6.274   4.143   4.071 -0.0060 -1.5742  2.3976
   84SOPE   H3S 7759   6.092   4.173   4.053  0.4547  1.4778 -0.4556
   84SOPE   C24 7760   6.193   4.204   4.252  0.7015  0.7225 -0.5247
   84SOPE   H4R 7761   6.293   4.223   4.296 -0.4829  0.0908  2.6891
   84SOPE   H4S 7762   6.126   4.281   4.296 -0.0424  1.0755 -2.1933
   84SOPE   C25 7763   6.152   4.057   4.295 -0.0364  0.6459  0.1767
   84SOPE   H5R 7764   6.045   4.049   4.263  0.0948 -0.9423  0.0754
   84SOPE   H5S 7765   6.224   3.991   4.242  1.6153  2.6358 -0.1877
   84SOPE   C26 7766   6.167   4.043   4.444  0.1477  0.2474  0.4206
   84SOPE   H6R 7767   6.142   4.146   4.477 -1.6516  0.3834 -1.2012
   84SOPE   H6S 7768   6.084   3.979   4.482 -1.2288  1.7932  0.0877
   84SOPE   C27 7769   6.303   4.002   4.505  0.0627  0.8608  0.0253
   84SOPE   H7R 7770   6.324   3.893   4.501  1.2583  1.1197 -1.1973
   84SOPE   H7S 7771   6.373   4.056   4.439 -0.0439 -1.1347 -1.8162
   84SOPE   C28 7772   6.327   4.047   4.650 -0.7609  0.5114 -0.0014
   84SOPE   H8R 7773   6.428   4.009   4.679 -0.9901  0.9557  1.4647
   84SOPE   H8S 7774   6.326   4.158   4.650  0.6164  0.5503  0.7111
   84SOPE   C29 7775   6.221   3.978   4.737  0.0200 -0.6448 -0.2021
   84SOPE   H91 7776   6.194   3.878   4.698 -0.4622 -0.2163 -0.9885
   84SOPE  C210 7777   6.152   4.034   4.835 -0.3555  0.2057  0.1038
   84SOPE  H101 7778   6.074   3.973   4.884 -2.0225  2.6397  0.6957
   84SOPE  C211 7779   6.161   4.173   4.890  0.4446 -0.2920  0.7117
   84SOPE  H11R 7780   6.062   4.219   4.871  0.2103 -0.7538  0.8104
   84SOPE  H11S 7781   6.246   4.226   4.842 -0.0818 -0.1777 -0.1015
   84SOPE  C212 7782   6.195   4.171   5.032  0.1300 -0.2193 -0.1504
   84SOPE  H12R 7783   6.297   4.128   5.038  0.5145  0.2275 -2.4644
   84SOPE  H12S 7784   6.126   4.098   5.078 -0.3405 -0.0920 -0.6499
   84SOPE  C213 7785   6.193   4.306   5.114 -0.5808  0.2159  0.3860
   84SOPE  H13R 7786   6.084   4.329   5.105 -0.6899 -0.1599  0.6857
   84SOPE  H13S 7787   6.264   4.376   5.068  1.0840 -2.7085 -1.8294
   84SOPE  C214 7788   6.229   4.286   5.262  0.3706 -0.0945 -0.2342
   84SOPE  H14R 7789   6.174   4.197   5.298  1.2291 -0.4326  0.2726
   84SOPE  H14S 7790   6.198   4.378   5.316  2.3822  1.1843 -1.1321
   84SOPE  C215 7791   6.376   4.287   5.301 -0.3212  0.1952  0.1037
   84SOPE  H15R 7792   6.437   4.372   5.262  0.3523  0.8439  2.4207
   84SOPE  H15S 7793   6.416   4.192   5.259  0.4439  0.8034 -0.5886
   84SOPE  C216 7794   6.404   4.298   5.453 -0.7473  0.4839 -0.9175
   84SOPE  H16R 7795   6.360   4.205   5.495  3.8322 -0.2758  3.1558
   84SOPE  H16S 7796   6.370   4.392   5.501  0.2736  0.2036  0.4085
   84SOPE  C217 7797   6.553   4.310   5.488 -0.2536 -0.7750 -0.1011
   84SOPE  H17R 7798   6.607   4.224   5.443 -2.5088 -1.4537 -1.7322
   84SOPE  H17S 7799   6.554   4.306   5.599 -1.6636  2.7340  0.1755
   84SOPE  C218 7800   6.611   4.447   5.449 -0.0357 -0.5262  0.1901
   84SOPE  H18R 7801   6.546   4.526   5.493  0.0018  0.3804 -1.3005
   84SOPE  H18S 7802   6.607   4.467   5.340 -1.8146 -0.5802  0.2151
   84SOPE  H18T 7803   6.716   4.458   5.483 -0.4095 -1.8478  1.9460
   84SOPE   C33 7804   6.572   4.545   3.762 -0.2557 -0.1560 -0.2282
   84SOPE   H3X 7805   6.683   4.542   3.755 -0.3296 -2.5260 -1.4003
   84SOPE   H3Y 7806   6.544   4.460   3.696  2.2557 -0.7706 -0.6010
   84SOPE   C34 7807   6.533   4.513   3.910  0.3802 -0.2820  0.1216
   84SOPE   H4X 7808   6.423   4.505   3.920  0.4700 -0.6487  0.9104
   84SOPE   H4Y 7809   6.570   4.596   3.973 -0.2653 -0.0414  0.1824
   84SOPE   C35 7810   6.604   4.380   3.957  0.0460  0.5380  0.0301
   84SOPE   H5X 7811   6.711   4.378   3.929  0.5966 -2.3135  1.8891
   84SOPE   H5Y 7812   6.561   4.290   3.907 -2.3303 -0.9780  4.2644
   84SOPE   C36 7813   6.604   4.361   4.113  0.4547 -0.3195  0.6110
   84SOPE   H6X 7814   6.507   4.337   4.160 -0.1859 -0.1551 -0.5683
   84SOPE   H6Y 7815   6.645   4.455   4.156  0.2446 -0.0126  0.1494
   84SOPE   C37 7816   6.696   4.252   4.152  0.1541 -0.2403 -0.1306
   84SOPE   H7X 7817   6.800   4.286   4.134  0.7557 -0.9356  1.7776
   84SOPE   H7Y 7818   6.671   4.165   4.087  0.9721 -0.8805  0.3953
   84SOPE   C38 7819   6.680   4.226   4.298  0.2879 -0.3316 -0.2014
   84SOPE   H8X 7820   6.579   4.182   4.310 -0.3464  1.6464  3.2195
   84SOPE   H8Y 7821   6.679   4.316   4.364 -2.6573  0.7742 -1.5588
   84SOPE   C39 7822   6.789   4.130   4.356  0.1276  0.0702  0.3291
   84SOPE   H9X 7823   6.890   4.177   4.351  0.7288 -0.9035  2.5277
   84SOPE   H9Y 7824   6.785   4.043   4.287 -0.2568 -0.0767  0.5357
   84SOPE  C310 7825   6.746   4.095   4.500 -0.1164 -0.3076 -0.1883
   84SOPE  H10X 7826   6.794   3.998   4.526  2.2641  0.4907 -1.2511
   84SOPE  H10Y 7827   6.636   4.085   4.511 -0.2341  1.5795  0.5930
   84SOPE  C311 7828   6.791   4.193   4.615  0.2722  0.0286  0.6727
   84SOPE  H11X 7829   6.753   4.291   4.581 -1.8121 -0.8239  0.3999
   84SOPE  H11Y 7830   6.901   4.194   4.629  0.4863  1.6332 -0.8120
   84SOPE  C312 7831   6.721   4.168   4.743  0.1927 -0.3930  0.4521
   84SOPE  H12X 7832   6.615   4.142   4.723  0.9027 -1.3753 -2.5932
   84SOPE  H12Y 7833   6.729   4.252   4.816  1.8789 -1.2300  1.2800
   84SOPE  C313 7834   6.776   4.051   4.826 -0.0123 -0.0629  0.0236
   84SOPE  H13X 7835   6.862   4.089   4.887 -1.4577  1.2789  1.3227
   84SOPE  H13Y 7836   6.798   3.968   4.757 -2.3638 -0.7964  0.0692
   84SOPE  C314 7837   6.691   3.991   4.945  0.1600  0.3488  1.1631
   84SOPE  H14X 7838   6.603   3.941   4.898  3.6537 -2.5093 -3.2418
   84SOPE  H14Y 7839   6.651   4.067   5.015 -0.0956  0.5902  0.7588
   84SOPE  C315 7840   6.754   3.884   5.032  0.0529 -0.1160  0.2975
   84SOPE  H15X 7841   6.804   3.819   4.958 -1.9576 -0.8418 -0.5052
   84SOPE  H15Y 7842   6.673   3.828   5.085  0.6484  0.8831  2.3524
   84SOPE  C316 7843   6.868   3.944   5.117  0.1306  0.0399 -0.1940
   84SOPE  H16X 7844   6.825   4.024   5.183  0.5362  1.3056 -1.4218
   84SOPE  H16Y 7845   6.932   3.996   5.043  0.4587 -0.9692 -0.6220
   84SOPE  C317 7846   6.944   3.837   5.208  0.2254 -0.2959  0.0696
   84SOPE  H17X 7847   7.018   3.896   5.265 -2.4591  0.1363  3.4369
   84SOPE  H17Y 7848   6.986   3.763   5.137  2.7627 -0.3204  1.5120
   84SOPE  C318 7849   6.855   3.766   5.307  0.7607  0.8145  0.0808
   84SOPE  H18X 7850   6.760   3.754   5.251  0.3256 -0.3499  1.0298
   84SOPE  H18Y 7851   6.833   3.823   5.399  0.0588  0.1684  0.3231
   84SOPE  H18Z 7852   6.893   3.663   5.326 -2.9264 -0.7830 -0.4015
   85SOPE     N 7853   3.248   0.951   3.118  0.1835 -0.0974 -0.1388
   85SOPE   HN1 7854   3.304   0.951   3.206 -0.5542 -0.0052  0.3390
   85SOPE   HN2 7855   3.286   1.026   3.056  0.8795 -0.3474 -0.0168
   85SOPE   HN3 7856   3.154   0.979   3.153  0.7916 -0.4306  1.8965
   85SOPE   C12 7857   3.251   0.811   3.057 -1.0503  0.8664 -0.3279
   85SOPE  H12A 7858   3.359   0.795   3.034 -0.6071 -0.8028  2.4315
   85SOPE  H12B 7859   3.191   0.804   2.964 -0.5166 -1.3411 -0.5760
   85SOPE   C11 7860   3.217   0.697   3.163 -0.5590 -0.3423 -0.0972
   85SOPE  H11A 7861   3.307   0.687   3.228 -0.1800  1.5292 -0.2691
   85SOPE  H11B 7862   3.219   0.598   3.112  3.5590 -0.9300  0.8789
   85SOPE     P 7863   2.962   0.742   3.161 -0.1120 -0.1280 -0.0031
   85SOPE   O13 7864   2.915   0.613   3.113  0.0145  0.1032 -0.5473
   85SOPE   O14 7865   2.959   0.851   3.061  0.0528  0.3391 -0.0413
   85SOPE   O12 7866   3.096   0.731   3.235 -0.1511 -0.0250 -0.3018
   85SOPE   O11 7867   2.858   0.779   3.280  0.0784 -0.2406 -0.5043
   85SOPE    C1 7868   2.917   0.830   3.400  0.2944 -0.3423  0.2867
   85SOPE    HA 7869   2.848   0.905   3.443 -1.5778 -2.1029  0.5371
   85SOPE    HB 7870   3.014   0.882   3.389  1.4467 -1.5491  3.5860
   85SOPE    C2 7871   2.947   0.718   3.498  0.0871  0.3996 -0.0459
   85SOPE    HS 7872   3.023   0.651   3.452 -2.4983 -2.2619 -0.7159
   85SOPE   O21 7873   2.826   0.653   3.530 -0.1384 -0.0653 -0.1321
   85SOPE   C21 7874   2.842   0.527   3.563  0.0971 -0.0541  0.7460
   85SOPE   O22 7875   2.950   0.468   3.568  0.5718 -0.7308 -0.4420
   85SOPE   C22 7876   2.709   0.459   3.603  0.0625  0.1776  0.5772
   85SOPE   H2R 7877   2.646   0.462   3.511 -0.3761  0.7728  0.8891
   85SOPE   H2S 7878   2.667   0.533   3.674  0.4934  0.3079  0.6990
   85SOPE    C3 7879   3.020   0.783   3.632 -0.0748  0.2750  1.1059
   85SOPE    HX 7880   3.120   0.824   3.604  0.3688 -2.0899 -1.1689
   85SOPE    HY 7881   3.038   0.702   3.705  4.5184 -0.8555 -0.8639
   85SOPE   O31 7882   2.939   0.897   3.693  0.1224 -0.0063  0.2790
   85SOPE   C31 7883   2.845   0.864   3.777  0.1320 -0.1667 -0.7130
   85SOPE   O32 7884   2.802   0.752   3.805 -0.4732  0.3828 -0.3504
   85SOPE   C32 7885   2.800   0.986   3.851  0.0958 -0.5523  0.1924
   85SOPE   H2X 7886   2.704   1.014   3.802  0.1907 -0.7719 -0.1207
   85SOPE   H2Y 7887   2.874   1.063   3.819 -2.2891  1.6302 -0.4395
   85SOPE   C23 7888   2.724   0.321   3.659  0.0894  0.3681 -0.2379
   85SOPE   H3R 7889   2.782   0.322   3.754 -2.0064 -0.1877  1.1068
   85SOPE   H3S 7890   2.774   0.248   3.592 -1.2667 -0.0655 -0.8114
   85SOPE   C24 7891   2.590   0.254   3.690  0.0687 -0.4225 -0.5830
   85SOPE   H4R 7892   2.524   0.258   3.600 -1.3333 -3.4574  0.1785
   85SOPE   H4S 7893   2.615   0.148   3.710  1.1296  0.3723  2.9683
   85SOPE   C25 7894   2.519   0.319   3.810  0.5588 -1.0200  0.2575
   85SOPE   H5R 7895   2.508   0.428   3.793  2.3620 -0.6660  1.0824
   85SOPE   H5S 7896   2.418   0.277   3.830  0.2580 -0.6264 -0.3951
   85SOPE   C26 7897   2.590   0.305   3.942 -0.6335 -0.2478  0.1686
   85SOPE   H6R 7898   2.689   0.356   3.936 -0.5935 -0.4381 -1.0106
   85SOPE   H6S 7899   2.528   0.361   4.015  1.7884  0.7395  1.6107
   85SOPE   C27 7900   2.601   0.152   3.981 -0.2533 -0.5731  0.2171
   85SOPE   H7R 7901   2.503   0.107   3.954 -2.2901  2.8043  1.3105
   85SOPE   H7S 7902   2.686   0.114   3.920  0.9745  1.8965  0.2919
   85SOPE   C28 7903   2.642   0.152   4.131 -0.5140 -0.1314  0.0515
   85SOPE   H8R 7904   2.742   0.200   4.133  0.2956 -1.6652 -1.1315
   85SOPE   H8S 7905   2.572   0.227   4.174 -0.3513 -1.7323  3.4019
   85SOPE   C29 7906   2.644   0.014   4.196  0.0402  0.1265  0.0934
   85SOPE   H91 7907   2.708  -0.062   4.148  1.7528  0.7764  1.2325
   85SOPE  C210 7908   2.582  -0.019   4.314 -0.2576 -0.5001 -0.1678
   85SOPE  H101 7909   2.589  -0.126   4.339 -2.9222 -0.8308 -0.4734
   85SOPE  C211 7910   2.493   0.061   4.409 -0.0405  0.2012 -0.1654
   85SOPE  H11R 7911   2.392   0.015   4.418  0.2500 -0.2200  1.1923
   85SOPE  H11S 7912   2.478   0.162   4.365 -2.1939  0.6155  1.3340
   85SOPE  C212 7913   2.545   0.048   4.557  0.1149 -0.5501 -0.5703
   85SOPE  H12R 7914   2.643   0.101   4.550 -1.4473  2.7268  0.4925
   85SOPE  H12S 7915   2.561  -0.060   4.575 -1.3429 -0.3076  2.7019
   85SOPE  C213 7916   2.445   0.104   4.656 -0.5882  0.0239 -0.1553
   85SOPE  H13R 7917   2.352   0.044   4.654 -0.2162 -0.6344  1.1773
   85SOPE  H13S 7918   2.421   0.202   4.610 -1.4706  0.3358  0.9318
   85SOPE  C214 7919   2.500   0.122   4.797 -0.1235 -0.0988 -0.1896
   85SOPE  H14R 7920   2.584   0.193   4.793  0.4435 -0.7648 -0.3160
   85SOPE  H14S 7921   2.551   0.029   4.830  1.7839  0.5945 -1.0364
   85SOPE  C215 7922   2.393   0.164   4.895  0.2836  0.5536  0.2588
   85SOPE  H15R 7923   2.330   0.083   4.937 -0.6346  0.6182 -0.9638
   85SOPE  H15S 7924   2.329   0.241   4.847  1.4362  0.8758 -0.7902
   85SOPE  C216 7925   2.472   0.223   5.019 -0.2955  0.2782  0.1928
   85SOPE  H16R 7926   2.511   0.322   4.989  1.0991 -0.6933 -1.3612
   85SOPE  H16S 7927   2.564   0.164   5.037  1.0636  2.1220 -0.4309
   85SOPE  C217 7928   2.390   0.233   5.150 -0.6953 -0.1750  0.1623
   85SOPE  H17R 7929   2.445   0.291   5.226 -1.4967  0.1814  0.4821
   85SOPE  H17S 7930   2.372   0.128   5.183 -0.1626 -1.1203 -2.3492
   85SOPE  C218 7931   2.256   0.308   5.133  0.5220  0.6040  0.1504
   85SOPE  H18R 7932   2.268   0.406   5.082 -0.2381  0.5326 -0.1833
   85SOPE  H18S 7933   2.197   0.312   5.227 -1.9715 -1.9004 -1.1236
   85SOPE  H18T 7934   2.190   0.239   5.075  2.1068 -0.4009 -0.5284
   85SOPE   C33 7935   2.797   0.955   4.008  0.5025 -0.4654 -0.0359
   85SOPE   H3X 7936   2.898   0.919   4.038  0.8847  1.7242  1.5641
   85SOPE   H3Y 7937   2.722   0.875   4.025  2.1451 -2.3423 -1.1706
   85SOPE   C34 7938   2.769   1.084   4.098  0.1600 -0.0646  0.7046
   85SOPE   H4X 7939   2.673   1.124   4.058 -1.2846 -3.5137  0.3695
   85SOPE   H4Y 7940   2.848   1.158   4.076 -0.3913  0.0394 -1.1426
   85SOPE   C35 7941   2.761   1.070   4.248  0.6300  0.4263  0.5677
   85SOPE   H5X 7942   2.662   1.023   4.268  0.0143  1.6713  0.5152
   85SOPE   H5Y 7943   2.753   1.174   4.285 -0.0168  0.6254 -0.1163
   85SOPE   C36 7944   2.871   0.985   4.315 -0.3362  0.7151  0.4106
   85SOPE   H6X 7945   2.962   1.041   4.284  1.1477 -1.2291  1.0303
   85SOPE   H6Y 7946   2.872   0.886   4.264  0.4624  0.9832 -0.1118
   85SOPE   C37 7947   2.846   0.962   4.466 -0.2897 -1.1840 -0.6390
   85SOPE   H7X 7948   2.867   1.061   4.511  1.0004 -1.0810 -1.4142
   85SOPE   H7Y 7949   2.921   0.886   4.497  0.0204 -0.0215  1.6417
   85SOPE   C38 7950   2.712   0.912   4.503 -0.5614 -0.3399  0.3322
   85SOPE   H8X 7951   2.685   0.829   4.434 -2.1649 -0.4314  1.0128
   85SOPE   H8Y 7952   2.652   1.005   4.495  4.0832  2.7995 -1.6738
   85SOPE   C39 7953   2.712   0.849   4.642  1.0721  0.6612  0.1030
   85SOPE   H9X 7954   2.787   0.768   4.651  0.6612  0.2662 -0.0181
   85SOPE   H9Y 7955   2.618   0.792   4.658  0.6981  1.5189  1.1197
   85SOPE  C310 7956   2.726   0.954   4.747 -0.4133  0.0526 -0.2501
   85SOPE  H10X 7957   2.651   1.030   4.718 -0.5609  0.5031  1.2383
   85SOPE  H10Y 7958   2.829   0.995   4.746  0.3664 -1.7821 -2.2655
   85SOPE  C311 7959   2.702   0.892   4.887  0.3066  0.8559 -0.7894
   85SOPE  H11X 7960   2.774   0.808   4.883 -1.2458 -0.4898 -2.9338
   85SOPE  H11Y 7961   2.601   0.844   4.889  0.7919 -0.2734 -1.7808
   85SOPE  C312 7962   2.734   0.990   5.001  0.8495  0.3574  0.3018
   85SOPE  H12X 7963   2.661   1.073   5.004 -0.1862 -0.3413 -2.5332
   85SOPE  H12Y 7964   2.838   1.029   5.004  1.3975 -0.4761 -3.0422
   85SOPE  C313 7965   2.706   0.910   5.128 -0.0221 -0.0156  0.0254
   85SOPE  H13X 7966   2.745   0.806   5.135 -1.0886 -0.3885  0.7685
   85SOPE  H13Y 7967   2.595   0.905   5.134 -0.1018  0.7166 -0.7017
   85SOPE  C314 7968   2.751   0.969   5.266  0.0144 -0.4679 -0.6083
   85SOPE  H14X 7969   2.679   0.916   5.332  1.8739 -1.6113  0.6103
   85SOPE  H14Y 7970   2.740   1.079   5.264 -0.7915 -0.5296 -0.1682
   85SOPE  C315 7971   2.885   0.908   5.315 -0.0092 -0.1509  0.5189
   85SOPE  H15X 7972   2.970   0.934   5.249 -0.4812 -1.2756 -0.5619
   85SOPE  H15Y 7973   2.893   0.798   5.307  0.4390 -0.0720 -0.1610
   85SOPE  C316 7974   2.904   0.923   5.465  0.0341 -0.1505 -0.1087
   85SOPE  H16X 7975   2.805   0.921   5.517 -1.1384 -1.0652 -2.2617
   85SOPE  H16Y 7976   2.960   1.018   5.478 -1.3481  0.6646  0.1109
   85SOPE  C317 7977   2.994   0.818   5.525  0.3082  0.2426 -0.3267
   85SOPE  H17X 7978   3.075   0.807   5.449  0.6999 -1.7060  0.3131
   85SOPE  H17Y 7979   2.942   0.720   5.530 -1.6995  1.3228  1.5421
   85SOPE  C318 7980   3.058   0.846   5.665  0.1065 -0.9223  0.0969
   85SOPE  H18X 7981   3.122   0.937   5.661  0.0272 -0.8838 -2.9937
   85SOPE  H18Y 7982   3.135   0.770   5.691 -0.7508 -2.2721 -1.1292
   85SOPE  H18Z 7983   2.984   0.851   5.748 -0.2978 -1.0495 -0.2534
   86SOPE     N 7984   5.649   2.360   3.322  0.0543  0.3187  0.1390
   86SOPE   HN1 7985   5.733   2.331   3.268  0.7688  0.3527  1.2054
   86SOPE   HN2 7986   5.651   2.463   3.340 -1.3376  0.8594 -2.2595
   86SOPE   HN3 7987   5.650   2.309   3.412  1.0348  0.0700  0.0004
   86SOPE   C12 7988   5.515   2.333   3.258 -0.9003 -0.6325 -0.0318
   86SOPE  H12A 7989   5.511   2.225   3.230  0.9319 -1.1031  1.2833
   86SOPE  H12B 7990   5.493   2.393   3.167  0.9456  0.1255 -0.0117
   86SOPE   C11 7991   5.411   2.361   3.359 -0.1561  0.3606 -0.7317
   86SOPE  H11A 7992   5.310   2.369   3.312 -0.8075 -0.4238  0.4942
   86SOPE  H11B 7993   5.417   2.459   3.411  1.4766 -0.3982  0.6202
   86SOPE     P 7994   5.460   2.250   3.593 -0.3185 -0.0802 -0.4751
   86SOPE   O13 7995   5.608   2.276   3.569  0.0972 -0.3636 -0.3320
   86SOPE   O14 7996   5.414   2.119   3.643  0.3281 -0.1224 -0.8908
   86SOPE   O12 7997   5.398   2.258   3.456  0.0677  0.6207 -0.0490
   86SOPE   O11 7998   5.403   2.374   3.674  0.3012  0.1164 -0.7749
   86SOPE    C1 7999   5.489   2.466   3.740  0.1645  0.4704  0.2820
   86SOPE    HA 8000   5.417   2.528   3.798 -1.4446  0.1487 -1.2721
   86SOPE    HB 8001   5.550   2.530   3.672 -1.1375 -0.1401 -1.5510
   86SOPE    C2 8002   5.583   2.403   3.852 -0.1389 -0.1141  0.3685
   86SOPE    HS 8003   5.649   2.337   3.791 -0.9371 -3.1821  2.5570
   86SOPE   O21 8004   5.484   2.339   3.935 -0.1620 -0.4150  0.1633
   86SOPE   C21 8005   5.522   2.227   3.978  0.9576  1.1568  1.1377
   86SOPE   O22 8006   5.630   2.170   3.953 -0.2013 -0.6118  0.0582
   86SOPE   C22 8007   5.419   2.162   4.065  0.7261  0.3845  0.4228
   86SOPE   H2R 8008   5.371   2.085   4.001  1.2312  0.7815 -0.4553
   86SOPE   H2S 8009   5.338   2.236   4.085  0.6020  1.1353 -2.4978
   86SOPE    C3 8010   5.663   2.504   3.943  0.3949  0.0851 -0.1247
   86SOPE    HX 8011   5.591   2.581   3.980 -1.4664 -0.8149 -1.6673
   86SOPE    HY 8012   5.725   2.561   3.871 -0.9606  0.0860 -1.3377
   86SOPE   O31 8013   5.730   2.454   4.060  0.0121  0.3339 -0.3393
   86SOPE   C31 8014   5.863   2.472   4.065 -0.4596 -0.5158  0.5420
   86SOPE   O32 8015   5.932   2.528   3.976 -0.1111  0.1375 -0.2717
   86SOPE   C32 8016   5.915   2.404   4.186 -0.3757  0.0816 -0.7041
   86SOPE   H2X 8017   5.942   2.483   4.258 -1.4344  0.7631 -1.0271
   86SOPE   H2Y 8018   6.006   2.348   4.154 -0.9043 -0.2688 -1.6522
   86SOPE   C23 8019   5.488   2.092   4.183  0.3109 -0.0829 -0.3586
   86SOPE   H3R 8020   5.536   2.159   4.258  1.3908 -0.1336 -0.9756
   86SOPE   H3S 8021   5.555   2.007   4.156 -2.6501 -2.8879  0.5192
   86SOPE   C24 8022   5.377   2.015   4.257  0.4825  0.5285  0.6394
   86SOPE   H4R 8023   5.309   2.088   4.305  1.1287  1.5811 -0.0116
   86SOPE   H4S 8024   5.307   1.967   4.186 -1.8611  3.2052  0.9871
   86SOPE   C25 8025   5.423   1.910   4.358  0.0346  0.5182  0.1454
   86SOPE   H5R 8026   5.470   1.824   4.305  1.5424  1.8232 -0.7178
   86SOPE   H5S 8027   5.504   1.956   4.418 -0.2766 -0.9975  1.8231
   86SOPE   C26 8028   5.313   1.875   4.460  0.2920 -0.3342  0.5767
   86SOPE   H6R 8029   5.281   1.966   4.515  0.2821 -0.4507  0.7643
   86SOPE   H6S 8030   5.222   1.832   4.412 -0.3105 -0.1441  1.5148
   86SOPE   C27 8031   5.371   1.789   4.576  0.2966  0.4884 -0.1208
   86SOPE   H7R 8032   5.380   1.685   4.540 -1.8493  0.1187  0.2588
   86SOPE   H7S 8033   5.478   1.815   4.590  0.8457 -1.4648 -0.4456
   86SOPE   C28 8034   5.290   1.784   4.703 -0.1411 -0.0546  0.0917
   86SOPE   H8R 8035   5.315   1.691   4.758  0.1400 -1.3139 -2.0690
   86SOPE   H8S 8036   5.317   1.866   4.773 -1.5331  1.2803 -0.8760
   86SOPE   C29 8037   5.144   1.759   4.679  1.0754 -0.0075 -1.0221
   86SOPE   H91 8038   5.118   1.682   4.605  1.2185  0.1195 -1.2050
   86SOPE  C210 8039   5.048   1.833   4.744  0.1106  0.4496 -0.1486
   86SOPE  H101 8040   4.944   1.806   4.722 -0.1206 -1.1149  2.5220
   86SOPE  C211 8041   5.062   1.934   4.855  0.6935 -0.7487  1.0582
   86SOPE  H11R 8042   5.095   2.030   4.810  0.2413 -1.4874 -0.9459
   86SOPE  H11S 8043   5.143   1.897   4.922  1.7154 -1.7804 -0.6691
   86SOPE  C212 8044   4.927   1.951   4.933 -0.3361 -0.2118  0.1572
   86SOPE  H12R 8045   4.842   1.991   4.872  0.2214 -1.1996 -1.3162
   86SOPE  H12S 8046   4.957   2.027   5.008  1.3806  0.6851 -1.3506
   86SOPE  C213 8047   4.879   1.834   5.012  0.0154  0.0733  0.4447
   86SOPE  H13R 8048   4.966   1.781   5.058  0.4592  1.8105  1.7463
   86SOPE  H13S 8049   4.834   1.760   4.943  0.0157 -0.1532  0.6878
   86SOPE  C214 8050   4.769   1.887   5.110 -0.0210  0.4749 -0.7963
   86SOPE  H14R 8051   4.676   1.898   5.050  1.3066 -1.1920 -3.3627
   86SOPE  H14S 8052   4.795   1.989   5.145  1.5843 -0.4701  0.8873
   86SOPE  C215 8053   4.743   1.790   5.227 -0.6830  0.5512 -0.3156
   86SOPE  H15R 8054   4.838   1.785   5.285 -0.8499  3.3663  0.3251
   86SOPE  H15S 8055   4.728   1.686   5.191  0.1228  0.6997 -1.1279
   86SOPE  C216 8056   4.630   1.830   5.312  1.0282  0.2905 -0.0460
   86SOPE  H16R 8057   4.533   1.827   5.259  0.8259  1.1033  0.2739
   86SOPE  H16S 8058   4.649   1.938   5.330 -0.6571  0.7289 -0.6910
   86SOPE  C217 8059   4.629   1.754   5.444 -0.3883  0.5503 -0.0189
   86SOPE  H17R 8060   4.720   1.778   5.503 -1.2079  0.2331  1.4337
   86SOPE  H17S 8061   4.638   1.646   5.418 -2.0420  0.5829 -0.8300
   86SOPE  C218 8062   4.511   1.787   5.534  0.1245 -0.1091 -0.0612
   86SOPE  H18R 8063   4.412   1.777   5.485  1.0326  0.0637 -2.0487
   86SOPE  H18S 8064   4.516   1.895   5.558  0.0559 -0.1862  0.2996
   86SOPE  H18T 8065   4.509   1.725   5.626  1.3725 -0.4253 -0.2360
   86SOPE   C33 8066   5.814   2.302   4.244 -0.0007 -0.2019  0.4090
   86SOPE   H3X 8067   5.794   2.216   4.176 -1.1094  1.1736 -1.0778
   86SOPE   H3Y 8068   5.713   2.344   4.258 -0.7866 -2.1881  1.0392
   86SOPE   C34 8069   5.870   2.247   4.376 -0.3413 -0.1128  0.1940
   86SOPE   H4X 8070   5.969   2.202   4.354 -0.1616  0.6732 -0.6966
   86SOPE   H4Y 8071   5.805   2.161   4.403 -0.8346  0.1190 -0.2298
   86SOPE   C35 8072   5.901   2.345   4.487  0.6349  0.5735 -0.6271
   86SOPE   H5X 8073   5.812   2.410   4.503  1.5096  1.5540  0.3828
   86SOPE   H5Y 8074   5.987   2.407   4.455  1.8261 -1.3758 -1.4180
   86SOPE   C36 8075   5.926   2.285   4.630  0.6436 -0.0601  0.3814
   86SOPE   H6X 8076   6.005   2.210   4.613 -0.2889 -0.7738 -1.0075
   86SOPE   H6Y 8077   5.831   2.234   4.657  0.6226 -0.2271 -0.0000
   86SOPE   C37 8078   5.945   2.404   4.732 -0.6714  1.0943  0.1211
   86SOPE   H7X 8079   5.848   2.453   4.750 -1.4270  1.1766 -3.4237
   86SOPE   H7Y 8080   6.022   2.473   4.691  0.0862 -0.1890 -0.7163
   86SOPE   C38 8081   6.009   2.356   4.868  0.8361  0.4669  0.5492
   86SOPE   H8X 8082   6.064   2.442   4.913  1.0104  0.3667  0.5234
   86SOPE   H8Y 8083   6.093   2.286   4.851 -0.1625 -0.6291 -0.0237
   86SOPE   C39 8084   5.909   2.302   4.979 -0.2936 -0.1163 -0.9007
   86SOPE   H9X 8085   5.843   2.222   4.939 -0.9375 -0.8454  1.4558
   86SOPE   H9Y 8086   5.835   2.375   5.017  0.7645 -0.4130  1.9290
   86SOPE  C310 8087   5.998   2.242   5.092 -0.5686  0.3680  0.3308
   86SOPE  H10X 8088   6.060   2.323   5.135  1.7735 -0.7335 -0.7538
   86SOPE  H10Y 8089   6.078   2.177   5.050  1.0396  1.6154  1.3346
   86SOPE  C311 8090   5.915   2.159   5.190  0.4345 -0.0434  0.7957
   86SOPE  H11X 8091   5.870   2.079   5.128 -0.5943  0.6571  0.6009
   86SOPE  H11Y 8092   5.828   2.218   5.227  0.0777  1.0032 -1.5234
   86SOPE  C312 8093   5.997   2.098   5.310 -0.1882  0.6938  0.0301
   86SOPE  H12X 8094   6.067   2.175   5.350 -0.2727  1.1540 -0.6835
   86SOPE  H12Y 8095   6.061   2.016   5.273 -2.2730 -0.2022 -1.8141
   86SOPE  C313 8096   5.906   2.048   5.424 -0.4103 -1.0471  0.8570
   86SOPE  H13X 8097   5.841   2.134   5.448  0.1008 -0.2791 -0.4139
   86SOPE  H13Y 8098   5.960   2.028   5.520 -1.8979  2.0152  2.4737
   86SOPE  C314 8099   5.823   1.926   5.386  0.0874 -0.3140 -0.0929
   86SOPE  H14X 8100   5.889   1.847   5.344  1.6077  0.8095  0.0921
   86SOPE  H14Y 8101   5.742   1.961   5.319  0.6630  1.2844  0.0042
   86SOPE  C315 8102   5.753   1.850   5.507  0.1829  0.4349 -0.3881
   86SOPE  H15X 8103   5.719   1.927   5.580  2.4719  1.1461 -0.0029
   86SOPE  H15Y 8104   5.825   1.786   5.561 -0.2136  0.8706  0.6973
   86SOPE  C316 8105   5.646   1.746   5.466  0.0594  0.0317  0.0011
   86SOPE  H16X 8106   5.556   1.799   5.429 -0.6653 -2.4524 -2.0798
   86SOPE  H16Y 8107   5.618   1.676   5.547  0.8852  0.9658  1.1313
   86SOPE  C317 8108   5.684   1.661   5.340  0.1818 -0.1413 -0.0648
   86SOPE  H17X 8109   5.717   1.726   5.256  2.5189  0.3585  1.1412
   86SOPE  H17Y 8110   5.584   1.618   5.315  0.5411  1.2676 -4.9044
   86SOPE  C318 8111   5.791   1.561   5.364  0.4089 -0.5959 -0.0982
   86SOPE  H18X 8112   5.882   1.603   5.411 -2.2778  4.0031  1.5950
   86SOPE  H18Y 8113   5.803   1.491   5.279  1.2428 -2.9048  1.7935
   86SOPE  H18Z 8114   5.751   1.491   5.441 -0.1284  1.8398  1.9815
   87SOPE     N 8115   6.636   1.531   3.211  0.2852  0.2119 -0.2208
   87SOPE   HN1 8116   6.629   1.534   3.314  1.3114 -0.5635 -0.1033
   87SOPE   HN2 8117   6.569   1.456   3.185  2.5637 -1.7337 -0.8299
   87SOPE   HN3 8118   6.735   1.504   3.191  0.2360  1.2940 -2.2349
   87SOPE   C12 8119   6.610   1.666   3.152 -0.8676  0.1141 -1.3115
   87SOPE  H12A 8120   6.671   1.751   3.188 -0.3048 -0.8160  0.0372
   87SOPE  H12B 8121   6.511   1.698   3.190 -0.1368  0.8766  0.0319
   87SOPE   C11 8122   6.611   1.657   3.004 -0.1356 -0.0980  0.1320
   87SOPE  H11A 8123   6.580   1.760   2.974  1.9738  0.5437 -0.0145
   87SOPE  H11B 8124   6.534   1.584   2.973  1.1747 -1.5065  0.0974
   87SOPE     P 8125   6.856   1.723   2.909  0.1190  0.2720 -0.2255
   87SOPE   O13 8126   6.820   1.794   2.783  0.6385 -0.0592 -0.8381
   87SOPE   O14 8127   6.979   1.641   2.881  0.6291  0.5134 -0.2629
   87SOPE   O12 8128   6.740   1.617   2.955 -0.0787  0.7240  0.8714
   87SOPE   O11 8129   6.881   1.817   3.034  0.7732 -0.4073  0.5961
   87SOPE    C1 8130   6.980   1.786   3.134  0.5738 -0.0368  0.0487
   87SOPE    HA 8131   7.079   1.805   3.088  0.7234 -0.2544  0.2774
   87SOPE    HB 8132   6.971   1.678   3.157 -0.1973  0.1420  0.6524
   87SOPE    C2 8133   6.957   1.864   3.268 -0.7657 -0.1241  0.3466
   87SOPE    HS 8134   6.853   1.832   3.294 -0.4849 -1.5654 -0.1875
   87SOPE   O21 8135   6.966   2.003   3.246 -0.0434 -0.0895 -0.2579
   87SOPE   C21 8136   6.889   2.087   3.323  0.0494 -0.2707 -0.8279
   87SOPE   O22 8137   6.787   2.055   3.387  0.0051 -0.1215  0.2850
   87SOPE   C22 8138   6.933   2.234   3.327 -0.5699 -0.6534  0.4389
   87SOPE   H2R 8139   6.961   2.259   3.223 -2.6417 -0.7415 -0.1889
   87SOPE   H2S 8140   7.016   2.241   3.401  0.0366 -0.5938 -0.2465
   87SOPE    C3 8141   7.056   1.818   3.377 -0.0798  0.3093  0.7555
   87SOPE    HX 8142   7.154   1.808   3.326  0.3146  0.9013  1.3773
   87SOPE    HY 8143   7.032   1.710   3.389  0.7091 -0.7775 -4.9436
   87SOPE   O31 8144   7.056   1.908   3.490  0.7260  1.0618  0.3559
   87SOPE   C31 8145   6.965   1.871   3.577  0.3059  0.1748 -0.1523
   87SOPE   O32 8146   6.902   1.769   3.577 -0.0200  0.2671  0.0872
   87SOPE   C32 8147   6.954   1.976   3.688  0.0125 -0.0141  0.6083
   87SOPE   H2X 8148   6.903   2.068   3.652 -0.5558 -0.4262  0.3408
   87SOPE   H2Y 8149   7.053   2.001   3.732  0.4810  2.3449 -1.5636
   87SOPE   C23 8150   6.816   2.326   3.386 -0.0398  0.0637 -0.3419
   87SOPE   H3R 8151   6.788   2.291   3.487 -0.2157  0.6980 -0.1699
   87SOPE   H3S 8152   6.731   2.321   3.316 -0.3776 -0.6064  0.1110
   87SOPE   C24 8153   6.863   2.477   3.401  1.7744 -0.2194  0.6889
   87SOPE   H4R 8154   6.907   2.507   3.303 -1.0296 -3.1501 -1.7025
   87SOPE   H4S 8155   6.771   2.538   3.413  0.8614 -0.4910 -3.4550
   87SOPE   C25 8156   6.964   2.510   3.511  0.1999  0.3174  0.1352
   87SOPE   H5R 8157   7.056   2.448   3.508  2.6613  3.7094 -0.1387
   87SOPE   H5S 8158   6.999   2.613   3.486  1.6051 -0.1387  0.1208
   87SOPE   C26 8159   6.908   2.504   3.654 -0.3419 -0.3442 -0.1921
   87SOPE   H6R 8160   6.826   2.577   3.667  1.0383  1.4963 -1.2155
   87SOPE   H6S 8161   6.870   2.402   3.675  0.0156 -0.6196 -0.8374
   87SOPE   C27 8162   7.016   2.528   3.755 -0.3061 -0.1626  0.1181
   87SOPE   H7R 8163   7.089   2.447   3.736 -0.6741 -0.7293  1.0593
   87SOPE   H7S 8164   7.065   2.627   3.739 -1.5853  0.1517 -2.4139
   87SOPE   C28 8165   6.962   2.520   3.898 -0.5929  0.3769  0.3310
   87SOPE   H8R 8166   7.043   2.541   3.971 -0.0900  0.1955 -0.1561
   87SOPE   H8S 8167   6.894   2.606   3.909  1.0396  1.6393  0.9641
   87SOPE   C29 8168   6.902   2.394   3.936  0.4986  0.5255 -0.6352
   87SOPE   H91 8169   6.918   2.316   3.860 -1.0934  0.3758 -0.8539
   87SOPE  C210 8170   6.800   2.385   4.026  0.6298 -1.1568  0.5780
   87SOPE  H101 8171   6.744   2.293   4.047 -2.1708  0.0784 -1.0097
   87SOPE  C211 8172   6.750   2.496   4.120 -0.1981 -1.1113  0.0740
   87SOPE  H11R 8173   6.640   2.513   4.118 -0.1228  0.6876  3.5871
   87SOPE  H11S 8174   6.794   2.594   4.091  1.9649 -2.4900 -1.6446
   87SOPE  C212 8175   6.776   2.464   4.268  0.5142  0.5248  0.1349
   87SOPE  H12R 8176   6.698   2.392   4.298 -1.0737  2.5772  1.2064
   87SOPE  H12S 8177   6.758   2.554   4.332  0.6786 -0.1507  1.1665
   87SOPE  C213 8178   6.926   2.421   4.291  0.0463 -0.3102 -0.7795
   87SOPE  H13R 8179   7.003   2.484   4.240  0.8347  0.6538  1.4393
   87SOPE  H13S 8180   6.935   2.320   4.246  0.8572 -0.0745 -1.1834
   87SOPE  C214 8181   6.954   2.398   4.442 -0.5003 -0.0722 -0.1790
   87SOPE  H14R 8182   6.993   2.486   4.498 -2.7383  1.1291 -0.3920
   87SOPE  H14S 8183   7.036   2.323   4.447  0.0099  0.2778 -2.2125
   87SOPE  C215 8184   6.832   2.334   4.522 -0.1012  0.6003  0.1913
   87SOPE  H15R 8185   6.787   2.247   4.470  1.7661 -1.3451  1.6691
   87SOPE  H15S 8186   6.740   2.395   4.535 -0.6740 -0.1836 -0.0785
   87SOPE  C216 8187   6.886   2.271   4.655 -0.3280 -0.5693 -0.1852
   87SOPE  H16R 8188   6.952   2.348   4.699  0.2279 -1.4523  0.5863
   87SOPE  H16S 8189   6.948   2.184   4.623 -0.4512 -1.5117  1.9198
   87SOPE  C217 8190   6.773   2.223   4.748 -0.5592  0.5396  0.6294
   87SOPE  H17R 8191   6.712   2.160   4.681  1.4398 -1.5233  0.6356
   87SOPE  H17S 8192   6.713   2.308   4.785 -0.5693  0.7504  0.1303
   87SOPE  C218 8193   6.830   2.151   4.874 -0.7127  0.3804 -0.9453
   87SOPE  H18R 8194   6.889   2.063   4.839  0.4368  0.0739  1.5357
   87SOPE  H18S 8195   6.747   2.112   4.936  0.0842  0.5503  0.2714
   87SOPE  H18T 8196   6.898   2.219   4.931 -1.3280 -0.5933  1.0630
   87SOPE   C33 8197   6.881   1.930   3.813  0.1508 -0.0778  0.0887
   87SOPE   H3X 8198   6.919   1.831   3.846 -1.5678 -0.7999  0.0003
   87SOPE   H3Y 8199   6.772   1.913   3.802 -0.0177 -0.1129  1.6436
   87SOPE   C34 8200   6.893   2.029   3.935 -0.2235 -0.5477 -0.5581
   87SOPE   H4X 8201   6.827   2.117   3.919 -2.2972 -1.7310  1.0135
   87SOPE   H4Y 8202   6.998   2.066   3.934 -0.4232  0.1065  0.7202
   87SOPE   C35 8203   6.849   1.953   4.066 -1.0271  0.3816  0.0134
   87SOPE   H5X 8204   6.916   1.867   4.086 -2.8777 -2.0407 -3.2267
   87SOPE   H5Y 8205   6.748   1.909   4.053 -0.5725 -0.6052 -0.2740
   87SOPE   C36 8206   6.846   2.045   4.194 -0.1809 -0.1908  0.3316
   87SOPE   H6X 8207   6.799   2.140   4.161  0.2494 -0.5750 -1.4613
   87SOPE   H6Y 8208   6.946   2.073   4.231  1.1208 -2.2812 -1.3730
   87SOPE   C37 8209   6.748   1.987   4.291  0.3778 -0.7853  0.0157
   87SOPE   H7X 8210   6.656   1.948   4.242 -0.0013  1.5957 -1.2869
   87SOPE   H7Y 8211   6.713   2.054   4.372 -0.5734 -2.2137  0.8404
   87SOPE   C38 8212   6.809   1.875   4.368  0.4130 -0.2635 -0.0857
   87SOPE   H8X 8213   6.920   1.878   4.364  0.4211 -1.1546 -0.6734
   87SOPE   H8Y 8214   6.794   1.776   4.321 -0.5166 -0.3304  0.3481
   87SOPE   C39 8215   6.755   1.871   4.508  0.2916  0.1839 -0.1320
   87SOPE   H9X 8216   6.647   1.849   4.507  0.0516  1.2558 -1.9990
   87SOPE   H9Y 8217   6.746   1.970   4.559 -0.9229 -0.2988  0.6163
   87SOPE  C310 8218   6.818   1.767   4.600  0.2688  0.2217 -0.7463
   87SOPE  H10X 8219   6.928   1.782   4.604  0.2518  0.0114  1.1536
   87SOPE  H10Y 8220   6.784   1.671   4.555  0.6939 -0.8789  1.1720
   87SOPE  C311 8221   6.754   1.776   4.740 -0.3740 -0.7348 -0.8284
   87SOPE  H11X 8222   6.645   1.766   4.719 -0.7018 -1.0480  0.8799
   87SOPE  H11Y 8223   6.780   1.877   4.778  0.9250 -1.3131 -0.1016
   87SOPE  C312 8224   6.789   1.681   4.849  0.0864 -0.6157 -0.1986
   87SOPE  H12X 8225   6.784   1.578   4.809 -0.9351 -1.6127  2.3024
   87SOPE  H12Y 8226   6.708   1.686   4.925  0.5322  0.8843  0.2168
   87SOPE  C313 8227   6.927   1.706   4.912 -0.3127  0.5196 -0.8800
   87SOPE  H13X 8228   6.928   1.809   4.953  1.4449 -0.0925  0.7459
   87SOPE  H13Y 8229   7.005   1.703   4.833  0.0053  0.9931 -0.5845
   87SOPE  C314 8230   6.957   1.613   5.029 -0.1243 -0.1584 -0.2458
   87SOPE  H14X 8231   6.947   1.509   4.991  0.4454  0.6763 -2.8693
   87SOPE  H14Y 8232   6.883   1.636   5.109 -0.3877 -0.9199 -0.2578
   87SOPE  C315 8233   7.105   1.618   5.068  0.3559  0.9392 -0.1218
   87SOPE  H15X 8234   7.100   1.704   5.139 -0.0067  1.2053 -0.4650
   87SOPE  H15Y 8235   7.159   1.648   4.976 -1.4751 -1.9463 -2.3134
   87SOPE  C316 8236   7.166   1.478   5.130  0.7808 -0.1377 -0.2305
   87SOPE  H16X 8237   7.175   1.402   5.050 -1.2967 -1.5996  0.8219
   87SOPE  H16Y 8238   7.088   1.444   5.201  2.7322  1.0565  2.6941
   87SOPE  C317 8239   7.291   1.489   5.213  0.1439  0.1658 -0.0385
   87SOPE  H17X 8240   7.278   1.557   5.300 -1.1907  0.9916 -0.8537
   87SOPE  H17Y 8241   7.368   1.537   5.149  0.3719  0.5009  0.4825
   87SOPE  C318 8242   7.340   1.343   5.248 -0.0529 -0.1560 -0.5562
   87SOPE  H18X 8243   7.335   1.282   5.155 -0.0992 -1.2487  0.1461
   87SOPE  H18Y 8244   7.283   1.305   5.335  0.2331  2.9352  1.1167
   87SOPE  H18Z 8245   7.446   1.333   5.279 -0.6040 -2.2987  0.8619
   88SOPE     N 8246   1.244   2.620   2.688  0.4441  0.1870  0.2006
   88SOPE   HN1 8247   1.202   2.582   2.601 -1.7404 -0.1776  1.3532
   88SOPE   HN2 8248   1.198   2.571   2.766 -1.3979  1.7799  0.1973
   88SOPE   HN3 8249   1.210   2.716   2.711 -0.1319 -0.2085  1.0609
   88SOPE   C12 8250   1.393   2.590   2.691 -0.0074 -0.7897  0.0160
   88SOPE  H12A 8251   1.449   2.684   2.713 -0.3940 -0.5409 -0.0386
   88SOPE  H12B 8252   1.423   2.558   2.589 -0.7727  0.4244 -0.6144
   88SOPE   C11 8253   1.428   2.492   2.800  0.6313 -0.1171  0.2744
   88SOPE  H11A 8254   1.418   2.535   2.902  1.0670  0.4000  0.1048
   88SOPE  H11B 8255   1.536   2.468   2.796  1.3707  2.3874  2.1915
   88SOPE     P 8256   1.406   2.236   2.781  0.3896  0.2483 -0.1588
   88SOPE   O13 8257   1.530   2.229   2.701 -0.6680  0.2790 -0.3631
   88SOPE   O14 8258   1.296   2.143   2.742 -0.0491 -0.5554 -0.2813
   88SOPE   O12 8259   1.345   2.380   2.776 -0.2750  1.0414  0.4815
   88SOPE   O11 8260   1.445   2.206   2.933  0.3371 -0.0943 -0.1112
   88SOPE    C1 8261   1.408   2.275   3.050  0.3608 -0.6523 -0.0682
   88SOPE    HA 8262   1.459   2.373   3.053  2.2652 -1.5875 -0.3369
   88SOPE    HB 8263   1.444   2.214   3.136 -0.6567  1.4369  1.9591
   88SOPE    C2 8264   1.259   2.304   3.071 -0.3710  0.2764 -0.2961
   88SOPE    HS 8265   1.206   2.338   2.980 -4.3645 -2.9119  0.5216
   88SOPE   O21 8266   1.243   2.416   3.166  0.0148 -0.2848  0.6453
   88SOPE   C21 8267   1.121   2.465   3.161  0.1759 -0.0282 -0.0257
   88SOPE   O22 8268   1.031   2.427   3.086  0.3835  0.2290 -0.2229
   88SOPE   C22 8269   1.101   2.578   3.258 -0.3518 -0.3357 -0.5389
   88SOPE   H2R 8270   1.012   2.637   3.228  0.8399  0.9800 -1.6725
   88SOPE   H2S 8271   1.189   2.646   3.254  0.3186 -1.2030 -1.0275
   88SOPE    C3 8272   1.187   2.176   3.116 -1.0882 -0.8559 -0.1460
   88SOPE    HX 8273   1.227   2.098   3.047 -0.2567 -0.9712  0.4439
   88SOPE    HY 8274   1.076   2.181   3.116 -1.2376 -2.9872  0.2377
   88SOPE   O31 8275   1.223   2.153   3.257 -0.3056  0.2994 -0.0911
   88SOPE   C31 8276   1.254   2.034   3.292  0.4383  0.5812  0.1796
   88SOPE   O32 8277   1.282   1.935   3.227 -0.2386  0.0371  0.7760
   88SOPE   C32 8278   1.235   2.022   3.438 -0.2054 -0.2846 -0.4683
   88SOPE   H2X 8279   1.175   2.111   3.468 -2.3796 -1.9728  0.4848
   88SOPE   H2Y 8280   1.336   2.020   3.484 -0.5586 -0.5330  0.3068
   88SOPE   C23 8281   1.092   2.517   3.402  0.1945 -0.5828 -0.1221
   88SOPE   H3R 8282   1.082   2.599   3.476 -1.9854  1.1258 -2.1600
   88SOPE   H3S 8283   1.174   2.446   3.427 -0.8358 -1.9436 -0.4418
   88SOPE   C24 8284   0.962   2.438   3.425  0.1696  0.0970 -0.4444
   88SOPE   H4R 8285   0.891   2.523   3.432  0.4838  0.2369  1.7180
   88SOPE   H4S 8286   0.942   2.373   3.337 -0.0564  0.7926 -0.9094
   88SOPE   C25 8287   0.954   2.349   3.542  1.1038 -0.6096 -0.0637
   88SOPE   H5R 8288   0.850   2.310   3.552  0.2766  1.2442 -0.9071
   88SOPE   H5S 8289   1.027   2.267   3.526  0.4303 -0.8073 -2.5726
   88SOPE   C26 8290   0.987   2.418   3.676 -0.2273  0.8525  0.1308
   88SOPE   H6R 8291   1.096   2.437   3.684 -0.2885  0.3834  3.0912
   88SOPE   H6S 8292   0.939   2.517   3.694 -1.0958  0.5824 -0.6226
   88SOPE   C27 8293   0.934   2.333   3.795 -0.8154 -0.0267  0.6418
   88SOPE   H7R 8294   0.824   2.346   3.802 -1.0717 -1.0413 -0.9677
   88SOPE   H7S 8295   0.958   2.229   3.763  0.3556  0.0988  1.0930
   88SOPE   C28 8296   0.991   2.362   3.934  0.4874 -0.5839  1.0236
   88SOPE   H8R 8297   1.100   2.340   3.936  0.4967 -0.5218  1.3977
   88SOPE   H8S 8298   0.969   2.470   3.944  1.1124  0.0855 -3.1560
   88SOPE   C29 8299   0.916   2.287   4.044  0.4461  0.7852 -0.8026
   88SOPE   H91 8300   0.809   2.271   4.024  0.4508 -1.0056  0.3665
   88SOPE  C210 8301   0.962   2.246   4.165  0.2907 -0.0510  0.6048
   88SOPE  H101 8302   0.895   2.187   4.230 -0.0003 -0.7855 -0.3314
   88SOPE  C211 8303   1.103   2.269   4.215  0.0205 -0.2807  0.2075
   88SOPE  H11R 8304   1.110   2.377   4.241 -0.3702 -0.3379  0.5642
   88SOPE  H11S 8305   1.179   2.251   4.136  1.3777  3.4402  0.4728
   88SOPE  C212 8306   1.148   2.190   4.335  0.1984  0.1986  0.1793
   88SOPE  H12R 8307   1.246   2.231   4.365 -0.0726  0.7665  0.2983
   88SOPE  H12S 8308   1.156   2.085   4.298  3.0715  0.7349 -0.9863
   88SOPE  C213 8309   1.059   2.202   4.455  0.9506  0.1099 -0.0920
   88SOPE  H13R 8310   0.952   2.187   4.427  1.2560 -0.4704 -0.9733
   88SOPE  H13S 8311   1.059   2.299   4.509 -1.5342  0.2977 -0.2933
   88SOPE  C214 8312   1.066   2.097   4.568  0.0531  0.1225  0.4464
   88SOPE  H14R 8313   1.031   1.998   4.531 -0.7933  0.4685  0.2906
   88SOPE  H14S 8314   1.003   2.123   4.656 -1.9934 -2.6885 -0.0292
   88SOPE  C215 8315   1.215   2.085   4.616  0.1160  0.0758  0.2969
   88SOPE  H15R 8316   1.256   2.184   4.647  3.3866 -1.6056  1.8237
   88SOPE  H15S 8317   1.278   2.068   4.527  1.6520  3.0985  0.6484
   88SOPE  C216 8318   1.243   1.985   4.728 -0.0871 -0.2319  1.2004
   88SOPE  H16R 8319   1.348   1.998   4.760  0.2691  1.2443 -0.4114
   88SOPE  H16S 8320   1.239   1.880   4.692  3.3252 -0.5979  1.5528
   88SOPE  C217 8321   1.156   1.999   4.855  0.4571  0.3694  0.9474
   88SOPE  H17R 8322   1.165   1.902   4.908 -3.7182 -0.1294  1.0566
   88SOPE  H17S 8323   1.049   1.993   4.826  0.9341  2.6837 -1.7049
   88SOPE  C218 8324   1.188   2.116   4.949  0.1523  0.4330  0.6326
   88SOPE  H18R 8325   1.166   2.212   4.896 -0.4596  0.5016  1.0079
   88SOPE  H18S 8326   1.297   2.116   4.969  0.5783  0.9240 -1.4387
   88SOPE  H18T 8327   1.125   2.118   5.040 -2.5134  0.2327 -1.0861
   88SOPE   C33 8328   1.143   1.896   3.471 -0.4769 -0.1255  0.1301
   88SOPE   H3X 8329   1.206   1.805   3.480  0.8110  0.7983  0.8122
   88SOPE   H3Y 8330   1.062   1.888   3.395 -0.1515 -0.8480 -0.1430
   88SOPE   C34 8331   1.062   1.921   3.596 -0.2721 -0.1617  0.2203
   88SOPE   H4X 8332   1.002   2.015   3.595 -0.4146 -0.2532 -0.0383
   88SOPE   H4Y 8333   1.126   1.932   3.686 -3.9994  1.9658  2.8817
   88SOPE   C35 8334   0.966   1.811   3.617 -0.2220 -0.0137  0.1050
   88SOPE   H5X 8335   1.024   1.718   3.625  1.3385  0.8716 -0.5105
   88SOPE   H5Y 8336   0.896   1.807   3.530 -1.7015 -1.0232  1.2840
   88SOPE   C36 8337   0.878   1.830   3.739  0.2545  0.2887  0.6994
   88SOPE   H6X 8338   0.807   1.744   3.737  0.5251  0.0639  0.7928
   88SOPE   H6Y 8339   0.805   1.914   3.733  0.2017  0.2531  0.8399
   88SOPE   C37 8340   0.955   1.819   3.869  0.1992  0.4807  0.3179
   88SOPE   H7X 8341   1.007   1.914   3.893  2.9893 -1.3020  1.9798
   88SOPE   H7Y 8342   1.028   1.738   3.846 -1.4671 -0.5952 -1.5330
   88SOPE   C38 8343   0.870   1.766   3.991 -0.2704 -0.1764 -0.1763
   88SOPE   H8X 8344   0.830   1.664   3.976  0.8937 -0.5981 -0.4527
   88SOPE   H8Y 8345   0.785   1.837   4.004 -1.4202 -1.2004 -1.7782
   88SOPE   C39 8346   0.960   1.764   4.115 -0.3958 -0.1075 -0.1381
   88SOPE   H9X 8347   1.006   1.865   4.129  1.8856 -1.0972 -0.0082
   88SOPE   H9Y 8348   1.036   1.683   4.116 -0.0920  0.1662  1.1115
   88SOPE  C310 8349   0.876   1.723   4.245 -0.5473  0.1148 -0.0762
   88SOPE  H10X 8350   0.851   1.615   4.239  0.4659 -0.1504  0.2481
   88SOPE  H10Y 8351   0.783   1.783   4.242 -0.4284  0.3416  0.5374
   88SOPE  C311 8352   0.943   1.748   4.384 -0.0111 -0.5283 -0.3693
   88SOPE  H11X 8353   0.983   1.851   4.391  3.2206 -1.7279  0.4038
   88SOPE  H11Y 8354   1.029   1.678   4.388 -1.0690 -1.8386  0.0552
   88SOPE  C312 8355   0.841   1.735   4.498 -0.0461  0.4331  0.3913
   88SOPE  H12X 8356   0.794   1.634   4.500  2.2614 -0.9212 -3.3081
   88SOPE  H12Y 8357   0.761   1.812   4.495  0.8827  1.3986 -1.6891
   88SOPE  C313 8358   0.901   1.748   4.641 -0.3001  0.2354  0.6320
   88SOPE  H13X 8359   0.926   1.854   4.663 -0.0914  0.0151  1.5070
   88SOPE  H13Y 8360   0.997   1.691   4.648 -1.8025 -2.4502  0.6981
   88SOPE  C314 8361   0.801   1.698   4.744  0.0858  0.6293 -0.3101
   88SOPE  H14X 8362   0.787   1.590   4.762 -0.7706  0.9976  1.4911
   88SOPE  H14Y 8363   0.699   1.724   4.708  1.2108  2.1499 -2.6203
   88SOPE  C315 8364   0.831   1.765   4.878 -0.0451  0.3191 -0.4706
   88SOPE  H15X 8365   0.851   1.874   4.873  2.1882  0.1994  2.7561
   88SOPE  H15Y 8366   0.927   1.720   4.910 -0.1984  0.4085  0.1373
   88SOPE  C316 8367   0.728   1.748   5.000  0.2677  0.1548  0.0257
   88SOPE  H16X 8368   0.735   1.648   5.048 -1.3612  0.5236  1.1195
   88SOPE  H16Y 8369   0.624   1.754   4.963  0.2102  2.3016  0.3681
   88SOPE  C317 8370   0.738   1.866   5.104  0.4348  0.3066 -0.0341
   88SOPE  H17X 8371   0.681   1.847   5.198 -0.2424  1.0933 -0.2685
   88SOPE  H17Y 8372   0.693   1.956   5.056  1.8259  0.0362 -1.9554
   88SOPE  C318 8373   0.882   1.905   5.143  0.4554 -0.1368 -0.4845
   88SOPE  H18X 8374   0.888   2.004   5.192  1.6372  1.0633 -2.8937
   88SOPE  H18Y 8375   0.947   1.899   5.053 -1.8899 -0.7423 -2.2648
   88SOPE  H18Z 8376   0.907   1.831   5.222 -1.7209  0.2448  0.6563
   89SAPC     N 8377   6.601   3.793   7.819 -0.3264 -0.2600 -0.1528
   89SAPC   C12 8378   6.559   3.929   7.761  0.1154 -0.6305  0.4610
   89SAPC  H12A 8379   6.488   3.911   7.681 -1.3731 -1.7053  1.9500
   89SAPC  H12B 8380   6.651   3.974   7.727  0.3592  0.0902  1.9827
   89SAPC   C13 8381   6.682   3.709   7.721 -0.2102 -0.0523 -0.3682
   89SAPC  H13A 8382   6.776   3.753   7.691 -1.0539  2.3270  0.2871
   89SAPC  H13B 8383   6.708   3.615   7.769 -0.0627  0.0247 -0.2964
   89SAPC  H13C 8384   6.620   3.673   7.640 -0.9362 -2.2504  1.0640
   89SAPC   C14 8385   6.693   3.810   7.939  0.0578  0.1063 -0.2461
   89SAPC  H14A 8386   6.749   3.721   7.964 -1.3951 -0.3824  1.4373
   89SAPC  H14B 8387   6.773   3.878   7.914  0.4738 -0.6636 -1.1182
   89SAPC  H14C 8388   6.644   3.843   8.029  0.9422 -1.6127  0.9165
   89SAPC   C15 8389   6.488   3.713   7.866  0.2324 -0.2789 -0.1012
   89SAPC  H15A 8390   6.517   3.617   7.907 -0.9626 -0.9089 -0.6994
   89SAPC  H15B 8391   6.437   3.763   7.946 -1.1540 -0.6109 -0.7578
   89SAPC  H15C 8392   6.417   3.699   7.786  1.5791  1.1579 -1.6236
   89SAPC   C11 8393   6.490   4.034   7.859 -0.0118  0.0471  0.7637
   89SAPC  H11A 8394   6.469   4.128   7.804  2.8332  0.3659  0.0516
   89SAPC  H11B 8395   6.563   4.068   7.935 -2.3084  1.3156  2.5209
   89SAPC     P 8396   6.237   3.976   7.866 -0.2438 -0.2329 -0.1212
   89SAPC   O13 8397   6.164   3.878   7.951  0.3003  0.4632  0.0455
   89SAPC   O14 8398   6.190   4.114   7.859  0.6984 -0.3884  0.2327
   89SAPC   O12 8399   6.375   3.977   7.921 -0.4559 -0.6062 -0.4738
   89SAPC   O11 8400   6.251   3.925   7.720  0.2638 -0.1536 -0.1631
   89SAPC    C1 8401   6.149   3.849   7.656 -0.0785  0.4584  0.3587
   89SAPC    HA 8402   6.073   3.806   7.726  0.6675 -1.1230  0.2351
   89SAPC    HB 8403   6.090   3.915   7.589 -1.7731  2.8582  3.8935
   89SAPC    C2 8404   6.204   3.729   7.577 -0.5160  0.4962  0.4513
   89SAPC    HS 8405   6.274   3.665   7.635 -0.6121 -0.0658 -0.0333
   89SAPC   O21 8406   6.273   3.795   7.467 -0.7778  0.3610 -0.5591
   89SAPC   C21 8407   6.352   3.716   7.397 -0.0300 -1.0188  0.3280
   89SAPC   O22 8408   6.387   3.602   7.415  0.1012  0.0154 -0.0055
   89SAPC   C22 8409   6.386   3.795   7.269  0.0495 -0.2923  0.0219
   89SAPC   H2R 8410   6.431   3.894   7.294 -0.6682  0.3650 -1.2155
   89SAPC   H2S 8411   6.465   3.742   7.212 -0.8545 -1.1925 -0.4242
   89SAPC    C3 8412   6.094   3.635   7.521  0.0856 -0.4707  0.1517
   89SAPC    HX 8413   6.042   3.588   7.607 -0.1281 -1.3761 -0.4535
   89SAPC    HY 8414   6.138   3.550   7.464  1.3264 -0.4383  1.0503
   89SAPC   O31 8415   5.997   3.704   7.440  0.4296 -0.3580 -0.1166
   89SAPC   C31 8416   5.940   3.635   7.348  0.1101  0.6946 -1.0955
   89SAPC   O32 8417   5.967   3.517   7.324 -0.5444 -0.4927 -0.0589
   89SAPC   C32 8418   5.852   3.723   7.269  0.2152  0.8477 -0.0977
   89SAPC   H2X 8419   5.894   3.824   7.253  0.9610  0.6959  0.8521
   89SAPC   H2Y 8420   5.758   3.730   7.328  0.5214  0.7601  0.4032
   89SAPC   C23 8421   6.268   3.823   7.175 -0.2468  0.8868  0.3523
   89SAPC   H3R 8422   6.294   3.902   7.101  0.9192 -0.2383 -0.4678
   89SAPC   H3S 8423   6.176   3.854   7.229 -0.1182 -0.0975  1.1548
   89SAPC   C24 8424   6.215   3.697   7.098  0.2421  0.0705 -0.3214
   89SAPC   H4R 8425   6.117   3.722   7.053  1.0448  1.2242 -1.4817
   89SAPC   H4S 8426   6.205   3.612   7.170 -0.8701  1.2430  0.9525
   89SAPC   C25 8427   6.301   3.667   6.981 -0.0969 -0.3786  0.4080
   89SAPC   H5R 8428   6.368   3.747   6.949  2.0017 -2.9944 -2.2803
   89SAPC   C26 8429   6.312   3.546   6.920 -0.1601 -0.4411 -0.2878
   89SAPC   H6R 8430   6.400   3.536   6.855  1.4984  0.7123  1.6342
   89SAPC   C27 8431   6.249   3.411   6.943  1.0533 -0.0869 -0.1734
   89SAPC   H7R 8432   6.220   3.372   6.843  0.8411  0.1048 -0.1866
   89SAPC   H7S 8433   6.153   3.419   6.999  1.2293 -0.9285  0.2647
   89SAPC   C28 8434   6.345   3.320   7.015  1.1916 -0.4727 -0.5186
   89SAPC   H8R 8435   6.382   3.368   7.106  0.2106  0.2249 -0.4749
   89SAPC   C29 8436   6.378   3.195   6.980 -0.1122  0.1600 -0.6939
   89SAPC   H9R 8437   6.463   3.145   7.029  0.0422  0.2148 -0.9033
   89SAPC  C210 8438   6.334   3.118   6.865 -0.1454  0.1776 -0.4704
   89SAPC  H10R 8439   6.226   3.140   6.846  0.1067  0.9857 -1.0478
   89SAPC  H10S 8440   6.330   3.009   6.889 -0.8605  0.2804 -0.1096
   89SAPC  C211 8441   6.415   3.148   6.743 -0.1892  0.1012  0.7564
   89SAPC  H11R 8442   6.406   3.255   6.721 -0.0587 -0.4151 -2.1116
   89SAPC  C212 8443   6.515   3.074   6.695  0.3386 -0.7176 -0.2442
   89SAPC  H12R 8444   6.553   3.099   6.595 -1.3356  2.1687 -0.2536
   89SAPC  C213 8445   6.538   2.925   6.732  0.5437 -0.2475  0.2498
   89SAPC  H13R 8446   6.445   2.867   6.713  0.6722 -0.5532  0.5392
   89SAPC  H13S 8447   6.554   2.905   6.841 -0.4004 -0.8933  0.2827
   89SAPC  C214 8448   6.663   2.852   6.676  0.1366  0.6528  1.0335
   89SAPC  H14R 8449   6.754   2.885   6.729 -0.6177  0.9064  2.2048
   89SAPC  C215 8450   6.664   2.743   6.586  0.6156 -0.2846  0.1530
   89SAPC  H15R 8451   6.761   2.700   6.555  0.3332 -2.0394  1.5340
   89SAPC  C216 8452   6.543   2.687   6.514  0.3535  0.3233  0.2119
   89SAPC  H16R 8453   6.447   2.715   6.561 -1.3867 -0.8084 -2.4127
   89SAPC  H16S 8454   6.557   2.577   6.519  2.7981  0.5918  0.8116
   89SAPC  C217 8455   6.525   2.716   6.368 -0.0690  0.1289  0.3113
   89SAPC  H17R 8456   6.423   2.680   6.341  0.3433  0.6478 -2.1202
   89SAPC  H17S 8457   6.597   2.651   6.314  0.9184  1.3670  0.0832
   89SAPC  C218 8458   6.549   2.863   6.332  0.0861 -0.3428 -0.4989
   89SAPC  H18R 8459   6.648   2.900   6.364 -0.3860  0.0611  0.5531
   89SAPC  H18S 8460   6.475   2.916   6.396  1.3008 -0.1841  0.8198
   89SAPC  C219 8461   6.528   2.902   6.186 -0.6377 -0.1234  0.2490
   89SAPC  H19R 8462   6.440   2.842   6.154 -1.3665 -0.3017  2.4624
   89SAPC  H19S 8463   6.613   2.870   6.121 -1.9815 -1.4109 -0.9389
   89SAPC  C220 8464   6.509   3.060   6.163  0.3821 -0.5025 -0.5530
   89SAPC  H20R 8465   6.497   3.079   6.054  0.8204  0.5549 -0.4329
   89SAPC  H20S 8466   6.589   3.120   6.212  0.0948 -0.4477 -0.1526
   89SAPC  H20T 8467   6.414   3.083   6.214  0.5665 -0.0377 -0.4135
   89SAPC   C33 8468   5.793   3.661   7.133 -0.4187 -0.4917 -0.4218
   89SAPC   H3X 8469   5.766   3.556   7.157 -0.5997  0.1083  2.3675
   89SAPC   H3Y 8470   5.882   3.649   7.069  0.5957 -1.8326  1.1608
   89SAPC   C34 8471   5.669   3.722   7.081 -0.6166  0.1470 -0.0773
   89SAPC   H4X 8472   5.687   3.830   7.060  0.0457 -0.0567 -0.5816
   89SAPC   H4Y 8473   5.584   3.711   7.152  0.0961  2.1683  1.1879
   89SAPC   C35 8474   5.613   3.657   6.952 -0.2719  0.1899  0.0003
   89SAPC   H5X 8475   5.508   3.692   6.950 -0.6871 -1.0364 -0.4381
   89SAPC   H5Y 8476   5.604   3.548   6.971  0.2907 -0.4473 -2.9072
   89SAPC   C36 8477   5.694   3.678   6.822 -0.3159 -0.3565 -0.1545
   89SAPC   H6X 8478   5.792   3.627   6.828 -0.2392 -0.1580  0.2765
   89SAPC   H6Y 8479   5.697   3.790   6.820 -2.3483 -0.2336  0.7258
   89SAPC   C37 8480   5.607   3.640   6.703 -0.2644 -0.1468 -0.0356
   89SAPC   H7X 8481   5.507   3.689   6.704  0.3104  1.3333 -3.0349
   89SAPC   H7Y 8482   5.594   3.531   6.719  0.3179 -0.1395  0.5423
   89SAPC   C38 8483   5.678   3.672   6.570  0.0831  0.1730  0.0554
   89SAPC   H8X 8484   5.758   3.596   6.577  0.3175  0.5752  2.4757
   89SAPC   H8Y 8485   5.719   3.775   6.558 -0.0844  0.1402 -0.8267
   89SAPC   C39 8486   5.579   3.645   6.454 -0.0580  0.3098 -0.1360
   89SAPC   H9X 8487   5.532   3.742   6.429  0.8326  0.8354  0.1657
   89SAPC   H9Y 8488   5.491   3.585   6.486 -0.3113 -0.3403 -1.9329
   89SAPC  C310 8489   5.639   3.596   6.321 -0.5147 -0.0594  0.1668
   89SAPC  H10X 8490   5.557   3.566   6.252 -0.7396 -1.4633  1.0199
   89SAPC  H10Y 8491   5.699   3.505   6.339 -2.9681 -2.0144 -0.9331
   89SAPC  C311 8492   5.732   3.699   6.258  0.3210 -0.1856  0.2842
   89SAPC  H11X 8493   5.823   3.712   6.320  0.3954 -2.5306  0.7672
   89SAPC  H11Y 8494   5.687   3.800   6.245 -0.7134 -0.9107 -2.4576
   89SAPC  C312 8495   5.786   3.648   6.119  0.0427  0.0034 -0.3006
   89SAPC  H12X 8496   5.700   3.618   6.056 -0.3078  0.6071 -0.1165
   89SAPC  H12Y 8497   5.844   3.553   6.127 -2.4272 -1.5732  0.1681
   89SAPC  C313 8498   5.864   3.764   6.062 -0.0499  0.6421 -0.1006
   89SAPC  H13X 8499   5.941   3.797   6.135  0.1296 -0.5301  0.2659
   89SAPC  H13Y 8500   5.804   3.858   6.059  0.8203  1.2668  1.3309
   89SAPC  C314 8501   5.927   3.738   5.924 -0.0163  0.2249  0.5225
   89SAPC  H14X 8502   5.841   3.731   5.855  0.3376  1.9234 -0.1313
   89SAPC  H14Y 8503   5.990   3.648   5.941 -0.7540 -0.2210  0.9533
   89SAPC  C315 8504   6.013   3.852   5.879 -0.5621 -0.5549 -0.0515
   89SAPC  H15X 8505   6.073   3.832   5.788  0.1968  3.7357 -0.6945
   89SAPC  H15Y 8506   6.092   3.880   5.953 -0.8224  1.7485 -0.5847
   89SAPC  C316 8507   5.941   3.988   5.851  0.9401  0.3569  0.3308
   89SAPC  H16X 8508   5.881   4.005   5.942 -1.2720 -1.0405 -0.7761
   89SAPC  H16Y 8509   5.877   3.973   5.762 -1.4186 -0.9018  2.1430
   89SAPC  C317 8510   6.044   4.101   5.822 -0.0342 -0.1958 -0.3484
   89SAPC  H17X 8511   6.104   4.076   5.732  2.3193  3.6449 -0.0997
   89SAPC  H17Y 8512   6.121   4.102   5.902  0.3485  0.5855 -0.7095
   89SAPC  C318 8513   5.984   4.234   5.809 -0.2114 -0.0706  0.1840
   89SAPC  H18X 8514   6.064   4.307   5.783 -0.5203  0.9424  1.9233
   89SAPC  H18Y 8515   5.936   4.269   5.903 -0.5636  0.4643 -0.1880
   89SAPC  H18Z 8516   5.909   4.224   5.728  1.9288 -1.2280 -1.7922
   90SAPC     N 8517   1.110   0.282   7.617 -0.2850  0.0863 -0.1239
   90SAPC   C12 8518   1.061   0.171   7.535 -0.1240  0.1246  1.0423
   90SAPC  H12A 8519   0.954   0.169   7.543 -0.2473 -0.4912 -0.4213
   90SAPC  H12B 8520   1.099   0.076   7.570  1.0948  0.4713  0.7221
   90SAPC   C13 8521   1.111   0.250   7.761  0.4022 -0.0182  0.3576
   90SAPC  H13A 8522   1.159   0.334   7.811 -1.4762  1.8354 -0.7721
   90SAPC  H13B 8523   1.014   0.241   7.806 -0.5400  2.0028 -1.1038
   90SAPC  H13C 8524   1.165   0.158   7.780 -1.6256 -1.4425 -0.5309
   90SAPC   C14 8525   1.258   0.298   7.573  0.5494 -0.5910 -0.8802
   90SAPC  H14A 8526   1.310   0.205   7.554  0.1580 -0.9063 -0.4188
   90SAPC  H14B 8527   1.259   0.348   7.477 -1.3192 -0.6880 -0.9836
   90SAPC  H14C 8528   1.304   0.371   7.638 -3.0407  0.8758  0.2090
   90SAPC   C15 8529   1.037   0.417   7.600 -0.2916 -0.0213 -0.2596
   90SAPC  H15A 8530   1.072   0.502   7.657 -2.0848 -0.7974  2.1696
   90SAPC  H15B 8531   1.042   0.448   7.497 -1.4719 -1.6531 -0.8310
   90SAPC  H15C 8532   0.937   0.402   7.637  0.6985 -1.1131  2.2476
   90SAPC   C11 8533   1.073   0.179   7.378  0.1180 -0.7211  0.0871
   90SAPC  H11A 8534   1.024   0.089   7.336 -0.5078 -1.9124  3.1053
   90SAPC  H11B 8535   1.181   0.178   7.351 -0.1355 -1.5040 -0.9660
   90SAPC     P 8536   0.864   0.299   7.282 -0.2852  0.0513  0.2998
   90SAPC   O13 8537   0.781   0.227   7.383 -0.2136 -0.0497  0.2598
   90SAPC   O14 8538   0.830   0.440   7.262  0.3141 -0.5070 -0.3565
   90SAPC   O12 8539   1.018   0.299   7.335  0.1732  0.0247  0.7515
   90SAPC   O11 8540   0.866   0.212   7.153 -0.2084 -0.0829  0.6099
   90SAPC    C1 8541   0.985   0.214   7.068 -0.3147 -0.2955 -0.6606
   90SAPC    HA 8542   1.080   0.242   7.119 -0.8177  0.7205 -0.2512
   90SAPC    HB 8543   1.007   0.112   7.030 -0.2610 -0.4903 -0.1168
   90SAPC    C2 8544   0.959   0.304   6.943  0.3496 -0.4243  0.0587
   90SAPC    HS 8545   0.891   0.387   6.971 -0.8607 -1.1614 -0.6101
   90SAPC   O21 8546   0.906   0.227   6.842  0.0612  0.3936  0.1241
   90SAPC   C21 8547   0.774   0.224   6.813 -1.3757  0.1045  0.1156
   90SAPC   O22 8548   0.683   0.295   6.858 -0.0102  0.1753  0.0139
   90SAPC   C22 8549   0.772   0.128   6.687 -1.1538 -0.2294 -0.1195
   90SAPC   H2R 8550   0.765   0.193   6.597  1.5139 -1.3890 -1.2672
   90SAPC   H2S 8551   0.869   0.074   6.685 -2.0470 -1.8474 -0.9116
   90SAPC    C3 8552   1.095   0.362   6.894  0.7626  0.0573  0.1945
   90SAPC    HX 8553   1.172   0.285   6.913 -0.6281 -1.3912  0.1604
   90SAPC    HY 8554   1.122   0.442   6.966  3.0916 -0.6886  0.2104
   90SAPC   O31 8555   1.081   0.415   6.757 -0.0879  0.1223 -0.1001
   90SAPC   C31 8556   1.108   0.330   6.661  0.5438 -0.0949 -0.5088
   90SAPC   O32 8557   1.144   0.211   6.675 -0.3028  0.0884  0.4724
   90SAPC   C32 8558   1.081   0.406   6.532  0.0975  0.1790  0.1212
   90SAPC   H2X 8559   1.056   0.512   6.550  0.1373  0.1729  0.2152
   90SAPC   H2Y 8560   0.979   0.379   6.496  1.2425 -1.2607 -2.2346
   90SAPC   C23 8561   0.649   0.037   6.695  0.2020  0.4522  0.1443
   90SAPC   H3R 8562   0.553   0.093   6.706 -0.9675 -0.6425 -3.2515
   90SAPC   H3S 8563   0.666  -0.041   6.772  1.5492  0.9792  0.4108
   90SAPC   C24 8564   0.614  -0.051   6.570 -1.0077 -0.1454  0.3015
   90SAPC   H4R 8565   0.518  -0.107   6.577 -0.5901 -0.7576  1.2310
   90SAPC   H4S 8566   0.689  -0.132   6.559  0.4245  0.9717  1.4269
   90SAPC   C25 8567   0.604   0.018   6.438  0.1647  0.6458  0.4666
   90SAPC   H5R 8568   0.522   0.091   6.436  0.4162  0.9870  1.7102
   90SAPC   C26 8569   0.668  -0.005   6.324 -0.7215 -0.8926  0.3265
   90SAPC   H6R 8570   0.658   0.063   6.238  4.2089  0.9482  0.8501
   90SAPC   C27 8571   0.790  -0.093   6.298 -0.2934  0.1163  0.5156
   90SAPC   H7R 8572   0.776  -0.175   6.371 -1.7521  0.4590  0.6535
   90SAPC   H7S 8573   0.885  -0.050   6.336 -0.8691  0.9311  1.0600
   90SAPC   C28 8574   0.816  -0.151   6.159  0.5524 -0.1139 -0.2097
   90SAPC   H8R 8575   0.790  -0.258   6.151 -3.6476  0.7276 -0.3132
   90SAPC   C29 8576   0.861  -0.092   6.043 -0.3117 -0.0663  0.5616
   90SAPC   H9R 8577   0.853  -0.153   5.952  2.5053 -0.5907  0.5700
   90SAPC  C210 8578   0.883   0.053   6.025 -0.2231  0.2776 -0.2251
   90SAPC  H10R 8579   0.969   0.067   5.957 -0.0698  1.9209  0.2636
   90SAPC  H10S 8580   0.909   0.099   6.123  0.4231  1.1540 -0.7934
   90SAPC  C211 8581   0.762   0.131   5.970  0.3933  1.0621  0.6146
   90SAPC  H11R 8582   0.697   0.071   5.905 -0.9945 -2.0753  4.4834
   90SAPC  C212 8583   0.730   0.255   6.000 -0.4774 -1.0797 -0.2470
   90SAPC  H12R 8584   0.640   0.293   5.948  0.0633  0.6547 -0.0037
   90SAPC  C213 8585   0.803   0.349   6.088 -0.0783  0.1060  0.0886
   90SAPC  H13R 8586   0.905   0.361   6.045 -0.8113 -0.7299 -2.0181
   90SAPC  H13S 8587   0.814   0.308   6.190  0.8787 -1.6876 -0.7020
   90SAPC  C214 8588   0.739   0.484   6.084 -0.0004  0.9725  0.6823
   90SAPC  H14R 8589   0.690   0.503   5.988  0.9083  2.1297  0.4109
   90SAPC  C215 8590   0.727   0.578   6.176  0.5384 -0.9832  0.2338
   90SAPC  H15R 8591   0.671   0.670   6.153  0.2444 -1.4895 -1.1678
   90SAPC  C216 8592   0.787   0.571   6.312 -0.5432 -0.2640  0.2084
   90SAPC  H16R 8593   0.898   0.573   6.309 -0.5800  1.3097 -0.6061
   90SAPC  H16S 8594   0.758   0.476   6.363  0.2052 -2.7947 -3.6482
   90SAPC  C217 8595   0.737   0.689   6.395 -0.4761  0.0861  0.0218
   90SAPC  H17R 8596   0.627   0.680   6.401 -0.4838  0.8419  1.6925
   90SAPC  H17S 8597   0.755   0.783   6.339  0.5444  0.8412  1.5215
   90SAPC  C218 8598   0.794   0.680   6.536 -0.7732 -0.2751  0.6166
   90SAPC  H18R 8599   0.904   0.696   6.524 -0.6805 -1.5291 -0.4443
   90SAPC  H18S 8600   0.783   0.580   6.582  3.7007 -0.0586  2.8031
   90SAPC  C219 8601   0.723   0.780   6.638  0.3911 -0.2500 -0.3412
   90SAPC  H19R 8602   0.756   0.750   6.739  2.2732 -1.1141 -1.1576
   90SAPC  H19S 8603   0.615   0.755   6.636  0.4676 -0.7539  1.0408
   90SAPC  C220 8604   0.736   0.926   6.601  0.6781 -0.0646 -0.9276
   90SAPC  H20R 8605   0.843   0.949   6.621  0.4027  0.8725 -0.4886
   90SAPC  H20S 8606   0.683   0.996   6.669  1.7141  1.4834 -1.6278
   90SAPC  H20T 8607   0.730   0.948   6.492 -1.0666 -1.5974 -1.1828
   90SAPC   C33 8608   1.182   0.385   6.422  0.3089  0.2783  0.5383
   90SAPC   H3X 8609   1.268   0.327   6.462  1.6969  0.0388 -2.4849
   90SAPC   H3Y 8610   1.227   0.481   6.390  0.7810 -0.1243 -0.0219
   90SAPC   C34 8611   1.137   0.317   6.288  0.3328  0.1850 -0.4880
   90SAPC   H4X 8612   1.084   0.391   6.225  0.6488  0.4053 -0.5010
   90SAPC   H4Y 8613   1.053   0.250   6.313  0.1393 -0.5542 -2.8492
   90SAPC   C35 8614   1.248   0.238   6.218  0.4296  0.5641 -0.4476
   90SAPC   H5X 8615   1.189   0.170   6.152  1.4959  2.2507 -3.2707
   90SAPC   H5Y 8616   1.303   0.169   6.285 -0.6169 -1.1708 -1.2794
   90SAPC   C36 8617   1.335   0.323   6.136  0.1868 -0.1664  0.7381
   90SAPC   H6X 8618   1.424   0.263   6.107 -0.2967 -1.2646  1.4655
   90SAPC   H6Y 8619   1.371   0.400   6.207  0.6887 -0.0471  0.3684
   90SAPC   C37 8620   1.274   0.413   6.021  0.5568 -0.2493  0.1150
   90SAPC   H7X 8621   1.347   0.493   5.996  1.9150 -0.8791  1.8608
   90SAPC   H7Y 8622   1.184   0.459   6.067  0.5163 -0.4973  0.2847
   90SAPC   C38 8623   1.231   0.330   5.900 -0.1043  0.8448 -0.5581
   90SAPC   H8X 8624   1.170   0.245   5.937  3.4267 -1.6099  0.2283
   90SAPC   H8Y 8625   1.314   0.279   5.847 -0.6744  1.4669 -2.0896
   90SAPC   C39 8626   1.136   0.404   5.794 -0.6555  0.2672 -0.4138
   90SAPC   H9X 8627   1.201   0.488   5.761 -0.2577 -0.0760 -0.5164
   90SAPC   H9Y 8628   1.051   0.438   5.858 -0.4981  0.9248 -0.5453
   90SAPC  C310 8629   1.096   0.312   5.681 -0.1629 -0.0878 -0.3401
   90SAPC  H10X 8630   1.033   0.229   5.719 -0.5203 -1.0873 -2.8984
   90SAPC  H10Y 8631   1.187   0.259   5.644  0.5272  0.7280  0.1547
   90SAPC  C311 8632   1.018   0.374   5.566  0.1767 -0.3559 -0.2481
   90SAPC  H11X 8633   0.923   0.410   5.611 -1.4643 -1.8070 -2.3514
   90SAPC  H11Y 8634   0.994   0.301   5.486  0.9379  1.4399 -2.1965
   90SAPC  C312 8635   1.092   0.483   5.498 -0.2427 -0.5832 -0.0553
   90SAPC  H12X 8636   1.198   0.456   5.479 -0.4660 -0.9313 -0.8356
   90SAPC  H12Y 8637   1.107   0.574   5.560 -0.8168 -0.7339  0.3113
   90SAPC  C313 8638   1.022   0.530   5.371 -0.1879 -0.1624  1.0690
   90SAPC  H13X 8639   0.989   0.634   5.390  0.0674  0.3161 -0.9067
   90SAPC  H13Y 8640   0.934   0.467   5.345 -0.5431  1.5278 -2.4007
   90SAPC  C314 8641   1.119   0.531   5.253  0.2798 -0.2838  1.1601
   90SAPC  H14X 8642   1.160   0.429   5.240  1.3976  0.3178 -0.2879
   90SAPC  H14Y 8643   1.205   0.598   5.277 -0.4350  0.7201  0.9920
   90SAPC  C315 8644   1.054   0.570   5.125  0.3145 -0.3238  0.7564
   90SAPC  H15X 8645   0.993   0.660   5.148 -1.3401 -1.4827  1.0588
   90SAPC  H15Y 8646   0.989   0.493   5.079  2.0152 -0.5921 -1.3443
   90SAPC  C316 8647   1.156   0.630   5.024  0.3518  0.1212  0.4208
   90SAPC  H16X 8648   1.229   0.549   5.003  0.6270  0.0843  1.4855
   90SAPC  H16Y 8649   1.205   0.714   5.077 -0.1278 -0.5471  1.9985
   90SAPC  C317 8650   1.091   0.676   4.890 -0.2641  0.3086 -0.2047
   90SAPC  H17X 8651   1.015   0.604   4.852  0.8842 -0.5692 -0.9226
   90SAPC  H17Y 8652   1.175   0.679   4.817  0.0587  0.1577  0.1557
   90SAPC  C318 8653   1.033   0.812   4.908 -0.5381 -0.2591  0.3169
   90SAPC  H18X 8654   0.958   0.838   4.830  2.5656 -1.5319 -3.4279
   90SAPC  H18Y 8655   1.105   0.896   4.909 -0.9791  0.1290  1.5356
   90SAPC  H18Z 8656   0.981   0.815   5.006  1.1785 -1.2433  1.2975
   91SAPC     N 8657   5.757   2.031   7.470 -0.1646  0.4641  0.8929
   91SAPC   C12 8658   5.755   1.895   7.396  0.2753 -0.7538 -0.0483
   91SAPC  H12A 8659   5.765   1.925   7.292  1.6569  4.1291  1.2327
   91SAPC  H12B 8660   5.655   1.859   7.413 -1.2712  2.7687 -0.7151
   91SAPC   C13 8661   5.888   2.101   7.422  0.3346  0.6816  0.2217
   91SAPC  H13A 8662   5.894   2.194   7.477  0.7934  1.0588 -0.4459
   91SAPC  H13B 8663   5.982   2.048   7.424  1.6017  2.7983 -0.2937
   91SAPC  H13C 8664   5.897   2.129   7.318  2.1680 -0.9083 -0.1254
   91SAPC   C14 8665   5.643   2.114   7.446  0.0704  0.3862 -0.0854
   91SAPC  H14A 8666   5.634   2.147   7.343  0.0732  0.9444  0.0890
   91SAPC  H14B 8667   5.547   2.066   7.461 -0.4670  1.1633 -0.9095
   91SAPC  H14C 8668   5.651   2.206   7.501 -1.7232 -0.3068  1.4476
   91SAPC   C15 8669   5.777   2.006   7.621  0.0003 -0.3296  0.7550
   91SAPC  H15A 8670   5.791   2.102   7.669 -1.2399 -1.2848  3.1835
   91SAPC  H15B 8671   5.701   1.947   7.669 -0.6364 -0.8214 -0.7906
   91SAPC  H15C 8672   5.868   1.953   7.644  0.3578 -0.4993 -0.9126
   91SAPC   C11 8673   5.861   1.786   7.420 -0.0405  0.5005  0.1600
   91SAPC  H11A 8674   5.853   1.703   7.347  1.8229 -0.5033  1.0141
   91SAPC  H11B 8675   5.840   1.734   7.516 -0.2306  2.5449  1.2828
   91SAPC     P 8676   6.118   1.742   7.436 -0.2058  0.0912  0.1874
   91SAPC   O13 8677   6.238   1.819   7.473 -0.6979  0.6172  0.4741
   91SAPC   O14 8678   6.081   1.628   7.514  0.0457  0.2679  0.6252
   91SAPC   O12 8679   5.996   1.832   7.425  0.2044 -0.0871  0.2632
   91SAPC   O11 8680   6.129   1.692   7.287 -0.7327  0.2762 -0.4664
   91SAPC    C1 8681   6.124   1.786   7.171  0.4843 -0.1698 -0.4387
   91SAPC    HA 8682   6.150   1.889   7.203 -1.4297 -0.1134  1.1295
   91SAPC    HB 8683   6.202   1.744   7.104  0.1740 -1.3160 -0.1066
   91SAPC    C2 8684   5.997   1.773   7.084 -0.5596 -0.1570  0.0689
   91SAPC    HS 8685   5.912   1.806   7.147 -1.4378 -1.4115 -0.4117
   91SAPC   O21 8686   5.990   1.636   7.045  0.1950  0.1391 -0.0796
   91SAPC   C21 8687   5.871   1.587   7.007 -0.0666  0.7495 -0.6721
   91SAPC   O22 8688   5.763   1.650   7.011  0.1577 -0.3664  0.2290
   91SAPC   C22 8689   5.901   1.440   6.973 -0.5667  0.6792  0.5191
   91SAPC   H2R 8690   6.006   1.412   6.995 -1.0756 -0.6650  1.3405
   91SAPC   H2S 8691   5.845   1.360   7.026 -3.0650  0.6091 -2.0041
   91SAPC    C3 8692   6.001   1.863   6.956  0.0962 -0.2671 -0.0341
   91SAPC    HX 8693   6.033   1.969   6.968 -1.5998  0.2466  0.1742
   91SAPC    HY 8694   5.897   1.872   6.917  0.8515  1.0938 -1.9405
   91SAPC   O31 8695   6.066   1.791   6.849 -0.5516 -0.6386  0.2397
   91SAPC   C31 8696   6.196   1.821   6.838  0.0323  0.2278  0.9206
   91SAPC   O32 8697   6.255   1.902   6.901 -0.2065  0.1046 -0.6283
   91SAPC   C32 8698   6.253   1.740   6.723 -0.7557 -0.9575  0.3743
   91SAPC   H2X 8699   6.173   1.703   6.656  0.3106 -1.9216 -0.3939
   91SAPC   H2Y 8700   6.318   1.654   6.749 -1.3427 -1.8814 -1.0997
   91SAPC   C23 8701   5.859   1.406   6.823  0.1546 -0.3722 -0.6081
   91SAPC   H3R 8702   5.752   1.426   6.803  0.0433  1.5177  1.4162
   91SAPC   H3S 8703   5.860   1.299   6.796 -1.0938 -0.6374  0.3350
   91SAPC   C24 8704   5.956   1.476   6.728  0.0575 -0.4151  0.2046
   91SAPC   H4R 8705   5.973   1.582   6.754  1.5465 -1.3692  3.6523
   91SAPC   H4S 8706   5.897   1.490   6.634 -1.8422  0.0493  1.4072
   91SAPC   C25 8707   6.093   1.412   6.704  0.0022  0.7872  0.5884
   91SAPC   H5R 8708   6.165   1.449   6.777  0.1406  2.8134 -0.5106
   91SAPC   C26 8709   6.133   1.317   6.617 -0.0535  0.1744 -0.0713
   91SAPC   H6R 8710   6.240   1.292   6.611 -0.4254 -1.2187 -1.8967
   91SAPC   C27 8711   6.038   1.251   6.516 -0.5570  0.3239  0.4224
   91SAPC   H7R 8712   5.945   1.213   6.565 -1.0423  1.6504  0.5541
   91SAPC   H7S 8713   6.079   1.154   6.479  0.6509  0.1147  2.1532
   91SAPC   C28 8714   6.006   1.343   6.401  0.1057 -0.1688  0.5848
   91SAPC   H8R 8715   6.032   1.448   6.417  0.1288 -0.3181  1.5567
   91SAPC   C29 8716   5.967   1.312   6.278 -0.1045 -0.1390 -0.2841
   91SAPC   H9R 8717   5.956   1.394   6.206  0.0842  2.0651  2.0757
   91SAPC  C210 8718   5.937   1.175   6.228  0.3010  0.2095  0.0250
   91SAPC  H10R 8719   5.923   1.110   6.318 -0.8821  1.6503  0.9433
   91SAPC  H10S 8720   6.016   1.146   6.156 -0.6949  0.6897 -1.2866
   91SAPC  C211 8721   5.808   1.164   6.158  0.5280 -0.1335  0.4816
   91SAPC  H11R 8722   5.719   1.193   6.215  0.6297 -0.9875  1.1012
   91SAPC  C212 8723   5.778   1.128   6.023 -0.7991  0.2567 -0.0516
   91SAPC  H12R 8724   5.673   1.120   5.989 -0.3379  0.2099 -1.5330
   91SAPC  C213 8725   5.877   1.082   5.920 -0.3572 -0.2427 -0.6973
   91SAPC  H13R 8726   5.969   1.141   5.939  0.0944  0.0423 -3.3015
   91SAPC  H13S 8727   5.854   1.112   5.815 -0.9855 -1.9269 -1.0793
   91SAPC  C214 8728   5.908   0.937   5.929  0.4535  0.3220 -0.3956
   91SAPC  H14R 8729   5.939   0.905   6.030  0.6554  0.8512 -0.2848
   91SAPC  C215 8730   5.882   0.839   5.839 -0.9859  0.5080 -0.1046
   91SAPC  H15R 8731   5.914   0.735   5.855 -2.1561  0.1680  0.1967
   91SAPC  C216 8732   5.827   0.857   5.695  0.1110  0.5422  0.2657
   91SAPC  H16R 8733   5.847   0.958   5.653 -0.2704 -0.0797 -1.4624
   91SAPC  H16S 8734   5.718   0.871   5.714  0.3870  2.7626  0.4750
   91SAPC  C217 8735   5.858   0.745   5.595  0.2800 -0.2476  0.3742
   91SAPC  H17R 8736   5.812   0.649   5.630 -1.8919  0.3031 -0.7798
   91SAPC  H17S 8737   5.966   0.723   5.582  0.1538  0.4671 -2.5257
   91SAPC  C218 8738   5.808   0.763   5.451  0.1851 -0.5682 -0.3836
   91SAPC  H18R 8739   5.836   0.667   5.402 -1.3558 -0.2267 -2.0622
   91SAPC  H18S 8740   5.854   0.844   5.390  0.3413 -0.8380 -0.6330
   91SAPC  C219 8741   5.656   0.773   5.423 -0.5073  1.0628  0.8772
   91SAPC  H19R 8742   5.634   0.810   5.321  0.5310 -0.1287  0.1943
   91SAPC  H19S 8743   5.608   0.845   5.492 -4.8793 -0.2102 -0.5411
   91SAPC  C220 8744   5.580   0.644   5.444 -0.5360 -0.1081  0.0162
   91SAPC  H20R 8745   5.472   0.665   5.429 -0.8442 -2.0657 -0.8102
   91SAPC  H20S 8746   5.597   0.602   5.546 -1.3127 -1.8975 -0.5583
   91SAPC  H20T 8747   5.606   0.564   5.372 -0.0094  0.2359 -0.1813
   91SAPC   C33 8748   6.327   1.840   6.625 -0.5359  0.3097  0.4802
   91SAPC   H3X 8749   6.425   1.883   6.655 -0.2323 -0.2082  0.2299
   91SAPC   H3Y 8750   6.256   1.922   6.601 -0.4010  0.3885  0.3535
   91SAPC   C34 8751   6.358   1.760   6.496  0.1647 -0.1913  0.2134
   91SAPC   H4X 8752   6.394   1.828   6.416 -0.7243 -1.0878 -1.0027
   91SAPC   H4Y 8753   6.258   1.717   6.470 -0.0610 -1.1863  2.4901
   91SAPC   C35 8754   6.458   1.647   6.517 -0.0597  0.0779  0.3818
   91SAPC   H5X 8755   6.411   1.568   6.578  0.1452  0.1990  0.6980
   91SAPC   H5Y 8756   6.543   1.687   6.577  0.9898 -0.9550 -0.3772
   91SAPC   C36 8757   6.499   1.582   6.390  0.2777  0.4439 -0.0796
   91SAPC   H6X 8758   6.585   1.518   6.420  1.5605  2.0633 -0.2053
   91SAPC   H6Y 8759   6.522   1.646   6.303 -0.1466 -0.7411 -1.0994
   91SAPC   C37 8760   6.381   1.496   6.340 -0.2435 -0.7022  0.0219
   91SAPC   H7X 8761   6.285   1.543   6.369 -0.4087 -0.8204 -0.3210
   91SAPC   H7Y 8762   6.379   1.406   6.405  1.4996 -0.0402  1.0580
   91SAPC   C38 8763   6.391   1.465   6.196  0.0599  0.3779 -0.1977
   91SAPC   H8X 8764   6.464   1.382   6.181 -2.2367 -1.7706 -0.1590
   91SAPC   H8Y 8765   6.439   1.544   6.135  1.9094 -0.6602 -0.1729
   91SAPC   C39 8766   6.264   1.417   6.129  0.6842  0.0038  0.0742
   91SAPC   H9X 8767   6.205   1.508   6.107 -1.1714 -1.5624 -1.8900
   91SAPC   H9Y 8768   6.189   1.355   6.184 -0.3954  2.0182  0.9809
   91SAPC  C310 8769   6.289   1.335   6.004 -0.9176 -0.7240 -0.7868
   91SAPC  H10X 8770   6.374   1.365   5.939 -0.9180 -1.1184 -0.9707
   91SAPC  H10Y 8771   6.205   1.359   5.935 -0.1953  1.3801 -0.9983
   91SAPC  C311 8772   6.289   1.183   6.016 -0.6085  0.0879 -0.1101
   91SAPC  H11X 8773   6.195   1.159   6.068 -0.4631 -1.0016 -0.3203
   91SAPC  H11Y 8774   6.383   1.155   6.069 -0.1263 -0.5393 -1.2349
   91SAPC  C312 8775   6.290   1.106   5.883 -0.1231  0.2851 -0.0389
   91SAPC  H12X 8776   6.199   1.126   5.823 -0.3708 -4.2962 -1.5768
   91SAPC  H12Y 8777   6.285   1.000   5.914  0.3692  0.5475  0.9591
   91SAPC  C313 8778   6.408   1.130   5.786  0.1404 -0.2334 -0.3990
   91SAPC  H13X 8779   6.501   1.094   5.835 -0.3714 -1.1797 -0.1083
   91SAPC  H13Y 8780   6.421   1.240   5.778  2.0569 -0.3030  1.0375
   91SAPC  C314 8781   6.397   1.052   5.656 -0.6397 -0.6476  0.2293
   91SAPC  H14X 8782   6.486   1.078   5.595  0.9739  0.2094  2.7801
   91SAPC  H14Y 8783   6.309   1.098   5.606 -0.9705 -0.3812  1.0438
   91SAPC  C315 8784   6.377   0.902   5.673 -0.0066 -0.0525 -0.4318
   91SAPC  H15X 8785   6.275   0.881   5.712  1.3521 -3.8593  1.5552
   91SAPC  H15Y 8786   6.456   0.867   5.743 -0.5553 -1.3049 -0.4175
   91SAPC  C316 8787   6.396   0.822   5.534  0.4479 -0.3183  0.3313
   91SAPC  H16X 8788   6.506   0.822   5.520  0.3439  1.3824 -0.9243
   91SAPC  H16Y 8789   6.346   0.878   5.452 -1.3875 -0.0259  1.5872
   91SAPC  C317 8790   6.328   0.688   5.539  0.1506 -0.1657  0.0915
   91SAPC  H17X 8791   6.220   0.698   5.515  0.2838  2.6120  0.3971
   91SAPC  H17Y 8792   6.350   0.648   5.640 -0.9509 -0.9821  0.0306
   91SAPC  C318 8793   6.370   0.598   5.427  0.2964  0.2554  1.0545
   91SAPC  H18X 8794   6.476   0.566   5.436  0.1515 -1.2544 -1.7737
   91SAPC  H18Y 8795   6.355   0.658   5.335  0.5015 -2.3940 -0.8069
   91SAPC  H18Z 8796   6.311   0.504   5.425 -0.4057  0.6799  1.5454
   92SAPC     N 8797   0.814   5.898   7.706  0.2720 -0.1873 -0.2308
   92SAPC   C12 8798   0.694   5.981   7.656 -0.3384  0.8451  0.1866
   92SAPC  H12A 8799   0.708   6.079   7.699 -1.0539  1.0077  0.0621
   92SAPC  H12B 8800   0.598   5.946   7.692 -0.5582  1.1442 -0.1048
   92SAPC   C13 8801   0.801   5.747   7.689 -0.0465  0.4221 -0.0450
   92SAPC  H13A 8802   0.788   5.724   7.584  1.5168  0.1898 -0.2056
   92SAPC  H13B 8803   0.885   5.696   7.732 -1.0683  0.1940  1.7583
   92SAPC  H13C 8804   0.707   5.728   7.738 -0.7891 -2.4847 -2.3072
   92SAPC   C14 8805   0.943   5.936   7.640  0.5473  0.5926 -0.2027
   92SAPC  H14A 8806   0.939   5.911   7.534 -0.9865 -1.4005  0.2482
   92SAPC  H14B 8807   0.946   6.044   7.642 -5.0485  1.0860 -1.3911
   92SAPC  H14C 8808   1.032   5.902   7.691  1.3115  1.4401 -0.9429
   92SAPC   C15 8809   0.829   5.906   7.860  0.4095  0.8760 -0.3767
   92SAPC  H15A 8810   0.892   5.824   7.893 -0.4101 -0.2006 -1.3878
   92SAPC  H15B 8811   0.867   6.000   7.896 -0.6633  0.8489  0.8979
   92SAPC  H15C 8812   0.734   5.886   7.906  1.2840 -2.6372  0.2142
   92SAPC   C11 8813   0.671   6.004   7.501 -0.3171  0.4893 -0.4882
   92SAPC  H11A 8814   0.762   6.056   7.464 -0.3163  0.1143 -1.0118
   92SAPC  H11B 8815   0.591   6.077   7.479 -0.3271  0.4426 -0.6087
   92SAPC     P 8816   0.499   5.812   7.484 -0.0547 -0.3172 -0.1293
   92SAPC   O13 8817   0.487   5.742   7.613  0.4004 -0.2089 -0.3676
   92SAPC   O14 8818   0.399   5.919   7.459 -0.2054  0.0346  0.7763
   92SAPC   O12 8819   0.642   5.875   7.453 -0.0264 -0.1479  0.3862
   92SAPC   O11 8820   0.467   5.704   7.376  0.2722  0.0740  0.6011
   92SAPC    C1 8821   0.560   5.637   7.291 -0.7011  0.4807  0.2203
   92SAPC    HA 8822   0.654   5.609   7.343 -0.8396 -0.7917 -0.1779
   92SAPC    HB 8823   0.516   5.544   7.250 -0.6956  0.3667  0.4765
   92SAPC    C2 8824   0.603   5.726   7.170  0.2975  0.6547  0.2114
   92SAPC    HS 8825   0.641   5.820   7.215  0.4124 -0.0570  1.6649
   92SAPC   O21 8826   0.489   5.752   7.091 -0.3330  0.1023 -0.0002
   92SAPC   C21 8827   0.463   5.874   7.044 -0.3110 -0.4506 -0.0480
   92SAPC   O22 8828   0.539   5.967   7.069 -0.2314  0.0649 -0.0975
   92SAPC   C22 8829   0.353   5.860   6.940 -0.2778 -0.1609 -0.2977
   92SAPC   H2R 8830   0.393   5.805   6.851 -0.0057  2.1078 -1.6507
   92SAPC   H2S 8831   0.269   5.804   6.988  0.8583 -1.4848  0.2270
   92SAPC    C3 8832   0.718   5.660   7.089  0.6568 -0.2484 -0.8377
   92SAPC    HX 8833   0.802   5.643   7.160  0.3157  2.2384  0.2845
   92SAPC    HY 8834   0.761   5.724   7.010 -0.0031  0.9251 -0.2736
   92SAPC   O31 8835   0.678   5.535   7.041 -0.3346  0.2175  0.3757
   92SAPC   C31 8836   0.629   5.538   6.916  0.0992  0.4256 -0.0531
   92SAPC   O32 8837   0.641   5.634   6.840 -0.2843 -0.6086  0.1413
   92SAPC   C32 8838   0.578   5.397   6.889  0.2768 -0.6146  1.0720
   92SAPC   H2X 8839   0.469   5.418   6.898 -0.3604 -2.6029 -1.0902
   92SAPC   H2Y 8840   0.602   5.334   6.977  2.0915 -0.2524  0.8661
   92SAPC   C23 8841   0.301   5.996   6.894 -0.2622 -0.2769 -0.3235
   92SAPC   H3R 8842   0.299   6.058   6.986  1.3328 -0.6091 -0.0378
   92SAPC   H3S 8843   0.194   5.977   6.870 -0.2446 -2.2240  0.9670
   92SAPC   C24 8844   0.378   6.059   6.775 -1.1337 -0.0586 -0.3180
   92SAPC   H4R 8845   0.401   5.997   6.686  1.6401 -1.1008  1.0044
   92SAPC   H4S 8846   0.478   6.084   6.815 -0.7024 -0.3224 -1.2171
   92SAPC   C25 8847   0.305   6.192   6.742 -0.9798  0.1618  0.5616
   92SAPC   H5R 8848   0.301   6.263   6.825  0.3847 -1.0826  1.7364
   92SAPC   C26 8849   0.229   6.217   6.633  0.1420 -0.3217  0.4432
   92SAPC   H6R 8850   0.180   6.316   6.629  0.2635 -0.2966 -1.5961
   92SAPC   C27 8851   0.216   6.138   6.506 -0.3798  0.0158 -0.0301
   92SAPC   H7R 8852   0.135   6.191   6.451 -0.0129  1.4524  0.7624
   92SAPC   H7S 8853   0.196   6.031   6.527  1.1952 -0.4024 -0.4830
   92SAPC   C28 8854   0.339   6.146   6.422 -0.2515  0.8510 -0.1889
   92SAPC   H8R 8855   0.429   6.181   6.475 -1.4200  1.8292  1.2199
   92SAPC   C29 8856   0.349   6.143   6.293 -0.2493  0.1439 -0.3617
   92SAPC   H9R 8857   0.451   6.153   6.252 -0.4954  0.8219 -0.8284
   92SAPC  C210 8858   0.241   6.125   6.183  0.7642  0.4122  0.3060
   92SAPC  H10R 8859   0.141   6.100   6.225  2.4412 -0.9627  3.8666
   92SAPC  H10S 8860   0.275   6.029   6.139 -0.5250  0.6036 -1.2120
   92SAPC  C211 8861   0.244   6.233   6.070  0.4381 -0.4929  0.2264
   92SAPC  H11R 8862   0.250   6.339   6.099 -0.2652 -0.3432 -0.1465
   92SAPC  C212 8863   0.221   6.208   5.938  0.1286 -0.5181  0.4966
   92SAPC  H12R 8864   0.235   6.297   5.874  1.0671 -0.7085  0.4210
   92SAPC  C213 8865   0.193   6.074   5.879  0.4071  0.2672  0.1417
   92SAPC  H13R 8866   0.101   6.080   5.817  0.4108 -0.2710  0.0803
   92SAPC  H13S 8867   0.158   6.006   5.960 -0.4908 -0.6667 -0.9911
   92SAPC  C214 8868   0.301   6.022   5.786  0.2217  1.1506 -0.5928
   92SAPC  H14R 8869   0.398   6.007   5.837 -0.6987 -1.4225  0.5877
   92SAPC  C215 8870   0.300   6.000   5.653 -0.3580 -0.1606  0.1224
   92SAPC  H15R 8871   0.391   5.963   5.604 -0.8440 -1.9122  0.4568
   92SAPC  C216 8872   0.179   6.019   5.564  0.7445 -0.3437  0.1328
   92SAPC  H16R 8873   0.081   6.004   5.615  0.5456 -3.1604 -0.9099
   92SAPC  H16S 8874   0.170   5.943   5.483 -2.4710 -0.3302  0.3567
   92SAPC  C217 8875   0.174   6.156   5.493 -0.1183 -0.1439  0.4558
   92SAPC  H17R 8876   0.165   6.232   5.573  0.1568 -0.0878  0.4352
   92SAPC  H17S 8877   0.083   6.158   5.428 -0.5116 -1.1224  0.9621
   92SAPC  C218 8878   0.299   6.196   5.403 -0.0567 -0.2039 -0.2968
   92SAPC  H18R 8879   0.391   6.175   5.460  0.3593 -2.2117 -1.5901
   92SAPC  H18S 8880   0.286   6.306   5.396  1.4551  0.1415  1.5563
   92SAPC  C219 8881   0.296   6.118   5.273 -0.2953  0.2126  0.2368
   92SAPC  H19R 8882   0.219   6.155   5.201  1.2720  0.5104 -1.3615
   92SAPC  H19S 8883   0.272   6.013   5.297  2.9499 -0.4797  0.9161
   92SAPC  C220 8884   0.428   6.132   5.196  0.3718  0.4285 -0.3826
   92SAPC  H20R 8885   0.413   6.095   5.092 -0.6155  3.9071 -1.5899
   92SAPC  H20S 8886   0.518   6.087   5.243  0.3886  1.6166  0.7645
   92SAPC  H20T 8887   0.447   6.241   5.187  0.3086  0.4331 -0.4642
   92SAPC   C33 8888   0.614   5.342   6.749 -0.6122  0.0554  0.2928
   92SAPC   H3X 8889   0.725   5.343   6.739 -0.7899  0.1322 -2.0439
   92SAPC   H3Y 8890   0.568   5.412   6.676 -2.0783  0.7881  1.8433
   92SAPC   C34 8891   0.549   5.203   6.742 -0.0993  0.2484 -0.7313
   92SAPC   H4X 8892   0.439   5.204   6.756 -0.1032 -2.7967  0.2039
   92SAPC   H4Y 8893   0.591   5.130   6.815  0.1533  0.6850 -0.4385
   92SAPC   C35 8894   0.580   5.135   6.607  0.1694  0.2135 -0.0650
   92SAPC   H5X 8895   0.678   5.085   6.620 -0.0014 -0.0627  0.1982
   92SAPC   H5Y 8896   0.601   5.219   6.538  0.8044  0.2073  0.1183
   92SAPC   C36 8897   0.467   5.047   6.553  0.6429  0.0417  0.3737
   92SAPC   H6X 8898   0.376   5.111   6.557  1.4231  1.2052  4.0578
   92SAPC   H6Y 8899   0.439   4.962   6.620 -1.3499 -1.1183 -1.7581
   92SAPC   C37 8900   0.504   4.990   6.415 -0.0401  0.2096 -0.3092
   92SAPC   H7X 8901   0.607   4.949   6.422 -0.8548 -1.9439  0.0060
   92SAPC   H7Y 8902   0.504   5.072   6.341  0.3367  0.5831  0.1010
   92SAPC   C38 8903   0.423   4.876   6.363  0.1102  0.1995 -0.0431
   92SAPC   H8X 8904   0.316   4.895   6.388  0.2536  2.9948 -1.1882
   92SAPC   H8Y 8905   0.448   4.787   6.425  0.8035  0.9804  0.8357
   92SAPC   C39 8906   0.432   4.859   6.211  0.1265 -0.3175  0.1364
   92SAPC   H9X 8907   0.537   4.876   6.180  0.3589  0.0165  1.0590
   92SAPC   H9Y 8908   0.365   4.932   6.160  0.4798 -0.2890 -0.2871
   92SAPC  C310 8909   0.396   4.714   6.179 -0.0474 -0.3001 -0.2927
   92SAPC  H10X 8910   0.293   4.713   6.222  0.2191  1.5587  0.5364
   92SAPC  H10Y 8911   0.467   4.643   6.226 -0.1313 -0.0293  0.2654
   92SAPC  C311 8912   0.389   4.688   6.027  1.1429 -0.7036  0.3532
   92SAPC  H11X 8913   0.381   4.580   6.001  0.7892 -0.7970  0.8383
   92SAPC  H11Y 8914   0.481   4.732   5.982  0.0737  2.0204  0.6005
   92SAPC  C312 8915   0.264   4.749   5.965 -0.3007  0.2882  0.1785
   92SAPC  H12X 8916   0.260   4.860   5.974  1.3545  0.4091 -0.1549
   92SAPC  H12Y 8917   0.189   4.712   6.038 -0.9549  0.8119 -0.2161
   92SAPC  C313 8918   0.237   4.714   5.823  0.0550 -0.2201  0.3661
   92SAPC  H13X 8919   0.336   4.710   5.772 -0.7971 -1.7950 -1.2806
   92SAPC  H13Y 8920   0.182   4.790   5.764  0.3832 -0.9887 -0.9754
   92SAPC  C314 8921   0.163   4.582   5.806  0.5961  0.3175 -0.2216
   92SAPC  H14X 8922   0.073   4.603   5.867  1.5367  1.1043  0.9319
   92SAPC  H14Y 8923   0.226   4.499   5.843 -0.5683 -0.3102  0.3795
   92SAPC  C315 8924   0.121   4.538   5.665  0.7227  0.3643 -0.1959
   92SAPC  H15X 8925   0.046   4.613   5.631 -0.0437  0.1523  0.9833
   92SAPC  H15Y 8926   0.081   4.435   5.676  2.4541 -0.2822  0.3815
   92SAPC  C316 8927   0.236   4.550   5.559 -0.3963 -0.0858 -0.0229
   92SAPC  H16X 8928   0.212   4.474   5.481 -2.0681  2.4012 -2.1219
   92SAPC  H16Y 8929   0.333   4.519   5.603  0.2551 -0.2572 -1.5090
   92SAPC  C317 8930   0.248   4.679   5.476 -0.0918 -0.4748  1.0835
   92SAPC  H17X 8931   0.293   4.768   5.524  1.1833  0.1110 -1.0569
   92SAPC  H17Y 8932   0.148   4.706   5.437  0.7878 -0.5709 -1.4068
   92SAPC  C318 8933   0.332   4.658   5.354 -0.2271 -0.2815 -0.5015
   92SAPC  H18X 8934   0.334   4.750   5.291  1.3939  0.7050  0.9060
   92SAPC  H18Y 8935   0.298   4.568   5.298 -0.1030  0.8421 -2.4707
   92SAPC  H18Z 8936   0.437   4.648   5.387 -1.0885 -0.8364  2.3267
   93SAPC     N 8937   6.587   1.754   7.175 -0.4579 -0.5316 -0.2284
   93SAPC   C12 8938   6.602   1.598   7.181  0.0770 -0.7892 -0.1081
   93SAPC  H12A 8939   6.693   1.572   7.127 -0.6818 -0.8530 -1.4110
   93SAPC  H12B 8940   6.523   1.559   7.119 -0.7857 -1.9225  1.6431
   93SAPC   C13 8941   6.714   1.830   7.218  0.5368  0.0877 -0.3542
   93SAPC  H13A 8942   6.691   1.936   7.213 -2.7385 -0.4513  0.8518
   93SAPC  H13B 8943   6.747   1.809   7.319  0.2307 -2.0224 -0.6475
   93SAPC  H13C 8944   6.793   1.804   7.149 -0.0540 -0.9994 -0.6485
   93SAPC   C14 8945   6.555   1.803   7.037 -0.4668  0.2150  0.4492
   93SAPC  H14A 8946   6.474   1.757   6.983 -1.5712  0.9421  1.4475
   93SAPC  H14B 8947   6.511   1.899   7.061 -1.8338 -0.9076  2.6597
   93SAPC  H14C 8948   6.646   1.816   6.979 -0.5841  0.2053  0.2627
   93SAPC   C15 8949   6.474   1.791   7.273  0.0555 -0.5540 -0.7852
   93SAPC  H15A 8950   6.467   1.897   7.294  0.9247 -0.8915  1.4073
   93SAPC  H15B 8951   6.380   1.753   7.237 -0.3778  0.0345 -0.2823
   93SAPC  H15C 8952   6.489   1.741   7.367 -2.5502 -1.1462 -0.6008
   93SAPC   C11 8953   6.603   1.529   7.319 -0.4799 -0.1897 -0.1449
   93SAPC  H11A 8954   6.615   1.419   7.305 -1.0105 -0.4809  1.5250
   93SAPC  H11B 8955   6.508   1.534   7.375  0.2661 -2.2206  1.4616
   93SAPC     P 8956   6.858   1.556   7.378 -0.1037 -0.2867  0.2012
   93SAPC   O13 8957   6.938   1.666   7.441 -0.0152  0.7161  0.0908
   93SAPC   O14 8958   6.895   1.422   7.416 -0.0566  0.1355  0.0757
   93SAPC   O12 8959   6.707   1.587   7.401  0.0582  0.0235  0.2692
   93SAPC   O11 8960   6.885   1.557   7.215 -0.0131 -0.3632  0.1577
   93SAPC    C1 8961   7.008   1.621   7.172 -0.2427 -0.0626 -0.3888
   93SAPC    HA 8962   6.984   1.728   7.154  1.4363  0.3706 -0.2362
   93SAPC    HB 8963   7.085   1.615   7.252 -2.6924  1.8176  2.3549
   93SAPC    C2 8964   7.066   1.553   7.045 -0.0555 -0.3173 -0.2675
   93SAPC    HS 8965   7.144   1.622   7.006  0.8408 -0.2668  1.5309
   93SAPC   O21 8966   6.963   1.525   6.946 -0.1076 -0.1434 -0.4947
   93SAPC   C21 8967   6.891   1.631   6.903 -0.3432  0.5836  0.3463
   93SAPC   O22 8968   6.889   1.743   6.945  0.4284 -0.5337 -0.8599
   93SAPC   C22 8969   6.817   1.577   6.776 -1.0120 -0.1578  0.3171
   93SAPC   H2R 8970   6.771   1.483   6.814 -1.8552  0.1725  0.1545
   93SAPC   H2S 8971   6.737   1.653   6.763 -2.4407 -1.8787 -1.9224
   93SAPC    C3 8972   7.138   1.420   7.076 -0.0410 -0.5521 -0.8193
   93SAPC    HX 8973   7.072   1.340   7.119  0.8050 -0.7221  0.2190
   93SAPC    HY 8974   7.200   1.442   7.165 -2.0018 -1.2479  0.8230
   93SAPC   O31 8975   7.220   1.366   6.972 -0.2358  0.0314 -0.7840
   93SAPC   C31 8976   7.150   1.280   6.893 -0.0378 -0.4784 -0.3045
   93SAPC   O32 8977   7.040   1.230   6.919 -0.1546 -0.0604 -0.2967
   93SAPC   C32 8978   7.230   1.242   6.780  0.3167  0.2467  0.7467
   93SAPC   H2X 8979   7.319   1.180   6.804  0.6407  1.0403  1.6686
   93SAPC   H2Y 8980   7.269   1.336   6.736  1.8218  0.0557  1.6310
   93SAPC   C23 8981   6.901   1.554   6.642  0.6512  0.0435  0.0672
   93SAPC   H3R 8982   6.838   1.532   6.553  0.7091  0.9596 -0.2109
   93SAPC   H3S 8983   6.964   1.463   6.653  0.4761 -0.3115 -1.7064
   93SAPC   C24 8984   6.967   1.683   6.592  0.2273  0.3986 -0.3640
   93SAPC   H4R 8985   7.035   1.657   6.508  2.1950 -0.8549  1.5007
   93SAPC   H4S 8986   7.043   1.707   6.670  1.1684  0.2567 -1.2172
   93SAPC   C25 8987   6.875   1.802   6.570  1.2785 -0.4665  0.6044
   93SAPC   H5R 8988   6.853   1.862   6.659  1.1545  1.3708 -0.6072
   93SAPC   C26 8989   6.809   1.833   6.456 -0.1982 -0.0640 -0.0885
   93SAPC   H6R 8990   6.751   1.926   6.446  0.4307  0.6000  1.9794
   93SAPC   C27 8991   6.832   1.740   6.337  0.2644 -0.0547 -0.1587
   93SAPC   H7R 8992   6.810   1.636   6.367  2.1786 -0.5161 -0.2303
   93SAPC   H7S 8993   6.939   1.745   6.308  0.0325  3.0417 -0.8246
   93SAPC   C28 8994   6.745   1.776   6.220 -0.0508  0.3330 -0.2258
   93SAPC   H8R 8995   6.679   1.864   6.224 -0.8792 -0.2473 -0.7395
   93SAPC   C29 8996   6.727   1.697   6.110  0.0626 -0.2467  0.0867
   93SAPC   H9R 8997   6.661   1.728   6.029 -0.5963 -0.8289  0.3867
   93SAPC  C210 8998   6.805   1.572   6.084  0.3296  0.7888  0.4130
   93SAPC  H10R 8999   6.889   1.555   6.155 -1.0720 -0.3637  1.8495
   93SAPC  H10S 9000   6.863   1.586   5.990  1.2603  0.2314  0.8918
   93SAPC  C211 9001   6.707   1.464   6.067  1.0462  0.4084  0.4530
   93SAPC  H11R 9002   6.665   1.415   6.156 -0.5457 -1.7868 -1.3714
   93SAPC  C212 9003   6.668   1.404   5.959  0.4592  0.1709 -0.4958
   93SAPC  H12R 9004   6.579   1.338   5.955  1.4295 -1.2332  0.2105
   93SAPC  C213 9005   6.719   1.453   5.824 -0.0133  0.1297  0.2992
   93SAPC  H13R 9006   6.822   1.418   5.803  1.2165  3.6943 -0.1993
   93SAPC  H13S 9007   6.730   1.563   5.830  2.9645 -0.0476 -0.4033
   93SAPC  C214 9008   6.626   1.417   5.712 -0.5315  0.0971  0.3974
   93SAPC  H14R 9009   6.645   1.314   5.678 -2.9492 -0.3438  0.2430
   93SAPC  C215 9010   6.531   1.497   5.653 -0.1999  0.2344  0.3192
   93SAPC  H15R 9011   6.471   1.455   5.571  1.9973 -0.5107 -0.9812
   93SAPC  C216 9012   6.498   1.637   5.689 -0.0751 -0.2623 -0.4903
   93SAPC  H16R 9013   6.538   1.707   5.613  1.1588 -0.3505  0.0542
   93SAPC  H16S 9014   6.554   1.663   5.781 -1.2178 -0.9729  0.4349
   93SAPC  C217 9015   6.351   1.675   5.701 -0.8221  0.3448 -0.3070
   93SAPC  H17R 9016   6.313   1.612   5.784  1.0285 -1.5234 -0.7897
   93SAPC  H17S 9017   6.288   1.646   5.615 -0.7016 -0.8254 -0.0219
   93SAPC  C218 9018   6.344   1.824   5.714  0.5667  0.7826 -0.6922
   93SAPC  H18R 9019   6.432   1.856   5.774 -0.4832 -0.7930  1.8580
   93SAPC  H18S 9020   6.249   1.848   5.766  0.5806 -2.8069  1.3449
   93SAPC  C219 9021   6.326   1.900   5.582  0.2849 -0.0909  0.7603
   93SAPC  H19R 9022   6.421   1.871   5.532  1.0682  0.0063  2.1386
   93SAPC  H19S 9023   6.337   2.010   5.591 -0.1826  0.1802 -1.4621
   93SAPC  C220 9024   6.204   1.858   5.500 -0.3185 -0.9933  0.1862
   93SAPC  H20R 9025   6.110   1.849   5.558 -1.1355 -2.4472 -1.2751
   93SAPC  H20S 9026   6.218   1.754   5.463 -0.6501 -0.7920 -0.5224
   93SAPC  H20T 9027   6.203   1.934   5.419  0.1081 -0.2569  0.8589
   93SAPC   C33 9028   7.156   1.155   6.670  0.2406 -0.1209 -0.5672
   93SAPC   H3X 9029   7.057   1.202   6.651  0.1159 -0.2144 -0.1625
   93SAPC   H3Y 9030   7.150   1.050   6.707  2.4835 -1.3135 -3.1893
   93SAPC   C34 9031   7.243   1.136   6.542  0.0476 -0.7450 -0.3405
   93SAPC   H4X 9032   7.327   1.066   6.562  0.8423  0.6409  1.4010
   93SAPC   H4Y 9033   7.280   1.237   6.514  0.6530 -0.7433  0.4543
   93SAPC   C35 9034   7.161   1.082   6.421 -0.1884  0.6479  0.0914
   93SAPC   H5X 9035   7.065   1.137   6.408 -0.9493 -0.4690  0.8411
   93SAPC   H5Y 9036   7.131   0.980   6.450 -1.0498  1.6520  3.1344
   93SAPC   C36 9037   7.224   1.077   6.284 -0.2113  0.0280  0.0230
   93SAPC   H6X 9038   7.260   1.178   6.257  0.9809 -0.7674 -1.5712
   93SAPC   H6Y 9039   7.148   1.053   6.207 -1.3756 -2.1461  1.7270
   93SAPC   C37 9040   7.338   0.976   6.276 -0.5470  0.6752 -0.6792
   93SAPC   H7X 9041   7.295   0.879   6.310 -1.6859  0.8176 -1.6726
   93SAPC   H7Y 9042   7.425   0.996   6.342  0.7249 -2.2576 -1.2774
   93SAPC   C38 9043   7.406   0.969   6.147  0.3835 -0.2330 -0.2196
   93SAPC   H8X 9044   7.511   0.933   6.144  0.6422  0.5053 -2.6563
   93SAPC   H8Y 9045   7.419   1.074   6.113 -0.4664 -0.7978 -2.4696
   93SAPC   C39 9046   7.333   0.890   6.040 -0.0129 -1.0488  0.3339
   93SAPC   H9X 9047   7.223   0.901   6.049 -0.0599 -0.6769 -0.5830
   93SAPC   H9Y 9048   7.360   0.784   6.060  0.3812 -1.2126 -0.9841
   93SAPC  C310 9049   7.387   0.925   5.906  0.0386 -0.4376  0.5891
   93SAPC  H10X 9050   7.497   0.913   5.914 -0.2885 -3.5087  2.0563
   93SAPC  H10Y 9051   7.361   1.031   5.883  0.9814 -0.5128 -0.9253
   93SAPC  C311 9052   7.328   0.833   5.793 -0.2584 -0.1462  0.0888
   93SAPC  H11X 9053   7.348   0.863   5.688  1.5504 -1.8357 -0.1011
   93SAPC  H11Y 9054   7.219   0.844   5.815 -0.0980 -1.3627  1.5908
   93SAPC  C312 9055   7.380   0.688   5.798 -0.5367  0.4554  0.1618
   93SAPC  H12X 9056   7.313   0.633   5.868 -2.0103  2.2981  0.2745
   93SAPC  H12Y 9057   7.484   0.689   5.836  0.1355 -0.5457 -1.5335
   93SAPC  C313 9058   7.378   0.604   5.673  0.3470 -0.2711 -0.3995
   93SAPC  H13X 9059   7.442   0.643   5.592  0.5241 -1.7180 -0.9790
   93SAPC  H13Y 9060   7.277   0.594   5.626  1.1944 -1.6197 -2.0275
   93SAPC  C314 9061   7.434   0.469   5.709 -0.1209 -0.0630 -0.3065
   93SAPC  H14X 9062   7.376   0.416   5.789  1.5143  2.2316  2.6127
   93SAPC  H14Y 9063   7.542   0.471   5.734  0.1021 -1.4568 -1.0680
   93SAPC  C315 9064   7.437   0.376   5.582  0.2798  0.1456 -0.3613
   93SAPC  H15X 9065   7.492   0.438   5.508  1.3209  2.5342  2.2273
   93SAPC  H15Y 9066   7.332   0.367   5.548 -0.2124  0.5750  0.9765
   93SAPC  C316 9067   7.509   0.245   5.621  0.1818  1.1048  0.7226
   93SAPC  H16X 9068   7.449   0.172   5.679  0.2311 -1.6513 -2.4084
   93SAPC  H16Y 9069   7.594   0.282   5.682  1.5221 -0.0096 -0.4188
   93SAPC  C317 9070   7.563   0.168   5.498 -0.8811  0.6751  0.1514
   93SAPC  H17X 9071   7.619   0.232   5.426  0.8229 -0.4598  0.4096
   93SAPC  H17Y 9072   7.491   0.114   5.433  0.1961 -0.1902 -0.3616
   93SAPC  C318 9073   7.666   0.051   5.537  0.7734 -0.6232  0.4712
   93SAPC  H18X 9074   7.747   0.092   5.600 -0.5981 -1.1329  2.7036
   93SAPC  H18Y 9075   7.710   0.003   5.447  0.3754 -1.6896  0.8315
   93SAPC  H18Z 9076   7.616  -0.027   5.598 -0.7482 -0.6706 -0.7559
   94SAPC     N 9077   2.728   6.317   7.609 -0.3287  0.1615  0.1276
   94SAPC   C12 9078   2.670   6.452   7.605  0.3044 -0.1246 -0.4033
   94SAPC  H12A 9079   2.602   6.459   7.522  1.6589  1.1354 -1.4572
   94SAPC  H12B 9080   2.748   6.525   7.586  0.3077  1.1839  3.7170
   94SAPC   C13 9081   2.826   6.312   7.717  0.0607  0.0978  0.0790
   94SAPC  H13A 9082   2.779   6.313   7.815 -0.1456  1.5497 -0.0084
   94SAPC  H13B 9083   2.888   6.224   7.715 -2.6241 -1.9357 -1.3025
   94SAPC  H13C 9084   2.898   6.392   7.708  0.4844 -0.3844 -0.9855
   94SAPC   C14 9085   2.625   6.221   7.636 -0.3713  0.8688 -0.1393
   94SAPC  H14A 9086   2.551   6.210   7.558  0.0751  1.8272 -0.7098
   94SAPC  H14B 9087   2.665   6.122   7.651  2.1010  2.0449  1.7345
   94SAPC  H14C 9088   2.571   6.243   7.727  0.5879 -0.2984  0.7513
   94SAPC   C15 9089   2.797   6.280   7.479  0.4267 -0.6629 -0.5092
   94SAPC  H15A 9090   2.868   6.201   7.501  2.8281  1.5926  0.4095
   94SAPC  H15B 9091   2.720   6.252   7.408 -0.1151  0.2229 -0.2758
   94SAPC  H15C 9092   2.845   6.369   7.442 -1.5817  1.6340  2.0693
   94SAPC   C11 9093   2.592   6.504   7.735  0.0963  0.3474  0.6594
   94SAPC  H11A 9094   2.572   6.608   7.702  0.3581  0.1988  0.0133
   94SAPC  H11B 9095   2.645   6.495   7.832 -0.3490  0.4960  0.9215
   94SAPC     P 9096   2.334   6.466   7.687  0.0819 -0.2510  0.0873
   94SAPC   O13 9097   2.229   6.363   7.724 -0.0414  0.3000  0.2537
   94SAPC   O14 9098   2.295   6.611   7.713 -0.1957  0.0669 -0.4499
   94SAPC   O12 9099   2.470   6.440   7.758 -0.0531  0.5526 -0.1657
   94SAPC   O11 9100   2.367   6.451   7.535  0.0687 -0.5735  0.2448
   94SAPC    C1 9101   2.317   6.344   7.448  0.2927  0.1612 -0.1327
   94SAPC    HA 9102   2.400   6.270   7.449  0.5902  0.4656  2.0506
   94SAPC    HB 9103   2.221   6.303   7.487 -0.7988  1.3550 -1.4477
   94SAPC    C2 9104   2.275   6.391   7.303 -0.0503 -0.5917 -0.1411
   94SAPC    HS 9105   2.357   6.444   7.250  0.2496 -0.3907  0.5066
   94SAPC   O21 9106   2.158   6.469   7.316 -0.4227 -0.3498 -0.0012
   94SAPC   C21 9107   2.147   6.558   7.211  0.2763  0.3666  0.2592
   94SAPC   O22 9108   2.235   6.584   7.129  0.0102  0.3987 -0.1231
   94SAPC   C22 9109   2.026   6.646   7.241  0.4492  0.1991 -0.8448
   94SAPC   H2R 9110   1.986   6.636   7.344 -1.0173 -0.7573 -1.4735
   94SAPC   H2S 9111   2.063   6.751   7.231  0.7550 -0.1188 -3.8890
   94SAPC    C3 9112   2.234   6.268   7.207  0.5421  0.1655  0.4152
   94SAPC    HX 9113   2.147   6.225   7.262 -2.1664  4.2075 -0.3232
   94SAPC    HY 9114   2.310   6.187   7.213  0.5881  0.1705 -0.0910
   94SAPC   O31 9115   2.201   6.295   7.070 -0.1817 -0.5501 -0.0695
   94SAPC   C31 9116   2.124   6.211   7.000  0.4886  0.7761 -0.4402
   94SAPC   O32 9117   2.092   6.098   7.041 -1.0785 -0.1752 -0.0585
   94SAPC   C32 9118   2.083   6.277   6.871 -1.3451 -0.2332  0.5860
   94SAPC   H2X 9119   2.121   6.380   6.890  2.0037 -1.7091  2.8992
   94SAPC   H2Y 9120   1.974   6.292   6.854 -0.8391  1.8113 -1.3018
   94SAPC   C23 9121   1.923   6.611   7.134  0.0624 -0.7901  0.3532
   94SAPC   H3R 9122   1.954   6.631   7.030  1.3255 -0.9818  0.6734
   94SAPC   H3S 9123   1.834   6.676   7.143 -0.4705 -0.8367 -3.3340
   94SAPC   C24 9124   1.876   6.465   7.140  0.4181 -0.5248 -0.6511
   94SAPC   H4R 9125   1.950   6.401   7.087  0.1474 -0.3293 -1.2709
   94SAPC   H4S 9126   1.782   6.461   7.080 -0.2888  1.0115  0.2815
   94SAPC   C25 9127   1.829   6.412   7.274 -1.1659 -0.0865 -0.2127
   94SAPC   H5R 9128   1.889   6.442   7.362  0.7462 -1.5762 -0.9394
   94SAPC   C26 9129   1.745   6.313   7.298 -0.7016 -0.9336 -0.1461
   94SAPC   H6R 9130   1.727   6.280   7.402  0.4303 -0.0224  0.3616
   94SAPC   C27 9131   1.683   6.231   7.188 -0.6494  0.0546 -0.3033
   94SAPC   H7R 9132   1.669   6.125   7.220 -1.7826 -0.2246 -1.6146
   94SAPC   H7S 9133   1.745   6.233   7.095 -1.6218  0.5742 -0.9639
   94SAPC   C28 9134   1.542   6.284   7.167  0.3770  0.0606  0.0464
   94SAPC   H8R 9135   1.495   6.299   7.265 -0.2638  1.1876 -0.4112
   94SAPC   C29 9136   1.470   6.313   7.056 -0.2287  0.3687  0.2822
   94SAPC   H9R 9137   1.367   6.347   7.070 -0.8332 -1.0881 -0.3900
   94SAPC  C210 9138   1.514   6.290   6.912 -0.5266 -0.3411  0.2589
   94SAPC  H10R 9139   1.624   6.279   6.903 -0.8938 -4.5567 -1.4513
   94SAPC  H10S 9140   1.481   6.385   6.865 -1.7146 -0.8226  0.1008
   94SAPC  C211 9141   1.455   6.168   6.851 -0.8585  0.1498  0.2192
   94SAPC  H11R 9142   1.430   6.098   6.933  1.9246 -0.3341  0.7678
   94SAPC  C212 9143   1.467   6.126   6.724 -0.1186  0.0205 -0.5390
   94SAPC  H12R 9144   1.412   6.034   6.700  0.0219 -0.2748  0.2275
   94SAPC  C213 9145   1.521   6.205   6.610 -0.3673  0.4685 -0.6696
   94SAPC  H13R 9146   1.476   6.307   6.605 -0.1101  0.5957 -0.4465
   94SAPC  H13S 9147   1.496   6.145   6.520 -1.5525 -2.6420  1.5745
   94SAPC  C214 9148   1.669   6.224   6.622 -0.0956 -0.1866  0.5389
   94SAPC  H14R 9149   1.708   6.290   6.702 -0.1261  0.6508 -0.1271
   94SAPC  C215 9150   1.760   6.172   6.543 -0.2072  0.2535  0.0331
   94SAPC  H15R 9151   1.862   6.211   6.548  0.5420 -1.6606  1.2503
   94SAPC  C216 9152   1.734   6.072   6.440  0.6197  0.1412  0.4116
   94SAPC  H16R 9153   1.638   6.018   6.450 -0.9305  2.6510 -0.1549
   94SAPC  H16S 9154   1.819   6.000   6.429  0.3817  0.1096 -1.7798
   94SAPC  C217 9155   1.726   6.148   6.304 -0.1756 -0.3175 -0.2389
   94SAPC  H17R 9156   1.820   6.201   6.281 -0.9759  0.7143 -1.2596
   94SAPC  H17S 9157   1.641   6.219   6.304 -0.0010 -0.1091 -0.3992
   94SAPC  C218 9158   1.716   6.053   6.178  0.6249 -0.7086 -0.8504
   94SAPC  H18R 9159   1.773   5.960   6.194  1.6626 -0.3352 -2.1303
   94SAPC  H18S 9160   1.755   6.103   6.086  1.5179  2.2583  1.0063
   94SAPC  C219 9161   1.559   6.019   6.156 -0.3279  0.5531 -0.1314
   94SAPC  H19R 9162   1.504   6.108   6.117 -0.2511 -0.3311 -2.4401
   94SAPC  H19S 9163   1.530   5.979   6.256 -0.1131 -1.0467 -0.6804
   94SAPC  C220 9164   1.548   5.906   6.047  0.0556 -0.1529 -0.4515
   94SAPC  H20R 9165   1.593   5.807   6.070  0.0001 -1.0224 -3.6642
   94SAPC  H20S 9166   1.603   5.944   5.958  0.3425 -0.8851 -0.5916
   94SAPC  H20T 9167   1.447   5.881   6.008 -0.5581 -1.7628  1.9174
   94SAPC   C33 9168   2.134   6.218   6.730 -1.0651  0.4316  0.5015
   94SAPC   H3X 9169   2.055   6.219   6.652  0.8946 -1.4605 -1.6718
   94SAPC   H3Y 9170   2.155   6.109   6.725  0.0316  0.6268  0.6048
   94SAPC   C34 9171   2.258   6.294   6.670 -0.1915 -0.0071  0.9173
   94SAPC   H4X 9172   2.349   6.244   6.709 -0.2314 -0.7870  0.0430
   94SAPC   H4Y 9173   2.258   6.400   6.704 -1.1414  0.2394  0.1869
   94SAPC   C35 9174   2.248   6.293   6.518 -0.0146  0.1356 -0.1524
   94SAPC   H5X 9175   2.306   6.373   6.467  0.2606 -0.3483 -0.6026
   94SAPC   H5Y 9176   2.149   6.331   6.482  0.6916  1.3803 -0.8611
   94SAPC   C36 9177   2.268   6.157   6.453  0.3145 -0.0931  0.0072
   94SAPC   H6X 9178   2.212   6.074   6.503  1.3929  0.4513  2.2802
   94SAPC   H6Y 9179   2.369   6.112   6.459 -0.3257 -1.5224  0.7312
   94SAPC   C37 9180   2.213   6.147   6.312 -0.0063  0.1955  0.3691
   94SAPC   H7X 9181   2.285   6.192   6.240  2.3933  0.6848  2.8913
   94SAPC   H7Y 9182   2.118   6.204   6.306 -0.7838 -0.9865  0.9560
   94SAPC   C38 9183   2.194   5.997   6.273  0.0133  0.1610  0.2876
   94SAPC   H8X 9184   2.132   5.944   6.348  0.3182  1.2500  1.3413
   94SAPC   H8Y 9185   2.297   5.954   6.274 -0.5628 -1.2944  1.2509
   94SAPC   C39 9186   2.133   5.972   6.129 -0.0130  0.2171 -0.2692
   94SAPC   H9X 9187   2.212   5.987   6.051 -0.8196 -0.6240 -1.2739
   94SAPC   H9Y 9188   2.064   6.051   6.094  0.5107 -0.5276 -3.2535
   94SAPC  C310 9189   2.069   5.834   6.112  0.1454  0.0721  0.6766
   94SAPC  H10X 9190   1.980   5.829   6.179 -1.3097  0.0963 -1.1866
   94SAPC  H10Y 9191   2.141   5.761   6.154 -1.9707 -1.0392  2.5855
   94SAPC  C311 9192   2.027   5.794   5.970 -0.2382  0.5423  0.0142
   94SAPC  H11X 9193   2.118   5.787   5.906 -0.1671 -0.0176  0.1691
   94SAPC  H11Y 9194   1.956   5.865   5.921  0.0583  0.7648 -0.0944
   94SAPC  C312 9195   1.963   5.657   5.964  0.4112  0.2781 -0.1678
   94SAPC  H12X 9196   1.886   5.666   6.044 -2.6335 -0.2197 -2.8344
   94SAPC  H12Y 9197   2.042   5.584   5.993  0.6437  0.3477 -0.6311
   94SAPC  C313 9198   1.896   5.627   5.827 -0.5544  0.1219  0.5684
   94SAPC  H13X 9199   1.816   5.700   5.803 -1.3213 -0.3190  1.7281
   94SAPC  H13Y 9200   1.843   5.530   5.836 -0.3872  0.2089  3.1864
   94SAPC  C314 9201   1.987   5.620   5.698  0.0162 -0.4450  0.7318
   94SAPC  H14X 9202   2.065   5.544   5.718  3.5876  2.5118 -0.8320
   94SAPC  H14Y 9203   2.049   5.709   5.678  1.2578 -1.4610 -0.1130
   94SAPC  C315 9204   1.906   5.588   5.579  0.1421  0.0842  0.7896
   94SAPC  H15X 9205   1.833   5.672   5.573  1.0892  0.8367 -1.0164
   94SAPC  H15Y 9206   1.855   5.492   5.604 -1.7415  0.5931 -0.8422
   94SAPC  C316 9207   1.977   5.581   5.454  0.1518  0.1789  0.1531
   94SAPC  H16X 9208   2.063   5.650   5.456 -0.1627  0.5597  2.3853
   94SAPC  H16Y 9209   1.914   5.601   5.364 -1.3360 -2.4261  0.5150
   94SAPC  C317 9210   2.036   5.440   5.429 -0.3187  0.7600  0.3510
   94SAPC  H17X 9211   1.955   5.364   5.423 -1.8612  2.4068 -0.8052
   94SAPC  H17Y 9212   2.111   5.409   5.505  1.0946 -1.2200 -1.7532
   94SAPC  C318 9213   2.124   5.446   5.299 -0.2634  0.4818 -0.3254
   94SAPC  H18X 9214   2.218   5.505   5.313 -0.1394  1.1224 -3.3353
   94SAPC  H18Y 9215   2.071   5.479   5.208 -0.7497 -1.8684 -0.9441
   94SAPC  H18Z 9216   2.168   5.345   5.286 -0.1821  0.4081  0.4470
   95SAPC     N 9217   1.771   1.996   2.923  0.3994 -0.5599 -0.1564
   95SAPC   C12 9218   1.894   1.967   3.009 -0.0906 -0.3261  0.5310
   95SAPC  H12A 9219   1.884   1.874   3.063 -1.7994 -1.0134 -0.8604
   95SAPC  H12B 9220   1.892   2.045   3.084 -0.1862  0.3340 -0.1430
   95SAPC   C13 9221   1.753   1.895   2.813 -0.5122  0.2364 -0.9609
   95SAPC  H13A 9222   1.824   1.912   2.734 -1.9795  1.9755 -1.9909
   95SAPC  H13B 9223   1.764   1.800   2.863 -1.0495  0.5936 -0.1326
   95SAPC  H13C 9224   1.655   1.897   2.768 -1.2256 -1.2019  0.4149
   95SAPC   C14 9225   1.645   1.997   3.003  0.1596  0.0443  0.1547
   95SAPC  H14A 9226   1.560   2.032   2.945 -1.9210 -3.3055  0.9011
   95SAPC  H14B 9227   1.627   1.901   3.049 -0.9034 -0.7772 -1.8326
   95SAPC  H14C 9228   1.650   2.073   3.079  1.5266 -0.3755  0.5089
   95SAPC   C15 9229   1.784   2.133   2.861  0.3643 -0.4772 -0.1619
   95SAPC  H15A 9230   1.690   2.151   2.811 -0.6011 -0.8489  1.4404
   95SAPC  H15B 9231   1.796   2.216   2.930  0.2592 -1.2811  0.8504
   95SAPC  H15C 9232   1.863   2.137   2.787 -1.4882  0.7604 -2.1849
   95SAPC   C11 9233   2.037   1.947   2.943  0.5964 -0.2349 -0.4765
   95SAPC  H11A 9234   2.111   1.972   3.021 -1.7759  1.3693  1.4101
   95SAPC  H11B 9235   2.047   2.035   2.876  0.1945 -1.2709 -1.9770
   95SAPC     P 9236   2.082   1.689   2.939  0.3315 -0.2221 -0.1147
   95SAPC   O13 9237   2.005   1.581   2.874  0.3126  0.6087  0.2378
   95SAPC   O14 9238   2.227   1.666   2.936 -0.4190  0.0110 -0.2114
   95SAPC   O12 9239   2.045   1.828   2.872 -0.1055  0.4236  0.1006
   95SAPC   O11 9240   2.030   1.702   3.091 -0.3998  0.1076 -0.4905
   95SAPC    C1 9241   2.015   1.572   3.150  0.1746 -0.4602 -0.0180
   95SAPC    HA 9242   1.950   1.501   3.095  1.8381 -1.1408 -1.1805
   95SAPC    HB 9243   2.103   1.511   3.177  1.3846 -0.2621 -3.1735
   95SAPC    C2 9244   1.946   1.583   3.293  0.2178 -0.1426 -0.6019
   95SAPC    HS 9245   1.932   1.483   3.340  0.6617  0.5944  1.1928
   95SAPC   O21 9246   1.816   1.647   3.289 -0.1851 -0.0455  0.0101
   95SAPC   C21 9247   1.711   1.566   3.274  0.2075 -0.3489 -0.1461
   95SAPC   O22 9248   1.713   1.444   3.289 -0.1581  0.5335  0.7524
   95SAPC   C22 9249   1.578   1.647   3.259 -0.6952  0.0115 -0.7796
   95SAPC   H2R 9250   1.592   1.746   3.308 -1.4331 -0.9069  1.4090
   95SAPC   H2S 9251   1.558   1.669   3.152 -1.1561 -0.8621 -0.8818
   95SAPC    C3 9252   2.037   1.678   3.382  0.0910  0.0372  0.8960
   95SAPC    HX 9253   2.032   1.777   3.331  0.4874 -0.4914 -0.2078
   95SAPC    HY 9254   2.141   1.641   3.369 -0.2743 -0.3970 -1.2554
   95SAPC   O31 9255   1.997   1.691   3.514  0.1314  0.1012 -0.0219
   95SAPC   C31 9256   2.042   1.589   3.589  0.5539  0.4726 -0.4393
   95SAPC   O32 9257   2.121   1.506   3.550  0.0293  0.1518 -0.0606
   95SAPC   C32 9258   1.976   1.600   3.730  0.8139 -0.2970 -0.5229
   95SAPC   H2X 9259   1.868   1.618   3.713  1.0878  2.5457  0.2334
   95SAPC   H2Y 9260   2.011   1.697   3.771  2.9420  0.7061 -4.1906
   95SAPC   C23 9261   1.461   1.581   3.320 -0.1960 -0.7038 -0.0810
   95SAPC   H3R 9262   1.443   1.478   3.281  1.4730 -0.7674 -0.7935
   95SAPC   H3S 9263   1.372   1.636   3.283  0.2894 -1.1847 -2.1146
   95SAPC   C24 9264   1.463   1.577   3.471  0.3128 -0.3690 -0.2342
   95SAPC   H4R 9265   1.553   1.519   3.499 -1.8228 -3.1102  1.5042
   95SAPC   H4S 9266   1.371   1.520   3.496 -2.0098  2.4147 -1.8108
   95SAPC   C25 9267   1.453   1.703   3.555  0.6621 -0.0314 -0.5093
   95SAPC   H5R 9268   1.464   1.799   3.502  1.0096  1.8056  2.6762
   95SAPC   C26 9269   1.413   1.715   3.685 -0.4121 -0.1395  0.4547
   95SAPC   H6R 9270   1.395   1.817   3.722 -1.5052  0.2594 -1.0592
   95SAPC   C27 9271   1.388   1.597   3.777 -0.2997 -0.1395  0.0566
   95SAPC   H7R 9272   1.397   1.498   3.726 -0.2328 -0.1593  0.1074
   95SAPC   H7S 9273   1.281   1.606   3.806 -0.2090  0.4699  0.1992
   95SAPC   C28 9274   1.480   1.581   3.896  0.2281 -0.2336  0.7937
   95SAPC   H8R 9275   1.582   1.578   3.856 -0.5143 -0.3807 -1.1965
   95SAPC   C29 9276   1.459   1.569   4.028 -0.4676 -0.6883  0.6153
   95SAPC   H9R 9277   1.548   1.556   4.091 -0.6739 -0.7657  0.8962
   95SAPC  C210 9278   1.323   1.566   4.092 -0.8139  0.4943 -0.4974
   95SAPC  H10R 9279   1.298   1.458   4.107  0.2614  0.2103 -0.6335
   95SAPC  H10S 9280   1.245   1.595   4.018 -0.6243  0.0249 -0.8921
   95SAPC  C211 9281   1.315   1.660   4.213 -0.2964 -0.0590 -0.2885
   95SAPC  H11R 9282   1.289   1.763   4.185 -0.9840  0.2035  1.1957
   95SAPC  C212 9283   1.329   1.630   4.345 -0.1335 -0.0695  0.7948
   95SAPC  H12R 9284   1.336   1.712   4.418 -0.9046 -0.5355  1.4119
   95SAPC  C213 9285   1.339   1.493   4.405 -0.1731  0.2415 -0.1075
   95SAPC  H13R 9286   1.422   1.491   4.479  0.8069  0.4446 -1.1758
   95SAPC  H13S 9287   1.378   1.416   4.335  0.8018  1.2508 -0.7113
   95SAPC  C214 9288   1.213   1.445   4.472 -0.3802 -0.0476  0.2452
   95SAPC  H14R 9289   1.155   1.377   4.407  2.1895 -0.9417 -1.2250
   95SAPC  C215 9290   1.180   1.472   4.598  0.3918  0.2435 -0.1507
   95SAPC  H15R 9291   1.075   1.452   4.622  0.2444 -0.0548 -1.0096
   95SAPC  C216 9292   1.259   1.553   4.700 -0.4119  0.9281  0.5271
   95SAPC  H16R 9293   1.176   1.616   4.738 -0.7248  0.4737  0.6129
   95SAPC  H16S 9294   1.338   1.623   4.666 -0.4932 -0.1146 -2.0640
   95SAPC  C217 9295   1.317   1.467   4.819 -0.5483 -0.0470 -0.1886
   95SAPC  H17R 9296   1.376   1.540   4.880 -1.9867  1.1303 -0.1233
   95SAPC  H17S 9297   1.386   1.391   4.778  0.2488  1.1947 -1.2537
   95SAPC  C218 9298   1.208   1.409   4.911 -0.2846  0.2697  0.5574
   95SAPC  H18R 9299   1.264   1.353   4.988  0.9765 -1.3552 -1.4278
   95SAPC  H18S 9300   1.148   1.334   4.856  0.2053 -0.8765  1.5466
   95SAPC  C219 9301   1.105   1.506   4.981  1.0261  0.1999  0.6108
   95SAPC  H19R 9302   1.046   1.450   5.057  1.7194 -0.1937  0.8691
   95SAPC  H19S 9303   1.032   1.536   4.903 -2.0560 -2.4772  2.2245
   95SAPC  C220 9304   1.165   1.629   5.048 -0.8424 -0.1443 -0.0107
   95SAPC  H20R 9305   1.093   1.696   5.100  2.1699 -0.8744  5.8544
   95SAPC  H20S 9306   1.215   1.685   4.966 -0.5144  0.5074  0.6304
   95SAPC  H20T 9307   1.246   1.616   5.122 -1.0761  2.1309  0.7259
   95SAPC   C33 9308   1.986   1.472   3.817  0.5199 -0.3996  0.2663
   95SAPC   H3X 9309   2.081   1.417   3.803  0.1786 -0.6094 -1.4109
   95SAPC   H3Y 9310   1.902   1.412   3.775  0.5029 -0.3518  0.2312
   95SAPC   C34 9311   1.963   1.492   3.960 -0.1544 -1.0917  0.7749
   95SAPC   H4X 9312   1.884   1.571   3.965 -0.3336 -1.2195  0.0257
   95SAPC   H4Y 9313   2.053   1.531   4.013  0.6096  1.1001 -1.9167
   95SAPC   C35 9314   1.922   1.375   4.047  0.2387  0.0162 -0.0696
   95SAPC   H5X 9315   2.010   1.316   4.081 -0.1906  0.1175  1.2437
   95SAPC   H5Y 9316   1.857   1.305   3.989  0.6291 -0.9260  0.5943
   95SAPC   C36 9317   1.839   1.432   4.170 -0.7167  0.6353 -0.2969
   95SAPC   H6X 9318   1.757   1.496   4.132  0.6754  2.5487 -0.2369
   95SAPC   H6Y 9319   1.908   1.498   4.226  0.0736  2.0771 -2.8457
   95SAPC   C37 9320   1.805   1.321   4.269 -0.4359 -0.3995  0.2498
   95SAPC   H7X 9321   1.892   1.316   4.338 -0.8716 -0.7451  0.7807
   95SAPC   H7Y 9322   1.787   1.225   4.217 -1.0769  0.1847 -0.6358
   95SAPC   C38 9323   1.679   1.361   4.340 -0.7239  0.3620  0.8179
   95SAPC   H8X 9324   1.596   1.363   4.266  0.3909 -0.9359 -0.5515
   95SAPC   H8Y 9325   1.696   1.464   4.377  0.7408  0.1532  0.7871
   95SAPC   C39 9326   1.642   1.270   4.457  0.5106  0.5919  0.3450
   95SAPC   H9X 9327   1.631   1.163   4.427 -1.2130  0.1962  2.1926
   95SAPC   H9Y 9328   1.544   1.314   4.485  1.7517  2.1387  2.5809
   95SAPC  C310 9329   1.742   1.276   4.573  0.0230 -0.2966  0.1899
   95SAPC  H10X 9330   1.841   1.258   4.526  1.1722  2.8908  1.1202
   95SAPC  H10Y 9331   1.717   1.198   4.647 -0.0978 -1.4311 -1.0098
   95SAPC  C311 9332   1.759   1.416   4.649  1.1219  0.9650  0.6486
   95SAPC  H11X 9333   1.663   1.447   4.696  0.3598  0.9855 -0.8589
   95SAPC  H11Y 9334   1.776   1.487   4.566  2.9477 -2.0781 -1.8053
   95SAPC  C312 9335   1.878   1.422   4.750  0.4434 -0.7008  0.3162
   95SAPC  H12X 9336   1.875   1.519   4.804 -0.0409 -0.9967  0.8324
   95SAPC  H12Y 9337   1.964   1.422   4.680  0.1307 -1.0598 -0.0744
   95SAPC  C313 9338   1.899   1.299   4.844 -0.1878 -0.3778  0.0433
   95SAPC  H13X 9339   1.917   1.206   4.786  2.9242  0.8195 -1.1063
   95SAPC  H13Y 9340   1.816   1.286   4.917  0.4885 -0.4726  0.8075
   95SAPC  C314 9341   2.034   1.318   4.924 -0.1145  0.2727  0.2090
   95SAPC  H14X 9342   2.023   1.254   5.014  1.1213 -1.5276 -0.8435
   95SAPC  H14Y 9343   2.044   1.418   4.973  4.0953 -0.7714  1.8988
   95SAPC  C315 9344   2.164   1.284   4.847  0.6778  0.1212 -0.5981
   95SAPC  H15X 9345   2.182   1.350   4.760  2.6844  2.2154  1.2443
   95SAPC  H15Y 9346   2.159   1.179   4.812 -0.4157 -0.7347  1.8693
   95SAPC  C316 9347   2.293   1.308   4.938  0.9121 -0.0257  0.3548
   95SAPC  H16X 9348   2.277   1.396   5.003  4.4022 -0.2363  1.7318
   95SAPC  H16Y 9349   2.385   1.321   4.877  1.4485 -2.0528  0.6575
   95SAPC  C317 9350   2.325   1.195   5.033 -0.1614 -0.0539 -0.3903
   95SAPC  H17X 9351   2.367   1.100   4.993 -0.7292 -0.5064  0.0687
   95SAPC  H17Y 9352   2.226   1.182   5.082 -0.5029  1.0693 -0.7515
   95SAPC  C318 9353   2.420   1.229   5.150 -0.3907  0.1216  0.7042
   95SAPC  H18X 9354   2.517   1.242   5.098 -1.1166 -2.7114 -1.6603
   95SAPC  H18Y 9355   2.425   1.148   5.226 -0.2812  2.0265  2.7878
   95SAPC  H18Z 9356   2.402   1.324   5.204 -0.2488  1.1382 -0.9521
   96SAPC     N 9357   2.599   5.326   2.670 -0.1196 -0.2395  0.3244
   96SAPC   C12 9358   2.499   5.406   2.756  0.3027 -0.3043  0.4636
   96SAPC  H12A 9359   2.499   5.361   2.854 -0.2996  0.8133  0.9869
   96SAPC  H12B 9360   2.399   5.390   2.719  0.7305  0.4221 -1.0948
   96SAPC   C13 9361   2.731   5.335   2.737  0.0481 -0.3258  0.2098
   96SAPC  H13A 9362   2.749   5.440   2.754 -0.0072  0.0111 -1.6671
   96SAPC  H13B 9363   2.719   5.292   2.836  0.3458 -0.3375  0.2412
   96SAPC  H13C 9364   2.813   5.293   2.681  0.2893  0.6659 -0.1895
   96SAPC   C14 9365   2.563   5.181   2.677 -0.9179 -0.8571 -0.6942
   96SAPC  H14A 9366   2.469   5.180   2.624 -1.1538  0.6078 -0.3431
   96SAPC  H14B 9367   2.648   5.126   2.639  1.1706  1.1835  0.7285
   96SAPC  H14C 9368   2.544   5.168   2.782 -0.9359  2.8248 -0.1110
   96SAPC   C15 9369   2.594   5.369   2.532 -0.1893 -0.0335  0.4686
   96SAPC  H15A 9370   2.501   5.343   2.484  0.0718  1.7491 -1.1124
   96SAPC  H15B 9371   2.594   5.477   2.527  0.4612 -0.0049  0.8426
   96SAPC  H15C 9372   2.675   5.330   2.472 -1.5613 -2.4768  0.0934
   96SAPC   C11 9373   2.533   5.556   2.769 -0.0877  0.4357  0.3297
   96SAPC  H11A 9374   2.631   5.574   2.818  0.2616 -0.0663 -0.1709
   96SAPC  H11B 9375   2.465   5.613   2.835 -0.9705  0.8432 -0.8982
   96SAPC     P 9376   2.408   5.676   2.571  0.2328  0.4404 -0.4666
   96SAPC   O13 9377   2.446   5.776   2.468  0.5466  0.3707 -0.8260
   96SAPC   O14 9378   2.334   5.553   2.521 -0.0506 -0.5367 -0.3509
   96SAPC   O12 9379   2.536   5.619   2.635  0.3382  0.1102 -0.5506
   96SAPC   O11 9380   2.321   5.747   2.681 -0.3790  0.7091  0.1708
   96SAPC    C1 9381   2.350   5.872   2.740 -0.4916 -0.0697 -0.1142
   96SAPC    HA 9382   2.454   5.905   2.718 -0.8471  1.3773  0.2549
   96SAPC    HB 9383   2.279   5.952   2.713 -0.1194  0.8811  1.5594
   96SAPC    C2 9384   2.351   5.851   2.897 -0.7100  0.0689 -0.0322
   96SAPC    HS 9385   2.440   5.790   2.925 -0.0340  0.4215 -1.3389
   96SAPC   O21 9386   2.224   5.795   2.943 -0.2095 -0.1350 -0.4174
   96SAPC   C21 9387   2.242   5.705   3.037  0.2442  0.5147  0.1904
   96SAPC   O22 9388   2.348   5.661   3.078  0.0160 -0.4397  0.0394
   96SAPC   C22 9389   2.104   5.669   3.105  0.4138 -0.5975 -0.2123
   96SAPC   H2R 9390   2.066   5.760   3.156  0.4564 -0.2231 -0.8447
   96SAPC   H2S 9391   2.037   5.649   3.019 -0.5037  0.9579  0.0977
   96SAPC    C3 9392   2.370   5.993   2.969 -0.7391 -0.1764 -0.1910
   96SAPC    HX 9393   2.278   6.046   2.935 -0.6053  0.2030  0.0292
   96SAPC    HY 9394   2.464   6.041   2.934 -0.1196 -1.0106  0.3185
   96SAPC   O31 9395   2.383   5.967   3.116  0.2380  0.3745 -0.4239
   96SAPC   C31 9396   2.301   6.045   3.186 -0.0151 -0.0361 -0.2549
   96SAPC   O32 9397   2.252   6.147   3.147  0.1998  0.0528  0.1462
   96SAPC   C32 9398   2.291   5.987   3.328 -0.4791 -0.4741 -0.1367
   96SAPC   H2X 9399   2.393   5.993   3.371  0.3215  2.2126 -2.1461
   96SAPC   H2Y 9400   2.252   5.883   3.320 -1.9899  0.1404 -1.6881
   96SAPC   C23 9401   2.109   5.545   3.191 -0.4468  0.9562 -0.3279
   96SAPC   H3R 9402   2.168   5.458   3.155  1.5769  1.7539  0.8871
   96SAPC   H3S 9403   2.004   5.510   3.198 -0.0814  0.1208  1.4181
   96SAPC   C24 9404   2.157   5.579   3.328  0.3745  0.4254 -0.3218
   96SAPC   H4R 9405   2.108   5.675   3.357  0.0342  0.4088 -0.8281
   96SAPC   H4S 9406   2.265   5.602   3.318  0.0710  2.3384  0.3262
   96SAPC   C25 9407   2.143   5.481   3.439 -0.1156  0.5548  0.3123
   96SAPC   H5R 9408   2.141   5.377   3.402 -0.9335  0.5022  0.4731
   96SAPC   C26 9409   2.142   5.485   3.574 -0.5027 -0.1920  1.0803
   96SAPC   H6R 9410   2.143   5.390   3.630  1.7969 -1.8101 -1.4587
   96SAPC   C27 9411   2.148   5.619   3.647 -0.1006  0.1022  0.6395
   96SAPC   H7R 9412   2.117   5.699   3.577 -0.1108  1.3251  1.9890
   96SAPC   H7S 9413   2.257   5.639   3.660  0.3361 -1.3155 -0.5645
   96SAPC   C28 9414   2.089   5.623   3.783  0.0650  0.0748  0.3860
   96SAPC   H8R 9415   1.996   5.679   3.797  0.5585  0.7897  0.9059
   96SAPC   C29 9416   2.149   5.584   3.899 -0.5266  0.1825  0.5076
   96SAPC   H9R 9417   2.089   5.584   3.991 -0.5455 -2.2719  0.5495
   96SAPC  C210 9418   2.290   5.519   3.911  0.4095  0.0350 -0.3556
   96SAPC  H10R 9419   2.335   5.495   3.812 -0.5178 -0.0179 -0.7730
   96SAPC  H10S 9420   2.279   5.423   3.965 -0.6016  0.4094  0.1148
   96SAPC  C211 9421   2.387   5.611   3.984  0.4268  0.1090 -0.4824
   96SAPC  H11R 9422   2.421   5.700   3.930 -0.3224  0.4710 -0.3767
   96SAPC  C212 9423   2.429   5.604   4.110 -0.0570  0.8472  0.5238
   96SAPC  H12R 9424   2.505   5.676   4.145  2.2924 -0.1797 -2.0853
   96SAPC  C213 9425   2.367   5.497   4.205  0.2067 -0.6667 -0.0854
   96SAPC  H13R 9426   2.446   5.422   4.224  2.7051  1.8751  0.1933
   96SAPC  H13S 9427   2.280   5.446   4.159 -0.2780 -0.6426  0.7791
   96SAPC  C214 9428   2.317   5.569   4.332 -0.2208 -0.0854  0.5013
   96SAPC  H14R 9429   2.217   5.613   4.325  0.7138  2.2497  1.0244
   96SAPC  C215 9430   2.390   5.578   4.450 -0.1762 -0.4221  0.3522
   96SAPC  H15R 9431   2.344   5.617   4.541 -0.8872  0.2646 -0.2882
   96SAPC  C216 9432   2.530   5.529   4.484 -0.2094 -0.3411 -0.2508
   96SAPC  H16R 9433   2.603   5.613   4.486  0.2315 -0.7308  0.3438
   96SAPC  H16S 9434   2.560   5.458   4.403 -0.6992 -3.1410  1.8806
   96SAPC  C217 9435   2.544   5.453   4.614  0.3154 -0.3314 -0.1473
   96SAPC  H17R 9436   2.629   5.384   4.599 -0.2579 -1.1165  0.1513
   96SAPC  H17S 9437   2.452   5.391   4.629  0.7291 -1.0532 -0.5595
   96SAPC  C218 9438   2.574   5.552   4.730  0.7729  0.5344  0.5802
   96SAPC  H18R 9439   2.497   5.632   4.732  0.4186  0.2242 -0.1386
   96SAPC  H18S 9440   2.671   5.586   4.689 -0.1824  0.9263 -1.5097
   96SAPC  C219 9441   2.573   5.488   4.866  0.6394  0.2382  0.3095
   96SAPC  H19R 9442   2.481   5.434   4.897  2.5781 -1.8816  2.8260
   96SAPC  H19S 9443   2.597   5.560   4.947  0.3019 -1.2695  1.8222
   96SAPC  C220 9444   2.678   5.375   4.874 -0.3804  0.2675 -0.1033
   96SAPC  H20R 9445   2.670   5.313   4.965  0.5387  1.4340  0.8021
   96SAPC  H20S 9446   2.783   5.404   4.854  0.5575 -2.8466 -0.1050
   96SAPC  H20T 9447   2.649   5.299   4.798 -0.3772 -0.5468  0.6946
   96SAPC   C33 9448   2.197   6.071   3.408  0.3241 -0.2024 -0.4978
   96SAPC   H3X 9449   2.088   6.077   3.386  0.3805 -0.5540 -0.8857
   96SAPC   H3Y 9450   2.236   6.175   3.409  0.4780 -0.2182  2.4743
   96SAPC   C34 9451   2.203   6.033   3.554  0.2351  0.4598  0.6820
   96SAPC   H4X 9452   2.310   6.018   3.579  0.7146  1.2659 -0.7356
   96SAPC   H4Y 9453   2.155   5.934   3.566  0.8684  0.0505 -0.0393
   96SAPC   C35 9454   2.138   6.128   3.660 -0.7010 -0.3495  1.2835
   96SAPC   H5X 9455   2.033   6.143   3.625  0.4174 -0.2794 -2.4364
   96SAPC   H5Y 9456   2.190   6.225   3.642  0.9133 -1.4281 -0.1248
   96SAPC   C36 9457   2.137   6.092   3.809 -0.2972 -0.1959  0.1510
   96SAPC   H6X 9458   2.081   5.996   3.806 -0.4643 -0.0876 -0.5092
   96SAPC   H6Y 9459   2.089   6.168   3.874  2.7317  0.6782  1.5323
   96SAPC   C37 9460   2.282   6.077   3.862  0.8598  0.2432 -0.2114
   96SAPC   H7X 9461   2.352   6.101   3.780  2.9788 -1.1897  1.0927
   96SAPC   H7Y 9462   2.290   5.967   3.875 -0.6586  0.1584  0.3217
   96SAPC   C38 9463   2.302   6.158   3.992 -0.0704 -0.4401 -0.5738
   96SAPC   H8X 9464   2.241   6.119   4.075 -1.2544  0.9395 -0.7514
   96SAPC   H8Y 9465   2.274   6.265   3.980 -1.9700 -0.0168  4.8238
   96SAPC   C39 9466   2.447   6.170   4.042  0.7235 -0.4363  0.6161
   96SAPC   H9X 9467   2.454   6.241   4.127 -3.3854  0.4213  0.4377
   96SAPC   H9Y 9468   2.502   6.209   3.953 -0.7001 -0.5078 -0.3156
   96SAPC  C310 9469   2.521   6.042   4.075  0.3359 -0.4517  0.1431
   96SAPC  H10X 9470   2.629   6.064   4.093  0.3259 -1.3851  1.4541
   96SAPC  H10Y 9471   2.521   5.969   3.991 -3.6946 -0.0454 -0.3991
   96SAPC  C311 9472   2.477   5.975   4.205  0.3919  0.3189 -0.1254
   96SAPC  H11X 9473   2.532   5.883   4.237 -0.3660  0.4812  1.7846
   96SAPC  H11Y 9474   2.378   5.929   4.182  0.9983 -1.2379  0.2496
   96SAPC  C312 9475   2.478   6.062   4.337 -0.5589  0.0238  0.5177
   96SAPC  H12X 9476   2.455   6.004   4.429  2.9962 -0.1310  1.4451
   96SAPC  H12Y 9477   2.401   6.142   4.339 -1.1576 -0.5261  3.1984
   96SAPC  C313 9478   2.616   6.128   4.357 -0.3506 -0.7946 -0.7364
   96SAPC  H13X 9479   2.635   6.181   4.260  0.2004  1.2953  0.4361
   96SAPC  H13Y 9480   2.688   6.044   4.358  1.9078  1.0143  0.3551
   96SAPC  C314 9481   2.648   6.208   4.485 -0.1129 -0.3162 -0.0702
   96SAPC  H14X 9482   2.564   6.275   4.512 -0.9591 -1.4655  0.2102
   96SAPC  H14Y 9483   2.738   6.273   4.475  0.1069 -0.5833  0.1416
   96SAPC  C315 9484   2.661   6.116   4.606 -0.1218  0.0485  0.8518
   96SAPC  H15X 9485   2.619   6.018   4.573 -0.8143  0.4837  0.4201
   96SAPC  H15Y 9486   2.595   6.159   4.684 -1.2585  0.5136 -0.3432
   96SAPC  C316 9487   2.804   6.101   4.666 -0.4246 -0.4263 -0.6373
   96SAPC  H16X 9488   2.877   6.121   4.584  1.1334 -1.9066  0.3131
   96SAPC  H16Y 9489   2.832   6.004   4.713 -0.6338  0.2650  0.9590
   96SAPC  C317 9490   2.816   6.205   4.783  0.5101 -0.7483 -0.5923
   96SAPC  H17X 9491   2.739   6.176   4.857  0.6297 -0.2452 -0.2640
   96SAPC  H17Y 9492   2.785   6.305   4.745 -3.7072 -1.7162 -0.1672
   96SAPC  C318 9493   2.949   6.219   4.851  0.1170 -0.5123  0.2464
   96SAPC  H18X 9494   2.977   6.324   4.873  3.4581 -0.8967 -1.5952
   96SAPC  H18Y 9495   3.032   6.181   4.789 -0.8882 -0.9396 -0.8863
   96SAPC  H18Z 9496   2.945   6.163   4.947 -1.2705  0.6108  0.8916
   97SAPC     N 9497   2.642   2.878   2.786 -0.7280 -0.0046 -0.0458
   97SAPC   C12 9498   2.676   2.730   2.797  1.3500 -0.5144 -0.2556
   97SAPC  H12A 9499   2.782   2.733   2.774  0.9714 -0.0818 -2.0153
   97SAPC  H12B 9500   2.619   2.676   2.723  0.9306  2.1407 -1.9872
   97SAPC   C13 9501   2.501   2.909   2.824 -0.8455  0.2267  0.6015
   97SAPC  H13A 9502   2.432   2.862   2.755  1.1266 -1.0020 -0.6494
   97SAPC  H13B 9503   2.479   2.872   2.923 -2.8001 -1.1507 -0.2806
   97SAPC  H13C 9504   2.481   3.014   2.809  3.8456  1.1413 -1.0454
   97SAPC   C14 9505   2.731   2.932   2.893 -0.5806  0.0213 -0.3573
   97SAPC  H14A 9506   2.724   2.880   2.988  1.0063 -1.1783 -0.8647
   97SAPC  H14B 9507   2.832   2.928   2.856 -0.9097  0.2552 -1.2884
   97SAPC  H14C 9508   2.724   3.039   2.906  2.6807  0.1570  1.4031
   97SAPC   C15 9509   2.678   2.928   2.651  0.1063  0.4958 -0.2595
   97SAPC  H15A 9510   2.783   2.914   2.630 -0.2461 -1.0439 -1.1510
   97SAPC  H15B 9511   2.618   2.890   2.570 -1.4268  1.6312  0.2846
   97SAPC  H15C 9512   2.671   3.036   2.652  3.1270  0.8159  2.2833
   97SAPC   C11 9513   2.668   2.661   2.930  1.0165 -0.0853  0.2447
   97SAPC  H11A 9514   2.725   2.724   3.003  0.8096 -1.1820  1.3937
   97SAPC  H11B 9515   2.712   2.560   2.939  0.7077 -0.8110 -4.1854
   97SAPC     P 9516   2.405   2.574   2.899 -0.2159  0.1469 -0.1609
   97SAPC   O13 9517   2.289   2.667   2.891  0.4807 -0.0657  0.4417
   97SAPC   O14 9518   2.458   2.526   2.767  0.1904  0.2720  0.8540
   97SAPC   O12 9519   2.531   2.640   2.978  0.0217  0.1862  0.0784
   97SAPC   O11 9520   2.366   2.456   2.992 -0.0151 -0.1647 -0.1540
   97SAPC    C1 9521   2.462   2.382   3.062 -0.2946 -0.2170 -0.4569
   97SAPC    HA 9522   2.522   2.320   2.993  2.7900  0.0150  1.8143
   97SAPC    HB 9523   2.532   2.456   3.107 -0.2015 -0.0990 -0.7894
   97SAPC    C2 9524   2.399   2.292   3.183 -0.1122  0.0583  0.2118
   97SAPC    HS 9525   2.341   2.220   3.122  1.2111  0.6790 -1.9127
   97SAPC   O21 9526   2.330   2.387   3.270  0.9425  0.4759 -0.6099
   97SAPC   C21 9527   2.208   2.354   3.307 -0.7625 -0.7100 -0.4410
   97SAPC   O22 9528   2.143   2.261   3.268  0.5383  0.2304  0.0649
   97SAPC   C22 9529   2.169   2.453   3.421 -0.0005  0.6132  0.1440
   97SAPC   H2R 9530   2.255   2.471   3.488 -0.1704 -0.3801  0.6532
   97SAPC   H2S 9531   2.131   2.543   3.367 -3.8986 -1.0124 -0.2161
   97SAPC    C3 9532   2.502   2.208   3.264 -0.2120  0.1689 -0.2070
   97SAPC    HX 9533   2.588   2.266   3.304 -0.0993  0.8089 -1.3628
   97SAPC    HY 9534   2.551   2.142   3.189  1.2785  0.7685  0.2121
   97SAPC   O31 9535   2.432   2.127   3.362  1.1311  0.0073  0.2743
   97SAPC   C31 9536   2.365   2.025   3.311 -0.6428 -0.3458 -0.9200
   97SAPC   O32 9537   2.373   1.989   3.197 -0.3733  0.0242  0.8681
   97SAPC   C32 9538   2.277   1.968   3.425 -0.6973 -0.0931  0.4565
   97SAPC   H2X 9539   2.331   1.871   3.439  0.5893  0.0931 -2.5961
   97SAPC   H2Y 9540   2.181   1.930   3.384 -0.5480  0.1479 -0.1237
   97SAPC   C23 9541   2.044   2.407   3.499  0.0864 -0.8146 -0.3679
   97SAPC   H3R 9542   2.070   2.329   3.574 -0.7532 -0.9168 -0.1727
   97SAPC   H3S 9543   1.967   2.370   3.428 -1.1466 -0.3552  0.6798
   97SAPC   C24 9544   1.966   2.529   3.574  0.6114 -0.3831 -0.0701
   97SAPC   H4R 9545   1.881   2.474   3.621 -0.9223 -0.6306 -2.9562
   97SAPC   H4S 9546   1.927   2.598   3.497  0.9582 -1.0705 -0.8695
   97SAPC   C25 9547   2.047   2.602   3.674 -1.0587 -0.0005 -0.3381
   97SAPC   H5R 9548   2.107   2.680   3.624  1.1667 -1.0394  0.5701
   97SAPC   C26 9549   2.060   2.584   3.807 -0.0212 -0.5555  0.3081
   97SAPC   H6R 9550   2.125   2.651   3.866 -0.3468 -0.0343  0.0835
   97SAPC   C27 9551   1.990   2.477   3.887 -0.3780  0.3522 -0.1521
   97SAPC   H7R 9552   1.906   2.429   3.833  0.3672 -2.7650  1.2222
   97SAPC   H7S 9553   1.934   2.532   3.966 -2.1811 -1.6645  0.0945
   97SAPC   C28 9554   2.085   2.359   3.923 -0.2318  0.5706  0.5844
   97SAPC   H8R 9555   2.145   2.319   3.840  1.9812  1.8613  1.4714
   97SAPC   C29 9556   2.115   2.310   4.044  0.6157 -0.1895  0.1057
   97SAPC   H9R 9557   2.183   2.224   4.050 -0.4346 -1.0854 -0.4869
   97SAPC  C210 9558   2.048   2.356   4.168  0.3087  0.1417 -0.3989
   97SAPC  H10R 9559   1.942   2.374   4.143 -0.4491 -1.1641  1.6159
   97SAPC  H10S 9560   2.086   2.454   4.205 -1.6011  1.2644 -1.2712
   97SAPC  C211 9561   2.045   2.249   4.269  0.4793  1.0418 -0.9818
   97SAPC  H11R 9562   2.033   2.145   4.234 -0.5167  0.6844  0.3145
   97SAPC  C212 9563   2.049   2.259   4.404  0.3600  0.3465  0.8982
   97SAPC  H12R 9564   2.058   2.169   4.466  0.5082  0.8137  1.5677
   97SAPC  C213 9565   2.064   2.393   4.468 -0.1979  0.2652  0.6453
   97SAPC  H13R 9566   1.987   2.463   4.431 -0.7770 -1.3773 -1.4610
   97SAPC  H13S 9567   2.167   2.428   4.445  0.9490 -3.1936 -0.0639
   97SAPC  C214 9568   2.061   2.386   4.614 -0.3001 -0.2676 -0.0735
   97SAPC  H14R 9569   2.025   2.290   4.652  0.2675 -0.5905 -0.3419
   97SAPC  C215 9570   2.117   2.484   4.697 -0.1054 -0.1382  0.5754
   97SAPC  H15R 9571   2.113   2.479   4.807 -0.6555  1.9567  0.7041
   97SAPC  C216 9572   2.165   2.624   4.652  0.1750  0.6783  0.1292
   97SAPC  H16R 9573   2.182   2.615   4.543  0.2854 -1.5693  0.2913
   97SAPC  H16S 9574   2.266   2.639   4.696  0.0234 -2.0501  1.6277
   97SAPC  C217 9575   2.066   2.727   4.681  0.4151  0.1219  0.3090
   97SAPC  H17R 9576   1.965   2.698   4.643  0.3958 -2.3316  1.9820
   97SAPC  H17S 9577   2.111   2.809   4.621  3.8661 -1.1254  0.9833
   97SAPC  C218 9578   2.059   2.770   4.832 -1.1449  0.5728  0.0351
   97SAPC  H18R 9579   2.153   2.820   4.861 -0.1081 -1.4306  0.3155
   97SAPC  H18S 9580   2.063   2.673   4.887  1.7559  0.6624  0.1313
   97SAPC  C219 9581   1.936   2.846   4.873  0.4681 -0.2685  0.6337
   97SAPC  H19R 9582   1.847   2.802   4.823 -1.0624  2.1568  1.0654
   97SAPC  H19S 9583   1.949   2.945   4.824 -1.5344 -0.6547 -0.8131
   97SAPC  C220 9584   1.905   2.849   5.023 -0.5772 -0.1037 -0.3836
   97SAPC  H20R 9585   1.883   2.744   5.051 -0.5243 -0.0909 -0.2940
   97SAPC  H20S 9586   1.823   2.919   5.050 -0.6225 -1.2286  2.7940
   97SAPC  H20T 9587   1.998   2.883   5.073 -0.8088  0.5593 -0.4007
   97SAPC   C33 9588   2.284   2.056   3.558  0.2890  0.0466  0.7935
   97SAPC   H3X 9589   2.266   2.158   3.519  0.9800 -0.7765 -1.9081
   97SAPC   H3Y 9590   2.389   2.047   3.594  1.4794  0.0761 -2.3507
   97SAPC   C34 9591   2.178   2.024   3.664 -0.1013  0.4997  0.0441
   97SAPC   H4X 9592   2.077   2.026   3.616  0.5703 -0.1256 -1.4560
   97SAPC   H4Y 9593   2.174   2.114   3.729  1.2719  0.2274  0.5256
   97SAPC   C35 9594   2.221   1.900   3.745  0.3259 -0.2150 -0.5812
   97SAPC   H5X 9595   2.332   1.899   3.742  0.3755  1.3937 -0.2636
   97SAPC   H5Y 9596   2.182   1.801   3.711  2.4453 -1.5868  0.7596
   97SAPC   C36 9597   2.194   1.931   3.898  0.4539 -0.3476 -0.1145
   97SAPC   H6X 9598   2.086   1.940   3.924  1.0918  0.4716  2.5331
   97SAPC   H6Y 9599   2.238   2.027   3.932 -1.4416 -0.0379  1.7151
   97SAPC   C37 9600   2.261   1.817   3.980  0.0935 -0.0096  0.0511
   97SAPC   H7X 9601   2.371   1.829   3.995  0.1410  0.6214 -0.6886
   97SAPC   H7Y 9602   2.260   1.721   3.924 -0.9059 -0.6997  1.2074
   97SAPC   C38 9603   2.196   1.806   4.114 -1.0975 -0.0257  0.3378
   97SAPC   H8X 9604   2.090   1.777   4.097 -0.4468 -2.4134 -0.0895
   97SAPC   H8Y 9605   2.200   1.900   4.173 -0.2581  0.4351 -0.4214
   97SAPC   C39 9606   2.270   1.692   4.199 -0.3805 -0.6084  0.2162
   97SAPC   H9X 9607   2.377   1.720   4.209 -0.4136 -0.8016  1.2329
   97SAPC   H9Y 9608   2.258   1.592   4.154 -0.1106  0.2957 -2.0108
   97SAPC  C310 9609   2.212   1.665   4.340  0.7828 -0.1068 -0.3728
   97SAPC  H10X 9610   2.274   1.590   4.393  0.4450  0.6097  1.1210
   97SAPC  H10Y 9611   2.106   1.633   4.345  0.9585 -0.6806 -0.1652
   97SAPC  C311 9612   2.227   1.781   4.436 -0.0507 -0.6028  1.3372
   97SAPC  H11X 9613   2.164   1.868   4.407 -1.3345 -1.4570  1.4851
   97SAPC  H11Y 9614   2.332   1.815   4.422  0.1730 -0.8308  2.4289
   97SAPC  C312 9615   2.196   1.745   4.580 -0.4953 -0.7987 -0.6044
   97SAPC  H12X 9616   2.273   1.685   4.633  0.9368  1.8378  0.5043
   97SAPC  H12Y 9617   2.103   1.685   4.575 -0.4415 -0.8217 -1.4256
   97SAPC  C313 9618   2.169   1.872   4.671  0.2344 -0.2069  0.5686
   97SAPC  H13X 9619   2.089   1.929   4.619  2.3705  1.1421 -1.4276
   97SAPC  H13Y 9620   2.250   1.946   4.658  0.5230 -0.5898  0.1379
   97SAPC  C314 9621   2.124   1.841   4.812 -0.7344  0.0798  0.3368
   97SAPC  H14X 9622   2.066   1.747   4.810 -0.5610 -0.0177 -0.2872
   97SAPC  H14Y 9623   2.053   1.922   4.838 -1.5531 -0.3580 -0.4741
   97SAPC  C315 9624   2.232   1.834   4.915  0.1258  0.4787  0.6072
   97SAPC  H15X 9625   2.302   1.920   4.905  2.3301 -1.2876 -0.0474
   97SAPC  H15Y 9626   2.291   1.745   4.885  1.0156  1.1109  0.4230
   97SAPC  C316 9627   2.183   1.817   5.061 -0.0238  0.1120  0.0835
   97SAPC  H16X 9628   2.107   1.736   5.064 -1.7231  1.6195 -0.4649
   97SAPC  H16Y 9629   2.129   1.911   5.087 -1.4007 -0.4907 -0.4729
   97SAPC  C317 9630   2.294   1.786   5.167  0.7645 -0.0889  0.1628
   97SAPC  H17X 9631   2.342   1.689   5.143 -0.3471 -1.5280  3.2326
   97SAPC  H17Y 9632   2.242   1.766   5.263 -2.2608  0.0376 -1.3104
   97SAPC  C318 9633   2.408   1.882   5.192 -0.6886 -1.0014  0.2010
   97SAPC  H18X 9634   2.380   1.959   5.267  0.6690 -0.6331  0.3578
   97SAPC  H18Y 9635   2.442   1.927   5.096  2.6411 -1.6492  0.9703
   97SAPC  H18Z 9636   2.500   1.832   5.230  1.2678  0.7876 -1.8689
   98SAPC     N 9637   4.046   5.672   2.611  0.1501  0.1706  0.5308
   98SAPC   C12 9638   4.085   5.635   2.751  0.0600  0.3767  0.0579
   98SAPC  H12A 9639   4.089   5.728   2.805  0.5384  1.5070 -1.8367
   98SAPC  H12B 9640   4.180   5.584   2.761 -1.1250 -2.0390 -0.0753
   98SAPC   C13 9641   3.914   5.744   2.611  0.2135 -0.0175  0.2642
   98SAPC  H13A 9642   3.890   5.778   2.511 -0.7155  0.9476  0.8031
   98SAPC  H13B 9643   3.838   5.679   2.652  0.2891 -1.9643 -2.3988
   98SAPC  H13C 9644   3.922   5.835   2.668 -0.5007  1.4044 -1.7656
   98SAPC   C14 9645   4.152   5.760   2.550 -0.5116 -0.8590  0.3641
   98SAPC  H14A 9646   4.152   5.863   2.581 -0.0928 -0.2287 -1.6045
   98SAPC  H14B 9647   4.250   5.718   2.569  0.2941  1.4002  1.5407
   98SAPC  H14C 9648   4.137   5.776   2.444  2.2546  0.9927  0.1391
   98SAPC   C15 9649   4.026   5.551   2.528 -0.0062  0.9804 -0.1786
   98SAPC  H15A 9650   3.990   5.569   2.428 -0.5533 -2.4805 -0.7477
   98SAPC  H15B 9651   4.120   5.499   2.519 -0.6377 -0.4587  1.0784
   98SAPC  H15C 9652   3.960   5.477   2.570  0.3593  0.5041 -0.4339
   98SAPC   C11 9653   3.985   5.537   2.813  0.8455  1.0950 -0.3085
   98SAPC  H11A 9654   3.882   5.560   2.778  0.5380 -0.4879 -0.5223
   98SAPC  H11B 9655   3.983   5.543   2.924  1.8467  0.5995 -0.2458
   98SAPC     P 9656   4.149   5.330   2.781  0.0720 -0.0566 -0.6010
   98SAPC   O13 9657   4.196   5.281   2.650 -0.0564  0.4642 -0.1977
   98SAPC   O14 9658   4.237   5.414   2.861 -0.1150 -0.2760  0.3177
   98SAPC   O12 9659   4.011   5.401   2.773  0.2343  0.2003  0.1861
   98SAPC   O11 9660   4.119   5.205   2.870  0.0108  1.0297 -0.3381
   98SAPC    C1 9661   3.994   5.163   2.920  0.1740  0.1443 -0.1494
   98SAPC    HA 9662   3.909   5.201   2.859 -0.1608  0.9423  0.7862
   98SAPC    HB 9663   3.989   5.052   2.910  0.9020  0.0782  0.1281
   98SAPC    C2 9664   3.963   5.216   3.062  0.1912  0.3533  0.1275
   98SAPC    HS 9665   3.939   5.324   3.075 -0.2922  0.1717  0.7704
   98SAPC   O21 9666   4.070   5.176   3.141  0.0113 -0.0834 -0.3941
   98SAPC   C21 9667   4.133   5.266   3.213 -0.3500  0.4240  0.6469
   98SAPC   O22 9668   4.112   5.389   3.219  0.2241  0.1884 -0.1646
   98SAPC   C22 9669   4.214   5.189   3.323 -0.4003 -0.2797 -0.2381
   98SAPC   H2R 9670   4.140   5.117   3.363  0.5158 -1.3972 -0.5129
   98SAPC   H2S 9671   4.292   5.137   3.263  1.2641  0.4479  1.1884
   98SAPC    C3 9672   3.829   5.149   3.117 -0.9746  0.0590  0.9437
   98SAPC    HX 9673   3.838   5.042   3.092 -1.0712  0.0349  1.0104
   98SAPC    HY 9674   3.741   5.181   3.057 -1.5802  1.7005  2.5811
   98SAPC   O31 9675   3.816   5.165   3.258  0.0135  0.5576  0.5909
   98SAPC   C31 9676   3.758   5.276   3.300  0.4342 -0.5091 -0.1797
   98SAPC   O32 9677   3.706   5.357   3.227  0.2877  0.2468 -0.2061
   98SAPC   C32 9678   3.755   5.286   3.448  0.6205  0.0347  0.1544
   98SAPC   H2X 9679   3.837   5.223   3.488  0.8014  0.8319  1.0900
   98SAPC   H2Y 9680   3.661   5.240   3.483 -0.1722  0.8955 -0.7821
   98SAPC   C23 9681   4.278   5.274   3.437 -0.5085  1.0912  0.1140
   98SAPC   H3R 9682   4.322   5.370   3.405  1.7859  0.3185  0.6992
   98SAPC   H3S 9683   4.363   5.218   3.482 -0.6462  1.6107  1.0558
   98SAPC   C24 9684   4.183   5.295   3.558  0.4869  0.3046 -0.4374
   98SAPC   H4R 9685   4.087   5.338   3.519  0.6890 -0.1509 -1.4790
   98SAPC   H4S 9686   4.224   5.366   3.633 -2.3503 -0.4040  1.9601
   98SAPC   C25 9687   4.154   5.163   3.628 -0.0006  0.0577  0.5055
   98SAPC   H5R 9688   4.100   5.084   3.575 -1.3204  0.1667  1.6307
   98SAPC   C26 9689   4.198   5.138   3.753  0.0873 -0.4899 -0.1977
   98SAPC   H6R 9690   4.169   5.035   3.780 -0.9423 -0.1410  0.0860
   98SAPC   C27 9691   4.275   5.216   3.851  0.1114  0.2365 -0.3832
   98SAPC   H7R 9692   4.198   5.250   3.924  1.4128 -1.1298  1.7488
   98SAPC   H7S 9693   4.321   5.308   3.809  0.2191  0.7082  0.7296
   98SAPC   C28 9694   4.383   5.140   3.917  0.1478 -0.0889 -0.2830
   98SAPC   H8R 9695   4.483   5.135   3.872  0.3490 -0.8817  0.2262
   98SAPC   C29 9696   4.379   5.106   4.049  0.4152  0.3270  0.7133
   98SAPC   H9R 9697   4.461   5.049   4.093  0.1264 -1.6940 -1.1899
   98SAPC  C210 9698   4.258   5.110   4.135  0.2755 -0.3787  0.1483
   98SAPC  H10R 9699   4.183   5.049   4.081  0.0266 -0.9314  1.0933
   98SAPC  H10S 9700   4.220   5.212   4.157  1.2093  0.1255 -0.5146
   98SAPC  C211 9701   4.289   5.036   4.259  0.0573  0.5946  0.4264
   98SAPC  H11R 9702   4.328   5.097   4.342  1.9440 -0.0830  0.1025
   98SAPC  C212 9703   4.278   4.906   4.289 -0.4525 -0.1055 -0.3267
   98SAPC  H12R 9704   4.321   4.871   4.383 -2.6177  0.9463  1.1450
   98SAPC  C213 9705   4.226   4.799   4.195 -0.0297 -0.5222  0.0574
   98SAPC  H13R 9706   4.199   4.853   4.101  1.2633 -0.3269 -0.2129
   98SAPC  H13S 9707   4.145   4.739   4.241 -0.1721  0.4717  1.1436
   98SAPC  C214 9708   4.343   4.701   4.158 -0.1323 -0.1444  0.4116
   98SAPC  H14R 9709   4.404   4.735   4.073 -1.9346 -1.4790 -1.5010
   98SAPC  C215 9710   4.385   4.595   4.230 -0.1331  0.0488 -0.0684
   98SAPC  H15R 9711   4.473   4.538   4.197  2.1519  2.6350  1.1227
   98SAPC  C216 9712   4.323   4.537   4.356  0.1241  0.8261 -0.0731
   98SAPC  H16R 9713   4.292   4.431   4.340 -1.6948  1.0141  1.7306
   98SAPC  H16S 9714   4.241   4.598   4.399  0.3283  0.6350  0.6031
   98SAPC  C217 9715   4.426   4.523   4.476 -0.2516 -0.2916  0.1929
   98SAPC  H17R 9716   4.508   4.464   4.429 -0.9969 -0.9643 -0.2871
   98SAPC  H17S 9717   4.384   4.462   4.559 -0.9635  1.7461  1.4205
   98SAPC  C218 9718   4.483   4.651   4.539 -0.4798  0.3252 -0.1200
   98SAPC  H18R 9719   4.402   4.714   4.581 -0.2146 -0.6517  1.9809
   98SAPC  H18S 9720   4.537   4.714   4.465  2.1101  0.1669  1.5042
   98SAPC  C219 9721   4.588   4.627   4.652  0.5894  0.0237  0.4313
   98SAPC  H19R 9722   4.642   4.722   4.674  1.8199 -0.6096  0.1840
   98SAPC  H19S 9723   4.659   4.551   4.616  0.2617  0.4578 -1.2130
   98SAPC  C220 9724   4.532   4.574   4.781 -0.1967  0.2870 -0.3339
   98SAPC  H20R 9725   4.513   4.465   4.786  2.3714 -0.2440 -0.9452
   98SAPC  H20S 9726   4.441   4.627   4.816 -1.2243 -2.2594  1.1412
   98SAPC  H20T 9727   4.600   4.583   4.868 -2.5005 -1.9532  1.8566
   98SAPC   C33 9728   3.787   5.424   3.499  0.0316 -0.6557  0.3715
   98SAPC   H3X 9729   3.721   5.497   3.448  0.3391 -0.3634  0.3879
   98SAPC   H3Y 9730   3.890   5.451   3.467 -0.8503  0.5329 -1.7150
   98SAPC   C34 9731   3.780   5.446   3.651 -0.2969  0.1227  0.8093
   98SAPC   H4X 9732   3.827   5.354   3.691  0.8188 -0.0812 -0.8380
   98SAPC   H4Y 9733   3.673   5.457   3.680 -1.0757 -0.1134 -1.6685
   98SAPC   C35 9734   3.865   5.569   3.698  0.1205  0.1794 -0.7218
   98SAPC   H5X 9735   3.825   5.655   3.641  1.8835  1.1278 -0.5818
   98SAPC   H5Y 9736   3.973   5.555   3.679  0.4796  2.0837 -0.3173
   98SAPC   C36 9737   3.840   5.588   3.849  0.0953  0.4505  1.1172
   98SAPC   H6X 9738   3.732   5.577   3.874 -0.4800  2.7042 -0.1267
   98SAPC   H6Y 9739   3.859   5.694   3.876  1.7965  0.0945  1.4105
   98SAPC   C37 9740   3.912   5.488   3.932 -0.4038  0.1077  0.1706
   98SAPC   H7X 9741   4.020   5.515   3.924 -0.6981  0.9408 -1.5022
   98SAPC   H7Y 9742   3.897   5.384   3.897  0.0785  0.5541 -1.4378
   98SAPC   C38 9743   3.854   5.500   4.079 -0.1975  0.2569 -0.0113
   98SAPC   H8X 9744   3.749   5.468   4.059  0.9592 -2.2438 -2.9389
   98SAPC   H8Y 9745   3.858   5.600   4.128  0.6571  0.7831 -1.0961
   98SAPC   C39 9746   3.920   5.404   4.179  0.6463  0.5632  0.2490
   98SAPC   H9X 9747   4.023   5.444   4.194  0.9090 -0.5525  1.5908
   98SAPC   H9Y 9748   3.923   5.300   4.138  0.3837 -0.0385  1.7031
   98SAPC  C310 9749   3.859   5.406   4.322 -0.1380  0.6425 -0.7017
   98SAPC  H10X 9750   3.764   5.349   4.312  0.7855 -1.2853  0.7518
   98SAPC  H10Y 9751   3.841   5.509   4.359 -2.8383  0.2201 -0.6224
   98SAPC  C311 9752   3.944   5.322   4.425 -0.2174 -0.8106  0.6670
   98SAPC  H11X 9753   4.032   5.381   4.459  0.7134 -0.2706 -2.3530
   98SAPC  H11Y 9754   3.985   5.231   4.375  1.0406 -0.9414  1.8757
   98SAPC  C312 9755   3.873   5.296   4.563  0.1458 -0.4259  0.2361
   98SAPC  H12X 9756   3.829   5.195   4.547 -0.8700  0.2125 -1.2167
   98SAPC  H12Y 9757   3.804   5.382   4.577  1.7110  1.0102 -0.5341
   98SAPC  C313 9758   3.961   5.299   4.687  0.0149 -0.8674  0.3290
   98SAPC  H13X 9759   4.007   5.401   4.690 -2.7462  0.4818  0.1394
   98SAPC  H13Y 9760   4.035   5.217   4.683 -1.6111 -2.3386 -1.3252
   98SAPC  C314 9761   3.877   5.279   4.813 -0.2542  0.0147 -0.5553
   98SAPC  H14X 9762   3.840   5.174   4.812  1.1087 -0.4790 -1.6109
   98SAPC  H14Y 9763   3.791   5.348   4.818  0.2745  0.6121  0.5694
   98SAPC  C315 9764   3.955   5.295   4.943 -0.3834 -0.9534  0.5878
   98SAPC  H15X 9765   4.009   5.392   4.939 -2.4515  0.1936 -1.1336
   98SAPC  H15Y 9766   4.035   5.219   4.936 -0.0847 -0.5904  0.0320
   98SAPC  C316 9767   3.882   5.279   5.072 -0.0759  0.1530  0.5061
   98SAPC  H16X 9768   3.779   5.243   5.051  0.1013  0.4253 -0.8980
   98SAPC  H16Y 9769   3.870   5.368   5.136 -0.9555  1.3926 -1.3084
   98SAPC  C317 9770   3.941   5.162   5.162  0.5043  0.2792 -0.7766
   98SAPC  H17X 9771   3.940   5.069   5.100  0.3356  0.6510 -1.3429
   98SAPC  H17Y 9772   3.880   5.148   5.254 -1.0508  0.5829 -1.7239
   98SAPC  C318 9773   4.080   5.193   5.205  0.0699 -0.1683  0.4424
   98SAPC  H18X 9774   4.083   5.299   5.241  1.0441 -0.9035  2.7121
   98SAPC  H18Y 9775   4.160   5.180   5.129  0.3041 -1.6264  0.9113
   98SAPC  H18Z 9776   4.108   5.130   5.292 -0.2432 -2.1583 -0.8322
   99SAPC     N 9777   4.552   1.581   3.500 -0.4724 -0.6282  0.1698
   99SAPC   C12 9778   4.414   1.517   3.469  0.0117 -0.1214 -0.0378
   99SAPC  H12A 9779   4.425   1.409   3.470 -2.0514 -0.3849  2.4501
   99SAPC  H12B 9780   4.386   1.533   3.366 -0.2538 -2.6309 -0.4313
   99SAPC   C13 9781   4.595   1.548   3.642  0.5972 -0.2546 -0.1493
   99SAPC  H13A 9782   4.688   1.601   3.658 -0.0275  1.0090 -0.5994
   99SAPC  H13B 9783   4.521   1.583   3.713  2.3321  0.4000  1.4153
   99SAPC  H13C 9784   4.595   1.440   3.644 -2.0626 -0.3056 -0.1091
   99SAPC   C14 9785   4.660   1.537   3.402  0.7448  0.1054  0.2659
   99SAPC  H14A 9786   4.667   1.610   3.323  1.2309  0.6860  0.8396
   99SAPC  H14B 9787   4.759   1.548   3.442  0.2283  0.0694  1.6204
   99SAPC  H14C 9788   4.642   1.438   3.364  0.2227  0.3887 -0.2381
   99SAPC   C15 9789   4.533   1.735   3.486  0.4320  0.6914 -0.2449
   99SAPC  H15A 9790   4.619   1.786   3.526  0.2206 -1.2069  2.9549
   99SAPC  H15B 9791   4.517   1.765   3.383  0.1345  0.3255 -0.3087
   99SAPC  H15C 9792   4.462   1.770   3.559 -0.5028 -0.7073 -0.4380
   99SAPC   C11 9793   4.291   1.555   3.547  0.3565  0.1121  0.3618
   99SAPC  H11A 9794   4.305   1.546   3.657 -2.1018  1.9347  0.8979
   99SAPC  H11B 9795   4.212   1.482   3.518  0.5088 -0.2892  0.9291
   99SAPC     P 9796   4.135   1.716   3.405  0.1255 -0.3366 -0.3307
   99SAPC   O13 9797   4.152   1.850   3.351  0.4502 -0.3022 -0.0876
   99SAPC   O14 9798   4.113   1.599   3.316 -0.2560  0.5789 -0.4227
   99SAPC   O12 9799   4.250   1.686   3.509 -0.0819 -0.3850 -0.2506
   99SAPC   O11 9800   4.008   1.721   3.488  0.4262  0.2670 -0.0525
   99SAPC    C1 9801   4.007   1.772   3.624 -0.2611 -0.0626  0.5604
   99SAPC    HA 9802   4.090   1.843   3.639  0.2635 -0.7123  0.7887
   99SAPC    HB 9803   3.910   1.822   3.646  0.2710  0.9206  0.6954
   99SAPC    C2 9804   4.013   1.648   3.722 -0.1414 -0.5445 -0.0958
   99SAPC    HS 9805   4.115   1.604   3.718 -0.0611 -0.2915 -2.9828
   99SAPC   O21 9806   3.914   1.555   3.678 -0.5049  0.4265 -0.8039
   99SAPC   C21 9807   3.942   1.432   3.673 -0.3851  0.5478  0.5213
   99SAPC   O22 9808   4.055   1.384   3.692  0.5910  0.2885 -0.0566
   99SAPC   C22 9809   3.824   1.353   3.611  0.0835  0.0907  0.2129
   99SAPC   H2R 9810   3.753   1.427   3.566 -0.1000 -1.9513 -3.1942
   99SAPC   H2S 9811   3.869   1.290   3.532  0.4942  1.0167 -0.3176
   99SAPC    C3 9812   3.984   1.694   3.867  0.6581 -0.2669 -0.5221
   99SAPC    HX 9813   3.879   1.732   3.869  1.1441  1.1576 -0.8085
   99SAPC    HY 9814   4.046   1.786   3.876 -1.1224  0.8220  2.2728
   99SAPC   O31 9815   4.009   1.596   3.968  0.0636  0.3448  0.2345
   99SAPC   C31 9816   4.136   1.604   4.011  0.0238 -0.5882  0.0002
   99SAPC   O32 9817   4.223   1.670   3.959  0.2477 -0.5422 -0.0878
   99SAPC   C32 9818   4.156   1.506   4.123  0.6545  0.2688 -0.3449
   99SAPC   H2X 9819   4.203   1.411   4.087 -1.3510 -0.3834 -1.4077
   99SAPC   H2Y 9820   4.059   1.468   4.161  0.7274 -0.4244 -0.8260
   99SAPC   C23 9821   3.723   1.277   3.703 -0.0995 -0.2592 -0.4228
   99SAPC   H3R 9822   3.635   1.247   3.643 -1.2830  0.0691  1.0721
   99SAPC   H3S 9823   3.691   1.348   3.783  0.1954 -1.9557  1.2797
   99SAPC   C24 9824   3.786   1.151   3.759  0.3369 -1.1991 -0.7366
   99SAPC   H4R 9825   3.872   1.173   3.826  0.1358 -0.0753 -0.8286
   99SAPC   H4S 9826   3.839   1.097   3.678  0.7991  0.5832 -1.6667
   99SAPC   C25 9827   3.684   1.063   3.826 -0.5289 -0.3644 -0.2596
   99SAPC   H5R 9828   3.634   0.977   3.779 -2.3824  1.2256 -1.3788
   99SAPC   C26 9829   3.655   1.098   3.954  0.6039  0.8613 -0.2720
   99SAPC   H6R 9830   3.585   1.038   4.013  0.9794  2.2400  1.6569
   99SAPC   C27 9831   3.701   1.214   4.038 -0.1284 -0.4386  0.6923
   99SAPC   H7R 9832   3.619   1.276   4.080  0.6095  1.5230 -0.5987
   99SAPC   H7S 9833   3.748   1.292   3.974 -0.7290  0.2593  1.0918
   99SAPC   C28 9834   3.809   1.159   4.143  0.5474  0.0543  0.5316
   99SAPC   H8R 9835   3.856   1.065   4.113 -1.3961 -0.4824 -1.0778
   99SAPC   C29 9836   3.830   1.215   4.268 -0.0865  0.9861  0.0561
   99SAPC   H9R 9837   3.901   1.158   4.330  1.2118  2.2310 -0.2470
   99SAPC  C210 9838   3.771   1.341   4.333 -0.7390 -0.4769 -0.3912
   99SAPC  H10R 9839   3.801   1.433   4.279  0.5139  0.2214  1.3757
   99SAPC  H10S 9840   3.821   1.361   4.430 -1.8053 -0.9983  0.2854
   99SAPC  C211 9841   3.625   1.332   4.369  0.3331 -0.0885  0.2190
   99SAPC  H11R 9842   3.559   1.391   4.304  0.7846 -0.1173 -0.2753
   99SAPC  C212 9843   3.569   1.240   4.455  0.5498  0.5594  0.0210
   99SAPC  H12R 9844   3.459   1.249   4.458  0.6255  1.2971  2.6819
   99SAPC  C213 9845   3.637   1.140   4.547 -0.1421  0.4755 -0.3110
   99SAPC  H13R 9846   3.633   1.165   4.655 -0.9139  1.1718 -0.4834
   99SAPC  H13S 9847   3.747   1.136   4.536  0.1349  0.3506  2.1094
   99SAPC  C214 9848   3.578   1.003   4.520  0.2983 -1.0366  0.5406
   99SAPC  H14R 9849   3.554   0.985   4.414  0.7033  0.8891  0.0890
   99SAPC  C215 9850   3.558   0.914   4.624  0.6383  0.0097  0.0090
   99SAPC  H15R 9851   3.536   0.811   4.592  1.0892  0.2929 -1.2568
   99SAPC  C216 9852   3.597   0.936   4.765  0.1183  0.2911  0.0175
   99SAPC  H16R 9853   3.523   0.988   4.829 -0.7821 -0.0674 -0.7179
   99SAPC  H16S 9854   3.692   0.994   4.777 -1.4118  3.1469 -0.8532
   99SAPC  C217 9855   3.615   0.793   4.816  0.2789 -0.3861  0.1516
   99SAPC  H17R 9856   3.692   0.727   4.771 -0.3992 -2.0470  1.3163
   99SAPC  H17S 9857   3.521   0.736   4.810  0.7208 -1.1281  0.1775
   99SAPC  C218 9858   3.658   0.785   4.965 -0.3979 -0.9515  0.4932
   99SAPC  H18R 9859   3.584   0.836   5.032  1.4658  0.3160  1.6904
   99SAPC  H18S 9860   3.753   0.840   4.982 -0.8031 -0.2072  0.4418
   99SAPC  C219 9861   3.676   0.634   5.009 -0.6788  0.0208 -0.0192
   99SAPC  H19R 9862   3.767   0.587   4.966 -1.5558 -3.8265  1.8909
   99SAPC  H19S 9863   3.580   0.582   4.987 -0.4388 -1.2099  1.6738
   99SAPC  C220 9864   3.689   0.623   5.161  0.2525 -0.7431 -0.1435
   99SAPC  H20R 9865   3.754   0.701   5.205 -1.4302  0.5064  0.2207
   99SAPC  H20S 9866   3.736   0.526   5.190  2.8446  0.0232 -1.5063
   99SAPC  H20T 9867   3.591   0.630   5.213  1.2708  0.1873  1.7645
   99SAPC   C33 9868   4.242   1.572   4.234  0.5771  0.2303 -0.6257
   99SAPC   H3X 9869   4.339   1.603   4.189  0.7671 -0.7450 -0.9002
   99SAPC   H3Y 9870   4.266   1.496   4.311 -1.1841  0.3238  0.0715
   99SAPC   C34 9871   4.189   1.699   4.304  0.2900  0.2808  0.5824
   99SAPC   H4X 9872   4.196   1.796   4.251 -3.1456 -0.0780 -0.7652
   99SAPC   H4Y 9873   4.248   1.709   4.398 -2.0402 -0.8763  2.2830
   99SAPC   C35 9874   4.040   1.700   4.344  0.2684  0.1378  0.0609
   99SAPC   H5X 9875   4.008   1.595   4.360 -0.8812  0.5543  0.6237
   99SAPC   H5Y 9876   3.981   1.752   4.266 -2.3200 -0.2837  1.6380
   99SAPC   C36 9877   4.019   1.766   4.476  0.2021  0.0037 -0.1128
   99SAPC   H6X 9878   4.030   1.875   4.460 -2.3055  0.2460 -0.6639
   99SAPC   H6Y 9879   4.096   1.734   4.549  0.3791  1.3921  0.3470
   99SAPC   C37 9880   3.880   1.738   4.538 -0.3398  0.3291 -0.2839
   99SAPC   H7X 9881   3.868   1.629   4.555 -0.3668  0.0010 -2.1955
   99SAPC   H7Y 9882   3.807   1.772   4.462 -0.8905 -0.2631 -0.0271
   99SAPC   C38 9883   3.842   1.802   4.674 -0.1153  0.3388 -0.2359
   99SAPC   H8X 9884   3.736   1.829   4.696 -0.1573  0.2102 -0.2753
   99SAPC   H8Y 9885   3.900   1.894   4.697 -1.1570  0.9582 -0.0149
   99SAPC   C39 9886   3.880   1.705   4.793  0.1589  0.6169 -0.0634
   99SAPC   H9X 9887   3.955   1.748   4.862  0.2185  0.3570  0.0360
   99SAPC   H9Y 9888   3.930   1.614   4.751 -0.7813  0.0026  0.1275
   99SAPC  C310 9889   3.768   1.673   4.896  0.0584 -0.0991  0.5915
   99SAPC  H10X 9890   3.687   1.609   4.856  0.3564  1.2156 -2.3744
   99SAPC  H10Y 9891   3.712   1.765   4.921  0.8599  0.4135  0.5469
   99SAPC  C311 9892   3.822   1.593   5.014  0.5381 -0.0484 -0.4418
   99SAPC  H11X 9893   3.921   1.551   4.987  0.3923 -0.5986 -0.1391
   99SAPC  H11Y 9894   3.756   1.505   5.031  1.3809 -1.0238 -2.0383
   99SAPC  C312 9895   3.858   1.686   5.132  0.0894  0.1012  0.2417
   99SAPC  H12X 9896   3.930   1.762   5.096  2.1518 -0.7074  2.4396
   99SAPC  H12Y 9897   3.932   1.632   5.194  3.4343  0.8915 -2.7516
   99SAPC  C313 9898   3.744   1.744   5.219  0.3176 -0.5969  0.5835
   99SAPC  H13X 9899   3.687   1.818   5.157  1.7423 -0.7422 -0.9659
   99SAPC  H13Y 9900   3.791   1.792   5.307  1.3361  1.2940 -0.9039
   99SAPC  C314 9901   3.648   1.633   5.262  0.4014 -0.2783 -0.2621
   99SAPC  H14X 9902   3.713   1.549   5.295  1.8700  0.1579 -1.8962
   99SAPC  H14Y 9903   3.587   1.589   5.181 -1.1986  0.3538  0.5681
   99SAPC  C315 9904   3.543   1.667   5.369  0.2568  0.1558 -0.1553
   99SAPC  H15X 9905   3.599   1.690   5.462 -0.7870 -2.3667  1.1971
   99SAPC  H15Y 9906   3.469   1.588   5.393 -1.3468  2.2997  2.5486
   99SAPC  C316 9907   3.457   1.798   5.346 -0.2443  0.8478 -0.6390
   99SAPC  H16X 9908   3.404   1.789   5.249  0.1510 -0.3457 -0.7573
   99SAPC  H16Y 9909   3.523   1.888   5.341  0.5428  0.4884  1.8491
   99SAPC  C317 9910   3.360   1.819   5.466  0.6450 -0.3989  0.4279
   99SAPC  H17X 9911   3.407   1.832   5.566  0.0265  0.0048  0.6769
   99SAPC  H17Y 9912   3.308   1.722   5.478  0.9133 -0.5640  0.2470
   99SAPC  C318 9913   3.265   1.939   5.440 -0.1344  0.0528 -0.7463
   99SAPC  H18X 9914   3.210   1.928   5.344  2.1577  0.3715 -2.1646
   99SAPC  H18Y 9915   3.315   2.038   5.441 -0.0126  0.0443 -2.6197
   99SAPC  H18Z 9916   3.204   1.954   5.531  1.6270 -0.1868  0.5114
  100SAPC     N 9917   0.679   5.095   2.896 -0.0761 -0.4380  0.0095
  100SAPC   C12 9918   0.667   5.005   2.778 -0.0712 -0.4086  0.1325
  100SAPC  H12A 9919   0.661   5.069   2.692 -1.8897 -0.5170  0.1571
  100SAPC  H12B 9920   0.576   4.949   2.785  0.5764 -1.3867  0.9511
  100SAPC   C13 9921   0.674   5.024   3.027 -0.0502 -0.2910  0.5174
  100SAPC  H13A 9922   0.680   5.086   3.115 -2.5590  0.7477  0.0409
  100SAPC  H13B 9923   0.590   4.957   3.032 -0.0600 -0.2522  0.8991
  100SAPC  H13C 9924   0.758   4.957   3.035  1.4490  1.2732 -1.1168
  100SAPC   C14 9925   0.812   5.177   2.889  0.1442  0.0865 -0.1088
  100SAPC  H14A 9926   0.889   5.103   2.904 -1.0486 -1.0508  0.6187
  100SAPC  H14B 9927   0.825   5.236   2.799  1.5178 -0.8519 -0.5534
  100SAPC  H14C 9928   0.811   5.249   2.969  1.1378 -0.7081  0.6494
  100SAPC   C15 9929   0.568   5.193   2.880  0.0585  0.7919  0.3695
  100SAPC  H15A 9930   0.578   5.265   2.960 -2.1999 -0.4297  1.8507
  100SAPC  H15B 9931   0.560   5.239   2.782  0.2575 -1.4609 -0.7785
  100SAPC  H15C 9932   0.480   5.135   2.901  1.5678 -1.5693  0.5447
  100SAPC   C11 9933   0.776   4.896   2.754 -0.1968  0.0048  0.3868
  100SAPC  H11A 9934   0.875   4.929   2.793  0.7876 -1.1873 -1.0024
  100SAPC  H11B 9935   0.763   4.874   2.646 -4.1439  0.4811  0.6158
  100SAPC     P 9936   0.622   4.688   2.788 -0.1846 -0.1760  0.0478
  100SAPC   O13 9937   0.508   4.766   2.732 -0.1782 -0.0082  0.1487
  100SAPC   O14 9938   0.687   4.591   2.699 -0.3134 -0.0947 -0.1948
  100SAPC   O12 9939   0.737   4.798   2.841 -0.4589  0.6556 -0.3275
  100SAPC   O11 9940   0.577   4.618   2.916 -0.0870  0.8651  0.5414
  100SAPC    C1 9941   0.631   4.636   3.049  0.6790  0.4511  1.1089
  100SAPC    HA 9942   0.685   4.540   3.066 -1.2519 -0.5212  2.2173
  100SAPC    HB 9943   0.705   4.719   3.050 -1.8844  2.9304 -0.0821
  100SAPC    C2 9944   0.521   4.660   3.154  0.5438 -0.4268 -0.5783
  100SAPC    HS 9945   0.444   4.580   3.156  1.1344 -1.0109  1.5287
  100SAPC   O21 9946   0.465   4.789   3.140 -0.4023  0.4222 -0.1387
  100SAPC   C21 9947   0.336   4.810   3.162 -0.2658 -0.2480  0.4174
  100SAPC   O22 9948   0.252   4.728   3.194 -0.4472  0.2886 -0.1760
  100SAPC   C22 9949   0.303   4.948   3.128  0.4170 -0.8686 -0.3516
  100SAPC   H2R 9950   0.362   4.959   3.034 -0.1023 -1.9644 -0.8161
  100SAPC   H2S 9951   0.195   4.962   3.105  0.7448  1.8969 -0.6363
  100SAPC    C3 9952   0.584   4.640   3.290 -0.6424 -0.8244 -0.0576
  100SAPC    HX 9953   0.674   4.702   3.308 -0.9221  0.0126 -1.3588
  100SAPC    HY 9954   0.620   4.535   3.295  1.2303 -0.1895  0.6368
  100SAPC   O31 9955   0.498   4.684   3.400 -0.5325  0.2842  0.3171
  100SAPC   C31 9956   0.403   4.597   3.431  0.1603 -0.5816  0.2316
  100SAPC   O32 9957   0.396   4.483   3.385 -0.4392 -0.4292 -0.1408
  100SAPC   C32 9958   0.312   4.669   3.530 -0.7209 -0.5939 -0.0026
  100SAPC   H2X 9959   0.253   4.749   3.480  0.9804  0.0931 -1.0242
  100SAPC   H2Y 9960   0.380   4.726   3.597  2.1882 -0.9079 -2.4194
  100SAPC   C23 9961   0.354   5.046   3.239 -0.1812 -0.3077  0.0163
  100SAPC   H3R 9962   0.328   5.146   3.199 -0.4986 -0.4963 -0.2584
  100SAPC   H3S 9963   0.464   5.041   3.256 -0.3209  1.2321  1.6173
  100SAPC   C24 9964   0.292   5.015   3.375  0.2052  0.5362 -0.2872
  100SAPC   H4R 9965   0.356   4.934   3.416  0.7156  1.8946  1.6992
  100SAPC   H4S 9966   0.192   4.968   3.377  0.7525 -0.6603  1.9260
  100SAPC   C25 9967   0.291   5.125   3.472 -0.1532 -0.0328  0.9430
  100SAPC   H5R 9968   0.386   5.180   3.482 -1.2573  1.7765  1.9863
  100SAPC   C26 9969   0.187   5.169   3.546 -0.0985 -0.1736  0.1809
  100SAPC   H6R 9970   0.211   5.254   3.612  1.4296 -0.7185  0.3581
  100SAPC   C27 9971   0.050   5.119   3.568  1.1535 -0.2828  0.0326
  100SAPC   H7R 9972   0.011   5.083   3.471 -0.7801 -1.1104  1.0515
  100SAPC   H7S 9973  -0.020   5.198   3.601 -2.9858 -2.7057 -2.1560
  100SAPC   C28 9974   0.052   5.011   3.673  0.4751 -0.0529 -0.7947
  100SAPC   H8R 9975   0.127   4.932   3.656  0.7706  0.4018 -1.6182
  100SAPC   C29 9976  -0.031   4.997   3.783  0.3437  0.8655  0.3777
  100SAPC   H9R 9977  -0.016   4.899   3.828  0.2890  0.5451 -0.2861
  100SAPC  C210 9978  -0.138   5.091   3.829 -0.1647 -0.2837 -0.2162
  100SAPC  H10R 9979  -0.168   5.165   3.753 -0.5882  0.0150  0.2363
  100SAPC  H10S 9980  -0.101   5.136   3.923  0.3076 -1.2669  0.0816
  100SAPC  C211 9981  -0.257   5.026   3.896 -0.0239  0.4149  0.5195
  100SAPC  H11R 9982  -0.343   5.033   3.828  0.6755  1.3581 -0.3002
  100SAPC  C212 9983  -0.263   4.945   4.007  0.4619 -0.3266 -0.0725
  100SAPC  H12R 9984  -0.365   4.914   4.032 -0.3450  0.0134 -2.7096
  100SAPC  C213 9985  -0.148   4.901   4.097  0.6034 -0.1987  0.6750
  100SAPC  H13R 9986  -0.054   4.942   4.055 -0.1111 -1.2704 -2.1714
  100SAPC  H13S 9987  -0.146   4.791   4.084 -1.5981 -0.2577  0.3854
  100SAPC  C214 9988  -0.162   4.941   4.237  0.4134  0.2186  0.2489
  100SAPC  H14R 9989  -0.176   5.045   4.271 -0.7357  0.4078 -0.7359
  100SAPC  C215 9990  -0.186   4.854   4.341 -0.1361  0.3722 -0.2796
  100SAPC  H15R 9991  -0.205   4.889   4.444 -0.7444 -2.0785  0.5242
  100SAPC  C216 9992  -0.195   4.700   4.338 -0.2018 -0.9977  0.4904
  100SAPC  H16R 9993  -0.139   4.660   4.251 -0.4729 -1.7545  0.6589
  100SAPC  H16S 9994  -0.297   4.663   4.316 -1.1503  0.3008  2.4571
  100SAPC  C217 9995  -0.142   4.645   4.464 -0.4067  0.8262  0.0793
  100SAPC  H17R 9996  -0.043   4.686   4.495  0.7941 -2.6494  1.2728
  100SAPC  H17S 9997  -0.123   4.536   4.457 -0.9343  0.8458 -2.9819
  100SAPC  C218 9998  -0.238   4.658   4.590  0.5516  0.5076 -0.3400
  100SAPC  H18R 9999  -0.309   4.572   4.586  2.5960 -1.3774  1.5088
  100SAPC  H18S10000  -0.295   4.753   4.590 -1.1575 -0.4550 -1.5925
  100SAPC  C21910001  -0.166   4.648   4.720  0.3084 -0.4154 -0.2677
  100SAPC  H19R10002  -0.080   4.719   4.719 -0.0086 -0.0195 -0.8517
  100SAPC  H19S10003  -0.127   4.545   4.730 -2.9988 -1.9081 -1.4819
  100SAPC  C22010004  -0.253   4.676   4.842  0.4129  0.4111 -0.0741
  100SAPC  H20R10005  -0.202   4.630   4.929 -1.8220  0.0155  1.0990
  100SAPC  H20S10006  -0.343   4.612   4.825  0.5700 -0.4427  1.9562
  100SAPC  H20T10007  -0.271   4.785   4.853 -1.1953  0.0710  1.0544
  100SAPC   C3310008   0.225   4.565   3.601  0.2133 -0.0200 -0.5729
  100SAPC   H3X10009   0.282   4.478   3.641  1.8341  1.0078 -0.5450
  100SAPC   H3Y10010   0.161   4.530   3.517 -0.4334 -0.4955  0.1016
  100SAPC   C3410011   0.123   4.610   3.715  0.2166 -0.2713  0.0599
  100SAPC   H4X10012   0.065   4.520   3.742 -2.7561  1.5416  0.0838
  100SAPC   H4Y10013   0.052   4.686   3.675  0.0270  0.2078  1.2660
  100SAPC   C3510014   0.199   4.657   3.839  0.3345 -0.2233 -0.2745
  100SAPC   H5X10015   0.227   4.761   3.812 -0.9651  0.2293  0.0341
  100SAPC   H5Y10016   0.289   4.592   3.845 -0.8003 -1.9339 -1.1755
  100SAPC   C3610017   0.119   4.645   3.963  0.2986  0.1024 -0.6129
  100SAPC   H6X10018   0.096   4.537   3.970 -0.5625  0.3475  0.7811
  100SAPC   H6Y10019   0.022   4.693   3.943  0.4375  0.7797  0.2603
  100SAPC   C3710020   0.180   4.720   4.081  0.5288 -0.6346 -0.3804
  100SAPC   H7X10021   0.102   4.723   4.160  0.4300 -2.7327 -0.3273
  100SAPC   H7Y10022   0.221   4.815   4.041  2.2944 -1.5612 -0.9200
  100SAPC   C3810023   0.290   4.643   4.157 -0.1244  0.1268 -0.3809
  100SAPC   H8X10024   0.346   4.713   4.222 -1.8080  0.9638  0.2067
  100SAPC   H8Y10025   0.357   4.604   4.077  0.0433  1.0382 -0.6983
  100SAPC   C3910026   0.224   4.534   4.242  0.0690 -0.2941  0.0787
  100SAPC   H9X10027   0.295   4.452   4.223 -2.0278 -1.6591 -2.4651
  100SAPC   H9Y10028   0.128   4.495   4.202 -0.4062 -1.3233  2.1092
  100SAPC  C31010029   0.204   4.565   4.382  0.0035 -0.8328 -0.8073
  100SAPC  H10X10030   0.138   4.501   4.443  0.4482  0.2471  0.8700
  100SAPC  H10Y10031   0.160   4.665   4.404 -1.5558 -0.9572 -2.9872
  100SAPC  C31110032   0.333   4.558   4.456  0.5129 -0.8217  0.0999
  100SAPC  H11X10033   0.415   4.624   4.421 -1.6920  1.9302 -0.2242
  100SAPC  H11Y10034   0.363   4.451   4.448  1.7328 -0.4556 -0.4514
  100SAPC  C31210035   0.327   4.593   4.607  0.7031 -0.5173 -0.0415
  100SAPC  H12X10036   0.311   4.702   4.623  0.4695 -0.5078 -0.3223
  100SAPC  H12Y10037   0.430   4.578   4.647 -0.2466 -0.9071  2.3776
  100SAPC  C31310038   0.218   4.518   4.682  0.3333 -0.3688 -0.8025
  100SAPC  H13X10039   0.250   4.411   4.691 -0.8106 -0.6224  0.6155
  100SAPC  H13Y10040   0.120   4.512   4.630  0.4597  0.5702 -1.1686
  100SAPC  C31410041   0.216   4.574   4.828  0.0920  0.6756  0.4390
  100SAPC  H14X10042   0.177   4.677   4.827  1.3070  1.1550 -0.4405
  100SAPC  H14Y10043   0.320   4.590   4.866  0.9424  0.7788 -1.7968
  100SAPC  C31510044   0.138   4.476   4.930 -0.0504  0.0928 -0.4585
  100SAPC  H15X10045   0.191   4.379   4.939 -1.8130 -1.0586 -1.7774
  100SAPC  H15Y10046   0.040   4.452   4.884  0.9037 -1.8471 -1.6294
  100SAPC  C31610047   0.124   4.540   5.070 -0.5566 -0.3188 -0.4810
  100SAPC  H16X10048   0.056   4.624   5.046  0.3740  0.2979 -1.0110
  100SAPC  H16Y10049   0.221   4.578   5.107 -1.0636  2.0280 -1.3669
  100SAPC  C31710050   0.054   4.456   5.177  0.5643 -0.1649 -0.5807
  100SAPC  H17X10051  -0.055   4.446   5.158  0.7201 -1.8714 -0.8133
  100SAPC  H17Y10052   0.055   4.508   5.275 -2.1495  1.1998 -1.1779
  100SAPC  C31810053   0.110   4.316   5.207 -0.0555  0.3925 -0.6610
  100SAPC  H18X10054   0.093   4.239   5.129 -0.6163 -0.2898  0.1117
  100SAPC  H18Y10055   0.060   4.274   5.297  2.2813 -2.7648 -0.6535
  100SAPC  H18Z10056   0.218   4.316   5.232 -0.4740  4.7118  2.0854
  101OSM      N10057   4.979   3.758   7.792  0.5420 -0.1968  0.5392
  101OSM    C1510058   5.102   3.790   7.870 -0.3441 -0.3979  0.8528
  101OSM   H15A10059   5.117   3.892   7.903 -1.5950  0.3717 -0.8058
  101OSM   H15B10060   5.187   3.776   7.805 -0.8426 -0.3882  0.1855
  101OSM   H15C10061   5.110   3.731   7.960 -0.6396  0.7488  1.6510
  101OSM    C1410062   4.957   3.606   7.794 -0.3883  0.0985 -0.4948
  101OSM   H14A10063   4.861   3.590   7.747 -1.0931  2.7360 -0.1245
  101OSM   H14B10064   4.957   3.562   7.892 -1.7104 -1.4988 -1.1584
  101OSM   H14C10065   5.039   3.558   7.741 -0.9048 -0.8238 -0.4740
  101OSM    C1310066   4.867   3.829   7.863 -0.2693  0.0007  0.1441
  101OSM   H13A10067   4.856   3.804   7.967 -1.5745  0.7084  0.1885
  101OSM   H13B10068   4.773   3.813   7.813 -0.6804  1.9994  0.2068
  101OSM   H13C10069   4.872   3.936   7.856 -0.5607  0.0662  0.9345
  101OSM    C1210070   5.003   3.803   7.653  1.1072  0.4978 -0.6086
  101OSM   H12A10071   5.083   3.743   7.611 -0.4747 -3.1885  1.1686
  101OSM   H12B10072   5.043   3.903   7.664  2.2403 -0.2070  2.9210
  101OSM    C1110073   4.898   3.801   7.543  0.4013 -0.4196 -0.0385
  101OSM   H11A10074   4.866   3.699   7.514 -1.9896 -0.8052  3.3924
  101OSM   H11B10075   4.940   3.850   7.452 -2.0353  0.3231 -0.8400
  101OSM      P10076   4.713   3.995   7.546 -0.3650 -0.2001  0.1185
  101OSM    O1310077   4.569   3.994   7.587  0.4626 -0.4922  0.2450
  101OSM    O1410078   4.791   4.114   7.582 -0.1117 -0.3820 -0.2406
  101OSM    O1110079   4.726   3.977   7.389 -0.0447 -0.0696  0.0720
  101OSM    O1210080   4.778   3.862   7.597  0.5562  0.7516  0.2474
  101OSM    C1S10081   4.615   3.919   7.321 -0.2519 -0.7365  0.5950
  101OSM    H1S10082   4.521   3.976   7.338 -0.5795 -0.1843 -2.4897
  101OSM    H1T10083   4.597   3.811   7.340 -0.2501 -0.7322  0.6204
  101OSM     NF10084   4.518   3.865   7.102  0.4088 -0.4111  0.1240
  101OSM    HNF10085   4.510   3.771   7.071 -2.3056 -0.0640 -0.4328
  101OSM    C2S10086   4.639   3.922   7.166 -0.5476  0.5335  0.5883
  101OSM    H2S10087   4.669   4.024   7.134  4.1467 -0.1302  2.1614
  101OSM    C3S10088   4.771   3.839   7.126 -0.0464 -0.2468 -0.0232
  101OSM    H3S10089   4.735   3.738   7.155  1.9372 -0.8704  0.4669
  101OSM     O310090   4.887   3.862   7.206  0.5562  0.5532 -0.1384
  101OSM    HO310091   4.845   3.910   7.278 -1.7280 -0.6527 -0.5964
  101OSM    C4S10092   4.802   3.850   6.978 -0.3177  0.4585 -0.1332
  101OSM    H4S10093   4.747   3.784   6.908 -0.2999  1.1511 -0.8172
  101OSM    C5S10094   4.881   3.932   6.912 -1.0098  0.0204 -0.2699
  101OSM    H5S10095   4.923   4.008   6.980 -0.5543 -0.2703 -0.2173
  101OSM    C6S10096   4.895   3.944   6.764 -0.2700  0.5567  0.0177
  101OSM    H6S10097   4.981   3.877   6.744 -0.9628 -0.7458  1.2446
  101OSM    H6T10098   4.918   4.051   6.746 -0.2447  0.5347 -0.0818
  101OSM    C7S10099   4.784   3.893   6.679 -0.5661  0.1812 -0.1348
  101OSM    H7S10100   4.689   3.951   6.688 -0.5917  0.7324 -2.9516
  101OSM    H7T10101   4.763   3.785   6.697  1.1352 -0.2343 -0.5015
  101OSM    C8S10102   4.826   3.904   6.532 -0.4628 -0.3110  0.2147
  101OSM    H8S10103   4.751   3.843   6.479 -2.5923  2.7819 -0.6216
  101OSM    H8T10104   4.927   3.861   6.515 -0.1156 -0.0923  1.5916
  101OSM    C9S10105   4.829   4.052   6.491  0.0603  0.1717  0.6900
  101OSM    H9S10106   4.928   4.096   6.517  1.2231 -1.6348 -0.5282
  101OSM    H9T10107   4.751   4.112   6.543 -0.5646  2.2100 -2.3026
  101OSM   C10S10108   4.804   4.085   6.337  0.3401 -0.2888 -0.1481
  101OSM   H10S10109   4.874   4.027   6.274 -2.0064  0.9244 -4.2303
  101OSM   H10T10110   4.831   4.192   6.322 -1.9546  0.3960  0.1106
  101OSM   C11S10111   4.665   4.059   6.282  0.1098 -0.5772 -0.4931
  101OSM   H11S10112   4.603   4.146   6.313  1.8295 -0.8228  4.5994
  101OSM   H11T10113   4.605   3.984   6.338 -0.9858  0.5602 -0.0948
  101OSM   C12S10114   4.662   4.041   6.134 -0.0775  0.6278  1.1317
  101OSM   H12S10115   4.559   4.014   6.101  0.3796 -1.1459  1.0741
  101OSM   H12T10116   4.726   3.957   6.101 -0.3682  1.1030 -0.7536
  101OSM   C13S10117   4.703   4.168   6.061  0.0907 -0.9273 -0.2763
  101OSM   H13S10118   4.801   4.201   6.100 -0.7915  0.4495  0.8589
  101OSM   H13T10119   4.634   4.246   6.100  0.2562 -0.9626  0.0860
  101OSM   C14S10120   4.708   4.157   5.909 -0.0750 -0.0518 -0.9218
  101OSM   H14S10121   4.621   4.093   5.881 -0.4158 -0.0032 -0.0395
  101OSM   H14T10122   4.802   4.109   5.876  0.2397  1.7505 -2.8241
  101OSM   C15S10123   4.704   4.300   5.851 -0.1835  0.6242  0.4377
  101OSM   H15S10124   4.718   4.366   5.940 -0.3337  1.2387  0.0091
  101OSM   H15T10125   4.598   4.325   5.828 -0.3360 -1.3798 -1.2492
  101OSM   C16S10126   4.790   4.313   5.732  0.0485 -0.1016 -0.2973
  101OSM   H16S10127   4.785   4.419   5.697  1.9036  0.3043  0.5150
  101OSM   H16T10128   4.758   4.257   5.642 -0.4588  0.5453 -0.5263
  101OSM   C17S10129   4.948   4.294   5.741  0.2320 -0.7362  0.4204
  101OSM   H17S10130   4.973   4.196   5.787 -1.3436 -3.0334 -3.1795
  101OSM   H17T10131   4.982   4.374   5.811  0.2102 -0.3857  0.0374
  101OSM   C18S10132   5.018   4.297   5.604 -0.0560 -0.2568 -0.3973
  101OSM   H18S10133   5.023   4.393   5.548  0.9897 -0.3414 -0.4554
  101OSM   H18T10134   4.966   4.240   5.524 -0.8200  1.3644 -1.1055
  101OSM   H18U10135   5.123   4.263   5.615  0.0883  0.7065  1.8824
  101OSM    C1F10136   4.408   3.939   7.106 -0.1703  0.3555 -0.6710
  101OSM     OF10137   4.419   4.058   7.133 -0.3273 -0.4194 -0.0042
  101OSM    C2F10138   4.278   3.875   7.089  0.0144  0.4131  0.9145
  101OSM    H2F10139   4.215   3.901   7.176  0.8601 -0.5861  1.8525
  101OSM    H2G10140   4.293   3.765   7.088  1.2925  0.5562 -0.6804
  101OSM    C3F10141   4.207   3.935   6.957  0.8223  0.5447  0.6092
  101OSM    H3F10142   4.184   4.042   6.971  2.3980  1.3159 -1.9787
  101OSM    H3G10143   4.120   3.875   6.923  1.8570 -2.0412  2.1452
  101OSM    C4F10144   4.295   3.931   6.836 -0.4691  0.3230 -0.0973
  101OSM    H4F10145   4.354   3.837   6.835  1.3722  1.3959 -2.0367
  101OSM    H4G10146   4.365   4.017   6.840 -0.0418  0.1284 -2.1042
  101OSM    C5F10147   4.229   3.934   6.700 -0.1912  0.0016  0.4294
  101OSM    H5F10148   4.174   4.029   6.690  0.4478  0.3094 -0.3044
  101OSM    H5G10149   4.158   3.849   6.689  2.9828 -2.5209 -3.1280
  101OSM    C6F10150   4.328   3.927   6.581 -0.2785 -0.1714  0.3947
  101OSM    H6F10151   4.382   3.831   6.595 -1.5102 -0.5679  3.0432
  101OSM    H6G10152   4.397   4.014   6.578 -1.0655  0.4427 -1.1126
  101OSM    C7F10153   4.252   3.915   6.445  0.3339  0.6833 -0.0118
  101OSM    H7F10154   4.188   4.006   6.448  0.9663  1.1244  0.5353
  101OSM    H7G10155   4.183   3.828   6.447  1.5659 -0.4222 -2.2515
  101OSM    C8F10156   4.335   3.924   6.319  0.1895 -0.2930 -0.9247
  101OSM    H8F10157   4.423   3.856   6.319  0.0268 -0.5442 -2.7379
  101OSM    H8G10158   4.375   4.027   6.318 -0.4917  0.0198  0.8053
  101OSM    C9F10159   4.271   3.890   6.188 -0.4076 -0.1351 -0.2597
  101OSM    H9F10160   4.176   3.941   6.167  0.1185  1.3056  0.7252
  101OSM   C10F10161   4.323   3.806   6.094 -0.4868 -0.4553  0.1731
  101OSM   H10F10162   4.261   3.790   6.004  1.3406 -0.4787 -1.1363
  101OSM   C11F10163   4.447   3.728   6.092  0.0240 -0.7044  0.1934
  101OSM   H11F10164   4.522   3.746   6.172  1.5913  0.3755 -1.4281
  101OSM   H11G10165   4.500   3.745   5.996  0.5075 -0.5328  0.4840
  101OSM   C12F10166   4.425   3.575   6.106 -0.4191 -0.6967  0.0746
  101OSM   H12F10167   4.516   3.518   6.080 -0.0188 -0.3104  0.6105
  101OSM   H12G10168   4.351   3.530   6.035  0.6965  1.6009 -2.7535
  101OSM   C13F10169   4.379   3.523   6.242 -0.4611 -0.3442 -0.5756
  101OSM   H13F10170   4.366   3.413   6.237  0.6621 -0.5018 -0.1673
  101OSM   H13G10171   4.281   3.575   6.257  0.3179  1.2512 -0.8469
  101OSM   C14F10172   4.469   3.555   6.364 -0.6373  0.0870  0.5248
  101OSM   H14F10173   4.406   3.521   6.449  0.7948  0.4201  1.7869
  101OSM   H14G10174   4.487   3.662   6.389  0.1960  0.1757 -0.3872
  101OSM   C15F10175   4.601   3.485   6.369  0.0720 -0.3329 -0.3303
  101OSM   H15F10176   4.679   3.551   6.326  0.3058  0.8755  1.7654
  101OSM   H15G10177   4.588   3.385   6.324 -0.6337 -0.0669 -0.7363
  101OSM   C16F10178   4.645   3.470   6.519  0.3838 -0.0548 -0.1441
  101OSM   H16F10179   4.584   3.384   6.552  0.8330 -0.7307 -1.0395
  101OSM   H16G10180   4.620   3.552   6.591  0.2109 -1.1327  1.0505
  101OSM   C17F10181   4.794   3.420   6.529  1.0525  0.3983  0.4434
  101OSM   H17F10182   4.831   3.428   6.634 -2.1296  1.5248  1.5862
  101OSM   H17G10183   4.851   3.487   6.461  1.3185 -0.1486  0.1204
  101OSM   C18F10184   4.808   3.275   6.480 -0.5969 -0.2230 -0.3939
  101OSM   H18F10185   4.779   3.203   6.559 -0.7154 -1.8409 -1.8568
  101OSM   H18G10186   4.915   3.259   6.453 -0.0896  0.5538  1.0285
  101OSM   H18H10187   4.754   3.251   6.386  1.1764  2.1378 -2.1484
  102OSM      N10188   5.654   3.374   7.951 -0.2857  0.7921 -0.5305
  102OSM    C1510189   5.786   3.345   8.015 -0.5109  0.6394 -0.1409
  102OSM   H15A10190   5.868   3.390   7.961 -1.6217 -1.2271 -3.6960
  102OSM   H15B10191   5.814   3.241   8.016  0.6200  0.9267  0.7445
  102OSM   H15C10192   5.791   3.375   8.119  0.1800  0.0355  0.0100
  102OSM    C1410193   5.558   3.282   8.022  0.7467 -0.2426  0.3785
  102OSM   H14A10194   5.600   3.184   8.037 -0.9004 -1.1642 -0.7664
  102OSM   H14B10195   5.460   3.279   7.977 -0.3423  0.0522  2.6097
  102OSM   H14C10196   5.538   3.333   8.115 -1.7188 -0.1807 -0.1284
  102OSM    C1310197   5.632   3.516   7.960 -0.4862 -0.3627 -0.1571
  102OSM   H13A10198   5.702   3.584   7.913 -0.2181 -0.4888  0.0544
  102OSM   H13B10199   5.636   3.554   8.061  2.3854  0.9997 -0.6753
  102OSM   H13C10200   5.539   3.542   7.912 -0.2238  1.5163  0.2514
  102OSM    C1210201   5.662   3.328   7.811 -1.1146 -0.5345  0.3827
  102OSM   H12A10202   5.691   3.224   7.822 -0.7685 -0.3063  1.8227
  102OSM   H12B10203   5.742   3.374   7.756 -1.9249  0.3319 -0.0854
  102OSM    C1110204   5.536   3.348   7.723 -0.8483  0.1190  0.1403
  102OSM   H11A10205   5.449   3.325   7.788 -0.3961  1.8893  1.4563
  102OSM   H11B10206   5.546   3.276   7.639 -2.3392  1.1273 -0.9494
  102OSM      P10207   5.627   3.553   7.578 -0.0378  0.2663 -0.2940
  102OSM    O1310208   5.605   3.697   7.574  0.2237 -0.0139  0.0244
  102OSM    O1410209   5.765   3.508   7.600 -0.4327 -0.5095 -0.3878
  102OSM    O1110210   5.580   3.495   7.436  0.2394 -0.0149  0.4860
  102OSM    O1210211   5.528   3.484   7.684 -0.0192  0.1289 -0.4935
  102OSM    C1S10212   5.452   3.514   7.373  0.5447  1.2402  0.0553
  102OSM    H1S10213   5.445   3.617   7.332 -0.5697  0.4275 -1.9577
  102OSM    H1T10214   5.374   3.485   7.448 -0.0457  0.5726 -0.7881
  102OSM     NF10215   5.294   3.415   7.205  0.0115 -0.4628 -0.0151
  102OSM    HNF10216   5.246   3.328   7.210  1.2882 -1.1643  0.3230
  102OSM    C2S10217   5.429   3.419   7.254  0.0761 -0.9930  0.0845
  102OSM    H2S10218   5.499   3.454   7.175 -0.8095 -0.9869 -0.7229
  102OSM    C3S10219   5.475   3.275   7.275 -0.5345  0.4340  0.0768
  102OSM    H3S10220   5.402   3.233   7.348 -0.4983  2.2189  1.2175
  102OSM     O310221   5.606   3.259   7.334  0.1924 -0.6036  0.4480
  102OSM    HO310222   5.631   3.344   7.371 -2.5632  0.7610 -0.5622
  102OSM    C4S10223   5.468   3.192   7.149  0.6985  0.5095  1.0712
  102OSM    H4S10224   5.523   3.229   7.062  0.6719 -2.1038 -0.1477
  102OSM    C5S10225   5.413   3.073   7.136  0.2470  0.3368 -0.1713
  102OSM    H5S10226   5.367   3.017   7.219 -0.8808  2.8987  1.0768
  102OSM    C6S10227   5.420   3.005   7.001  0.2866  0.2353  0.0538
  102OSM    H6S10228   5.433   3.079   6.919  0.9654 -1.1836 -1.1879
  102OSM    H6T10229   5.328   2.946   6.977 -0.3044  1.6453 -1.3063
  102OSM    C7S10230   5.540   2.905   6.996  0.6053 -0.6528  0.5968
  102OSM    H7S10231   5.514   2.810   7.048  2.4982 -1.4840  0.1376
  102OSM    H7T10232   5.627   2.946   7.052  0.4167 -0.5638  0.8246
  102OSM    C8S10233   5.597   2.860   6.857  0.5468  0.2993  0.1305
  102OSM    H8S10234   5.684   2.793   6.876  0.0765 -1.3938 -3.0229
  102OSM    H8T10235   5.653   2.943   6.809  1.9816 -0.1477  0.9762
  102OSM    C9S10236   5.492   2.810   6.769  0.2957 -0.0990 -0.0535
  102OSM    H9S10237   5.400   2.872   6.766  0.4760  0.3145  1.7503
  102OSM    H9T10238   5.455   2.711   6.804  0.1390 -0.3336 -0.8737
  102OSM   C10S10239   5.540   2.792   6.626  0.4960  0.0803  0.7479
  102OSM   H10S10240   5.585   2.885   6.586  1.2148 -1.6343 -2.8842
  102OSM   H10T10241   5.455   2.763   6.561 -0.2535  1.7455  0.9286
  102OSM   C11S10242   5.637   2.676   6.601 -0.4210  0.3169 -0.2454
  102OSM   H11S10243   5.601   2.573   6.622  1.6783 -0.6980 -1.3189
  102OSM   H11T10244   5.718   2.686   6.676  0.8939 -1.8561 -1.2824
  102OSM   C12S10245   5.709   2.675   6.470  1.1988  0.7946  0.8646
  102OSM   H12S10246   5.803   2.616   6.476  1.4313  1.2007  1.3238
  102OSM   H12T10247   5.739   2.779   6.445 -1.2588  1.6751  1.3428
  102OSM   C13S10248   5.613   2.634   6.358  0.2476  0.5033 -0.1935
  102OSM   H13S10249   5.531   2.707   6.342  1.2462  1.8357  0.5410
  102OSM   H13T10250   5.566   2.538   6.387  0.7096 -0.4028 -2.1990
  102OSM   C14S10251   5.691   2.609   6.224 -0.3996 -0.5850  0.2289
  102OSM   H14S10252   5.730   2.505   6.228  0.4614 -0.2739  0.2270
  102OSM   H14T10253   5.773   2.684   6.230 -1.6808  0.9165 -0.2756
  102OSM   C15S10254   5.607   2.623   6.099  0.1891  0.1977 -0.4385
  102OSM   H15S10255   5.571   2.729   6.095 -1.2722 -0.2806 -0.6472
  102OSM   H15T10256   5.514   2.562   6.106 -0.4559  1.1904 -0.0947
  102OSM   C16S10257   5.679   2.589   5.969 -0.7109 -0.0962 -0.3458
  102OSM   H16S10258   5.713   2.483   5.962  0.6699  0.4686 -3.3972
  102OSM   H16T10259   5.765   2.658   5.976 -0.4956 -0.4180  0.3004
  102OSM   C17S10260   5.598   2.632   5.841 -0.7002 -0.3377 -0.0283
  102OSM   H17S10261   5.572   2.740   5.837  1.1464  0.1293 -4.1374
  102OSM   H17T10262   5.504   2.573   5.850  0.3381 -2.2805 -1.2224
  102OSM   C18S10263   5.667   2.603   5.708 -0.4433  0.4106  0.3584
  102OSM   H18S10264   5.764   2.658   5.707 -1.3628  2.1593 -1.6386
  102OSM   H18T10265   5.608   2.634   5.619  2.2298 -1.2332 -2.1514
  102OSM   H18U10266   5.689   2.495   5.693  2.9590  1.1580 -1.1285
  102OSM    C1F10267   5.225   3.523   7.166 -0.5858  0.1280  0.5988
  102OSM     OF10268   5.293   3.624   7.147 -0.8019  0.3786 -0.1286
  102OSM    C2F10269   5.077   3.521   7.158 -0.5301  0.4122 -0.0658
  102OSM    H2F10270   5.026   3.616   7.189  3.1193  2.6254 -0.3164
  102OSM    H2G10271   5.037   3.436   7.218 -0.4263 -0.2515 -0.9325
  102OSM    C3F10272   5.032   3.500   7.017  0.2168 -0.0327  0.4090
  102OSM    H3F10273   4.927   3.535   7.020  0.2171 -0.0696  2.8422
  102OSM    H3G10274   5.042   3.395   6.982  2.1632  0.7380 -1.6762
  102OSM    C4F10275   5.110   3.584   6.904 -0.2031  0.4594 -0.8514
  102OSM    H4F10276   5.217   3.556   6.904 -0.1008  0.8319 -0.5751
  102OSM    H4G10277   5.122   3.692   6.929  2.0410  0.1685 -0.5323
  102OSM    C5F10278   5.051   3.582   6.766 -0.1893  0.4369 -0.6169
  102OSM    H5F10279   4.957   3.641   6.769 -1.5399 -1.6391 -0.7152
  102OSM    H5G10280   5.009   3.481   6.749 -0.5251  0.6948 -1.4144
  102OSM    C6F10281   5.160   3.601   6.659 -0.1457 -0.2765 -0.1387
  102OSM    H6F10282   5.235   3.519   6.668  2.2969  1.9661  1.5996
  102OSM    H6G10283   5.216   3.697   6.670  1.9656 -0.9697 -3.3873
  102OSM    C7F10284   5.110   3.616   6.512 -0.1420 -0.1887 -0.2901
  102OSM    H7F10285   5.045   3.706   6.508 -1.0483 -0.4968  3.5896
  102OSM    H7G10286   5.047   3.526   6.497  0.3773 -0.7005  0.5163
  102OSM    C8F10287   5.223   3.637   6.404  0.2013  0.0327  0.1038
  102OSM    H8F10288   5.288   3.550   6.384 -0.0355  0.2223 -1.6056
  102OSM    H8G10289   5.294   3.716   6.437  0.2262 -0.1377  0.4564
  102OSM    C9F10290   5.159   3.663   6.271 -0.0901  0.3905 -0.4206
  102OSM    H9F10291   5.062   3.715   6.282  0.2832  0.9433  0.3810
  102OSM   C10F10292   5.187   3.627   6.141  0.9679 -0.4001 -0.2979
  102OSM   H10F10293   5.134   3.681   6.062 -1.0516 -0.5332  0.9082
  102OSM   C11F10294   5.296   3.537   6.097  0.5166  0.2967  0.3271
  102OSM   H11F10295   5.257   3.450   6.038 -0.2707  0.5006  0.5337
  102OSM   H11G10296   5.346   3.488   6.183 -0.4084 -2.3263 -0.5194
  102OSM   C12F10297   5.408   3.599   6.012 -0.3030 -0.5604 -0.2604
  102OSM   H12F10298   5.486   3.521   6.006  2.0575  1.7375 -1.7050
  102OSM   H12G10299   5.448   3.692   6.059 -2.0797  0.2869 -0.3279
  102OSM   C13F10300   5.346   3.639   5.875 -0.0562  0.2737  0.5780
  102OSM   H13F10301   5.271   3.720   5.877 -1.8803 -1.3259  2.7802
  102OSM   H13G10302   5.292   3.552   5.830  0.3400  0.1929  0.2559
  102OSM   C14F10303   5.467   3.667   5.779  0.3336  0.8333  0.0344
  102OSM   H14F10304   5.506   3.565   5.759 -2.2551 -0.3884  0.8896
  102OSM   H14G10305   5.559   3.706   5.827  1.4036  0.2769 -1.4581
  102OSM   C15F10306   5.437   3.748   5.654  0.0247  0.2410 -0.1430
  102OSM   H15F10307   5.422   3.856   5.673 -2.9771  0.1318 -1.3097
  102OSM   H15G10308   5.339   3.721   5.607 -0.1027 -0.3256  0.4423
  102OSM   C16F10309   5.546   3.728   5.545 -0.3169 -0.2282 -0.4881
  102OSM   H16F10310   5.527   3.760   5.440  1.7848 -0.9679 -1.1365
  102OSM   H16G10311   5.562   3.619   5.545  1.8002 -0.1025  3.9257
  102OSM   C17F10312   5.686   3.781   5.579  0.0283  0.4440 -0.7313
  102OSM   H17F10313   5.738   3.707   5.643  0.8065  0.4282 -1.3766
  102OSM   H17G10314   5.675   3.868   5.648 -2.1373 -0.8385  0.6662
  102OSM   C18F10315   5.771   3.816   5.463 -0.4382  1.1304  0.2749
  102OSM   H18F10316   5.714   3.861   5.378 -0.1332 -1.3127 -1.3428
  102OSM   H18G10317   5.803   3.718   5.419  0.2265  1.3966  0.1548
  102OSM   H18H10318   5.861   3.877   5.482  0.1722  0.4563 -0.3789
  103OSM      N10319   5.420   4.809   7.813  0.2641  0.3153 -0.7193
  103OSM    C1510320   5.328   4.723   7.895  0.3471 -0.3557 -0.6013
  103OSM   H15A10321   5.361   4.705   7.996  0.3566 -0.2199 -0.5805
  103OSM   H15B10322   5.328   4.621   7.859  2.1987 -1.2360  1.6123
  103OSM   H15C10323   5.226   4.758   7.889  0.9604  1.3276 -2.0306
  103OSM    C1410324   5.346   4.850   7.690 -0.4747 -0.1251 -0.7975
  103OSM   H14A10325   5.244   4.875   7.716  0.2188  0.5974  1.4277
  103OSM   H14B10326   5.351   4.780   7.608 -0.6725 -0.1377 -0.7996
  103OSM   H14C10327   5.370   4.951   7.659  0.4991  0.2403  1.0072
  103OSM    C1310328   5.464   4.926   7.904  0.5728  0.3027  0.0119
  103OSM   H13A10329   5.503   4.879   7.993  1.3209  0.2514 -0.3324
  103OSM   H13B10330   5.380   4.978   7.947  0.0480  0.5183 -1.2257
  103OSM   H13C10331   5.539   4.986   7.854  0.7399 -0.9195 -1.2539
  103OSM    C1210332   5.547   4.732   7.774  0.9276 -0.5873  0.0694
  103OSM   H12A10333   5.589   4.699   7.868 -1.2622 -3.1515  0.2631
  103OSM   H12B10334   5.610   4.798   7.716 -2.3203  1.1547 -1.7685
  103OSM    C1110335   5.525   4.595   7.706  0.1630 -0.4095  0.1051
  103OSM   H11A10336   5.606   4.564   7.636 -0.7336  0.0087 -1.1451
  103OSM   H11B10337   5.440   4.596   7.635  1.0344  0.0624 -0.9831
  103OSM      P10338   5.525   4.347   7.760 -0.0864 -0.0061 -0.1801
  103OSM    O1310339   5.653   4.306   7.805 -0.3966  0.4151 -0.3436
  103OSM    O1410340   5.402   4.269   7.794 -0.0188  0.3022 -1.0789
  103OSM    O1110341   5.531   4.351   7.601 -0.3464  0.6340 -0.0614
  103OSM    O1210342   5.505   4.491   7.805  0.8227  0.2809 -0.1560
  103OSM    C1S10343   5.650   4.306   7.528  0.3428 -0.3900 -0.0160
  103OSM    H1S10344   5.672   4.202   7.560  2.5345  0.2237  0.6887
  103OSM    H1T10345   5.737   4.367   7.561  0.0410 -0.2228  0.4811
  103OSM     NF10346   5.756   4.259   7.315 -0.0644  0.0413 -0.5211
  103OSM    HNF10347   5.808   4.325   7.262 -0.6970  0.4621 -0.6230
  103OSM    C2S10348   5.642   4.320   7.373  0.9298  0.3306 -0.6494
  103OSM    H2S10349   5.550   4.270   7.336  0.3902  1.1267 -0.4134
  103OSM    C3S10350   5.607   4.471   7.325 -0.4109  0.5919 -0.2507
  103OSM    H3S10351   5.697   4.530   7.353  0.2125  0.7709 -2.4407
  103OSM     O310352   5.486   4.529   7.377 -0.3471  0.8264  0.0816
  103OSM    HO310353   5.463   4.476   7.454 -1.0529 -1.8555 -1.8396
  103OSM    C4S10354   5.600   4.468   7.175 -0.6824  0.0501 -0.7297
  103OSM    H4S10355   5.537   4.383   7.145 -1.3096  0.3006 -0.1432
  103OSM    C5S10356   5.679   4.536   7.089 -0.1524  0.4472  0.6778
  103OSM    H5S10357   5.768   4.595   7.112  1.5956 -0.8028 -2.2835
  103OSM    C6S10358   5.677   4.499   6.945 -0.3083  0.1448 -0.0173
  103OSM    H6S10359   5.617   4.409   6.921  0.9037 -0.9169  0.8269
  103OSM    H6T10360   5.779   4.470   6.913  0.1421 -0.5389  1.9052
  103OSM    C7S10361   5.629   4.610   6.859  0.3237  0.3099 -0.1741
  103OSM    H7S10362   5.715   4.679   6.852  1.4593 -1.2301 -2.7095
  103OSM    H7T10363   5.539   4.650   6.911 -1.6755 -0.3557 -2.8664
  103OSM    C8S10364   5.590   4.581   6.712 -0.9201  0.1306  0.4578
  103OSM    H8S10365   5.565   4.679   6.665  0.8332  0.3060 -0.1743
  103OSM    H8T10366   5.505   4.510   6.719  1.0565 -2.4182  0.2005
  103OSM    C9S10367   5.702   4.517   6.624 -0.0323 -1.0398 -0.3272
  103OSM    H9S10368   5.718   4.411   6.655  0.6001 -0.7171  0.4744
  103OSM    H9T10369   5.798   4.569   6.646 -0.2851  0.4682 -2.4826
  103OSM   C10S10370   5.671   4.523   6.472 -0.8171  0.2911 -0.3842
  103OSM   H10S10371   5.666   4.631   6.446  1.6525  0.8878  1.3148
  103OSM   H10T10372   5.567   4.483   6.470 -0.1278 -1.6667  0.5916
  103OSM   C11S10373   5.748   4.427   6.390 -0.7402  0.3538 -0.0628
  103OSM   H11S10374   5.730   4.322   6.423  0.5687  0.3444  0.7073
  103OSM   H11T10375   5.858   4.435   6.405 -0.6555 -0.9148  0.1128
  103OSM   C12S10376   5.704   4.422   6.245  0.0980 -0.3532 -0.5962
  103OSM   H12S10377   5.595   4.403   6.246  0.0267 -0.0480  1.5395
  103OSM   H12T10378   5.753   4.330   6.205  0.4497 -0.2495 -0.4167
  103OSM   C13S10379   5.741   4.543   6.171  0.0636  0.3444  0.5222
  103OSM   H13S10380   5.851   4.556   6.180  0.3321 -1.2547 -0.0930
  103OSM   H13T10381   5.697   4.639   6.206 -1.0468 -0.1112  0.4219
  103OSM   C14S10382   5.701   4.531   6.015 -0.4453 -0.4501 -0.7662
  103OSM   H14S10383   5.617   4.600   5.992 -1.5593 -1.5180 -0.0242
  103OSM   H14T10384   5.664   4.427   6.005 -1.7289 -0.3955  2.3849
  103OSM   C15S10385   5.824   4.555   5.923 -0.5031  0.1119 -0.2507
  103OSM   H15S10386   5.917   4.504   5.955  0.3016  3.6087  3.8597
  103OSM   H15T10387   5.855   4.660   5.940 -1.4279  0.7360 -2.0610
  103OSM   C16S10388   5.795   4.538   5.776  0.1801 -0.2401  0.0840
  103OSM   H16S10389   5.717   4.611   5.747 -1.4697 -0.6978  2.9662
  103OSM   H16T10390   5.767   4.433   5.754 -0.1594 -0.1179 -0.0703
  103OSM   C17S10391   5.920   4.576   5.687 -0.4043 -0.1797  0.4835
  103OSM   H17S10392   6.007   4.516   5.721  1.4166  1.7338 -0.5091
  103OSM   H17T10393   5.939   4.684   5.707 -0.7323 -0.2660  1.2693
  103OSM   C18S10394   5.901   4.561   5.531  0.0263 -0.0079 -0.0568
  103OSM   H18S10395   5.933   4.457   5.509 -0.0511 -0.1070  0.2934
  103OSM   H18T10396   5.972   4.621   5.470  0.5681 -0.5418  0.0390
  103OSM   H18U10397   5.797   4.588   5.505  0.5675  1.7533 -0.4978
  103OSM    C1F10398   5.802   4.134   7.338 -0.7750  0.3933  0.5691
  103OSM     OF10399   5.731   4.053   7.389 -0.2065 -0.6257 -0.2353
  103OSM    C2F10400   5.941   4.102   7.293  0.7860 -0.2261  0.1917
  103OSM    H2F10401   5.973   4.012   7.351 -0.3291  0.2107  1.5266
  103OSM    H2G10402   6.004   4.191   7.316  0.6285  0.0406 -0.3869
  103OSM    C3F10403   5.941   4.065   7.148 -0.2615 -0.2853 -0.0696
  103OSM    H3F10404   5.842   4.022   7.119  0.0473 -0.9248 -0.1841
  103OSM    H3G10405   6.012   3.982   7.129  0.2620  0.0814  0.2659
  103OSM    C4F10406   5.963   4.184   7.051 -0.1614 -0.4013 -0.6181
  103OSM    H4F10407   6.052   4.243   7.082  0.9854 -2.7378  0.7816
  103OSM    H4G10408   5.872   4.247   7.063  0.2493  0.0331  0.4137
  103OSM    C5F10409   5.977   4.138   6.902  0.5220  0.6103  0.1796
  103OSM    H5F10410   6.022   4.223   6.847  0.9832  0.3620  0.1610
  103OSM    H5G10411   5.878   4.106   6.863  0.8211  1.5578 -1.4280
  103OSM    C6F10412   6.081   4.015   6.891 -0.2057  0.0056 -0.9616
  103OSM    H6F10413   6.049   3.916   6.932  0.9447  0.1007  0.2405
  103OSM    H6G10414   6.172   4.049   6.944 -0.2730  1.2544 -1.6138
  103OSM    C7F10415   6.120   3.992   6.744  0.3958 -0.0021  0.6464
  103OSM    H7F10416   6.197   3.913   6.753  1.7369  1.2409  0.4845
  103OSM    H7G10417   6.178   4.080   6.708  0.4127  0.3492  1.5038
  103OSM    C8F10418   6.005   3.974   6.643  0.4406  0.1543  0.2583
  103OSM    H8F10419   5.949   4.070   6.637 -1.1024 -0.7070  0.3893
  103OSM    H8G10420   5.932   3.906   6.692 -0.7985  0.1006 -1.5618
  103OSM    C9F10421   6.033   3.917   6.507 -0.3155 -0.0359 -0.3044
  103OSM    H9F10422   6.062   3.810   6.504 -1.5796 -0.4231  0.5704
  103OSM   C10F10423   6.025   3.982   6.395 -0.3509 -0.0093  0.6095
  103OSM   H10F10424   6.053   3.924   6.306  3.5230  0.0510  1.5843
  103OSM   C11F10425   5.979   4.124   6.359  0.3154 -0.3613  0.6670
  103OSM   H11F10426   5.929   4.167   6.449  0.8534  1.2387  0.2257
  103OSM   H11G10427   5.899   4.129   6.281  0.3208 -0.2726  0.6671
  103OSM   C12F10428   6.085   4.229   6.312  0.0558 -0.1072 -0.9367
  103OSM   H12F10429   6.172   4.229   6.381 -0.7341 -0.6584  0.0804
  103OSM   H12G10430   6.044   4.333   6.316  2.5352  0.9209  2.6287
  103OSM   C13F10431   6.137   4.216   6.163  0.5817  0.4070 -0.4501
  103OSM   H13F10432   6.053   4.239   6.094  0.7417  1.2263 -0.3846
  103OSM   H13G10433   6.174   4.112   6.154 -0.5725  0.0869 -1.9337
  103OSM   C14F10434   6.248   4.320   6.146  0.1283  0.2508 -0.2521
  103OSM   H14F10435   6.321   4.296   6.226 -1.0486 -1.3009  0.4096
  103OSM   H14G10436   6.205   4.422   6.158 -2.7042 -0.8820 -0.0012
  103OSM   C15F10437   6.328   4.312   6.019  0.5716  0.6770 -0.2371
  103OSM   H15F10438   6.264   4.303   5.928 -0.6887 -0.2099  0.7045
  103OSM   H15G10439   6.387   4.218   6.027 -1.4363 -0.6005  0.1481
  103OSM   C16F10440   6.416   4.437   6.009  0.1552  0.5853 -0.0703
  103OSM   H16F10441   6.489   4.439   6.092  0.6149  0.2342 -0.4609
  103OSM   H16G10442   6.343   4.520   6.020 -0.9888 -0.5806  1.4947
  103OSM   C17F10443   6.509   4.453   5.889 -0.1667 -0.0048 -0.3003
  103OSM   H17F10444   6.547   4.557   5.891 -1.5203  0.5678  2.7904
  103OSM   H17G10445   6.464   4.454   5.788 -0.1888 -0.9919 -0.3117
  103OSM   C18F10446   6.624   4.356   5.883 -0.3042 -0.6973 -0.3205
  103OSM   H18F10447   6.694   4.372   5.798 -0.6488  0.1176 -0.4636
  103OSM   H18G10448   6.586   4.251   5.883  0.3459 -0.9594 -2.0816
  103OSM   H18H10449   6.679   4.381   5.976 -0.3501 -0.0372 -0.4628
  104OSM      N10450   5.953   4.393   8.032  0.1204 -0.4953  0.0738
  104OSM    C1510451   6.094   4.438   8.047 -0.0687 -0.1289  0.1957
  104OSM   H15A10452   6.097   4.544   8.028  0.4925 -0.5339 -2.3308
  104OSM   H15B10453   6.145   4.385   7.968 -0.6781  0.1951 -0.4316
  104OSM   H15C10454   6.141   4.419   8.142  2.3794  0.7530 -0.7534
  104OSM    C1410455   5.949   4.243   8.045 -0.2378 -0.2843  0.0006
  104OSM   H14A10456   6.012   4.204   7.966 -1.4447 -0.6464 -0.8254
  104OSM   H14B10457   5.852   4.197   8.038 -0.0505 -0.4967 -1.5745
  104OSM   H14C10458   5.997   4.209   8.136  1.7490 -1.4128 -1.3833
  104OSM    C1310459   5.865   4.458   8.133 -0.6539  0.1419 -0.1398
  104OSM   H13A10460   5.768   4.410   8.131 -1.8044  2.0019  3.1551
  104OSM   H13B10461   5.854   4.565   8.120  1.6042  0.5147  0.5595
  104OSM   H13C10462   5.904   4.454   8.234  0.5333  0.3605 -0.5761
  104OSM    C1210463   5.893   4.437   7.896 -0.0236  1.0035  0.1144
  104OSM   H12A10464   5.791   4.404   7.885  0.0595  0.2265  1.4590
  104OSM   H12B10465   5.960   4.406   7.817  0.2489 -1.0151  1.0912
  104OSM    C1110466   5.897   4.586   7.867  0.1692 -0.2305  0.1933
  104OSM   H11A10467   5.826   4.635   7.938  1.5688  0.5122  1.1315
  104OSM   H11B10468   5.840   4.616   7.777 -2.2687 -2.0421  1.0252
  104OSM      P10469   6.111   4.624   7.731 -0.0175  0.1176 -0.5405
  104OSM    O1310470   6.240   4.702   7.743 -0.7167  0.1827  0.6917
  104OSM    O1410471   6.121   4.477   7.703 -0.0690  0.3026 -0.0422
  104OSM    O1110472   6.021   4.692   7.622 -0.0717  0.4576 -0.5079
  104OSM    O1210473   6.027   4.649   7.864  0.6011  0.2029  0.2435
  104OSM    C1S10474   6.067   4.799   7.539  0.1816  0.1374 -0.2518
  104OSM    H1S10475   6.172   4.777   7.509 -0.2585 -1.0687 -0.9784
  104OSM    H1T10476   6.072   4.887   7.607  2.0199 -0.4307  0.4072
  104OSM     NF10477   6.027   4.906   7.317 -0.4638  0.5643  0.6300
  104OSM    HNF10478   6.028   5.006   7.309  2.0732  0.4719 -1.6233
  104OSM    C2S10479   5.966   4.836   7.426  0.6302 -0.2710 -0.3836
  104OSM    H2S10480   5.920   4.742   7.391 -0.9147  0.4094 -0.2834
  104OSM    C3S10481   5.854   4.919   7.487  0.2420  0.3401  0.0931
  104OSM    H3S10482   5.883   5.022   7.517  0.8548  0.0668  0.4572
  104OSM     O310483   5.806   4.862   7.616 -0.6003  0.2077  0.2901
  104OSM    HO310484   5.887   4.811   7.629  2.1004  3.6099 -1.3442
  104OSM    C4S10485   5.739   4.926   7.391  0.4708 -0.6891  0.3425
  104OSM    H4S10486   5.729   5.019   7.335  1.3812 -1.2948 -0.8568
  104OSM    C5S10487   5.638   4.832   7.377 -0.9195 -0.3824 -0.0682
  104OSM    H5S10488   5.630   4.750   7.449 -0.2332 -0.9647 -0.6296
  104OSM    C6S10489   5.512   4.850   7.298  0.5941  0.2005  0.5057
  104OSM    H6S10490   5.443   4.910   7.362  0.9097  3.3044 -1.8007
  104OSM    H6T10491   5.459   4.758   7.269  0.2388  0.2574  0.9601
  104OSM    C7S10492   5.522   4.938   7.169  0.7765  0.6781 -0.3302
  104OSM    H7S10493   5.618   4.915   7.117  0.0565 -0.1695 -1.3137
  104OSM    H7T10494   5.532   5.047   7.191  1.5307 -0.1591  4.6023
  104OSM    C8S10495   5.396   4.902   7.081 -0.5706 -0.0996 -0.3536
  104OSM    H8S10496   5.302   4.927   7.135 -0.2248  0.0331  0.1938
  104OSM    H8T10497   5.401   4.793   7.058 -2.4581  0.1587 -2.3385
  104OSM    C9S10498   5.389   4.973   6.948  0.1471  0.1170  0.6738
  104OSM    H9S10499   5.383   5.081   6.974 -0.2562  0.0894  0.6968
  104OSM    H9T10500   5.287   4.946   6.913  0.7428 -1.2312 -0.1132
  104OSM   C10S10501   5.494   4.944   6.845  0.1074  0.7929  0.0711
  104OSM   H10S10502   5.488   4.836   6.817 -2.6380  0.6495  0.9662
  104OSM   H10T10503   5.588   4.962   6.903 -0.6741 -0.4580  1.8168
  104OSM   C11S10504   5.488   5.033   6.724  0.2972 -0.6889 -0.0063
  104OSM   H11S10505   5.502   5.140   6.751  0.6621 -0.6747 -0.2477
  104OSM   H11T10506   5.387   5.031   6.678 -0.0897  0.7663  0.7178
  104OSM   C12S10507   5.610   4.993   6.638  0.1157  0.5781 -0.0538
  104OSM   H12S10508   5.629   4.884   6.647 -0.9099 -0.0646 -4.0360
  104OSM   H12T10509   5.699   5.054   6.662  1.1562 -1.4421  1.5396
  104OSM   C13S10510   5.579   5.023   6.498  0.4039  0.5498 -0.3538
  104OSM   H13S10511   5.569   5.133   6.482  0.3470  0.8055  1.2916
  104OSM   H13T10512   5.483   4.981   6.462  1.2034 -2.7822  0.9798
  104OSM   C14S10513   5.692   4.976   6.401  0.8419  0.2953  0.6897
  104OSM   H14S10514   5.714   4.868   6.413 -1.3109 -0.2799 -0.0790
  104OSM   H14T10515   5.773   5.045   6.432  0.0860  1.1023  0.9157
  104OSM   C15S10516   5.647   4.993   6.257 -0.0441  0.1031  0.3432
  104OSM   H15S10517   5.611   5.098   6.248 -1.3329 -0.2830  0.7498
  104OSM   H15T10518   5.564   4.918   6.255  3.0832 -4.0145  4.1020
  104OSM   C16S10519   5.747   4.952   6.150  0.6533  0.1321  0.3038
  104OSM   H16S10520   5.790   4.851   6.169  2.3297 -0.0168 -3.3334
  104OSM   H16T10521   5.835   5.017   6.168  1.9754 -1.1084 -1.2904
  104OSM   C17S10522   5.696   4.958   6.003 -0.3177 -0.2707 -0.1439
  104OSM   H17S10523   5.628   5.045   6.014 -1.0658 -0.9923  1.0949
  104OSM   H17T10524   5.632   4.874   5.967  0.5824 -0.8649 -0.4087
  104OSM   C18S10525   5.804   4.985   5.895  0.2237 -0.2555 -0.7017
  104OSM   H18S10526   5.862   4.890   5.890 -0.9200 -1.0884  1.0652
  104OSM   H18T10527   5.871   5.065   5.933  0.7395 -0.3664 -1.3488
  104OSM   H18U10528   5.765   5.025   5.799  0.5242 -0.8717 -1.0865
  104OSM    C1F10529   6.108   4.845   7.236 -0.7881 -0.1275 -0.4639
  104OSM     OF10530   6.135   4.726   7.252 -0.1068  0.4838 -0.3533
  104OSM    C2F10531   6.174   4.925   7.133 -0.6903  0.0818  0.7557
  104OSM    H2F10532   6.280   4.938   7.163  0.0781  0.0358 -1.7203
  104OSM    H2G10533   6.114   5.018   7.126 -1.6503 -0.4972  1.0811
  104OSM    C3F10534   6.168   4.849   6.994 -0.1104  0.1529 -0.2495
  104OSM    H3F10535   6.237   4.762   6.988  0.7109  0.7880 -0.2940
  104OSM    H3G10536   6.209   4.919   6.918 -0.6762 -1.4810 -2.1416
  104OSM    C4F10537   6.025   4.815   6.951  0.4867 -0.1860  0.0741
  104OSM    H4F10538   5.952   4.899   6.957 -1.3622 -1.8071  1.8308
  104OSM    H4G10539   5.981   4.742   7.022 -1.5155  1.2127  0.3586
  104OSM    C5F10540   6.034   4.745   6.812  0.4847 -0.2448 -1.0535
  104OSM    H5F10541   5.926   4.724   6.793  0.6345 -2.4271  0.1826
  104OSM    H5G10542   6.089   4.649   6.815  1.2818  0.2233 -0.3579
  104OSM    C6F10543   6.088   4.830   6.697  0.2023  0.8232  0.2328
  104OSM    H6F10544   6.196   4.856   6.700  0.5741 -0.3067 -1.8454
  104OSM    H6G10545   6.034   4.927   6.691  0.2552  0.8539  0.2444
  104OSM    C7F10546   6.053   4.769   6.563 -0.1889 -0.6251 -0.0271
  104OSM    H7F10547   5.942   4.759   6.556 -0.7763  3.8455  0.1065
  104OSM    H7G10548   6.093   4.665   6.559  1.5059 -0.0200  0.4083
  104OSM    C8F10549   6.104   4.857   6.439 -0.2814  0.2332  1.5528
  104OSM    H8F10550   6.215   4.854   6.431 -0.2986 -1.6184  1.5551
  104OSM    H8G10551   6.072   4.962   6.453 -2.0901 -0.3376  2.0737
  104OSM    C9F10552   6.056   4.791   6.310  0.0261  0.4733 -0.2923
  104OSM    H9F10553   5.967   4.727   6.324  0.3888 -0.2566 -1.2150
  104OSM   C10F10554   6.105   4.806   6.188  0.0234  0.2265 -0.2502
  104OSM   H10F10555   6.061   4.746   6.107 -0.0594  0.6912 -0.5589
  104OSM   C11F10556   6.223   4.883   6.142  0.1163  0.3356 -0.4948
  104OSM   H11F10557   6.311   4.815   6.144 -0.0343  0.1393  1.5522
  104OSM   H11G10558   6.254   4.958   6.217  1.7422 -1.1457  0.3942
  104OSM   C12F10559   6.208   4.938   6.005 -0.1694  0.0289  0.8000
  104OSM   H12F10560   6.289   5.013   5.988 -1.6945  1.3327 -1.3160
  104OSM   H12G10561   6.119   5.004   5.998 -1.8959 -2.2854 -0.8111
  104OSM   C13F10562   6.216   4.841   5.879 -0.9238 -0.6025 -0.0266
  104OSM   H13F10563   6.121   4.786   5.892 -0.1321 -2.0657 -0.2656
  104OSM   H13G10564   6.301   4.769   5.888 -1.6616 -1.5839 -0.7418
  104OSM   C14F10565   6.230   4.916   5.746  0.5370 -0.5206 -0.1913
  104OSM   H14F10566   6.251   4.834   5.675 -2.3823 -1.5368 -0.0100
  104OSM   H14G10567   6.317   4.984   5.737 -0.0410  0.0625 -1.8685
  104OSM   C15F10568   6.098   4.982   5.694 -0.9344 -0.5825  0.5880
  104OSM   H15F10569   6.059   5.049   5.774 -1.9665  0.6669 -0.9130
  104OSM   H15G10570   6.027   4.898   5.703  1.2438 -2.4276  1.4908
  104OSM   C16F10571   6.110   5.026   5.550  0.0168 -0.6444  0.1061
  104OSM   H16F10572   6.153   4.943   5.490  1.9637  1.0473 -0.9634
  104OSM   H16G10573   6.183   5.108   5.533 -0.9959  0.6591  1.7270
  104OSM   C17F10574   5.974   5.061   5.501  1.1679  0.7959  0.5695
  104OSM   H17F10575   5.932   5.147   5.559 -1.7313  1.3823 -2.1114
  104OSM   H17G10576   5.904   4.976   5.514  1.9677 -0.0457 -0.4666
  104OSM   C18F10577   5.951   5.083   5.353 -1.4100  0.7982 -0.7409
  104OSM   H18F10578   5.978   4.995   5.291  0.2485  1.1997 -0.6473
  104OSM   H18G10579   6.025   5.159   5.322 -0.1772  0.3535  0.9503
  104OSM   H18H10580   5.856   5.129   5.319 -1.3154  1.3892 -0.2212
  105OSM      N10581   1.385   4.011   7.590  0.6463  0.1149 -0.7747
  105OSM    C1510582   1.475   4.113   7.657  0.4579  0.1913  0.0520
  105OSM   H15A10583   1.568   4.063   7.682  0.3528 -0.2014 -0.3276
  105OSM   H15B10584   1.435   4.147   7.752  1.8330  2.6277 -0.1725
  105OSM   H15C10585   1.487   4.194   7.587 -0.5375 -0.3767 -0.7943
  105OSM    C1410586   1.465   3.942   7.487 -0.3374  0.0075 -0.1328
  105OSM   H14A10587   1.508   4.010   7.415  0.1605  0.1154  0.2594
  105OSM   H14B10588   1.413   3.878   7.418  1.6364  0.1483 -1.8375
  105OSM   H14C10589   1.541   3.881   7.534 -0.8005 -1.2625 -0.9983
  105OSM    C1310590   1.348   3.908   7.691  0.1253  0.3473  0.5175
  105OSM   H13A10591   1.426   3.855   7.743 -0.0619  2.1026  2.8022
  105OSM   H13B10592   1.291   3.833   7.640  3.9024 -1.9045 -0.7686
  105OSM   H13C10593   1.286   3.949   7.771 -0.7235 -0.3724  0.2446
  105OSM    C1210594   1.259   4.072   7.526 -0.1410  0.1066  0.5347
  105OSM   H12A10595   1.211   4.135   7.599  0.2894  0.7513  0.2741
  105OSM   H12B10596   1.192   3.996   7.488  0.8765 -0.8720  0.6343
  105OSM    C1110597   1.284   4.165   7.404 -0.4817 -0.3144 -0.8673
  105OSM   H11A10598   1.180   4.187   7.370 -1.3996  0.6473  2.2710
  105OSM   H11B10599   1.331   4.103   7.324 -0.1786 -2.2498  0.7586
  105OSM      P10600   1.297   4.415   7.490 -0.0241 -0.4467  0.1750
  105OSM    O1310601   1.234   4.395   7.618 -0.0897  0.6057 -0.2994
  105OSM    O1410602   1.411   4.515   7.487  0.5054  0.4916 -0.5379
  105OSM    O1110603   1.189   4.457   7.390 -0.1656  0.4753  0.0467
  105OSM    O1210604   1.359   4.285   7.432  0.0522 -0.2805  0.1022
  105OSM    C1S10605   1.201   4.463   7.248 -0.5101  0.0375  0.7743
  105OSM    H1S10606   1.156   4.373   7.201  0.6258 -0.2320  0.1637
  105OSM    H1T10607   1.306   4.458   7.210 -0.6042 -1.7170  0.6969
  105OSM     NF10608   1.157   4.607   7.052  1.2329  0.1388 -0.4867
  105OSM    HNF10609   1.234   4.662   7.022  0.5246  1.6434  0.3358
  105OSM    C2S10610   1.144   4.599   7.200  0.4066  0.4409 -0.5455
  105OSM    H2S10611   1.033   4.599   7.210  0.5157  0.4370  0.8815
  105OSM    C3S10612   1.189   4.729   7.277  0.0923 -0.6841  0.0553
  105OSM    H3S10613   1.292   4.744   7.238  0.0321 -2.6205 -0.9646
  105OSM     O310614   1.201   4.728   7.417  0.1723 -0.1485 -0.6317
  105OSM    HO310615   1.166   4.643   7.445  1.7018 -1.1488 -1.5853
  105OSM    C4S10616   1.095   4.832   7.226 -0.7166 -0.0057  0.0857
  105OSM    H4S10617   1.009   4.848   7.293 -1.4000  3.6307 -1.3852
  105OSM    C5S10618   1.128   4.939   7.147 -0.3886  0.0800  0.4715
  105OSM    H5S10619   1.232   4.953   7.113 -0.8076  0.1349 -0.8430
  105OSM    C6S10620   1.030   5.043   7.106  1.1388  0.1600  0.3860
  105OSM    H6S10621   1.088   5.134   7.079  0.7303  0.2074 -0.3572
  105OSM    H6T10622   0.962   5.073   7.189 -0.6596 -1.1823 -0.5443
  105OSM    C7S10623   0.943   5.005   6.986  0.0543 -0.6211 -0.3133
  105OSM    H7S10624   0.884   5.092   6.950  0.7079  0.7372  1.7400
  105OSM    H7T10625   0.855   4.945   7.019  0.6321 -0.6623  1.2149
  105OSM    C8S10626   1.020   4.945   6.866 -0.0259 -0.3061  0.0196
  105OSM    H8S10627   1.093   4.866   6.890 -0.5213 -1.0973 -0.9725
  105OSM    H8T10628   1.083   5.028   6.828  0.7998 -0.5312  0.8649
  105OSM    C9S10629   0.928   4.896   6.756  0.0185  0.2261 -0.0986
  105OSM    H9S10630   0.852   4.976   6.742 -0.0821  0.1845  0.1805
  105OSM    H9T10631   0.866   4.806   6.778  0.6009 -0.7025 -2.0812
  105OSM   C10S10632   0.992   4.863   6.621 -1.3334 -0.4162 -0.4213
  105OSM   H10S10633   1.084   4.800   6.621  0.1168  1.5866 -0.0397
  105OSM   H10T10634   1.034   4.963   6.596  0.4426 -0.4847  1.8654
  105OSM   C11S10635   0.904   4.813   6.513 -0.2104  0.1693 -0.3169
  105OSM   H11S10636   0.835   4.896   6.489 -2.0954 -1.2562 -0.0804
  105OSM   H11T10637   0.836   4.730   6.543 -0.1282  0.1697 -0.1271
  105OSM   C12S10638   0.966   4.781   6.378  0.0247 -0.4027  0.7772
  105OSM   H12S10639   1.035   4.695   6.392 -0.9919 -1.2254  0.8413
  105OSM   H12T10640   1.036   4.858   6.340  0.9602 -1.8460 -0.5300
  105OSM   C13S10641   0.866   4.746   6.270 -0.9521  0.9967 -0.1183
  105OSM   H13S10642   0.792   4.829   6.263 -1.5341  0.6769  1.7779
  105OSM   H13T10643   0.814   4.654   6.304 -2.4207  2.3200  1.3914
  105OSM   C14S10644   0.927   4.731   6.134 -0.0046  0.0210  0.0829
  105OSM   H14S10645   0.994   4.643   6.125  1.2654  0.9039  0.6965
  105OSM   H14T10646   0.999   4.814   6.117 -1.1572  0.6675 -2.0931
  105OSM   C15S10647   0.817   4.717   6.025 -0.0685  0.2201  0.4173
  105OSM   H15S10648   0.738   4.794   6.040 -1.1534 -0.0848 -2.9269
  105OSM   H15T10649   0.765   4.621   6.044 -0.3678 -0.0739 -1.6782
  105OSM   C16S10650   0.880   4.713   5.876 -0.2907 -0.2580  0.0936
  105OSM   H16S10651   0.971   4.649   5.878 -1.2887 -1.7135  0.3625
  105OSM   H16T10652   0.905   4.812   5.833 -2.3018 -0.2621 -1.2294
  105OSM   C17S10653   0.779   4.663   5.774 -0.0513  0.2302  0.4488
  105OSM   H17S10654   0.689   4.729   5.770  1.0116  1.6828 -1.6319
  105OSM   H17T10655   0.741   4.564   5.807 -1.6087 -0.2455 -2.4451
  105OSM   C18S10656   0.828   4.641   5.629 -0.5789  0.4413 -0.3729
  105OSM   H18S10657   0.744   4.625   5.558  0.3533 -3.3461 -0.8319
  105OSM   H18T10658   0.891   4.550   5.635 -0.1821  0.8202  2.2327
  105OSM   H18U10659   0.894   4.725   5.598 -0.7636 -0.0394 -2.1898
  105OSM    C1F10660   1.100   4.523   6.967 -0.6126 -0.1192 -0.0682
  105OSM     OF10661   1.009   4.450   7.004  0.4462  0.5231  0.4342
  105OSM    C2F10662   1.165   4.531   6.828  0.0869 -0.1320 -0.0877
  105OSM    H2F10663   1.259   4.471   6.822  0.8093  0.9243  0.3536
  105OSM    H2G10664   1.203   4.631   6.798 -0.2869  0.0901  0.1744
  105OSM    C3F10665   1.066   4.501   6.714  0.4729  0.8239 -0.1789
  105OSM    H3F10666   0.999   4.587   6.689 -0.7503 -0.1663 -0.3910
  105OSM    H3G10667   0.991   4.424   6.740  0.1625  0.9954 -0.5623
  105OSM    C4F10668   1.134   4.457   6.583  0.5709  0.2586  0.3490
  105OSM    H4F10669   1.174   4.360   6.620  0.6276  0.7909  1.7593
  105OSM    H4G10670   1.214   4.530   6.559 -0.2873  1.6834  1.6374
  105OSM    C5F10671   1.033   4.425   6.466  0.9880 -0.1692 -0.0600
  105OSM    H5F10672   0.958   4.507   6.459 -0.0483 -1.0615  0.3609
  105OSM    H5G10673   0.984   4.326   6.481  1.0286 -0.1582  0.1465
  105OSM    C6F10674   1.094   4.406   6.322 -0.1110  0.3145 -0.2398
  105OSM    H6F10675   1.165   4.320   6.331 -0.3339  0.1722  0.2315
  105OSM    H6G10676   1.130   4.502   6.281  0.2188 -1.0368 -3.3811
  105OSM    C7F10677   0.982   4.369   6.217  0.0487 -0.4880  0.2218
  105OSM    H7F10678   0.909   4.448   6.188 -0.0749 -1.0163 -0.9989
  105OSM    H7G10679   0.920   4.293   6.269 -1.1122  0.8127  0.8069
  105OSM    C8F10680   1.046   4.336   6.080  0.4738  0.0333  0.2396
  105OSM    H8F10681   1.113   4.421   6.055 -1.5481  1.4711 -0.5054
  105OSM    H8G10682   0.961   4.337   6.009  0.0948 -0.7672  0.6685
  105OSM    C9F10683   1.119   4.196   6.088 -0.2572  0.2322  0.2529
  105OSM    H9F10684   1.159   4.167   6.186 -1.8711 -4.2277 -0.1684
  105OSM   C10F10685   1.103   4.090   5.998 -0.0191 -0.6624 -0.1936
  105OSM   H10F10686   1.170   4.003   6.014 -0.0833 -0.5853  0.5424
  105OSM   C11F10687   1.042   4.106   5.863  0.9638 -1.1309  0.6466
  105OSM   H11F10688   1.120   4.137   5.789  1.4619  0.8747  1.9140
  105OSM   H11G10689   0.981   4.199   5.852 -0.5912 -2.1803  0.1298
  105OSM   C12F10690   0.955   3.991   5.821 -0.1163 -0.3513  0.0223
  105OSM   H12F10691   0.887   3.959   5.904  0.0444 -0.8585 -0.0351
  105OSM   H12G10692   1.005   3.899   5.784 -0.2370 -0.5918  0.4422
  105OSM   C13F10693   0.869   4.037   5.704 -0.3168 -0.0817  0.1668
  105OSM   H13F10694   0.834   4.139   5.730  0.8251  0.3111  0.2330
  105OSM   H13G10695   0.785   3.966   5.693  1.5246 -2.0486 -2.2709
  105OSM   C14F10696   0.956   4.058   5.569  0.5947  0.9257 -0.5553
  105OSM   H14F10697   1.010   3.961   5.559 -0.3052  0.4519 -0.9323
  105OSM   H14G10698   1.038   4.131   5.587  3.2489 -2.1973  1.1504
  105OSM   C15F10699   0.876   4.078   5.442  0.1326  0.2368  0.3202
  105OSM   H15F10700   0.806   4.164   5.454 -0.8207 -0.5285  0.4353
  105OSM   H15G10701   0.804   3.993   5.442 -2.7335  2.4904  1.2238
  105OSM   C16F10702   0.955   4.100   5.314 -0.0522  0.8661  0.2042
  105OSM   H16F10703   1.005   4.199   5.320 -0.3689  1.1813 -1.6631
  105OSM   H16G10704   0.883   4.099   5.230  0.9530  2.4421 -0.7254
  105OSM   C17F10705   1.062   3.982   5.297 -0.0709  0.1934  0.7325
  105OSM   H17F10706   1.015   3.881   5.290 -1.6081  0.8504  1.0496
  105OSM   H17G10707   1.140   3.992   5.375  0.9413  0.6778 -0.3276
  105OSM   C18F10708   1.141   3.993   5.163  0.1022  0.6722 -0.2750
  105OSM   H18F10709   1.221   3.916   5.169 -1.2609 -0.6944  2.9892
  105OSM   H18G10710   1.180   4.096   5.151 -0.6658  1.4211  2.7251
  105OSM   H18H10711   1.078   3.959   5.078  1.3238  0.7400 -1.2182
  106OSM      N10712   3.280   2.976   7.857  0.2636 -0.6070 -0.0580
  106OSM    C1510713   3.346   3.112   7.846  0.9853  0.7729  0.0213
  106OSM   H15A10714   3.415   3.133   7.927  1.8054  4.4357 -1.4502
  106OSM   H15B10715   3.273   3.190   7.830  0.6369  0.2938 -0.8326
  106OSM   H15C10716   3.402   3.122   7.754  1.8656  3.2083  0.7631
  106OSM    C1410717   3.378   2.877   7.897  0.6199 -0.1614 -0.8006
  106OSM   H14A10718   3.418   2.891   7.997 -0.9831  0.0285 -0.1517
  106OSM   H14B10719   3.454   2.881   7.821  0.9626  1.3524 -0.4280
  106OSM   H14C10720   3.344   2.775   7.893 -1.4250  0.4370 -0.0545
  106OSM    C1310721   3.176   2.982   7.971 -0.1149 -0.6777 -0.1370
  106OSM   H13A10722   3.107   3.065   7.964  0.6019 -0.1862 -1.8978
  106OSM   H13B10723   3.218   2.979   8.070  1.3988  2.6018 -0.5481
  106OSM   H13C10724   3.118   2.891   7.966 -1.6096  0.2496 -0.3815
  106OSM    C1210725   3.224   2.944   7.725  1.4460 -0.4265  0.7881
  106OSM   H12A10726   3.293   2.964   7.645  1.3371  0.3198  0.8789
  106OSM   H12B10727   3.142   3.013   7.708  1.4761 -0.5195  0.2610
  106OSM    C1110728   3.186   2.794   7.691  0.3075 -0.2790 -0.1131
  106OSM   H11A10729   3.277   2.731   7.690 -0.6303 -1.8823 -3.7904
  106OSM   H11B10730   3.136   2.784   7.592 -2.2679 -0.5630  1.1135
  106OSM      P10731   2.933   2.753   7.780  0.1295 -0.0348  0.3395
  106OSM    O1310732   2.867   2.667   7.887 -0.1819 -0.3858  0.4456
  106OSM    O1410733   2.906   2.900   7.782 -0.3042 -0.5647  0.0228
  106OSM    O1110734   2.872   2.706   7.645 -0.1960 -0.1891 -0.2061
  106OSM    O1210735   3.091   2.733   7.780  0.1986  0.8245  0.2745
  106OSM    C1S10736   2.918   2.589   7.580 -0.3250  0.1792  0.7221
  106OSM    H1S10737   2.871   2.499   7.625  0.2212 -0.3515  0.2525
  106OSM    H1T10738   3.027   2.570   7.573 -0.3892 -1.1825  2.5222
  106OSM     NF10739   2.889   2.456   7.364  0.0075 -0.0784  0.0027
  106OSM    HNF10740   2.964   2.436   7.301  0.2426  1.7340 -0.3655
  106OSM    C2S10741   2.883   2.593   7.428 -0.4502  0.0690  0.1190
  106OSM    H2S10742   2.782   2.636   7.413  0.1653  2.4517  2.1204
  106OSM    C3S10743   2.957   2.711   7.359  0.2271 -0.3414 -0.0544
  106OSM    H3S10744   3.066   2.695   7.367  0.8982  1.4010 -3.7095
  106OSM     O310745   2.948   2.835   7.421 -0.4719 -0.7846 -0.1564
  106OSM    HO310746   2.903   2.820   7.505 -0.4351  1.6697  0.3678
  106OSM    C4S10747   2.925   2.713   7.215 -0.1398 -0.3413  0.1233
  106OSM    H4S10748   3.014   2.678   7.159  1.2019  1.8440  0.7852
  106OSM    C5S10749   2.832   2.779   7.149  0.1948  0.1277 -0.5674
  106OSM    H5S10750   2.759   2.849   7.192  1.8110  2.0019 -0.7608
  106OSM    C6S10751   2.846   2.788   6.999 -0.2301 -0.6005  0.4674
  106OSM    H6S10752   2.768   2.856   6.959 -1.1967 -1.4595  0.8672
  106OSM    H6T10753   2.831   2.687   6.956 -0.0784 -0.4100 -0.0381
  106OSM    C7S10754   2.982   2.849   6.959 -0.2972  0.2961 -0.3559
  106OSM    H7S10755   3.069   2.806   7.012 -1.1183 -0.2905  0.5507
  106OSM    H7T10756   2.975   2.953   6.999 -1.9219  1.3253 -3.0377
  106OSM    C8S10757   3.021   2.854   6.804 -0.1640 -0.4456  0.1825
  106OSM    H8S10758   3.085   2.942   6.785 -0.3554 -0.1133  1.0252
  106OSM    H8T10759   2.925   2.873   6.752 -1.1277 -2.1922  1.2274
  106OSM    C9S10760   3.090   2.724   6.756 -0.2570 -0.6373  0.1671
  106OSM    H9S10761   3.046   2.632   6.800  1.0675 -1.0857  0.6045
  106OSM    H9T10762   3.198   2.716   6.783 -0.0050  2.5378  0.4922
  106OSM   C10S10763   3.084   2.698   6.607  0.7497 -0.3047 -0.1194
  106OSM   H10S10764   3.099   2.590   6.585  1.0942 -0.8447  2.4580
  106OSM   H10T10765   3.175   2.749   6.568  0.1989  0.9117  0.1386
  106OSM   C11S10766   2.954   2.746   6.534 -1.0601 -0.1745  0.3615
  106OSM   H11S10767   2.933   2.854   6.552 -1.1787 -0.3405  1.2747
  106OSM   H11T10768   2.871   2.684   6.574  0.3886 -2.0324  0.5922
  106OSM   C12S10769   2.971   2.738   6.385  0.2363 -0.3492 -0.0334
  106OSM   H12S10770   3.044   2.812   6.348  0.9580 -0.4998  1.0289
  106OSM   H12T10771   2.879   2.766   6.330  0.7495 -1.7744 -1.7027
  106OSM   C13S10772   3.005   2.599   6.337 -0.8370  0.2476  0.6374
  106OSM   H13S10773   2.958   2.528   6.408 -3.5759  1.8636  0.5731
  106OSM   H13T10774   3.116   2.584   6.338 -0.8508  0.1275  0.5048
  106OSM   C14S10775   2.956   2.562   6.193 -0.4020  0.1769  0.1461
  106OSM   H14S10776   2.852   2.599   6.183 -0.5962 -0.7256 -1.2975
  106OSM   H14T10777   2.965   2.453   6.174  3.8303  0.0953  1.4028
  106OSM   C15S10778   3.039   2.637   6.090 -0.0493 -0.3136  0.3208
  106OSM   H15S10779   3.138   2.586   6.089 -0.9235 -2.0879  0.1770
  106OSM   H15T10780   3.046   2.743   6.123  0.1663 -0.4421  0.7041
  106OSM   C16S10781   2.990   2.630   5.946  0.1646 -0.5115  0.3874
  106OSM   H16S10782   2.881   2.652   5.953  0.5414  1.1073  1.8833
  106OSM   H16T10783   2.995   2.523   5.915 -0.5309 -0.4942  0.1882
  106OSM   C17S10784   3.058   2.732   5.865  0.7516 -0.7471 -0.7684
  106OSM   H17S10785   3.169   2.728   5.856  0.6537 -0.7406 -2.1581
  106OSM   H17T10786   3.029   2.830   5.910 -0.2040 -1.6695  0.6768
  106OSM   C18S10787   3.006   2.723   5.719 -0.0868 -0.0554  0.2423
  106OSM   H18S10788   3.058   2.796   5.654 -0.1641  0.6102  0.9029
  106OSM   H18T10789   2.899   2.748   5.706 -0.3827 -1.4168 -0.1052
  106OSM   H18U10790   3.023   2.621   5.679  1.2364  0.0782  0.4097
  106OSM    C1F10791   2.809   2.353   7.388  0.6887 -0.2464  0.8661
  106OSM     OF10792   2.723   2.364   7.474 -0.1886  0.0732 -0.1748
  106OSM    C2F10793   2.839   2.237   7.300 -0.1389  0.4234  0.2689
  106OSM    H2F10794   2.802   2.145   7.350  1.2178  0.5438  1.5737
  106OSM    H2G10795   2.947   2.231   7.274  0.1615 -0.7053  1.6162
  106OSM    C3F10796   2.763   2.252   7.169  0.4758 -0.9432  0.4230
  106OSM    H3F10797   2.787   2.336   7.101 -0.5514  0.4739  1.7334
  106OSM    H3G10798   2.656   2.271   7.192  0.5745  0.2334 -0.0192
  106OSM    C4F10799   2.758   2.122   7.087  0.2926 -0.4190  0.1354
  106OSM    H4F10800   2.753   2.042   7.164 -0.5131 -1.5495 -1.0609
  106OSM    H4G10801   2.858   2.114   7.039  0.3701  1.1937 -0.0438
  106OSM    C5F10802   2.646   2.110   6.985 -0.3236 -0.6867 -0.0575
  106OSM    H5F10803   2.633   2.196   6.917  0.0095  1.6042  2.5872
  106OSM    H5G10804   2.549   2.096   7.038 -0.4504  2.6447  0.8132
  106OSM    C6F10805   2.688   1.990   6.890  0.1585 -0.4772 -1.0215
  106OSM    H6F10806   2.590   1.947   6.859 -0.8434  1.1637 -0.2417
  106OSM    H6G10807   2.737   1.913   6.953  1.3445  1.2094  0.2090
  106OSM    C7F10808   2.791   2.029   6.779  0.4106  0.1907 -0.6047
  106OSM    H7F10809   2.862   2.105   6.816  3.1802 -1.5189 -2.1075
  106OSM    H7G10810   2.735   2.087   6.702  0.3408  1.8485  0.6340
  106OSM    C8F10811   2.867   1.908   6.743 -1.2191  0.3655 -0.5739
  106OSM    H8F10812   2.906   1.863   6.837  0.8135  0.1672 -1.4775
  106OSM    H8G10813   2.944   1.934   6.668 -1.7267  1.9020 -0.6012
  106OSM    C9F10814   2.782   1.807   6.680  0.3211  0.6687  0.4267
  106OSM    H9F10815   2.678   1.799   6.714  0.8585 -0.9637  1.8497
  106OSM   C10F10816   2.821   1.724   6.580 -0.0894 -0.1010 -0.1153
  106OSM   H10F10817   2.746   1.652   6.545 -0.4290 -0.0978  0.5776
  106OSM   C11F10818   2.955   1.722   6.511 -0.0918  0.1030 -0.0076
  106OSM   H11F10819   3.020   1.797   6.561  1.6935 -1.4625  0.1113
  106OSM   H11G10820   2.940   1.756   6.407 -2.4774 -1.4751 -0.2534
  106OSM   C12F10821   3.015   1.578   6.518 -0.6993  0.8310 -0.2437
  106OSM   H12F10822   2.946   1.517   6.456  0.0016 -1.9504  1.5307
  106OSM   H12G10823   3.009   1.542   6.623 -0.3414  1.0051 -0.1629
  106OSM   C13F10824   3.161   1.578   6.473  0.2691  0.2866  0.6438
  106OSM   H13F10825   3.200   1.478   6.502 -0.4176 -0.2307 -0.1889
  106OSM   H13G10826   3.233   1.648   6.522  1.1210 -1.6730  2.3462
  106OSM   C14F10827   3.183   1.593   6.319  0.5099 -0.2845  0.5469
  106OSM   H14F10828   3.249   1.679   6.292  0.2077 -1.4326 -5.1116
  106OSM   H14G10829   3.087   1.622   6.272  1.0591 -0.9149 -1.0276
  106OSM   C15F10830   3.233   1.470   6.238 -0.1080 -0.5305 -0.0155
  106OSM   H15F10831   3.332   1.439   6.277  1.2304  1.7152 -1.4552
  106OSM   H15G10832   3.246   1.488   6.129 -1.0426 -0.5612 -0.1397
  106OSM   C16F10833   3.137   1.360   6.237 -0.0418 -0.0157  0.1139
  106OSM   H16F10834   3.052   1.395   6.174  0.5449  0.7172 -0.2840
  106OSM   H16G10835   3.089   1.345   6.336  1.0526  1.7737  0.9620
  106OSM   C17F10836   3.189   1.229   6.184 -1.1255  0.3644  0.1045
  106OSM   H17F10837   3.258   1.259   6.102  2.1031 -2.0040  1.6845
  106OSM   H17G10838   3.114   1.158   6.143  0.5366 -1.1457 -0.4724
  106OSM   C18F10839   3.259   1.150   6.293 -0.3813 -0.0683 -0.0397
  106OSM   H18F10840   3.186   1.115   6.370 -1.6585  1.3984 -0.5337
  106OSM   H18G10841   3.340   1.209   6.341 -1.0116  0.1728  0.7580
  106OSM   H18H10842   3.313   1.057   6.266  1.0426  0.3546  1.2064
  107OSM      N10843   4.568   6.548   7.536  0.0373 -0.5850  0.0402
  107OSM    C1510844   4.498   6.628   7.637  0.3678 -0.8526 -0.4342
  107OSM   H15A10845   4.519   6.734   7.642  2.7545 -1.3289  2.3904
  107OSM   H15B10846   4.506   6.583   7.734  1.3332 -1.3118 -0.7099
  107OSM   H15C10847   4.394   6.621   7.608  0.1645  0.6825 -0.1549
  107OSM    C1410848   4.715   6.549   7.566  0.4659 -0.4778  0.0282
  107OSM   H14A10849   4.763   6.487   7.492  0.9475 -1.6028  1.2307
  107OSM   H14B10850   4.732   6.508   7.665  0.5752 -0.2365  0.1106
  107OSM   H14C10851   4.750   6.651   7.564 -0.9434  0.0379  0.1872
  107OSM    C1310852   4.525   6.406   7.566 -0.2508  0.6295 -0.5178
  107OSM   H13A10853   4.431   6.390   7.516 -0.1751 -0.2200 -0.4039
  107OSM   H13B10854   4.508   6.394   7.672  1.4286  0.7138 -0.2054
  107OSM   H13C10855   4.583   6.323   7.529 -2.0426 -1.2178  0.5709
  107OSM    C1210856   4.532   6.599   7.399  0.2543 -0.3205 -0.1904
  107OSM   H12A10857   4.425   6.599   7.386  0.2527  0.4271 -0.2375
  107OSM   H12B10858   4.598   6.541   7.337  2.3502  0.2150  1.3917
  107OSM    C1110859   4.577   6.750   7.369 -0.7993  0.3321 -0.7741
  107OSM   H11A10860   4.509   6.822   7.419 -0.6734 -1.7278  2.7596
  107OSM   H11B10861   4.545   6.763   7.264  0.2102  2.3436 -0.8706
  107OSM      P10862   4.825   6.722   7.290 -0.3330 -0.1279 -0.2904
  107OSM    O1310863   4.961   6.743   7.340  0.5506 -0.8031 -0.2989
  107OSM    O1410864   4.798   6.582   7.253  0.1671 -0.2355  0.6298
  107OSM    O1110865   4.795   6.811   7.163 -0.8633  0.4310 -0.2929
  107OSM    O1210866   4.719   6.774   7.386  0.1708  0.1046 -0.6596
  107OSM    C1S10867   4.807   6.952   7.175  0.0899  0.0064  0.2860
  107OSM    H1S10868   4.883   6.989   7.247  0.2060  0.2199  0.0599
  107OSM    H1T10869   4.705   6.983   7.207 -1.2187 -1.8486 -1.7840
  107OSM     NF10870   4.860   7.163   7.054  0.0684 -0.2261  0.0088
  107OSM    HNF10871   4.791   7.231   7.033  0.6139 -0.0169 -1.2033
  107OSM    C2S10872   4.822   7.026   7.037 -0.7520  0.4500  0.5102
  107OSM    H2S10873   4.899   6.978   6.973  0.5743  0.4626  2.0214
  107OSM    C3S10874   4.685   7.006   6.972  0.7375  0.1232 -0.2237
  107OSM    H3S10875   4.625   7.078   7.031  0.9936  1.5950 -1.6742
  107OSM     O310876   4.616   6.885   6.994  0.6704  0.4267 -0.4094
  107OSM    HO310877   4.672   6.829   7.047  1.5825  1.4031 -0.3155
  107OSM    C4S10878   4.671   7.057   6.832 -0.2195 -0.9939 -0.5475
  107OSM    H4S10879   4.635   7.161   6.829 -0.0232 -0.7426  2.4546
  107OSM    C5S10880   4.673   6.986   6.723  0.0601  0.1395  0.4626
  107OSM    H5S10881   4.709   6.882   6.715  0.3747  0.3413 -1.0658
  107OSM    C6S10882   4.641   7.030   6.584  0.0489  0.4904 -0.1503
  107OSM    H6S10883   4.592   6.936   6.550 -1.4401  1.2764 -0.2500
  107OSM    H6T10884   4.735   7.029   6.525  1.1302 -0.7897  1.5169
  107OSM    C7S10885   4.565   7.155   6.561  0.2565 -0.4701  0.2182
  107OSM    H7S10886   4.603   7.257   6.583 -2.0291  0.9891 -2.0328
  107OSM    H7T10887   4.461   7.143   6.598  0.4705 -0.5249  0.8038
  107OSM    C8S10888   4.535   7.156   6.406 -0.3031  0.0909 -0.3950
  107OSM    H8S10889   4.444   7.214   6.381 -0.4701 -0.0246 -0.0741
  107OSM    H8T10890   4.521   7.048   6.382 -0.4191  0.0505 -0.1523
  107OSM    C9S10891   4.649   7.217   6.317 -0.0831 -0.7005 -0.2986
  107OSM    H9S10892   4.749   7.185   6.352  0.1166  1.2052  1.0351
  107OSM    H9T10893   4.643   7.328   6.318 -2.5921 -0.7599 -1.1103
  107OSM   C10S10894   4.630   7.186   6.171  0.2929 -0.4558  0.1397
  107OSM   H10S10895   4.540   7.245   6.145 -0.9581 -1.0751  2.7840
  107OSM   H10T10896   4.623   7.075   6.159  0.2073 -0.9242  3.5635
  107OSM   C11S10897   4.746   7.244   6.083  0.6821  0.0714 -0.1530
  107OSM   H11S10898   4.843   7.213   6.129  0.8035 -0.1673 -0.5674
  107OSM   H11T10899   4.743   7.353   6.102 -0.0753  0.0132  0.1084
  107OSM   C12S10900   4.733   7.207   5.940 -0.6799 -0.1607  0.2399
  107OSM   H12S10901   4.644   7.255   5.895  0.4391  0.1715 -1.7623
  107OSM   H12T10902   4.731   7.096   5.936  2.1096 -0.2412 -1.2091
  107OSM   C13S10903   4.859   7.255   5.860  0.4592  0.1097  0.1427
  107OSM   H13S10904   4.948   7.192   5.878  1.3767  1.0495 -0.9304
  107OSM   H13T10905   4.867   7.358   5.899 -1.2799 -0.6946  2.9005
  107OSM   C14S10906   4.834   7.273   5.714 -0.0496 -0.2778  0.7685
  107OSM   H14S10907   4.779   7.367   5.692  1.0788  0.4502  0.9599
  107OSM   H14T10908   4.775   7.190   5.670  1.2041 -0.7447 -0.0986
  107OSM   C15S10909   4.960   7.284   5.626 -0.2782 -0.4456  0.6712
  107OSM   H15S10910   4.935   7.287   5.518  0.7844  1.5295  0.4265
  107OSM   H15T10911   5.014   7.188   5.641 -1.6939 -1.3367  0.1526
  107OSM   C16S10912   5.064   7.400   5.645  0.4878 -0.2560  0.3564
  107OSM   H16S10913   5.109   7.400   5.746  1.5647 -0.9960 -0.0980
  107OSM   H16T10914   5.007   7.495   5.639 -0.4589 -0.8748 -1.2842
  107OSM   C17S10915   5.179   7.411   5.540  0.5058 -0.5093 -0.3768
  107OSM   H17S10916   5.253   7.484   5.579 -0.7873  0.2016  0.8299
  107OSM   H17T10917   5.133   7.457   5.450 -2.2119  1.8716  2.0058
  107OSM   C18S10918   5.262   7.288   5.503 -0.1979  0.0987  0.1212
  107OSM   H18S10919   5.344   7.303   5.429 -2.1765  2.5280 -1.7535
  107OSM   H18T10920   5.195   7.205   5.472 -1.1469 -0.3210  3.0260
  107OSM   H18U10921   5.315   7.246   5.591  1.8931 -0.3571 -1.2793
  107OSM    C1F10922   4.982   7.198   7.086 -1.0468  0.3718 -0.1928
  107OSM     OF10923   5.063   7.113   7.122 -0.2943 -0.1305  0.4802
  107OSM    C2F10924   5.005   7.345   7.079 -0.2225 -0.2797 -0.1123
  107OSM    H2F10925   5.052   7.382   7.172  2.0366  1.9086 -2.0019
  107OSM    H2G10926   4.907   7.394   7.065 -1.1116 -1.9112  0.0828
  107OSM    C3F10927   5.095   7.387   6.962 -0.3688  0.6083 -0.0599
  107OSM    H3F10928   5.203   7.400   6.982  0.1853  2.8318 -3.5431
  107OSM    H3G10929   5.056   7.487   6.929  0.7094  0.8982 -0.4803
  107OSM    C4F10930   5.093   7.299   6.834 -0.2821  0.6443  0.4689
  107OSM    H4F10931   4.993   7.263   6.805  1.1263 -1.3008 -2.4999
  107OSM    H4G10932   5.152   7.210   6.864 -1.1751  0.3846  1.4919
  107OSM    C5F10933   5.163   7.369   6.712  0.4006  0.5752  0.4241
  107OSM    H5F10934   5.272   7.381   6.730  1.3756 -1.7454 -2.8992
  107OSM    H5G10935   5.128   7.470   6.682  2.1110  1.1622  0.3334
  107OSM    C6F10936   5.141   7.277   6.594 -1.2011  0.5205  0.4799
  107OSM    H6F10937   5.033   7.262   6.569 -0.5482 -1.8131 -1.2978
  107OSM    H6G10938   5.185   7.179   6.618  1.0349  1.4259  0.2976
  107OSM    C7F10939   5.203   7.320   6.458  0.4646 -0.0949  0.5407
  107OSM    H7F10940   5.310   7.293   6.453  0.0971 -1.4109 -2.1973
  107OSM    H7G10941   5.192   7.431   6.459 -1.2208 -0.2425  0.4477
  107OSM    C8F10942   5.129   7.278   6.330 -0.2507  0.5105  0.1705
  107OSM    H8F10943   5.155   7.331   6.235 -0.7458 -2.4280 -1.7246
  107OSM    H8G10944   5.019   7.284   6.343 -0.2202 -0.7728  1.1438
  107OSM    C9F10945   5.168   7.130   6.310 -0.1310  0.0258  0.4162
  107OSM    H9F10946   5.201   7.080   6.402 -0.8359  0.6568  1.0265
  107OSM   C10F10947   5.169   7.060   6.195  0.0906 -0.6095 -0.5932
  107OSM   H10F10948   5.204   6.956   6.204 -0.1495 -0.7988 -1.6983
  107OSM   C11F10949   5.131   7.104   6.057 -0.0383 -0.1933  0.3506
  107OSM   H11F10950   5.083   7.204   6.061 -1.8288 -1.0332  0.8703
  107OSM   H11G10951   5.070   7.026   6.007 -0.5397 -0.1024  0.8114
  107OSM   C12F10952   5.275   7.112   5.983  1.2914  0.6613 -0.4218
  107OSM   H12F10953   5.343   7.172   6.047  1.5167 -0.2080  0.1668
  107OSM   H12G10954   5.264   7.174   5.891  2.4519 -1.5179 -2.1183
  107OSM   C13F10955   5.330   6.973   5.939 -0.7633 -0.2710  0.1550
  107OSM   H13F10956   5.349   6.904   6.024 -1.5309 -0.3006  0.3099
  107OSM   H13G10957   5.431   6.982   5.893 -0.4765 -0.1030  0.8081
  107OSM   C14F10958   5.234   6.903   5.844 -0.0295 -0.4991  1.3370
  107OSM   H14F10959   5.235   6.968   5.754  0.5463  0.2703  1.8840
  107OSM   H14G10960   5.132   6.883   5.884 -1.1333  0.4760 -0.8161
  107OSM   C15F10961   5.285   6.767   5.795  0.3228  0.1519  0.1351
  107OSM   H15F10962   5.298   6.706   5.887 -0.0815 -0.1111  0.0217
  107OSM   H15G10963   5.387   6.781   5.754 -0.0450  0.6233 -0.6526
  107OSM   C16F10964   5.190   6.700   5.688 -0.0370  0.3740 -0.0456
  107OSM   H16F10965   5.178   6.772   5.604 -1.8400 -0.4674 -0.5694
  107OSM   H16G10966   5.087   6.679   5.726 -0.0224 -1.4434 -0.8836
  107OSM   C17F10967   5.231   6.562   5.640  0.3698 -0.1603 -0.1012
  107OSM   H17F10968   5.259   6.517   5.738  3.0147  2.2274  0.3802
  107OSM   H17G10969   5.324   6.576   5.580 -0.5240  0.5434 -1.3485
  107OSM   C18F10970   5.123   6.482   5.562  0.1656  0.0159  0.1970
  107OSM   H18F10971   5.041   6.471   5.636 -1.7365  1.1817 -1.6365
  107OSM   H18G10972   5.162   6.384   5.525  1.3784  0.5249  0.0901
  107OSM   H18H10973   5.082   6.548   5.483 -1.0601  2.1288  2.4615
  108OSM      N10974   6.262   2.486   7.431  0.4855 -0.5927  0.2141
  108OSM    C1510975   6.224   2.429   7.298 -0.4709  0.3203 -0.7200
  108OSM   H15A10976   6.139   2.480   7.255 -0.1544  0.7919 -0.8000
  108OSM   H15B10977   6.187   2.328   7.297 -1.9309  0.8277 -0.6140
  108OSM   H15C10978   6.305   2.445   7.228 -0.5828 -1.0571 -1.1991
  108OSM    C1410979   6.291   2.628   7.394 -0.1303 -0.0283 -0.9408
  108OSM   H14A10980   6.331   2.683   7.478  1.7732 -0.6007 -1.4132
  108OSM   H14B10981   6.205   2.683   7.360 -1.9474 -2.3381 -0.3508
  108OSM   H14C10982   6.369   2.629   7.319  1.1819  1.1480  0.3611
  108OSM    C1310983   6.142   2.476   7.531  0.3134 -0.1095  0.5499
  108OSM   H13A10984   6.175   2.518   7.625 -0.7429  1.2273  0.3382
  108OSM   H13B10985   6.113   2.372   7.542 -1.7391  0.2099 -1.2804
  108OSM   H13C10986   6.057   2.534   7.500  0.5903  1.3533  2.3722
  108OSM    C1210987   6.378   2.409   7.488 -0.2621  0.2270  0.5251
  108OSM   H12A10988   6.353   2.304   7.481 -0.0997  0.2563 -0.9917
  108OSM   H12B10989   6.380   2.446   7.589  0.2668 -1.0935  1.0144
  108OSM    C1110990   6.512   2.420   7.411  0.0575  0.0521  0.0993
  108OSM   H11A10991   6.582   2.376   7.485 -0.5639  0.4379  0.9400
  108OSM   H11B10992   6.525   2.529   7.393 -0.6970 -0.2262 -2.6106
  108OSM      P10993   6.539   2.190   7.287 -0.1091  0.4573  0.4151
  108OSM    O1310994   6.683   2.175   7.307 -0.0863 -0.2110 -0.1886
  108OSM    O1410995   6.444   2.122   7.377  0.4531 -0.1594  0.0606
  108OSM    O1110996   6.499   2.146   7.133 -0.4436  0.0684  0.0795
  108OSM    O1210997   6.503   2.340   7.287 -0.0473  0.0803 -0.1303
  108OSM    C1S10998   6.568   2.197   7.023 -0.0315 -0.0740  0.5344
  108OSM    H1S10999   6.648   2.125   6.993  0.3795 -0.4861  2.4896
  108OSM    H1T11000   6.627   2.290   7.035  1.3832 -0.7448 -0.7887
  108OSM     NF11001   6.547   2.246   6.781  0.2612 -0.1067 -0.3926
  108OSM    HNF11002   6.529   2.341   6.754  0.1679  0.2495  0.8452
  108OSM    C2S11003   6.478   2.201   6.900 -0.9127  0.0918 -0.1222
  108OSM    H2S11004   6.445   2.097   6.881 -2.0150  0.5205 -0.6117
  108OSM    C3S11005   6.344   2.272   6.937 -0.1383  0.0392  0.2441
  108OSM    H3S11006   6.377   2.367   6.983  0.7930 -1.0513  1.9521
  108OSM     O311007   6.257   2.227   7.041 -0.5307  0.1325  0.3690
  108OSM    HO311008   6.317   2.183   7.101 -1.0683  0.7907  1.4176
  108OSM    C4S11009   6.265   2.302   6.812 -0.1229  0.2439 -0.8329
  108OSM    H4S11010   6.292   2.404   6.780 -1.6773  0.1913 -2.4551
  108OSM    C5S11011   6.173   2.227   6.752 -0.2326 -0.5212  0.8780
  108OSM    H5S11012   6.147   2.125   6.784  3.5762 -2.2649 -0.8735
  108OSM    C6S11013   6.108   2.278   6.634  0.3541 -0.2017  0.3381
  108OSM    H6S11014   6.029   2.350   6.665 -0.9419 -2.0796  1.6033
  108OSM    H6T11015   6.050   2.193   6.591 -0.4401 -1.2909  3.3007
  108OSM    C7S11016   6.196   2.330   6.515  0.0694 -0.2072 -0.0337
  108OSM    H7S11017   6.257   2.244   6.481  0.0820  0.0992 -0.8030
  108OSM    H7T11018   6.257   2.417   6.549  0.8673 -1.2341  1.2407
  108OSM    C8S11019   6.126   2.376   6.381  0.4000 -0.0477  0.7324
  108OSM    H8S11020   6.026   2.421   6.400  1.1685  1.1736  2.0658
  108OSM    H8T11021   6.109   2.280   6.327 -0.1606  0.5539 -0.1694
  108OSM    C9S11022   6.210   2.466   6.294  0.2634 -0.6335  0.2535
  108OSM    H9S11023   6.299   2.406   6.268 -0.8947 -2.0684 -0.5549
  108OSM    H9T11024   6.253   2.555   6.346  0.8182  0.8567 -2.5396
  108OSM   C10S11025   6.158   2.497   6.150  0.1065  0.2725 -0.2061
  108OSM   H10S11026   6.066   2.557   6.165  0.2334 -0.0896  2.6826
  108OSM   H10T11027   6.148   2.402   6.093  3.5252  0.6498 -1.6367
  108OSM   C11S11028   6.254   2.588   6.073 -1.0264 -0.2374  0.1823
  108OSM   H11S11029   6.310   2.660   6.137 -2.0093  0.2212  0.5331
  108OSM   H11T11030   6.193   2.644   5.999  1.3657  0.2260 -1.6021
  108OSM   C12S11031   6.346   2.503   5.990 -0.1278 -0.6313  0.1548
  108OSM   H12S11032   6.308   2.401   5.971  1.8485 -1.6282  1.1399
  108OSM   H12T11033   6.429   2.473   6.059 -2.2639 -2.2243  2.2243
  108OSM   C13S11034   6.386   2.577   5.856 -0.3255  0.2815  0.7422
  108OSM   H13S11035   6.295   2.620   5.808 -1.0061 -0.3089  1.4757
  108OSM   H13T11036   6.440   2.502   5.794  0.9466  0.1162  2.0079
  108OSM   C14S11037   6.468   2.702   5.875 -0.1581  0.3259 -0.2183
  108OSM   H14S11038   6.505   2.704   5.979 -2.5536 -4.1868  0.9699
  108OSM   H14T11039   6.398   2.788   5.866 -0.2640  0.6510  2.8313
  108OSM   C15S11040   6.577   2.726   5.771  0.4408 -0.5450 -0.0361
  108OSM   H15S11041   6.663   2.655   5.783  1.1076  0.2836  0.1893
  108OSM   H15T11042   6.621   2.827   5.780  0.7842 -0.4879 -1.8936
  108OSM   C16S11043   6.529   2.718   5.625 -0.2386  0.1095  0.2245
  108OSM   H16S11044   6.423   2.751   5.622  0.1156  1.2375 -0.8202
  108OSM   H16T11045   6.538   2.609   5.604  1.0803  0.0915  0.7549
  108OSM   C17S11046   6.607   2.792   5.517  0.3032 -0.5365  0.2012
  108OSM   H17S11047   6.714   2.761   5.510  2.0943  4.3617  1.7594
  108OSM   H17T11048   6.610   2.896   5.555 -0.2532 -0.8467  1.1172
  108OSM   C18S11049   6.534   2.788   5.381  0.0698  0.5381 -0.0752
  108OSM   H18S11050   6.523   2.680   5.357  0.3798  0.7489 -1.2089
  108OSM   H18T11051   6.599   2.834   5.304  1.7601 -0.0811  0.9133
  108OSM   H18U11052   6.431   2.827   5.396 -0.2711 -0.2999 -0.1998
  108OSM    C1F11053   6.636   2.175   6.705  0.1230 -0.1735 -0.4974
  108OSM     OF11054   6.681   2.074   6.748 -0.1254  0.1441 -0.7383
  108OSM    C2F11055   6.677   2.229   6.576  0.8049 -0.6349  0.2519
  108OSM    H2F11056   6.783   2.206   6.556  0.6488  1.1716 -3.4736
  108OSM    H2G11057   6.666   2.340   6.579  1.4743 -0.5776  1.6364
  108OSM    C3F11058   6.602   2.181   6.452  0.0969 -0.3676  0.4079
  108OSM    H3F11059   6.493   2.185   6.474  0.1907  0.6571  0.7667
  108OSM    H3G11060   6.625   2.073   6.443 -0.8431 -0.5940  0.5499
  108OSM    C4F11061   6.642   2.258   6.326 -0.9372  0.4422 -0.8037
  108OSM    H4F11062   6.750   2.234   6.314 -1.1194 -1.9194  1.2850
  108OSM    H4G11063   6.633   2.368   6.338  0.2473  0.9127 -3.4685
  108OSM    C5F11064   6.580   2.198   6.201  0.6022 -0.4231 -0.9247
  108OSM    H5F11065   6.470   2.208   6.206  0.6436 -0.5894  0.5256
  108OSM    H5G11066   6.589   2.087   6.202 -1.2999 -0.6104 -0.5436
  108OSM    C6F11067   6.621   2.246   6.057  0.8296  0.2653 -0.0557
  108OSM    H6F11068   6.731   2.251   6.048  0.7554 -1.1402 -5.6559
  108OSM    H6G11069   6.584   2.350   6.046 -0.9513 -0.4316 -1.1961
  108OSM    C7F11070   6.561   2.160   5.943  0.2594 -0.7406  0.3133
  108OSM    H7F11071   6.450   2.167   5.945  0.1754 -1.9265  2.2237
  108OSM    H7G11072   6.597   2.055   5.953  0.8187 -0.7015 -1.1061
  108OSM    C8F11073   6.609   2.210   5.800  0.4303  0.3518 -0.1908
  108OSM    H8F11074   6.583   2.317   5.790  0.3900  0.3238 -0.4017
  108OSM    H8G11075   6.545   2.161   5.724 -1.3310  0.9351  0.8655
  108OSM    C9F11076   6.757   2.189   5.783 -0.1627 -0.8742 -0.2819
  108OSM    H9F11077   6.812   2.284   5.788  1.2856 -1.7382  1.7022
  108OSM   C10F11078   6.818   2.074   5.739  1.1252  0.6407  0.0081
  108OSM   H10F11079   6.926   2.076   5.718  1.2250  0.1307  0.4667
  108OSM   C11F11080   6.759   1.940   5.735 -0.0256 -1.4165  0.3187
  108OSM   H11F11081   6.751   1.900   5.631  2.3212  0.4518 -0.6597
  108OSM   H11G11082   6.658   1.931   5.781  0.0048 -2.1734  0.2575
  108OSM   C12F11083   6.856   1.839   5.792  0.0904  0.4105  0.5085
  108OSM   H12F11084   6.810   1.739   5.808  1.0836  0.2895  3.2094
  108OSM   H12G11085   6.884   1.875   5.894  2.1911  0.2659  0.0142
  108OSM   C13F11086   6.989   1.820   5.706  0.3085  0.0854  0.3184
  108OSM   H13F11087   7.057   1.905   5.726 -0.5295  0.8913 -0.1790
  108OSM   H13G11088   6.960   1.834   5.600 -2.6455 -2.7048  0.5809
  108OSM   C14F11089   7.060   1.685   5.720  1.3484 -0.3548 -0.8855
  108OSM   H14F11090   6.983   1.606   5.710 -0.1122  1.0060 -0.6577
  108OSM   H14G11091   7.100   1.673   5.823 -2.7342 -0.9802  0.7896
  108OSM   C15F11092   7.172   1.661   5.613  0.1638  0.4064  0.6631
  108OSM   H15F11093   7.128   1.641   5.514  0.9284 -1.7457  0.7152
  108OSM   H15G11094   7.224   1.569   5.647  0.0888  0.1019 -0.0368
  108OSM   C16F11095   7.268   1.775   5.608  0.1239  0.3034  0.4800
  108OSM   H16F11096   7.311   1.784   5.710  1.5735  1.4330 -0.1973
  108OSM   H16G11097   7.208   1.868   5.596 -1.5893 -0.8683 -0.5260
  108OSM   C17F11098   7.379   1.765   5.502 -0.2400  0.4599  0.0451
  108OSM   H17F11099   7.448   1.849   5.522  0.4834 -0.1623  0.2175
  108OSM   H17G11100   7.334   1.791   5.404  0.4133 -2.0998 -1.0424
  108OSM   C18F11101   7.446   1.627   5.497 -0.7019 -0.6626  0.3005
  108OSM   H18F11102   7.370   1.547   5.489 -0.9282 -0.3005 -1.5677
  108OSM   H18G11103   7.521   1.618   5.578  2.4614 -2.4871 -2.5695
  108OSM   H18H11104   7.517   1.633   5.412 -0.7965  0.4170  0.2733
  109OSM      N11105   3.133   2.164   7.892  0.3346 -0.4359  0.6361
  109OSM    C1511106   3.273   2.110   7.869  0.2105  0.3600  0.0282
  109OSM   H15A11107   3.341   2.176   7.921 -1.5680  2.1127  0.2264
  109OSM   H15B11108   3.302   2.128   7.766 -1.2732  2.1704 -0.1221
  109OSM   H15C11109   3.283   2.005   7.893 -1.2427 -0.3312 -2.1265
  109OSM    C1411110   3.042   2.082   7.815 -0.0988 -0.7585  0.3980
  109OSM   H14A11111   3.027   1.986   7.861 -0.3389  0.0942  2.2002
  109OSM   H14B11112   3.076   2.063   7.714 -0.5323 -0.2722  0.1542
  109OSM   H14C11113   2.944   2.127   7.804  0.4622  0.3248 -0.4780
  109OSM    C1311114   3.102   2.152   8.037  0.9885 -0.1923  0.2612
  109OSM   H13A11115   3.163   2.220   8.095 -1.8827  1.9946  0.9250
  109OSM   H13B11116   3.119   2.054   8.080  0.5662  0.6820  2.5893
  109OSM   H13C11117   3.002   2.188   8.055  0.8145  0.5255 -1.8241
  109OSM    C1211118   3.140   2.309   7.843  0.2363 -0.3766 -0.5816
  109OSM   H12A11119   3.225   2.355   7.890 -0.7451  2.1311 -1.0952
  109OSM   H12B11120   3.055   2.366   7.878  0.8716  0.0635  0.2673
  109OSM    C1111121   3.150   2.333   7.692  0.0099  0.1398 -0.0639
  109OSM   H11A11122   3.131   2.442   7.679  2.8769  1.1477  3.0248
  109OSM   H11B11123   3.067   2.272   7.649  0.3721 -1.0538  0.8764
  109OSM      P11124   3.396   2.394   7.636  0.0784  0.2856 -0.1530
  109OSM    O1311125   3.412   2.471   7.759 -0.5809 -0.4274  0.4248
  109OSM    O1411126   3.512   2.307   7.591  0.1127 -0.1644 -0.3839
  109OSM    O1111127   3.341   2.472   7.513 -0.2627  0.0517  0.6460
  109OSM    O1211128   3.281   2.299   7.648  0.0366  0.0694  0.1195
  109OSM    C1S11129   3.331   2.408   7.382  0.3168  0.7386  0.2003
  109OSM    H1S11130   3.245   2.339   7.380 -0.4885  1.6735 -2.9140
  109OSM    H1T11131   3.425   2.356   7.352  0.5577  0.9785  0.5306
  109OSM     NF11132   3.293   2.452   7.136  0.0479 -0.7063 -0.3384
  109OSM    HNF11133   3.377   2.434   7.085 -0.4430 -1.2061 -0.9906
  109OSM    C2S11134   3.311   2.516   7.268 -0.3296  0.6191 -0.1260
  109OSM    H2S11135   3.220   2.571   7.302  0.8360  1.0340  2.5561
  109OSM    C3S11136   3.434   2.605   7.266 -0.1083  0.1604 -0.0362
  109OSM    H3S11137   3.528   2.551   7.240  0.1670  0.7920 -0.3980
  109OSM     O311138   3.466   2.664   7.387 -0.1184  0.1573 -0.0930
  109OSM    HO311139   3.396   2.638   7.448  0.5449 -2.7048 -0.4182
  109OSM    C4S11140   3.417   2.720   7.172 -0.0579 -0.8342  0.3165
  109OSM    H4S11141   3.314   2.758   7.171 -1.1360 -3.3719  2.7554
  109OSM    C5S11142   3.512   2.768   7.094 -0.4348 -0.0532  0.0752
  109OSM    H5S11143   3.611   2.722   7.103  0.9396  2.7208  0.2050
  109OSM    C6S11144   3.504   2.880   6.996 -0.4702 -0.1933 -0.2341
  109OSM    H6S11145   3.497   2.844   6.891 -1.2330 -0.0548 -0.2328
  109OSM    H6T11146   3.600   2.936   6.992 -0.3696 -0.4164 -1.3043
  109OSM    C7S11147   3.391   2.983   7.005 -0.5613 -0.3478  0.0004
  109OSM    H7S11148   3.393   3.042   7.100 -0.5786 -1.6507  0.8421
  109OSM    H7T11149   3.294   2.928   7.007 -1.2171  0.7825  0.0597
  109OSM    C8S11150   3.385   3.087   6.888  0.4964  0.5844 -0.5513
  109OSM    H8S11151   3.465   3.163   6.899  0.7719  0.0361  1.8967
  109OSM    H8T11152   3.293   3.145   6.915  0.3775 -0.0790  0.5331
  109OSM    C9S11153   3.369   3.024   6.749 -0.3906 -0.0961  0.1994
  109OSM    H9S11154   3.275   2.964   6.748  0.8415 -2.2699 -3.0662
  109OSM    H9T11155   3.459   2.965   6.722 -0.4429  0.5553 -1.5303
  109OSM   C10S11156   3.336   3.127   6.640  0.2069  0.0542 -0.9076
  109OSM   H10S11157   3.420   3.200   6.638  1.2868 -0.9494  1.9972
  109OSM   H10T11158   3.247   3.188   6.665  1.0869  1.3754 -0.8798
  109OSM   C11S11159   3.313   3.058   6.505 -0.4734  0.3097 -0.1857
  109OSM   H11S11160   3.229   2.986   6.504 -0.6718  0.5349 -1.5494
  109OSM   H11T11161   3.406   2.999   6.485 -0.9064 -0.2196 -0.6604
  109OSM   C12S11162   3.302   3.163   6.393  0.3260 -0.4676 -1.4454
  109OSM   H12S11163   3.354   3.256   6.426  0.4843  0.1207 -3.2376
  109OSM   H12T11164   3.195   3.186   6.372  0.4543 -1.2609 -3.1248
  109OSM   C13S11165   3.373   3.142   6.259  0.0076 -0.2295 -1.0167
  109OSM   H13S11166   3.479   3.137   6.294 -0.7122  1.1902  1.6081
  109OSM   H13T11167   3.366   3.234   6.198  1.0793  0.6484  0.1213
  109OSM   C14S11168   3.341   3.023   6.168  0.2502  0.1015  0.3597
  109OSM   H14S11169   3.324   2.945   6.246 -0.8981  0.3249  0.3505
  109OSM   H14T11170   3.436   3.000   6.116  0.8731  1.1004  1.0149
  109OSM   C15S11171   3.225   3.049   6.069  0.0220 -1.1278 -0.0196
  109OSM   H15S11172   3.191   3.155   6.064  0.2408 -1.0125  0.8179
  109OSM   H15T11173   3.127   3.001   6.093 -1.4483  1.4494 -0.4361
  109OSM   C16S11174   3.273   3.025   5.922  0.7358 -0.3432  0.6168
  109OSM   H16S11175   3.277   2.917   5.895  1.1755  0.2697 -2.0665
  109OSM   H16T11176   3.377   3.061   5.911  0.5202 -0.0702 -0.6495
  109OSM   C17S11177   3.172   3.086   5.814  0.3243 -0.4809 -0.5944
  109OSM   H17S11178   3.073   3.048   5.847  0.0758  0.7525  0.1577
  109OSM   H17T11179   3.193   3.050   5.711 -0.8293  0.4717 -1.2001
  109OSM   C18S11180   3.180   3.239   5.804 -0.3461 -0.0149 -0.1758
  109OSM   H18S11181   3.100   3.259   5.729  1.0728 -1.2851 -2.1585
  109OSM   H18T11182   3.280   3.267   5.765 -0.5980 -0.2027 -0.9816
  109OSM   H18U11183   3.168   3.298   5.897  1.5319  1.4469 -0.7982
  109OSM    C1F11184   3.180   2.391   7.109  1.1829  0.8683 -0.7650
  109OSM     OF11185   3.080   2.427   7.170 -0.0460  0.0665  0.1583
  109OSM    C2F11186   3.185   2.282   7.005  0.0304 -0.0216 -0.6037
  109OSM    H2F11187   3.161   2.187   7.058  0.8187  0.6504  1.0102
  109OSM    H2G11188   3.288   2.283   6.964  0.7094  2.4099  1.0027
  109OSM    C3F11189   3.088   2.320   6.884  0.3692 -0.7078  0.0728
  109OSM    H3F11190   3.100   2.427   6.857 -0.7528 -0.1610  1.6244
  109OSM    H3G11191   2.982   2.306   6.912  0.2553  0.5214  0.3363
  109OSM    C4F11192   3.122   2.231   6.762 -0.5895  0.3895 -1.4553
  109OSM    H4F11193   3.087   2.129   6.790 -1.1956  1.0751  0.4241
  109OSM    H4G11194   3.230   2.215   6.745 -0.7813  0.5908 -3.0398
  109OSM    C5F11195   3.043   2.280   6.639  0.3910  0.2105  0.3229
  109OSM    H5F11196   3.074   2.385   6.621 -2.6416  1.4552  1.6766
  109OSM    H5G11197   2.933   2.274   6.655 -0.1565 -0.5923 -2.9963
  109OSM    C6F11198   3.059   2.178   6.528 -0.4719 -0.3573  0.4665
  109OSM    H6F11199   3.023   2.076   6.554 -0.4944 -0.8704 -1.4520
  109OSM    H6G11200   3.167   2.165   6.505 -0.3372  0.3046  0.7114
  109OSM    C7F11201   2.996   2.209   6.394  0.3351  0.5740  0.7876
  109OSM    H7F11202   2.947   2.309   6.397 -0.0510  0.5021 -1.3755
  109OSM    H7G11203   2.902   2.154   6.374 -1.6951  3.5139  1.5741
  109OSM    C8F11204   3.081   2.197   6.269  0.1341  0.0554 -0.0166
  109OSM    H8F11205   3.168   2.130   6.289  0.6858  0.3030 -1.4334
  109OSM    H8G11206   3.130   2.297   6.265 -0.7429  0.5239  0.7557
  109OSM    C9F11207   3.011   2.149   6.140 -0.4950 -0.4302 -0.5410
  109OSM    H9F11208   2.913   2.196   6.121 -0.4406 -0.0943 -0.0123
  109OSM   C10F11209   3.060   2.078   6.040  0.3664  0.3230  0.1016
  109OSM   H10F11210   3.004   2.040   5.954  0.8364 -1.2371  0.4583
  109OSM   C11F11211   3.196   2.022   6.036 -0.3409  0.8381  0.5753
  109OSM   H11F11212   3.254   2.031   6.130  2.4674  1.2631 -1.1062
  109OSM   H11G11213   3.253   2.061   5.950 -1.6093 -1.3745 -1.4071
  109OSM   C12F11214   3.191   1.870   6.010  0.0819  0.4876 -0.3434
  109OSM   H12F11215   3.155   1.840   6.110 -2.0668 -0.3693 -1.3162
  109OSM   H12G11216   3.295   1.833   6.003  0.1959  0.9592 -1.4146
  109OSM   C13F11217   3.126   1.813   5.885  0.4755 -0.7597  0.2669
  109OSM   H13F11218   3.185   1.847   5.797  1.2497  1.4707  1.5530
  109OSM   H13G11219   3.021   1.846   5.876  0.5878 -0.8058 -1.7168
  109OSM   C14F11220   3.127   1.663   5.901  0.6497  0.2807  0.2666
  109OSM   H14F11221   3.058   1.638   5.985 -1.1254  0.9144 -0.9525
  109OSM   H14G11222   3.230   1.622   5.914  0.4511 -1.7544 -3.2374
  109OSM   C15F11223   3.090   1.576   5.779  0.7452  0.2668  0.0088
  109OSM   H15F11224   3.156   1.585   5.690  0.3585  0.2935 -0.2842
  109OSM   H15G11225   2.997   1.615   5.731  0.5711 -1.3537 -1.0529
  109OSM   C16F11226   3.057   1.435   5.819 -0.1737 -0.3159  0.2457
  109OSM   H16F11227   2.983   1.392   5.748 -0.3636  0.0562  0.2179
  109OSM   H16G11228   3.008   1.418   5.917 -0.9406 -0.2123 -0.1145
  109OSM   C17F11229   3.187   1.343   5.829  0.0283 -0.0592 -0.1083
  109OSM   H17F11230   3.257   1.362   5.913 -1.6667 -0.1196  1.3879
  109OSM   H17G11231   3.247   1.366   5.739  0.9867  2.2670  1.0447
  109OSM   C18F11232   3.137   1.199   5.837  0.4804 -0.1003 -0.8661
  109OSM   H18F11233   3.223   1.132   5.860 -0.4890 -0.7513  1.0818
  109OSM   H18G11234   3.098   1.162   5.740 -0.9819 -0.8527 -0.0157
  109OSM   H18H11235   3.063   1.191   5.920  0.0104 -2.8514 -1.4493
  110OSM      N11236   5.565   1.298   7.819 -0.7745 -0.1077  0.6636
  110OSM    C1511237   5.594   1.338   7.680 -0.3505  1.0337  0.4221
  110OSM   H15A11238   5.506   1.326   7.618  0.1155 -0.4378 -0.0153
  110OSM   H15B11239   5.669   1.282   7.625 -0.8639  0.7954 -0.0387
  110OSM   H15C11240   5.623   1.442   7.684  0.9411  0.7612 -0.8755
  110OSM    C1411241   5.529   1.152   7.818  0.4266  0.1387  0.2673
  110OSM   H14A11242   5.615   1.089   7.800 -0.1340 -0.8177  0.8397
  110OSM   H14B11243   5.461   1.132   7.736  1.4118  0.2682 -0.6008
  110OSM   H14C11244   5.485   1.116   7.910 -0.5595  2.5599  0.8001
  110OSM    C1311245   5.697   1.311   7.882  0.4733 -0.4098  0.0935
  110OSM   H13A11246   5.729   1.414   7.887 -2.8145  0.7220 -0.3469
  110OSM   H13B11247   5.767   1.267   7.812  1.3072  1.8198 -0.5479
  110OSM   H13C11248   5.703   1.266   7.980 -1.0729 -1.2233 -0.1609
  110OSM    C1211249   5.460   1.392   7.870  0.2009 -0.2119 -0.6218
  110OSM   H12A11250   5.445   1.368   7.974 -0.1810 -2.5315 -1.1616
  110OSM   H12B11251   5.365   1.379   7.821 -0.6954 -1.3740  1.3106
  110OSM    C1111252   5.486   1.549   7.847 -0.3800 -0.1760 -0.4182
  110OSM   H11A11253   5.588   1.570   7.886 -0.8851  0.0647  0.8243
  110OSM   H11B11254   5.419   1.602   7.918  0.0484 -2.4389  1.8524
  110OSM      P11255   5.531   1.722   7.662  0.3306  0.1260  0.0226
  110OSM    O1311256   5.446   1.834   7.713  0.4917 -0.5760  0.4833
  110OSM    O1411257   5.671   1.734   7.703 -0.2006 -0.1235 -0.2817
  110OSM    O1111258   5.528   1.718   7.502  0.0914  0.2027  0.7136
  110OSM    O1211259   5.467   1.582   7.710  0.1007 -0.1300 -0.2697
  110OSM    C1S11260   5.414   1.642   7.439  0.3115 -0.5211  0.2012
  110OSM    H1S11261   5.330   1.714   7.452  0.9999 -0.0975  3.2223
  110OSM    H1T11262   5.381   1.557   7.502 -1.7855 -2.0704 -2.7597
  110OSM     NF11263   5.306   1.559   7.230 -0.9175  0.1573  0.4466
  110OSM    HNF11264   5.300   1.461   7.211  1.4185  0.0575 -0.0520
  110OSM    C2S11265   5.436   1.602   7.285 -0.4530 -0.2546 -0.0934
  110OSM    H2S11266   5.475   1.691   7.232 -0.9015  0.3538  0.5583
  110OSM    C3S11267   5.537   1.485   7.279  0.6214  0.5032 -0.5518
  110OSM    H3S11268   5.503   1.408   7.352  2.5307  2.8350  3.1161
  110OSM     O311269   5.662   1.535   7.324 -0.0795  0.3602 -0.1604
  110OSM    HO311270   5.646   1.616   7.373  1.5563  1.4751 -1.3620
  110OSM    C4S11271   5.539   1.425   7.141 -0.4542 -0.1083  0.4956
  110OSM    H4S11272   5.600   1.487   7.072 -0.4437 -0.2222  0.4023
  110OSM    C5S11273   5.490   1.309   7.087  0.1626 -0.3206  0.1445
  110OSM    H5S11274   5.431   1.238   7.147  1.8017 -3.1418 -1.3731
  110OSM    C6S11275   5.517   1.277   6.944  1.0027  0.3747  0.4667
  110OSM    H6S11276   5.482   1.175   6.919 -1.2188  1.1685  0.1351
  110OSM    H6T11277   5.624   1.278   6.913  0.4298 -0.2922 -1.7562
  110OSM    C7S11278   5.453   1.353   6.830  0.0622 -0.5528  0.3650
  110OSM    H7S11279   5.504   1.451   6.813 -0.2241 -0.5101 -0.2582
  110OSM    H7T11280   5.356   1.382   6.875  0.9740  0.5926  1.6748
  110OSM    C8S11281   5.444   1.292   6.698  0.0929 -0.0284 -0.3891
  110OSM    H8S11282   5.375   1.355   6.638 -0.6073  0.7765  1.2144
  110OSM    H8T11283   5.388   1.197   6.710 -0.3488  0.0297 -1.7585
  110OSM    C9S11284   5.578   1.258   6.627 -0.4769 -0.9824  0.2053
  110OSM    H9S11285   5.637   1.192   6.694  0.0875 -1.4760 -0.7485
  110OSM    H9T11286   5.641   1.348   6.611  0.3470 -1.3125  1.4976
  110OSM   C10S11287   5.570   1.184   6.490 -0.0068  0.3059 -0.9793
  110OSM   H10S11288   5.672   1.150   6.460  1.1131  0.0975  2.5779
  110OSM   H10T11289   5.543   1.258   6.412 -1.6111  0.9999  0.1819
  110OSM   C11S11290   5.469   1.066   6.491  0.1122  0.0681 -0.7126
  110OSM   H11S11291   5.363   1.100   6.495  0.1288  0.4382 -2.4245
  110OSM   H11T11292   5.467   1.015   6.589  2.5640  0.4084 -0.4302
  110OSM   C12S11293   5.483   0.954   6.389 -0.0452 -0.1073 -0.8230
  110OSM   H12S11294   5.440   0.854   6.411 -1.9743  0.5611 -1.3311
  110OSM   H12T11295   5.592   0.934   6.380  0.5163  2.1678  0.3109
  110OSM   C13S11296   5.427   0.991   6.256 -0.5838 -0.8949  0.7333
  110OSM   H13S11297   5.473   1.085   6.219  1.6663 -2.3023 -0.3202
  110OSM   H13T11298   5.317   0.997   6.265 -0.4602  2.0097  1.0110
  110OSM   C14S11299   5.483   0.908   6.143 -0.1581  0.2027  0.1262
  110OSM   H14S11300   5.466   0.799   6.157 -0.0767 -0.3963 -3.5221
  110OSM   H14T11301   5.592   0.930   6.143  0.2082 -1.4415 -0.6601
  110OSM   C15S11302   5.424   0.938   6.003  0.7401 -0.0608  1.0156
  110OSM   H15S11303   5.422   1.047   5.979 -1.3279 -0.2515  0.1155
  110OSM   H15T11304   5.320   0.903   5.987  0.5426  1.2414 -0.8897
  110OSM   C16S11305   5.503   0.870   5.879 -0.3859  0.6238 -0.1094
  110OSM   H16S11306   5.605   0.915   5.883  0.0726 -0.3682 -0.0926
  110OSM   H16T11307   5.457   0.899   5.782  0.9077  2.3111 -0.2632
  110OSM   C17S11308   5.526   0.714   5.891 -0.3357  0.0008  0.8923
  110OSM   H17S11309   5.570   0.694   5.991  1.2180  0.3547  0.2997
  110OSM   H17T11310   5.581   0.663   5.809  0.1103  0.3226  0.9847
  110OSM   C18S11311   5.392   0.644   5.897  0.3875  0.0951  0.0433
  110OSM   H18S11312   5.389   0.533   5.904  0.0516  0.1996  2.6837
  110OSM   H18T11313   5.329   0.667   5.808  0.8647 -1.3377 -0.7013
  110OSM   H18U11314   5.340   0.677   5.990 -0.0264  0.9030 -0.4631
  110OSM    C1F11315   5.204   1.643   7.205  0.2393  0.0999 -0.1368
  110OSM     OF11316   5.219   1.766   7.178 -0.4925 -0.2277 -0.0852
  110OSM    C2F11317   5.065   1.572   7.190 -0.4995  0.5167 -0.5138
  110OSM    H2F11318   4.998   1.588   7.277 -0.5776 -3.9175  0.5174
  110OSM    H2G11319   5.076   1.461   7.196 -1.0020  0.5107  4.5817
  110OSM    C3F11320   4.997   1.603   7.055 -0.2387 -0.1004 -0.6693
  110OSM    H3F11321   4.972   1.711   7.061 -0.0247 -0.1454  3.0419
  110OSM    H3G11322   4.899   1.550   7.055  0.1930 -1.1086  2.3759
  110OSM    C4F11323   5.079   1.566   6.927 -0.9848  0.1498 -0.0081
  110OSM    H4F11324   5.122   1.465   6.945 -1.2667  0.1258  0.5250
  110OSM    H4G11325   5.164   1.638   6.926 -1.8801  1.2373 -0.9750
  110OSM    C5F11326   5.007   1.582   6.798  0.1768 -0.1380 -0.1598
  110OSM    H5F11327   4.980   1.689   6.788 -0.4941 -0.1040  1.7862
  110OSM    H5G11328   4.910   1.529   6.797 -0.5890  1.2138 -0.4723
  110OSM    C6F11329   5.096   1.552   6.680 -0.0819  0.2182 -0.0552
  110OSM    H6F11330   5.149   1.454   6.688 -1.1868 -0.4657 -0.8890
  110OSM    H6G11331   5.167   1.636   6.663 -0.5618  0.4461 -0.9657
  110OSM    C7F11332   5.019   1.539   6.550  0.2096  0.4796 -0.1956
  110OSM    H7F11333   4.986   1.645   6.545  0.6135  0.6547  0.6642
  110OSM    H7G11334   4.929   1.475   6.560  0.7446 -0.8630 -2.9638
  110OSM    C8F11335   5.109   1.473   6.440  1.1215 -0.7757 -0.9618
  110OSM    H8F11336   5.206   1.521   6.464 -0.8977  2.4295  1.5113
  110OSM    H8G11337   5.067   1.509   6.343  0.5235  1.6917  0.1524
  110OSM    C9F11338   5.109   1.325   6.433 -0.4285  1.0006  0.4294
  110OSM    H9F11339   5.084   1.281   6.531 -2.0713  4.5457  1.7833
  110OSM   C10F11340   5.106   1.246   6.322 -0.6073  0.0169  0.6496
  110OSM   H10F11341   5.105   1.137   6.342  0.6848  0.1858  1.7579
  110OSM   C11F11342   5.086   1.284   6.177 -1.0278  0.5973  0.1887
  110OSM   H11F11343   5.041   1.384   6.158  0.0641  0.9849 -0.4568
  110OSM   H11G11344   5.032   1.201   6.127  1.3363 -2.6867  2.6804
  110OSM   C12F11345   5.226   1.292   6.107 -0.4496  0.2287 -0.8331
  110OSM   H12F11346   5.282   1.196   6.108  1.2393  1.1721  0.6104
  110OSM   H12G11347   5.292   1.369   6.153 -1.3194  0.1393  0.6247
  110OSM   C13F11348   5.219   1.343   5.966 -0.2373 -0.1194  0.4538
  110OSM   H13F11349   5.200   1.453   5.962  1.4429  0.2622  1.7855
  110OSM   H13G11350   5.133   1.310   5.904  0.1578  0.7564 -0.6018
  110OSM   C14F11351   5.348   1.322   5.886  0.7841 -0.5643 -0.0400
  110OSM   H14F11352   5.347   1.224   5.833 -1.9696 -0.3575 -0.5325
  110OSM   H14G11353   5.434   1.315   5.956  0.1437 -2.3558  0.6446
  110OSM   C15F11354   5.376   1.429   5.780 -0.0204  0.1463  0.3630
  110OSM   H15F11355   5.474   1.403   5.736  0.6451  0.1117  1.7983
  110OSM   H15G11356   5.383   1.527   5.833 -2.2566  0.4004  0.2682
  110OSM   C16F11357   5.265   1.432   5.675 -0.0541  0.0453 -0.3231
  110OSM   H16F11358   5.168   1.443   5.729  1.0752  1.1362  1.6074
  110OSM   H16G11359   5.264   1.331   5.628 -1.1893 -0.4847  0.7702
  110OSM   C17F11360   5.280   1.528   5.555  0.4031 -0.0301 -0.0595
  110OSM   H17F11361   5.212   1.493   5.474  1.0325 -0.7168 -0.3039
  110OSM   H17G11362   5.383   1.515   5.514  0.6293  0.5856  0.3042
  110OSM   C18F11363   5.252   1.674   5.585 -0.1533 -0.7362 -0.3881
  110OSM   H18F11364   5.148   1.694   5.618  0.2600 -0.0898  0.6049
  110OSM   H18G11365   5.279   1.734   5.495 -1.6919 -0.4830 -0.7026
  110OSM   H18H11366   5.325   1.725   5.652 -0.8876 -1.2172  0.8124
  111OSM      N11367   2.322   5.515   7.417 -0.1605 -0.2202  0.4257
  111OSM    C1511368   2.392   5.638   7.459 -0.4517 -0.8303 -0.1980
  111OSM   H15A11369   2.321   5.717   7.475  2.6902  2.8409 -2.7725
  111OSM   H15B11370   2.446   5.681   7.376 -0.8498  0.6541  0.2916
  111OSM   H15C11371   2.463   5.628   7.541  1.1794 -0.9790 -1.5797
  111OSM    C1411372   2.202   5.478   7.502 -0.2663 -0.5980 -0.4027
  111OSM   H14A11373   2.148   5.395   7.458  1.1986 -2.0678  0.4703
  111OSM   H14B11374   2.126   5.554   7.512 -2.3936 -2.7003  0.3136
  111OSM   H14C11375   2.231   5.447   7.601  0.1231  2.9543  0.7221
  111OSM    C1311376   2.266   5.545   7.282 -1.1262 -0.6654  0.8997
  111OSM   H13A11377   2.184   5.616   7.284 -1.0015 -0.5342  1.5167
  111OSM   H13B11378   2.230   5.458   7.230  0.9789 -0.0231 -1.8645
  111OSM   H13C11379   2.344   5.585   7.219 -1.2321  0.3529  1.3801
  111OSM    C1211380   2.412   5.394   7.403 -0.5099 -0.7403  0.1966
  111OSM   H12A11381   2.363   5.307   7.360  1.1261  0.0625 -3.7162
  111OSM   H12B11382   2.446   5.369   7.502 -1.2794  1.7827  1.1795
  111OSM    C1111383   2.543   5.393   7.309  0.2152 -0.1948 -0.4739
  111OSM   H11A11384   2.503   5.386   7.206  1.0793 -1.7449 -0.7147
  111OSM   H11B11385   2.591   5.297   7.336 -0.2111  0.0964  1.4591
  111OSM      P11386   2.679   5.591   7.210  0.1038 -0.3037 -0.0949
  111OSM    O1311387   2.562   5.674   7.176  0.0917 -0.0574 -0.4220
  111OSM    O1411388   2.793   5.667   7.264 -0.2102 -0.1348  0.8047
  111OSM    O1111389   2.718   5.502   7.093 -0.2223  0.5575 -0.4932
  111OSM    O1211390   2.638   5.496   7.335  0.3666 -0.6973 -0.4263
  111OSM    C1S11391   2.815   5.401   7.116 -0.2932  0.0450 -0.6581
  111OSM    H1S11392   2.768   5.312   7.163  2.2470 -1.6693 -1.1591
  111OSM    H1T11393   2.895   5.427   7.187 -2.1763  1.3721  1.1096
  111OSM     NF11394   2.934   5.224   6.992  0.1409  0.3325  0.0939
  111OSM    HNF11395   3.029   5.222   7.020  0.2290  0.1777 -0.2165
  111OSM    C2S11396   2.878   5.357   6.982 -0.0551  0.4810  1.1750
  111OSM    H2S11397   2.795   5.356   6.908  0.2929 -0.0764  0.7845
  111OSM    C3S11398   2.980   5.465   6.933 -0.4071 -0.4418 -0.5537
  111OSM    H3S11399   3.059   5.480   7.009  0.0375 -3.0558 -0.3946
  111OSM     O311400   2.918   5.597   6.911 -0.2350  0.5446  0.1744
  111OSM    HO311401   2.837   5.590   6.963 -0.7295 -0.9971 -0.7445
  111OSM    C4S11402   3.054   5.418   6.804 -0.4262 -0.1282  0.0580
  111OSM    H4S11403   3.155   5.390   6.835  0.8527  2.6296 -1.2405
  111OSM    C5S11404   3.026   5.437   6.675  1.1477 -0.1188 -0.1324
  111OSM    H5S11405   2.932   5.481   6.637  1.9940 -0.2698 -2.5533
  111OSM    C6S11406   3.120   5.407   6.568 -0.0294 -0.1297  0.3579
  111OSM    H6S11407   3.071   5.336   6.498  1.2529 -0.9966  0.2895
  111OSM    H6T11408   3.212   5.351   6.597  0.6821  0.9497  0.2658
  111OSM    C7S11409   3.159   5.524   6.482  1.1624 -0.0294  0.4895
  111OSM    H7S11410   3.235   5.579   6.543 -0.2985  2.0842  0.5097
  111OSM    H7T11411   3.084   5.600   6.452  0.3620 -1.5308 -1.5220
  111OSM    C8S11412   3.217   5.480   6.347 -0.2982 -0.0034 -0.3593
  111OSM    H8S11413   3.139   5.452   6.273  0.9759 -1.0286 -1.3625
  111OSM    H8T11414   3.283   5.394   6.372  1.7778  1.7180  0.4603
  111OSM    C9S11415   3.291   5.604   6.280 -0.0660  1.0591  0.1958
  111OSM    H9S11416   3.373   5.621   6.354 -1.7172 -1.7266  2.8938
  111OSM    H9T11417   3.225   5.694   6.280 -0.8793  0.6224  4.0211
  111OSM   C10S11418   3.345   5.567   6.138  0.3311 -0.3993  0.0965
  111OSM   H10S11419   3.418   5.483   6.140 -0.1875 -0.9243 -1.2309
  111OSM   H10T11420   3.409   5.651   6.104  0.2772 -0.5990 -0.5119
  111OSM   C11S11421   3.241   5.537   6.019 -0.2184  0.4034 -0.5120
  111OSM   H11S11422   3.179   5.627   6.039 -2.0942 -0.7092 -1.0475
  111OSM   H11T11423   3.190   5.445   6.055  1.6070 -0.4285  0.0764
  111OSM   C12S11424   3.308   5.523   5.876  0.2742  0.0510 -0.1406
  111OSM   H12S11425   3.374   5.434   5.890  0.2087  0.0180 -0.0430
  111OSM   H12T11426   3.379   5.608   5.865  0.4581  0.0386  0.8222
  111OSM   C13S11427   3.215   5.509   5.761 -0.2789  0.1650 -0.3483
  111OSM   H13S11428   3.170   5.606   5.731 -2.2593 -0.9221 -1.1097
  111OSM   H13T11429   3.132   5.443   5.795  0.0075 -0.2100 -0.3674
  111OSM   C14S11430   3.269   5.453   5.627 -1.0122  0.1309  0.4428
  111OSM   H14S11431   3.187   5.425   5.557 -0.1333  1.7309 -1.3517
  111OSM   H14T11432   3.333   5.367   5.654 -0.4928  0.4789  0.3330
  111OSM   C15S11433   3.345   5.566   5.542  0.8994  0.6140  0.1644
  111OSM   H15S11434   3.421   5.621   5.601  1.2976  0.9314 -0.6312
  111OSM   H15T11435   3.264   5.640   5.528  0.3946  0.7293  3.1304
  111OSM   C16S11436   3.388   5.510   5.408  0.4444 -0.0447  0.4050
  111OSM   H16S11437   3.419   5.599   5.349 -2.8720 -0.8432 -2.9715
  111OSM   H16T11438   3.295   5.464   5.367  0.4970 -1.7730  2.0869
  111OSM   C17S11439   3.505   5.415   5.408  0.0454  0.6840 -0.0481
  111OSM   H17S11440   3.480   5.327   5.470  0.5380 -0.4778 -1.4344
  111OSM   H17T11441   3.595   5.458   5.456  0.1320  0.5383 -0.0795
  111OSM   C18S11442   3.538   5.379   5.262  0.4032  0.1643  0.3248
  111OSM   H18S11443   3.440   5.374   5.209  1.3474 -1.6529 -1.3425
  111OSM   H18T11444   3.583   5.280   5.243 -2.0017 -0.8017 -0.6959
  111OSM   H18U11445   3.594   5.463   5.215 -0.1315  1.1559  1.3904
  111OSM    C1F11446   2.867   5.111   6.986 -0.4743 -0.0405  0.2116
  111OSM     OF11447   2.751   5.113   6.951  0.0870  0.2187 -0.0752
  111OSM    C2F11448   2.933   4.975   7.015  0.5922  0.2182  0.2412
  111OSM    H2F11449   2.872   4.908   6.950  0.5611  0.7342 -0.2737
  111OSM    H2G11450   2.911   4.946   7.120 -3.1355 -0.2982 -0.5328
  111OSM    C3F11451   3.078   4.969   6.970  0.1720  0.7700 -0.1080
  111OSM    H3F11452   3.121   4.868   6.984 -0.3695  0.3401 -1.3604
  111OSM    H3G11453   3.133   5.043   7.032  0.7407  0.2784 -0.0186
  111OSM    C4F11454   3.107   5.003   6.824 -0.1712  0.3931  0.5795
  111OSM    H4F11455   3.108   5.113   6.806  1.5075  0.2651 -0.3970
  111OSM    H4G11456   3.038   4.955   6.752  0.6055  0.8353 -0.4929
  111OSM    C5F11457   3.245   4.947   6.781 -0.2578  0.0220 -0.0822
  111OSM    H5F11458   3.235   4.836   6.777  0.5544 -0.1729  1.8263
  111OSM    H5G11459   3.322   4.962   6.860  2.1987  0.9690 -2.5371
  111OSM    C6F11460   3.306   4.997   6.653  0.2939 -0.3253 -0.7256
  111OSM    H6F11461   3.415   4.980   6.641  0.3817  0.7196 -1.6118
  111OSM    H6G11462   3.284   5.106   6.657 -1.8791 -0.7361  2.6317
  111OSM    C7F11463   3.246   4.935   6.527  0.4519 -0.1893 -0.1049
  111OSM    H7F11464   3.136   4.929   6.536  0.4560  0.8602  0.8055
  111OSM    H7G11465   3.312   4.845   6.528  1.6053  0.6257  0.4257
  111OSM    C8F11466   3.270   5.018   6.397 -0.1041 -0.4025  0.0364
  111OSM    H8F11467   3.379   5.029   6.376 -0.0462  4.0899  1.6446
  111OSM    H8G11468   3.222   5.116   6.417 -2.1812 -1.4285  0.3270
  111OSM    C9F11469   3.193   4.942   6.293  0.1118 -0.4609 -0.9926
  111OSM    H9F11470   3.093   4.910   6.323 -0.2613  2.1627  0.9948
  111OSM   C10F11471   3.232   4.941   6.167 -0.1097  0.2090 -0.3986
  111OSM   H10F11472   3.170   4.885   6.095  0.4903 -0.9384 -0.0417
  111OSM   C11F11473   3.356   4.997   6.098 -0.0387  0.1419  1.0964
  111OSM   H11F11474   3.440   4.924   6.103  0.2039 -0.0394 -2.9809
  111OSM   H11G11475   3.399   5.087   6.147  2.3792  0.3438 -1.1934
  111OSM   C12F11476   3.331   5.039   5.950  0.4161  0.1569  1.2615
  111OSM   H12F11477   3.227   5.073   5.934  0.4373 -0.5304 -0.6023
  111OSM   H12G11478   3.346   4.958   5.875  0.8844  1.1117  0.2925
  111OSM   C13F11479   3.430   5.144   5.904  0.6278 -0.0208  0.3350
  111OSM   H13F11480   3.431   5.218   5.986 -3.0150 -0.1208  0.5902
  111OSM   H13G11481   3.384   5.185   5.812 -0.8247 -0.2136  0.9604
  111OSM   C14F11482   3.569   5.092   5.872 -0.7445 -0.4118 -0.6771
  111OSM   H14F11483   3.551   5.011   5.799  2.9562  0.7226 -3.1272
  111OSM   H14G11484   3.614   5.050   5.964  1.7668  1.1353 -1.1148
  111OSM   C15F11485   3.664   5.207   5.825 -0.2115  0.6262  0.5276
  111OSM   H15F11486   3.705   5.255   5.917  0.9586 -1.7732  1.3432
  111OSM   H15G11487   3.603   5.275   5.763  0.5886  0.1480 -0.8216
  111OSM   C16F11488   3.778   5.153   5.743 -0.8386  0.0720  0.7846
  111OSM   H16F11489   3.746   5.078   5.668  0.3749 -0.3619  0.6816
  111OSM   H16G11490   3.851   5.095   5.803 -0.6620 -1.5928 -0.9436
  111OSM   C17F11491   3.850   5.258   5.672 -0.2003  0.9278 -0.0024
  111OSM   H17F11492   3.916   5.316   5.740 -0.4756  0.3636  0.7562
  111OSM   H17G11493   3.783   5.333   5.624 -1.4476  1.5876  2.6130
  111OSM   C18F11494   3.950   5.194   5.572  0.5018 -0.3048  0.3433
  111OSM   H18F11495   3.892   5.149   5.488  0.8668  0.2718 -0.2326
  111OSM   H18G11496   4.010   5.115   5.621  0.0575 -1.0772 -0.3320
  111OSM   H18H11497   4.010   5.271   5.519  2.2119 -1.1789  0.9389
  112OSM      N11498   4.015   0.968   7.764 -0.2303 -0.7692  0.0458
  112OSM    C1511499   4.159   0.998   7.733 -0.0173  0.2950 -0.8478
  112OSM   H15A11500   4.162   0.998   7.625 -1.6507 -0.6810 -0.9209
  112OSM   H15B11501   4.237   0.937   7.777 -1.2598  0.7693  2.3510
  112OSM   H15C11502   4.181   1.099   7.764 -2.9566  0.5552  0.7833
  112OSM    C1411503   4.012   0.815   7.771 -1.1406 -0.5395  0.0799
  112OSM   H14A11504   4.016   0.778   7.669 -0.2704 -0.3254  0.0261
  112OSM   H14B11505   3.926   0.779   7.826 -0.1750 -1.6249  0.9418
  112OSM   H14C11506   4.102   0.779   7.820  0.6912  2.8526 -0.4786
  112OSM    C1311507   3.989   1.018   7.905 -0.3171 -0.1957  0.3649
  112OSM   H13A11508   3.886   1.014   7.934 -1.2368  3.1678 -1.8089
  112OSM   H13B11509   4.006   1.125   7.905 -0.0722 -0.1922 -1.4504
  112OSM   H13C11510   4.042   0.961   7.981 -2.5912 -1.9164  0.7567
  112OSM    C1211511   3.909   1.026   7.670  0.5743  0.1804 -0.4862
  112OSM   H12A11512   3.907   1.131   7.693  2.3390 -0.0500  0.9048
  112OSM   H12B11513   3.811   0.987   7.696 -0.4313  0.2280 -3.7193
  112OSM    C1111514   3.918   1.007   7.517  0.0070 -0.0759  0.9348
  112OSM   H11A11515   3.831   1.032   7.453  2.6947  0.6716 -2.7643
  112OSM   H11B11516   3.944   0.900   7.501 -0.0993  0.0686 -0.2833
  112OSM      P11517   4.044   1.232   7.461  0.0497 -0.4046 -0.0914
  112OSM    O1311518   3.944   1.298   7.552 -0.1409  0.6145  0.4150
  112OSM    O1411519   4.176   1.283   7.474 -0.6968 -0.1215 -0.5566
  112OSM    O1111520   3.999   1.253   7.313 -0.4562  0.0352 -0.2076
  112OSM    O1211521   4.034   1.077   7.467  0.1436  0.6702  0.0183
  112OSM    C1S11522   3.868   1.306   7.286  0.3427  0.0114 -0.3565
  112OSM    H1S11523   3.844   1.406   7.328 -1.7917  0.2601 -1.9599
  112OSM    H1T11524   3.795   1.240   7.338 -0.9250 -1.0633 -3.2726
  112OSM     NF11525   3.715   1.376   7.105 -0.0230  0.4974  0.6852
  112OSM    HNF11526   3.625   1.335   7.109 -0.4999  1.3525 -0.5409
  112OSM    C2S11527   3.835   1.305   7.134  0.0029 -0.2020 -0.3888
  112OSM    H2S11528   3.918   1.348   7.074  1.0921 -2.4380 -0.5916
  112OSM    C3S11529   3.838   1.159   7.073 -0.5505  0.4169 -0.3492
  112OSM    H3S11530   3.741   1.118   7.110 -0.4701 -0.6231 -1.2436
  112OSM     O311531   3.941   1.076   7.124 -0.1157 -0.2765 -0.2723
  112OSM    HO311532   3.955   1.118   7.210  1.1640 -2.4553  0.6964
  112OSM    C4S11533   3.838   1.162   6.924  0.7185  0.0812  0.4647
  112OSM    H4S11534   3.928   1.212   6.885 -0.3887 -0.5280 -3.3186
  112OSM    C5S11535   3.739   1.118   6.838  0.1576  0.2393 -0.1216
  112OSM    H5S11536   3.641   1.086   6.878  1.9925 -2.9705  2.2494
  112OSM    C6S11537   3.742   1.131   6.683  0.0380 -0.0966 -0.6305
  112OSM    H6S11538   3.845   1.127   6.641  0.0834  0.1004 -0.5392
  112OSM    H6T11539   3.694   1.230   6.665  0.6797  0.0783 -1.4621
  112OSM    C7S11540   3.662   1.017   6.621  0.1151 -0.5260 -0.7664
  112OSM    H7S11541   3.560   1.022   6.664  1.3790  0.7665  2.3956
  112OSM    H7T11542   3.707   0.923   6.660 -2.0728 -0.6076  1.8799
  112OSM    C8S11543   3.648   1.026   6.469  0.6548  0.6114  0.3166
  112OSM    H8S11544   3.750   0.999   6.436  0.0898 -2.1114  0.5238
  112OSM    H8T11545   3.614   1.122   6.424  0.6303 -0.0849 -1.2133
  112OSM    C9S11546   3.545   0.920   6.417 -0.8524 -0.6465 -0.3675
  112OSM    H9S11547   3.442   0.957   6.435  0.4088  1.8626  2.4600
  112OSM    H9T11548   3.553   0.831   6.483  0.8269 -0.7302 -0.6358
  112OSM   C10S11549   3.585   0.877   6.277  0.6959  0.6679  0.5929
  112OSM   H10S11550   3.509   0.805   6.239 -0.3830  2.0450  0.0051
  112OSM   H10T11551   3.680   0.821   6.281 -0.0024 -0.9269 -2.3721
  112OSM   C11S11552   3.602   0.981   6.172 -0.3736 -0.7384  0.9592
  112OSM   H11S11553   3.679   1.053   6.204  0.9876 -0.5943 -2.2851
  112OSM   H11T11554   3.503   1.031   6.164 -0.7285 -1.6706 -2.8622
  112OSM   C12S11555   3.645   0.927   6.032 -0.5690  0.3650  0.1870
  112OSM   H12S11556   3.731   0.858   6.046  0.5728  1.9061  1.1105
  112OSM   H12T11557   3.662   1.012   5.964 -0.9575  0.0269 -0.3465
  112OSM   C13S11558   3.513   0.847   5.974 -0.4581 -0.2780 -0.1088
  112OSM   H13S11559   3.422   0.907   5.994 -0.3939 -0.2403  0.0737
  112OSM   H13T11560   3.506   0.754   6.034 -0.7237 -1.0314 -1.2624
  112OSM   C14S11561   3.521   0.822   5.825 -0.2787  0.5181 -0.1938
  112OSM   H14S11562   3.444   0.743   5.805 -1.6749  1.8161 -0.1411
  112OSM   H14T11563   3.616   0.783   5.784 -1.2527  1.9276 -4.1617
  112OSM   C15S11564   3.461   0.940   5.742 -0.6758  0.4656 -0.0677
  112OSM   H15S11565   3.512   1.038   5.752 -2.6576  1.5203  0.2706
  112OSM   H15T11566   3.363   0.958   5.790  0.4331  0.1656  2.4676
  112OSM   C16S11567   3.430   0.901   5.595  0.3495 -0.8397 -0.2500
  112OSM   H16S11568   3.349   0.967   5.557  0.8641 -0.5552 -0.8765
  112OSM   H16T11569   3.404   0.793   5.592 -1.8758 -0.3859  0.6909
  112OSM   C17S11570   3.549   0.923   5.502  0.3866 -0.1042 -0.0407
  112OSM   H17S11571   3.627   0.861   5.551  1.9346  0.9885 -1.0003
  112OSM   H17T11572   3.584   1.029   5.507  1.1527 -0.4055  1.5298
  112OSM   C18S11573   3.537   0.898   5.353 -0.5610 -0.5175 -0.0172
  112OSM   H18S11574   3.642   0.887   5.316  0.6265  0.7474  2.6701
  112OSM   H18T11575   3.477   0.975   5.300 -1.4476 -2.4536 -2.0041
  112OSM   H18U11576   3.488   0.799   5.341 -2.3752  0.2298  0.8632
  112OSM    C1F11577   3.718   1.511   7.112 -0.2943  0.3948  0.3066
  112OSM     OF11578   3.830   1.569   7.125  0.2589  0.4323  0.5357
  112OSM    C2F11579   3.589   1.577   7.085  0.0417 -0.1156 -0.0952
  112OSM    H2F11580   3.603   1.687   7.089  1.2805 -0.2979  3.1757
  112OSM    H2G11581   3.508   1.551   7.156 -1.0333  1.2215 -0.7971
  112OSM    C3F11582   3.521   1.526   6.950 -0.0248 -0.3960 -0.5682
  112OSM    H3F11583   3.429   1.589   6.941  1.0388  1.3126  0.0416
  112OSM    H3G11584   3.494   1.420   6.967 -1.2843  0.1979  1.5736
  112OSM    C4F11585   3.598   1.526   6.828  0.5940  0.2601  0.7451
  112OSM    H4F11586   3.682   1.453   6.824 -1.5724 -2.4405  1.9814
  112OSM    H4G11587   3.639   1.629   6.820 -0.1603  0.6136  1.3188
  112OSM    C5F11588   3.505   1.502   6.706  0.3609 -0.0246  0.3975
  112OSM    H5F11589   3.569   1.509   6.616 -1.3129 -2.8522 -1.1518
  112OSM    H5G11590   3.427   1.580   6.700 -1.3544 -1.6096  1.2275
  112OSM    C6F11591   3.435   1.366   6.696  0.4727 -0.1185  0.1460
  112OSM    H6F11592   3.497   1.282   6.734  1.4160  0.1682 -0.7445
  112OSM    H6G11593   3.430   1.333   6.590 -1.4120 -0.4428  0.3002
  112OSM    C7F11594   3.295   1.354   6.757 -0.2721  0.7042 -0.0128
  112OSM    H7F11595   3.252   1.454   6.737  0.2268  1.0520  0.6015
  112OSM    H7G11596   3.299   1.345   6.868  0.3115  0.7054 -0.0294
  112OSM    C8F11597   3.211   1.243   6.688 -0.2319  0.2278  0.0012
  112OSM    H8F11598   3.263   1.145   6.679  0.8768  0.7089  1.0299
  112OSM    H8G11599   3.206   1.271   6.581  3.3506  0.3276 -0.2391
  112OSM    C9F11600   3.079   1.213   6.753  0.2748  0.4117 -0.4980
  112OSM    H9F11601   3.002   1.290   6.735  0.6856  0.5892 -1.6328
  112OSM   C10F11602   3.039   1.113   6.842 -0.1047 -0.1791  0.2698
  112OSM   H10F11603   2.931   1.102   6.861 -0.5837 -2.6843 -3.0645
  112OSM   C11F11604   3.122   0.997   6.887  0.4571  0.7553 -0.6845
  112OSM   H11F11605   3.113   0.981   6.997 -1.3966 -1.1848 -1.0785
  112OSM   H11G11606   3.226   1.024   6.857  0.2002 -1.1706 -3.6705
  112OSM   C12F11607   3.100   0.863   6.818 -0.5102 -0.3655  0.6652
  112OSM   H12F11608   3.000   0.823   6.846  0.6061 -2.4660  1.9098
  112OSM   H12G11609   3.162   0.776   6.848 -2.7467 -1.9818  0.8439
  112OSM   C13F11610   3.113   0.885   6.667  0.2544  0.5385  0.2156
  112OSM   H13F11611   3.209   0.938   6.647  1.1741 -0.8809  0.6500
  112OSM   H13G11612   3.026   0.935   6.621 -1.0714  0.9576  3.0042
  112OSM   C14F11613   3.139   0.754   6.594 -0.7259 -0.0136 -0.1032
  112OSM   H14F11614   3.075   0.664   6.604  1.6119 -1.7540 -0.0496
  112OSM   H14G11615   3.235   0.708   6.627  1.0518  1.0202 -3.3507
  112OSM   C15F11616   3.143   0.774   6.440 -0.5243  1.1913 -0.2723
  112OSM   H15F11617   3.241   0.816   6.407  0.4009 -0.9707 -0.4250
  112OSM   H15G11618   3.064   0.843   6.402 -0.2156  1.1160 -1.0656
  112OSM   C16F11619   3.115   0.637   6.373 -0.0213 -0.4216 -0.2965
  112OSM   H16F11620   3.030   0.578   6.413 -0.3794 -0.9622 -1.7721
  112OSM   H16G11621   3.196   0.565   6.397  1.3847  0.4013 -2.2998
  112OSM   C17F11622   3.113   0.627   6.224  0.0402 -0.1251  0.3803
  112OSM   H17F11623   3.028   0.688   6.185  1.2082  0.8207 -0.7477
  112OSM   H17G11624   3.090   0.527   6.182 -0.2843 -0.5491  1.5246
  112OSM   C18F11625   3.231   0.681   6.157 -0.2887 -0.0846  0.1090
  112OSM   H18F11626   3.232   0.660   6.048  0.0017 -0.7768  0.2378
  112OSM   H18G11627   3.322   0.640   6.206 -0.3602 -0.8392 -0.3714
  112OSM   H18H11628   3.242   0.791   6.168  0.4518 -0.1073 -0.2599
  113OSM      N11629   1.825   1.718   7.661 -0.3464  0.3199 -0.3605
  113OSM    C1511630   1.799   1.583   7.716  1.0485 -0.1456 -0.2116
  113OSM   H15A11631   1.826   1.506   7.645 -0.7981 -0.8273 -0.2339
  113OSM   H15B11632   1.696   1.564   7.741  1.3135 -0.0583  0.9913
  113OSM   H15C11633   1.858   1.566   7.805  0.5282 -2.6909 -0.2784
  113OSM    C1411634   1.737   1.754   7.553  0.6290 -0.3012  0.2871
  113OSM   H14A11635   1.736   1.857   7.520 -2.5382  0.3999  2.1220
  113OSM   H14B11636   1.635   1.750   7.590  0.6416  2.4772  0.9110
  113OSM   H14C11637   1.751   1.691   7.467 -0.0153  1.1878 -0.9447
  113OSM    C1311638   1.805   1.814   7.781 -0.1821  0.5240  0.0784
  113OSM   H13A11639   1.708   1.794   7.824  0.6336 -0.5495  1.5168
  113OSM   H13B11640   1.811   1.917   7.750  1.3050  0.7113  0.9188
  113OSM   H13C11641   1.885   1.801   7.852  2.5136 -1.7753 -3.0356
  113OSM    C1211642   1.975   1.727   7.623  0.1229 -0.2237  0.0730
  113OSM   H12A11643   2.032   1.732   7.715 -2.5401 -0.7549  1.8725
  113OSM   H12B11644   1.999   1.822   7.577 -0.8454  0.6229  1.2336
  113OSM    C1111645   2.035   1.626   7.524  0.1327 -0.5237  0.1654
  113OSM   H11A11646   2.005   1.523   7.550 -0.5516 -0.2912  0.3200
  113OSM   H11B11647   2.143   1.613   7.546 -0.2623 -1.0625  1.9384
  113OSM      P11648   2.091   1.724   7.287  0.0196 -0.5873  0.1940
  113OSM    O1311649   2.010   1.835   7.231  0.0667 -0.0837  0.2211
  113OSM    O1411650   2.225   1.753   7.350  0.3235 -0.5042 -0.4300
  113OSM    O1111651   2.113   1.612   7.175  0.5749 -0.3335  0.0759
  113OSM    O1211652   2.000   1.652   7.389 -0.0663 -0.0936 -0.1785
  113OSM    C1S11653   1.988   1.564   7.111 -0.0568  0.3033  0.1496
  113OSM    H1S11654   1.922   1.634   7.054  0.9015  0.1642 -1.1524
  113OSM    H1T11655   1.928   1.510   7.187 -1.7288  0.6547 -0.8541
  113OSM     NF11656   1.893   1.381   6.980  0.6377  0.1203 -0.0049
  113OSM    HNF11657   1.879   1.297   7.033 -0.7770  0.0755 -0.4236
  113OSM    C2S11658   2.016   1.449   7.011 -0.1837  0.5666  0.0640
  113OSM    H2S11659   2.049   1.494   6.915  0.7421  0.1366  0.1577
  113OSM    C3S11660   2.131   1.344   7.038  0.1825  0.0601  0.0663
  113OSM    H3S11661   2.096   1.271   7.114 -0.3257  0.7865  0.5359
  113OSM     O311662   2.247   1.395   7.096 -0.4411 -0.4687 -0.0832
  113OSM    HO311663   2.228   1.488   7.105 -2.5011 -0.9118  0.6940
  113OSM    C4S11664   2.168   1.269   6.909  0.9790  0.3913 -0.2974
  113OSM    H4S11665   2.131   1.165   6.914 -1.8536  1.3654  1.4366
  113OSM    C5S11666   2.236   1.307   6.800 -0.0597  0.6378 -0.6863
  113OSM    H5S11667   2.282   1.407   6.801  0.3301  0.4914  1.4333
  113OSM    C6S11668   2.267   1.206   6.687  0.2913  0.2313 -0.1451
  113OSM    H6S11669   2.220   1.108   6.712 -1.9802  1.4461  0.6268
  113OSM    H6T11670   2.375   1.184   6.679  0.6534  2.2073 -1.1055
  113OSM    C7S11671   2.219   1.260   6.545 -0.3584 -0.5688  0.7653
  113OSM    H7S11672   2.274   1.353   6.521 -0.3554 -0.7852 -0.1108
  113OSM    H7T11673   2.108   1.269   6.547 -0.2477  1.3114  0.1046
  113OSM    C8S11674   2.222   1.155   6.430 -0.6643  0.1952 -0.2607
  113OSM    H8S11675   2.157   1.072   6.464 -0.4048 -0.7118 -1.9039
  113OSM    H8T11676   2.328   1.121   6.421  0.6831  3.9781 -0.4751
  113OSM    C9S11677   2.175   1.205   6.292  0.1452  0.4084  0.4908
  113OSM    H9S11678   2.242   1.288   6.259  1.6131 -0.7238  0.5469
  113OSM    H9T11679   2.074   1.249   6.306 -0.1271 -0.2840  0.7096
  113OSM   C10S11680   2.171   1.096   6.188 -0.0085 -0.8825 -0.3395
  113OSM   H10S11681   2.091   1.022   6.211  0.8786 -1.4859  0.8834
  113OSM   H10T11682   2.268   1.041   6.194  1.5687  1.8222  0.5904
  113OSM   C11S11683   2.149   1.149   6.047  0.2188 -0.1373 -0.0117
  113OSM   H11S11684   2.056   1.210   6.050 -0.4615 -1.1649  0.4760
  113OSM   H11T11685   2.135   1.071   5.969  1.2373 -1.7211  1.3157
  113OSM   C12S11686   2.267   1.227   5.998 -0.1801  0.1054  0.4210
  113OSM   H12S11687   2.354   1.161   6.021  0.8004  0.4461 -1.9536
  113OSM   H12T11688   2.291   1.327   6.041 -0.3492  0.0514  0.6453
  113OSM   C13S11689   2.284   1.234   5.844 -0.3538 -0.7628  0.4637
  113OSM   H13S11690   2.303   1.132   5.806  0.5548 -1.2068  2.0022
  113OSM   H13T11691   2.375   1.295   5.823 -2.1099  2.1179  0.6954
  113OSM   C14S11692   2.171   1.309   5.764  0.4911 -0.1821 -0.2007
  113OSM   H14S11693   2.153   1.405   5.816 -0.2500 -0.5515  0.2367
  113OSM   H14T11694   2.082   1.244   5.775  0.3965  0.3507  3.0008
  113OSM   C15S11695   2.213   1.333   5.616  0.0300 -0.6210 -0.1633
  113OSM   H15S11696   2.243   1.242   5.560 -1.1836 -0.6485 -0.8057
  113OSM   H15T11697   2.294   1.408   5.609 -0.2535 -0.2618  0.3528
  113OSM   C16S11698   2.107   1.397   5.537 -0.1820 -0.2605  0.7756
  113OSM   H16S11699   2.101   1.504   5.565  1.2412 -0.3193  1.3587
  113OSM   H16T11700   2.009   1.346   5.551 -0.0539 -2.3803 -3.8192
  113OSM   C17S11701   2.126   1.384   5.381 -0.0210  0.2634  0.2961
  113OSM   H17S11702   2.167   1.283   5.363  2.5447  0.8963  2.0351
  113OSM   H17T11703   2.209   1.458   5.376  0.3186 -0.1655 -0.5820
  113OSM   C18S11704   2.011   1.430   5.294 -0.0074  0.7293 -0.5184
  113OSM   H18S11705   2.053   1.481   5.205 -0.4326 -0.5354 -1.4720
  113OSM   H18T11706   1.945   1.500   5.348 -0.6088 -0.9261  0.9993
  113OSM   H18U11707   1.950   1.344   5.258 -0.6794 -0.7842  3.6733
  113OSM    C1F11708   1.794   1.443   6.923  0.2474 -0.2963 -0.1775
  113OSM     OF11709   1.814   1.544   6.855  0.4526 -0.4376 -0.4481
  113OSM    C2F11710   1.660   1.383   6.938  0.6972 -0.8534 -0.5537
  113OSM    H2F11711   1.618   1.412   7.037  0.7613 -2.3593 -0.0540
  113OSM    H2G11712   1.659   1.272   6.935  0.6326 -0.8888  0.5701
  113OSM    C3F11713   1.551   1.432   6.843  0.7696 -0.4535 -0.0038
  113OSM    H3F11714   1.539   1.542   6.843 -1.1739 -0.5889 -2.6085
  113OSM    H3G11715   1.454   1.391   6.877 -0.5809  1.6009 -1.2071
  113OSM    C4F11716   1.566   1.403   6.692  0.3996  0.3284 -0.3731
  113OSM    H4F11717   1.564   1.293   6.675 -0.9448  0.1438  0.8193
  113OSM    H4G11718   1.659   1.449   6.651  0.7110  0.5733  0.5931
  113OSM    C5F11719   1.447   1.459   6.611  0.1440  0.4807  0.5920
  113OSM    H5F11720   1.457   1.569   6.614  0.7156  0.4721 -0.6424
  113OSM    H5G11721   1.357   1.427   6.668 -0.3467 -1.6691 -1.2496
  113OSM    C6F11722   1.436   1.401   6.467 -0.1059 -0.1097 -0.0453
  113OSM    H6F11723   1.446   1.291   6.464 -1.2078 -0.2050 -1.4538
  113OSM    H6G11724   1.518   1.443   6.405 -1.4472  0.3236 -1.5940
  113OSM    C7F11725   1.307   1.432   6.390 -0.6508  0.1984 -0.1168
  113OSM    H7F11726   1.279   1.538   6.409  1.3757  0.3962  2.2387
  113OSM    H7G11727   1.228   1.367   6.432  1.7311 -2.4317  0.5790
  113OSM    C8F11728   1.323   1.435   6.234  0.0080  0.3092  0.1980
  113OSM    H8F11729   1.393   1.519   6.212  0.4357  0.1033  0.7663
  113OSM    H8G11730   1.217   1.455   6.206 -0.5719 -0.3886  1.7699
  113OSM    C9F11731   1.366   1.300   6.177 -0.7415 -0.6471 -0.0015
  113OSM    H9F11732   1.420   1.233   6.246  0.6654 -0.1737 -0.6217
  113OSM   C10F11733   1.337   1.264   6.058 -0.4241  0.1787 -0.2214
  113OSM   H10F11734   1.393   1.186   6.005 -1.8577 -1.1037  0.1051
  113OSM   C11F11735   1.245   1.337   5.961 -0.4457  0.1918 -0.3996
  113OSM   H11F11736   1.183   1.418   6.006  0.4028  0.3646  0.5054
  113OSM   H11G11737   1.172   1.260   5.928 -0.0189 -0.2899 -0.2203
  113OSM   C12F11738   1.324   1.372   5.835  0.3228  0.6228 -0.1646
  113OSM   H12F11739   1.365   1.273   5.806  1.4690  0.5739  1.4466
  113OSM   H12G11740   1.409   1.441   5.853  2.8054 -1.8745 -1.5086
  113OSM   C13F11741   1.224   1.431   5.735 -0.8623 -0.1604  0.9710
  113OSM   H13F11742   1.188   1.529   5.773 -2.0328 -0.1409 -0.1174
  113OSM   H13G11743   1.134   1.365   5.737 -1.4067  0.5713  1.0343
  113OSM   C14F11744   1.291   1.445   5.596  0.4016 -0.3582  0.4250
  113OSM   H14F11745   1.362   1.360   5.583  0.9670  0.1942 -0.1584
  113OSM   H14G11746   1.360   1.531   5.591  1.0394 -0.9255 -1.4156
  113OSM   C15F11747   1.196   1.448   5.471 -0.6494 -0.0507 -0.6580
  113OSM   H15F11748   1.270   1.444   5.388 -0.5531  0.2300 -0.5864
  113OSM   H15G11749   1.141   1.544   5.475 -1.6579 -0.5676 -1.7068
  113OSM   C16F11750   1.098   1.337   5.460  0.0269  0.7335 -0.1076
  113OSM   H16F11751   1.026   1.338   5.545 -0.9955 -1.7330 -0.8541
  113OSM   H16G11752   1.140   1.235   5.470 -4.2405 -1.1923  0.8170
  113OSM   C17F11753   1.009   1.340   5.335 -0.0554  0.5219  0.3423
  113OSM   H17F11754   0.936   1.256   5.333  0.5822 -0.0494  0.3926
  113OSM   H17G11755   1.073   1.317   5.247  0.2308  0.2884  0.6088
  113OSM   C18F11756   0.930   1.467   5.312  0.7521 -0.8813  0.5188
  113OSM   H18F11757   0.852   1.471   5.391  0.1346 -0.3198 -0.1167
  113OSM   H18G11758   0.868   1.455   5.221  1.5830  2.0744 -0.5368
  113OSM   H18H11759   0.987   1.562   5.308  1.2738 -1.0353  2.6926
  114OSM      N11760   0.953   1.201   7.558  0.4513  0.0394  0.3102
  114OSM    C1511761   1.013   1.139   7.680 -0.5376 -0.5784  0.2959
  114OSM   H15A11762   1.025   1.211   7.760 -0.7006 -0.2127 -0.0126
  114OSM   H15B11763   1.113   1.101   7.662 -0.5422 -2.2435  3.1078
  114OSM   H15C11764   0.955   1.060   7.725  0.0341 -0.2089  1.7609
  114OSM    C1411765   0.940   1.095   7.453 -0.2630  0.2336  0.6021
  114OSM   H14A11766   1.035   1.046   7.439 -0.2786  0.9581 -2.9358
  114OSM   H14B11767   0.890   1.123   7.362  0.8339 -1.2301 -0.5141
  114OSM   H14C11768   0.871   1.020   7.490 -0.6801  0.1004 -0.4157
  114OSM    C1311769   0.809   1.246   7.580 -0.4656  0.2960  1.0858
  114OSM   H13A11770   0.744   1.164   7.606  0.7129 -0.5794  1.3212
  114OSM   H13B11771   0.770   1.292   7.490  1.2566  3.3008  1.7105
  114OSM   H13C11772   0.810   1.319   7.660 -0.0853  1.6612 -0.1188
  114OSM    C1211773   1.047   1.312   7.523  0.5326 -0.1243  0.5784
  114OSM   H12A11774   1.144   1.270   7.498  2.0941  1.6124  3.1433
  114OSM   H12B11775   1.065   1.369   7.613 -1.1048  0.0077  0.8349
  114OSM    C1111776   1.017   1.421   7.414 -0.7385  0.1406  0.0659
  114OSM   H11A11777   1.012   1.357   7.323  0.8481 -0.3285  0.2711
  114OSM   H11B11778   1.095   1.496   7.391 -0.2073  0.2152  1.9644
  114OSM      P11779   0.873   1.616   7.506  0.1345 -0.5658 -0.2754
  114OSM    O1311780   0.782   1.586   7.623  0.0593 -0.5442 -0.5644
  114OSM    O1411781   0.997   1.686   7.538  0.1655 -0.4917  0.0184
  114OSM    O1111782   0.794   1.695   7.401  0.1466  0.1264  0.0261
  114OSM    O1211783   0.888   1.481   7.433  0.3719  0.2894 -0.1974
  114OSM    C1S11784   0.858   1.764   7.290  0.0772  0.3512  0.6059
  114OSM    H1S11785   0.968   1.770   7.300  0.2336 -1.4206  0.2336
  114OSM    H1T11786   0.809   1.864   7.288  0.0407  0.3171 -0.3172
  114OSM     NF11787   0.909   1.731   7.053 -0.4819 -0.0242  0.7035
  114OSM    HNF11788   0.851   1.768   6.981 -0.7208 -0.2936  0.7583
  114OSM    C2S11789   0.833   1.679   7.163  0.4541 -0.5465  0.0007
  114OSM    H2S11790   0.876   1.578   7.176  0.0692 -0.5887  0.9885
  114OSM    C3S11791   0.676   1.663   7.141 -0.2881  0.1413  0.0421
  114OSM    H3S11792   0.623   1.760   7.129  0.0834  0.5467  1.5253
  114OSM     O311793   0.610   1.584   7.237 -0.7174 -0.3518 -0.4811
  114OSM    HO311794   0.681   1.565   7.299 -0.6195 -2.3092 -1.1160
  114OSM    C4S11795   0.655   1.586   7.020 -0.4446 -0.1211 -0.2618
  114OSM    H4S11796   0.698   1.485   7.018 -0.5091 -0.2071 -3.5773
  114OSM    C5S11797   0.592   1.634   6.912  0.1082 -0.0202  0.5234
  114OSM    H5S11798   0.560   1.738   6.923 -0.7399 -0.2763  0.5365
  114OSM    C6S11799   0.564   1.556   6.789  0.0715  0.4758  0.3499
  114OSM    H6S11800   0.459   1.569   6.757  0.6312  0.1494 -1.7514
  114OSM    H6T11801   0.587   1.448   6.798 -0.9500  0.0634 -1.5533
  114OSM    C7S11802   0.639   1.609   6.667 -0.1532  0.4263  1.1133
  114OSM    H7S11803   0.748   1.606   6.689  0.2267 -2.4622 -0.6849
  114OSM    H7T11804   0.613   1.717   6.653 -1.6582  0.1343  1.4900
  114OSM    C8S11805   0.615   1.519   6.547  0.7836  0.6159  0.3119
  114OSM    H8S11806   0.628   1.414   6.579  0.4436  1.1672  2.4677
  114OSM    H8T11807   0.686   1.535   6.463 -0.3368  0.8364 -0.6172
  114OSM    C9S11808   0.471   1.529   6.500  0.5179 -0.2585  0.6702
  114OSM    H9S11809   0.448   1.637   6.502  3.3128  0.3964  1.0259
  114OSM    H9T11810   0.400   1.461   6.553 -2.8395  2.4529  0.0394
  114OSM   C10S11811   0.455   1.488   6.346  0.3877 -0.3249 -0.7782
  114OSM   H10S11812   0.345   1.492   6.331  0.4958  1.8644 -1.4250
  114OSM   H10T11813   0.500   1.392   6.314 -0.4885 -0.2225 -2.4573
  114OSM   C11S11814   0.499   1.594   6.247 -1.0898  0.0516  0.2841
  114OSM   H11S11815   0.609   1.604   6.255 -1.0327  0.7858 -1.1653
  114OSM   H11T11816   0.457   1.691   6.281 -0.7750 -0.5722  2.6315
  114OSM   C12S11817   0.464   1.567   6.101 -0.0826  0.0525 -0.5683
  114OSM   H12S11818   0.356   1.541   6.104  0.1835 -1.0419  0.1840
  114OSM   H12T11819   0.527   1.480   6.073  0.1847 -0.4522  1.4143
  114OSM   C13S11820   0.479   1.677   5.996 -0.6822 -0.5243 -1.1408
  114OSM   H13S11821   0.400   1.750   6.022 -1.5388 -1.6569 -0.4633
  114OSM   H13T11822   0.454   1.638   5.895 -1.9538 -0.2979 -0.9210
  114OSM   C14S11823   0.622   1.737   6.000  0.8308  0.2183  0.2426
  114OSM   H14S11824   0.656   1.772   6.099 -0.0533  0.4150  0.4791
  114OSM   H14T11825   0.618   1.831   5.942 -0.7673 -1.4205 -2.5790
  114OSM   C15S11826   0.738   1.649   5.945 -0.5074  0.1963 -0.4715
  114OSM   H15S11827   0.712   1.605   5.846 -0.1887 -1.1112  0.0039
  114OSM   H15T11828   0.754   1.561   6.010  2.6757  1.3893  0.5439
  114OSM   C16S11829   0.875   1.724   5.950  0.0321  0.1774  0.7283
  114OSM   H16S11830   0.916   1.735   6.053  0.4737 -0.4199  0.6217
  114OSM   H16T11831   0.853   1.821   5.901 -1.0375 -0.8918 -1.0227
  114OSM   C17S11832   0.978   1.652   5.858 -0.0063  0.1608  0.4171
  114OSM   H17S11833   0.986   1.552   5.904 -2.0900  1.6053  4.4434
  114OSM   H17T11834   1.066   1.720   5.856 -1.0387  1.5442 -1.0305
  114OSM   C18S11835   0.946   1.633   5.708 -0.2132 -0.1209 -0.6835
  114OSM   H18S11836   0.894   1.539   5.681 -0.2211 -0.6365  1.0481
  114OSM   H18T11837   1.050   1.622   5.671  0.1914 -1.6590  0.8242
  114OSM   H18U11838   0.898   1.724   5.664 -0.0884 -0.1402 -0.8601
  114OSM    C1F11839   1.043   1.752   7.053  0.5967  0.0053  0.1612
  114OSM     OF11840   1.118   1.701   7.135 -0.1437 -0.0946  0.1466
  114OSM    C2F11841   1.090   1.854   6.956  0.3260 -0.5405 -0.0832
  114OSM    H2F11842   1.161   1.922   7.008  0.6001 -0.0049 -1.1157
  114OSM    H2G11843   1.001   1.911   6.922 -1.1386 -2.1616  0.9160
  114OSM    C3F11844   1.167   1.785   6.843 -0.5286  0.4157  0.7067
  114OSM    H3F11845   1.259   1.732   6.879 -1.1666 -1.1357  0.1405
  114OSM    H3G11846   1.205   1.864   6.775  0.1808  0.0483  0.6632
  114OSM    C4F11847   1.096   1.701   6.740  1.0325  0.4395  0.5239
  114OSM    H4F11848   1.029   1.621   6.777  0.4545 -0.1655 -1.6942
  114OSM    H4G11849   1.174   1.649   6.680  1.4248  1.9497 -0.3336
  114OSM    C5F11850   1.026   1.785   6.629  0.7412  0.1800  0.4684
  114OSM    H5F11851   1.100   1.856   6.587 -0.9895  0.7795 -1.7517
  114OSM    H5G11852   0.940   1.835   6.677  0.0004 -0.6804  0.0532
  114OSM    C6F11853   0.984   1.691   6.509  0.0295  0.0725 -0.3442
  114OSM    H6F11854   0.898   1.634   6.551  0.1114  1.3103  1.6228
  114OSM    H6G11855   1.066   1.618   6.493  0.5580  0.9218 -1.7311
  114OSM    C7F11856   0.931   1.759   6.381  0.3512 -0.0515 -0.1460
  114OSM    H7F11857   0.857   1.695   6.328 -0.3226  1.7066 -1.4247
  114OSM    H7G11858   1.012   1.795   6.314  0.4603  0.4455  0.2482
  114OSM    C8F11859   0.853   1.888   6.406 -0.3297 -0.1444  0.3566
  114OSM    H8F11860   0.924   1.956   6.459 -0.1660  0.4414 -0.5958
  114OSM    H8G11861   0.772   1.862   6.478  1.3323 -0.8623  2.0702
  114OSM    C9F11862   0.788   1.949   6.283  0.6047  0.3444 -0.3786
  114OSM    H9F11863   0.685   1.913   6.266  0.4296 -1.1189  2.9930
  114OSM   C10F11864   0.841   2.034   6.191  1.1087  0.7640 -0.2064
  114OSM   H10F11865   0.778   2.061   6.105 -0.2089 -0.1747  0.4335
  114OSM   C11F11866   0.982   2.085   6.184 -0.0514  0.6960 -0.0090
  114OSM   H11F11867   1.045   2.023   6.252  0.4972 -0.2979 -1.3703
  114OSM   H11G11868   0.984   2.186   6.229  1.6526  0.9800 -0.6484
  114OSM   C12F11869   1.046   2.069   6.044 -0.2087  0.3308 -0.6988
  114OSM   H12F11870   1.038   1.961   6.020 -0.8858 -0.0452  1.0865
  114OSM   H12G11871   1.151   2.101   6.059  0.5022 -2.3301  0.6815
  114OSM   C13F11872   0.990   2.162   5.939 -0.1880  0.0403  0.2311
  114OSM   H13F11873   0.972   2.262   5.983 -0.5927  0.0356  0.0778
  114OSM   H13G11874   0.895   2.115   5.904  0.5863 -0.0543 -1.8685
  114OSM   C14F11875   1.090   2.165   5.826 -0.3783  0.5393  0.8723
  114OSM   H14F11876   1.195   2.182   5.857  0.7934 -1.4118 -1.5731
  114OSM   H14G11877   1.052   2.249   5.764 -1.4580 -0.0385  0.7161
  114OSM   C15F11878   1.090   2.038   5.735 -0.2029  0.6220 -0.0892
  114OSM   H15F11879   0.985   2.011   5.710  0.8383 -1.7158 -2.3540
  114OSM   H15G11880   1.122   1.954   5.800  0.7515  2.1211  1.4735
  114OSM   C16F11881   1.169   2.044   5.602  0.6581  0.6212 -0.8159
  114OSM   H16F11882   1.277   2.059   5.621  0.5852  2.5082 -1.6098
  114OSM   H16G11883   1.138   2.137   5.548  0.9789  1.2058 -0.0145
  114OSM   C17F11884   1.149   1.928   5.514 -0.5931 -1.2549  0.1562
  114OSM   H17F11885   1.043   1.906   5.488 -0.2689 -0.6364 -1.8817
  114OSM   H17G11886   1.175   1.833   5.565 -0.3193 -1.9245 -1.1740
  114OSM   C18F11887   1.208   1.950   5.371 -0.0441  0.9970  0.5735
  114OSM   H18F11888   1.153   2.027   5.311  0.4557  0.3270 -0.7697
  114OSM   H18G11889   1.197   1.863   5.303  0.1946  0.5317  1.1267
  114OSM   H18H11890   1.310   1.993   5.371  0.6043 -0.4653 -0.1008
  115OSM      N11891   0.336   4.363   7.912  0.3552 -0.0665 -0.4066
  115OSM    C1511892   0.208   4.338   7.993  0.0291  0.4391  0.1564
  115OSM   H15A11893   0.218   4.314   8.098  1.4861 -1.6406 -0.3822
  115OSM   H15B11894   0.151   4.259   7.945  0.4218 -0.1791  0.6788
  115OSM   H15C11895   0.143   4.424   7.984 -1.3649 -0.4529  1.1791
  115OSM    C1411896   0.423   4.460   7.986 -0.4339 -0.3169 -0.0010
  115OSM   H14A11897   0.443   4.423   8.085  0.0403 -1.4236 -0.4867
  115OSM   H14B11898   0.381   4.559   7.985 -2.3868 -1.1038  0.0696
  115OSM   H14C11899   0.518   4.455   7.934  0.3064 -1.3198  1.3676
  115OSM    C1311900   0.423   4.238   7.905  0.1852 -1.0760 -0.2629
  115OSM   H13A11901   0.468   4.222   8.002  1.4281 -1.0082 -0.8156
  115OSM   H13B11902   0.503   4.252   7.835 -1.2862  2.4608 -1.4600
  115OSM   H13C11903   0.355   4.167   7.860 -1.4815  0.4050 -0.1813
  115OSM    C1211904   0.307   4.416   7.774 -0.6313 -0.3319 -0.4398
  115OSM   H12A11905   0.401   4.459   7.743 -0.5784 -1.8620 -2.6067
  115OSM   H12B11906   0.240   4.501   7.775 -0.8432 -0.3912 -3.1110
  115OSM    C1111907   0.245   4.315   7.667 -0.5693 -0.0464 -0.4534
  115OSM   H11A11908   0.332   4.248   7.656 -0.2584  0.4772 -1.3130
  115OSM   H11B11909   0.226   4.360   7.567 -2.0435  0.2332 -0.0787
  115OSM      P11910   0.072   4.109   7.694  0.2011  0.6235 -0.0722
  115OSM    O1311911   0.086   4.043   7.824 -0.0934  0.3523  0.4483
  115OSM    O1411912  -0.061   4.114   7.630 -0.4491  0.7878  0.6359
  115OSM    O1111913   0.183   4.062   7.596  0.0058 -0.3931  0.3764
  115OSM    O1211914   0.126   4.253   7.716 -0.5273  0.1501  0.4599
  115OSM    C1S11915   0.161   3.952   7.506  0.2461 -0.0069  0.1222
  115OSM    H1S11916   0.053   3.939   7.483 -0.0647  1.2701  0.7571
  115OSM    H1T11917   0.192   3.859   7.558 -0.1259  0.3841  1.0559
  115OSM     NF11918   0.169   3.893   7.272 -1.2115  0.4827  0.5093
  115OSM    HNF11919   0.224   3.818   7.236 -0.4815  1.4346 -0.3781
  115OSM    C2S11920   0.237   3.971   7.370  0.1605  0.5091 -0.5217
  115OSM    H2S11921   0.227   4.078   7.345 -0.1486  0.8654  1.0275
  115OSM    C3S11922   0.389   3.961   7.381  0.3439  0.0343  1.1277
  115OSM    H3S11923   0.420   3.857   7.404  2.0746 -0.2675 -2.0255
  115OSM     O311924   0.440   4.039   7.486  0.0176 -0.7232 -0.4188
  115OSM    HO311925   0.378   4.036   7.559 -0.6282  2.1313 -0.7235
  115OSM    C4S11926   0.440   3.987   7.245  0.3073  0.0637  1.6394
  115OSM    H4S11927   0.440   3.897   7.181  1.5827  2.0140 -1.3519
  115OSM    C5S11928   0.481   4.105   7.189  0.4942  1.1533  0.1394
  115OSM    H5S11929   0.477   4.196   7.252 -2.1473  0.7014  0.7144
  115OSM    C6S11930   0.533   4.144   7.048  0.0890  0.4513  0.6709
  115OSM    H6S11931   0.639   4.174   7.053 -0.5389  2.9118  0.3087
  115OSM    H6T11932   0.473   4.227   7.005  0.3907  1.0578  1.3991
  115OSM    C7S11933   0.523   4.025   6.950 -0.3234 -0.6512 -0.6370
  115OSM    H7S11934   0.426   3.974   6.967 -2.0109  2.8021  1.3323
  115OSM    H7T11935   0.606   3.957   6.975 -1.8435 -2.5099 -0.4407
  115OSM    C8S11936   0.529   4.072   6.808 -0.3819  0.3413  0.2329
  115OSM    H8S11937   0.627   4.123   6.794  0.7609 -1.6673  0.5469
  115OSM    H8T11938   0.448   4.146   6.790 -0.2996  0.5821  0.8107
  115OSM    C9S11939   0.520   3.953   6.710 -0.3137 -0.0200  0.2194
  115OSM    H9S11940   0.418   3.915   6.731 -1.8192  2.8255 -1.4288
  115OSM    H9T11941   0.592   3.871   6.732 -1.5226 -1.6142 -1.4529
  115OSM   C10S11942   0.547   3.999   6.569  0.6712  0.2128 -0.0284
  115OSM   H10S11943   0.635   4.067   6.562  1.3725 -0.5546  1.0617
  115OSM   H10T11944   0.471   4.075   6.542  1.2513  0.0604 -2.3178
  115OSM   C11S11945   0.537   3.883   6.463 -0.1085 -0.8488 -0.2255
  115OSM   H11S11946   0.436   3.840   6.481  0.4470 -3.0781 -1.9062
  115OSM   H11T11947   0.602   3.796   6.488  2.0297  0.2358 -1.6212
  115OSM   C12S11948   0.560   3.925   6.324  0.6140 -0.4481  0.1919
  115OSM   H12S11949   0.664   3.960   6.304  0.4943  0.4591  1.0589
  115OSM   H12T11950   0.491   4.009   6.303 -2.6679 -2.9777  0.0310
  115OSM   C13S11951   0.520   3.810   6.225  0.4582  0.7757  0.2178
  115OSM   H13S11952   0.415   3.776   6.234  0.1162  0.2048 -3.7601
  115OSM   H13T11953   0.596   3.731   6.241  0.4805  1.0882  1.7844
  115OSM   C14S11954   0.527   3.858   6.076 -0.1961  0.1853 -0.8686
  115OSM   H14S11955   0.633   3.880   6.056  0.2736  0.1764  1.3328
  115OSM   H14T11956   0.471   3.953   6.063  2.3485  2.2681  1.9462
  115OSM   C15S11957   0.469   3.758   5.973  0.5893  0.0674 -0.5329
  115OSM   H15S11958   0.363   3.738   6.002  0.7147  0.3376  0.1314
  115OSM   H15T11959   0.531   3.667   5.985 -1.7967 -1.4708  1.1340
  115OSM   C16S11960   0.475   3.812   5.834  0.0654  0.0132 -0.2656
  115OSM   H16S11961   0.579   3.841   5.808  0.0255 -0.4650 -0.9740
  115OSM   H16T11962   0.430   3.914   5.835 -1.7127 -0.7410  0.4320
  115OSM   C17S11963   0.425   3.710   5.724 -0.0925  0.5421  0.3160
  115OSM   H17S11964   0.328   3.670   5.758  0.6235 -0.2053  1.5827
  115OSM   H17T11965   0.496   3.625   5.717  1.3412  1.8135 -2.5675
  115OSM   C18S11966   0.421   3.775   5.587  0.1369  0.1357 -0.2188
  115OSM   H18S11967   0.517   3.826   5.564 -1.1975  2.3415 -1.1514
  115OSM   H18T11968   0.330   3.837   5.573  0.2747 -0.0536 -2.2606
  115OSM   H18U11969   0.421   3.700   5.505  0.5182  2.4114 -2.4098
  115OSM    C1F11970   0.048   3.919   7.215 -0.6165  0.1990 -0.1422
  115OSM     OF11971  -0.025   4.007   7.252 -0.2705 -0.1898 -0.2794
  115OSM    C2F11972   0.002   3.830   7.103 -0.2534 -0.7781 -0.2847
  115OSM    H2F11973  -0.050   3.740   7.141 -1.7568 -0.5071 -1.6073
  115OSM    H2G11974   0.090   3.802   7.041  0.3943 -0.5280  0.4899
  115OSM    C3F11975  -0.088   3.910   7.006  0.6697  0.1918  0.2228
  115OSM    H3F11976  -0.034   4.001   6.972  1.5397 -0.5845 -0.5263
  115OSM    H3G11977  -0.189   3.929   7.048  0.1092 -1.3260 -0.3665
  115OSM    C4F11978  -0.115   3.829   6.875  0.1699  0.5122  0.0150
  115OSM    H4F11979  -0.152   3.735   6.921 -0.8704  0.3347 -1.1371
  115OSM    H4G11980  -0.019   3.807   6.823  0.2908 -0.6602  0.6965
  115OSM    C5F11981  -0.218   3.894   6.781  0.2668  0.0026 -0.1033
  115OSM    H5F11982  -0.155   3.983   6.759  1.6478 -0.3533  2.0935
  115OSM    H5G11983  -0.306   3.934   6.836  0.6065 -1.3492  1.5016
  115OSM    C6F11984  -0.257   3.800   6.671  0.4807 -0.3759  0.3439
  115OSM    H6F11985  -0.319   3.715   6.707 -3.8422  1.9338 -0.9478
  115OSM    H6G11986  -0.175   3.769   6.603  1.6542  0.1658  1.4758
  115OSM    C7F11987  -0.362   3.856   6.565 -0.4080  0.2351 -0.5334
  115OSM    H7F11988  -0.456   3.879   6.620 -0.2959 -2.8961  1.2036
  115OSM    H7G11989  -0.376   3.774   6.492  3.7114 -0.4117 -0.8403
  115OSM    C8F11990  -0.303   3.962   6.474 -0.2665 -0.4500  0.3845
  115OSM    H8F11991  -0.213   3.927   6.419 -0.5645 -2.6885  1.1808
  115OSM    H8G11992  -0.274   4.042   6.546 -0.0270  1.0678 -1.3412
  115OSM    C9F11993  -0.400   4.010   6.376  0.2782 -0.1405 -0.4152
  115OSM    H9F11994  -0.491   4.052   6.422  1.6391 -0.6552  3.0253
  115OSM   C10F11995  -0.401   3.977   6.247 -0.4750 -0.4224 -0.2880
  115OSM   H10F11996  -0.474   4.025   6.180  0.2998 -0.9680 -1.5512
  115OSM   C11F11997  -0.306   3.892   6.173 -0.2464  0.0156 -0.2393
  115OSM   H11F11998  -0.245   3.823   6.235  1.1561  0.7139 -0.7841
  115OSM   H11G11999  -0.219   3.953   6.139  1.2686 -0.9342  1.6758
  115OSM   C12F12000  -0.373   3.804   6.066 -0.4782 -0.3076 -0.3627
  115OSM   H12F12001  -0.473   3.783   6.109 -0.8145  2.1456  0.2145
  115OSM   H12G12002  -0.311   3.715   6.042  0.8692  1.1625 -2.7317
  115OSM   C13F12003  -0.389   3.890   5.935 -0.3651  0.5183 -0.1686
  115OSM   H13F12004  -0.308   3.964   5.914  0.9452 -0.3225  1.6089
  115OSM   H13G12005  -0.467   3.966   5.955 -0.8652  0.2381 -1.0176
  115OSM   C14F12006  -0.444   3.805   5.817  0.2475 -0.4726  0.5637
  115OSM   H14F12007  -0.548   3.784   5.850  0.3231 -0.9795  0.4868
  115OSM   H14G12008  -0.384   3.712   5.809  1.3074  0.2371  0.0079
  115OSM   C15F12009  -0.438   3.887   5.679 -0.1869 -0.3735 -0.5774
  115OSM   H15F12010  -0.335   3.885   5.638  0.1237  0.6516  0.0954
  115OSM   H15G12011  -0.463   3.994   5.698 -0.8510 -0.7024  0.5131
  115OSM   C16F12012  -0.532   3.833   5.567  0.6249  0.1423  0.6910
  115OSM   H16F12013  -0.631   3.814   5.613 -0.1978 -0.6609 -1.3464
  115OSM   H16G12014  -0.496   3.735   5.530 -2.4478 -1.5698  1.9419
  115OSM   C17F12015  -0.538   3.928   5.447  0.3668 -0.3716 -0.2942
  115OSM   H17F12016  -0.442   3.971   5.412  1.1013 -0.8711  1.0289
  115OSM   H17G12017  -0.604   4.013   5.473  0.4057 -0.6835  0.8766
  115OSM   C18F12018  -0.607   3.869   5.322 -0.6573 -0.4453  0.2543
  115OSM   H18F12019  -0.567   3.767   5.303 -0.2157 -0.0981 -0.7966
  115OSM   H18G12020  -0.593   3.930   5.230 -0.8987  0.1977  0.6339
  115OSM   H18H12021  -0.717   3.865   5.339 -0.6657 -0.0754  0.3093
  116OSM      N12022   1.991   0.695   7.959 -0.3645 -0.1299 -0.1400
  116OSM    C1512023   2.012   0.730   8.104 -0.0544 -0.1164  0.5171
  116OSM   H15A12024   1.938   0.686   8.169 -0.6638  2.5294  1.7025
  116OSM   H15B12025   2.001   0.836   8.114 -1.0183 -0.2576  1.0096
  116OSM   H15C12026   2.109   0.706   8.145 -0.3258  1.6432  2.3304
  116OSM    C1412027   1.988   0.546   7.937 -0.3231 -0.0039  0.3614
  116OSM   H14A12028   2.033   0.494   8.020  0.1453  0.3401  0.3270
  116OSM   H14B12029   2.067   0.531   7.865 -1.2662  1.0612 -0.9620
  116OSM   H14C12030   1.887   0.513   7.919 -0.4541  1.5227 -2.1160
  116OSM    C1312031   1.855   0.753   7.919 -0.0386  0.4489  0.0479
  116OSM   H13A12032   1.852   0.860   7.925  0.7926  0.5268 -0.7770
  116OSM   H13B12033   1.770   0.716   7.975 -0.4962  0.6505 -0.5061
  116OSM   H13C12034   1.831   0.731   7.816  0.7886  0.0438 -0.0691
  116OSM    C1212035   2.103   0.764   7.891  0.3446  0.2950  0.3685
  116OSM   H12A12036   2.199   0.741   7.935 -1.0566 -1.9592  2.5365
  116OSM   H12B12037   2.081   0.869   7.897 -1.5802  0.0460 -1.3475
  116OSM    C1112038   2.124   0.726   7.738 -0.4273 -0.0284  0.6363
  116OSM   H11A12039   2.199   0.802   7.708 -1.7512  1.7148  1.5933
  116OSM   H11B12040   2.035   0.742   7.674  0.9898 -0.3601 -1.5249
  116OSM      P12041   2.322   0.560   7.738  0.1265 -0.1836  0.0729
  116OSM    O1312042   2.376   0.640   7.847  0.3953  0.0353  0.3323
  116OSM    O1412043   2.350   0.419   7.735  0.0133  0.6562 -0.3823
  116OSM    O1112044   2.374   0.624   7.604 -0.6804  0.4557  0.4141
  116OSM    O1212045   2.165   0.583   7.724 -0.7479  0.2161 -0.0935
  116OSM    C1S12046   2.316   0.594   7.472 -0.0695 -0.3345  0.5443
  116OSM    H1S12047   2.269   0.687   7.434  1.0292  0.5188  1.1847
  116OSM    H1T12048   2.235   0.519   7.475  0.0919 -0.6221 -1.1538
  116OSM     NF12049   2.343   0.509   7.238  0.0179  0.4910  0.0045
  116OSM    HNF12050   2.322   0.417   7.207 -0.1156  0.9465 -1.3549
  116OSM    C2S12051   2.410   0.527   7.361  0.4381 -0.5868 -0.2483
  116OSM    H2S12052   2.490   0.604   7.352 -0.0070 -0.1245 -0.2827
  116OSM    C3S12053   2.475   0.400   7.417 -0.0376 -0.2341  0.5538
  116OSM    H3S12054   2.404   0.320   7.446 -0.3111 -0.0160  0.4892
  116OSM     O312055   2.554   0.419   7.530  0.2340 -0.1577 -0.5322
  116OSM    HO312056   2.497   0.487   7.569  1.1328  0.1895  0.2143
  116OSM    C4S12057   2.561   0.337   7.306 -1.0580 -0.1679  0.4591
  116OSM    H4S12058   2.526   0.241   7.265  2.8111 -0.9800 -1.4555
  116OSM    C5S12059   2.680   0.386   7.263 -0.3847 -0.6038 -0.5095
  116OSM    H5S12060   2.721   0.476   7.310 -0.9000  0.6842 -2.3915
  116OSM    C6S12061   2.765   0.311   7.169  0.0036 -0.2117 -0.1282
  116OSM    H6S12062   2.811   0.230   7.229  0.9888 -0.1963 -0.8172
  116OSM    H6T12063   2.850   0.371   7.130  0.0056  0.7132  1.2574
  116OSM    C7S12064   2.706   0.251   7.043  0.4507  0.4110  0.6037
  116OSM    H7S12065   2.628   0.174   7.062 -0.7798  0.5991 -2.9073
  116OSM    H7T12066   2.788   0.196   6.991  1.2390  0.8515  1.3533
  116OSM    C8S12067   2.648   0.358   6.950  0.2220 -0.2457  0.0839
  116OSM    H8S12068   2.714   0.447   6.945  1.0886 -0.9171 -4.2768
  116OSM    H8T12069   2.551   0.389   6.994  0.7320  1.2469  0.2478
  116OSM    C9S12070   2.634   0.323   6.802  0.1395 -0.2522  0.4492
  116OSM    H9S12071   2.573   0.230   6.803 -3.2137  1.7670  1.4656
  116OSM    H9T12072   2.731   0.310   6.751  0.5121 -2.9041  1.6522
  116OSM   C10S12073   2.546   0.429   6.730  0.0572  0.4578  0.5989
  116OSM   H10S12074   2.594   0.527   6.751  2.7875 -0.7637  0.4659
  116OSM   H10T12075   2.451   0.452   6.783  0.7191  0.1714  1.9680
  116OSM   C11S12076   2.525   0.419   6.577 -0.0273  0.2664  0.0415
  116OSM   H11S12077   2.417   0.436   6.560 -0.6046 -1.0161  2.1360
  116OSM   H11T12078   2.544   0.315   6.544  3.6697  0.8577 -0.1167
  116OSM   C12S12079   2.607   0.528   6.495  0.7717  0.1836 -0.4423
  116OSM   H12S12080   2.713   0.520   6.529  1.0480  1.1527 -1.0456
  116OSM   H12T12081   2.575   0.632   6.519  0.2787  0.3863 -1.9249
  116OSM   C13S12082   2.599   0.504   6.344 -0.2380 -0.5622 -0.6402
  116OSM   H13S12083   2.514   0.558   6.298 -0.4981  1.7116  2.2433
  116OSM   H13T12084   2.572   0.396   6.335 -0.8691 -0.3286 -1.7204
  116OSM   C14S12085   2.738   0.523   6.281  0.0724 -0.1923 -0.1900
  116OSM   H14S12086   2.809   0.458   6.336  0.3147  0.7820  0.6797
  116OSM   H14T12087   2.770   0.626   6.305 -0.1075  0.0180 -0.8461
  116OSM   C15S12088   2.735   0.506   6.125  0.1185  0.4153 -0.5996
  116OSM   H15S12089   2.641   0.448   6.112  1.1063 -1.0906 -1.1909
  116OSM   H15T12090   2.823   0.446   6.095 -0.4167 -0.2912 -0.7659
  116OSM   C16S12091   2.723   0.632   6.037  0.3189 -0.5969  0.3448
  116OSM   H16S12092   2.820   0.684   6.023  0.5300 -0.8967  0.6650
  116OSM   H16T12093   2.652   0.704   6.084 -0.6110 -0.4020 -1.2854
  116OSM   C17S12094   2.672   0.604   5.891 -0.4057 -0.0294  0.0773
  116OSM   H17S12095   2.571   0.559   5.895 -0.3650 -0.0507  1.3495
  116OSM   H17T12096   2.751   0.541   5.845 -0.7615 -0.8972  0.6171
  116OSM   C18S12097   2.658   0.730   5.800  0.1356  0.2241  0.0786
  116OSM   H18S12098   2.596   0.701   5.712 -1.4203  1.3463  0.7548
  116OSM   H18T12099   2.754   0.778   5.772 -0.0939  1.3649  1.1449
  116OSM   H18U12100   2.594   0.803   5.854  1.3551  0.4343  1.2855
  116OSM    C1F12101   2.299   0.604   7.164 -0.0500  0.6291  0.5577
  116OSM     OF12102   2.323   0.723   7.190  0.6112 -0.5090 -0.2318
  116OSM    C2F12103   2.216   0.565   7.039 -0.3531  0.1131 -0.3172
  116OSM    H2F12104   2.114   0.558   7.081 -0.8327  2.3549 -0.9572
  116OSM    H2G12105   2.255   0.471   6.994  1.6455  0.2187  1.0725
  116OSM    C3F12106   2.200   0.658   6.913  0.3061  0.0059  0.5748
  116OSM    H3F12107   2.300   0.696   6.882 -0.8141  1.0393 -2.0983
  116OSM    H3G12108   2.145   0.749   6.944  0.0821 -0.8133  2.6746
  116OSM    C4F12109   2.148   0.584   6.782 -0.1372  0.3228 -0.1377
  116OSM    H4F12110   2.038   0.574   6.787 -0.0693 -1.0238 -0.8949
  116OSM    H4G12111   2.196   0.486   6.761 -0.7309  0.1314 -0.6299
  116OSM    C5F12112   2.179   0.675   6.660 -0.4465  0.2373 -0.1640
  116OSM    H5F12113   2.286   0.666   6.632 -0.3894  1.6386 -0.4617
  116OSM    H5G12114   2.160   0.783   6.678  1.2607  0.2778  1.9477
  116OSM    C6F12115   2.105   0.643   6.526  0.2974  0.3713  0.2071
  116OSM    H6F12116   1.995   0.660   6.531  0.0719 -0.6948 -0.7313
  116OSM    H6G12117   2.119   0.535   6.505 -1.4755  0.4535 -1.7209
  116OSM    C7F12118   2.161   0.716   6.395  0.2589 -0.1261 -0.0551
  116OSM    H7F12119   2.272   0.726   6.397  0.4044 -1.3096 -1.0071
  116OSM    H7G12120   2.110   0.814   6.402 -0.2588 -0.3571 -0.5394
  116OSM    C8F12121   2.112   0.658   6.259 -0.0906  0.0025  0.3577
  116OSM    H8F12122   2.064   0.740   6.201  1.6474  0.6362 -0.2481
  116OSM    H8G12123   2.024   0.593   6.275 -0.8391  1.4787  3.0278
  116OSM    C9F12124   2.210   0.578   6.178  0.3139  0.2512 -0.2664
  116OSM    H9F12125   2.250   0.487   6.225 -2.4199 -1.2261 -0.6019
  116OSM   C10F12126   2.249   0.603   6.052  0.0168  0.6200  0.0522
  116OSM   H10F12127   2.338   0.557   6.008  2.1974  3.1659  1.5537
  116OSM   C11F12128   2.198   0.716   5.960 -0.0234  0.0401 -0.2073
  116OSM   H11F12129   2.268   0.725   5.873 -0.8956 -1.0911 -1.0609
  116OSM   H11G12130   2.199   0.811   6.017  4.6551  1.0470 -1.4675
  116OSM   C12F12131   2.054   0.686   5.903 -0.3223 -0.0161  0.7426
  116OSM   H12F12132   1.978   0.663   5.981 -1.5240 -2.6471 -1.0288
  116OSM   H12G12133   2.056   0.597   5.836  3.8460 -1.1246  2.0709
  116OSM   C13F12134   2.013   0.814   5.824 -0.2370 -0.6747 -0.0795
  116OSM   H13F12135   2.054   0.906   5.872  2.7932 -1.5143 -0.8025
  116OSM   H13G12136   1.904   0.822   5.808 -0.4729 -1.9035  0.8090
  116OSM   C14F12137   2.083   0.815   5.681 -0.5991  0.4520 -0.5100
  116OSM   H14F12138   2.015   0.759   5.613 -1.6752 -1.5973  2.0776
  116OSM   H14G12139   2.181   0.765   5.695 -0.6995  0.3719 -0.0825
  116OSM   C15F12140   2.114   0.953   5.628 -0.2329 -0.2456 -0.5478
  116OSM   H15F12141   2.185   1.005   5.696  0.1051 -1.2215 -0.1409
  116OSM   H15G12142   2.019   1.011   5.631 -0.4698 -0.4338 -2.6818
  116OSM   C16F12143   2.183   0.954   5.487  0.1488 -0.4160 -0.0848
  116OSM   H16F12144   2.275   0.891   5.487 -0.4011 -1.4517 -3.7128
  116OSM   H16G12145   2.211   1.059   5.466 -0.3337 -0.3155 -0.2266
  116OSM   C17F12146   2.096   0.917   5.366  0.3689  0.8196  0.2082
  116OSM   H17F12147   2.038   0.823   5.379  2.2131 -0.6088 -1.3562
  116OSM   H17G12148   2.156   0.904   5.274 -2.6311 -1.8028 -1.5696
  116OSM   C18F12149   1.987   1.024   5.335  0.3606 -0.6172 -0.1849
  116OSM   H18F12150   2.032   1.124   5.322 -2.0974  0.5305 -0.3833
  116OSM   H18G12151   1.922   1.037   5.425  1.1269 -1.7830  0.5561
  116OSM   H18H12152   1.929   1.000   5.243  0.0597  0.8711 -0.4132
  117OSM      N12153   1.868   4.835   7.549 -0.1072 -0.8373  0.4694
  117OSM    C1512154   1.867   4.688   7.518 -0.3859  0.1868 -0.2358
  117OSM   H15A12155   1.828   4.628   7.599 -2.1541  1.8582  0.2214
  117OSM   H15B12156   1.967   4.650   7.505 -0.1907  0.1905  1.1198
  117OSM   H15C12157   1.812   4.676   7.426 -0.6846  1.6698 -0.2701
  117OSM    C1412158   1.731   4.872   7.583  0.5622  0.4918  0.1949
  117OSM   H14A12159   1.697   4.825   7.673 -2.4289 -0.3404 -1.2550
  117OSM   H14B12160   1.660   4.849   7.506  0.1835 -0.3725  0.7901
  117OSM   H14C12161   1.726   4.978   7.605 -1.4965  0.4811 -0.0394
  117OSM    C1312162   1.956   4.857   7.667 -0.6818 -0.8599 -0.2547
  117OSM   H13A12163   1.928   4.792   7.749 -0.8042 -0.0681  0.3369
  117OSM   H13B12164   1.948   4.959   7.700 -0.8831 -0.3644 -1.7658
  117OSM   H13C12165   2.060   4.844   7.639 -0.6093 -3.6778  0.9585
  117OSM    C1212166   1.917   4.908   7.424  0.7298 -0.3285  0.1719
  117OSM   H12A12167   1.946   5.003   7.466 -0.5762  0.6240 -1.0190
  117OSM   H12B12168   1.835   4.935   7.360 -0.3525  0.5848  1.8737
  117OSM    C1112169   2.047   4.866   7.350  0.8154  0.2483 -0.2366
  117OSM   H11A12170   2.065   4.921   7.255  0.1776  0.1245 -0.4363
  117OSM   H11B12171   2.016   4.764   7.318 -0.5822  0.9975 -1.4088
  117OSM      P12172   2.227   5.005   7.473 -0.5358  0.5430  0.5005
  117OSM    O1312173   2.133   5.095   7.541  0.5268 -0.5334  0.0739
  117OSM    O1412174   2.350   4.967   7.548  0.0382  0.8152  0.0859
  117OSM    O1112175   2.270   5.057   7.340  0.2344 -0.2223  0.2197
  117OSM    O1212176   2.165   4.862   7.438  0.3025  0.6214 -0.1456
  117OSM    C1S12177   2.340   4.988   7.240 -0.4243 -0.3094 -0.1049
  117OSM    H1S12178   2.328   4.878   7.241 -1.9634 -0.2095  3.0274
  117OSM    H1T12179   2.449   5.009   7.252  0.1749 -1.2020 -3.0410
  117OSM     NF12180   2.407   4.976   7.000  0.5494 -0.1064  0.0552
  117OSM    HNF12181   2.463   5.048   6.960  1.6304 -1.2526 -0.5480
  117OSM    C2S12182   2.304   5.031   7.098  0.2039  0.0505 -0.3794
  117OSM    H2S12183   2.206   4.982   7.078 -0.7536  1.0218  1.6061
  117OSM    C3S12184   2.280   5.187   7.083  0.0186  0.1381 -1.4234
  117OSM    H3S12185   2.372   5.248   7.093 -0.0243  0.7977 -4.1899
  117OSM     O312186   2.191   5.237   7.178  0.4358  0.1225  0.8344
  117OSM    HO312187   2.206   5.175   7.249  1.4269 -0.3898  0.1954
  117OSM    C4S12188   2.230   5.206   6.947  0.2372  0.0172  0.6570
  117OSM    H4S12189   2.307   5.216   6.870 -0.0799 -1.2696  0.1498
  117OSM    C5S12190   2.100   5.204   6.909 -0.0233 -0.3190  0.7812
  117OSM    H5S12191   2.028   5.206   6.992 -0.0446 -1.5685  0.7973
  117OSM    C6S12192   2.045   5.225   6.769  0.5252  0.1876  0.4407
  117OSM    H6S12193   1.980   5.315   6.770 -0.9738 -0.7847  3.3270
  117OSM    H6T12194   1.976   5.142   6.740  0.5441  0.0734  0.7163
  117OSM    C7S12195   2.145   5.249   6.654 -0.6859  0.1132  0.6329
  117OSM    H7S12196   2.198   5.157   6.625 -0.0950  0.8706 -0.7734
  117OSM    H7T12197   2.220   5.323   6.689 -1.0251  0.6387  0.2680
  117OSM    C8S12198   2.092   5.320   6.525 -0.0478  0.0849 -0.0389
  117OSM    H8S12199   2.088   5.428   6.551  2.1835  0.3530 -0.6505
  117OSM    H8T12200   1.992   5.274   6.510  1.4061 -2.2620 -4.2081
  117OSM    C9S12201   2.174   5.285   6.400 -0.1566  0.0988 -0.4355
  117OSM    H9S12202   2.200   5.178   6.412 -0.4753  0.2375  2.0213
  117OSM    H9T12203   2.265   5.348   6.405 -0.9106  1.3045 -1.3025
  117OSM   C10S12204   2.099   5.310   6.279 -0.4863  0.2688 -0.2152
  117OSM   H10S12205   2.088   5.420   6.274 -1.1188  0.2115 -0.1431
  117OSM   H10T12206   1.998   5.266   6.288 -0.4233 -0.0179 -0.8044
  117OSM   C11S12207   2.164   5.257   6.149  0.2112 -0.0903 -0.2099
  117OSM   H11S12208   2.181   5.147   6.153 -0.9169 -0.2548  0.1618
  117OSM   H11T12209   2.259   5.310   6.124 -0.0249  1.6513  2.2513
  117OSM   C12S12210   2.073   5.282   6.024 -0.3658 -0.1838 -0.6981
  117OSM   H12S12211   2.052   5.391   6.018  1.0863  0.0726 -1.6018
  117OSM   H12T12212   1.979   5.226   6.045 -0.2961 -1.2335 -2.9346
  117OSM   C13S12213   2.136   5.241   5.886  0.0983 -0.0797 -0.1113
  117OSM   H13S12214   2.179   5.138   5.893 -0.6823 -0.6839 -3.0119
  117OSM   H13T12215   2.224   5.300   5.853  0.9168  0.9302  3.4481
  117OSM   C14S12216   2.029   5.239   5.773  0.0163  0.5999 -0.3955
  117OSM   H14S12217   2.074   5.223   5.672 -1.1498  2.4558 -1.2641
  117OSM   H14T12218   1.985   5.341   5.771 -1.7353  0.0285  2.7186
  117OSM   C15S12219   1.921   5.133   5.794  0.0754  0.0605 -0.5192
  117OSM   H15S12220   1.875   5.126   5.895  2.9993  0.3967  0.9482
  117OSM   H15T12221   1.969   5.033   5.789  0.1983  0.1342 -0.8110
  117OSM   C16S12222   1.813   5.154   5.691 -0.4372 -0.3892  0.2568
  117OSM   H16S12223   1.870   5.175   5.598 -0.8601  3.1334  0.6687
  117OSM   H16T12224   1.762   5.250   5.713  1.6009  0.9326 -0.5239
  117OSM   C17S12225   1.715   5.040   5.685 -0.2434  0.0685  0.2880
  117OSM   H17S12226   1.707   5.000   5.789  0.5635 -1.3877 -0.1814
  117OSM   H17T12227   1.752   4.969   5.608  0.0623  0.9482 -0.3947
  117OSM   C18S12228   1.570   5.083   5.650 -0.3887 -0.1620 -0.0081
  117OSM   H18S12229   1.551   5.125   5.550 -0.3252  0.6233  0.3066
  117OSM   H18T12230   1.548   5.168   5.718  0.3458 -0.7328  0.9815
  117OSM   H18U12231   1.493   5.006   5.674 -0.8527  0.0122 -0.9019
  117OSM    C1F12232   2.424   4.843   6.977  0.5899 -0.4477  0.3335
  117OSM     OF12233   2.345   4.759   7.015 -0.7140 -0.1922  0.4233
  117OSM    C2F12234   2.545   4.795   6.905  0.0313  0.1288 -0.3344
  117OSM    H2F12235   2.605   4.743   6.983 -0.7503  1.9705  1.5886
  117OSM    H2G12236   2.597   4.888   6.875 -1.6134  1.9797  2.2289
  117OSM    C3F12237   2.508   4.695   6.794  0.4538  0.9102  0.2898
  117OSM    H3F12238   2.417   4.721   6.737  1.0965  0.8502 -0.7815
  117OSM    H3G12239   2.477   4.604   6.851  2.2453  0.9531  1.4266
  117OSM    C4F12240   2.624   4.666   6.704 -0.0491 -0.2786  0.1963
  117OSM    H4F12241   2.707   4.634   6.771  0.6996  1.2942  0.0721
  117OSM    H4G12242   2.664   4.760   6.660 -0.5972 -0.7075 -1.2879
  117OSM    C5F12243   2.588   4.577   6.583 -0.0703  0.1189 -0.4151
  117OSM    H5F12244   2.502   4.515   6.613  0.9118 -1.1190 -0.0623
  117OSM    H5G12245   2.669   4.505   6.557 -0.6859 -0.3250 -1.1281
  117OSM    C6F12246   2.552   4.645   6.449 -0.0418  0.1107  0.3187
  117OSM    H6F12247   2.637   4.715   6.435 -1.0937  1.2900 -0.4341
  117OSM    H6G12248   2.454   4.695   6.467 -0.9679 -2.2623  2.4663
  117OSM    C7F12249   2.552   4.558   6.321 -0.3539 -0.2553 -0.1009
  117OSM    H7F12250   2.471   4.483   6.328 -1.6993  0.8673 -2.2723
  117OSM    H7G12251   2.652   4.509   6.320 -1.0485 -1.7342  0.5177
  117OSM    C8F12252   2.515   4.641   6.192  0.0978 -0.3249  0.1072
  117OSM    H8F12253   2.496   4.747   6.219 -3.0262 -0.7901  0.1087
  117OSM    H8G12254   2.422   4.592   6.158  1.4836 -2.6801 -0.5198
  117OSM    C9F12255   2.624   4.637   6.090  0.1241  0.1305  0.8675
  117OSM    H9F12256   2.712   4.692   6.125 -0.3569  0.6903  1.1973
  117OSM   C10F12257   2.604   4.590   5.967 -0.2216  0.0106 -0.6186
  117OSM   H10F12258   2.684   4.586   5.893  0.7862 -0.1421  0.4571
  117OSM   C11F12259   2.477   4.532   5.907 -0.1682  0.6460 -0.5022
  117OSM   H11F12260   2.386   4.563   5.964 -0.0645 -0.9124  0.5620
  117OSM   H11G12261   2.476   4.422   5.918  0.3758  0.8073  1.5643
  117OSM   C12F12262   2.453   4.572   5.759 -0.5142 -0.1802  0.3389
  117OSM   H12F12263   2.471   4.682   5.753 -0.1102 -0.1527  1.7521
  117OSM   H12G12264   2.347   4.551   5.736 -0.7568  0.2239  1.0765
  117OSM   C13F12265   2.538   4.498   5.651 -0.0492  0.2275 -0.3638
  117OSM   H13F12266   2.510   4.391   5.649  1.0840 -0.1447  1.1588
  117OSM   H13G12267   2.647   4.511   5.672 -0.0745 -2.2779  1.8157
  117OSM   C14F12268   2.512   4.565   5.516 -0.6339  0.4127  0.6132
  117OSM   H14F12269   2.519   4.674   5.532 -1.4265  0.1355  3.3191
  117OSM   H14G12270   2.407   4.541   5.489  0.5858 -4.5266 -0.8216
  117OSM   C15F12271   2.616   4.506   5.420  0.0691  0.1838 -0.1379
  117OSM   H15F12272   2.639   4.399   5.438  2.8953  0.8276  0.5752
  117OSM   H15G12273   2.713   4.552   5.451 -0.5929  1.3802  0.2068
  117OSM   C16F12274   2.576   4.515   5.273 -0.2091 -0.1541 -0.7583
  117OSM   H16F12275   2.549   4.620   5.246  0.0854 -0.1551 -1.0757
  117OSM   H16G12276   2.481   4.461   5.257 -1.5096  1.8226 -0.1654
  117OSM   C17F12277   2.683   4.473   5.176  0.2220 -0.0079 -0.6187
  117OSM   H17F12278   2.641   4.492   5.075  1.2883  1.7234 -0.7703
  117OSM   H17G12279   2.692   4.362   5.181 -1.4313 -0.2437 -1.8797
  117OSM   C18F12280   2.822   4.531   5.177 -0.1647 -0.5437 -0.1184
  117OSM   H18F12281   2.877   4.505   5.084  1.6810 -0.7213  0.9664
  117OSM   H18G12282   2.868   4.494   5.271  1.2205 -1.8681 -1.2688
  117OSM   H18H12283   2.824   4.642   5.176 -3.0157 -0.4227 -0.6195
  118OSM      N12284   0.973   4.632   7.880 -1.0704 -0.1679  0.4595
  118OSM    C1512285   0.979   4.495   7.941  0.0291  0.2781  0.4866
  118OSM   H15A12286   0.900   4.471   8.011  0.6876  1.1414  1.5561
  118OSM   H15B12287   1.076   4.483   7.987  1.3736 -0.8215 -2.4153
  118OSM   H15C12288   0.971   4.421   7.863 -3.2994  1.7992 -0.8139
  118OSM    C1412289   0.968   4.733   7.988  0.6850 -0.0420  0.4009
  118OSM   H14A12290   0.974   4.836   7.958  1.4447 -0.3867 -0.6829
  118OSM   H14B12291   1.043   4.720   8.064  0.1533  1.9234  1.3291
  118OSM   H14C12292   0.877   4.719   8.045  0.6224 -3.7206 -0.3523
  118OSM    C1312293   1.101   4.657   7.800  0.1801  0.8491 -0.3543
  118OSM   H13A12294   1.121   4.758   7.769  0.3600  0.8967 -0.0895
  118OSM   H13B12295   1.099   4.595   7.711  0.4420  3.3888 -2.2688
  118OSM   H13C12296   1.187   4.626   7.857 -0.3145  1.3473  0.6824
  118OSM    C1212297   0.862   4.655   7.783  0.1770 -0.4187  0.2541
  118OSM   H12A12298   0.858   4.760   7.757 -2.8303 -1.3405 -4.1811
  118OSM   H12B12299   0.768   4.638   7.833 -0.9568 -2.2599 -2.2917
  118OSM    C1112300   0.866   4.575   7.644  0.0379 -0.5371  0.1794
  118OSM   H11A12301   0.958   4.589   7.584  0.4304  1.2706  1.1454
  118OSM   H11B12302   0.788   4.627   7.585  0.1966 -2.3936 -1.7838
  118OSM      P12303   0.686   4.390   7.667  0.0009  0.5801  0.2132
  118OSM    O1312304   0.691   4.256   7.736  0.2778 -0.5396 -0.1523
  118OSM    O1412305   0.589   4.500   7.708 -0.1205 -0.1335  0.1536
  118OSM    O1112306   0.668   4.367   7.505 -0.7368 -0.7694  0.5840
  118OSM    O1212307   0.835   4.437   7.670  0.1303 -0.0101 -0.4031
  118OSM    C1S12308   0.785   4.338   7.426 -0.6869 -0.1207  0.3862
  118OSM    H1S12309   0.823   4.234   7.439  0.3818  0.2798  0.5568
  118OSM    H1T12310   0.873   4.400   7.455 -0.2475 -0.7799  0.4918
  118OSM     NF12311   0.864   4.301   7.199 -0.0597 -0.2316 -0.6429
  118OSM    HNF12312   0.927   4.363   7.153 -0.0818 -1.0225 -1.7591
  118OSM    C2S12313   0.761   4.368   7.276  0.1509  0.6897 -0.2462
  118OSM    H2S12314   0.665   4.328   7.236  1.7717 -0.9247 -2.7946
  118OSM    C3S12315   0.746   4.515   7.265 -0.1211 -0.4560  0.2890
  118OSM    H3S12316   0.849   4.552   7.287 -0.7726  0.3543  2.2247
  118OSM     O312317   0.658   4.587   7.359 -0.4875  0.5094  0.0769
  118OSM    HO312318   0.634   4.510   7.411 -1.6208 -1.8533 -3.5574
  118OSM    C4S12319   0.725   4.570   7.125 -0.2183  0.1185  0.2865
  118OSM    H4S12320   0.814   4.585   7.061 -1.1988  1.5167 -0.7975
  118OSM    C5S12321   0.608   4.564   7.057  0.1026 -0.0712 -0.3011
  118OSM    H5S12322   0.517   4.520   7.100 -0.4600 -0.4003 -1.7968
  118OSM    C6S12323   0.595   4.598   6.914  0.0365 -0.0756 -0.1504
  118OSM    H6S12324   0.688   4.652   6.886  1.2025 -2.3002 -0.7700
  118OSM    H6T12325   0.503   4.659   6.906  0.6914  1.1290  1.0285
  118OSM    C7S12326   0.588   4.474   6.824 -0.2947  0.2312 -0.2893
  118OSM    H7S12327   0.494   4.419   6.846  0.7659 -1.4135  0.3251
  118OSM    H7T12328   0.677   4.410   6.842 -0.2147  0.2018 -0.7908
  118OSM    C8S12329   0.593   4.499   6.675 -0.2004  0.4974  0.6031
  118OSM    H8S12330   0.698   4.528   6.654  0.5438 -0.4699  2.7315
  118OSM    H8T12331   0.524   4.583   6.653 -0.0219 -0.0987 -2.7291
  118OSM    C9S12332   0.553   4.382   6.593  0.2209 -0.0002 -0.2522
  118OSM    H9S12333   0.469   4.321   6.634  0.8144  0.0989  1.1809
  118OSM    H9T12334   0.640   4.314   6.580  1.7920  1.8558  0.0874
  118OSM   C10S12335   0.535   4.426   6.442 -0.1970 -0.4628  0.1953
  118OSM   H10S12336   0.607   4.508   6.421 -1.7974  1.1164  0.6139
  118OSM   H10T12337   0.430   4.461   6.439  0.5670  2.1438 -3.4754
  118OSM   C11S12338   0.550   4.314   6.341 -0.5319 -0.1461 -0.1855
  118OSM   H11S12339   0.476   4.233   6.356 -1.3167  0.4258 -0.8596
  118OSM   H11T12340   0.654   4.277   6.345 -0.0082  1.3229  0.3951
  118OSM   C12S12341   0.528   4.370   6.197 -0.6407  0.0747 -0.1553
  118OSM   H12S12342   0.606   4.448   6.194  1.5421 -2.0013  0.0441
  118OSM   H12T12343   0.426   4.414   6.186 -0.5972  0.2352  0.0884
  118OSM   C13S12344   0.560   4.266   6.095 -0.3680  0.3527  0.0226
  118OSM   H13S12345   0.479   4.192   6.115 -0.7338  1.0650  1.2862
  118OSM   H13T12346   0.652   4.209   6.120 -1.2514 -1.0873  0.0849
  118OSM   C14S12347   0.562   4.313   5.950  0.6732  0.3702 -0.2152
  118OSM   H14S12348   0.657   4.370   5.939  0.0918  1.1630 -1.1677
  118OSM   H14T12349   0.475   4.381   5.946 -2.6914 -3.4613  0.7309
  118OSM   C15S12350   0.556   4.197   5.845  0.5833 -0.1981  0.0004
  118OSM   H15S12351   0.459   4.146   5.864 -0.0417  0.9992  0.1833
  118OSM   H15T12352   0.635   4.119   5.847 -1.4057 -2.3086  0.0795
  118OSM   C16S12353   0.549   4.256   5.695 -0.0770  0.7894 -0.6627
  118OSM   H16S12354   0.653   4.276   5.662  1.0749  0.3114  2.3588
  118OSM   H16T12355   0.487   4.348   5.705 -0.0154  0.6587  1.3622
  118OSM   C17S12356   0.489   4.153   5.593 -0.2760 -0.3907 -0.2689
  118OSM   H17S12357   0.386   4.126   5.625 -0.1698 -1.6851 -0.9748
  118OSM   H17T12358   0.557   4.066   5.595  1.0757  0.6454  0.7866
  118OSM   C18S12359   0.483   4.219   5.455  0.0914 -0.4848 -0.0952
  118OSM   H18S12360   0.583   4.216   5.407 -0.0500  0.4862 -0.4714
  118OSM   H18T12361   0.438   4.320   5.451 -0.0476 -0.5988 -1.8833
  118OSM   H18U12362   0.419   4.149   5.398 -1.1256  0.4954  0.0279
  118OSM    C1F12363   0.873   4.168   7.184  0.3981  0.5358  0.1727
  118OSM     OF12364   0.802   4.083   7.241 -0.1023  0.2970  0.5932
  118OSM    C2F12365   0.976   4.122   7.085 -0.3394  0.7883  0.2007
  118OSM    H2F12366   1.016   4.021   7.112 -2.4711 -0.6020 -1.4726
  118OSM    H2G12367   1.055   4.199   7.076  2.3096 -1.6626  0.8669
  118OSM    C3F12368   0.909   4.113   6.944 -0.5793  0.9536  0.9856
  118OSM    H3F12369   0.868   4.206   6.900 -0.8174  0.0803 -0.7097
  118OSM    H3G12370   0.820   4.046   6.942  1.1419 -1.4337 -1.0867
  118OSM    C4F12371   0.994   4.041   6.836  0.2409 -0.1031  0.8180
  118OSM    H4F12372   1.007   3.933   6.858  0.7702  0.0926  1.5245
  118OSM    H4G12373   1.098   4.082   6.835 -0.2487  1.2280  1.5996
  118OSM    C5F12374   0.932   4.054   6.688 -0.6063 -0.3345  0.5092
  118OSM    H5F12375   0.963   4.153   6.648 -0.4698 -0.9519 -0.9954
  118OSM    H5G12376   0.821   4.048   6.687 -0.6208 -1.9069  2.9396
  118OSM    C6F12377   0.999   3.951   6.601 -0.7212 -0.3090  0.7177
  118OSM    H6F12378   0.978   3.847   6.634 -0.6606  0.2294  2.5395
  118OSM    H6G12379   1.109   3.966   6.597 -1.1090  3.2001 -0.7239
  118OSM    C7F12380   0.948   3.961   6.451  0.0921  0.6232 -0.5251
  118OSM    H7F12381   1.006   4.048   6.414 -0.5808  0.3774 -2.2312
  118OSM    H7G12382   0.842   3.992   6.452 -0.3807 -0.5996 -3.6801
  118OSM    C8F12383   0.979   3.841   6.372  0.2239  0.5423  0.6042
  118OSM    H8F12384   0.934   3.744   6.402  0.3603  0.7126  1.3980
  118OSM    H8G12385   1.088   3.822   6.381 -0.1134 -2.2909 -0.5302
  118OSM    C9F12386   0.948   3.870   6.229  0.1461  0.8688 -0.5382
  118OSM    H9F12387   0.959   3.979   6.217 -0.6264  0.9261 -0.7955
  118OSM   C10F12388   0.921   3.782   6.127  0.3664  0.0935 -0.3997
  118OSM   H10F12389   0.902   3.806   6.022  0.8177 -0.4961 -0.6255
  118OSM   C11F12390   0.926   3.631   6.136 -0.1572  0.1929 -0.8734
  118OSM   H11F12391   0.852   3.589   6.207 -1.5203 -2.9688 -3.8354
  118OSM   H11G12392   1.024   3.594   6.174 -0.3821  0.7029  0.2351
  118OSM   C12F12393   0.894   3.566   5.996  0.2260 -0.0344  1.1609
  118OSM   H12F12394   0.788   3.583   5.967  0.1220 -0.3865  1.3223
  118OSM   H12G12395   0.904   3.455   6.001 -0.3322 -0.2088 -0.8914
  118OSM   C13F12396   0.983   3.612   5.881  1.0614  0.2761  0.1550
  118OSM   H13F12397   1.086   3.582   5.911  1.7104  1.8707 -0.3715
  118OSM   H13G12398   0.980   3.721   5.857  1.7034 -0.0163 -1.4007
  118OSM   C14F12399   0.952   3.544   5.745 -0.0145  0.2424  1.1937
  118OSM   H14F12400   0.961   3.433   5.751  1.4198  0.1843 -0.8383
  118OSM   H14G12401   1.027   3.584   5.673 -2.3847  0.6259 -1.2367
  118OSM   C15F12402   0.808   3.569   5.697 -0.3404  0.4176  0.3139
  118OSM   H15F12403   0.788   3.678   5.700  2.5861  1.0447  0.0596
  118OSM   H15G12404   0.733   3.525   5.766 -0.3657 -0.9222 -0.5307
  118OSM   C16F12405   0.783   3.528   5.547 -0.0421  0.1594 -0.3255
  118OSM   H16F12406   0.673   3.540   5.538 -0.3133  0.3006  2.2345
  118OSM   H16G12407   0.805   3.420   5.528 -3.3366 -0.8169  0.6407
  118OSM   C17F12408   0.860   3.608   5.444  0.1246  0.0701  0.7370
  118OSM   H17F12409   0.963   3.634   5.476  1.3123 -0.7860 -2.0895
  118OSM   H17G12410   0.801   3.702   5.436  1.3053  0.7217 -1.0134
  118OSM   C18F12411   0.856   3.544   5.307  0.5169  0.0566 -0.3273
  118OSM   H18F12412   0.884   3.620   5.231 -1.2180  1.2006  0.1264
  118OSM   H18G12413   0.759   3.502   5.273  0.5267 -0.6510  0.4779
  118OSM   H18H12414   0.928   3.460   5.313  0.3891 -0.0563 -0.3765
  119OSM      N12415   3.926   0.154   7.686 -0.1742  0.2933  0.4922
  119OSM    C1512416   3.959   0.196   7.826 -0.0419 -0.2660 -0.7544
  119OSM   H15A12417   4.039   0.140   7.871 -0.0961  1.8386  2.3135
  119OSM   H15B12418   3.870   0.184   7.887  0.2047  0.3221 -0.2637
  119OSM   H15C12419   3.983   0.302   7.826 -0.4747 -0.1638 -1.1002
  119OSM    C1412420   3.876   0.010   7.694 -0.2572 -0.2283 -0.0090
  119OSM   H14A12421   3.956  -0.061   7.707 -0.7858 -1.0969 -1.3605
  119OSM   H14B12422   3.827  -0.004   7.599  1.1604  1.0304 -0.9755
  119OSM   H14C12423   3.806  -0.002   7.776  2.8369  0.1493  2.9500
  119OSM    C1312424   3.829   0.245   7.617  0.3278 -0.7395  1.1233
  119OSM   H13A12425   3.732   0.249   7.665 -0.0086 -0.1647  0.4179
  119OSM   H13B12426   3.820   0.206   7.516 -0.6936  1.2902  0.3706
  119OSM   H13C12427   3.874   0.343   7.615  2.9673 -1.8795  0.2249
  119OSM    C1212428   4.056   0.162   7.605 -0.3589  0.2836  0.3918
  119OSM   H12A12429   4.138   0.110   7.653 -1.7934  0.3735  3.1553
  119OSM   H12B12430   4.088   0.265   7.605  1.1987 -0.1635  1.4846
  119OSM    C1112431   4.049   0.110   7.467  0.0771 -0.3588  0.1348
  119OSM   H11A12432   4.134   0.154   7.411 -0.8452 -0.5076 -1.4612
  119OSM   H11B12433   3.960   0.150   7.413  1.6759  1.7007 -1.1274
  119OSM      P12434   4.166  -0.121   7.482  0.0237 -0.3820 -0.2786
  119OSM    O1312435   4.237  -0.066   7.596 -0.1955  1.0717 -0.0551
  119OSM    O1412436   4.139  -0.266   7.470  0.4477 -0.2147  0.1070
  119OSM    O1112437   4.255  -0.091   7.359 -0.2959 -0.0759 -0.4077
  119OSM    O1212438   4.043  -0.027   7.455 -0.5162 -0.3232 -0.0180
  119OSM    C1S12439   4.207  -0.124   7.232 -0.1873 -0.2875  0.7283
  119OSM    H1S12440   4.131  -0.206   7.237 -0.0437 -0.3690  1.6879
  119OSM    H1T12441   4.282  -0.180   7.172  1.0232 -0.8275  2.6578
  119OSM     NF12442   4.116  -0.079   7.019  0.0751 -0.2222 -0.9476
  119OSM    HNF12443   4.180  -0.079   6.942  0.0258 -1.5054 -1.0184
  119OSM    C2S12444   4.159  -0.006   7.139  0.0077 -0.0426 -0.0780
  119OSM    H2S12445   4.079   0.059   7.181 -0.5867 -0.1380 -1.0339
  119OSM    C3S12446   4.280   0.080   7.112 -0.3010 -0.5745  0.2721
  119OSM    H3S12447   4.359   0.014   7.072 -1.5692 -1.5027 -0.8168
  119OSM     O312448   4.338   0.139   7.229  0.1364  0.0950  0.6530
  119OSM    HO312449   4.322   0.072   7.296  1.3414 -0.2603  0.6043
  119OSM    C4S12450   4.248   0.184   7.012 -0.1962  0.5508 -0.6403
  119OSM    H4S12451   4.179   0.263   7.045 -0.8329 -0.4413  0.4455
  119OSM    C5S12452   4.287   0.192   6.886 -0.1163 -0.0888  0.3177
  119OSM    H5S12453   4.365   0.123   6.849  2.2976  3.7142 -2.4747
  119OSM    C6S12454   4.240   0.293   6.786 -0.2104  0.5830  0.0877
  119OSM    H6S12455   4.324   0.359   6.755 -0.8410  1.1009 -0.5501
  119OSM    H6T12456   4.179   0.369   6.839  0.0575 -0.8677  2.6252
  119OSM    C7S12457   4.144   0.232   6.683  0.8959  0.3195  0.0070
  119OSM    H7S12458   4.050   0.197   6.730  1.1043 -0.1889  0.0462
  119OSM    H7T12459   4.198   0.149   6.633  0.8652 -2.4082  4.0743
  119OSM    C8S12460   4.106   0.338   6.578 -0.3855 -0.1385 -0.0774
  119OSM    H8S12461   4.183   0.367   6.503  0.1921  0.5045  0.7451
  119OSM    H8T12462   4.084   0.422   6.647 -1.0817 -1.7683  1.8004
  119OSM    C9S12463   3.989   0.288   6.487 -0.4556 -0.7024 -0.1020
  119OSM    H9S12464   3.948   0.365   6.418 -0.9206  1.0923  2.0599
  119OSM    H9T12465   3.902   0.283   6.557 -0.9397 -3.4260 -0.8063
  119OSM   C10S12466   3.990   0.151   6.416 -0.4463  0.4959  0.4804
  119OSM   H10S12467   4.009   0.060   6.476  1.0467 -1.3067 -2.4738
  119OSM   H10T12468   4.083   0.152   6.355 -0.0227 -2.2122  0.9376
  119OSM   C11S12469   3.876   0.129   6.312  0.4848 -0.3354 -0.4104
  119OSM   H11S12470   3.873   0.215   6.241  2.9186 -0.4940 -0.7728
  119OSM   H11T12471   3.777   0.121   6.362 -0.2847 -0.6942 -1.9418
  119OSM   C12S12472   3.902   0.004   6.235 -0.2714  0.3440 -0.1238
  119OSM   H12S12473   3.881  -0.074   6.311  0.4091  1.2752  1.0587
  119OSM   H12T12474   4.010   0.009   6.209 -0.4964 -0.1126 -1.2009
  119OSM   C13S12475   3.818  -0.011   6.109  0.3735 -0.5676  0.4922
  119OSM   H13S12476   3.709   0.003   6.120  0.1609  1.9737 -3.0189
  119OSM   H13T12477   3.831  -0.119   6.085 -2.0378 -1.0118  0.9349
  119OSM   C14S12478   3.874   0.064   5.983  0.7530 -0.3202  0.2386
  119OSM   H14S12479   3.974   0.022   5.957  0.2605 -1.0554 -0.5218
  119OSM   H14T12480   3.893   0.169   6.014 -1.3447 -0.0756  0.7967
  119OSM   C15S12481   3.787   0.070   5.858  0.6217 -0.2304 -0.4798
  119OSM   H15S12482   3.749   0.173   5.839 -1.1070 -0.9050 -0.8772
  119OSM   H15T12483   3.708  -0.007   5.865 -0.0935  0.4440 -0.9778
  119OSM   C16S12484   3.882   0.045   5.735 -0.5698  0.4694  0.0344
  119OSM   H16S12485   3.909  -0.063   5.736  0.6687  0.7537 -0.3858
  119OSM   H16T12486   3.977   0.102   5.746  0.2881 -0.8054 -0.5102
  119OSM   C17S12487   3.813   0.084   5.604  0.1477 -0.1716 -0.1315
  119OSM   H17S12488   3.760   0.181   5.609 -0.3552 -0.3196 -1.8909
  119OSM   H17T12489   3.721   0.024   5.586 -0.5759  0.0759  2.3831
  119OSM   C18S12490   3.898   0.078   5.471  0.6704  0.3204 -0.1571
  119OSM   H18S12491   3.974  -0.004   5.467  0.9641  0.6323 -2.1452
  119OSM   H18T12492   3.960   0.170   5.464  2.3866 -0.6485  1.4618
  119OSM   H18U12493   3.832   0.070   5.382  0.0916  0.2192  0.2798
  119OSM    C1F12494   4.002  -0.153   7.014 -0.4832  0.2288  0.0391
  119OSM     OF12495   3.928  -0.163   7.112 -0.1353 -0.1920  0.6139
  119OSM    C2F12496   3.974  -0.225   6.885  0.4627 -0.2253 -0.5042
  119OSM    H2F12497   4.052  -0.301   6.863  0.6965  0.4193 -2.0553
  119OSM    H2G12498   3.988  -0.154   6.801  1.1061 -0.2700 -0.4381
  119OSM    C3F12499   3.832  -0.284   6.862 -0.1185 -0.3195  0.1539
  119OSM    H3F12500   3.761  -0.198   6.860 -1.5628 -1.4772 -1.3685
  119OSM    H3G12501   3.803  -0.352   6.945  0.5508  1.2448  1.7428
  119OSM    C4F12502   3.820  -0.348   6.728 -0.0358 -0.0159 -0.6562
  119OSM    H4F12503   3.867  -0.449   6.729 -0.1333 -0.0657 -0.9590
  119OSM    H4G12504   3.873  -0.285   6.653 -1.1135  1.6284 -0.0990
  119OSM    C5F12505   3.677  -0.372   6.679  0.0883 -0.0158 -0.1540
  119OSM    H5F12506   3.610  -0.293   6.720  0.7737 -1.3549  4.0284
  119OSM    H5G12507   3.647  -0.459   6.742 -0.3557  1.3688  1.6271
  119OSM    C6F12508   3.662  -0.393   6.528  0.0665 -0.3163 -0.0143
  119OSM    H6F12509   3.728  -0.481   6.509  0.6455 -0.0124  0.5466
  119OSM    H6G12510   3.709  -0.310   6.472 -0.4233 -0.4034 -0.5673
  119OSM    C7F12511   3.525  -0.427   6.478  0.4442  0.0446 -1.3918
  119OSM    H7F12512   3.457  -0.345   6.510 -0.1848 -1.2861  0.9138
  119OSM    H7G12513   3.503  -0.518   6.538  3.2374 -0.3235 -0.7756
  119OSM    C8F12514   3.497  -0.470   6.330  0.4271 -0.3623  0.3722
  119OSM    H8F12515   3.403  -0.529   6.329  0.5147 -0.5036  0.5059
  119OSM    H8G12516   3.580  -0.536   6.300  0.8451 -1.5543  3.8139
  119OSM    C9F12517   3.493  -0.339   6.244 -0.0089  0.7857  0.1368
  119OSM    H9F12518   3.427  -0.262   6.285 -0.3975  0.3470  0.3418
  119OSM   C10F12519   3.561  -0.319   6.131  0.3382 -1.1737 -0.4596
  119OSM   H10F12520   3.537  -0.222   6.085 -2.8864 -0.2848  2.6999
  119OSM   C11F12521   3.647  -0.418   6.057 -0.3304 -0.5502 -1.2123
  119OSM   H11F12522   3.643  -0.522   6.096  0.4141 -0.6869 -1.4948
  119OSM   H11G12523   3.750  -0.378   6.064 -0.5444 -0.3317  2.7602
  119OSM   C12F12524   3.612  -0.424   5.908  0.3043  0.3377  0.1719
  119OSM   H12F12525   3.507  -0.462   5.906 -0.9032  3.0951  3.3083
  119OSM   H12G12526   3.678  -0.500   5.861  0.1929  0.0165  0.5304
  119OSM   C13F12527   3.622  -0.287   5.829  0.4931 -1.0948 -0.0972
  119OSM   H13F12528   3.727  -0.252   5.829 -0.0367  0.5833 -0.4807
  119OSM   H13G12529   3.559  -0.217   5.888  1.1534 -1.0924  0.6163
  119OSM   C14F12530   3.561  -0.296   5.688 -0.1988 -0.4339  0.1668
  119OSM   H14F12531   3.533  -0.191   5.662 -1.6975 -1.3079 -2.0998
  119OSM   H14G12532   3.467  -0.355   5.679  0.5589 -1.5856 -0.3231
  119OSM   C15F12533   3.653  -0.359   5.591  0.1626  0.1772 -0.8246
  119OSM   H15F12534   3.667  -0.469   5.599 -2.6644 -0.1774  0.3850
  119OSM   H15G12535   3.754  -0.318   5.614  1.6138 -3.0690 -0.8072
  119OSM   C16F12536   3.645  -0.315   5.442 -0.0026 -0.5894  0.0675
  119OSM   H16F12537   3.725  -0.365   5.384  0.4108 -0.3902  0.4611
  119OSM   H16G12538   3.660  -0.205   5.430 -1.5369 -0.2491  0.8801
  119OSM   C17F12539   3.497  -0.335   5.386 -0.4574  0.7501 -0.0151
  119OSM   H17F12540   3.436  -0.267   5.450 -0.2356  0.3594  0.6221
  119OSM   H17G12541   3.474  -0.438   5.422 -0.8549  0.4283 -1.1413
  119OSM   C18F12542   3.468  -0.322   5.233  0.3514  0.2154 -0.3130
  119OSM   H18F12543   3.478  -0.216   5.199 -1.0105  0.3550 -0.3362
  119OSM   H18G12544   3.370  -0.367   5.206  1.2646 -0.1807 -3.3005
  119OSM   H18H12545   3.550  -0.381   5.187 -0.8191 -2.0165  0.3391
  120OSM      N12546   5.610   0.409   7.943 -0.3024 -0.0971  0.7920
  120OSM    C1512547   5.705   0.303   7.903 -1.2260 -0.8673  0.2746
  120OSM   H15A12548   5.779   0.352   7.842 -1.2981  0.1161  0.9511
  120OSM   H15B12549   5.665   0.223   7.842 -1.1854  0.0308 -0.9506
  120OSM   H15C12550   5.758   0.265   7.990  0.5570  2.0259  0.5661
  120OSM    C1412551   5.503   0.346   8.028  0.2129 -0.0816  0.2608
  120OSM   H14A12552   5.456   0.259   7.982  1.0998 -1.2742  1.5292
  120OSM   H14B12553   5.418   0.409   8.047 -0.9468 -2.1720  2.5678
  120OSM   H14C12554   5.549   0.306   8.117  1.1233  0.3698  0.0002
  120OSM    C1312555   5.684   0.508   8.031  0.3760  0.1174  0.3508
  120OSM   H13A12556   5.626   0.598   8.044  1.3114  0.7465  0.3238
  120OSM   H13B12557   5.778   0.537   7.985  1.0559 -0.4034  1.3788
  120OSM   H13C12558   5.692   0.460   8.127 -2.8792 -1.9731 -0.2773
  120OSM    C1212559   5.539   0.478   7.827 -0.4841 -0.4591  0.8640
  120OSM   H12A12560   5.476   0.559   7.858  0.7173  1.0425 -0.4153
  120OSM   H12B12561   5.480   0.405   7.774  1.2445 -1.4179  0.1713
  120OSM    C1112562   5.631   0.537   7.703  0.8184  0.6688 -0.3478
  120OSM   H11A12563   5.574   0.576   7.616  0.2531  1.3756  0.3192
  120OSM   H11B12564   5.687   0.450   7.662  0.9395 -0.4942  2.1022
  120OSM      P12565   5.870   0.639   7.711 -0.1905  0.6281 -0.5122
  120OSM    O1312566   5.906   0.780   7.726  0.0899 -0.2114 -0.0854
  120OSM    O1412567   5.941   0.540   7.793 -0.2047  0.0461  0.4136
  120OSM    O1112568   5.882   0.590   7.560  0.1724 -1.0840 -0.0278
  120OSM    O1212569   5.721   0.636   7.745  0.5431 -0.3400  0.5057
  120OSM    C1S12570   5.822   0.673   7.460  0.0250  0.2551 -0.3571
  120OSM    H1S12571   5.853   0.779   7.476 -0.8350  0.1663  2.5934
  120OSM    H1T12572   5.712   0.657   7.453  0.0273  0.8858 -2.5170
  120OSM     NF12573   5.833   0.711   7.203 -0.4194  0.2973 -0.3120
  120OSM    HNF12574   5.761   0.678   7.141  0.6524  0.1127 -1.5157
  120OSM    C2S12575   5.870   0.620   7.317 -0.1201  0.3211 -0.0182
  120OSM    H2S12576   5.981   0.619   7.323 -0.1057 -1.5781  0.2797
  120OSM    C3S12577   5.829   0.469   7.295 -0.5453  0.9640  0.5222
  120OSM    H3S12578   5.720   0.449   7.295 -0.3843 -0.0085  1.3333
  120OSM     O312579   5.888   0.380   7.398  0.0396 -0.6114  0.0074
  120OSM    HO312580   5.913   0.436   7.472  0.0416 -0.1094 -0.3664
  120OSM    C4S12581   5.873   0.431   7.154 -0.4572  0.8826 -0.1435
  120OSM    H4S12582   5.981   0.409   7.145 -0.0166  3.0099 -0.4318
  120OSM    C5S12583   5.794   0.407   7.045 -0.2606  0.0519 -0.4921
  120OSM    H5S12584   5.685   0.405   7.060 -0.0041 -0.5144  1.5714
  120OSM    C6S12585   5.841   0.342   6.918 -0.4947 -0.4594  0.4628
  120OSM    H6S12586   5.788   0.365   6.823 -2.6458  1.4344  2.0325
  120OSM    H6T12587   5.842   0.231   6.919 -0.7088 -0.4588  0.6465
  120OSM    C7S12588   5.981   0.398   6.870  0.1375 -0.6904  0.8320
  120OSM    H7S12589   6.060   0.378   6.946  1.1665 -2.9313 -0.7211
  120OSM    H7T12590   5.981   0.508   6.854 -1.7153 -0.6645  0.8178
  120OSM    C8S12591   6.017   0.326   6.739 -0.3838 -0.0340  0.3157
  120OSM    H8S12592   5.928   0.317   6.673  1.4680  1.2047 -2.5581
  120OSM    H8T12593   6.048   0.224   6.770  1.3100  0.0650 -0.9030
  120OSM    C9S12594   6.139   0.380   6.656  1.0539 -0.2294  0.1931
  120OSM    H9S12595   6.228   0.362   6.720 -0.0122 -0.9056  1.5391
  120OSM    H9T12596   6.132   0.491   6.656  0.5305 -0.2616  0.1355
  120OSM   C10S12597   6.136   0.323   6.516 -0.2828  0.3143  0.8229
  120OSM   H10S12598   6.122   0.213   6.522  0.6965  0.0156 -1.3237
  120OSM   H10T12599   6.236   0.336   6.470 -1.1757  0.0566 -1.3143
  120OSM   C11S12600   6.033   0.370   6.416 -0.2167  0.9045 -0.1682
  120OSM   H11S12601   5.990   0.468   6.445 -0.8266  0.4166  0.6186
  120OSM   H11T12602   5.950   0.297   6.409  1.1758 -0.7121 -0.3468
  120OSM   C12S12603   6.089   0.384   6.279  0.2687  0.2959  0.0128
  120OSM   H12S12604   6.173   0.456   6.276  0.1571  0.4042 -0.6312
  120OSM   H12T12605   6.003   0.420   6.218 -1.6658 -2.1270  1.1463
  120OSM   C13S12606   6.144   0.260   6.207  0.5890  0.7988  0.1880
  120OSM   H13S12607   6.253   0.247   6.224  0.4741  0.9485  1.0732
  120OSM   H13T12608   6.125   0.287   6.101  0.6931 -2.1113 -0.6384
  120OSM   C14S12609   6.069   0.136   6.241  0.3378 -0.3569  0.0051
  120OSM   H14S12610   5.962   0.162   6.257 -0.5913 -3.0112 -1.3025
  120OSM   H14T12611   6.113   0.097   6.336  1.9868  0.9932 -0.1577
  120OSM   C15S12612   6.075   0.019   6.142  0.6832  0.2234 -0.3430
  120OSM   H15S12613   6.017  -0.071   6.169 -0.6102  0.7920 -1.1348
  120OSM   H15T12614   6.183  -0.003   6.126  0.8109  0.7835 -0.2817
  120OSM   C16S12615   6.016   0.047   6.003  0.0240 -0.1618 -0.3709
  120OSM   H16S12616   6.075   0.130   5.960 -0.0638 -1.5347 -3.4451
  120OSM   H16T12617   5.911   0.074   6.027  0.5658  1.3314  0.4057
  120OSM   C17S12618   6.038  -0.072   5.915  0.0597 -0.0897 -0.4139
  120OSM   H17S12619   5.973  -0.159   5.941  2.4529 -2.2532 -1.2573
  120OSM   H17T12620   6.145  -0.101   5.917  0.1591  0.0411 -2.1042
  120OSM   C18S12621   6.008  -0.046   5.763 -1.0428  0.5030 -0.0757
  120OSM   H18S12622   6.007  -0.146   5.715 -2.5272  0.9854 -1.1358
  120OSM   H18T12623   6.085   0.015   5.710 -0.3605 -0.4784 -0.2486
  120OSM   H18U12624   5.911   0.007   5.761  0.2592  3.0793  0.5840
  120OSM    C1F12625   5.878   0.835   7.209 -0.2775 -0.3554  0.4882
  120OSM     OF12626   5.969   0.857   7.284 -1.1045  0.1010  0.4105
  120OSM    C2F12627   5.809   0.945   7.132 -0.0558  0.3202  0.1473
  120OSM    H2F12628   5.728   0.978   7.200  0.6255  0.3938  0.9314
  120OSM    H2G12629   5.767   0.908   7.036 -1.9558  1.0581  0.6470
  120OSM    C3F12630   5.902   1.062   7.098  0.7482 -0.3547 -0.1994
  120OSM    H3F12631   5.948   1.106   7.188 -0.1156 -0.6553  0.4009
  120OSM    H3G12632   5.843   1.143   7.049  1.6204  0.2043 -0.3470
  120OSM    C4F12633   6.028   1.029   7.013 -0.6118 -0.0374 -0.5073
  120OSM    H4F12634   6.082   0.947   7.065 -0.7174  0.1550 -0.0860
  120OSM    H4G12635   6.088   1.123   7.011 -1.2819  0.4135  0.2056
  120OSM    C5F12636   5.995   0.987   6.879  0.0991 -0.1679 -0.1019
  120OSM    H5F12637   5.944   1.063   6.816  0.6045  0.2845  0.0272
  120OSM    H5G12638   5.921   0.905   6.885 -1.2873  0.8497 -2.0180
  120OSM    C6F12639   6.115   0.929   6.798 -0.4537 -0.3689 -0.3274
  120OSM    H6F12640   6.181   0.862   6.857  0.7320  0.7506 -0.3332
  120OSM    H6G12641   6.179   1.019   6.785 -2.2453  0.8741 -0.8326
  120OSM    C7F12642   6.084   0.856   6.665  0.2671 -1.1127  0.0843
  120OSM    H7F12643   6.025   0.938   6.619  0.2891  0.3200  2.4355
  120OSM    H7G12644   6.017   0.772   6.692 -0.8420 -0.5625 -0.8542
  120OSM    C8F12645   6.193   0.810   6.580 -0.0345  0.4072  0.4721
  120OSM    H8F12646   6.163   0.744   6.495 -0.0240  0.5082  0.3906
  120OSM    H8G12647   6.265   0.749   6.638  0.1606 -1.0902 -1.2470
  120OSM    C9F12648   6.280   0.918   6.523  0.2678 -1.0532 -0.3114
  120OSM    H9F12649   6.359   0.957   6.590  1.7932 -2.0361 -1.4691
  120OSM   C10F12650   6.268   0.966   6.396  1.0814 -0.2180  0.3685
  120OSM   H10F12651   6.329   1.046   6.352 -0.1926 -1.2652 -3.7377
  120OSM   C11F12652   6.176   0.914   6.281  0.4560 -0.8229  0.1333
  120OSM   H11F12653   6.150   1.002   6.217  2.3149  0.3642  0.9354
  120OSM   H11G12654   6.085   0.868   6.324 -1.4273  1.8902 -0.6891
  120OSM   C12F12655   6.245   0.802   6.201 -0.0323  0.1356 -0.2657
  120OSM   H12F12656   6.260   0.719   6.274  1.2051  1.3711  0.9571
  120OSM   H12G12657   6.345   0.831   6.161 -0.3686 -0.2919 -1.4572
  120OSM   C13F12658   6.169   0.753   6.079  0.3917 -0.8422  0.3055
  120OSM   H13F12659   6.160   0.839   6.008 -1.8293 -0.5645  0.8557
  120OSM   H13G12660   6.065   0.739   6.116  0.6917  1.6005  2.3369
  120OSM   C14F12661   6.227   0.626   6.026 -0.3341  0.3700 -0.0506
  120OSM   H14F12662   6.264   0.560   6.107  0.1672  1.0301  0.2613
  120OSM   H14G12663   6.321   0.653   5.973 -0.0776 -0.9054 -0.2825
  120OSM   C15F12664   6.137   0.542   5.925  0.3400 -0.4692 -0.6159
  120OSM   H15F12665   6.096   0.613   5.850  1.4236 -0.8458 -1.5811
  120OSM   H15G12666   6.046   0.508   5.980  0.4237 -0.9507 -0.7668
  120OSM   C16F12667   6.210   0.430   5.855 -0.2872 -0.3069  0.4406
  120OSM   H16F12668   6.253   0.362   5.932  1.1631 -0.4553 -0.4558
  120OSM   H16G12669   6.293   0.477   5.798 -0.1593  0.5444  1.3070
  120OSM   C17F12670   6.127   0.349   5.751 -0.0324  0.1979 -0.9267
  120OSM   H17F12671   6.065   0.411   5.682 -0.0228 -0.2411 -1.3344
  120OSM   H17G12672   6.055   0.288   5.810 -0.1273  1.7288  0.6292
  120OSM   C18F12673   6.211   0.265   5.662  0.0478  0.6275 -0.3668
  120OSM   H18F12674   6.290   0.329   5.615  1.1587 -1.5121 -1.5598
  120OSM   H18G12675   6.155   0.223   5.576 -2.3543 -1.5678  2.0866
  120OSM   H18H12676   6.267   0.187   5.718 -1.9531 -2.1032 -1.9205
  121OSM      N12677   0.604   1.943   7.695  0.1096  0.4929  0.6731
  121OSM    C1512678   0.597   2.078   7.751 -0.0742 -0.0037 -0.1899
  121OSM   H15A12679   0.660   2.084   7.839 -0.6228 -1.3655  0.3205
  121OSM   H15B12680   0.496   2.115   7.759  0.9211  2.7315  1.0146
  121OSM   H15C12681   0.646   2.147   7.684  2.7908 -0.5835  1.1520
  121OSM    C1412682   0.740   1.881   7.703  0.6956  0.4434  0.2581
  121OSM   H14A12683   0.765   1.881   7.808 -2.2860  3.6822  1.1591
  121OSM   H14B12684   0.818   1.941   7.661  1.2562  0.0114  0.6548
  121OSM   H14C12685   0.741   1.780   7.664  1.4211 -0.2472  1.9523
  121OSM    C1312686   0.511   1.852   7.766 -0.2545 -0.0660 -1.0541
  121OSM   H13A12687   0.549   1.830   7.865 -0.7046  3.2141 -0.0527
  121OSM   H13B12688   0.497   1.760   7.711 -0.7954 -0.3751 -0.4114
  121OSM   H13C12689   0.420   1.909   7.771  0.1907  0.6163 -0.6156
  121OSM    C1212690   0.554   1.952   7.552 -0.2938  0.0465 -0.0574
  121OSM   H12A12691   0.452   1.989   7.548 -0.0273  0.8080  0.0375
  121OSM   H12B12692   0.545   1.854   7.509  4.4230 -0.7655  0.3221
  121OSM    C1112693   0.633   2.032   7.454  0.4439  0.0182 -0.5306
  121OSM   H11A12694   0.610   2.015   7.346  0.5328  1.7657 -0.8580
  121OSM   H11B12695   0.743   2.026   7.460  0.3967  0.1555  0.4750
  121OSM      P12696   0.486   2.250   7.412 -0.0585  0.0360 -0.3282
  121OSM    O1312697   0.386   2.270   7.522 -0.1374 -0.9880  0.0945
  121OSM    O1412698   0.537   2.375   7.353  0.1589 -0.1488 -0.4286
  121OSM    O1112699   0.424   2.150   7.300  0.3284 -0.3597 -0.0322
  121OSM    O1212700   0.605   2.169   7.474 -0.2614 -0.1382  0.4112
  121OSM    C1S12701   0.321   2.196   7.213 -0.4292  0.0220 -0.7899
  121OSM    H1S12702   0.296   2.302   7.234 -0.3840  0.3302 -2.2206
  121OSM    H1T12703   0.225   2.142   7.231  0.1217 -0.1793  1.8831
  121OSM     NF12704   0.272   2.246   6.966  0.5273 -0.2223 -0.0612
  121OSM    HNF12705   0.212   2.187   6.912 -0.5260  0.1677  0.6441
  121OSM    C2S12706   0.365   2.189   7.063 -0.1150  0.2448 -0.6284
  121OSM    H2S12707   0.457   2.252   7.060  0.5515 -0.6256  0.4604
  121OSM    C3S12708   0.403   2.042   7.026 -0.4668 -0.8485  0.1380
  121OSM    H3S12709   0.312   1.981   7.047 -2.0667  1.2422 -0.2588
  121OSM     O312710   0.514   1.989   7.095 -0.5613 -0.3480  0.7067
  121OSM    HO312711   0.522   2.043   7.174  1.9355  0.7749 -0.2107
  121OSM    C4S12712   0.436   2.036   6.875  0.7684 -0.0751  0.5327
  121OSM    H4S12713   0.528   2.089   6.847  1.1117 -1.4407 -1.0677
  121OSM    C5S12714   0.366   1.976   6.782  0.5363  0.6294  0.0673
  121OSM    H5S12715   0.266   1.938   6.805  1.4907 -0.9709  1.8850
  121OSM    C6S12716   0.397   1.959   6.631  0.4843 -0.8693 -0.7329
  121OSM    H6S12717   0.406   1.852   6.600  0.7672 -1.0468 -0.0586
  121OSM    H6T12718   0.502   1.988   6.610  0.7023 -0.8105  0.3839
  121OSM    C7S12719   0.310   2.034   6.527  0.4276 -0.8358  1.0433
  121OSM    H7S12720   0.333   2.142   6.533  2.7678 -0.7855 -3.9716
  121OSM    H7T12721   0.203   2.010   6.546  0.1871 -0.9059 -0.3485
  121OSM    C8S12722   0.335   2.002   6.380 -0.5486  0.2071 -0.5308
  121OSM    H8S12723   0.342   1.891   6.378  0.7758  0.2787 -1.2851
  121OSM    H8T12724   0.437   2.025   6.342 -0.5450 -1.5349 -1.6406
  121OSM    C9S12725   0.225   2.057   6.278  0.2760  0.2599 -0.4178
  121OSM    H9S12726   0.212   2.166   6.291  1.7113  0.3972  0.0382
  121OSM    H9T12727   0.133   2.009   6.317  0.8870 -0.2568  0.4427
  121OSM   C10S12728   0.262   2.018   6.133  0.3404 -1.0946 -0.1040
  121OSM   H10S12729   0.178   2.059   6.073  1.6601 -0.1708 -1.3798
  121OSM   H10T12730   0.266   1.907   6.127  1.5763 -1.2562  2.3504
  121OSM   C11S12731   0.393   2.074   6.081  0.3053 -0.4825 -0.5593
  121OSM   H11S12732   0.489   2.027   6.112  1.1328  0.8638 -1.0280
  121OSM   H11T12733   0.400   2.179   6.115  0.2202  0.3341 -2.9416
  121OSM   C12S12734   0.397   2.083   5.926 -0.4361 -0.0260  0.1285
  121OSM   H12S12735   0.319   2.152   5.885  1.8749  3.0216  0.5142
  121OSM   H12T12736   0.366   1.984   5.886 -0.5012 -0.2630  0.7626
  121OSM   C13S12737   0.533   2.130   5.862 -0.0615 -0.5110 -0.2342
  121OSM   H13S12738   0.624   2.082   5.902  1.7491  1.0296 -2.2799
  121OSM   H13T12739   0.554   2.237   5.883 -1.4251 -0.6499  2.2891
  121OSM   C14S12740   0.543   2.114   5.712 -0.1364 -0.0154 -0.4918
  121OSM   H14S12741   0.458   2.164   5.661 -0.5218 -0.5215 -0.3567
  121OSM   H14T12742   0.539   2.006   5.684 -1.5390 -0.1884  0.2753
  121OSM   C15S12743   0.676   2.173   5.671  0.5258  0.3503  0.2535
  121OSM   H15S12744   0.764   2.119   5.711  1.3372  1.4745  0.0178
  121OSM   H15T12745   0.691   2.281   5.691  0.3824  0.7308 -1.4860
  121OSM   C16S12746   0.693   2.168   5.515  0.7687 -0.3466 -0.7123
  121OSM   H16S12747   0.604   2.215   5.467  0.1491  0.4313  1.0831
  121OSM   H16T12748   0.697   2.062   5.483 -1.3308 -0.3385 -1.1857
  121OSM   C17S12749   0.809   2.261   5.462  0.4694  0.3826 -0.2643
  121OSM   H17S12750   0.897   2.264   5.529 -0.6402  2.3176  1.1950
  121OSM   H17T12751   0.771   2.364   5.474 -0.0881  0.4364 -2.1043
  121OSM   C18S12752   0.831   2.236   5.311 -0.3032  0.6278  0.7030
  121OSM   H18S12753   0.740   2.195   5.262 -0.1162  1.5597 -0.4723
  121OSM   H18T12754   0.909   2.157   5.301 -1.0703 -0.4549  2.6858
  121OSM   H18U12755   0.858   2.333   5.264 -0.4884  0.8092  0.9692
  121OSM    C1F12756   0.243   2.376   6.965 -0.5380  0.5151 -0.2134
  121OSM     OF12757   0.316   2.453   7.021 -0.4413 -0.6608 -0.0964
  121OSM    C2F12758   0.123   2.418   6.891 -0.0131 -0.2822  0.5220
  121OSM    H2F12759   0.037   2.437   6.958  1.5685  1.4674  2.2045
  121OSM    H2G12760   0.102   2.336   6.819 -0.6350 -0.1107  0.5042
  121OSM    C3F12761   0.156   2.548   6.815  0.3035 -0.3655  0.1991
  121OSM    H3F12762   0.223   2.615   6.873  1.5926 -0.8944 -0.6560
  121OSM    H3G12763   0.064   2.609   6.801  1.5423  1.4072 -0.6513
  121OSM    C4F12764   0.228   2.533   6.678  0.0767  0.3491 -0.9403
  121OSM    H4F12765   0.318   2.471   6.699 -0.7925 -0.4651  0.5593
  121OSM    H4G12766   0.258   2.636   6.651 -3.2227  1.0023 -2.5601
  121OSM    C5F12767   0.141   2.480   6.562  0.6803 -0.0020 -0.5941
  121OSM    H5F12768   0.038   2.519   6.575  0.7863  0.2151 -0.3976
  121OSM    H5G12769   0.125   2.370   6.568 -1.7331  0.3871  2.0037
  121OSM    C6F12770   0.206   2.519   6.435 -0.2914  0.3551  0.6696
  121OSM    H6F12771   0.304   2.467   6.432 -0.2016  0.5304 -1.2929
  121OSM    H6G12772   0.219   2.629   6.431 -1.0537  0.4532  0.6582
  121OSM    C7F12773   0.123   2.479   6.309  0.1163 -0.1578  0.2547
  121OSM    H7F12774   0.015   2.500   6.324 -0.6092 -3.1074 -0.1697
  121OSM    H7G12775   0.124   2.368   6.313 -1.2514 -0.1968 -0.0687
  121OSM    C8F12776   0.168   2.544   6.178 -0.7931 -0.9486 -0.5619
  121OSM    H8F12777   0.159   2.655   6.186  0.3976 -0.9237  0.9633
  121OSM    H8G12778   0.095   2.524   6.098 -0.8986  0.6929 -0.9225
  121OSM    C9F12779   0.313   2.507   6.147  0.1136 -0.1118  0.2386
  121OSM    H9F12780   0.380   2.523   6.232 -0.6069  1.4654  0.5412
  121OSM   C10F12781   0.348   2.445   6.029 -0.4551  0.3497 -0.2040
  121OSM   H10F12782   0.455   2.420   6.024 -0.2818  1.0152 -0.0452
  121OSM   C11F12783   0.251   2.427   5.914  0.6778 -0.2772 -0.7713
  121OSM   H11F12784   0.179   2.512   5.913 -0.1411 -0.9365  0.2287
  121OSM   H11G12785   0.193   2.334   5.933 -1.4100  1.3476  1.4624
  121OSM   C12F12786   0.305   2.439   5.773 -0.0468  0.0122  0.3087
  121OSM   H12F12787   0.386   2.365   5.761 -1.4127 -1.7827  1.5702
  121OSM   H12G12788   0.337   2.545   5.765  0.2525 -0.1494 -0.6529
  121OSM   C13F12789   0.201   2.407   5.668 -0.0744  0.9955  0.4613
  121OSM   H13F12790   0.112   2.472   5.675  0.0977  1.3016 -0.1847
  121OSM   H13G12791   0.165   2.304   5.691  0.3203  0.4741 -1.1697
  121OSM   C14F12792   0.268   2.419   5.530 -0.5501 -0.4956 -0.5659
  121OSM   H14F12793   0.350   2.344   5.525 -1.2995 -1.4899  1.1937
  121OSM   H14G12794   0.317   2.519   5.535  2.2895 -1.8375  1.1449
  121OSM   C15F12795   0.180   2.414   5.404  0.0080  0.1305 -0.1526
  121OSM   H15F12796   0.246   2.444   5.319 -0.0031  3.5780  0.9096
  121OSM   H15G12797   0.102   2.492   5.409  0.9073  0.9929  1.4752
  121OSM   C16F12798   0.106   2.277   5.388  0.3261 -0.4554 -0.2800
  121OSM   H16F12799   0.029   2.295   5.309 -0.0112 -0.3971  0.0572
  121OSM   H16G12800   0.048   2.267   5.483  1.5613  0.1815  0.5669
  121OSM   C17F12801   0.188   2.153   5.354 -0.6731  0.1447 -0.0866
  121OSM   H17F12802   0.252   2.116   5.436 -0.5377 -1.6724 -0.9470
  121OSM   H17G12803   0.272   2.177   5.286  3.6079 -1.2168  4.1818
  121OSM   C18F12804   0.123   2.031   5.296  0.6318  0.2039 -0.0884
  121OSM   H18F12805   0.043   1.990   5.362  1.9591 -1.0792  0.7765
  121OSM   H18G12806   0.202   1.955   5.281  1.4820  0.6645  1.7429
  121OSM   H18H12807   0.076   2.047   5.196  1.4452  0.1955 -0.4843
  122OSM      N12808   1.468   5.320   7.966  0.1662  0.6498 -0.2249
  122OSM    C1512809   1.416   5.204   8.036  0.4308 -0.2079  0.0834
  122OSM   H15A12810   1.321   5.227   8.082  0.0593  2.5061 -1.8558
  122OSM   H15B12811   1.473   5.187   8.126  0.1474  0.0354  0.3092
  122OSM   H15C12812   1.406   5.112   7.980 -5.1146 -1.9448  3.0672
  122OSM    C1412813   1.432   5.446   8.038 -0.2779  0.0906  0.3984
  122OSM   H14A12814   1.482   5.533   7.999  0.9370 -1.2347 -1.1409
  122OSM   H14B12815   1.468   5.443   8.140  0.5743 -0.8834  0.0785
  122OSM   H14C12816   1.327   5.470   8.046 -0.2966 -0.4226  2.3811
  122OSM    C1312817   1.621   5.302   7.977 -0.0623 -0.0387 -0.2564
  122OSM   H13A12818   1.648   5.207   7.932  0.3741 -1.1234  2.1561
  122OSM   H13B12819   1.666   5.305   8.075 -0.1799  0.4483 -0.2144
  122OSM   H13C12820   1.663   5.378   7.912  0.7946 -1.0356 -0.8910
  122OSM    C1212821   1.427   5.347   7.824 -0.1383  0.7783  0.2049
  122OSM   H12A12822   1.484   5.432   7.789  3.9569 -0.9103  2.0792
  122OSM   H12B12823   1.326   5.381   7.843 -0.1318  0.5310  0.7159
  122OSM    C1112824   1.430   5.224   7.728 -0.2692 -0.3710  0.5699
  122OSM   H11A12825   1.378   5.234   7.630  0.5228 -0.0466  0.1719
  122OSM   H11B12826   1.384   5.134   7.774 -0.3867  0.4433  2.1001
  122OSM      P12827   1.643   5.279   7.600  0.2058  0.6044 -0.1571
  122OSM    O1312828   1.658   5.419   7.648 -0.1417 -0.0264  0.4645
  122OSM    O1412829   1.763   5.204   7.558 -0.0629 -0.3075 -0.4201
  122OSM    O1112830   1.535   5.287   7.479 -0.2971  0.8164  0.8981
  122OSM    O1212831   1.564   5.191   7.714 -0.0330 -0.4162  0.6865
  122OSM    C1S12832   1.574   5.348   7.353 -0.3045 -0.9123  0.2433
  122OSM    H1S12833   1.665   5.304   7.306  0.7350  1.7950 -0.4865
  122OSM    H1T12834   1.601   5.456   7.359 -0.5186 -0.8396 -0.0808
  122OSM     NF12835   1.514   5.412   7.135  0.5721 -0.8115 -0.4688
  122OSM    HNF12836   1.463   5.497   7.125  0.4363 -0.2136  3.6790
  122OSM    C2S12837   1.462   5.338   7.240 -0.1262  0.3499 -0.8595
  122OSM    H2S12838   1.469   5.231   7.209  0.8882 -0.2140  1.1699
  122OSM    C3S12839   1.317   5.381   7.289 -0.6812 -0.0023  0.3939
  122OSM    H3S12840   1.338   5.487   7.316 -1.8372  0.8025 -1.6635
  122OSM     O312841   1.276   5.323   7.419 -0.0059  0.2239  0.4550
  122OSM    HO312842   1.362   5.296   7.452 -0.3928 -2.1623 -0.2984
  122OSM    C4S12843   1.221   5.376   7.179  0.7765 -0.1336 -0.3278
  122OSM    H4S12844   1.190   5.273   7.156 -0.4183  0.1589 -0.1349
  122OSM    C5S12845   1.167   5.481   7.112 -0.3131 -0.2199  0.0108
  122OSM    H5S12846   1.179   5.581   7.155 -1.7824  1.5676 -3.3102
  122OSM    C6S12847   1.067   5.450   7.000  0.1694 -0.5671  1.1529
  122OSM    H6S12848   1.007   5.540   6.973 -1.9056 -1.0210  3.8318
  122OSM    H6T12849   0.981   5.391   7.039 -0.1597 -1.9083 -1.3792
  122OSM    C7S12850   1.139   5.386   6.878 -0.4310  0.1517 -0.6773
  122OSM    H7S12851   1.163   5.281   6.903 -1.0834 -0.4796 -2.5043
  122OSM    H7T12852   1.232   5.438   6.845 -1.3616  0.1427 -3.6458
  122OSM    C8S12853   1.040   5.388   6.756  0.3064  0.3671 -0.0044
  122OSM    H8S12854   1.015   5.490   6.718 -1.2770 -0.1993 -0.5809
  122OSM    H8T12855   0.943   5.341   6.781  0.4754 -0.3659 -0.6963
  122OSM    C9S12856   1.085   5.313   6.632  0.0305  0.2890  0.5771
  122OSM    H9S12857   1.112   5.206   6.651  5.0200  0.7132 -2.3319
  122OSM    H9T12858   1.185   5.355   6.609  0.4629 -1.4919 -1.1239
  122OSM   C10S12859   0.985   5.318   6.515  0.3011  0.6334 -0.4149
  122OSM   H10S12860   0.981   5.428   6.496 -0.3820  1.1330  2.2751
  122OSM   H10T12861   0.885   5.289   6.553  1.0860  0.7321  1.8942
  122OSM   C11S12862   1.034   5.241   6.386  1.3977 -0.4027  0.3041
  122OSM   H11S12863   1.044   5.132   6.406 -1.8401 -1.4946 -2.7994
  122OSM   H11T12864   1.138   5.278   6.375  0.0000  4.2493  0.6050
  122OSM   C12S12865   0.941   5.270   6.259 -0.3569  0.8757 -0.6991
  122OSM   H12S12866   0.950   5.378   6.237 -0.4840  0.9178 -0.5532
  122OSM   H12T12867   0.831   5.273   6.278 -0.2292 -0.0288  0.3282
  122OSM   C13S12868   0.981   5.186   6.139  0.8576  0.7573 -0.1467
  122OSM   H13S12869   0.980   5.079   6.170  2.5070  1.0875  1.2095
  122OSM   H13T12870   1.086   5.204   6.107  0.5633  1.5203 -0.7140
  122OSM   C14S12871   0.888   5.199   6.016  0.7494  0.0380  0.1372
  122OSM   H14S12872   0.895   5.305   5.983  0.7746  0.7015  2.1395
  122OSM   H14T12873   0.782   5.180   6.042  0.5960 -3.1940 -2.2658
  122OSM   C15S12874   0.922   5.098   5.903 -0.1860 -0.7559  0.2143
  122OSM   H15S12875   0.918   4.996   5.947 -0.4619  0.4810  3.3112
  122OSM   H15T12876   1.026   5.120   5.873 -0.4600  2.2000  1.1520
  122OSM   C16S12877   0.825   5.106   5.782  0.7851 -0.4292 -0.1679
  122OSM   H16S12878   0.874   5.051   5.699  1.3589  2.4193 -1.8517
  122OSM   H16T12879   0.819   5.212   5.750  0.2596 -0.5244 -0.3931
  122OSM   C17S12880   0.692   5.044   5.821 -0.1684 -0.0845 -0.1699
  122OSM   H17S12881   0.645   5.123   5.883  1.7133  0.7855  0.2201
  122OSM   H17T12882   0.698   4.951   5.882 -3.2283 -0.2936 -0.0280
  122OSM   C18S12883   0.607   5.007   5.704 -0.4732 -0.9163 -0.0564
  122OSM   H18S12884   0.657   4.930   5.642 -0.3800 -1.4441  0.6519
  122OSM   H18T12885   0.591   5.102   5.649  0.2132 -2.3405 -2.8897
  122OSM   H18U12886   0.516   4.959   5.747  0.2844 -2.1483  0.1947
  122OSM    C1F12887   1.606   5.367   7.051  0.2935 -0.1297  0.3098
  122OSM     OF12888   1.653   5.254   7.050 -0.4218  0.2589  0.3087
  122OSM    C2F12889   1.673   5.472   6.974  0.3816 -0.0917  0.7232
  122OSM    H2F12890   1.780   5.446   6.981  0.5705 -0.0488 -1.3611
  122OSM    H2G12891   1.668   5.567   7.030  0.9038 -0.6534  1.7460
  122OSM    C3F12892   1.613   5.499   6.831 -0.1386  0.6658  0.4612
  122OSM    H3F12893   1.663   5.589   6.790 -1.0941  1.2938  0.6388
  122OSM    H3G12894   1.507   5.531   6.841 -0.1623  1.0753 -0.8857
  122OSM    C4F12895   1.627   5.374   6.735 -0.3035 -0.8281 -0.7213
  122OSM    H4F12896   1.590   5.287   6.794 -1.7389  0.2702  0.0623
  122OSM    H4G12897   1.736   5.361   6.716 -0.1466 -3.7571  1.4065
  122OSM    C5F12898   1.536   5.390   6.601 -0.1665 -0.6786 -0.2573
  122OSM    H5F12899   1.571   5.474   6.537 -2.5182 -0.8052 -1.8219
  122OSM    H5G12900   1.432   5.410   6.634  0.3691 -0.6637  1.5747
  122OSM    C6F12901   1.526   5.261   6.519  0.5162  0.2928  0.7984
  122OSM    H6F12902   1.625   5.226   6.483  0.9116  0.1590  1.9489
  122OSM    H6G12903   1.466   5.279   6.428  0.4444  0.3453  0.8561
  122OSM    C7F12904   1.457   5.155   6.608 -0.1665  0.3477  0.0204
  122OSM    H7F12905   1.418   5.204   6.700  2.3514  1.4489  0.6005
  122OSM    H7G12906   1.539   5.093   6.651  1.7898  2.7455  0.0040
  122OSM    C8F12907   1.367   5.045   6.538 -0.5435 -0.4661 -0.4054
  122OSM    H8F12908   1.425   5.021   6.446  1.5048  1.4478  0.2995
  122OSM    H8G12909   1.281   5.104   6.502 -0.1985  0.4553  0.2490
  122OSM    C9F12910   1.344   4.932   6.636  0.3866  0.2365 -0.5959
  122OSM    H9F12911   1.309   4.971   6.733 -1.0049  0.9220 -1.3540
  122OSM   C10F12912   1.372   4.803   6.607 -0.4552  0.4379 -0.4666
  122OSM   H10F12913   1.356   4.742   6.697  1.7493 -0.7781 -0.8151
  122OSM   C11F12914   1.452   4.745   6.486  0.7804  0.3100  0.0106
  122OSM   H11F12915   1.531   4.674   6.520  0.8481  0.0954 -0.5816
  122OSM   H11G12916   1.515   4.826   6.444  1.3403 -1.1325 -2.0799
  122OSM   C12F12917   1.361   4.701   6.366 -0.2714 -0.5864 -0.4447
  122OSM   H12F12918   1.301   4.782   6.320  0.5177 -0.0329 -0.5353
  122OSM   H12G12919   1.290   4.624   6.403 -1.8716  0.2371 -1.6814
  122OSM   C13F12920   1.452   4.642   6.252  0.2237 -0.9003  0.5967
  122OSM   H13F12921   1.526   4.565   6.283  2.8007  1.6311  1.1242
  122OSM   H13G12922   1.518   4.722   6.212 -1.0416 -1.0663 -2.0572
  122OSM   C14F12923   1.370   4.608   6.115 -0.5846 -0.6409  0.0691
  122OSM   H14F12924   1.315   4.696   6.076 -0.0730 -0.1910  0.3557
  122OSM   H14G12925   1.288   4.536   6.140 -0.6535 -0.0354  1.7421
  122OSM   C15F12926   1.457   4.565   6.001  0.1724 -0.5931  0.3207
  122OSM   H15F12927   1.525   4.480   6.022 -0.3937 -1.2844 -0.5660
  122OSM   H15G12928   1.509   4.661   5.976  4.7273 -2.7723  0.4743
  122OSM   C16F12929   1.371   4.522   5.882  0.9776 -0.0078  0.2479
  122OSM   H16F12930   1.282   4.589   5.887 -1.2302 -2.7654  0.5389
  122OSM   H16G12931   1.333   4.425   5.922 -0.1684  0.9998  1.7131
  122OSM   C17F12932   1.434   4.514   5.742 -0.3502 -0.6414 -0.4855
  122OSM   H17F12933   1.357   4.485   5.668 -0.1642 -0.4337 -0.7604
  122OSM   H17G12934   1.514   4.437   5.741  1.3669  1.0013  1.0475
  122OSM   C18F12935   1.509   4.640   5.702 -0.2322  0.3394 -0.2611
  122OSM   H18F12936   1.537   4.630   5.595  1.6727  0.4736  0.1931
  122OSM   H18G12937   1.599   4.654   5.765  0.8800 -1.3411 -1.3837
  122OSM   H18H12938   1.447   4.732   5.699 -1.2882 -0.3656 -0.4720
  123OSM      N12939   3.591   3.688   2.884 -0.2301  0.2620 -0.0520
  123OSM    C1512940   3.629   3.765   2.763 -0.4713  0.0226  0.1938
  123OSM   H15A12941   3.558   3.833   2.719  0.2022 -0.2569 -1.3928
  123OSM   H15B12942   3.646   3.697   2.681 -0.9052  1.0589 -0.7786
  123OSM   H15C12943   3.718   3.822   2.790 -0.1879  0.0367 -0.7374
  123OSM    C1412944   3.700   3.594   2.930  0.1766 -0.2068 -0.2927
  123OSM   H14A12945   3.791   3.643   2.961  1.3644 -1.5158 -1.5973
  123OSM   H14B12946   3.712   3.513   2.860 -0.2613 -1.3926  0.9701
  123OSM   H14C12947   3.655   3.555   3.020 -0.9936  0.6891 -0.4625
  123OSM    C1312948   3.561   3.785   2.987 -0.4221  0.4810 -0.0403
  123OSM   H13A12949   3.516   3.747   3.078 -0.7665  3.0952  0.9788
  123OSM   H13B12950   3.478   3.849   2.958  1.2722  2.7679 -0.1567
  123OSM   H13C12951   3.657   3.831   3.005  0.3881 -0.9905 -0.4644
  123OSM    C1212952   3.468   3.600   2.852 -0.5827  0.1794  0.0344
  123OSM   H12A12953   3.485   3.554   2.756  1.6809  0.5807  0.1884
  123OSM   H12B12954   3.381   3.661   2.834 -1.1556 -0.8483 -0.7604
  123OSM    C1112955   3.420   3.495   2.956  0.4176 -0.0764 -0.5006
  123OSM   H11A12956   3.495   3.416   2.975  0.5274  0.1852  0.1940
  123OSM   H11B12957   3.333   3.444   2.909  1.0195  1.8066 -4.0052
  123OSM      P12958   3.235   3.648   3.070 -0.1571 -0.1709 -0.3112
  123OSM    O1312959   3.284   3.777   3.117  0.1273 -0.3109 -0.1951
  123OSM    O1412960   3.167   3.643   2.939 -0.1659  0.3065 -0.2193
  123OSM    O1112961   3.134   3.587   3.171 -0.0893  0.4192  0.1602
  123OSM    O1212962   3.366   3.556   3.079 -0.1979  0.0401 -0.6336
  123OSM    C1S12963   3.124   3.450   3.207 -0.1383  0.3084  0.2135
  123OSM    H1S12964   3.215   3.392   3.182 -0.0498  0.0333  1.1089
  123OSM    H1T12965   3.042   3.401   3.149 -0.2843  0.2718  0.4458
  123OSM     NF12966   3.086   3.307   3.403  0.2396  0.3329  0.2201
  123OSM    HNF12967   3.003   3.261   3.434  1.3775 -1.5223  0.6817
  123OSM    C2S12968   3.082   3.441   3.360  0.1213 -0.3113  0.0963
  123OSM    H2S12969   3.166   3.492   3.412  1.6913 -2.1074 -0.5699
  123OSM    C3S12970   2.947   3.516   3.389 -0.0026 -0.4499 -0.1565
  123OSM    H3S12971   2.874   3.459   3.329  0.0803 -0.5709 -0.1419
  123OSM     O312972   2.942   3.645   3.326  0.3826 -0.0715  0.5180
  123OSM    HO312973   3.019   3.650   3.270  1.1363 -0.3473  1.5094
  123OSM    C4S12974   2.901   3.516   3.542  0.2640 -0.0732  0.0086
  123OSM    H4S12975   2.832   3.435   3.572 -1.3595  1.0938 -0.4798
  123OSM    C5S12976   2.913   3.614   3.638  0.3335 -0.4633  0.3677
  123OSM    H5S12977   2.970   3.706   3.618  1.1330 -0.6594  1.6264
  123OSM    C6S12978   2.852   3.611   3.773  0.9471  0.8122  0.1800
  123OSM    H6S12979   2.927   3.591   3.853  1.6425  0.3821 -0.5673
  123OSM    H6T12980   2.784   3.524   3.785 -0.4129  2.0552  1.9262
  123OSM    C7S12981   2.784   3.742   3.806  0.4033 -0.4440  0.4815
  123OSM    H7S12982   2.683   3.750   3.761  0.0306 -0.7587  1.2486
  123OSM    H7T12983   2.845   3.827   3.768  0.3498 -0.9713 -0.8418
  123OSM    C8S12984   2.764   3.750   3.957 -0.3795 -0.3875 -0.0872
  123OSM    H8S12985   2.743   3.853   3.994 -0.0071 -0.6735  0.9461
  123OSM    H8T12986   2.868   3.741   3.994  0.1263  1.5129 -0.8861
  123OSM    C9S12987   2.674   3.653   4.028 -0.1399  0.6111 -0.4518
  123OSM    H9S12988   2.707   3.548   4.007  0.6108  0.8046 -0.2674
  123OSM    H9T12989   2.563   3.656   4.017 -0.4606 -1.1198  1.6422
  123OSM   C10S12990   2.679   3.667   4.183  0.6904 -0.0831 -0.1862
  123OSM   H10S12991   2.623   3.582   4.227  0.6358  1.0919  2.2123
  123OSM   H10T12992   2.621   3.757   4.211  0.0962  0.3147 -2.4960
  123OSM   C11S12993   2.821   3.649   4.246 -0.4027 -0.1266 -0.5694
  123OSM   H11S12994   2.874   3.746   4.234  0.3690 -0.5512 -0.6796
  123OSM   H11T12995   2.879   3.564   4.204  1.6033  1.2996 -0.8493
  123OSM   C12S12996   2.822   3.633   4.400  0.0103  0.2317 -0.1557
  123OSM   H12S12997   2.918   3.589   4.434 -0.6874 -0.9788  0.3749
  123OSM   H12T12998   2.747   3.558   4.433  0.0616  0.8724  1.5124
  123OSM   C13S12999   2.816   3.761   4.481 -0.0096  0.4679 -0.4272
  123OSM   H13S13000   2.711   3.796   4.492 -0.1345 -0.1840  0.6408
  123OSM   H13T13001   2.883   3.833   4.430 -0.2696 -0.0304 -1.5115
  123OSM   C14S13002   2.876   3.734   4.624 -0.7159 -0.3789  0.2460
  123OSM   H14S13003   2.879   3.822   4.693  3.0069  0.2777 -0.5225
  123OSM   H14T13004   2.978   3.689   4.623 -0.3582  0.3861  0.9594
  123OSM   C15S13005   2.793   3.635   4.707  0.6956  0.6934 -0.7617
  123OSM   H15S13006   2.776   3.532   4.668  0.0422  0.5263 -0.0686
  123OSM   H15T13007   2.693   3.683   4.716  0.2101 -0.6167  1.9358
  123OSM   C16S13008   2.853   3.615   4.848  0.4945 -0.9015  0.1587
  123OSM   H16S13009   2.855   3.716   4.895 -2.5117 -0.6668 -0.0264
  123OSM   H16T13010   2.959   3.583   4.843  1.1084  0.7185  1.7375
  123OSM   C17S13011   2.772   3.528   4.946  0.1063  0.1013  0.5257
  123OSM   H17S13012   2.684   3.588   4.978 -0.9991  0.2588 -2.4828
  123OSM   H17T13013   2.825   3.510   5.042 -3.0305 -1.3008  2.1062
  123OSM   C18S13014   2.728   3.392   4.894 -0.4961  0.0899  0.8411
  123OSM   H18S13015   2.637   3.408   4.832 -0.2695  0.8247  0.6981
  123OSM   H18T13016   2.703   3.314   4.969  0.6045 -0.4619  0.6550
  123OSM   H18U13017   2.799   3.340   4.826 -0.9660 -0.0938  0.4850
  123OSM    C1F13018   3.193   3.229   3.400  0.2664  0.0492 -0.4512
  123OSM     OF13019   3.302   3.280   3.374 -0.3362 -0.1649  0.1588
  123OSM    C2F13020   3.184   3.086   3.423 -0.4893  0.4779 -0.3087
  123OSM    H2F13021   3.195   3.030   3.328 -1.1800 -1.2887  0.6223
  123OSM    H2G13022   3.084   3.055   3.459  1.4852 -3.9407  2.1294
  123OSM    C3F13023   3.297   3.032   3.518 -0.0551 -0.1153 -0.3816
  123OSM    H3F13024   3.403   3.050   3.488  0.7899 -4.3030 -0.6014
  123OSM    H3G13025   3.295   2.921   3.517 -1.5432 -0.1044 -1.3008
  123OSM    C4F13026   3.270   3.076   3.665 -0.2435  0.3231 -0.1077
  123OSM    H4F13027   3.167   3.044   3.691  0.3794 -0.1111  2.0542
  123OSM    H4G13028   3.291   3.185   3.671 -0.8153  0.4372 -0.1631
  123OSM    C5F13029   3.353   3.004   3.770  0.2552  0.3485  0.3237
  123OSM    H5F13030   3.443   3.062   3.799 -0.8731  3.3778 -1.7450
  123OSM    H5G13031   3.369   2.905   3.721 -0.5952  0.8685 -1.0703
  123OSM    C6F13032   3.273   2.976   3.895  0.2976 -0.0929 -0.2026
  123OSM    H6F13033   3.294   2.869   3.915  1.0318 -0.1204 -1.1041
  123OSM    H6G13034   3.166   3.004   3.887  1.1083  3.2021 -0.7766
  123OSM    C7F13035   3.334   3.043   4.014  0.0045  0.0385 -1.0848
  123OSM    H7F13036   3.317   3.150   3.994  1.6818  0.2519 -1.4974
  123OSM    H7G13037   3.445   3.038   4.016  0.0654  1.2840  0.3641
  123OSM    C8F13038   3.280   3.009   4.156 -0.0220 -0.3307 -0.1525
  123OSM    H8F13039   3.302   2.905   4.189 -1.5079 -0.4621  0.5034
  123OSM    H8G13040   3.170   3.026   4.149  0.2017  1.8284  0.7269
  123OSM    C9F13041   3.347   3.085   4.268  0.1110  0.5398 -0.7002
  123OSM    H9F13042   3.456   3.080   4.256  0.2831 -0.4404  1.0005
  123OSM   C10F13043   3.298   3.128   4.383 -0.3873 -0.7705  0.3745
  123OSM   H10F13044   3.374   3.181   4.442  0.7220  0.9474 -2.3588
  123OSM   C11F13045   3.157   3.115   4.431  0.0331  0.0708 -0.2663
  123OSM   H11F13046   3.086   3.058   4.368 -1.8960 -1.5957  3.0982
  123OSM   H11G13047   3.117   3.217   4.449  0.6197  0.0812  1.1635
  123OSM   C12F13048   3.135   3.033   4.553 -0.4901 -0.4196  0.3559
  123OSM   H12F13049   3.153   2.924   4.540 -0.4301 -0.3804  0.0943
  123OSM   H12G13050   3.029   3.030   4.585 -0.1327 -1.9248  1.4890
  123OSM   C13F13051   3.210   3.065   4.680 -0.4178 -0.4977 -0.5203
  123OSM   H13F13052   3.318   3.041   4.671 -0.3892 -0.5939  0.0951
  123OSM   H13G13053   3.172   2.996   4.758  1.1489 -2.0715 -1.0761
  123OSM   C14F13054   3.184   3.216   4.706  0.2791  0.1260 -0.3687
  123OSM   H14F13055   3.084   3.242   4.665 -0.7397  0.8423  2.3124
  123OSM   H14G13056   3.262   3.275   4.653  2.7425 -0.9083  1.8748
  123OSM   C15F13057   3.175   3.252   4.854  0.5980  0.4384  0.5056
  123OSM   H15F13058   3.271   3.225   4.902  1.1315  0.6831 -0.4122
  123OSM   H15G13059   3.094   3.183   4.888 -1.8338  0.9916 -3.5650
  123OSM   C16F13060   3.116   3.390   4.890 -0.7719  0.8155  0.7511
  123OSM   H16F13061   3.028   3.395   4.822 -0.8819 -1.5560  0.6580
  123OSM   H16G13062   3.190   3.469   4.863  2.9947 -1.3273  3.7174
  123OSM   C17F13063   3.081   3.402   5.033 -0.3009 -0.0761 -0.4089
  123OSM   H17F13064   3.013   3.318   5.055  0.2648 -0.1557  1.1485
  123OSM   H17G13065   3.023   3.495   5.049 -0.9443 -0.2904 -1.4151
  123OSM   C18F13066   3.196   3.387   5.135  0.2720 -0.9045  0.4309
  123OSM   H18F13067   3.223   3.279   5.138  2.0599 -0.5289 -0.6441
  123OSM   H18G13068   3.169   3.423   5.236 -0.2530  0.7298 -0.2537
  123OSM   H18H13069   3.283   3.449   5.102 -2.3908  2.1405 -1.5060
  124OSM      N13070   0.593   6.316   2.992 -0.3190 -0.1806  0.4269
  124OSM    C1513071   0.537   6.181   2.973 -0.1601  0.0010  0.1533
  124OSM   H15A13072   0.513   6.144   2.874  2.3878 -0.7460 -0.2719
  124OSM   H15B13073   0.451   6.163   3.035 -2.7117 -0.5650 -3.2399
  124OSM   H15C13074   0.613   6.107   2.993  0.5768  0.0706 -2.0511
  124OSM    C1413075   0.618   6.342   3.138  0.4179  0.3408 -0.3205
  124OSM   H14A13076   0.666   6.260   3.190  3.3701  2.6865  0.9834
  124OSM   H14B13077   0.521   6.354   3.184 -0.3682  0.7666 -2.0139
  124OSM   H14C13078   0.665   6.439   3.150  0.3657  0.3137  0.1207
  124OSM    C1313079   0.731   6.317   2.924  0.1715  0.5937  0.5550
  124OSM   H13A13080   0.731   6.307   2.816 -1.9600 -0.7168  0.6256
  124OSM   H13B13081   0.792   6.237   2.963  0.9975  1.4567  1.0682
  124OSM   H13C13082   0.775   6.411   2.955  1.9452 -0.0037  0.0224
  124OSM    C1213083   0.515   6.430   2.925 -0.1163 -0.0912 -0.5269
  124OSM   H12A13084   0.411   6.418   2.950  0.1561 -0.2046  0.6232
  124OSM   H12B13085   0.524   6.425   2.818 -1.5510 -1.4757 -0.6189
  124OSM    C1113086   0.562   6.574   2.962  0.3927 -0.5351  0.8646
  124OSM   H11A13087   0.562   6.582   3.073 -0.4427 -0.7683  0.8863
  124OSM   H11B13088   0.486   6.645   2.924 -0.8485 -1.6837  1.1400
  124OSM      P13089   0.750   6.742   2.930 -0.4715 -0.1558 -0.0794
  124OSM    O1313090   0.862   6.748   2.836 -0.0164  0.4274  0.6262
  124OSM    O1413091   0.651   6.851   2.944  1.1230 -0.6817  0.1177
  124OSM    O1113092   0.809   6.719   3.072 -0.2256  0.6711  0.4701
  124OSM    O1213093   0.684   6.601   2.896  0.4123  0.4916  0.1895
  124OSM    C1S13094   0.912   6.792   3.132  0.2494  0.1373 -0.2032
  124OSM    H1S13095   0.893   6.901   3.119 -1.1850 -0.0826 -0.1132
  124OSM    H1T13096   1.009   6.766   3.085  0.8303  0.0605  1.0230
  124OSM     NF13097   1.020   6.851   3.352  0.0184  0.5894  0.3564
  124OSM    HNF13098   1.106   6.821   3.393  0.6504  2.2444  0.3431
  124OSM    C2S13099   0.932   6.759   3.282 -0.3590  0.5263 -0.3013
  124OSM    H2S13100   0.835   6.779   3.334  0.2443  1.0265  0.6586
  124OSM    C3S13101   0.968   6.605   3.300 -0.0760  0.3173 -0.5671
  124OSM    H3S13102   1.067   6.584   3.255 -0.0229  0.0931 -0.3496
  124OSM     O313103   0.893   6.518   3.212 -0.0516  0.6980  0.0566
  124OSM    HO313104   0.836   6.579   3.163 -1.7111 -1.2618 -0.5728
  124OSM    C4S13105   0.966   6.563   3.448  0.0611 -0.0226  0.4485
  124OSM    H4S13106   1.047   6.601   3.514  0.7929 -0.0411 -0.4163
  124OSM    C5S13107   0.868   6.497   3.513  0.8393 -0.4820 -0.1962
  124OSM    H5S13108   0.769   6.472   3.473  1.1448  0.4365 -1.6293
  124OSM    C6S13109   0.876   6.469   3.664  0.3768  0.2292 -0.5072
  124OSM    H6S13110   0.863   6.362   3.693 -1.6512  0.3314 -0.8941
  124OSM    H6T13111   0.784   6.512   3.711  0.2331 -2.1462  1.6269
  124OSM    C7S13112   1.001   6.506   3.754  0.2534  0.3400  0.1204
  124OSM    H7S13113   1.010   6.617   3.750 -1.8843  0.6089  1.0157
  124OSM    H7T13114   1.089   6.469   3.697  0.2495  1.3821 -0.5900
  124OSM    C8S13115   1.012   6.441   3.889 -0.7236 -0.1133  0.3340
  124OSM    H8S13116   1.106   6.477   3.934 -1.0332  1.6305 -0.3502
  124OSM    H8T13117   1.010   6.331   3.874 -1.9319 -0.1233  0.4714
  124OSM    C9S13118   0.902   6.468   3.983 -0.2051  0.1502  0.4918
  124OSM    H9S13119   0.821   6.391   3.985  0.7765 -0.9103  1.1763
  124OSM    H9T13120   0.863   6.566   3.950 -0.8446 -0.2947 -0.1140
  124OSM   C10S13121   0.950   6.472   4.126  0.2251  0.1258  0.0288
  124OSM   H10S13122   1.021   6.556   4.144  0.6963 -0.5112  1.3119
  124OSM   H10T13123   1.009   6.378   4.141  2.4735  1.5355  0.5872
  124OSM   C11S13124   0.831   6.476   4.219 -0.3776 -0.2406 -0.5297
  124OSM   H11S13125   0.764   6.387   4.221  1.1809 -1.4714  2.1234
  124OSM   H11T13126   0.781   6.572   4.195  1.2682  0.6161 -0.6497
  124OSM   C12S13127   0.867   6.506   4.363 -0.7179  0.7422  0.1316
  124OSM   H12S13128   0.920   6.603   4.373  0.0252  0.3259  0.2906
  124OSM   H12T13129   0.937   6.428   4.401 -2.6005 -0.9072  0.4068
  124OSM   C13S13130   0.756   6.522   4.462 -0.5745 -0.4482 -0.2796
  124OSM   H13S13131   0.720   6.419   4.482  1.9898 -1.8725 -2.4493
  124OSM   H13T13132   0.688   6.600   4.422  2.9323  3.0315 -0.1260
  124OSM   C14S13133   0.820   6.586   4.592  0.2957  0.2179  0.1527
  124OSM   H14S13134   0.743   6.647   4.644  1.3233  0.1176  1.8966
  124OSM   H14T13135   0.897   6.661   4.564 -0.8450  1.5573  0.4880
  124OSM   C15S13136   0.871   6.483   4.698  0.1504  0.5602  0.0700
  124OSM   H15S13137   0.943   6.419   4.641 -0.3317 -0.0641  0.1570
  124OSM   H15T13138   0.790   6.414   4.729  0.4585 -0.6862 -1.7262
  124OSM   C16S13139   0.934   6.550   4.825  0.0671 -0.0870 -0.2158
  124OSM   H16S13140   0.861   6.612   4.880 -0.0430 -0.6517  0.2818
  124OSM   H16T13141   1.029   6.600   4.797  1.5599 -1.9050  1.3183
  124OSM   C17S13142   0.966   6.450   4.942  0.0253  0.2415  0.1403
  124OSM   H17S13143   0.874   6.395   4.972  0.7319 -0.7793  0.4774
  124OSM   H17T13144   1.003   6.501   5.033  2.6425 -1.1343 -0.0600
  124OSM   C18S13145   1.075   6.343   4.916  0.2573  0.0483 -0.3581
  124OSM   H18S13146   1.055   6.294   4.818 -3.9416 -0.2632  0.4641
  124OSM   H18T13147   1.072   6.258   4.988 -1.1100 -1.0937 -1.7010
  124OSM   H18U13148   1.175   6.391   4.908  0.7386 -0.9660 -0.6020
  124OSM    C1F13149   0.992   6.977   3.367 -0.4175 -0.6320  0.0672
  124OSM     OF13150   0.885   7.021   3.338  0.4869 -0.2523 -0.3705
  124OSM    C2F13151   1.091   7.078   3.423  0.1638 -0.1350 -0.1660
  124OSM    H2F13152   1.071   7.171   3.365  1.5391 -0.5816 -1.4282
  124OSM    H2G13153   1.191   7.037   3.398 -0.4225 -1.5389 -0.3181
  124OSM    C3F13154   1.079   7.109   3.579  0.0827 -0.0534 -0.5738
  124OSM    H3F13155   0.979   7.158   3.590 -0.9428 -2.1896  0.2328
  124OSM    H3G13156   1.159   7.181   3.605  0.5952 -0.9169  0.2591
  124OSM    C4F13157   1.091   6.991   3.671 -0.1895  0.2141 -0.5815
  124OSM    H4F13158   1.196   6.954   3.672 -0.3992 -0.3786  0.0799
  124OSM    H4G13159   1.016   6.914   3.644 -0.5372  0.9477 -1.8077
  124OSM    C5F13160   1.083   7.044   3.818 -0.2314  0.4645 -0.0067
  124OSM    H5F13161   1.002   7.118   3.834 -1.6552 -1.5206  2.6958
  124OSM    H5G13162   1.182   7.089   3.839  0.3314 -0.1796 -1.1651
  124OSM    C6F13163   1.064   6.923   3.922  0.2369 -0.4893  0.4750
  124OSM    H6F13164   1.162   6.875   3.937 -0.5343 -1.3106  3.3568
  124OSM    H6G13165   0.995   6.850   3.875 -0.4444  0.5672 -0.2272
  124OSM    C7F13166   1.004   6.964   4.050  0.6218  0.0243 -0.6730
  124OSM    H7F13167   0.908   7.012   4.020  1.7732  1.5734 -2.1080
  124OSM    H7G13168   1.068   7.036   4.106  1.5173  0.5058 -2.2483
  124OSM    C8F13169   0.976   6.843   4.136 -0.3379  0.2620  0.5962
  124OSM    H8F13170   1.067   6.789   4.173 -0.0196  0.7671  0.5630
  124OSM    H8G13171   0.914   6.770   4.080 -0.7543  0.4482  0.8114
  124OSM    C9F13172   0.900   6.891   4.262 -0.0868 -0.0417  0.2112
  124OSM    H9F13173   0.791   6.903   4.250 -0.4560 -2.7446  0.3311
  124OSM   C10F13174   0.957   6.940   4.377  0.6882 -0.2808  0.1286
  124OSM   H10F13175   0.888   6.980   4.453  0.8358  0.5384 -0.1562
  124OSM   C11F13176   1.106   6.949   4.408  0.3500 -0.3741 -0.6095
  124OSM   H11F13177   1.123   7.058   4.411 -0.2406 -0.2899  1.0732
  124OSM   H11G13178   1.166   6.893   4.334  0.5318 -1.3463  0.2495
  124OSM   C12F13179   1.135   6.895   4.553 -0.1378 -0.4055 -0.1133
  124OSM   H12F13180   1.243   6.898   4.577 -0.4300 -1.3269  1.4047
  124OSM   H12G13181   1.106   6.788   4.555 -0.8466 -0.2180  0.2382
  124OSM   C13F13182   1.054   6.977   4.657  0.0380 -0.0607 -0.3873
  124OSM   H13F13183   0.946   6.952   4.653  0.3137 -1.3719 -0.1201
  124OSM   H13G13184   1.073   7.083   4.628  0.2174 -0.2446 -0.9649
  124OSM   C14F13185   1.109   6.954   4.802  0.0674 -0.1223  0.4723
  124OSM   H14F13186   1.216   6.986   4.807  0.4377  0.0231 -4.1354
  124OSM   H14G13187   1.090   6.847   4.823 -0.3801 -0.4453 -1.3544
  124OSM   C15F13188   1.029   7.033   4.908  0.1997 -1.3301 -0.0418
  124OSM   H15F13189   0.918   7.034   4.901  0.0504  0.4362  1.7985
  124OSM   H15G13190   1.050   7.140   4.887 -1.2358 -1.3485 -1.8011
  124OSM   C16F13191   1.064   7.009   5.059 -0.5360  0.5671 -0.3368
  124OSM   H16F13192   1.161   7.058   5.080 -0.2243 -0.3655  0.4317
  124OSM   H16G13193   1.083   6.900   5.064  0.2780  0.7525  0.9482
  124OSM   C17F13194   0.953   7.025   5.164  0.0701  0.2917  0.6878
  124OSM   H17F13195   0.911   7.127   5.165  1.0896  0.7362 -0.0025
  124OSM   H17G13196   1.002   6.997   5.260  0.0684 -1.0823  0.3192
  124OSM   C18F13197   0.836   6.934   5.142 -0.5992  0.4186 -0.7484
  124OSM   H18F13198   0.787   6.952   5.044 -1.2465  2.2179 -0.1310
  124OSM   H18G13199   0.755   6.958   5.214 -0.5784  0.1604 -0.6370
  124OSM   H18H13200   0.860   6.826   5.139  1.4394  0.8497 -1.6662
  125OSM      N13201   2.736   3.635   3.025 -0.7615 -0.3962 -0.4010
  125OSM    C1513202   2.745   3.780   3.059 -0.3619 -0.3269 -0.1210
  125OSM   H15A13203   2.810   3.796   3.144  1.3713  1.7112 -1.6978
  125OSM   H15B13204   2.643   3.809   3.076 -0.1925 -0.5633  1.4113
  125OSM   H15C13205   2.778   3.841   2.975 -0.3461  2.1161  1.5666
  125OSM    C1413206   2.660   3.611   2.895  0.1415 -0.0274 -0.8808
  125OSM   H14A13207   2.571   3.672   2.888  1.1692  2.0085  1.9559
  125OSM   H14B13208   2.624   3.509   2.890  0.2204 -0.1215  0.1876
  125OSM   H14C13209   2.732   3.636   2.819  0.2538  0.6996 -0.5454
  125OSM    C1313210   2.876   3.580   3.021  0.2174  0.4872  0.7514
  125OSM   H13A13211   2.937   3.622   2.942  1.2203  0.4803  1.4941
  125OSM   H13B13212   2.865   3.475   2.996  0.4301  0.4324  0.8815
  125OSM   H13C13213   2.927   3.586   3.117 -1.6954 -1.4880  1.9983
  125OSM    C1213214   2.670   3.574   3.141  0.0277  0.7762 -0.6743
  125OSM   H12A13215   2.574   3.619   3.161 -0.0282  0.8576 -1.1276
  125OSM   H12B13216   2.737   3.589   3.225  0.7136 -2.1771 -0.6131
  125OSM    C1113217   2.640   3.422   3.143  0.0541  0.5946 -0.2856
  125OSM   H11A13218   2.593   3.411   3.243 -0.6040  0.7242 -0.5761
  125OSM   H11B13219   2.736   3.367   3.136 -0.8194 -1.0850  0.3375
  125OSM      P13220   2.399   3.378   3.047 -0.0955  0.0881  0.0786
  125OSM    O1313221   2.358   3.520   3.066  0.3084  0.1821 -0.4111
  125OSM    O1413222   2.326   3.311   2.941  0.2700 -0.3621  0.3182
  125OSM    O1113223   2.382   3.298   3.186  0.2573  0.6503 -0.1310
  125OSM    O1213224   2.559   3.378   3.031 -0.5350 -0.2924  0.0128
  125OSM    C1S13225   2.390   3.153   3.179  0.5494  0.2783 -0.1047
  125OSM    H1S13226   2.493   3.128   3.148  0.4912  0.1114 -0.1664
  125OSM    H1T13227   2.330   3.114   3.094  0.7071 -1.1833  0.4284
  125OSM     NF13228   2.361   2.943   3.290  0.1236  0.4619 -0.4721
  125OSM    HNF13229   2.280   2.901   3.250 -0.7850 -0.0759  1.7865
  125OSM    C2S13230   2.342   3.087   3.310 -0.3687  0.2220  0.0688
  125OSM    H2S13231   2.412   3.115   3.392  0.0318  0.1663 -0.2501
  125OSM    C3S13232   2.191   3.136   3.342  0.1408  0.1613  0.1951
  125OSM    H3S13233   2.128   3.095   3.260 -1.2114  0.8212  0.8565
  125OSM     O313234   2.167   3.278   3.337  0.3899  0.2240 -0.7309
  125OSM    HO313235   2.247   3.310   3.294  0.3627  1.1281 -0.1386
  125OSM    C4S13236   2.149   3.087   3.473  0.2896 -0.6044  0.3617
  125OSM    H4S13237   2.231   3.087   3.546  1.3200 -1.0102 -0.7665
  125OSM    C5S13238   2.029   3.042   3.504  0.6353 -0.6564  0.2312
  125OSM    H5S13239   1.949   3.039   3.429  2.9383 -0.5379 -2.3675
  125OSM    C6S13240   1.981   2.989   3.636  0.2411 -0.1916  0.2466
  125OSM    H6S13241   1.966   2.883   3.607 -0.1094 -0.0125 -0.2324
  125OSM    H6T13242   1.889   3.040   3.669  0.8487 -0.3004  2.2660
  125OSM    C7S13243   2.084   3.002   3.756  1.2811  0.7174 -0.3748
  125OSM    H7S13244   2.121   3.105   3.771 -2.1034  2.1158 -0.8407
  125OSM    H7T13245   2.173   2.940   3.733 -0.4129 -1.4552 -1.5148
  125OSM    C8S13246   2.015   2.958   3.889 -0.1837 -0.1606 -0.3436
  125OSM    H8S13247   1.950   2.868   3.878 -1.0978  0.4363  0.0555
  125OSM    H8T13248   1.941   3.037   3.913 -0.1173 -0.6457  1.6503
  125OSM    C9S13249   2.120   2.937   4.001  0.0954  0.0669 -0.4945
  125OSM    H9S13250   2.192   3.022   4.007  0.7747 -0.6099  2.7607
  125OSM    H9T13251   2.176   2.845   3.972 -1.9669 -1.2393 -0.5054
  125OSM   C10S13252   2.053   2.923   4.140 -0.1199  0.4058 -0.0412
  125OSM   H10S13253   2.012   3.023   4.163  1.0829  0.6464  1.1983
  125OSM   H10T13254   2.141   2.905   4.206  0.8227  1.2607 -1.0447
  125OSM   C11S13255   1.954   2.805   4.168 -1.1254 -0.4785 -0.4778
  125OSM   H11S13256   2.004   2.708   4.148  1.0253  0.7726 -1.5147
  125OSM   H11T13257   1.872   2.801   4.094 -0.8867 -0.9934 -0.7254
  125OSM   C12S13258   1.910   2.809   4.313  0.1761 -0.0825  0.4331
  125OSM   H12S13259   2.001   2.818   4.377  1.0861  0.7965 -0.9186
  125OSM   H12T13260   1.856   2.718   4.347 -2.4075  1.3774  0.4511
  125OSM   C13S13261   1.826   2.929   4.354 -0.3765 -0.3275  0.9453
  125OSM   H13S13262   1.744   2.946   4.281  0.9485  0.3897 -0.4620
  125OSM   H13T13263   1.882   3.025   4.340  1.4870 -1.3119  1.3353
  125OSM   C14S13264   1.780   2.904   4.491 -0.8488  0.0457  0.2586
  125OSM   H14S13265   1.864   2.901   4.563 -0.5265  1.9055  0.0096
  125OSM   H14T13266   1.730   2.805   4.505 -0.7984  0.0228  0.2791
  125OSM   C15S13267   1.689   3.015   4.545  0.7849  1.2316 -0.0379
  125OSM   H15S13268   1.746   3.111   4.540 -0.1037  1.7990  0.3584
  125OSM   H15T13269   1.679   2.987   4.652  1.7885  1.4194  0.1189
  125OSM   C16S13270   1.558   3.020   4.468 -0.0445 -1.0391  0.1788
  125OSM   H16S13271   1.586   3.057   4.367  2.9309  1.0165  1.5980
  125OSM   H16T13272   1.492   3.098   4.512  0.5439  0.0482 -0.8118
  125OSM   C17S13273   1.473   2.898   4.480  0.2434  0.1324 -0.4844
  125OSM   H17S13274   1.461   2.870   4.587  2.6094 -0.1429 -0.2514
  125OSM   H17T13275   1.523   2.810   4.435 -1.3986 -0.7047 -0.7738
  125OSM   C18S13276   1.347   2.905   4.407 -0.6337  0.1660 -0.1235
  125OSM   H18S13277   1.268   2.950   4.472 -0.4050 -0.5051  0.6333
  125OSM   H18T13278   1.307   2.803   4.390 -2.1732  0.1864  2.6624
  125OSM   H18U13279   1.346   2.963   4.313 -2.5476  0.0647 -0.2055
  125OSM    C1F13280   2.473   2.876   3.298  0.0793 -0.4877  0.8546
  125OSM     OF13281   2.579   2.939   3.306  0.4621 -0.0672  0.0351
  125OSM    C2F13282   2.471   2.722   3.304 -0.0206 -0.5027  0.1112
  125OSM    H2F13283   2.458   2.681   3.202  0.2547  0.1948 -0.2089
  125OSM    H2G13284   2.375   2.698   3.353 -0.7350  0.1716 -0.9258
  125OSM    C3F13285   2.591   2.652   3.379 -0.0779  0.8550  0.8315
  125OSM    H3F13286   2.682   2.677   3.320 -0.5574 -2.5330 -1.6695
  125OSM    H3G13287   2.580   2.542   3.367  0.3952  0.8550  0.3673
  125OSM    C4F13288   2.614   2.692   3.521 -0.1633  0.4394  0.0667
  125OSM    H4F13289   2.656   2.794   3.533  1.2452 -0.1028 -0.0577
  125OSM    H4G13290   2.695   2.625   3.558  0.9603 -0.2213 -3.2754
  125OSM    C5F13291   2.491   2.664   3.604  0.1628  0.2555 -0.3800
  125OSM    H5F13292   2.427   2.577   3.579 -1.1564  0.8124  0.9448
  125OSM    H5G13293   2.430   2.754   3.581  0.5380  0.2779 -1.3340
  125OSM    C6F13294   2.515   2.662   3.762  0.0682  0.5438  0.0821
  125OSM    H6F13295   2.570   2.755   3.787  0.8406  0.0351  0.3010
  125OSM    H6G13296   2.585   2.580   3.787  1.8566  1.7338 -0.8566
  125OSM    C7F13297   2.391   2.634   3.851 -0.1776  0.0912 -0.4215
  125OSM    H7F13298   2.355   2.539   3.807 -2.5279  0.8408 -0.2189
  125OSM    H7G13299   2.322   2.721   3.845 -1.1691 -0.4243  2.0807
  125OSM    C8F13300   2.439   2.614   3.996  0.0723 -0.4790 -0.2841
  125OSM    H8F13301   2.499   2.704   4.020  2.0839 -1.6019 -0.9175
  125OSM    H8G13302   2.499   2.521   4.003 -2.7082 -2.4511 -1.0022
  125OSM    C9F13303   2.335   2.583   4.103 -0.8752 -0.1063  0.3863
  125OSM    H9F13304   2.235   2.548   4.073 -1.1493  0.1682  0.9709
  125OSM   C10F13305   2.352   2.598   4.235  0.2790  0.5801 -0.4035
  125OSM   H10F13306   2.266   2.574   4.299  1.4598 -1.7427  0.4144
  125OSM   C11F13307   2.485   2.629   4.300 -0.1477  0.9758 -0.3842
  125OSM   H11F13308   2.489   2.698   4.387 -0.9609  0.1206  0.3493
  125OSM   H11G13309   2.550   2.690   4.233 -0.9924  2.4421  0.1046
  125OSM   C12F13310   2.569   2.507   4.338  0.3997  0.3130 -0.8154
  125OSM   H12F13311   2.654   2.546   4.398 -1.2384  0.0967  1.8138
  125OSM   H12G13312   2.619   2.452   4.255  1.6139 -2.1733  1.3968
  125OSM   C13F13313   2.497   2.394   4.423  0.2540  0.3522  0.7924
  125OSM   H13F13314   2.447   2.322   4.356  0.0899  1.0120  0.1833
  125OSM   H13G13315   2.414   2.452   4.470 -0.8058 -1.5624  1.3592
  125OSM   C14F13316   2.592   2.330   4.519  0.0163  0.0984 -0.6254
  125OSM   H14F13317   2.651   2.408   4.573 -3.1724  1.8888  0.5557
  125OSM   H14G13318   2.673   2.274   4.468  2.1656  0.5832  2.0207
  125OSM   C15F13319   2.519   2.243   4.627 -1.0378  0.4575  0.9125
  125OSM   H15F13320   2.477   2.154   4.575 -0.7880 -1.0928  3.2088
  125OSM   H15G13321   2.439   2.311   4.664  1.8570  3.5636  1.8858
  125OSM   C16F13322   2.607   2.200   4.744 -0.8000  0.3947  0.1568
  125OSM   H16F13323   2.653   2.284   4.801 -1.4945  1.6204 -1.0020
  125OSM   H16G13324   2.686   2.130   4.710 -0.7184  1.7826 -2.8687
  125OSM   C17F13325   2.531   2.119   4.853  0.1801 -0.9435  0.1855
  125OSM   H17F13326   2.608   2.091   4.927 -0.8834  1.3091  2.2869
  125OSM   H17G13327   2.501   2.032   4.790  0.1663  0.0260 -1.1938
  125OSM   C18F13328   2.407   2.186   4.921 -0.4675  0.2246 -0.6576
  125OSM   H18F13329   2.439   2.281   4.969 -0.9985 -0.4061  1.0228
  125OSM   H18G13330   2.384   2.128   5.013  0.2072  1.5145  0.3582
  125OSM   H18H13331   2.318   2.209   4.858 -0.8620 -0.3568 -0.3180
  126OSM      N13332   6.508   3.336   2.686 -0.5802  0.4837  0.4648
  126OSM    C1513333   6.413   3.445   2.674  0.3358  0.2305 -0.1055
  126OSM   H15A13334   6.459   3.543   2.682  1.3203 -0.2753  0.5379
  126OSM   H15B13335   6.350   3.460   2.761 -1.4642  0.7955 -1.4355
  126OSM   H15C13336   6.354   3.427   2.585  1.5760 -3.5792 -0.3341
  126OSM    C1413337   6.434   3.209   2.694 -0.7306  0.2250 -0.1242
  126OSM   H14A13338   6.357   3.197   2.620 -2.6583 -0.6849  1.9243
  126OSM   H14B13339   6.365   3.195   2.776 -2.1324 -1.2343 -1.5027
  126OSM   H14C13340   6.507   3.130   2.688  0.1145  0.9508  0.3287
  126OSM    C1313341   6.581   3.333   2.560  0.3562 -0.3858 -0.1354
  126OSM   H13A13342   6.514   3.309   2.478 -0.1084  2.0909 -0.5515
  126OSM   H13B13343   6.662   3.262   2.568 -0.5218 -1.2485  2.2036
  126OSM   H13C13344   6.626   3.429   2.543 -0.3992  0.5472  2.5622
  126OSM    C1213345   6.597   3.352   2.810 -0.5272  0.4034  0.2976
  126OSM   H12A13346   6.639   3.451   2.808  2.3565 -0.6976  0.9172
  126OSM   H12B13347   6.678   3.283   2.792 -0.5491  0.5904 -0.5292
  126OSM    C1113348   6.554   3.321   2.957  0.1491  0.1996  0.2899
  126OSM   H11A13349   6.465   3.380   2.987  0.6774  0.1768  1.9722
  126OSM   H11B13350   6.633   3.352   3.028  0.0189  1.5862 -0.1494
  126OSM      P13351   6.647   3.076   2.955  0.1842 -0.5209 -0.1951
  126OSM    O1313352   6.598   2.965   2.875  0.0946 -0.1405  0.3782
  126OSM    O1413353   6.762   3.144   2.895 -0.7741 -0.1341 -0.0201
  126OSM    O1113354   6.677   3.038   3.105  0.4398 -0.6389  0.4662
  126OSM    O1213355   6.523   3.177   2.969 -0.3667 -0.0598 -0.1187
  126OSM    C1S13356   6.564   2.988   3.174  0.0449 -0.2896 -0.6584
  126OSM    H1S13357   6.498   2.921   3.114  1.0175 -1.4761 -0.4460
  126OSM    H1T13358   6.497   3.069   3.208  0.7592 -0.7329  2.0599
  126OSM     NF13359   6.500   2.825   3.360 -0.1550 -0.5483  0.6038
  126OSM    HNF13360   6.439   2.853   3.433  0.0668 -0.6120  0.8167
  126OSM    C2S13361   6.602   2.914   3.311 -0.1648 -0.4172 -0.4182
  126OSM    H2S13362   6.690   2.847   3.301 -1.2523 -1.6079 -3.0294
  126OSM    C3S13363   6.646   3.026   3.409  0.3820  0.0037 -0.5020
  126OSM    H3S13364   6.563   3.096   3.427 -0.8868 -1.9193  1.6257
  126OSM     O313365   6.746   3.092   3.350  0.0159 -0.1919  0.2727
  126OSM    HO313366   6.743   3.064   3.258 -2.2132  0.6780  0.0284
  126OSM    C4S13367   6.684   2.963   3.546  0.2754  0.2213 -0.2144
  126OSM    H4S13368   6.605   2.921   3.610 -0.4019 -0.1849 -1.2934
  126OSM    C5S13369   6.804   2.957   3.604 -0.8323 -0.0755  0.0814
  126OSM    H5S13370   6.891   2.999   3.551 -0.4166 -0.2162  0.6454
  126OSM    C6S13371   6.844   2.901   3.734 -0.0653  0.5690  0.1448
  126OSM    H6S13372   6.893   2.802   3.733 -2.1426 -0.5702  1.6521
  126OSM    H6T13373   6.757   2.869   3.796  0.3881  1.3120  1.2031
  126OSM    C7S13374   6.941   2.992   3.809  0.4065  0.2976  0.2049
  126OSM    H7S13375   6.889   3.086   3.837  0.0129  0.3091 -0.5456
  126OSM    H7T13376   7.027   3.015   3.742 -0.0904 -0.0745 -0.5709
  126OSM    C8S13377   6.984   2.927   3.942 -0.2312  0.3544  0.3696
  126OSM    H8S13378   7.080   2.982   3.947 -0.0384  0.2679 -1.4780
  126OSM    H8T13379   7.005   2.818   3.938  0.4795  0.5297 -1.9468
  126OSM    C9S13380   6.886   2.958   4.049  0.4686 -0.5288 -0.1723
  126OSM    H9S13381   6.787   2.914   4.026  0.3210  0.1744 -0.9428
  126OSM    H9T13382   6.872   3.068   4.058  0.4031 -0.5647  0.1719
  126OSM   C10S13383   6.950   2.910   4.184 -0.4340 -0.3644  0.6118
  126OSM   H10S13384   7.033   2.982   4.202 -1.1793  0.3395  1.3700
  126OSM   H10T13385   6.991   2.808   4.172 -1.3794 -1.0722  2.7471
  126OSM   C11S13386   6.839   2.926   4.287 -0.1827 -0.3553 -0.2621
  126OSM   H11S13387   6.747   2.865   4.275 -1.3170  1.1832  0.3591
  126OSM   H11T13388   6.793   3.027   4.281  0.9193  0.1173 -1.1473
  126OSM   C12S13389   6.891   2.905   4.427  0.4960  0.0299  0.3036
  126OSM   H12S13390   6.984   2.965   4.440  0.7603  0.4076 -2.5811
  126OSM   H12T13391   6.917   2.798   4.440 -2.1390 -0.5965  1.0024
  126OSM   C13S13392   6.788   2.922   4.541 -0.1771  0.6077  1.1053
  126OSM   H13S13393   6.718   2.837   4.526  1.7132 -0.5892 -2.0080
  126OSM   H13T13394   6.733   3.019   4.539  0.7873  1.1882 -1.6922
  126OSM   C14S13395   6.843   2.894   4.675  0.3722  0.0910  0.2824
  126OSM   H14S13396   6.779   2.950   4.748  1.0004  0.6064  0.4430
  126OSM   H14T13397   6.943   2.938   4.693 -0.0094  1.0691  0.1217
  126OSM   C15S13398   6.860   2.745   4.712 -0.0817 -0.5452 -0.0094
  126OSM   H15S13399   6.936   2.703   4.642 -0.6324  0.5577 -1.3290
  126OSM   H15T13400   6.769   2.687   4.689 -0.0285  0.2785 -2.6592
  126OSM   C16S13401   6.903   2.718   4.854  0.2907 -0.0661  0.3259
  126OSM   H16S13402   6.819   2.749   4.919  0.1824 -2.0909  1.2168
  126OSM   H16T13403   6.990   2.788   4.860  0.5766 -0.2730 -1.0038
  126OSM   C17S13404   6.934   2.573   4.879  0.5594  0.4810  0.2732
  126OSM   H17S13405   7.032   2.555   4.830  0.4240 -1.0723  0.5015
  126OSM   H17T13406   6.858   2.505   4.835  2.0850 -1.0325 -0.1586
  126OSM   C18S13407   6.941   2.532   5.031 -0.1443 -0.3720  0.1730
  126OSM   H18S13408   7.013   2.601   5.081 -1.3902  1.3185 -0.2936
  126OSM   H18T13409   6.960   2.423   5.041 -0.6113 -0.4918 -0.2342
  126OSM   H18U13410   6.838   2.549   5.069  0.3206  0.4968  1.0684
  126OSM    C1F13411   6.477   2.705   3.300  0.2940  0.1078  0.3345
  126OSM     OF13412   6.524   2.681   3.189  0.3221 -0.4096 -0.4326
  126OSM    C2F13413   6.383   2.609   3.364 -0.7798 -0.0195  0.4216
  126OSM    H2F13414   6.325   2.557   3.284  0.3291  0.0978 -0.4881
  126OSM    H2G13415   6.311   2.664   3.428  0.7212 -0.0285  2.2041
  126OSM    C3F13416   6.470   2.509   3.447  0.5856  0.1465  0.1402
  126OSM    H3F13417   6.545   2.460   3.381  0.5203 -0.0940  0.2441
  126OSM    H3G13418   6.402   2.432   3.489 -1.7695  2.6162  1.1336
  126OSM    C4F13419   6.542   2.577   3.568 -0.5733  0.4777  0.4152
  126OSM    H4F13420   6.599   2.667   3.539  2.2081 -1.2826  0.1104
  126OSM    H4G13421   6.616   2.503   3.603 -1.0160 -0.9626 -1.5345
  126OSM    C5F13422   6.454   2.592   3.691  0.1285 -0.8171 -0.3288
  126OSM    H5F13423   6.373   2.518   3.711 -1.0830  0.5644  0.0981
  126OSM    H5G13424   6.407   2.689   3.663  0.5488  0.0849  1.8252
  126OSM    C6F13425   6.530   2.624   3.816  0.0919 -0.0719  0.1111
  126OSM    H6F13426   6.613   2.692   3.788 -0.6164  0.6510 -0.3064
  126OSM    H6G13427   6.575   2.527   3.844  2.4843  1.3126  1.4217
  126OSM    C7F13428   6.441   2.674   3.934 -0.0397  0.6244  0.8534
  126OSM    H7F13429   6.403   2.773   3.899 -2.4282  0.3960  2.6256
  126OSM    H7G13430   6.505   2.694   4.023 -2.1546  2.2035  2.1154
  126OSM    C8F13431   6.321   2.583   3.977 -1.0085  0.1823  0.3147
  126OSM    H8F13432   6.372   2.503   4.037 -0.5738  1.6206  1.9578
  126OSM    H8G13433   6.276   2.532   3.890 -1.2551 -1.4873  1.3636
  126OSM    C9F13434   6.215   2.659   4.052 -0.5777  0.0969 -0.2996
  126OSM    H9F13435   6.161   2.733   3.991  0.4518 -0.7641 -2.3320
  126OSM   C10F13436   6.188   2.654   4.183 -0.9689  0.3476 -0.4792
  126OSM   H10F13437   6.111   2.720   4.224 -0.3967  0.8916 -0.2689
  126OSM   C11F13438   6.245   2.555   4.284 -0.3750 -1.2287  0.1927
  126OSM   H11F13439   6.332   2.510   4.233 -1.2348 -1.6034 -0.9867
  126OSM   H11G13440   6.177   2.473   4.316  0.8575 -1.9253  1.0646
  126OSM   C12F13441   6.313   2.628   4.398 -0.0737 -0.6650 -0.4513
  126OSM   H12F13442   6.241   2.694   4.450  0.5959  0.6668 -1.1492
  126OSM   H12G13443   6.390   2.686   4.342  0.8003 -2.5880 -1.3463
  126OSM   C13F13444   6.382   2.537   4.501 -0.8395 -0.2680  0.1953
  126OSM   H13F13445   6.473   2.499   4.451 -1.1275  0.4889 -0.9313
  126OSM   H13G13446   6.321   2.446   4.521 -0.8588 -0.7515 -1.8393
  126OSM   C14F13447   6.426   2.619   4.622  0.2276 -0.5743  0.0207
  126OSM   H14F13448   6.345   2.685   4.661 -2.6122 -4.3548  1.2072
  126OSM   H14G13449   6.508   2.689   4.596  0.9246 -0.4328  2.3439
  126OSM   C15F13450   6.482   2.531   4.727  0.1340  0.4836 -0.0285
  126OSM   H15F13451   6.576   2.483   4.693  0.7123  0.4900  1.4524
  126OSM   H15G13452   6.417   2.443   4.747  3.2314 -2.1806 -0.8713
  126OSM   C16F13453   6.512   2.615   4.855  1.0208 -0.4665  1.0343
  126OSM   H16F13454   6.431   2.689   4.873 -1.0659 -2.4472  0.3302
  126OSM   H16G13455   6.604   2.673   4.833  0.3510  0.1665 -0.2581
  126OSM   C17F13456   6.551   2.530   4.975 -0.3986  0.3389  0.2957
  126OSM   H17F13457   6.636   2.468   4.938 -1.1472 -0.9032  0.6233
  126OSM   H17G13458   6.464   2.467   5.001 -0.6085 -0.6521 -2.4911
  126OSM   C18F13459   6.604   2.616   5.092  0.2188  0.1622 -0.3709
  126OSM   H18F13460   6.513   2.675   5.117  0.3202  0.0343  0.3076
  126OSM   H18G13461   6.669   2.699   5.057  0.8129 -0.0340  0.2565
  126OSM   H18H13462   6.662   2.567   5.173  0.5070 -2.1445 -1.8761
  127OSM      N13463   1.096   3.789   2.893 -0.5626 -0.5477 -0.4417
  127OSM    C1513464   1.029   3.894   2.808 -0.4066 -0.1693 -0.0643
  127OSM   H15A13465   1.086   3.985   2.795  0.2548 -0.7143 -1.1968
  127OSM   H15B13466   0.939   3.935   2.852 -0.5015 -0.6902  0.2309
  127OSM   H15C13467   1.007   3.865   2.706 -0.7524  0.8535 -0.2981
  127OSM    C1413468   1.237   3.753   2.845  0.1542 -0.3421  0.2162
  127OSM   H14A13469   1.287   3.696   2.922  2.1045 -0.7349 -1.2537
  127OSM   H14B13470   1.283   3.848   2.821 -0.5395 -0.5568 -2.2363
  127OSM   H14C13471   1.229   3.696   2.754 -1.0252  0.6146 -0.3070
  127OSM    C1313472   1.119   3.858   3.028 -0.2794 -0.0278 -0.4015
  127OSM   H13A13473   1.028   3.897   3.070  0.8261  0.7454  1.3750
  127OSM   H13B13474   1.194   3.935   3.020 -1.5074  1.3103  0.5048
  127OSM   H13C13475   1.144   3.777   3.095 -0.7230  1.2084  1.3109
  127OSM    C1213476   1.012   3.662   2.906  0.3527 -0.0901  0.8505
  127OSM   H12A13477   1.004   3.608   2.813 -1.9110 -0.6693  1.3107
  127OSM   H12B13478   0.913   3.685   2.943 -0.3415 -3.8696  1.8271
  127OSM    C1113479   1.063   3.554   2.999  0.5779  0.6979 -0.5059
  127OSM   H11A13480   0.988   3.476   3.024  0.0611 -0.2078 -4.3381
  127OSM   H11B13481   1.087   3.600   3.098  2.9658 -2.5583  0.6102
  127OSM      P13482   1.257   3.385   3.033 -0.0534 -0.4455 -0.1015
  127OSM    O1313483   1.239   3.243   2.984  0.4947  0.0915 -0.9220
  127OSM    O1413484   1.401   3.426   3.037  0.0281  0.4111  0.4278
  127OSM    O1113485   1.191   3.403   3.180  0.5378 -0.0776 -0.7899
  127OSM    O1213486   1.176   3.491   2.946  0.0402  0.3059  0.3848
  127OSM    C1S13487   1.267   3.455   3.278 -0.7161 -0.2116 -0.1907
  127OSM    H1S13488   1.313   3.550   3.244 -0.0821 -0.5572 -0.3346
  127OSM    H1T13489   1.346   3.390   3.324 -1.4258  0.3299  1.9193
  127OSM     NF13490   1.286   3.564   3.502  0.3726  0.2857  1.0683
  127OSM    HNF13491   1.339   3.495   3.551  1.8723  0.7602  0.1907
  127OSM    C2S13492   1.194   3.501   3.410  0.9879 -0.1485 -0.5469
  127OSM    H2S13493   1.114   3.575   3.388 -2.3911 -2.4578  2.6259
  127OSM    C3S13494   1.123   3.376   3.472  0.4692 -0.0711 -0.1168
  127OSM    H3S13495   1.208   3.305   3.481  0.5069 -0.0110 -0.0003
  127OSM     O313496   1.041   3.326   3.373  0.4196 -0.3648 -0.3586
  127OSM    HO313497   1.093   3.340   3.294  1.8565 -2.1154  0.2106
  127OSM    C4S13498   1.051   3.420   3.592 -0.7838 -0.1346 -0.4738
  127OSM    H4S13499   1.121   3.420   3.677  0.5116 -1.7386 -1.4750
  127OSM    C5S13500   0.912   3.441   3.608 -0.2011 -0.2217  0.2308
  127OSM    H5S13501   0.849   3.431   3.518  1.0058  0.4960 -0.7222
  127OSM    C6S13502   0.844   3.458   3.737 -0.4853  0.1363  0.0928
  127OSM    H6S13503   0.741   3.418   3.721 -0.7307  0.7440  0.1407
  127OSM    H6T13504   0.846   3.569   3.739 -0.2477  0.2068 -1.9148
  127OSM    C7S13505   0.904   3.398   3.862 -0.3119 -0.0649 -1.1233
  127OSM    H7S13506   1.008   3.432   3.882 -0.2153 -0.6911 -0.5181
  127OSM    H7T13507   0.912   3.287   3.865  1.6325  0.0582 -0.0087
  127OSM    C8S13508   0.840   3.447   3.996  0.1564 -0.1229 -0.0986
  127OSM    H8S13509   0.730   3.428   3.989  0.4152 -1.0764 -2.9690
  127OSM    H8T13510   0.853   3.557   3.998  0.3077 -0.0617 -2.1241
  127OSM    C9S13511   0.910   3.378   4.120 -0.4107  0.6749 -0.4011
  127OSM    H9S13512   1.019   3.401   4.120 -0.2774  0.1027 -1.8007
  127OSM    H9T13513   0.917   3.267   4.110  1.8316  0.9302 -2.7121
  127OSM   C10S13514   0.839   3.413   4.251 -0.2619  0.2493 -0.2902
  127OSM   H10S13515   0.732   3.395   4.229 -0.5202  1.0426  0.2417
  127OSM   H10T13516   0.844   3.523   4.271 -2.2850  0.0198  2.0404
  127OSM   C11S13517   0.895   3.323   4.367  0.3469  0.1017 -0.1546
  127OSM   H11S13518   1.004   3.307   4.349  0.5543 -0.2026  1.2698
  127OSM   H11T13519   0.853   3.220   4.360 -0.1010  0.3685 -1.6959
  127OSM   C12S13520   0.872   3.386   4.505  0.4621 -0.5372  0.4574
  127OSM   H12S13521   0.761   3.388   4.513  0.3218  1.2660 -1.1736
  127OSM   H12T13522   0.922   3.485   4.508  1.3313 -0.9289  4.7195
  127OSM   C13S13523   0.921   3.295   4.616  0.6100  0.6176  0.2838
  127OSM   H13S13524   1.027   3.318   4.642  0.9922 -0.1289 -0.5692
  127OSM   H13T13525   0.914   3.187   4.592  1.6636  0.5097  0.3922
  127OSM   C14S13526   0.844   3.317   4.744  0.1648 -0.4597 -0.5985
  127OSM   H14S13527   0.734   3.309   4.727  0.4048 -2.7845 -1.3119
  127OSM   H14T13528   0.870   3.416   4.789  0.2987 -1.0157  0.5702
  127OSM   C15S13529   0.871   3.221   4.852  0.0353 -0.3870  0.0567
  127OSM   H15S13530   0.978   3.194   4.868 -0.0771 -0.6277  0.4021
  127OSM   H15T13531   0.811   3.129   4.836  0.8715 -0.8378 -0.5416
  127OSM   C16S13532   0.839   3.273   4.990  0.1705 -0.8085  0.1771
  127OSM   H16S13533   0.734   3.308   5.004  0.6292  0.9940 -0.7225
  127OSM   H16T13534   0.918   3.338   5.034 -2.4897  1.8051  1.4489
  127OSM   C17S13535   0.837   3.164   5.099  0.2410  0.4795  0.2983
  127OSM   H17S13536   0.856   3.209   5.199  1.7525  0.1345  0.1831
  127OSM   H17T13537   0.923   3.102   5.067  0.4734  1.4984 -1.1601
  127OSM   C18S13538   0.717   3.067   5.100  0.3828 -0.4866  0.7971
  127OSM   H18S13539   0.741   2.974   5.156 -1.0568 -1.8147 -0.6855
  127OSM   H18T13540   0.690   3.036   4.996 -1.6141  2.1663  0.4190
  127OSM   H18U13541   0.629   3.114   5.147  0.3830 -0.0784  0.3975
  127OSM    C1F13542   1.344   3.688   3.488  0.0198  0.6184  0.4000
  127OSM     OF13543   1.308   3.771   3.404  0.0888  0.3059  0.7411
  127OSM    C2F13544   1.459   3.713   3.575 -0.1965  0.7902  0.8773
  127OSM    H2F13545   1.528   3.770   3.510 -2.0187  0.8447 -1.1098
  127OSM    H2G13546   1.516   3.625   3.609  2.2127  2.0083  0.1677
  127OSM    C3F13547   1.433   3.794   3.710 -0.0699  0.2468  0.2133
  127OSM    H3F13548   1.374   3.732   3.781  1.5769  0.0059  1.4254
  127OSM    H3G13549   1.378   3.885   3.676  0.6817  0.9752  0.8998
  127OSM    C4F13550   1.566   3.844   3.775 -0.3422 -0.3940  0.6680
  127OSM    H4F13551   1.611   3.913   3.702  0.0585 -3.3723 -2.1260
  127OSM    H4G13552   1.649   3.770   3.774  0.4010  0.3510 -2.1507
  127OSM    C5F13553   1.559   3.916   3.912  0.6493 -0.4658  0.4215
  127OSM    H5F13554   1.463   3.972   3.911  1.3240  0.7245 -0.9064
  127OSM    H5G13555   1.643   3.988   3.925 -0.5468  0.6255  2.8768
  127OSM    C6F13556   1.563   3.808   4.021  0.0573  0.6086 -0.4469
  127OSM    H6F13557   1.665   3.764   4.022  0.0175  0.2532  3.3446
  127OSM    H6G13558   1.501   3.718   4.001  1.1000 -0.1115 -0.5108
  127OSM    C7F13559   1.515   3.854   4.159  0.4099 -0.0442 -0.2974
  127OSM    H7F13560   1.464   3.774   4.216 -0.6454  1.6022  1.1816
  127OSM    H7G13561   1.445   3.937   4.138  2.1838  0.9146 -3.1242
  127OSM    C8F13562   1.632   3.911   4.239 -0.4614  0.1531  0.8691
  127OSM    H8F13563   1.598   3.963   4.331  0.2278 -1.1898  1.9100
  127OSM    H8G13564   1.681   3.987   4.174  0.9363  1.0584  2.8945
  127OSM    C9F13565   1.743   3.814   4.263  0.3960  0.5625 -0.1180
  127OSM    H9F13566   1.799   3.772   4.178 -2.0119  0.5902 -1.8055
  127OSM   C10F13567   1.782   3.778   4.388 -0.2522 -0.4598 -0.2399
  127OSM   H10F13568   1.865   3.710   4.409 -0.3445 -0.2712  0.7571
  127OSM   C11F13569   1.717   3.820   4.514 -0.0365 -0.2749 -0.3733
  127OSM   H11F13570   1.613   3.782   4.506 -1.0283  2.3144 -0.8514
  127OSM   H11G13571   1.713   3.930   4.527 -2.2984 -0.3829  0.2124
  127OSM   C12F13572   1.778   3.757   4.641  0.0596 -0.1255 -0.5290
  127OSM   H12F13573   1.885   3.788   4.643 -0.0683  0.3025 -0.2353
  127OSM   H12G13574   1.772   3.647   4.626 -1.2272 -0.1837  0.3015
  127OSM   C13F13575   1.702   3.781   4.774 -0.4257  0.5171 -0.0095
  127OSM   H13F13576   1.593   3.774   4.753 -0.6035  0.7408  0.8031
  127OSM   H13G13577   1.710   3.887   4.806 -1.6591  0.3365  0.9488
  127OSM   C14F13578   1.754   3.683   4.891  0.3784 -0.3624  0.2326
  127OSM   H14F13579   1.863   3.666   4.879  0.6291  1.3253 -0.1084
  127OSM   H14G13580   1.704   3.584   4.883 -0.2293 -0.1248  0.9846
  127OSM   C15F13581   1.712   3.746   5.025 -0.0549 -0.3370 -0.2973
  127OSM   H15F13582   1.613   3.796   5.020  1.3169  2.3934 -2.2482
  127OSM   H15G13583   1.777   3.829   5.058 -3.6147  2.0004  1.4381
  127OSM   C16F13584   1.709   3.642   5.140  0.1888  0.1096  0.6266
  127OSM   H16F13585   1.816   3.614   5.150  0.0928 -1.3145 -1.5580
  127OSM   H16G13586   1.650   3.557   5.101 -1.3451  0.8978  1.1738
  127OSM   C17F13587   1.639   3.685   5.274  0.2577  0.1975 -0.0687
  127OSM   H17F13588   1.623   3.591   5.331 -0.9272 -1.4000 -2.8271
  127OSM   H17G13589   1.542   3.734   5.251 -0.0119 -0.3908 -0.2034
  127OSM   C18F13590   1.719   3.789   5.349  0.3129  0.3895 -0.9158
  127OSM   H18F13591   1.666   3.825   5.439  1.3337 -1.8310  0.6699
  127OSM   H18G13592   1.737   3.879   5.285 -0.8268  0.6167 -0.9391
  127OSM   H18H13593   1.821   3.755   5.378 -1.2283 -2.2256  1.9586
  128OSM      N13594   0.273   3.908   2.948 -0.0624  0.3896  0.8847
  128OSM    C1513595   0.173   4.003   3.000 -0.2596 -0.3911 -0.1383
  128OSM   H15A13596   0.111   4.057   2.930 -0.6384  0.3172  0.7207
  128OSM   H15B13597   0.225   4.082   3.053 -0.0150 -0.1373 -0.7454
  128OSM   H15C13598   0.109   3.954   3.071  0.6015 -2.3538 -0.6671
  128OSM    C1413599   0.207   3.791   2.883 -0.3643  0.8237 -0.0384
  128OSM   H14A13600   0.278   3.718   2.846 -0.0937  1.2391 -0.3391
  128OSM   H14B13601   0.166   3.838   2.795 -2.0875 -0.3354  0.0870
  128OSM   H14C13602   0.128   3.746   2.941  0.0067 -0.1639 -0.2797
  128OSM    C1313603   0.354   3.979   2.846 -0.5727  0.1123  0.0032
  128OSM   H13A13604   0.297   4.005   2.759 -1.2245  0.9090  0.6514
  128OSM   H13B13605   0.438   3.917   2.816  0.2699  0.7607  0.9292
  128OSM   H13C13606   0.410   4.058   2.894  0.9990 -0.2971 -1.0680
  128OSM    C1213607   0.354   3.857   3.067 -0.0794  0.2240  0.0696
  128OSM   H12A13608   0.422   3.780   3.035  2.1696  1.3036  1.9497
  128OSM   H12B13609   0.299   3.816   3.151  0.5527 -1.8536 -0.4756
  128OSM    C1113610   0.438   3.960   3.133 -0.5906  0.6104 -0.2566
  128OSM   H11A13611   0.487   3.919   3.225 -0.9325 -0.4803 -0.5419
  128OSM   H11B13612   0.372   4.041   3.170 -0.2256 -0.0341  2.0234
  128OSM      P13613   0.659   3.903   3.003 -0.5162 -0.1303  0.4041
  128OSM    O1313614   0.607   3.769   2.962 -0.2241  0.2127 -0.4867
  128OSM    O1413615   0.731   3.978   2.899 -0.6368  0.6217 -0.6577
  128OSM    O1113616   0.752   3.882   3.126  0.4822 -0.0392  0.5052
  128OSM    O1213617   0.544   3.999   3.051 -0.3124 -0.1306  0.0173
  128OSM    C1S13618   0.776   3.997   3.213 -0.3438  0.3029 -0.4946
  128OSM    H1S13619   0.687   4.063   3.223  0.2903  0.8777  2.0868
  128OSM    H1T13620   0.870   4.049   3.186  0.8920 -0.7489  1.5256
  128OSM     NF13621   0.815   4.082   3.442  0.5534 -0.2429 -0.1405
  128OSM    HNF13622   0.902   4.130   3.443 -0.3875  1.5176 -0.2792
  128OSM    C2S13623   0.802   3.961   3.368  0.7688  0.0987  0.5095
  128OSM    H2S13624   0.719   3.903   3.413  0.2186 -1.2609 -2.0774
  128OSM    C3S13625   0.920   3.868   3.385  0.2507  0.4828 -0.5912
  128OSM    H3S13626   1.013   3.920   3.351  1.7880 -1.5009  0.3805
  128OSM     O313627   0.911   3.756   3.303  1.1911  0.1115  0.3535
  128OSM    HO313628   0.849   3.779   3.234 -0.3849 -0.3459  1.5598
  128OSM    C4S13629   0.934   3.817   3.524  0.4403 -0.2156  0.4790
  128OSM    H4S13630   0.847   3.774   3.574  0.5024  0.8749  1.5654
  128OSM    C5S13631   1.049   3.842   3.593  0.2190 -0.6040 -0.1051
  128OSM    H5S13632   1.130   3.891   3.537 -1.8092  0.3567 -2.4087
  128OSM    C6S13633   1.053   3.790   3.737 -0.4458 -0.1730  0.0899
  128OSM    H6S13634   1.138   3.719   3.751 -0.0307 -0.0286 -1.4727
  128OSM    H6T13635   0.957   3.756   3.780 -1.1842  0.9260 -0.6517
  128OSM    C7S13636   1.099   3.903   3.842 -0.5072  0.2676  0.8656
  128OSM    H7S13637   1.013   3.973   3.844 -0.6065  0.1969 -0.2193
  128OSM    H7T13638   1.184   3.963   3.806  0.9614 -0.2522  3.2342
  128OSM    C8S13639   1.125   3.847   3.977  0.0847 -0.5386 -0.0073
  128OSM    H8S13640   1.220   3.789   3.968 -0.0908 -0.7870 -0.2564
  128OSM    H8T13641   1.042   3.782   4.011 -1.1831  0.2945 -1.3991
  128OSM    C9S13642   1.142   3.958   4.086 -0.1991  0.9201 -0.2086
  128OSM    H9S13643   1.060   4.033   4.085 -1.1406 -0.0860 -1.3644
  128OSM    H9T13644   1.241   4.004   4.065  0.9565 -1.2446  0.1345
  128OSM   C10S13645   1.156   3.892   4.226  0.3778 -0.3675 -0.1098
  128OSM   H10S13646   1.220   3.801   4.225  1.9358  0.6917 -0.5065
  128OSM   H10T13647   1.056   3.867   4.268  0.4142 -2.2529 -1.0419
  128OSM   C11S13648   1.224   3.986   4.332  0.0848  0.2506  0.2244
  128OSM   H11S13649   1.190   4.091   4.319  1.2168  0.5816 -0.1422
  128OSM   H11T13650   1.333   3.979   4.311 -0.0150  0.7212 -0.4918
  128OSM   C12S13651   1.206   3.949   4.478 -0.6598  0.5421 -0.3808
  128OSM   H12S13652   1.232   3.842   4.493  1.3273  0.7798 -1.8251
  128OSM   H12T13653   1.097   3.950   4.501 -0.5490 -1.3183  0.3887
  128OSM   C13S13654   1.275   4.053   4.578  0.1965  0.2527 -0.0751
  128OSM   H13S13655   1.217   4.147   4.582 -1.0111 -0.5104  0.9654
  128OSM   H13T13656   1.369   4.075   4.523 -1.5100  0.6006 -3.0879
  128OSM   C14S13657   1.298   3.985   4.720 -0.3138 -0.1995  0.4846
  128OSM   H14S13658   1.342   3.883   4.706  2.8309  1.1648 -0.5348
  128OSM   H14T13659   1.199   3.958   4.762 -0.6974  1.1306  0.4638
  128OSM   C15S13660   1.387   4.077   4.801  0.0344  0.4018  0.0368
  128OSM   H15S13661   1.325   4.168   4.817  2.0857  1.9761 -0.6185
  128OSM   H15T13662   1.476   4.111   4.744 -1.3032  2.0949 -1.1671
  128OSM   C16S13663   1.424   4.003   4.930  0.7317  0.3693 -0.6819
  128OSM   H16S13664   1.504   3.927   4.913  0.7151 -0.1094  1.1004
  128OSM   H16T13665   1.328   3.953   4.957  0.5682 -0.3222 -2.4341
  128OSM   C17S13666   1.487   4.095   5.041 -0.5846 -0.2033 -0.1503
  128OSM   H17S13667   1.423   4.185   5.053  0.4281  0.6598 -0.9987
  128OSM   H17T13668   1.583   4.133   4.998  0.4298 -1.7540  0.6372
  128OSM   C18S13669   1.510   4.036   5.181  0.1586  1.0811  0.1484
  128OSM   H18S13670   1.596   3.966   5.193 -2.5316 -3.0790 -2.2815
  128OSM   H18T13671   1.421   3.984   5.224  0.9339 -1.0864 -0.6884
  128OSM   H18U13672   1.529   4.119   5.252  2.3190  1.1831 -0.4716
  128OSM    C1F13673   0.704   4.146   3.480 -0.5451 -0.6053  0.0269
  128OSM     OF13674   0.598   4.090   3.493 -0.1790  0.3714  0.0966
  128OSM    C2F13675   0.714   4.294   3.516 -0.5302 -0.4985 -0.1084
  128OSM    H2F13676   0.609   4.329   3.507 -0.7043 -0.8736  0.4357
  128OSM    H2G13677   0.778   4.338   3.437  0.1750 -2.0258 -0.4292
  128OSM    C3F13678   0.791   4.327   3.636  0.0472 -0.5900 -0.8758
  128OSM    H3F13679   0.895   4.290   3.628  0.3430  0.1104 -0.3976
  128OSM    H3G13680   0.736   4.276   3.718  1.8238 -0.6092  0.3655
  128OSM    C4F13681   0.785   4.476   3.674 -0.5995 -0.1891 -0.0589
  128OSM    H4F13682   0.834   4.537   3.596 -0.0177 -1.3062 -0.5939
  128OSM    H4G13683   0.849   4.490   3.764  0.1250 -1.8701 -0.2762
  128OSM    C5F13684   0.642   4.526   3.704  0.3315  0.2315 -0.6551
  128OSM    H5F13685   0.583   4.523   3.609 -1.6305  1.6047  0.4521
  128OSM    H5G13686   0.646   4.635   3.719 -2.5381  0.1740  1.2967
  128OSM    C6F13687   0.579   4.475   3.834  0.7962 -0.0106 -0.3570
  128OSM    H6F13688   0.557   4.366   3.827  2.7356 -0.5380  0.9631
  128OSM    H6G13689   0.476   4.517   3.830  0.6663 -0.4194 -2.3384
  128OSM    C7F13690   0.648   4.512   3.961 -0.4165  0.0363  0.0634
  128OSM    H7F13691   0.602   4.612   3.975 -2.4278 -0.5103 -1.9705
  128OSM    H7G13692   0.755   4.532   3.938 -0.8810  1.4957 -1.0067
  128OSM    C8F13693   0.634   4.421   4.087  0.2144 -0.4303 -0.3977
  128OSM    H8F13694   0.527   4.392   4.087 -0.3345  1.2294  2.1162
  128OSM    H8G13695   0.649   4.476   4.183  0.4961 -1.6634  0.2800
  128OSM    C9F13696   0.725   4.306   4.082 -0.7154 -0.0210  0.2408
  128OSM    H9F13697   0.724   4.245   3.991  2.0580  0.4139 -0.1508
  128OSM   C10F13698   0.823   4.277   4.167  0.0621  0.2633  0.0231
  128OSM   H10F13699   0.877   4.182   4.152  0.2253  0.4387 -0.5120
  128OSM   C11F13700   0.852   4.331   4.310 -0.5441  0.4209 -0.4161
  128OSM   H11F13701   0.887   4.436   4.303  0.0615  0.2746  0.3421
  128OSM   H11G13702   0.931   4.266   4.353 -1.0453 -0.3088 -0.5800
  128OSM   C12F13703   0.735   4.319   4.407  0.1112 -0.0970  0.1502
  128OSM   H12F13704   0.695   4.216   4.417 -1.5767  0.3496 -1.4006
  128OSM   H12G13705   0.645   4.369   4.365  0.2655 -1.1431 -1.5242
  128OSM   C13F13706   0.772   4.379   4.540  0.3239  0.3114  0.1905
  128OSM   H13F13707   0.799   4.486   4.551 -0.4949  0.5519 -0.0493
  128OSM   H13G13708   0.869   4.336   4.574  0.3478  0.7639  0.7140
  128OSM   C14F13709   0.658   4.361   4.640 -0.6787 -0.0995  0.4134
  128OSM   H14F13710   0.643   4.251   4.649 -1.5791  0.0031  0.2443
  128OSM   H14G13711   0.564   4.396   4.592 -1.3279 -2.2488  0.0234
  128OSM   C15F13712   0.678   4.425   4.777  0.3488  0.1208 -0.3704
  128OSM   H15F13713   0.683   4.533   4.752 -0.0286  0.2210 -0.0188
  128OSM   H15G13714   0.767   4.393   4.836 -0.8241 -0.7817  0.9911
  128OSM   C16F13715   0.570   4.395   4.883 -0.6303  0.1999  0.0647
  128OSM   H16F13716   0.566   4.285   4.898  1.3182  0.2669  1.3968
  128OSM   H16G13717   0.470   4.429   4.850 -0.7789 -0.3912 -0.0954
  128OSM   C17F13718   0.614   4.458   5.016 -0.3768 -0.2188 -0.7619
  128OSM   H17F13719   0.616   4.569   5.004 -0.8060 -0.1329 -0.0868
  128OSM   H17G13720   0.721   4.433   5.033  0.1254  1.6156 -0.9187
  128OSM   C18F13721   0.537   4.423   5.141 -0.4311  0.0590  0.5826
  128OSM   H18F13722   0.545   4.318   5.174 -1.2131  0.2394  1.3739
  128OSM   H18G13723   0.432   4.448   5.116  0.7049  2.5423 -2.4391
  128OSM   H18H13724   0.570   4.487   5.226 -0.3243  0.4574  0.2502
  129OSM      N13725   3.426   2.588   2.771 -0.0666  0.6480  0.3577
  129OSM    C1513726   3.557   2.519   2.738 -0.1372 -0.4273 -0.4575
  129OSM   H15A13727   3.584   2.551   2.639 -0.7516 -1.3546 -0.9444
  129OSM   H15B13728   3.546   2.412   2.743 -0.5688 -0.3862 -0.4657
  129OSM   H15C13729   3.626   2.566   2.807 -0.9599  0.8078 -0.4244
  129OSM    C1413730   3.441   2.734   2.746  0.3354 -0.2274  0.5779
  129OSM   H14A13731   3.352   2.783   2.783 -1.8886 -1.9105 -2.2309
  129OSM   H14B13732   3.456   2.762   2.643  0.1253 -2.9641 -0.2716
  129OSM   H14C13733   3.524   2.779   2.800  2.3020 -1.7524 -1.0125
  129OSM    C1313734   3.320   2.530   2.681  0.2154 -0.4798 -0.7464
  129OSM   H13A13735   3.300   2.425   2.690 -1.3768 -0.1392  0.1193
  129OSM   H13B13736   3.351   2.545   2.579  0.2679  1.9873 -0.4334
  129OSM   H13C13737   3.222   2.575   2.686 -0.2230 -1.3740 -1.1399
  129OSM    C1213738   3.392   2.558   2.909  0.8761 -0.0295  0.1711
  129OSM   H12A13739   3.453   2.613   2.978  0.5993 -1.5118  1.6670
  129OSM   H12B13740   3.410   2.453   2.926 -0.5537 -0.4102 -0.4188
  129OSM    C1113741   3.248   2.598   2.955 -0.0099  0.5262  0.3507
  129OSM   H11A13742   3.241   2.558   3.058  1.8032 -0.5169  0.1104
  129OSM   H11B13743   3.170   2.550   2.892  0.0692  0.3411  0.3917
  129OSM      P13744   3.099   2.803   2.997 -0.2128 -0.1173 -0.1270
  129OSM    O1313745   3.119   2.945   3.043 -0.4706  0.1461 -0.0590
  129OSM    O1413746   3.006   2.781   2.885 -0.1304  0.0732 -0.2482
  129OSM    O1113747   3.040   2.710   3.111  0.4921 -0.1196 -0.4416
  129OSM    O1213748   3.240   2.741   2.952 -0.3390  0.4638 -0.0431
  129OSM    C1S13749   3.092   2.709   3.241 -0.1041 -1.0330 -0.5521
  129OSM    H1S13750   3.066   2.804   3.293  0.5140 -1.9332  1.4856
  129OSM    H1T13751   3.202   2.698   3.240  0.0254 -0.0731  0.6793
  129OSM     NF13752   3.077   2.619   3.458 -0.0081  0.0082 -0.0446
  129OSM    HNF13753   3.152   2.564   3.493 -1.7920 -2.5729  0.0285
  129OSM    C2S13754   3.023   2.601   3.322  0.1911  0.8319  0.0175
  129OSM    H2S13755   2.916   2.631   3.323  0.2207  1.0512  2.0021
  129OSM    C3S13756   3.040   2.461   3.259  0.9817  1.2746  0.0013
  129OSM    H3S13757   3.146   2.447   3.227  1.0331 -0.2070  0.7509
  129OSM     O313758   2.972   2.439   3.137 -0.6323 -0.7059  0.1847
  129OSM    HO313759   2.933   2.523   3.114 -0.3141  0.0673  2.2393
  129OSM    C4S13760   2.999   2.367   3.365 -0.4714 -0.4760 -0.0626
  129OSM    H4S13761   3.083   2.307   3.405 -0.7638 -0.9681 -0.1786
  129OSM    C5S13762   2.876   2.324   3.409 -0.0756  0.5520  0.0823
  129OSM    H5S13763   2.783   2.352   3.356 -0.8021 -1.4068  0.2597
  129OSM    C6S13764   2.861   2.221   3.513  0.8808 -0.0838 -0.0018
  129OSM    H6S13765   2.955   2.165   3.531  1.1751  0.5080  0.3107
  129OSM    H6T13766   2.790   2.142   3.480 -0.1271 -0.1995  2.2445
  129OSM    C7S13767   2.805   2.257   3.653  0.1266  0.1431 -0.0965
  129OSM    H7S13768   2.854   2.347   3.695  1.1336 -0.3955 -0.0816
  129OSM    H7T13769   2.823   2.169   3.718 -5.3532 -1.2610 -0.0496
  129OSM    C8S13770   2.652   2.290   3.648  0.1388  0.7902 -0.2407
  129OSM    H8S13771   2.591   2.224   3.583 -2.0822  0.3868  2.1390
  129OSM    H8T13772   2.649   2.391   3.602  1.8934  1.2503  0.5839
  129OSM    C9S13773   2.594   2.306   3.786  0.6274  0.2095  0.1627
  129OSM    H9S13774   2.491   2.345   3.779 -0.6483 -2.1868  3.0263
  129OSM    H9T13775   2.663   2.374   3.842  0.9086  0.2398 -0.2135
  129OSM   C10S13776   2.588   2.183   3.884 -0.1242  0.1658  0.4905
  129OSM   H10S13777   2.686   2.138   3.910  0.6474  1.1718 -0.5449
  129OSM   H10T13778   2.528   2.119   3.815  0.1821  1.3645 -0.9606
  129OSM   C11S13779   2.514   2.230   4.011  0.8737 -0.3718 -0.1491
  129OSM   H11S13780   2.417   2.277   3.985  1.2519  0.4460 -0.1465
  129OSM   H11T13781   2.574   2.313   4.055  1.5828 -0.9496 -0.0087
  129OSM   C12S13782   2.480   2.130   4.126 -0.0110 -0.6686  0.2916
  129OSM   H12S13783   2.443   2.039   4.074 -1.2260 -0.6396  1.0634
  129OSM   H12T13784   2.404   2.171   4.196  2.5688  3.2322  1.1471
  129OSM   C13S13785   2.598   2.087   4.222  0.5556  0.4866  0.1076
  129OSM   H13S13786   2.642   2.169   4.283  0.3720 -0.5596  1.7087
  129OSM   H13T13787   2.677   2.047   4.155 -0.7672 -0.3229 -1.0231
  129OSM   C14S13788   2.560   1.975   4.330  0.1485 -0.1713  0.5944
  129OSM   H14S13789   2.519   1.891   4.271  0.7577 -1.4762  1.9672
  129OSM   H14T13790   2.473   2.012   4.389  0.8878  0.0229  1.6045
  129OSM   C15S13791   2.679   1.927   4.422 -0.3875 -0.3797  0.4848
  129OSM   H15S13792   2.639   1.838   4.475  1.7228 -0.9238  1.2950
  129OSM   H15T13793   2.713   2.001   4.498 -2.3861  1.2959 -0.1532
  129OSM   C16S13794   2.805   1.879   4.346  0.3668  0.1208 -0.2107
  129OSM   H16S13795   2.842   1.960   4.280 -0.7402  0.9352  0.1497
  129OSM   H16T13796   2.777   1.794   4.280  1.3437 -0.7857  0.4988
  129OSM   C17S13797   2.899   1.828   4.453  0.2346  0.0937  0.0365
  129OSM   H17S13798   2.833   1.772   4.523 -0.0791 -0.3942 -0.6367
  129OSM   H17T13799   2.952   1.914   4.499 -0.9109  0.3174  0.9671
  129OSM   C18S13800   3.013   1.729   4.407  0.0341  0.1982 -0.4246
  129OSM   H18S13801   2.969   1.660   4.331 -0.5244 -0.0964  0.1569
  129OSM   H18T13802   3.029   1.665   4.496 -1.6572 -0.1627 -0.3345
  129OSM   H18U13803   3.098   1.784   4.361  1.2677 -0.1236  1.3634
  129OSM    C1F13804   3.033   2.717   3.540 -0.1620 -0.2510  0.5453
  129OSM     OF13805   2.945   2.793   3.500 -0.4277 -0.4533 -0.1589
  129OSM    C2F13806   3.084   2.720   3.683 -0.2939 -0.3990  0.3099
  129OSM    H2F13807   3.075   2.824   3.722  1.6512 -0.4338  0.9411
  129OSM    H2G13808   3.190   2.686   3.675 -0.7154 -1.2526 -3.6975
  129OSM    C3F13809   3.006   2.627   3.779  0.3594  0.2090  0.3545
  129OSM    H3F13810   2.990   2.524   3.739 -2.4602 -0.7662  3.4553
  129OSM    H3G13811   2.905   2.673   3.785 -0.4658 -1.1596 -1.8250
  129OSM    C4F13812   3.046   2.626   3.926 -0.7958 -0.5516  0.7367
  129OSM    H4F13813   3.040   2.734   3.953 -0.6148 -0.4081  0.2159
  129OSM    H4G13814   3.149   2.587   3.934 -0.4980 -0.5646 -2.2926
  129OSM    C5F13815   2.964   2.560   4.023 -0.2366  0.4423  0.0252
  129OSM    H5F13816   2.960   2.453   3.992  0.0967  1.2286 -3.0837
  129OSM    H5G13817   2.856   2.583   4.014 -1.4308 -4.3038 -0.8062
  129OSM    C6F13818   3.016   2.573   4.168  0.5344  0.1701 -0.6193
  129OSM    H6F13819   3.127   2.562   4.165  0.4138 -0.9082 -1.5336
  129OSM    H6G13820   2.971   2.487   4.223 -0.0761 -0.4249 -2.0163
  129OSM    C7F13821   2.973   2.704   4.225 -0.2483 -0.6750 -0.7915
  129OSM    H7F13822   2.864   2.721   4.213 -0.4262 -1.8565 -0.9536
  129OSM    H7G13823   3.012   2.793   4.171 -1.2856  0.3540  0.0924
  129OSM    C8F13824   3.004   2.724   4.373 -0.7213 -0.0081 -0.1685
  129OSM    H8F13825   2.969   2.823   4.408  0.9108  0.4714  0.1940
  129OSM    H8G13826   3.114   2.731   4.387 -0.9811 -0.5059  2.8042
  129OSM    C9F13827   2.956   2.627   4.479 -0.5575  0.4395  0.2335
  129OSM    H9F13828   2.949   2.523   4.443 -1.5905  0.4453  0.3995
  129OSM   C10F13829   2.934   2.642   4.607 -0.9724  0.2182  0.0086
  129OSM   H10F13830   2.891   2.550   4.650 -1.8117  0.7669  0.3742
  129OSM   C11F13831   2.932   2.767   4.689 -0.5375  0.3453 -0.6425
  129OSM   H11F13832   2.892   2.850   4.626 -0.6729  0.9439  0.2099
  129OSM   H11G13833   3.040   2.790   4.704 -0.7403 -0.1839  2.1163
  129OSM   C12F13834   2.853   2.748   4.816 -0.2533  0.1890 -0.2082
  129OSM   H12F13835   2.853   2.841   4.877 -0.1122  0.1668 -0.1741
  129OSM   H12G13836   2.895   2.669   4.882 -1.0226 -0.1727 -0.1374
  129OSM   C13F13837   2.705   2.706   4.800  0.0471 -0.1918 -0.5018
  129OSM   H13F13838   2.693   2.611   4.744 -1.0330 -1.5303  1.8248
  129OSM   H13G13839   2.649   2.787   4.747  1.3784  0.4705 -0.9226
  129OSM   C14F13840   2.642   2.672   4.939  0.1926 -0.0941 -0.0800
  129OSM   H14F13841   2.617   2.766   4.991  3.2812 -0.4344  2.2790
  129OSM   H14G13842   2.710   2.601   4.990 -0.7409 -0.5234  0.5913
  129OSM   C15F13843   2.511   2.596   4.915  0.3331  0.3310 -0.5018
  129OSM   H15F13844   2.549   2.496   4.884  3.0439  1.5564 -1.4318
  129OSM   H15G13845   2.452   2.649   4.837  0.0271  1.4986  0.5048
  129OSM   C16F13846   2.423   2.570   5.044 -0.2014 -0.2271  0.3655
  129OSM   H16F13847   2.476   2.515   5.125 -0.8363 -0.7729  0.4195
  129OSM   H16G13848   2.339   2.508   5.008 -1.5355  2.3081 -1.1660
  129OSM   C17F13849   2.364   2.695   5.091  0.1750 -0.4507 -0.2288
  129OSM   H17F13850   2.328   2.747   4.999  0.7452  0.3199 -0.0274
  129OSM   H17G13851   2.440   2.760   5.139 -1.1053  2.2752 -1.6548
  129OSM   C18F13852   2.240   2.691   5.169 -0.3228  0.3017 -0.0267
  129OSM   H18F13853   2.263   2.649   5.269  2.9898 -0.7565 -1.1049
  129OSM   H18G13854   2.161   2.630   5.119  0.4432 -1.5612  0.9486
  129OSM   H18H13855   2.208   2.797   5.180  1.6272  0.9412 -0.1845
  130OSM      N13856   1.452   0.177   2.664 -0.1303  0.6909 -0.3316
  130OSM    C1513857   1.371   0.294   2.705 -0.1737 -0.4252  0.2689
  130OSM   H15A13858   1.407   0.388   2.664  0.6275 -1.1198 -0.6703
  130OSM   H15B13859   1.380   0.318   2.810  1.1201  1.3369 -0.1909
  130OSM   H15C13860   1.267   0.278   2.682 -0.8938  0.9923  2.2421
  130OSM    C1413861   1.415   0.132   2.519  0.2932 -0.0163 -0.1644
  130OSM   H14A13862   1.428   0.206   2.442 -0.6784 -2.2050 -2.5940
  130OSM   H14B13863   1.308   0.114   2.518  0.2492  0.0117  1.2097
  130OSM   H14C13864   1.468   0.044   2.488  3.1532  0.9928  1.4923
  130OSM    C1313865   1.595   0.218   2.663 -0.0884 -0.0073 -0.0785
  130OSM   H13A13866   1.621   0.275   2.575  0.4604  0.1562  0.1872
  130OSM   H13B13867   1.669   0.139   2.673  0.8273  0.7347 -0.7244
  130OSM   H13C13868   1.615   0.285   2.744 -0.7551 -0.0897  0.1523
  130OSM    C1213869   1.425   0.061   2.763 -0.5177 -0.5163  1.1450
  130OSM   H12A13870   1.467  -0.022   2.708  1.2580  0.6992  0.5723
  130OSM   H12B13871   1.318   0.047   2.763 -0.5865 -0.0212  0.6971
  130OSM    C1113872   1.483   0.071   2.909  0.1833 -0.3034  0.0208
  130OSM   H11A13873   1.590   0.099   2.908 -0.3177  1.7845  0.1938
  130OSM   H11B13874   1.478  -0.034   2.946 -2.9003 -0.1841  0.2148
  130OSM      P13875   1.265   0.123   3.043  0.2719 -0.5224 -0.4483
  130OSM    O1313876   1.228   0.238   3.131 -0.6551  0.0245  0.1418
  130OSM    O1413877   1.173   0.100   2.931  0.4372  0.6159 -0.2874
  130OSM    O1113878   1.303  -0.012   3.110  0.1192 -0.0049 -0.2775
  130OSM    O1213879   1.409   0.161   2.987  0.0715 -0.2897  0.1805
  130OSM    C1S13880   1.384  -0.011   3.227  0.2487  0.9127  0.7247
  130OSM    H1S13881   1.367   0.079   3.290  2.1510  1.8247  0.0324
  130OSM    H1T13882   1.490  -0.009   3.192 -0.3526 -1.7839 -1.7127
  130OSM     NF13883   1.446  -0.136   3.428 -0.1739 -0.5822 -0.7951
  130OSM    HNF13884   1.546  -0.134   3.426 -0.0587 -1.2010  1.7146
  130OSM    C2S13885   1.374  -0.145   3.304  0.8383 -0.1193 -0.3919
  130OSM    H2S13886   1.267  -0.170   3.325  0.7228 -0.1311 -0.9926
  130OSM    C3S13887   1.416  -0.260   3.213  0.3968 -0.0139 -0.1981
  130OSM    H3S13888   1.523  -0.247   3.184  0.3602 -1.0283 -0.8339
  130OSM     O313889   1.344  -0.271   3.092 -0.0502  0.4748  0.0057
  130OSM    HO313890   1.338  -0.180   3.062  0.8393  1.0202  1.3932
  130OSM    C4S13891   1.416  -0.392   3.288 -0.6275 -0.0650  0.0379
  130OSM    H4S13892   1.498  -0.407   3.359 -0.9858 -0.2167  0.4294
  130OSM    C5S13893   1.318  -0.479   3.296 -0.3335  0.3525  0.0941
  130OSM    H5S13894   1.216  -0.462   3.258  0.3584  1.0955 -1.5450
  130OSM    C6S13895   1.309  -0.594   3.394 -0.0731  0.5371 -0.0701
  130OSM    H6S13896   1.406  -0.648   3.388  0.7557  1.6903  2.0531
  130OSM    H6T13897   1.221  -0.657   3.367 -0.2734  1.0643 -0.6807
  130OSM    C7S13898   1.298  -0.553   3.543 -0.4262  0.4843 -0.1702
  130OSM    H7S13899   1.210  -0.486   3.550  0.7132  1.9069  1.5561
  130OSM    H7T13900   1.388  -0.492   3.566 -0.5309  0.6266 -0.1355
  130OSM    C8S13901   1.284  -0.677   3.629  0.4267 -0.4581 -0.3782
  130OSM    H8S13902   1.349  -0.760   3.594  1.4718  0.3911 -0.4849
  130OSM    H8T13903   1.175  -0.700   3.625  0.3705 -0.3121  0.2418
  130OSM    C9S13904   1.319  -0.641   3.774  0.1837  0.0564 -0.1708
  130OSM    H9S13905   1.278  -0.540   3.797  1.0026 -0.1799  2.6057
  130OSM    H9T13906   1.426  -0.617   3.785  0.0750  2.5794 -3.2207
  130OSM   C10S13907   1.275  -0.743   3.874 -0.6997  0.1050 -0.5880
  130OSM   H10S13908   1.264  -0.846   3.835  0.7686 -0.1373 -0.4225
  130OSM   H10T13909   1.172  -0.716   3.907 -0.0594  1.1396  0.6472
  130OSM   C11S13910   1.369  -0.749   3.999 -0.2177  0.3912  0.0245
  130OSM   H11S13911   1.413  -0.650   4.022 -1.0902  0.8210 -0.0974
  130OSM   H11T13912   1.452  -0.819   3.979 -0.1144  0.2548  0.9044
  130OSM   C12S13913   1.300  -0.780   4.134 -0.2550 -0.3176  0.0642
  130OSM   H12S13914   1.236  -0.871   4.130 -0.9167  0.1115  0.6663
  130OSM   H12T13915   1.227  -0.699   4.158 -1.1876 -0.9491 -0.5767
  130OSM   C13S13916   1.400  -0.805   4.243 -0.8450 -0.1175 -0.3774
  130OSM   H13S13917   1.474  -0.721   4.246  0.3908 -1.0940 -1.9245
  130OSM   H13T13918   1.453  -0.900   4.222  1.4046  0.1705  3.1255
  130OSM   C14S13919   1.341  -0.809   4.386 -0.7000  0.2741 -0.1667
  130OSM   H14S13920   1.273  -0.897   4.391 -0.4233 -0.2457 -3.3074
  130OSM   H14T13921   1.284  -0.715   4.403  0.6818  1.3279 -1.1613
  130OSM   C15S13922   1.445  -0.831   4.500 -0.0100  0.0080  0.2004
  130OSM   H15S13923   1.393  -0.820   4.597 -0.8040  0.0322 -0.2212
  130OSM   H15T13924   1.516  -0.745   4.499 -0.9287  0.8129  1.2634
  130OSM   C16S13925   1.507  -0.976   4.490  0.5543 -0.3127 -0.3470
  130OSM   H16S13926   1.571  -0.988   4.400  0.0393 -1.6019 -0.5593
  130OSM   H16T13927   1.420  -1.045   4.487  1.1929 -1.5809  3.5812
  130OSM   C17S13928   1.586  -1.031   4.609 -0.3632  0.8500  0.0215
  130OSM   H17S13929   1.677  -0.968   4.625  0.5026 -0.7397  1.8059
  130OSM   H17T13930   1.625  -1.132   4.584  0.4610  0.9379  0.8739
  130OSM   C18S13931   1.526  -1.045   4.753 -0.6759  0.8963  0.2320
  130OSM   H18S13932   1.606  -1.081   4.821 -0.2993  1.1966 -0.0514
  130OSM   H18T13933   1.436  -1.110   4.763 -0.9352  0.8414 -2.0858
  130OSM   H18U13934   1.499  -0.941   4.782  0.7612  1.4180 -0.2421
  130OSM    C1F13935   1.381  -0.073   3.525 -0.4170  0.4721  0.1486
  130OSM     OF13936   1.263  -0.039   3.513 -0.5276  0.3534  0.2758
  130OSM    C2F13937   1.458  -0.035   3.651  0.5127  0.0684 -0.1197
  130OSM    H2F13938   1.475   0.074   3.648  0.2742  0.0904 -0.9892
  130OSM    H2G13939   1.557  -0.081   3.630  0.6183  0.8667 -1.4757
  130OSM    C3F13940   1.396  -0.071   3.782 -0.1577  0.2760  0.5677
  130OSM    H3F13941   1.342  -0.166   3.801  0.2400 -0.0797 -0.0493
  130OSM    H3G13942   1.320   0.008   3.797 -0.5012  0.1547 -0.4567
  130OSM    C4F13943   1.497  -0.062   3.898  0.6953  0.3672 -0.4542
  130OSM    H4F13944   1.558   0.027   3.871  1.0526  0.3203  0.1847
  130OSM    H4G13945   1.555  -0.156   3.904  0.0460  0.0342  1.2024
  130OSM    C5F13946   1.431  -0.043   4.033  0.8004  0.8977 -0.2143
  130OSM    H5F13947   1.356   0.039   4.037  0.9339  1.0006  0.3359
  130OSM    H5G13948   1.504  -0.019   4.114  2.2312 -1.7349 -0.6078
  130OSM    C6F13949   1.364  -0.176   4.088 -0.2269 -0.0441 -0.7917
  130OSM    H6F13950   1.336  -0.249   4.009 -0.1275 -2.2634  1.0932
  130OSM    H6G13951   1.274  -0.135   4.139 -0.1099  0.9426 -1.3483
  130OSM    C7F13952   1.447  -0.237   4.195 -0.7354 -0.1334  0.0556
  130OSM    H7F13953   1.465  -0.180   4.288 -2.3259  1.5399 -0.5998
  130OSM    H7G13954   1.554  -0.248   4.168 -0.3090 -0.7468  1.8692
  130OSM    C8F13955   1.403  -0.379   4.246  0.1680 -0.6060 -0.3515
  130OSM    H8F13956   1.483  -0.408   4.317 -0.6556  1.9312  1.7795
  130OSM    H8G13957   1.395  -0.456   4.166 -0.7229 -0.0446 -0.8266
  130OSM    C9F13958   1.277  -0.364   4.329  0.6636 -0.9668 -0.4435
  130OSM    H9F13959   1.198  -0.321   4.266  2.3970  1.9633 -0.8041
  130OSM   C10F13960   1.255  -0.392   4.454 -0.8342 -0.6397 -0.0053
  130OSM   H10F13961   1.161  -0.360   4.502 -0.3226 -1.5049  1.6249
  130OSM   C11F13962   1.359  -0.429   4.562  0.3941  0.2256  0.0703
  130OSM   H11F13963   1.461  -0.435   4.520  0.9385 -1.5078  1.5052
  130OSM   H11G13964   1.347  -0.528   4.612 -1.4481  0.4071  0.0579
  130OSM   C12F13965   1.348  -0.323   4.674 -0.4441  0.7196  0.2068
  130OSM   H12F13966   1.245  -0.328   4.716 -0.7364 -0.4907 -0.6251
  130OSM   H12G13967   1.364  -0.218   4.642  0.9364  0.7003  0.7711
  130OSM   C13F13968   1.455  -0.345   4.783  0.1100 -0.2987  0.1406
  130OSM   H13F13969   1.423  -0.288   4.873 -1.6712 -0.1929 -0.5075
  130OSM   H13G13970   1.548  -0.296   4.748 -1.4888  0.9036 -2.8424
  130OSM   C14F13971   1.487  -0.486   4.824 -0.5300 -0.6906 -0.0075
  130OSM   H14F13972   1.534  -0.538   4.738 -0.8990 -0.8648 -0.1019
  130OSM   H14G13973   1.399  -0.540   4.863 -0.5263 -0.1537  0.7781
  130OSM   C15F13974   1.588  -0.497   4.942 -0.0509  0.0139 -0.2262
  130OSM   H15F13975   1.688  -0.461   4.911  0.3679 -1.4528 -0.6098
  130OSM   H15G13976   1.617  -0.600   4.971  2.6362  0.4697 -1.0227
  130OSM   C16F13977   1.541  -0.437   5.075  0.1260  0.6521  0.5875
  130OSM   H16F13978   1.444  -0.483   5.105 -0.1693  1.2979  0.6208
  130OSM   H16G13979   1.537  -0.326   5.071 -2.2118  0.6329  0.5545
  130OSM   C17F13980   1.629  -0.454   5.196 -0.3308  0.4359  0.1884
  130OSM   H17F13981   1.735  -0.430   5.173 -0.6649  0.2930 -1.6802
  130OSM   H17G13982   1.634  -0.564   5.213 -0.5289  0.1876 -1.1895
  130OSM   C18F13983   1.573  -0.391   5.326 -1.1031  0.5669 -0.6000
  130OSM   H18F13984   1.567  -0.281   5.310  1.5448  1.0729  1.3008
  130OSM   H18G13985   1.650  -0.415   5.402  2.1859  0.6906 -3.6301
  130OSM   H18H13986   1.481  -0.434   5.370 -0.4379 -0.4463 -0.1730
  131OSM      N13987   0.477   3.275   2.735  0.5694 -0.1054  0.4361
  131OSM    C1513988   0.570   3.376   2.680 -0.0666  0.5754 -0.1643
  131OSM   H15A13989   0.523   3.448   2.615  0.2876  1.2829  0.3502
  131OSM   H15B13990   0.648   3.318   2.632  1.1644  0.1069  2.2318
  131OSM   H15C13991   0.623   3.424   2.761  1.3559  0.5244 -1.0256
  131OSM    C1413992   0.406   3.334   2.858  0.1340  0.0887 -0.0796
  131OSM   H14A13993   0.485   3.372   2.921  1.7845 -3.2127  0.0470
  131OSM   H14B13994   0.351   3.255   2.905  0.5182 -0.1652 -0.0479
  131OSM   H14C13995   0.346   3.419   2.829  0.2649 -0.1392 -1.0680
  131OSM    C1313996   0.372   3.233   2.639  0.1057  0.3507 -0.1733
  131OSM   H13A13997   0.306   3.316   2.619 -1.6222 -0.4101  1.9864
  131OSM   H13B13998   0.307   3.156   2.679 -0.8051  0.8314 -0.6873
  131OSM   H13C13999   0.424   3.204   2.549 -0.8515 -0.1006 -0.5954
  131OSM    C1214000   0.556   3.152   2.776 -0.8394  0.1099 -0.2563
  131OSM   H12A14001   0.481   3.083   2.811  0.9596 -2.0413 -0.3671
  131OSM   H12B14002   0.622   3.186   2.854  0.0419 -0.3206 -0.7947
  131OSM    C1114003   0.631   3.068   2.675  0.2500  0.6224  0.1651
  131OSM   H11A14004   0.556   3.043   2.596 -2.0629  0.9800  2.1500
  131OSM   H11B14005   0.654   2.971   2.725 -2.2815 -0.1830 -0.0816
  131OSM      P14006   0.886   3.117   2.682 -0.3616 -0.0112  0.2523
  131OSM    O1314007   0.956   2.997   2.634  0.3358 -0.0338  0.0477
  131OSM    O1414008   0.951   3.251   2.669 -0.4934 -0.4665  0.8930
  131OSM    O1114009   0.850   3.089   2.835 -0.3722 -0.4393  0.9471
  131OSM    O1214010   0.740   3.130   2.613 -0.2523 -0.5098  0.1510
  131OSM    C1S14011   0.876   3.199   2.925 -0.4993  0.7092 -0.5702
  131OSM    H1S14012   0.816   3.289   2.902 -3.3959  0.0010  3.1489
  131OSM    H1T14013   0.984   3.224   2.926  0.0136 -1.2756 -0.6328
  131OSM     NF14014   0.820   3.259   3.170  0.4027  0.7002 -0.4111
  131OSM    HNF14015   0.882   3.269   3.247  1.7605  0.4940 -1.4515
  131OSM    C2S14016   0.838   3.153   3.070  0.0276 -0.1124  0.1160
  131OSM    H2S14017   0.740   3.104   3.054  0.4394 -1.3094  1.0357
  131OSM    C3S14018   0.941   3.047   3.109 -0.5326  0.0404 -0.5448
  131OSM    H3S14019   1.021   3.116   3.142 -2.6709  1.6446  1.6460
  131OSM     O314020   0.981   2.954   3.014 -0.4522  0.3736  0.0111
  131OSM    HO314021   0.955   2.973   2.923  0.5830 -0.4365 -0.4838
  131OSM    C4S14022   0.900   2.971   3.234 -0.9927  0.3261 -0.1741
  131OSM    H4S14023   0.841   2.879   3.232 -1.9252  0.9200 -1.3847
  131OSM    C5S14024   0.943   2.998   3.360 -0.5219 -0.5959  0.3471
  131OSM    H5S14025   1.005   3.087   3.378  0.7355 -1.2811 -0.4321
  131OSM    C6S14026   0.911   2.915   3.483  0.2436 -0.3526  0.0328
  131OSM    H6S14027   0.969   2.820   3.489 -1.4878 -1.6335 -1.9537
  131OSM    H6T14028   0.806   2.880   3.494 -0.0963 -0.0350 -1.8397
  131OSM    C7S14029   0.946   2.993   3.616 -0.2145 -0.0460  0.8910
  131OSM    H7S14030   0.870   3.073   3.622 -0.7860 -0.6193  1.5753
  131OSM    H7T14031   1.052   3.028   3.621 -0.4386  0.4554  4.0062
  131OSM    C8S14032   0.925   2.896   3.740 -0.7553  0.1154  0.0287
  131OSM    H8S14033   1.000   2.816   3.721  1.3080  1.3769  2.3128
  131OSM    H8T14034   0.821   2.858   3.749 -1.3887  1.7245 -0.0477
  131OSM    C9S14035   0.952   2.970   3.868  0.2508 -0.1435 -0.1411
  131OSM    H9S14036   0.878   3.049   3.890 -0.3411 -0.6837 -0.1673
  131OSM    H9T14037   1.046   3.029   3.859  0.7552 -0.9086 -0.0160
  131OSM   C10S14038   0.950   2.881   3.990  0.3037  0.6398  0.4309
  131OSM   H10S14039   1.043   2.820   3.992  0.0463  0.2400  0.3402
  131OSM   H10T14040   0.862   2.815   3.973 -1.3609  3.0361 -0.7806
  131OSM   C11S14041   0.937   2.949   4.127  0.4198 -0.1270  0.6305
  131OSM   H11S14042   0.848   3.016   4.135 -0.7413 -1.2601 -1.7053
  131OSM   H11T14043   1.026   3.013   4.143 -1.6140  3.8117 -2.0946
  131OSM   C12S14044   0.934   2.848   4.241  0.1172 -1.0224 -0.2826
  131OSM   H12S14045   1.029   2.791   4.250  0.9141  0.4928  1.4395
  131OSM   H12T14046   0.844   2.784   4.226  0.1792 -1.3333  0.6052
  131OSM   C13S14047   0.931   2.920   4.381 -0.2906 -1.3237  0.5224
  131OSM   H13S14048   0.834   2.972   4.398  0.2101 -0.0491 -0.3109
  131OSM   H13T14049   1.006   3.003   4.382  1.1041 -2.5468  0.4764
  131OSM   C14S14050   0.963   2.824   4.490  0.5427  0.5783  0.6518
  131OSM   H14S14051   1.060   2.771   4.477 -0.1965 -1.1215  1.7329
  131OSM   H14T14052   0.892   2.739   4.480  0.8481  0.5590 -1.8901
  131OSM   C15S14053   0.964   2.869   4.634  0.8915  0.4009  0.2271
  131OSM   H15S14054   0.859   2.888   4.665  0.1151 -0.3138 -1.8218
  131OSM   H15T14055   1.006   2.970   4.653 -0.2206  0.5252  2.3654
  131OSM   C16S14056   1.022   2.769   4.721  0.0565  0.0551  0.1689
  131OSM   H16S14057   1.134   2.769   4.724  0.0443 -0.0302  0.6678
  131OSM   H16T14058   0.986   2.672   4.682  0.2130  0.3711 -0.7966
  131OSM   C17S14059   0.983   2.781   4.866 -0.8823  0.2673  0.3785
  131OSM   H17S14060   0.873   2.787   4.880 -0.8783 -1.2414  1.2405
  131OSM   H17T14061   1.025   2.878   4.903 -0.9173 -0.6589  3.1265
  131OSM   C18S14062   1.040   2.663   4.950  0.1920  0.0468  0.3596
  131OSM   H18S14063   1.007   2.684   5.054  3.7667 -1.3750  1.9352
  131OSM   H18T14064   1.151   2.669   4.939  0.2449 -0.3003  0.7142
  131OSM   H18U14065   1.008   2.567   4.904  0.3419  0.8498 -1.5390
  131OSM    C1F14066   0.726   3.352   3.151  0.3960 -0.8862  0.4492
  131OSM     OF14067   0.658   3.357   3.048  0.4141 -0.1151  1.0036
  131OSM    C2F14068   0.701   3.454   3.261  0.0612 -0.0302  0.0775
  131OSM    H2F14069   0.788   3.523   3.260 -0.1137  0.2797  2.1015
  131OSM    H2G14070   0.685   3.401   3.357  0.7233 -0.5779 -0.1036
  131OSM    C3F14071   0.573   3.535   3.240 -0.9080 -0.0179 -0.2235
  131OSM    H3F14072   0.484   3.471   3.249  0.0080 -1.7523 -2.4238
  131OSM    H3G14073   0.571   3.577   3.137  1.0769  0.8828  0.0580
  131OSM    C4F14074   0.565   3.643   3.345 -0.5275 -0.0525 -0.4997
  131OSM    H4F14075   0.477   3.707   3.318 -0.0355  1.3294  1.0273
  131OSM    H4G14076   0.653   3.710   3.345 -1.0843  0.7282  1.0443
  131OSM    C5F14077   0.551   3.595   3.492  0.2009 -0.2098  0.6878
  131OSM    H5F14078   0.631   3.524   3.520  1.0898 -0.4300 -2.0735
  131OSM    H5G14079   0.458   3.534   3.499 -0.3590  0.5541  0.1305
  131OSM    C6F14080   0.536   3.712   3.601 -0.0818  0.2493 -0.7153
  131OSM    H6F14081   0.448   3.771   3.568  0.5896  2.0477  0.6016
  131OSM    H6G14082   0.627   3.775   3.598  0.7416 -0.7860  0.9294
  131OSM    C7F14083   0.520   3.663   3.743 -0.4245  0.6228 -0.9811
  131OSM    H7F14084   0.613   3.612   3.776 -1.0296 -0.2767 -0.6424
  131OSM    H7G14085   0.441   3.586   3.738  0.2901 -0.4483  1.9239
  131OSM    C8F14086   0.489   3.781   3.838 -0.0743 -0.0203  0.6377
  131OSM    H8F14087   0.487   3.728   3.936 -0.3159  0.4592  0.9000
  131OSM    H8G14088   0.382   3.810   3.833  0.1809  0.8388 -0.0822
  131OSM    C9F14089   0.582   3.906   3.834  0.5752  0.9704  0.2608
  131OSM    H9F14090   0.551   3.964   3.747  1.9188 -1.2483 -1.8125
  131OSM   C10F14091   0.690   3.921   3.912 -0.9190  1.0445 -0.4210
  131OSM   H10F14092   0.762   4.005   3.907  0.9318 -0.4782 -0.6355
  131OSM   C11F14093   0.739   3.824   4.014 -0.2732 -0.1828 -0.6637
  131OSM   H11F14094   0.834   3.775   3.984  0.7572  0.2306  1.6690
  131OSM   H11G14095   0.673   3.738   4.039  0.1687  0.0357  1.4060
  131OSM   C12F14096   0.777   3.899   4.142 -0.2832  0.0412 -0.4415
  131OSM   H12F14097   0.695   3.972   4.159  0.3895  0.7653 -0.2706
  131OSM   H12G14098   0.865   3.965   4.125  0.2506  0.1096  2.2448
  131OSM   C13F14099   0.777   3.794   4.264 -0.2965 -0.4347  0.2238
  131OSM   H13F14100   0.884   3.763   4.271  0.1334  0.7736 -0.6992
  131OSM   H13G14101   0.717   3.702   4.251 -1.4256  0.1114  1.3486
  131OSM   C14F14102   0.738   3.843   4.406 -0.0171 -0.0731 -0.2140
  131OSM   H14F14103   0.629   3.818   4.402  0.0801 -0.3462 -2.3437
  131OSM   H14G14104   0.767   3.949   4.418  0.0630 -0.2599  1.4917
  131OSM   C15F14105   0.801   3.749   4.511 -0.3641  0.1432 -0.3899
  131OSM   H15F14106   0.910   3.738   4.491 -0.6919  0.9296 -3.0385
  131OSM   H15G14107   0.758   3.648   4.497  2.2436 -0.8009 -2.4781
  131OSM   C16F14108   0.775   3.786   4.661 -0.2148  1.1088 -0.2430
  131OSM   H16F14109   0.843   3.724   4.723 -1.5437  0.4596  0.6024
  131OSM   H16G14110   0.673   3.763   4.699 -0.7048 -0.8988 -2.5026
  131OSM   C17F14111   0.799   3.931   4.688 -0.6941 -0.3269  0.6212
  131OSM   H17F14112   0.732   3.999   4.630 -1.7368 -0.0551  2.0752
  131OSM   H17G14113   0.902   3.957   4.655 -0.1009 -1.3198  1.6107
  131OSM   C18F14114   0.779   3.974   4.839  0.3433 -0.0853  0.4554
  131OSM   H18F14115   0.834   4.069   4.853  0.7118 -0.2084 -0.0954
  131OSM   H18G14116   0.806   3.884   4.899 -1.3665 -0.6071  0.4864
  131OSM   H18H14117   0.676   4.015   4.847  0.7064  0.6069  1.9091
  132OSM      N14118   5.393   4.151   2.923 -0.1122 -0.0753 -0.2249
  132OSM    C1514119   5.291   4.122   2.821  1.4095  0.1653  0.5529
  132OSM   H15A14120   5.245   4.212   2.786  0.7732 -1.1816 -2.4230
  132OSM   H15B14121   5.210   4.067   2.867  2.0751 -0.6886  0.7554
  132OSM   H15C14122   5.341   4.071   2.739  1.6656  1.0171  0.1756
  132OSM    C1414123   5.471   4.017   2.953 -0.8346  0.1533  0.2478
  132OSM   H14A14124   5.406   3.943   2.996 -1.3070  0.7262  0.5244
  132OSM   H14B14125   5.545   4.044   3.027 -0.6155 -1.0220  0.4751
  132OSM   H14C14126   5.520   3.986   2.862  1.4692 -3.6982  2.5159
  132OSM    C1314127   5.481   4.258   2.880  0.2236 -0.1261  0.2730
  132OSM   H13A14128   5.427   4.341   2.838  0.7599 -1.2238 -2.8539
  132OSM   H13B14129   5.549   4.226   2.802  0.2010  0.7266 -0.0961
  132OSM   H13C14130   5.550   4.289   2.957  1.8425  0.8648 -1.4929
  132OSM    C1214131   5.313   4.192   3.039  0.2441  0.6703 -0.0197
  132OSM   H12A14132   5.250   4.105   3.055  0.2835  0.0768 -2.6888
  132OSM   H12B14133   5.261   4.285   3.023 -1.2515 -0.4357 -2.0011
  132OSM    C1114134   5.390   4.218   3.173  0.4209 -0.2004 -0.4081
  132OSM   H11A14135   5.439   4.125   3.209  1.0300  0.2948  0.0819
  132OSM   H11B14136   5.312   4.241   3.249 -0.1099  1.1244 -1.3136
  132OSM      P14137   5.468   4.474   3.209 -0.3676 -0.0978  0.0784
  132OSM    O1314138   5.599   4.541   3.210  0.3250 -0.1907 -0.4720
  132OSM    O1414139   5.374   4.539   3.110 -0.5108 -0.2132 -0.5487
  132OSM    O1114140   5.415   4.482   3.357  0.0062 -0.2187  0.3448
  132OSM    O1214141   5.486   4.327   3.170 -0.5743 -0.6690  0.0889
  132OSM    C1S14142   5.491   4.440   3.471 -0.1998 -0.7306  0.3974
  132OSM    H1S14143   5.585   4.498   3.470 -0.8246  0.2952 -0.0297
  132OSM    H1T14144   5.524   4.338   3.442  1.3034  0.5180 -2.7694
  132OSM     NF14145   5.514   4.441   3.712  0.6437  0.5831  0.4553
  132OSM    HNF14146   5.542   4.349   3.737  1.1803  0.3174 -1.0106
  132OSM    C2S14147   5.417   4.452   3.602  0.1398 -0.1565 -0.7569
  132OSM    H2S14148   5.362   4.547   3.592 -1.4298 -1.2182 -3.2194
  132OSM    C3S14149   5.317   4.338   3.606 -0.2325  0.2621 -0.1996
  132OSM    H3S14150   5.373   4.243   3.616 -0.8702 -0.0142  0.9780
  132OSM     O314151   5.253   4.321   3.478 -0.3719  0.4538  0.0520
  132OSM    HO314152   5.292   4.386   3.420  0.3038 -0.2951 -0.3598
  132OSM    C4S14153   5.225   4.350   3.719  0.8416 -0.0060 -0.1358
  132OSM    H4S14154   5.277   4.320   3.811 -2.6038 -4.1878  0.7803
  132OSM    C5S14155   5.094   4.391   3.713 -0.3319  0.9132 -0.3866
  132OSM    H5S14156   5.044   4.412   3.617 -1.9067  0.5587  0.3182
  132OSM    C6S14157   4.997   4.391   3.829 -0.4432  0.8260 -0.1533
  132OSM    H6S14158   4.932   4.301   3.822  2.9283 -1.8875  0.3730
  132OSM    H6T14159   4.933   4.481   3.829 -0.4610  0.8156  0.2883
  132OSM    C7S14160   5.054   4.393   3.977 -0.0256 -0.4340  0.8465
  132OSM    H7S14161   5.083   4.499   3.993 -2.2122  0.5629 -1.1538
  132OSM    H7T14162   5.135   4.318   3.990 -1.8281 -2.2743  2.2324
  132OSM    C8S14163   4.934   4.368   4.071 -0.5483 -0.1806 -0.1594
  132OSM    H8S14164   4.892   4.269   4.047 -1.3414 -0.1685  1.0912
  132OSM    H8T14165   4.852   4.439   4.048 -1.3726 -1.1949 -0.4256
  132OSM    C9S14166   4.970   4.351   4.214 -0.1259  0.5718 -0.6962
  132OSM    H9S14167   4.983   4.452   4.258 -0.8211 -0.1698  1.3072
  132OSM    H9T14168   5.061   4.290   4.233  0.0288  0.8484 -0.5486
  132OSM   C10S14169   4.851   4.302   4.305  0.3076  0.1616 -0.9945
  132OSM   H10S14170   4.811   4.209   4.259 -0.6970  0.3207 -0.4730
  132OSM   H10T14171   4.766   4.373   4.302 -1.6111 -1.5922  3.0868
  132OSM   C11S14172   4.897   4.292   4.457  0.3499 -0.3225 -0.3150
  132OSM   H11S14173   4.947   4.383   4.498 -0.4656  0.1399 -0.3246
  132OSM   H11T14174   4.974   4.214   4.475  1.2843  0.6715  0.1913
  132OSM   C12S14175   4.783   4.258   4.552 -0.0878  0.4467  0.2703
  132OSM   H12S14176   4.741   4.159   4.525 -2.1256  1.5278 -0.6894
  132OSM   H12T14177   4.703   4.334   4.551  0.0565  0.6003  0.3004
  132OSM   C13S14178   4.835   4.240   4.687  0.3472 -0.4095 -0.2855
  132OSM   H13S14179   4.895   4.328   4.718  0.4357  0.6132 -3.0903
  132OSM   H13T14180   4.889   4.144   4.704  0.8372 -0.2444 -0.8448
  132OSM   C14S14181   4.723   4.245   4.788 -0.3948  0.2324  0.3300
  132OSM   H14S14182   4.648   4.172   4.751 -1.2150  0.9678  0.4901
  132OSM   H14T14183   4.674   4.345   4.799 -1.1473 -0.0298 -0.4846
  132OSM   C15S14184   4.756   4.181   4.921 -0.4086  0.9141  0.3749
  132OSM   H15S14185   4.822   4.253   4.973 -1.6787  2.6525 -0.3161
  132OSM   H15T14186   4.793   4.078   4.903  0.9713  1.6032 -0.9578
  132OSM   C16S14187   4.636   4.174   5.016 -0.8544 -0.3602  0.5921
  132OSM   H16S14188   4.549   4.123   4.969 -0.2585  0.9707 -2.1402
  132OSM   H16T14189   4.616   4.279   5.046 -0.7072 -0.0781 -0.2633
  132OSM   C17S14190   4.657   4.103   5.151 -0.2957  0.0295 -0.1860
  132OSM   H17S14191   4.709   4.006   5.140  1.6351  1.2159 -2.4568
  132OSM   H17T14192   4.557   4.091   5.197  0.0183  1.0309  0.8113
  132OSM   C18S14193   4.729   4.185   5.259 -0.2167  0.0182 -0.2408
  132OSM   H18S14194   4.685   4.286   5.270 -0.0367 -0.0641  1.3861
  132OSM   H18T14195   4.835   4.201   5.232  0.2144  0.9241  1.8314
  132OSM   H18U14196   4.728   4.129   5.354 -0.6291 -0.3495 -0.4579
  132OSM    C1F14197   5.591   4.545   3.747  0.3771  0.1613  0.5551
  132OSM     OF14198   5.578   4.656   3.705  0.0505  0.4456 -0.6685
  132OSM    C2F14199   5.702   4.524   3.845 -0.0962 -0.1122 -0.1617
  132OSM    H2F14200   5.784   4.473   3.790  0.0735  0.0866 -0.0925
  132OSM    H2G14201   5.673   4.456   3.929  1.5354  0.5666  1.0091
  132OSM    C3F14202   5.753   4.652   3.906  0.9030  1.0590  0.2663
  132OSM    H3F14203   5.676   4.704   3.966  0.0751 -0.5122  0.6007
  132OSM    H3G14204   5.786   4.728   3.831  1.4421  0.7421  0.1767
  132OSM    C4F14205   5.885   4.627   3.984  0.2665  0.3859 -0.5411
  132OSM    H4F14206   5.909   4.728   4.023  0.7835  0.6337 -1.4799
  132OSM    H4G14207   5.975   4.599   3.924  1.3057  1.4339  0.4809
  132OSM    C5F14208   5.863   4.524   4.104 -0.7314 -0.1556 -0.1978
  132OSM    H5F14209   5.962   4.516   4.153 -0.8310 -2.7671 -0.2455
  132OSM    H5G14210   5.843   4.425   4.058  2.8987 -0.3009 -1.8102
  132OSM    C6F14211   5.766   4.550   4.214 -0.1441 -0.3566 -0.6162
  132OSM    H6F14212   5.770   4.660   4.227 -0.0800 -0.6163  2.1339
  132OSM    H6G14213   5.797   4.486   4.299 -0.9763  0.8562  0.6441
  132OSM    C7F14214   5.616   4.507   4.193  0.6320 -0.0316 -0.0768
  132OSM    H7F14215   5.618   4.400   4.163  1.7491 -1.0261  3.0464
  132OSM    H7G14216   5.564   4.574   4.122  1.0202  2.7448  2.0580
  132OSM    C8F14217   5.536   4.509   4.323  0.0320 -0.7012  0.2635
  132OSM    H8F14218   5.517   4.616   4.347 -2.2656 -0.2206 -3.0883
  132OSM    H8G14219   5.601   4.457   4.397  1.3827  0.2126 -0.2434
  132OSM    C9F14220   5.405   4.441   4.309 -0.3386 -0.2873 -0.9017
  132OSM    H9F14221   5.347   4.478   4.222  1.3475  3.3030 -0.6823
  132OSM   C10F14222   5.353   4.347   4.399  0.3630 -0.0679  0.3951
  132OSM   H10F14223   5.259   4.298   4.370  0.9871 -0.2461 -1.4831
  132OSM   C11F14224   5.407   4.297   4.531  0.3820  0.1446  0.3855
  132OSM   H11F14225   5.483   4.370   4.567  0.3435 -0.0775  0.9219
  132OSM   H11G14226   5.460   4.200   4.532  0.2229  0.0580  0.4236
  132OSM   C12F14227   5.279   4.283   4.622 -0.2864  0.2673  0.2705
  132OSM   H12F14228   5.203   4.211   4.587  1.2451 -3.4487  3.7367
  132OSM   H12G14229   5.227   4.381   4.636  0.1727  0.4106  1.0955
  132OSM   C13F14230   5.327   4.236   4.762  0.6564  0.2750 -0.5281
  132OSM   H13F14231   5.410   4.299   4.799 -0.9422  1.2143  1.7018
  132OSM   H13G14232   5.353   4.128   4.764 -3.8811 -1.0486  1.8912
  132OSM   C14F14233   5.221   4.247   4.871  0.8277 -0.3868  0.2897
  132OSM   H14F14234   5.139   4.183   4.833 -0.8083  2.0127 -0.4379
  132OSM   H14G14235   5.191   4.354   4.878  0.8535 -0.4031  0.6934
  132OSM   C15F14236   5.248   4.194   5.001 -0.1008 -0.0135  0.1820
  132OSM   H15F14237   5.336   4.243   5.049  0.5869  0.5768 -1.6013
  132OSM   H15G14238   5.270   4.085   5.002  0.2327  0.0278  2.0557
  132OSM   C16F14239   5.140   4.218   5.101  0.1041 -0.4246  0.0371
  132OSM   H16F14240   5.177   4.186   5.201 -0.9343  0.5259  0.7381
  132OSM   H16G14241   5.063   4.144   5.068  0.2632  0.3636 -2.2829
  132OSM   C17F14242   5.085   4.363   5.108 -0.3649  0.0843 -1.1624
  132OSM   H17F14243   5.008   4.370   5.189  1.7705  2.8117  0.8284
  132OSM   H17G14244   5.039   4.395   5.012  0.6883  2.5398 -0.9183
  132OSM   C18F14245   5.190   4.473   5.145 -0.2020  0.2025 -0.0800
  132OSM   H18F14246   5.270   4.434   5.210  0.2478 -1.5569 -1.5998
  132OSM   H18G14247   5.129   4.558   5.182 -0.8600 -0.4454  0.3523
  132OSM   H18H14248   5.248   4.504   5.056  0.9233 -0.6336  0.3468
  133OSM      N14249   4.906   3.490   3.312 -0.0565 -0.4846  0.1470
  133OSM    C1514250   4.869   3.447   3.447 -1.0482 -0.5384  0.1231
  133OSM   H15A14251   4.927   3.473   3.534 -0.5969 -1.5042  0.1250
  133OSM   H15B14252   4.849   3.341   3.447 -1.4432 -0.4727 -0.4348
  133OSM   H15C14253   4.775   3.494   3.475 -0.2990  1.3155 -0.3300
  133OSM    C1414254   5.036   3.422   3.271  0.1803  0.0337 -0.3573
  133OSM   H14A14255   5.103   3.401   3.353  0.3971 -1.5056 -0.8950
  133OSM   H14B14256   5.090   3.481   3.198  2.4242  1.1121  1.9890
  133OSM   H14C14257   5.020   3.326   3.223  2.4106  0.7648 -2.8459
  133OSM    C1314258   4.795   3.445   3.227 -0.0220  0.2633  0.3505
  133OSM   H13A14259   4.812   3.338   3.221 -1.2028  0.1079 -0.6875
  133OSM   H13B14260   4.799   3.472   3.122  1.0096  0.7000  0.4914
  133OSM   H13C14261   4.701   3.469   3.274  0.3309  0.3459  1.0184
  133OSM    C1214262   4.928   3.635   3.303  0.8186  0.0285 -0.6412
  133OSM   H12A14263   5.011   3.660   3.368 -0.8411  1.9338  0.8719
  133OSM   H12B14264   4.839   3.685   3.338  0.5678 -0.0793 -1.1187
  133OSM    C1114265   4.967   3.701   3.167  0.1216  0.5338 -0.1049
  133OSM   H11A14266   4.958   3.812   3.171 -0.4307  0.4622  0.6520
  133OSM   H11B14267   4.889   3.666   3.097 -0.0135 -1.0877  0.8271
  133OSM      P14268   5.228   3.755   3.156 -0.3196  0.3839 -0.0415
  133OSM    O1314269   5.348   3.670   3.178 -0.5349  0.1540 -0.9898
  133OSM    O1414270   5.232   3.872   3.065 -0.0458 -0.0297 -0.3645
  133OSM    O1114271   5.192   3.815   3.301  0.0977 -0.3083 -0.4667
  133OSM    O1214272   5.099   3.657   3.120 -0.1326 -0.6695  0.1169
  133OSM    C1S14273   5.162   3.955   3.307 -0.0253 -0.6587 -0.0073
  133OSM    H1S14274   5.093   3.990   3.227 -0.4658 -1.8076 -0.1503
  133OSM    H1T14275   5.255   4.013   3.315 -0.5681  0.4825 -1.5878
  133OSM     NF14276   5.049   4.127   3.420 -1.3105 -0.1641 -0.0536
  133OSM    HNF14277   5.106   4.207   3.441  0.0930 -0.6084 -1.9277
  133OSM    C2S14278   5.091   3.992   3.447  0.5715 -0.2326 -0.4904
  133OSM    H2S14279   5.008   3.921   3.466 -0.2352  0.2957 -1.8896
  133OSM    C3S14280   5.185   3.974   3.564 -0.5417  0.3026 -0.5003
  133OSM    H3S14281   5.265   4.050   3.551 -0.4437  0.2653 -0.1227
  133OSM     O314282   5.249   3.848   3.556 -0.5603 -0.2322  0.1217
  133OSM    HO314283   5.229   3.815   3.468  0.0350  1.4061 -0.6912
  133OSM    C4S14284   5.123   3.995   3.699  0.0313  0.0388 -0.2948
  133OSM    H4S14285   5.125   4.104   3.713 -1.0204  0.3385 -2.0750
  133OSM    C5S14286   5.081   3.919   3.798  0.2070  0.0073  0.0660
  133OSM    H5S14287   5.094   3.810   3.797 -0.5575 -0.0828 -0.3600
  133OSM    C6S14288   5.020   3.981   3.922 -0.7967  0.7186 -0.1998
  133OSM    H6S14289   4.909   3.995   3.920 -0.8004  0.7989  0.4352
  133OSM    H6T14290   5.072   4.074   3.953  1.4621 -0.8418  0.9291
  133OSM    C7S14291   5.056   3.897   4.048  0.3503  0.0004 -0.6887
  133OSM    H7S14292   5.153   3.846   4.028 -0.1535 -0.6259 -1.6107
  133OSM    H7T14293   4.993   3.806   4.053  1.1971 -0.5961 -0.6153
  133OSM    C8S14294   5.039   3.975   4.180  0.1300  0.2603 -0.3390
  133OSM    H8S14295   4.935   4.015   4.189 -0.5782 -0.5528 -3.6107
  133OSM    H8T14296   5.113   4.053   4.209 -0.3591  1.7068 -2.6802
  133OSM    C9S14297   5.059   3.869   4.291  0.1554  0.7876  0.8913
  133OSM    H9S14298   5.162   3.828   4.288 -0.8733 -2.1334  2.3711
  133OSM    H9T14299   4.971   3.802   4.286 -0.3232  1.3401  1.6383
  133OSM   C10S14300   5.048   3.930   4.432 -0.0412 -0.0575 -0.0380
  133OSM   H10S14301   4.961   3.989   4.466  0.5207 -0.9164  3.2404
  133OSM   H10T14302   5.136   3.993   4.456 -1.0407  1.5174 -0.3761
  133OSM   C11S14303   5.063   3.823   4.550 -0.1857  0.5175  0.8855
  133OSM   H11S14304   5.157   3.765   4.542 -0.8300 -0.5470  0.7674
  133OSM   H11T14305   4.981   3.749   4.539 -1.1857  1.3631  2.3307
  133OSM   C12S14306   5.053   3.880   4.693 -0.3967 -0.4974 -0.3028
  133OSM   H12S14307   4.955   3.931   4.695  0.9693  2.3621  1.0717
  133OSM   H12T14308   5.131   3.957   4.714 -1.6716  0.3558  1.5834
  133OSM   C13S14309   5.050   3.775   4.802  0.5218  0.1170  0.6327
  133OSM   H13S14310   5.138   3.708   4.804  2.8770  2.9659  3.1562
  133OSM   H13T14311   4.960   3.711   4.792  1.0867 -0.4923 -0.7536
  133OSM   C14S14312   5.055   3.842   4.943  0.2965  0.4037  0.6519
  133OSM   H14S14313   4.964   3.904   4.959 -1.5294 -2.2424  1.0418
  133OSM   H14T14314   5.138   3.914   4.962  0.1337  0.7940 -0.0892
  133OSM   C15S14315   5.038   3.749   5.063  0.2265 -0.4063  0.4842
  133OSM   H15S14316   5.124   3.765   5.132  1.1628  2.1791 -1.1423
  133OSM   H15T14317   5.058   3.645   5.029  1.2972 -0.2731  0.6457
  133OSM   C16S14318   4.911   3.764   5.143 -0.4156  0.3834 -0.3270
  133OSM   H16S14319   4.829   3.755   5.068  0.4376 -2.1511 -1.0638
  133OSM   H16T14320   4.911   3.867   5.183 -1.4593  0.1279  0.3666
  133OSM   C17S14321   4.901   3.660   5.258  1.0716  0.3558 -0.0747
  133OSM   H17S14322   4.993   3.656   5.320  2.2637 -1.8598 -1.8517
  133OSM   H17T14323   4.885   3.557   5.220 -0.3475  0.5717 -0.1117
  133OSM   C18S14324   4.782   3.683   5.347 -0.5072 -0.5955 -0.9503
  133OSM   H18S14325   4.783   3.791   5.372  0.8810  0.5449 -5.0518
  133OSM   H18T14326   4.774   3.615   5.434  0.4685  0.1779 -0.2382
  133OSM   H18U14327   4.688   3.670   5.289 -0.9591 -1.7678 -0.0124
  133OSM    C1F14328   4.936   4.156   3.362  0.0097 -0.0846  0.2022
  133OSM     OF14329   4.850   4.069   3.344 -0.0226 -0.5106 -0.1420
  133OSM    C2F14330   4.901   4.301   3.338 -0.3904 -0.2293  0.6177
  133OSM    H2F14331   4.904   4.325   3.229  1.1416 -0.5034  0.5740
  133OSM    H2G14332   4.983   4.366   3.375  2.5347 -1.6316 -2.7863
  133OSM    C3F14333   4.762   4.336   3.398 -0.3958 -0.1098 -0.0522
  133OSM    H3F14334   4.677   4.276   3.360 -0.9752  0.7608 -0.1544
  133OSM    H3G14335   4.746   4.443   3.372 -1.3273 -0.6991 -2.0652
  133OSM    C4F14336   4.772   4.343   3.554 -0.0052 -1.2750 -0.4778
  133OSM    H4F14337   4.809   4.441   3.590 -0.2004 -0.3997 -2.5277
  133OSM    H4G14338   4.827   4.255   3.594 -0.7483 -1.8151 -0.6038
  133OSM    C5F14339   4.635   4.329   3.621 -0.5146 -0.7176  0.0643
  133OSM    H5F14340   4.591   4.234   3.586  0.7763 -1.4168  0.2689
  133OSM    H5G14341   4.573   4.421   3.610 -0.6948 -0.5761  1.9276
  133OSM    C6F14342   4.646   4.320   3.775 -0.1771  0.5658 -0.1941
  133OSM    H6F14343   4.703   4.414   3.791  0.3108  0.7655 -2.7740
  133OSM    H6G14344   4.689   4.227   3.817 -1.4801 -0.7413 -1.6196
  133OSM    C7F14345   4.512   4.333   3.848  0.3109 -0.4984 -0.9455
  133OSM    H7F14346   4.452   4.245   3.817 -1.4390  0.0783  0.6372
  133OSM    H7G14347   4.477   4.425   3.797 -0.2478 -1.0421 -1.5624
  133OSM    C8F14348   4.515   4.360   3.999  0.0792  0.3779  0.3645
  133OSM    H8F14349   4.408   4.386   4.018 -0.4754 -1.2327 -0.3788
  133OSM    H8G14350   4.586   4.445   3.994 -0.4409  0.7701 -0.8774
  133OSM    C9F14351   4.558   4.232   4.070  0.1984 -0.4818 -0.2993
  133OSM    H9F14352   4.666   4.215   4.058  0.9468  1.7010  2.2973
  133OSM   C10F14353   4.485   4.147   4.146 -0.1639  0.2603  0.6859
  133OSM   H10F14354   4.541   4.060   4.185  0.3654  0.0840 -0.4404
  133OSM   C11F14355   4.341   4.158   4.169  0.0058  0.0798 -0.4094
  133OSM   H11F14356   4.293   4.107   4.082 -0.3245 -1.0015  0.3895
  133OSM   H11G14357   4.303   4.262   4.167 -2.5336 -0.6859  2.2463
  133OSM   C12F14358   4.298   4.091   4.305 -0.3488  0.1826 -0.6632
  133OSM   H12F14359   4.307   3.982   4.289  0.9591  0.0833  0.5271
  133OSM   H12G14360   4.189   4.114   4.310 -0.2921  0.2329  0.7452
  133OSM   C13F14361   4.365   4.126   4.438  0.1208 -0.2583  0.1899
  133OSM   H13F14362   4.361   4.237   4.438 -3.2181 -0.2761  1.4807
  133OSM   H13G14363   4.471   4.092   4.437  0.3739  0.5085 -0.0659
  133OSM   C14F14364   4.297   4.073   4.561  0.1905  0.0669  0.3335
  133OSM   H14F14365   4.318   3.965   4.579 -0.4387  0.0645  1.1283
  133OSM   H14G14366   4.189   4.073   4.537  0.4875 -0.9527 -1.1152
  133OSM   C15F14367   4.333   4.156   4.682  0.1953  0.1045  0.5492
  133OSM   H15F14368   4.337   4.261   4.647  0.5139 -1.0472 -3.4458
  133OSM   H15G14369   4.428   4.117   4.723 -0.4449 -1.8207  0.3568
  133OSM   C16F14370   4.238   4.140   4.794  0.1843  1.1322  0.1088
  133OSM   H16F14371   4.259   4.040   4.837  0.8891  1.0541 -0.3916
  133OSM   H16G14372   4.133   4.143   4.759  0.8380  1.3831 -1.9996
  133OSM   C17F14373   4.245   4.249   4.900  0.5578 -0.0808  0.3346
  133OSM   H17F14374   4.244   4.345   4.843 -2.7551 -0.9142 -1.2493
  133OSM   H17G14375   4.342   4.230   4.952 -0.0062 -3.4471  0.3510
  133OSM   C18F14376   4.133   4.235   5.002 -0.3272 -0.0999 -0.7376
  133OSM   H18F14377   4.141   4.134   5.048  0.0842  0.8998  1.5378
  133OSM   H18G14378   4.031   4.238   4.959 -0.6887  1.3638  0.1442
  133OSM   H18H14379   4.153   4.315   5.077 -2.7618 -2.0114  2.2425
  134OSM      N14380   2.889   0.100   2.731 -0.0915  0.6672  0.1182
  134OSM    C1514381   2.966   0.212   2.663 -0.0879  0.3047 -0.4136
  134OSM   H15A14382   3.067   0.184   2.639 -0.7217 -0.4120 -2.4196
  134OSM   H15B14383   2.971   0.306   2.716 -0.6293  0.8909 -1.3779
  134OSM   H15C14384   2.917   0.245   2.573  1.6199  1.6584 -0.8950
  134OSM    C1414385   2.745   0.154   2.745  0.3236  0.6592  0.3401
  134OSM   H14A14386   2.735   0.244   2.804  0.8874  1.2154 -0.3950
  134OSM   H14B14387   2.687   0.076   2.792 -1.8134  0.5995 -2.1620
  134OSM   H14C14388   2.688   0.165   2.654  1.7831 -0.1811 -0.7246
  134OSM    C1314389   2.894  -0.026   2.659  0.0557 -0.0468 -0.5235
  134OSM   H13A14390   2.862  -0.002   2.558 -3.0521  1.8476  0.7808
  134OSM   H13B14391   2.843  -0.114   2.696  1.3687 -0.3541  0.6349
  134OSM   H13C14392   2.998  -0.055   2.654  1.0033  2.7784  0.6411
  134OSM    C1214393   2.943   0.088   2.873 -0.0283  0.4315  0.5742
  134OSM   H12A14394   2.870   0.026   2.923 -1.0521  1.1593  0.0215
  134OSM   H12B14395   2.944   0.187   2.917 -1.0853  1.2369 -1.1165
  134OSM    C1114396   3.084   0.033   2.896  0.3339  0.7097 -0.9659
  134OSM   H11A14397   3.097  -0.049   2.822 -1.6677  0.1530 -0.7661
  134OSM   H11B14398   3.097  -0.010   2.998 -0.5671  1.5175 -0.4856
  134OSM      P14399   3.202   0.271   2.919  0.5122 -0.0285  0.3425
  134OSM    O1314400   3.290   0.331   2.820 -0.7151  0.3956  0.6506
  134OSM    O1414401   3.077   0.338   2.945  0.3480 -0.3251  0.3451
  134OSM    O1114402   3.286   0.245   3.053  0.0554 -0.8195 -0.2696
  134OSM    O1214403   3.186   0.127   2.862 -0.3162  0.7090 -0.0330
  134OSM    C1S14404   3.205   0.230   3.179  0.4993  0.6474  0.0096
  134OSM    H1S14405   3.110   0.176   3.159  0.8965 -1.9947  3.9792
  134OSM    H1T14406   3.169   0.328   3.217  0.1665  0.5535 -0.0595
  134OSM     NF14407   3.193   0.131   3.412  0.5042 -0.4677 -0.0913
  134OSM    HNF14408   3.191   0.202   3.481  1.0315  0.9392 -1.4656
  134OSM    C2S14409   3.274   0.161   3.296  0.4802 -0.2701 -0.1138
  134OSM    H2S14410   3.303   0.062   3.256 -0.4765  0.3929 -2.6554
  134OSM    C3S14411   3.403   0.230   3.332 -0.0848  0.0354 -0.5082
  134OSM    H3S14412   3.374   0.332   3.365  1.0312  0.3333 -0.3843
  134OSM     O314413   3.497   0.262   3.226 -0.8572  0.2033  0.0499
  134OSM    HO314414   3.456   0.250   3.141  2.0316 -1.3595 -1.2880
  134OSM    C4S14415   3.482   0.168   3.439 -0.4928 -0.7028  0.2350
  134OSM    H4S14416   3.509   0.062   3.425 -1.8597 -1.2167  1.1619
  134OSM    C5S14417   3.528   0.230   3.556  0.4632 -0.2608  0.0332
  134OSM    H5S14418   3.514   0.338   3.564  0.2819 -0.2344 -0.5681
  134OSM    C6S14419   3.609   0.152   3.647  0.3968 -0.0326 -0.2308
  134OSM    H6S14420   3.664   0.215   3.719  1.6467 -0.1264 -1.0682
  134OSM    H6T14421   3.682   0.091   3.590 -1.3927 -0.4699 -2.2148
  134OSM    C7S14422   3.523   0.046   3.710  0.0363  0.4163 -0.2553
  134OSM    H7S14423   3.589  -0.037   3.745  0.2871  0.1527 -1.3139
  134OSM    H7T14424   3.448  -0.000   3.643  1.3367 -2.9823  0.4033
  134OSM    C8S14425   3.452   0.105   3.830 -0.1447 -0.3629  0.3151
  134OSM    H8S14426   3.438   0.215   3.824  3.9682  0.3202  0.1648
  134OSM    H8T14427   3.521   0.092   3.916  0.1647 -1.3879 -0.0728
  134OSM    C9S14428   3.318   0.039   3.858 -0.5979  0.1446 -0.2148
  134OSM    H9S14429   3.338  -0.069   3.876  1.7820  0.8507  2.1141
  134OSM    H9T14430   3.244   0.044   3.776 -3.0438  0.1908  1.8804
  134OSM   C10S14431   3.242   0.095   3.980  0.1937 -0.5067 -0.2316
  134OSM   H10S14432   3.203   0.197   3.963  0.2656 -0.8055 -2.3532
  134OSM   H10T14433   3.296   0.100   4.077 -2.1216 -0.5977  1.1373
  134OSM   C11S14434   3.111   0.022   4.004  0.4788  0.1253 -0.4314
  134OSM   H11S14435   3.143  -0.070   4.057  0.2561  0.6599  0.6495
  134OSM   H11T14436   3.066   0.001   3.904 -3.2727 -2.4512  1.5719
  134OSM   C12S14437   3.013   0.094   4.100  0.2417  0.3564  0.4038
  134OSM   H12S14438   2.930   0.021   4.114 -0.9182  1.3824 -0.8437
  134OSM   H12T14439   2.977   0.187   4.052  0.3373  0.6284  0.8560
  134OSM   C13S14440   3.073   0.127   4.241  0.6451  0.9371 -0.1009
  134OSM   H13S14441   3.144   0.210   4.221  1.3786  0.1993 -0.6298
  134OSM   H13T14442   3.129   0.039   4.281 -2.2867 -1.0751 -0.0496
  134OSM   C14S14443   2.976   0.184   4.349 -0.1822 -0.5334 -0.1751
  134OSM   H14S14444   2.877   0.132   4.347 -0.6948  0.3899 -2.9490
  134OSM   H14T14445   2.941   0.286   4.318 -0.5856 -0.8180 -0.6769
  134OSM   C15S14446   3.030   0.189   4.491  0.4917 -0.1720  0.3322
  134OSM   H15S14447   3.118   0.254   4.509  0.5955  0.2391 -1.4459
  134OSM   H15T14448   3.081   0.095   4.521  1.6482  0.0368 -0.8755
  134OSM   C16S14449   2.925   0.212   4.599  0.0763  0.0386 -0.2913
  134OSM   H16S14450   2.852   0.129   4.596  1.0970 -1.0488  2.0878
  134OSM   H16T14451   2.869   0.304   4.573 -1.6396 -0.4386  1.4390
  134OSM   C17S14452   2.990   0.223   4.738  0.5727 -0.4392 -0.1126
  134OSM   H17S14453   3.074   0.151   4.746  3.9280  3.1768 -0.0742
  134OSM   H17T14454   2.915   0.204   4.817  1.3571 -3.8630 -0.0325
  134OSM   C18S14455   3.043   0.365   4.763 -0.2298  0.2994 -0.3548
  134OSM   H18S14456   2.970   0.446   4.741  0.9614  1.4454 -0.2278
  134OSM   H18T14457   3.134   0.383   4.702  0.2498 -0.9657 -0.0259
  134OSM   H18U14458   3.085   0.377   4.865 -0.8529 -1.2962  0.1213
  134OSM    C1F14459   3.108   0.024   3.416 -0.3660  0.3676 -0.5960
  134OSM     OF14460   3.095  -0.050   3.319  0.4656 -0.5248 -1.0019
  134OSM    C2F14461   3.032   0.002   3.547 -0.4514  0.8569 -0.3062
  134OSM    H2F14462   2.986   0.092   3.592  1.7243  1.4391  0.8985
  134OSM    H2G14463   3.096  -0.043   3.626 -1.5413 -0.5963 -0.2008
  134OSM    C3F14464   2.917  -0.100   3.532  0.3432  0.3169 -0.2193
  134OSM    H3F14465   2.947  -0.201   3.496 -0.9753 -1.2591  2.6934
  134OSM    H3G14466   2.838  -0.070   3.461  0.5453  0.1259 -0.5281
  134OSM    C4F14467   2.860  -0.126   3.670  0.1092 -0.1537 -0.4186
  134OSM    H4F14468   2.816  -0.035   3.716  0.2630 -0.5850  0.6269
  134OSM    H4G14469   2.941  -0.165   3.736  1.4068  1.5217 -0.9566
  134OSM    C5F14470   2.755  -0.229   3.675 -0.9040  0.0202  0.5539
  134OSM    H5F14471   2.798  -0.317   3.622  0.9755 -0.2737  2.4377
  134OSM    H5G14472   2.661  -0.185   3.636 -1.0452  1.6655  2.5800
  134OSM    C6F14473   2.717  -0.281   3.814 -0.1578 -0.6602  0.3574
  134OSM    H6F14474   2.634  -0.352   3.794  0.5358 -1.7513  1.2842
  134OSM    H6G14475   2.687  -0.197   3.881 -2.0101  0.0922 -1.3115
  134OSM    C7F14476   2.830  -0.358   3.894  0.7145  0.5038 -0.3693
  134OSM    H7F14477   2.915  -0.289   3.910  0.8150  0.2818  0.0572
  134OSM    H7G14478   2.871  -0.434   3.824  0.6434  1.9079 -2.0061
  134OSM    C8F14479   2.785  -0.413   4.028  0.4925  0.9568 -0.4144
  134OSM    H8F14480   2.698  -0.481   4.017  1.0863  0.3091 -1.3158
  134OSM    H8G14481   2.753  -0.338   4.102 -0.0729 -0.2170  0.5581
  134OSM    C9F14482   2.904  -0.488   4.084 -0.6635  0.2151  0.0779
  134OSM    H9F14483   2.932  -0.586   4.042  0.1717  0.9737 -1.2339
  134OSM   C10F14484   2.989  -0.431   4.175 -0.8471  0.4806  0.3898
  134OSM   H10F14485   3.078  -0.484   4.212 -0.6965  1.0299  0.8309
  134OSM   C11F14486   2.973  -0.289   4.226 -0.5991 -0.7664 -1.1105
  134OSM   H11F14487   2.947  -0.219   4.143 -1.5668 -0.0406 -0.2238
  134OSM   H11G14488   3.069  -0.243   4.257 -0.2714 -1.4325 -1.1043
  134OSM   C12F14489   2.866  -0.264   4.332  0.0529  0.0715 -0.2821
  134OSM   H12F14490   2.770  -0.313   4.305 -0.1772  0.8657 -0.9727
  134OSM   H12G14491   2.839  -0.156   4.338  0.1902  0.1419 -0.8890
  134OSM   C13F14492   2.928  -0.294   4.471  0.9607 -1.4509  0.3435
  134OSM   H13F14493   3.010  -0.219   4.478  1.0438 -1.5678  0.6146
  134OSM   H13G14494   2.974  -0.395   4.481  0.4663 -1.5431  1.8485
  134OSM   C14F14495   2.824  -0.277   4.578 -0.0597  0.2276 -0.1145
  134OSM   H14F14496   2.761  -0.368   4.576 -0.4138  0.4225  1.2988
  134OSM   H14G14497   2.747  -0.198   4.566 -0.3312  0.0920  0.6894
  134OSM   C15F14498   2.881  -0.271   4.716 -0.3272  0.0605 -0.7798
  134OSM   H15F14499   2.981  -0.314   4.698  0.0892  1.2849 -1.5467
  134OSM   H15G14500   2.826  -0.335   4.788  0.9679  0.4075  0.5681
  134OSM   C16F14501   2.907  -0.133   4.787  0.3307  0.5129  0.7964
  134OSM   H16F14502   2.814  -0.072   4.790  0.6399  0.9727  2.5297
  134OSM   H16G14503   2.977  -0.083   4.717 -1.5688 -0.9554 -2.3398
  134OSM   C17F14504   2.964  -0.149   4.926 -0.9732 -0.0405 -0.4642
  134OSM   H17F14505   3.002  -0.251   4.948  0.0836 -0.3546 -3.3801
  134OSM   H17G14506   2.882  -0.118   4.994 -0.8784 -1.6728  0.4408
  134OSM   C18F14507   3.083  -0.058   4.943 -0.2168 -0.4957 -0.1739
  134OSM   H18F14508   3.160  -0.087   4.869  1.7165 -1.4477  2.0966
  134OSM   H18G14509   3.121  -0.075   5.046 -1.5881  1.1646  0.6696
  134OSM   H18H14510   3.057   0.049   4.928 -1.2936 -0.4477  1.7202
  135OSM      N14511   4.821   5.749   2.828  0.1757  0.6476  0.8730
  135OSM    C1514512   4.724   5.674   2.737 -0.6333 -0.4475  0.1907
  135OSM   H15A14513   4.729   5.574   2.777  2.4179 -0.1394  0.8474
  135OSM   H15B14514   4.770   5.672   2.639  0.1088  3.8382  0.2757
  135OSM   H15C14515   4.627   5.721   2.741 -0.3278  0.0771  2.5381
  135OSM    C1414516   4.940   5.659   2.855  0.4556 -0.0557 -0.1067
  135OSM   H14A14517   5.019   5.717   2.901  1.6892 -2.0773  0.4918
  135OSM   H14B14518   4.969   5.614   2.761 -1.7419 -1.0682 -0.3531
  135OSM   H14C14519   4.910   5.576   2.917  3.0522 -0.4338  0.7868
  135OSM    C1314520   4.867   5.861   2.744 -0.0434 -0.3890  0.4469
  135OSM   H13A14521   4.916   5.936   2.805 -1.2580  1.4857 -0.7751
  135OSM   H13B14522   4.787   5.911   2.693 -1.1751 -0.3735  2.1444
  135OSM   H13C14523   4.935   5.820   2.671 -0.5415 -0.3474 -0.0496
  135OSM    C1214524   4.749   5.802   2.947  0.5226 -0.1256 -0.3468
  135OSM   H12A14525   4.696   5.717   2.987  0.3246  1.4493  3.0798
  135OSM   H12B14526   4.668   5.866   2.915  0.1364  0.4713  1.7010
  135OSM    C1114527   4.838   5.878   3.057 -0.0022  0.5654  0.0127
  135OSM   H11A14528   4.910   5.799   3.086 -0.1295  1.2119  2.3108
  135OSM   H11B14529   4.767   5.900   3.140  1.0169  0.7933  0.8510
  135OSM      P14530   4.846   6.136   3.018  0.1227  0.2652 -0.3933
  135OSM    O1314531   4.945   6.228   2.962 -0.0988  0.4762  0.6331
  135OSM    O1414532   4.715   6.138   2.957  0.5273  0.1401 -0.1446
  135OSM    O1114533   4.838   6.168   3.169 -0.1874  0.1819 -0.2161
  135OSM    O1214534   4.913   5.986   3.009  0.1963  0.0945 -0.5177
  135OSM    C1S14535   4.933   6.127   3.269  0.0778 -0.0259  0.1217
  135OSM    H1S14536   5.039   6.159   3.255 -0.4035  1.0207 -1.4805
  135OSM    H1T14537   4.952   6.018   3.268  1.6862  0.2213  0.1825
  135OSM     NF14538   4.971   6.128   3.514 -0.2494 -0.0847 -0.1084
  135OSM    HNF14539   4.972   6.035   3.550 -2.2030  0.5918  1.9217
  135OSM    C2S14540   4.882   6.164   3.407 -0.1297  0.0272 -0.4753
  135OSM    H2S14541   4.870   6.274   3.411  3.2361  0.4445  0.8310
  135OSM    C3S14542   4.734   6.107   3.431 -0.1109  0.2829  0.1106
  135OSM    H3S14543   4.751   5.999   3.415  2.4716  0.4003  1.5144
  135OSM     O314544   4.643   6.154   3.331 -0.4928 -0.0382 -0.0071
  135OSM    HO314545   4.704   6.169   3.258  0.7669 -1.5411  0.6844
  135OSM    C4S14546   4.675   6.120   3.563  0.0537 -0.0130  0.3741
  135OSM    H4S14547   4.691   6.029   3.623  1.6117 -1.9393 -2.7177
  135OSM    C5S14548   4.603   6.224   3.615 -0.4948 -0.5672 -0.3010
  135OSM    H5S14549   4.592   6.323   3.569  0.0872  0.6528  2.0595
  135OSM    C6S14550   4.530   6.212   3.751  0.3672 -0.4362  0.4729
  135OSM    H6S14551   4.427   6.254   3.743  0.4626 -0.2054  0.4361
  135OSM    H6T14552   4.581   6.281   3.823 -1.9997  2.6649 -0.5671
  135OSM    C7S14553   4.503   6.075   3.821 -0.0196 -0.3670 -0.8488
  135OSM    H7S14554   4.598   6.017   3.831 -1.0694 -2.0502 -0.1896
  135OSM    H7T14555   4.427   6.021   3.761 -2.7821  0.8914  1.3151
  135OSM    C8S14556   4.440   6.088   3.966  0.0123 -0.9703 -0.6524
  135OSM    H8S14557   4.373   6.002   3.985  1.6081 -1.6233  2.7510
  135OSM    H8T14558   4.382   6.182   3.949  0.0746 -0.7363  0.3781
  135OSM    C9S14559   4.542   6.110   4.080  0.0746  0.0606  0.0979
  135OSM    H9S14560   4.498   6.192   4.141  3.0865  1.2075  0.9237
  135OSM    H9T14561   4.641   6.146   4.046  1.5100 -1.5772  2.2322
  135OSM   C10S14562   4.566   5.984   4.162 -0.3948  0.3916  0.1830
  135OSM   H10S14563   4.647   5.925   4.113 -0.7979 -1.0971  1.2265
  135OSM   H10T14564   4.480   5.915   4.155  0.5529 -0.6629 -2.1169
  135OSM   C11S14565   4.599   6.013   4.313 -0.1995 -0.6506  0.0052
  135OSM   H11S14566   4.542   6.095   4.362  2.1016  0.2838  1.2696
  135OSM   H11T14567   4.707   6.030   4.330 -0.4687  0.3904  0.7200
  135OSM   C12S14568   4.558   5.898   4.410  0.3202  0.0621  0.6837
  135OSM   H12S14569   4.584   5.800   4.364 -1.1724  1.0656 -2.6574
  135OSM   H12T14570   4.447   5.901   4.417  0.2071 -0.8669 -0.4005
  135OSM   C13S14571   4.621   5.910   4.554 -0.0961 -0.8602 -0.5058
  135OSM   H13S14572   4.579   5.996   4.610  0.3982 -1.0586  0.1834
  135OSM   H13T14573   4.728   5.937   4.541  0.1246 -0.6159  1.5041
  135OSM   C14S14574   4.619   5.788   4.630 -0.3795 -0.1146 -0.7287
  135OSM   H14S14575   4.666   5.698   4.584  0.2692 -0.1584 -0.0107
  135OSM   H14T14576   4.520   5.737   4.638 -0.4702 -0.2250 -2.2550
  135OSM   C15S14577   4.673   5.793   4.775 -0.3031 -0.5036 -0.1974
  135OSM   H15S14578   4.608   5.869   4.824  1.4303  0.4995  0.6279
  135OSM   H15T14579   4.777   5.829   4.784  0.3129 -1.4652 -2.5388
  135OSM   C16S14580   4.651   5.657   4.842 -0.1670 -0.3473 -0.6809
  135OSM   H16S14581   4.668   5.575   4.770 -0.6124  0.3452 -1.5913
  135OSM   H16T14582   4.554   5.652   4.895  1.1455  0.0507  1.9566
  135OSM   C17S14583   4.742   5.641   4.964 -1.3585 -0.1417  0.1750
  135OSM   H17S14584   4.701   5.716   5.035  2.1538  0.6741  1.5636
  135OSM   H17T14585   4.845   5.677   4.941 -1.1305 -1.1623 -0.4335
  135OSM   C18S14586   4.742   5.504   5.030  0.3136 -0.4876  0.0109
  135OSM   H18S14587   4.802   5.507   5.124  1.0662 -0.7032 -0.4475
  135OSM   H18T14588   4.793   5.435   4.959  1.9782  0.5986  0.0838
  135OSM   H18U14589   4.643   5.459   5.052  1.5030 -3.1721  0.3198
  135OSM    C1F14590   5.079   6.207   3.545 -0.0300 -0.4312  0.3034
  135OSM     OF14591   5.094   6.319   3.497  0.4619  0.5190 -0.0864
  135OSM    C2F14592   5.174   6.157   3.643 -0.1843  0.2039 -0.0610
  135OSM    H2F14593   5.275   6.161   3.596 -0.9960  2.2376 -1.7919
  135OSM    H2G14594   5.143   6.055   3.674 -2.2980  0.4166 -1.2680
  135OSM    C3F14595   5.175   6.245   3.772  0.4150  0.5121 -0.3383
  135OSM    H3F14596   5.080   6.204   3.811  1.3569 -1.8274 -0.3618
  135OSM    H3G14597   5.166   6.354   3.749  1.2802  0.0556 -3.1473
  135OSM    C4F14598   5.284   6.210   3.878  0.2105 -0.2220  0.8850
  135OSM    H4F14599   5.374   6.258   3.833  0.7896 -1.2317  0.9189
  135OSM    H4G14600   5.293   6.099   3.875  3.7344 -0.0588 -1.4995
  135OSM    C5F14601   5.256   6.253   4.019  0.0953 -0.6384 -0.4320
  135OSM    H5F14602   5.172   6.212   4.079 -0.0357 -1.3471 -1.0823
  135OSM    H5G14603   5.239   6.363   4.013 -0.3470 -0.7882 -2.5866
  135OSM    C6F14604   5.380   6.232   4.117  0.2298 -0.2876 -0.8780
  135OSM    H6F14605   5.352   6.295   4.205 -2.0999  0.3952 -2.0064
  135OSM    H6G14606   5.482   6.262   4.084  0.3066  3.2332  1.8868
  135OSM    C7F14607   5.398   6.099   4.176 -0.2001  0.4573 -0.1956
  135OSM    H7F14608   5.412   6.029   4.092  0.3033 -1.9700  1.7804
  135OSM    H7G14609   5.301   6.065   4.219  0.2628 -0.5272  0.0861
  135OSM    C8F14610   5.517   6.072   4.265  0.7807 -0.6205  0.2357
  135OSM    H8F14611   5.510   6.127   4.361 -1.1075 -0.7916  0.2304
  135OSM    H8G14612   5.605   6.118   4.215 -0.6775  1.9295 -0.1313
  135OSM    C9F14613   5.548   5.925   4.303 -0.3894 -0.0008 -0.5615
  135OSM    H9F14614   5.535   5.849   4.224 -0.1018 -1.1893  0.4923
  135OSM   C10F14615   5.587   5.872   4.423 -0.4109 -0.0977 -0.3820
  135OSM   H10F14616   5.593   5.762   4.433  1.0957  0.0535  0.6874
  135OSM   C11F14617   5.611   5.942   4.544 -0.4528 -0.8533  0.2714
  135OSM   H11F14618   5.539   6.026   4.543 -0.9130 -1.2288  1.1063
  135OSM   H11G14619   5.711   5.987   4.562 -1.3462  1.7457 -0.9165
  135OSM   C12F14620   5.574   5.855   4.661 -0.3082 -0.0066 -0.5003
  135OSM   H12F14621   5.656   5.786   4.688 -1.0864 -0.5470  0.5396
  135OSM   H12G14622   5.475   5.805   4.648 -0.4873  0.5674 -1.4962
  135OSM   C13F14623   5.578   5.945   4.787 -0.2903 -0.4684 -0.2097
  135OSM   H13F14624   5.513   5.913   4.872  0.0733 -0.9251 -0.1026
  135OSM   H13G14625   5.555   6.049   4.757 -1.1395 -0.6072 -0.0676
  135OSM   C14F14626   5.719   5.944   4.856  0.2050  0.1772  0.2812
  135OSM   H14F14627   5.794   5.996   4.792  2.2582 -2.2403  0.5437
  135OSM   H14G14628   5.755   5.840   4.871 -1.5435 -0.3727  0.9685
  135OSM   C15F14629   5.710   6.013   4.988 -0.2598 -0.9402 -0.2111
  135OSM   H15F14630   5.619   5.988   5.047 -0.4939 -1.8127 -0.9274
  135OSM   H15G14631   5.701   6.121   4.966 -1.2260 -1.1762 -1.0224
  135OSM   C16F14632   5.836   5.984   5.091  0.5550 -0.2895  0.1791
  135OSM   H16F14633   5.819   6.049   5.180  3.1575 -1.5177  1.6768
  135OSM   H16G14634   5.930   6.013   5.039 -0.6697  2.0300 -0.9284
  135OSM   C17F14635   5.839   5.835   5.131  0.6225  0.1825 -0.7805
  135OSM   H17F14636   5.920   5.821   5.207  0.4776 -1.3335 -0.8695
  135OSM   H17G14637   5.865   5.772   5.043  1.2241 -0.1088 -0.4015
  135OSM   C18F14638   5.704   5.789   5.193  0.3984  0.0243  0.0739
  135OSM   H18F14639   5.673   5.855   5.277 -1.4183  2.2234 -2.1546
  135OSM   H18G14640   5.702   5.684   5.231  1.3968  0.0527  0.2257
  135OSM   H18H14641   5.617   5.793   5.124 -1.9426  2.1633  2.9043
  136OSM      N14642   3.759   1.581   3.164  0.8803  0.2162 -0.3855
  136OSM    C1514643   3.834   1.470   3.090  0.3500 -0.0970 -0.2110
  136OSM   H15A14644   3.941   1.468   3.105  1.0367  1.0026 -3.9402
  136OSM   H15B14645   3.820   1.476   2.983  2.5326 -1.4690 -0.6227
  136OSM   H15C14646   3.792   1.378   3.127  0.3901  0.5176  1.4234
  136OSM    C1414647   3.780   1.555   3.312 -0.8093  0.3995 -0.3092
  136OSM   H14A14648   3.881   1.520   3.327 -0.6553  0.3863 -1.2842
  136OSM   H14B14649   3.707   1.483   3.346 -0.7092  0.5411  0.2124
  136OSM   H14C14650   3.764   1.649   3.363  1.9271  0.4526  0.5837
  136OSM    C1314651   3.827   1.706   3.143 -0.1295 -0.4001 -0.1590
  136OSM   H13A14652   3.760   1.788   3.164 -0.0177 -0.0767 -1.0583
  136OSM   H13B14653   3.861   1.729   3.044  0.1050  2.2659  0.4784
  136OSM   H13C14654   3.909   1.710   3.214 -1.3943  1.9088  1.3180
  136OSM    C1214655   3.609   1.586   3.132 -0.7631  0.5759  0.1830
  136OSM   H12A14656   3.573   1.485   3.119 -2.1009  0.9424  0.8149
  136OSM   H12B14657   3.614   1.618   3.029  0.4404 -2.9789 -1.0003
  136OSM    C1114658   3.522   1.682   3.212  0.3536  0.1878  0.2907
  136OSM   H11A14659   3.514   1.656   3.320  0.6643 -0.9998  0.0426
  136OSM   H11B14660   3.423   1.666   3.165  1.2623  0.1393 -1.6650
  136OSM      P14661   3.503   1.898   3.078  0.0903 -0.0342  0.3969
  136OSM    O1314662   3.579   2.025   3.065 -0.2451 -0.5918 -0.3468
  136OSM    O1414663   3.490   1.812   2.950 -0.2542 -0.4207  0.1598
  136OSM    O1114664   3.368   1.937   3.133 -0.0402 -0.3602 -0.2843
  136OSM    O1214665   3.564   1.816   3.197 -0.5105 -0.2225  0.5565
  136OSM    C1S14666   3.353   1.960   3.276 -0.2268  0.6340 -0.3271
  136OSM    H1S14667   3.404   2.055   3.301  1.6715 -0.2259 -0.7503
  136OSM    H1T14668   3.387   1.876   3.340 -1.2793  0.8494  0.5521
  136OSM     NF14669   3.204   1.990   3.465  0.3502  0.2605 -0.0171
  136OSM    HNF14670   3.176   1.907   3.513  0.6581  0.8347  1.1728
  136OSM    C2S14671   3.202   1.979   3.319 -0.0817  0.3963 -1.0008
  136OSM    H2S14672   3.169   2.074   3.273 -2.3067 -0.7244 -1.8647
  136OSM    C3S14673   3.100   1.879   3.247 -0.2663  0.4107 -0.0169
  136OSM    H3S14674   3.117   1.774   3.278 -0.4378  0.5911  0.6979
  136OSM     O314675   3.103   1.877   3.104  0.3852 -0.0036 -0.4306
  136OSM    HO314676   3.186   1.922   3.092 -0.7005  2.1244 -0.4363
  136OSM    C4S14677   2.963   1.906   3.292  0.3630 -0.1409 -0.9800
  136OSM    H4S14678   2.936   2.010   3.267  2.0460  0.4271 -0.5634
  136OSM    C5S14679   2.873   1.829   3.361 -0.1489 -0.5933 -0.0675
  136OSM    H5S14680   2.895   1.724   3.387 -0.6314 -0.6309  0.1854
  136OSM    C6S14681   2.733   1.862   3.392  0.2001  1.0676 -0.1163
  136OSM    H6S14682   2.674   1.780   3.347 -0.8992  1.9522 -0.3394
  136OSM    H6T14683   2.699   1.951   3.335  0.0458  1.5467  0.6972
  136OSM    C7S14684   2.697   1.884   3.546 -0.6762  0.2787  0.0793
  136OSM    H7S14685   2.592   1.918   3.556 -0.4053  0.7394  1.5120
  136OSM    H7T14686   2.752   1.965   3.597  0.0037 -0.0320 -0.1418
  136OSM    C8S14687   2.706   1.760   3.633 -0.0470 -0.3632 -0.1411
  136OSM    H8S14688   2.808   1.715   3.639  0.4997  0.7635 -0.6852
  136OSM    H8T14689   2.638   1.681   3.595  1.6808 -1.8605 -0.2541
  136OSM    C9S14690   2.630   1.773   3.770 -0.5610  0.9334  0.6632
  136OSM    H9S14691   2.523   1.751   3.746 -0.1824 -0.3193  0.0455
  136OSM    H9T14692   2.641   1.874   3.815 -2.5166  1.8856 -0.8234
  136OSM   C10S14693   2.686   1.664   3.861  0.4159  0.0806  0.0487
  136OSM   H10S14694   2.786   1.701   3.891  0.4920  0.4855 -0.7044
  136OSM   H10T14695   2.695   1.572   3.800  0.3129  0.5878 -0.7487
  136OSM   C11S14696   2.603   1.640   3.990  0.0390 -0.3661  0.3180
  136OSM   H11S14697   2.502   1.597   3.972  1.1026 -2.0373 -2.1168
  136OSM   H11T14698   2.581   1.739   4.037 -0.8192 -1.0798  1.4677
  136OSM   C12S14699   2.680   1.553   4.091  0.0552 -0.3204  1.2658
  136OSM   H12S14700   2.787   1.580   4.106  0.3916 -0.5499 -0.4243
  136OSM   H12T14701   2.675   1.444   4.071 -0.2007  0.2183 -2.2767
  136OSM   C13S14702   2.615   1.566   4.234  0.9524  0.1915 -1.2067
  136OSM   H13S14703   2.514   1.522   4.224  0.1442  0.7395  2.9936
  136OSM   H13T14704   2.611   1.675   4.257 -0.7366  0.0763 -0.8417
  136OSM   C14S14705   2.685   1.489   4.335 -0.4715  0.9951 -0.7878
  136OSM   H14S14706   2.785   1.535   4.353 -0.0076 -0.5577  0.9721
  136OSM   H14T14707   2.700   1.385   4.298  1.5966  0.2267  1.8719
  136OSM   C15S14708   2.616   1.499   4.469  0.8640 -0.2656 -0.8388
  136OSM   H15S14709   2.520   1.445   4.455  2.4022 -3.3410 -0.5161
  136OSM   H15T14710   2.589   1.602   4.500 -0.0564 -0.7063 -0.1279
  136OSM   C16S14711   2.694   1.423   4.572  0.1349  0.3134 -0.5984
  136OSM   H16S14712   2.776   1.486   4.612  0.5037 -1.8458  2.4320
  136OSM   H16T14713   2.731   1.332   4.520 -0.5674 -1.1633  1.3414
  136OSM   C17S14714   2.607   1.387   4.692 -0.0030 -0.9016 -0.1596
  136OSM   H17S14715   2.529   1.314   4.664 -1.8514  1.0768 -0.3737
  136OSM   H17T14716   2.548   1.478   4.716 -0.2914 -0.5171 -2.2222
  136OSM   C18S14717   2.694   1.324   4.807 -0.2071  0.3429  0.3516
  136OSM   H18S14718   2.703   1.215   4.787 -1.0305  0.0400  1.5411
  136OSM   H18T14719   2.632   1.334   4.898 -0.4256 -0.5453  0.3122
  136OSM   H18U14720   2.793   1.371   4.825 -0.3282  0.4902  0.6450
  136OSM    C1F14721   3.254   2.087   3.543  0.2607  0.6627 -0.4057
  136OSM     OF14722   3.302   2.186   3.488  0.2805 -0.2977 -0.1700
  136OSM    C2F14723   3.253   2.066   3.694 -0.1915 -0.4771  0.4701
  136OSM    H2F14724   3.241   2.172   3.726  1.4740  0.2615 -1.1469
  136OSM    H2G14725   3.356   2.037   3.726  0.3321  1.4374  0.6604
  136OSM    C3F14726   3.145   1.968   3.748  0.1385 -0.4960 -0.1427
  136OSM    H3F14727   3.159   1.872   3.692  1.3302  0.0444 -0.8109
  136OSM    H3G14728   3.043   2.002   3.718  0.9088  0.1752 -2.2177
  136OSM    C4F14729   3.157   1.937   3.894 -0.5238 -0.2075  0.3613
  136OSM    H4F14730   3.242   1.868   3.914  1.1240  2.1466  2.1125
  136OSM    H4G14731   3.066   1.883   3.927 -0.1424 -1.1589 -0.0829
  136OSM    C5F14732   3.170   2.059   3.979 -0.4644 -0.9058 -0.6415
  136OSM    H5F14733   3.102   2.138   3.940 -2.6479 -0.6467  3.1776
  136OSM    H5G14734   3.277   2.089   3.977 -0.4127 -1.0335  0.1154
  136OSM    C6F14735   3.138   2.042   4.121  0.0024  0.6162 -0.1189
  136OSM    H6F14736   3.201   1.977   4.185 -0.1315  1.4418  0.8944
  136OSM    H6G14737   3.037   1.994   4.118  1.5554 -2.8649 -1.4117
  136OSM    C7F14738   3.126   2.181   4.192  0.3387 -0.1594  0.2502
  136OSM    H7F14739   3.064   2.247   4.129  0.9548  0.2773  0.0888
  136OSM    H7G14740   3.227   2.228   4.199  2.3433 -4.1182  1.0599
  136OSM    C8F14741   3.050   2.190   4.325  0.4923  0.4333 -0.1331
  136OSM    H8F14742   2.958   2.130   4.318  1.8523 -1.7098 -0.5416
  136OSM    H8G14743   3.012   2.292   4.348 -3.1651 -1.2355  1.9194
  136OSM    C9F14744   3.153   2.150   4.434  0.6800 -0.3958 -0.3768
  136OSM    H9F14745   3.224   2.068   4.415  0.1530 -0.4942 -2.1108
  136OSM   C10F14746   3.189   2.215   4.546 -0.2302 -0.2545  0.2639
  136OSM   H10F14747   3.259   2.168   4.617 -1.4478  0.3493  1.9314
  136OSM   C11F14748   3.142   2.352   4.583 -0.1511 -0.2098 -1.1026
  136OSM   H11F14749   3.032   2.352   4.567 -0.2447  1.5478 -0.6812
  136OSM   H11G14750   3.176   2.431   4.512  2.2738  1.6494  1.8793
  136OSM   C12F14751   3.171   2.391   4.734  0.2025  0.4801 -0.2795
  136OSM   H12F14752   3.146   2.498   4.749  3.5552  1.4215 -0.5554
  136OSM   H12G14753   3.280   2.395   4.757  0.5496 -0.8236 -1.5667
  136OSM   C13F14754   3.096   2.300   4.829 -0.1913  0.2577  0.2894
  136OSM   H13F14755   3.139   2.198   4.826 -2.2204 -0.6500  0.4768
  136OSM   H13G14756   2.992   2.275   4.801 -0.2137 -0.2843  0.8490
  136OSM   C14F14757   3.100   2.339   4.977 -0.0845  0.4044 -1.1218
  136OSM   H14F14758   3.022   2.417   4.994 -0.2122  0.0069  0.2767
  136OSM   H14G14759   3.201   2.372   5.008 -0.4343 -1.7785  3.2324
  136OSM   C15F14760   3.065   2.226   5.076  0.3796 -0.1758  0.0281
  136OSM   H15F14761   3.097   2.266   5.175 -0.6180  1.8744 -0.4431
  136OSM   H15G14762   3.131   2.138   5.061  0.9292  0.1702  0.3526
  136OSM   C16F14763   2.916   2.187   5.091 -0.5562 -0.0006 -0.0807
  136OSM   H16F14764   2.912   2.099   5.159  0.6875  1.2212  1.6513
  136OSM   H16G14765   2.902   2.150   4.987  0.8560  0.2393 -0.3686
  136OSM   C17F14766   2.811   2.304   5.120 -0.6114 -0.0677  0.0175
  136OSM   H17F14767   2.822   2.369   5.030  1.2081  1.5020  1.2943
  136OSM   H17G14768   2.849   2.370   5.201 -1.2820 -1.0181  1.1427
  136OSM   C18F14769   2.669   2.272   5.146 -0.5691  0.8213  0.8913
  136OSM   H18F14770   2.658   2.252   5.255 -1.4852  0.2282  0.7012
  136OSM   H18G14771   2.652   2.173   5.099  2.1111  2.2160 -3.6117
  136OSM   H18H14772   2.591   2.340   5.105 -1.4000 -0.7069 -0.1532
  137OSM      N14773   5.154   5.158   3.115 -0.2885 -0.5611 -1.1343
  137OSM    C1514774   5.097   5.032   3.173 -0.0973 -0.4429 -0.1649
  137OSM   H15A14775   5.179   4.972   3.210  0.2195 -0.9328 -1.5983
  137OSM   H15B14776   5.032   4.980   3.105  0.5486 -0.5431 -0.7196
  137OSM   H15C14777   5.044   5.059   3.263  0.8954 -0.5603  0.4671
  137OSM    C1414778   5.273   5.214   3.194  0.0682  0.8061  0.4490
  137OSM   H14A14779   5.245   5.278   3.276 -1.1000 -1.7962  2.2095
  137OSM   H14B14780   5.333   5.274   3.127 -0.3974  0.0612 -0.6573
  137OSM   H14C14781   5.340   5.134   3.221 -1.5105 -1.2387 -1.3162
  137OSM    C1314782   5.190   5.130   2.971 -0.2950 -0.0868  0.0061
  137OSM   H13A14783   5.095   5.096   2.932 -0.9633 -0.4571  1.8363
  137OSM   H13B14784   5.264   5.052   2.958  1.3307  1.2733  0.7030
  137OSM   H13C14785   5.215   5.221   2.920 -2.7807  1.4471  1.3141
  137OSM    C1214786   5.049   5.272   3.112  0.2485 -0.5721 -0.1528
  137OSM   H12A14787   4.956   5.242   3.066  0.0486  0.5868 -0.5517
  137OSM   H12B14788   5.091   5.350   3.049 -1.8943 -1.1107 -2.4063
  137OSM    C1114789   5.011   5.340   3.247 -1.2703 -0.1739 -0.3281
  137OSM   H11A14790   4.985   5.265   3.324  1.9931 -1.8612 -0.7093
  137OSM   H11B14791   4.914   5.393   3.232 -1.1512  0.6460  1.5354
  137OSM      P14792   5.113   5.585   3.229 -0.3961  0.5293 -0.4794
  137OSM    O1314793   5.232   5.653   3.295  1.1005  0.3319  1.5406
  137OSM    O1414794   5.112   5.586   3.078  0.7750 -0.3954 -0.0595
  137OSM    O1114795   4.976   5.641   3.288 -0.1036  0.1108 -0.1357
  137OSM    O1214796   5.114   5.432   3.285  0.2336 -0.0247 -0.4186
  137OSM    C1S14797   4.960   5.664   3.430 -0.2123  0.0829 -0.3496
  137OSM    H1S14798   5.034   5.735   3.473  0.3466 -0.3530 -0.5740
  137OSM    H1T14799   4.974   5.563   3.475  0.3187  0.0267 -0.6224
  137OSM     NF14800   4.810   5.691   3.616  0.8464 -0.3750  0.6709
  137OSM    HNF14801   4.772   5.603   3.644  1.1836 -0.9886 -0.6622
  137OSM    C2S14802   4.815   5.714   3.470  0.5918  0.6202 -0.4218
  137OSM    H2S14803   4.792   5.821   3.450 -0.9473  0.6496  1.2068
  137OSM    C3S14804   4.705   5.640   3.391  0.2429  0.2588  0.3109
  137OSM    H3S14805   4.713   5.530   3.400  0.3844  0.2594  0.1900
  137OSM     O314806   4.711   5.653   3.250 -0.1519 -0.3350  0.2455
  137OSM    HO314807   4.806   5.643   3.241 -0.2897  0.0402 -2.2200
  137OSM    C4S14808   4.570   5.655   3.452 -0.1684  0.4518 -0.3441
  137OSM    H4S14809   4.537   5.561   3.500 -0.2557 -0.6080 -2.3571
  137OSM    C5S14810   4.491   5.761   3.429 -0.5190 -0.1650 -0.2636
  137OSM    H5S14811   4.527   5.849   3.375  3.1290 -2.1350 -1.4048
  137OSM    C6S14812   4.344   5.753   3.466  0.1607  0.4421  0.0629
  137OSM    H6S14813   4.287   5.714   3.379 -1.2307 -2.6957  2.2055
  137OSM    H6T14814   4.304   5.855   3.482  0.8061  1.0022 -1.6091
  137OSM    C7S14815   4.300   5.659   3.583  0.1823  0.1232  0.0098
  137OSM    H7S14816   4.323   5.554   3.556  1.4646  0.7182 -1.3972
  137OSM    H7T14817   4.190   5.673   3.579  0.2587  0.4332 -1.9667
  137OSM    C8S14818   4.344   5.700   3.726 -0.0732  0.4329 -0.2324
  137OSM    H8S14819   4.301   5.800   3.748  2.0685  1.7027 -1.4727
  137OSM    H8T14820   4.453   5.723   3.723 -0.2407  2.8703  4.2978
  137OSM    C9S14821   4.324   5.577   3.823  0.1931 -0.2612 -0.4477
  137OSM    H9S14822   4.372   5.488   3.777  2.0078  0.4982 -0.1495
  137OSM    H9T14823   4.213   5.575   3.827  0.1059  1.0140 -1.4286
  137OSM   C10S14824   4.379   5.603   3.966 -0.6022 -0.6298 -0.2227
  137OSM   H10S14825   4.331   5.694   4.009 -3.1812 -2.2363  0.4976
  137OSM   H10T14826   4.490   5.615   3.962 -0.6285 -0.4598 -0.4949
  137OSM   C11S14827   4.344   5.491   4.064 -0.0515 -0.6020 -0.0806
  137OSM   H11S14828   4.381   5.394   4.023  0.7384 -0.1525 -0.4628
  137OSM   H11T14829   4.233   5.487   4.062 -0.2039  2.1779 -0.8661
  137OSM   C12S14830   4.379   5.526   4.205 -0.0663  0.6488 -0.2341
  137OSM   H12S14831   4.309   5.608   4.231 -0.2049  0.8726 -1.2572
  137OSM   H12T14832   4.484   5.563   4.204 -0.0022  0.5702  1.4973
  137OSM   C13S14833   4.378   5.411   4.301 -0.4982 -0.2038  0.0958
  137OSM   H13S14834   4.441   5.324   4.272  2.0146  0.8444  2.0705
  137OSM   H13T14835   4.276   5.368   4.306 -0.8547  0.3718 -1.5836
  137OSM   C14S14836   4.428   5.438   4.444  0.0770 -0.2082  0.2972
  137OSM   H14S14837   4.420   5.548   4.461 -0.2589 -0.4052  1.5631
  137OSM   H14T14838   4.535   5.411   4.455 -0.5785 -3.2118  0.0644
  137OSM   C15S14839   4.348   5.360   4.546 -0.6892 -0.2040  0.8734
  137OSM   H15S14840   4.372   5.254   4.522 -0.0483  0.0577  0.3363
  137OSM   H15T14841   4.240   5.372   4.524 -0.1563  2.4459 -0.7443
  137OSM   C16S14842   4.385   5.399   4.680  0.5013  0.1185 -0.7744
  137OSM   H16S14843   4.363   5.505   4.702  0.0395 -0.5009  2.3632
  137OSM   H16T14844   4.493   5.385   4.704  0.1443 -1.4998  0.0553
  137OSM   C17S14845   4.307   5.323   4.790 -0.1137 -0.1093  0.4114
  137OSM   H17S14846   4.301   5.212   4.784  0.0202 -0.3780  3.7104
  137OSM   H17T14847   4.201   5.348   4.768  0.1018 -0.0811 -0.6962
  137OSM   C18S14848   4.351   5.374   4.930  0.3154  0.1030 -0.2636
  137OSM   H18S14849   4.460   5.353   4.939 -0.1813 -2.7364  0.0180
  137OSM   H18T14850   4.287   5.332   5.011  0.2357 -0.9784 -0.8684
  137OSM   H18U14851   4.341   5.485   4.927 -1.7087 -0.0558 -0.8523
  137OSM    C1F14852   4.870   5.770   3.705 -0.4599  0.0312  0.0509
  137OSM     OF14853   4.947   5.859   3.666 -0.0369  0.1544 -0.5344
  137OSM    C2F14854   4.840   5.751   3.848 -0.6180  0.4969  0.5931
  137OSM    H2F14855   4.888   5.655   3.880 -0.4702  0.7169  1.0317
  137OSM    H2G14856   4.729   5.747   3.857 -0.6411  0.9618  0.5061
  137OSM    C3F14857   4.894   5.868   3.937  0.0293  0.9190 -0.5037
  137OSM    H3F14858   4.835   5.962   3.936  0.3004  1.1131 -2.3532
  137OSM    H3G14859   4.992   5.896   3.891 -0.5907  1.2518 -1.6734
  137OSM    C4F14860   4.918   5.830   4.085 -0.0531  0.3172  0.3313
  137OSM    H4F14861   4.989   5.745   4.082  1.7358  1.7963 -1.6513
  137OSM    H4G14862   4.823   5.791   4.129  0.1455 -0.6468 -0.0576
  137OSM    C5F14863   4.978   5.954   4.155  0.2406  0.2286 -0.6169
  137OSM    H5F14864   4.914   6.044   4.142  1.6751  1.3199 -0.4376
  137OSM    H5G14865   5.069   5.976   4.095  0.9675 -3.5744 -1.1549
  137OSM    C6F14866   5.035   5.943   4.297  0.1873 -0.6842  0.0710
  137OSM    H6F14867   4.957   5.920   4.373 -0.0459  1.6147  0.5786
  137OSM    H6G14868   5.081   6.042   4.317  1.2974 -1.0594 -0.5257
  137OSM    C7F14869   5.141   5.836   4.318 -0.2453  0.5218  0.2905
  137OSM    H7F14870   5.233   5.862   4.261 -0.4829  0.3155 -0.2010
  137OSM    H7G14871   5.103   5.745   4.267 -0.0605 -0.7004  2.2612
  137OSM    C8F14872   5.169   5.812   4.465 -0.1668  0.9083  0.5097
  137OSM    H8F14873   5.240   5.727   4.475  0.4209  1.5656  2.2717
  137OSM    H8G14874   5.067   5.790   4.503  0.1054  0.0412  0.7535
  137OSM    C9F14875   5.231   5.930   4.535 -0.0615  0.5555  0.1733
  137OSM    H9F14876   5.333   5.955   4.501 -0.4595  1.2615 -0.5146
  137OSM   C10F14877   5.189   5.996   4.644 -0.2864  0.0911 -0.2932
  137OSM   H10F14878   5.251   6.085   4.663 -1.6078  0.9873 -0.0812
  137OSM   C11F14879   5.075   5.976   4.727 -0.0841 -0.2689  0.5041
  137OSM   H11F14880   5.011   5.904   4.671 -1.5385  2.9011 -2.2166
  137OSM   H11G14881   5.008   6.064   4.722  1.0420  0.5688 -2.1460
  137OSM   C12F14882   5.115   5.933   4.867 -0.2557 -0.0936  0.1384
  137OSM   H12F14883   5.025   5.946   4.930 -0.8230  0.7840 -0.8333
  137OSM   H12G14884   5.198   5.994   4.909  0.8326 -1.3548 -0.1133
  137OSM   C13F14885   5.164   5.785   4.874  0.6371  0.9684  0.1879
  137OSM   H13F14886   5.234   5.765   4.790  0.7181 -0.4346  0.5714
  137OSM   H13G14887   5.076   5.720   4.854  1.0004  0.7221 -0.6404
  137OSM   C14F14888   5.245   5.742   4.993  0.0922  0.0537  0.2109
  137OSM   H14F14889   5.168   5.748   5.073 -0.4023  0.2429 -0.2705
  137OSM   H14G14890   5.326   5.816   5.009  1.6662 -1.6002  0.1047
  137OSM   C15F14891   5.297   5.604   4.981  0.1555  0.3224 -0.6336
  137OSM   H15F14892   5.387   5.616   4.917  1.3158  0.6677  1.0193
  137OSM   H15G14893   5.211   5.555   4.930 -0.1325  0.3261 -0.1489
  137OSM   C16F14894   5.345   5.533   5.107  0.1203 -0.6445 -0.1961
  137OSM   H16F14895   5.447   5.561   5.141 -0.9192 -0.0030  2.6663
  137OSM   H16G14896   5.365   5.426   5.085  1.0941 -0.6600  0.6410
  137OSM   C17F14897   5.251   5.534   5.226 -0.1142 -0.5775 -0.4384
  137OSM   H17F14898   5.231   5.638   5.258 -1.0448 -0.8043 -0.2615
  137OSM   H17G14899   5.307   5.485   5.309  0.5121  0.8687  0.0313
  137OSM   C18F14900   5.131   5.451   5.193  0.5229 -0.2947 -0.8434
  137OSM   H18F14901   5.150   5.342   5.203 -0.9313 -0.3869  1.9742
  137OSM   H18G14902   5.081   5.469   5.096 -2.2193  1.8512  0.7992
  137OSM   H18H14903   5.056   5.459   5.276  2.5708 -0.4962  1.1247
  138OSM      N14904   6.326   0.770   3.040  0.4518  0.3558  0.6390
  138OSM    C1514905   6.408   0.736   3.158  0.9103  1.6928 -0.1224
  138OSM   H15A14906   6.438   0.633   3.147 -1.0064  1.1065 -0.2490
  138OSM   H15B14907   6.357   0.736   3.253  0.9094  1.3080 -0.1215
  138OSM   H15C14908   6.503   0.789   3.158  1.8229  0.1241  0.8782
  138OSM    C1414909   6.400   0.726   2.923 -0.2704  0.3819 -0.1924
  138OSM   H14A14910   6.345   0.736   2.830 -1.6936 -1.6498  0.3540
  138OSM   H14B14911   6.419   0.620   2.930 -0.3963  0.4369  1.4905
  138OSM   H14C14912   6.496   0.774   2.915 -0.0711 -0.1101 -0.8438
  138OSM    C1314913   6.193   0.709   3.042  0.0108  0.3493  0.0360
  138OSM   H13A14914   6.132   0.761   3.114  1.5217  0.0537  1.6023
  138OSM   H13B14915   6.191   0.604   3.064 -1.8281  0.2581 -0.4531
  138OSM   H13C14916   6.140   0.708   2.948 -1.4972  0.9738  0.8359
  138OSM    C1214917   6.313   0.914   3.035  0.3897  0.5421 -0.4728
  138OSM   H12A14918   6.265   0.942   2.942  0.7950  1.3365 -0.4530
  138OSM   H12B14919   6.413   0.955   3.034  0.6676 -0.1189 -1.2010
  138OSM    C1114920   6.238   0.987   3.149  0.5468  0.0869 -0.1953
  138OSM   H11A14921   6.263   1.095   3.144  0.6830  0.1118  0.7609
  138OSM   H11B14922   6.275   0.956   3.250 -1.3283 -0.3086  0.4042
  138OSM      P14923   5.999   1.068   3.088 -0.0255  0.3022  0.5121
  138OSM    O1314924   6.061   1.128   2.967 -0.0001 -0.9313  0.5273
  138OSM    O1414925   5.869   0.995   3.082  0.1750 -0.1359  0.5469
  138OSM    O1114926   5.982   1.176   3.203 -0.1990  0.2869  0.1205
  138OSM    O1214927   6.095   0.959   3.147  0.2642  0.0980 -0.5068
  138OSM    C1S14928   5.884   1.162   3.311  0.6421  0.2689 -0.9792
  138OSM    H1S14929   5.804   1.089   3.288  0.7885 -1.0023  2.0016
  138OSM    H1T14930   5.830   1.256   3.338  1.5043  0.5449 -0.1232
  138OSM     NF14931   5.859   1.079   3.551 -0.5456  0.0638  0.2639
  138OSM    HNF14932   5.861   1.136   3.633  0.6502 -0.9418  0.9836
  138OSM    C2S14933   5.957   1.110   3.446 -0.2620 -0.7065  0.7626
  138OSM    H2S14934   6.009   1.014   3.427 -0.7239 -0.6452 -1.0279
  138OSM    C3S14935   6.060   1.211   3.482 -0.0893 -0.0623  0.0517
  138OSM    H3S14936   6.010   1.310   3.481  1.1884  0.6084 -0.5444
  138OSM     O314937   6.157   1.237   3.378 -0.5916  0.0636  0.1892
  138OSM    HO314938   6.114   1.206   3.298 -0.5699  0.0039  0.2005
  138OSM    C4S14939   6.131   1.173   3.611  0.0204 -0.0434 -0.6269
  138OSM    H4S14940   6.087   1.221   3.701  0.7309  1.3046 -0.9713
  138OSM    C5S14941   6.239   1.096   3.626  0.3361 -0.0327  0.2540
  138OSM    H5S14942   6.297   1.055   3.543 -0.7742  0.0585 -0.5853
  138OSM    C6S14943   6.300   1.058   3.762  0.3205  1.0532 -0.0634
  138OSM    H6S14944   6.401   1.013   3.750  0.2632  0.1811  2.1618
  138OSM    H6T14945   6.239   0.980   3.812  2.4592 -1.1143 -0.6277
  138OSM    C7S14946   6.322   1.175   3.856 -0.8101  0.3951  0.4552
  138OSM    H7S14947   6.225   1.228   3.864 -0.2051  1.5428  0.4784
  138OSM    H7T14948   6.366   1.263   3.804  0.0901  1.1100  2.3417
  138OSM    C8S14949   6.393   1.131   3.985  0.0266 -0.0987 -0.7467
  138OSM    H8S14950   6.440   1.219   4.034  2.8274 -1.7635 -0.2156
  138OSM    H8T14951   6.481   1.068   3.961 -0.8845 -1.8129  0.2438
  138OSM    C9S14952   6.301   1.056   4.079  0.0838 -0.7744 -0.3126
  138OSM    H9S14953   6.249   0.974   4.025 -3.3991  1.0275  0.0386
  138OSM    H9T14954   6.213   1.124   4.089  1.7844  1.3019  1.7367
  138OSM   C10S14955   6.355   1.019   4.216 -0.1525  0.1107 -0.0060
  138OSM   H10S14956   6.403   1.106   4.267  0.0701 -0.7079  1.2276
  138OSM   H10T14957   6.428   0.936   4.203  1.0421  0.8462  1.5607
  138OSM   C11S14958   6.240   0.979   4.309 -1.2592 -0.0550 -0.5977
  138OSM   H11S14959   6.198   0.879   4.288 -1.1885 -0.0055 -0.9862
  138OSM   H11T14960   6.160   1.056   4.307  1.3270  2.8430 -0.1063
  138OSM   C12S14961   6.301   0.973   4.450  0.6205 -0.0369  0.5586
  138OSM   H12S14962   6.333   1.076   4.478 -2.3255  1.3268 -0.7520
  138OSM   H12T14963   6.390   0.906   4.449  1.0113  0.4794 -0.1922
  138OSM   C13S14964   6.201   0.921   4.552 -0.5792 -0.7911 -0.0957
  138OSM   H13S14965   6.170   0.815   4.545  0.5857 -1.2496  1.1391
  138OSM   H13T14966   6.103   0.972   4.556 -1.0460 -1.5518 -1.3062
  138OSM   C14S14967   6.261   0.939   4.691 -0.3639  0.1692  0.3247
  138OSM   H14S14968   6.296   1.043   4.701  1.3858  0.0155 -2.9742
  138OSM   H14T14969   6.350   0.875   4.711 -1.3991 -1.5820 -0.4331
  138OSM   C15S14970   6.150   0.900   4.784  0.6248  0.0068  0.5770
  138OSM   H15S14971   6.111   0.799   4.762  1.3808 -0.4777  1.4108
  138OSM   H15T14972   6.057   0.957   4.766  1.0808  0.9916  1.2242
  138OSM   C16S14973   6.192   0.914   4.934 -0.2790  0.0964 -0.3530
  138OSM   H16S14974   6.207   1.024   4.940  3.7624 -0.3660  1.0640
  138OSM   H16T14975   6.288   0.862   4.947 -0.5175 -0.7101 -1.7015
  138OSM   C17S14976   6.087   0.864   5.027  0.6442  0.4550  0.3033
  138OSM   H17S14977   6.080   0.754   5.014 -0.5365  0.4912  0.5073
  138OSM   H17T14978   5.989   0.909   5.001  1.5752  0.9755 -2.7928
  138OSM   C18S14979   6.101   0.882   5.171  0.1926  0.1948 -0.5112
  138OSM   H18S14980   6.079   0.987   5.200 -0.8946  0.2987 -1.6066
  138OSM   H18T14981   6.198   0.848   5.213 -0.3745 -0.1246  0.5641
  138OSM   H18U14982   6.021   0.818   5.215  1.7647 -1.0950  0.5844
  138OSM    C1F14983   5.774   0.977   3.530 -0.3083 -0.3723  0.2250
  138OSM     OF14984   5.788   0.895   3.439  0.5038  0.2494  0.2636
  138OSM    C2F14985   5.650   0.979   3.628 -0.4464  0.9009  0.4782
  138OSM    H2F14986   5.565   0.932   3.574  1.1685  1.1983 -2.5153
  138OSM    H2G14987   5.637   1.087   3.651  1.1991  0.9590  1.3130
  138OSM    C3F14988   5.680   0.900   3.761  0.1145  0.0814  0.4003
  138OSM    H3F14989   5.774   0.924   3.816 -0.7613 -0.7098  2.3423
  138OSM    H3G14990   5.688   0.790   3.746 -0.5494 -0.0387  0.8912
  138OSM    C4F14991   5.565   0.934   3.858  0.0227  0.0385 -0.4420
  138OSM    H4F14992   5.474   0.887   3.815 -0.0111 -1.8775  1.5620
  138OSM    H4G14993   5.552   1.044   3.864 -0.6408 -0.0648  0.2063
  138OSM    C5F14994   5.576   0.873   3.995  0.8917 -0.3799 -0.5950
  138OSM    H5F14995   5.664   0.914   4.047 -0.0856 -0.5682  1.2935
  138OSM    H5G14996   5.602   0.767   3.975 -1.2554 -1.3000  1.0425
  138OSM    C6F14997   5.467   0.892   4.091  0.5397 -0.6509  0.6877
  138OSM    H6F14998   5.493   0.840   4.185  0.5721 -1.9019  0.0102
  138OSM    H6G14999   5.377   0.848   4.043 -0.6173  0.7333  1.5311
  138OSM    C7F15000   5.435   1.037   4.119 -0.6099  0.0721 -0.0209
  138OSM    H7F15001   5.380   1.086   4.035  1.2527  1.9163 -0.2593
  138OSM    H7G15002   5.530   1.094   4.120 -0.2070 -0.5806 -0.5437
  138OSM    C8F15003   5.369   1.051   4.262  0.2574 -0.5277 -0.3612
  138OSM    H8F15004   5.286   0.977   4.271 -0.1012 -0.3073 -1.6106
  138OSM    H8G15005   5.322   1.152   4.261  2.2327  0.4537  0.1623
  138OSM    C9F15006   5.468   1.031   4.377 -0.7380  0.3108 -0.0286
  138OSM    H9F15007   5.567   0.999   4.341 -0.9079 -0.7994  0.4505
  138OSM   C10F15008   5.444   1.035   4.510  0.1416 -0.2985 -0.0029
  138OSM   H10F15009   5.527   1.027   4.581  0.2342  0.4451 -0.0191
  138OSM   C11F15010   5.308   1.067   4.569 -0.4580 -0.7635  0.5360
  138OSM   H11F15011   5.230   1.026   4.501  0.9071 -2.2020 -0.2383
  138OSM   H11G15012   5.295   1.177   4.564 -1.3836 -0.8887 -0.1224
  138OSM   C12F15013   5.281   1.010   4.706 -0.2609  0.3195 -0.0203
  138OSM   H12F15014   5.365   1.006   4.778 -0.0981 -1.9140 -0.2676
  138OSM   H12G15015   5.263   0.901   4.704 -0.5423  0.3274  1.1835
  138OSM   C13F15016   5.183   1.079   4.803 -0.2781 -0.0696 -0.4695
  138OSM   H13F15017   5.135   1.007   4.874 -0.2892 -0.0612 -0.4681
  138OSM   H13G15018   5.094   1.112   4.745 -0.2781 -0.4930 -0.7122
  138OSM   C14F15019   5.238   1.201   4.875  1.0690 -0.3492  0.8117
  138OSM   H14F15020   5.290   1.265   4.801 -0.2149  1.5744  1.4859
  138OSM   H14G15021   5.323   1.173   4.941  0.1326 -0.4047  2.0364
  138OSM   C15F15022   5.126   1.272   4.953 -0.2019  0.3073 -0.7412
  138OSM   H15F15023   5.078   1.195   5.017 -2.0297  0.7084 -1.5694
  138OSM   H15G15024   5.034   1.298   4.896 -1.4409 -0.0164  0.9994
  138OSM   C16F15025   5.180   1.372   5.049  0.0824 -0.0403 -0.0330
  138OSM   H16F15026   5.275   1.339   5.098 -1.4980 -0.8232  2.7541
  138OSM   H16G15027   5.102   1.375   5.128  0.0497 -0.0667 -0.0645
  138OSM   C17F15028   5.193   1.518   5.004  0.2618 -0.3141  0.0774
  138OSM   H17F15029   5.097   1.557   4.963 -1.0367 -3.3038 -0.0010
  138OSM   H17G15030   5.266   1.527   4.920 -0.5581 -0.1486 -0.6387
  138OSM   C18F15031   5.247   1.611   5.104 -0.1608  0.1845 -0.5711
  138OSM   H18F15032   5.246   1.719   5.077  1.3960  0.4122  0.1863
  138OSM   H18G15033   5.349   1.572   5.122  1.6425  3.1022 -3.4325
  138OSM   H18H15034   5.197   1.612   5.203  0.0077  0.1081 -0.4855
  139OSM      N15035   6.171   4.077   3.228 -1.4964 -0.1520  0.4635
  139OSM    C1515036   6.188   4.188   3.125 -0.0347  0.1170  0.5033
  139OSM   H15A15037   6.177   4.159   3.022 -2.0378 -2.6573  1.3674
  139OSM   H15B15038   6.293   4.211   3.127 -0.1039  0.4022  1.1473
  139OSM   H15C15039   6.126   4.274   3.145  1.1720  1.1855 -0.1998
  139OSM    C1415040   6.209   4.135   3.362 -0.5452 -0.5276  0.3624
  139OSM   H14A15041   6.212   4.059   3.439 -0.6862 -0.9927 -0.0917
  139OSM   H14B15042   6.147   4.220   3.383  0.4921  0.5281 -0.6697
  139OSM   H14C15043   6.310   4.169   3.346 -0.2816 -1.5034 -0.1252
  139OSM    C1315044   6.029   4.039   3.239 -0.1758 -0.2657  0.0456
  139OSM   H13A15045   5.958   4.120   3.249  0.0355  0.0266 -0.7955
  139OSM   H13B15046   6.019   3.977   3.327 -1.3911 -1.7508 -1.0885
  139OSM   H13C15047   6.002   3.984   3.150  0.6713 -1.3599  0.4420
  139OSM    C1215048   6.253   3.961   3.185  0.1656 -0.3446  0.0279
  139OSM   H12A15049   6.236   3.953   3.078  1.5258 -0.7068 -0.1784
  139OSM   H12B15050   6.213   3.870   3.228  1.8444 -0.3550  1.6651
  139OSM    C1115051   6.404   3.958   3.200  0.3722 -0.1924 -0.5089
  139OSM   H11A15052   6.443   3.855   3.185  0.9315 -0.1381  0.4654
  139OSM   H11B15053   6.426   3.984   3.306  0.0947 -2.9382  0.2916
  139OSM      P15054   6.606   4.118   3.148 -0.3870 -0.2979  0.1298
  139OSM    O1315055   6.696   4.130   3.027  0.1459  0.2330 -0.1035
  139OSM    O1415056   6.573   4.248   3.216 -0.0420 -0.1176  0.2588
  139OSM    O1115057   6.673   4.015   3.247 -0.3433 -0.3194 -0.1676
  139OSM    O1215058   6.471   4.045   3.107  0.1677 -0.5901 -0.1978
  139OSM    C1S15059   6.789   4.051   3.314  0.5623  0.6157 -0.4062
  139OSM    H1S15060   6.770   4.138   3.380 -0.3436  0.2144 -0.1219
  139OSM    H1T15061   6.865   4.089   3.242  0.6204  2.2513  0.4619
  139OSM     NF15062   6.928   3.979   3.520 -0.2581  0.4503  0.1586
  139OSM    HNF15063   7.025   3.987   3.497  0.0623 -2.8094 -0.1501
  139OSM    C2S15064   6.831   3.940   3.422 -0.3914  0.0672 -0.2545
  139OSM    H2S15065   6.739   3.909   3.476 -0.9641  1.2918 -0.4968
  139OSM    C3S15066   6.888   3.815   3.346  0.8118 -0.6089 -0.8068
  139OSM    H3S15067   6.990   3.842   3.310  0.4188 -0.8964 -2.2005
  139OSM     O315068   6.806   3.778   3.235 -0.5079 -0.0602  0.4727
  139OSM    HO315069   6.740   3.848   3.230 -0.7290 -0.3150 -2.6441
  139OSM    C4S15070   6.908   3.702   3.445 -0.2888  0.0731 -0.4055
  139OSM    H4S15071   6.995   3.705   3.512 -1.0579 -1.3044  0.7130
  139OSM    C5S15072   6.842   3.592   3.471  0.0140  0.2238 -0.0470
  139OSM    H5S15073   6.756   3.558   3.412 -0.5661  0.2457  0.7687
  139OSM    C6S15074   6.890   3.498   3.577  0.1330  0.5230 -0.7555
  139OSM    H6S15075   6.940   3.408   3.535 -1.8376 -0.5367 -0.9447
  139OSM    H6T15076   6.801   3.455   3.629  1.5346 -1.8856 -0.1971
  139OSM    C7S15077   6.973   3.559   3.693 -0.0468  0.3578  0.1406
  139OSM    H7S15078   6.912   3.641   3.738  0.5110  0.4925  0.6660
  139OSM    H7T15079   7.069   3.605   3.661  1.1633 -2.3425 -0.3891
  139OSM    C8S15080   7.010   3.444   3.788 -0.4798  0.6786 -0.4277
  139OSM    H8S15081   7.068   3.367   3.733 -1.8832  0.3148 -1.4619
  139OSM    H8T15082   6.917   3.390   3.816 -0.8172  1.1589 -0.6095
  139OSM    C9S15083   7.093   3.488   3.917  0.3095  0.1543  0.6681
  139OSM    H9S15084   7.047   3.570   3.976  1.2445  0.3424  1.1658
  139OSM    H9T15085   7.197   3.512   3.886  0.2218  0.2242  0.4291
  139OSM   C10S15086   7.088   3.379   4.028 -0.0918 -0.1933 -0.2687
  139OSM   H10S15087   7.117   3.284   3.980  3.2655  0.8583 -0.5858
  139OSM   H10T15088   6.984   3.390   4.066 -0.0435 -0.4350 -0.0689
  139OSM   C11S15089   7.184   3.402   4.141 -0.1446 -1.2103 -0.1575
  139OSM   H11S15090   7.283   3.384   4.095  0.6584  1.6341  0.2289
  139OSM   H11T15091   7.168   3.332   4.225  1.4915 -2.1053 -0.5565
  139OSM   C12S15092   7.185   3.537   4.211  0.6033 -0.8835 -0.7467
  139OSM   H12S15093   7.086   3.559   4.256  1.4363  1.3631  0.1256
  139OSM   H12T15094   7.197   3.628   4.147 -1.9112 -0.2228 -0.4034
  139OSM   C13S15095   7.296   3.535   4.323  0.2743  0.1478  0.7647
  139OSM   H13S15096   7.323   3.643   4.332 -1.0090  0.6822 -1.0538
  139OSM   H13T15097   7.382   3.479   4.281 -0.6432 -0.3177 -0.5667
  139OSM   C14S15098   7.241   3.489   4.459 -0.5704  0.2900  0.0270
  139OSM   H14S15099   7.239   3.378   4.446  0.1628  0.4340 -1.5476
  139OSM   H14T15100   7.142   3.535   4.480 -0.2842  1.2701 -0.7355
  139OSM   C15S15101   7.332   3.524   4.581 -0.3534  0.1256 -1.0132
  139OSM   H15S15102   7.378   3.625   4.582 -2.2375  1.0389  0.8690
  139OSM   H15T15103   7.407   3.441   4.582 -0.3445  0.0262 -3.5477
  139OSM   C16S15104   7.252   3.509   4.716 -0.9202  0.1412  0.9370
  139OSM   H16S15105   7.205   3.409   4.707  2.6457 -1.5838 -0.7988
  139OSM   H16T15106   7.178   3.590   4.732 -0.2445  0.8797  0.3827
  139OSM   C17S15107   7.356   3.504   4.837 -0.7501 -0.5141 -0.3932
  139OSM   H17S15108   7.360   3.610   4.869 -0.8361 -1.2454  2.2493
  139OSM   H17T15109   7.451   3.479   4.785 -0.2152  1.4019 -0.4175
  139OSM   C18S15110   7.324   3.418   4.956  0.3280 -0.0246  0.3161
  139OSM   H18S15111   7.399   3.449   5.031  2.5150  1.5174 -2.3146
  139OSM   H18T15112   7.344   3.313   4.928 -0.2585 -0.0855  0.1070
  139OSM   H18U15113   7.222   3.431   4.999 -0.5498 -1.0829 -1.2996
  139OSM    C1F15114   6.883   4.043   3.630 -0.4731  0.1410 -0.0075
  139OSM     OF15115   6.763   4.061   3.641 -0.7882 -0.7575 -0.2019
  139OSM    C2F15116   6.987   4.076   3.731 -0.6413 -0.0926  0.2541
  139OSM    H2F15117   7.079   4.120   3.689 -0.7215 -0.8014 -0.6946
  139OSM    H2G15118   7.014   3.979   3.778 -0.3644 -1.4253 -2.4473
  139OSM    C3F15119   6.920   4.162   3.845 -0.5937  0.0127  0.0334
  139OSM    H3F15120   6.853   4.103   3.912 -2.0949 -0.5637 -1.8873
  139OSM    H3G15121   6.853   4.235   3.794 -1.5151 -0.7863  0.0762
  139OSM    C4F15122   7.032   4.238   3.922 -0.2752  0.0273  0.1850
  139OSM    H4F15123   6.968   4.300   3.988 -0.1371  0.2721  0.0904
  139OSM    H4G15124   7.096   4.297   3.852 -1.3289  0.6569 -0.2699
  139OSM    C5F15125   7.124   4.141   3.995  0.1937  0.2860  0.0089
  139OSM    H5F15126   7.201   4.200   4.050  1.0494  1.6110 -2.4729
  139OSM    H5G15127   7.181   4.082   3.921  1.2236  0.9350  0.2489
  139OSM    C6F15128   7.049   4.036   4.089  0.1252 -0.2122  0.1894
  139OSM    H6F15129   6.998   3.967   4.019  0.0215  0.2577 -0.2053
  139OSM    H6G15130   6.977   4.090   4.154 -0.4722 -3.0957  2.1052
  139OSM    C7F15131   7.145   3.944   4.173  0.3992  0.0532 -0.0161
  139OSM    H7F15132   7.192   3.896   4.085  1.4663  2.1068 -0.6444
  139OSM    H7G15133   7.079   3.879   4.233 -1.6102 -0.4343 -2.5910
  139OSM    C8F15134   7.255   4.010   4.251 -0.1317  0.7330 -0.6990
  139OSM    H8F15135   7.322   4.055   4.174  0.3130  1.6755  0.2218
  139OSM    H8G15136   7.313   3.932   4.306 -0.8488  0.4737 -0.3017
  139OSM    C9F15137   7.200   4.115   4.344  0.1837 -0.2740  0.1357
  139OSM    H9F15138   7.143   4.194   4.292 -0.0891  0.3115  1.2889
  139OSM   C10F15139   7.220   4.124   4.477 -0.2918 -0.3802  0.0269
  139OSM   H10F15140   7.177   4.213   4.526  0.6271  0.5548 -0.8216
  139OSM   C11F15141   7.296   4.024   4.563 -0.6290  0.3991 -1.3120
  139OSM   H11F15142   7.349   4.077   4.645 -0.5304 -0.4618 -0.8029
  139OSM   H11G15143   7.386   3.979   4.516  0.7781  0.4662  1.1444
  139OSM   C12F15144   7.205   3.920   4.629  0.5211  0.2855  0.0099
  139OSM   H12F15145   7.266   3.836   4.669 -1.1359 -1.7466 -1.5142
  139OSM   H12G15146   7.137   3.875   4.554  0.0748 -0.0629  0.6168
  139OSM   C13F15147   7.112   3.966   4.741 -0.6589  0.2458  0.0164
  139OSM   H13F15148   7.046   3.886   4.782 -0.5092  1.1585  2.1596
  139OSM   H13G15149   7.040   4.038   4.696 -0.9181 -0.7992 -1.3112
  139OSM   C14F15150   7.178   4.030   4.868 -0.0806 -0.2739 -0.2592
  139OSM   H14F15151   7.107   4.103   4.913 -0.1435 -0.4072 -0.1429
  139OSM   H14G15152   7.269   4.087   4.843  1.4540 -1.5555  2.1284
  139OSM   C15F15153   7.235   3.931   4.970  0.0234  1.5677 -0.1723
  139OSM   H15F15154   7.301   3.859   4.917 -2.0711 -0.8676  0.3793
  139OSM   H15G15155   7.138   3.882   4.989 -0.2119  1.7732 -0.8168
  139OSM   C16F15156   7.302   3.998   5.087 -0.0764  0.7311  0.0006
  139OSM   H16F15157   7.222   4.061   5.131 -0.3290  0.3387  0.1074
  139OSM   H16G15158   7.386   4.068   5.070  0.1539  0.6188  0.6419
  139OSM   C17F15159   7.348   3.910   5.202  0.1239 -0.3908  0.0579
  139OSM   H17F15160   7.260   3.844   5.217 -1.4495  1.7244  0.5368
  139OSM   H17G15161   7.345   3.972   5.294 -1.0232  2.2439 -1.6501
  139OSM   C18F15162   7.471   3.823   5.178  0.5646  0.0442 -0.1548
  139OSM   H18F15163   7.504   3.786   5.277  1.5370 -0.7620 -0.7582
  139OSM   H18G15164   7.560   3.876   5.137  1.0581 -0.6192  0.0392
  139OSM   H18H15165   7.439   3.735   5.118 -2.1060  1.4155 -0.8657
  140OSM      N15166   5.830   1.517   3.001 -0.3160  0.2507 -0.0749
  140OSM    C1515167   5.731   1.404   2.968 -0.2877  0.4438  0.1191
  140OSM   H15A15168   5.642   1.443   2.922  0.5811 -0.7541 -2.7724
  140OSM   H15B15169   5.702   1.364   3.064 -0.8939 -2.0095 -1.0272
  140OSM   H15C15170   5.784   1.326   2.915  0.8618 -0.6408  2.7036
  140OSM    C1415171   5.950   1.457   3.069 -0.2037 -0.4072  0.1978
  140OSM   H14A15172   6.007   1.523   3.133  0.6187 -1.8222  0.9782
  140OSM   H14B15173   6.013   1.405   2.999 -2.0997 -1.5893 -0.7173
  140OSM   H14C15174   5.919   1.375   3.132  0.1132  0.0074  0.9095
  140OSM    C1315175   5.866   1.579   2.871 -0.4026  0.3570 -0.4005
  140OSM   H13A15176   5.902   1.496   2.812  0.3245 -0.0567  0.5902
  140OSM   H13B15177   5.950   1.644   2.892 -0.1961  0.2003 -0.7332
  140OSM   H13C15178   5.785   1.629   2.820 -2.2407 -1.2411  0.8150
  140OSM    C1215179   5.773   1.629   3.089  0.9884 -0.5524  0.1650
  140OSM   H12A15180   5.750   1.597   3.190 -0.7130  1.5258  0.5068
  140OSM   H12B15181   5.677   1.660   3.049  1.5621 -0.8167 -1.5183
  140OSM    C1115182   5.859   1.749   3.103 -1.2000 -0.2253  0.0353
  140OSM   H11A15183   5.800   1.832   3.148  0.6140  0.3125  1.5513
  140OSM   H11B15184   5.892   1.789   3.004 -0.8179 -2.6130 -0.8547
  140OSM      P15185   5.953   1.704   3.348 -0.2656 -0.5312 -0.0971
  140OSM    O1315186   5.827   1.631   3.372  0.2370 -0.8805  0.3876
  140OSM    O1415187   6.088   1.660   3.393  0.1157  0.3479 -0.5395
  140OSM    O1115188   5.927   1.853   3.394 -0.1991 -0.2779 -0.3214
  140OSM    O1215189   5.967   1.723   3.190 -0.1690  0.2533  0.4561
  140OSM    C1S15190   5.923   1.898   3.521 -0.5184 -0.4594 -0.8990
  140OSM    H1S15191   5.858   1.835   3.585  0.5397 -1.7894 -1.0664
  140OSM    H1T15192   5.880   2.000   3.521  1.0970  0.3031  0.9112
  140OSM     NF15193   6.070   1.972   3.722  0.2628  0.3058  0.2171
  140OSM    HNF15194   6.105   2.062   3.747  2.6062 -0.2227 -0.8589
  140OSM    C2S15195   6.070   1.928   3.582  0.4421 -0.0866  0.3269
  140OSM    H2S15196   6.123   1.830   3.579 -0.5059 -0.5974 -0.0876
  140OSM    C3S15197   6.142   2.033   3.501 -0.0377  0.1670  0.3464
  140OSM    H3S15198   6.103   2.133   3.530 -2.6454  0.4908 -3.4089
  140OSM     O315199   6.115   2.028   3.357 -0.2277 -0.1209 -0.4869
  140OSM    HO315200   6.046   1.961   3.349 -0.6320  0.0222  1.3488
  140OSM    C4S15201   6.287   2.044   3.527  0.4285  0.3059  0.4921
  140OSM    H4S15202   6.345   1.952   3.510 -1.2196 -0.7307  0.1465
  140OSM    C5S15203   6.352   2.158   3.556 -0.3793 -0.0109  0.4074
  140OSM    H5S15204   6.301   2.255   3.557 -1.5384 -0.5865 -0.6261
  140OSM    C6S15205   6.501   2.156   3.585  0.5611  0.1763  0.6640
  140OSM    H6S15206   6.544   2.213   3.500 -0.7980  0.1303 -0.0783
  140OSM    H6T15207   6.546   2.054   3.583  0.9899  0.3376  1.4350
  140OSM    C7S15208   6.540   2.227   3.718 -0.2731  0.1016  0.0180
  140OSM    H7S15209   6.500   2.330   3.712  0.6968  0.4088 -2.4940
  140OSM    H7T15210   6.651   2.237   3.715 -0.0222 -2.1178  0.2624
  140OSM    C8S15211   6.484   2.156   3.839  0.0510  0.0302 -0.1275
  140OSM    H8S15212   6.579   2.127   3.889  0.2208 -0.2386 -0.6003
  140OSM    H8T15213   6.423   2.069   3.807 -0.6767  1.0993 -1.7747
  140OSM    C9S15214   6.408   2.245   3.936  0.1132 -0.4859  0.2224
  140OSM    H9S15215   6.332   2.298   3.875 -1.0519  0.0575  2.0786
  140OSM    H9T15216   6.473   2.324   3.981 -1.7509  1.1920  0.0853
  140OSM   C10S15217   6.336   2.164   4.043 -0.2943  0.3310  0.1529
  140OSM   H10S15218   6.292   2.067   4.010 -0.3247 -1.2216  4.1635
  140OSM   H10T15219   6.240   2.216   4.066  0.0206  2.4500 -2.7686
  140OSM   C11S15220   6.421   2.157   4.165  0.0053 -0.0841  0.3810
  140OSM   H11S15221   6.420   2.258   4.211 -1.3732  1.0969 -2.0362
  140OSM   H11T15222   6.525   2.122   4.151  0.2049  0.0356  1.4838
  140OSM   C12S15223   6.373   2.062   4.278  0.4605  0.2837  0.2868
  140OSM   H12S15224   6.461   2.061   4.346  0.9643 -0.8926 -0.3621
  140OSM   H12T15225   6.362   1.956   4.249 -0.8892 -0.0372  1.8282
  140OSM   C13S15226   6.255   2.112   4.358 -0.4517 -0.6513  0.9299
  140OSM   H13S15227   6.174   2.138   4.287 -0.7369 -0.9882  1.1274
  140OSM   H13T15228   6.289   2.210   4.398  2.9799 -0.8649 -1.1036
  140OSM   C14S15229   6.195   2.014   4.453  0.1124 -0.7828 -0.2527
  140OSM   H14S15230   6.162   1.926   4.394 -1.3887  0.6012 -1.5627
  140OSM   H14T15231   6.103   2.055   4.501 -0.1737  2.1071 -2.9631
  140OSM   C15S15232   6.296   1.966   4.561 -0.1972 -0.2229  0.3173
  140OSM   H15S15233   6.396   1.942   4.518  0.5389  1.9111  0.6956
  140OSM   H15T15234   6.255   1.875   4.610  0.3403 -0.1014  1.0167
  140OSM   C16S15235   6.334   2.073   4.672 -0.1195  0.3266  0.1013
  140OSM   H16S15236   6.246   2.108   4.730 -0.3876 -0.4367  0.1689
  140OSM   H16T15237   6.379   2.155   4.612 -1.1446  0.5392 -0.3944
  140OSM   C17S15238   6.428   2.000   4.770 -0.1771  0.5167 -0.6258
  140OSM   H17S15239   6.524   1.974   4.721 -0.8105 -0.4555 -1.3887
  140OSM   H17T15240   6.390   1.904   4.813 -1.1960  0.7967 -0.8589
  140OSM   C18S15241   6.463   2.092   4.892  0.5973 -0.5779  0.1919
  140OSM   H18S15242   6.529   2.034   4.960  0.2474  1.2249  2.1692
  140OSM   H18T15243   6.374   2.144   4.934 -0.6038 -0.7627 -2.0161
  140OSM   H18U15244   6.523   2.181   4.862 -0.4989  0.7845  1.8120
  140OSM    C1F15245   6.012   1.892   3.816  0.5327 -0.6325  0.1209
  140OSM     OF15246   5.979   1.778   3.798 -0.4397 -0.0549  0.5155
  140OSM    C2F15247   5.986   1.950   3.953  0.2577 -0.6259 -0.6202
  140OSM    H2F15248   5.936   2.050   3.949  1.3118 -0.1109 -1.4802
  140OSM    H2G15249   6.081   1.969   4.008  0.6224  0.3317 -1.5259
  140OSM    C3F15250   5.904   1.860   4.038  0.5034  0.1485  0.2184
  140OSM    H3F15251   5.953   1.761   4.050  3.1349  0.9746 -2.5100
  140OSM    H3G15252   5.804   1.849   3.992  0.6110  0.2037 -0.0278
  140OSM    C4F15253   5.899   1.914   4.176  0.1119  0.1752  0.4150
  140OSM    H4F15254   5.834   2.003   4.189  2.8291  2.5636 -1.1458
  140OSM    H4G15255   6.003   1.939   4.207  0.9157  0.4304 -2.2412
  140OSM    C5F15256   5.839   1.817   4.278  0.1799  0.1502  0.2584
  140OSM    H5F15257   5.899   1.724   4.266 -1.0278 -0.5106 -0.9296
  140OSM    H5G15258   5.735   1.799   4.245  0.5518  1.0922 -1.5353
  140OSM    C6F15259   5.849   1.871   4.426 -0.4442  0.1061  0.4794
  140OSM    H6F15260   5.801   1.970   4.442 -0.7284  0.4280 -1.9390
  140OSM    H6G15261   5.952   1.868   4.467  0.0531  0.6285 -0.6715
  140OSM    C7F15262   5.781   1.775   4.520 -0.3255  0.0390  0.3456
  140OSM    H7F15263   5.814   1.673   4.489 -1.7690  0.3985 -2.7539
  140OSM    H7G15264   5.672   1.797   4.513 -0.1476  1.1934  1.0105
  140OSM    C8F15265   5.822   1.810   4.661 -0.2299 -0.1854 -0.1502
  140OSM    H8F15266   5.813   1.919   4.683 -1.4906 -0.0721 -1.1512
  140OSM    H8G15267   5.929   1.782   4.677 -0.2359  0.0608  0.3621
  140OSM    C9F15268   5.740   1.730   4.760 -0.7953  0.3413  0.1127
  140OSM    H9F15269   5.650   1.687   4.714 -0.3717  1.2989 -1.7034
  140OSM   C10F15270   5.752   1.717   4.897 -0.1753 -0.0757  0.3612
  140OSM   H10F15271   5.689   1.644   4.951 -0.5698  1.1371  1.5851
  140OSM   C11F15272   5.856   1.792   4.975  0.0362  0.3136 -0.5049
  140OSM   H11F15273   5.818   1.804   5.078  0.0715  0.9100 -0.5593
  140OSM   H11G15274   5.878   1.893   4.935  1.6229 -0.6853 -2.3245
  140OSM   C12F15275   5.986   1.724   4.980 -0.1464 -0.1763 -0.3909
  140OSM   H12F15276   6.034   1.705   4.882  0.0990  0.8676 -0.4800
  140OSM   H12G15277   5.961   1.628   5.031 -2.1308  1.1025  1.1990
  140OSM   C13F15278   6.091   1.792   5.070 -0.8436 -0.3874  0.5858
  140OSM   H13F15279   6.061   1.811   5.175  0.3777 -1.1791  1.1057
  140OSM   H13G15280   6.115   1.887   5.018 -1.1240 -0.0511  1.0673
  140OSM   C14F15281   6.226   1.712   5.075  0.4913 -0.1628  0.1840
  140OSM   H14F15282   6.250   1.682   4.971  0.2321  1.8771 -0.4981
  140OSM   H14G15283   6.219   1.618   5.134  0.4742 -1.0540 -1.1929
  140OSM   C15F15284   6.336   1.792   5.135  0.0555 -0.0220  0.0348
  140OSM   H15F15285   6.305   1.809   5.240 -0.9556 -0.7889 -0.1284
  140OSM   H15G15286   6.339   1.894   5.091  0.5328  0.3726  0.9458
  140OSM   C16F15287   6.469   1.724   5.140 -0.5757 -0.5086  0.2861
  140OSM   H16F15288   6.529   1.716   5.047  0.1396  3.5065  0.2166
  140OSM   H16G15289   6.453   1.621   5.179  1.0351 -0.4175  1.2646
  140OSM   C17F15290   6.562   1.794   5.241  0.2680  0.4235  0.4594
  140OSM   H17F15291   6.634   1.711   5.253 -1.0008 -0.4808  2.4103
  140OSM   H17G15292   6.508   1.813   5.337  1.5536  0.1088  1.2679
  140OSM   C18F15293   6.629   1.924   5.201 -0.7139  0.2337 -0.0530
  140OSM   H18F15294   6.706   1.954   5.275 -0.1402 -0.2072 -0.4598
  140OSM   H18G15295   6.553   1.999   5.170 -0.9170 -0.5718 -1.6002
  140OSM   H18H15296   6.688   1.912   5.108 -2.4083 -0.6332 -1.0593
  141OSM      N15297   1.296   5.418   2.810 -0.3872 -0.1910  0.2244
  141OSM    C1515298   1.210   5.534   2.791  0.2002 -0.8197 -0.2103
  141OSM   H15A15299   1.245   5.625   2.836 -1.2778  0.0864 -0.8243
  141OSM   H15B15300   1.108   5.517   2.823 -1.2288  0.4846 -3.6587
  141OSM   H15C15301   1.192   5.565   2.689 -1.2687  2.8519  0.9883
  141OSM    C1415302   1.252   5.305   2.723 -0.2543 -0.1225 -0.0725
  141OSM   H14A15303   1.320   5.222   2.714  0.9578  0.7957  0.2892
  141OSM   H14B15304   1.224   5.341   2.625 -0.0445 -0.9288 -0.4302
  141OSM   H14C15305   1.165   5.265   2.774  0.2006 -3.2264 -1.5176
  141OSM    C1315306   1.438   5.462   2.770  0.0749 -0.5505 -0.1161
  141OSM   H13A15307   1.459   5.556   2.818 -1.0135 -0.3101 -0.0794
  141OSM   H13B15308   1.438   5.475   2.663  0.8314 -0.0318 -0.0534
  141OSM   H13C15309   1.510   5.389   2.804  0.8644  0.5010  0.5248
  141OSM    C1215310   1.289   5.383   2.953 -0.6899 -0.6309 -1.2832
  141OSM   H12A15311   1.318   5.470   3.011  0.3811 -0.5049 -1.9690
  141OSM   H12B15312   1.368   5.313   2.975  0.6922  0.7636 -1.5278
  141OSM    C1115313   1.152   5.330   3.008 -0.0953 -0.2927 -0.2338
  141OSM   H11A15314   1.071   5.400   2.979 -0.4692 -0.3875  0.5676
  141OSM   H11B15315   1.159   5.323   3.119 -0.4810 -2.5687 -0.3190
  141OSM      P15316   1.195   5.071   3.026 -0.5638  0.5170  0.1916
  141OSM    O1315317   1.154   4.947   2.958  0.6075  0.2563  0.3813
  141OSM    O1415318   1.338   5.082   3.014  0.5622  0.2409 -0.2900
  141OSM    O1115319   1.141   5.062   3.176  0.3334  0.0069  0.5832
  141OSM    O1215320   1.124   5.202   2.964  0.9777 -0.3980 -0.2418
  141OSM    C1S15321   1.013   5.091   3.216  0.5376  0.1236 -0.7814
  141OSM    H1S15322   0.934   5.022   3.179  0.4348  0.4600 -1.2054
  141OSM    H1T15323   0.978   5.195   3.197 -3.0027 -0.8649 -0.5311
  141OSM     NF15324   0.873   5.087   3.430 -0.5371 -0.4813  0.0031
  141OSM    HNF15325   0.869   5.157   3.501  0.1702 -1.9920  1.5947
  141OSM    C2S15326   1.008   5.085   3.379  0.0713 -0.6633  0.2795
  141OSM    H2S15327   1.055   4.989   3.406  0.7916 -0.3369  0.2092
  141OSM    C3S15328   1.088   5.199   3.440 -0.0811  0.0028 -0.3598
  141OSM    H3S15329   1.050   5.296   3.401 -3.3322  0.1144  2.5840
  141OSM     O315330   1.220   5.183   3.406  0.7393 -0.5218 -0.1126
  141OSM    HO315331   1.225   5.104   3.350  2.1073  0.9228 -2.1738
  141OSM    C4S15332   1.087   5.209   3.589  0.3864 -0.4220  0.4931
  141OSM    H4S15333   1.158   5.139   3.636  3.2445  1.8099 -0.2074
  141OSM    C5S15334   1.031   5.305   3.666 -0.1411  0.3700  0.2708
  141OSM    H5S15335   0.979   5.392   3.624  0.3856  0.5979  0.0793
  141OSM    C6S15336   1.073   5.311   3.815  0.5421 -0.7319  0.1368
  141OSM    H6S15337   1.111   5.415   3.829 -0.5461 -0.1355 -1.1439
  141OSM    H6T15338   1.159   5.242   3.828 -0.1474 -1.6298 -0.0337
  141OSM    C7S15339   0.956   5.290   3.917 -0.4165  0.3931 -0.0736
  141OSM    H7S15340   0.904   5.194   3.896 -1.7071  1.2829 -1.1475
  141OSM    H7T15341   0.886   5.373   3.896 -0.6366 -0.1080 -1.4336
  141OSM    C8S15342   1.006   5.296   4.063  0.4120 -0.2487 -0.3388
  141OSM    H8S15343   1.056   5.395   4.077 -1.1479  0.6206 -0.6820
  141OSM    H8T15344   1.084   5.219   4.081  1.8329  0.9295 -1.2324
  141OSM    C9S15345   0.888   5.294   4.154 -0.1078 -0.1304  0.6502
  141OSM    H9S15346   0.827   5.205   4.131 -0.1847 -0.3794  1.7488
  141OSM    H9T15347   0.829   5.387   4.141  0.7112  0.4238  0.7857
  141OSM   C10S15348   0.916   5.285   4.302  0.5796 -0.2032  0.4684
  141OSM   H10S15349   0.944   5.379   4.353  1.6309  0.5261 -1.3526
  141OSM   H10T15350   0.999   5.211   4.309  1.2662  0.6035  0.9063
  141OSM   C11S15351   0.789   5.221   4.373  0.5745  0.2344 -0.4138
  141OSM   H11S15352   0.800   5.111   4.366  1.1149  0.2210  0.4658
  141OSM   H11T15353   0.699   5.250   4.314 -0.0757  1.2499  0.9939
  141OSM   C12S15354   0.754   5.277   4.509 -0.1617 -0.0202 -0.3265
  141OSM   H12S15355   0.722   5.382   4.489  0.7628  0.1115 -1.1631
  141OSM   H12T15356   0.848   5.273   4.569 -0.2645 -0.6251 -0.2020
  141OSM   C13S15357   0.668   5.185   4.595  0.4446  0.2100  0.8204
  141OSM   H13S15358   0.693   5.076   4.593 -2.3314 -0.5158  0.7482
  141OSM   H13T15359   0.568   5.190   4.546  0.0593 -3.5517  0.8787
  141OSM   C14S15360   0.648   5.231   4.737  0.3299  0.5046  0.1981
  141OSM   H14S15361   0.630   5.341   4.745 -0.8947  0.3840 -0.5915
  141OSM   H14T15362   0.738   5.197   4.792  1.2157 -0.0980 -1.5291
  141OSM   C15S15363   0.524   5.157   4.795  0.0048  0.1020  0.5583
  141OSM   H15S15364   0.434   5.203   4.748 -0.9434 -1.5432  0.6851
  141OSM   H15T15365   0.531   5.176   4.904  2.1636  0.6243  0.3747
  141OSM   C16S15366   0.515   4.996   4.799 -1.1140  0.6241  0.6243
  141OSM   H16S15367   0.621   4.963   4.806 -0.7334  0.9365 -2.3848
  141OSM   H16T15368   0.481   4.962   4.699 -0.0107  0.5793  0.2502
  141OSM   C17S15369   0.441   4.926   4.916 -0.1793 -0.6052 -0.2591
  141OSM   H17S15370   0.469   4.973   5.013 -0.1387  0.6969 -0.8802
  141OSM   H17T15371   0.484   4.825   4.926  2.7082  0.4807 -0.7703
  141OSM   C18S15372   0.284   4.924   4.904 -1.1131 -0.5148  0.2456
  141OSM   H18S15373   0.238   4.856   4.979  0.9711 -0.3050  1.8137
  141OSM   H18T15374   0.250   4.890   4.804 -2.9506  1.1930  0.2275
  141OSM   H18U15375   0.245   5.027   4.917  0.8703  0.6896 -2.3158
  141OSM    C1F15376   0.785   4.992   3.418  0.5224 -0.3483 -0.6046
  141OSM     OF15377   0.814   4.886   3.372  0.5444 -0.4620 -0.4440
  141OSM    C2F15378   0.654   5.011   3.489 -0.5904  0.3268  0.3628
  141OSM    H2F15379   0.571   4.957   3.440 -0.3234  1.8062 -1.8666
  141OSM    H2G15380   0.626   5.118   3.495 -0.4110  0.2988  2.7155
  141OSM    C3F15381   0.656   4.956   3.630  0.5731 -0.3648 -0.9823
  141OSM    H3F15382   0.731   5.003   3.698 -0.8496  1.0683 -0.3467
  141OSM    H3G15383   0.682   4.849   3.613 -2.0397 -1.3774  0.7043
  141OSM    C4F15384   0.528   4.978   3.710 -0.4117 -0.1145  0.1562
  141OSM    H4F15385   0.432   4.953   3.658 -1.3401 -0.2523  1.8797
  141OSM    H4G15386   0.526   5.086   3.737  2.0058 -0.8680  4.1370
  141OSM    C5F15387   0.519   4.904   3.845 -0.6914 -0.1193 -0.7768
  141OSM    H5F15388   0.549   4.799   3.831 -0.9698 -0.5456  1.4470
  141OSM    H5G15389   0.417   4.916   3.889 -0.4718 -0.2154 -0.2367
  141OSM    C6F15390   0.609   4.968   3.956 -0.1851  0.3153  0.1210
  141OSM    H6F15391   0.559   5.062   3.985  0.0719  0.1028  1.2804
  141OSM    H6G15392   0.706   5.004   3.917  1.1317  0.1744  3.0009
  141OSM    C7F15393   0.621   4.878   4.084  0.2783  0.3645  0.5373
  141OSM    H7F15394   0.698   4.800   4.068 -1.0592 -0.8385 -0.2876
  141OSM    H7G15395   0.520   4.831   4.086 -0.5746  1.6070 -3.4237
  141OSM    C8F15396   0.639   4.959   4.206  0.0515  0.1552  0.0613
  141OSM    H8F15397   0.585   5.051   4.175  0.1758 -0.2344 -1.3798
  141OSM    H8G15398   0.747   4.986   4.209 -0.1127  0.8425 -0.1768
  141OSM    C9F15399   0.598   4.897   4.336 -0.9404 -0.3526 -0.2665
  141OSM    H9F15400   0.671   4.835   4.390 -0.5961  1.0615  0.9340
  141OSM   C10F15401   0.506   4.932   4.418  0.8873 -0.0954  0.1752
  141OSM   H10F15402   0.505   4.903   4.524 -3.5183  0.3944  0.4633
  141OSM   C11F15403   0.392   5.021   4.383 -0.1109 -0.0150  0.6891
  141OSM   H11F15404   0.392   5.050   4.276  0.0085 -1.2617  0.3343
  141OSM   H11G15405   0.392   5.120   4.434 -2.7544 -1.2634  3.4938
  141OSM   C12F15406   0.252   4.969   4.409 -0.0046  0.0650  0.6187
  141OSM   H12F15407   0.262   4.859   4.393  2.1732 -0.2127  3.1623
  141OSM   H12G15408   0.196   5.008   4.322  3.4316 -0.0423 -1.8656
  141OSM   C13F15409   0.198   5.006   4.543 -0.2403 -0.0586  0.8119
  141OSM   H13F15410   0.226   5.111   4.563 -0.8213 -0.1975  2.6089
  141OSM   H13G15411   0.257   4.941   4.612  3.1797 -0.9458 -2.5966
  141OSM   C14F15412   0.047   4.977   4.541 -0.3849 -0.5398  0.4296
  141OSM   H14F15413   0.036   4.869   4.517 -0.2476 -0.4514 -0.0480
  141OSM   H14G15414   0.007   5.034   4.455 -3.5080 -0.3720  1.8719
  141OSM   C15F15415  -0.021   5.030   4.671 -0.9205  0.1500  0.0147
  141OSM   H15F15416   0.023   4.965   4.750  1.5610 -0.6650 -1.9001
  141OSM   H15G15417  -0.128   5.001   4.662 -0.6528 -0.5049 -1.2850
  141OSM   C16F15418  -0.000   5.180   4.709  0.5307 -0.0400  0.4930
  141OSM   H16F15419  -0.051   5.242   4.631 -1.0581 -1.3419  0.4444
  141OSM   H16G15420   0.104   5.219   4.704  0.5106  0.2114  1.6214
  141OSM   C17F15421  -0.050   5.210   4.854 -0.0236 -0.4439  0.7413
  141OSM   H17F15422   0.011   5.142   4.918  0.4220  1.3078  2.2749
  141OSM   H17G15423  -0.159   5.195   4.840  0.0928 -0.2649 -0.4245
  141OSM   C18F15424  -0.021   5.359   4.881  0.4001 -0.9858  0.1454
  141OSM   H18F15425  -0.081   5.429   4.820  0.6157 -1.2791 -0.4026
  141OSM   H18G15426   0.083   5.374   4.845  0.0300 -2.9827 -2.0160
  141OSM   H18H15427  -0.024   5.394   4.987  0.9826  0.2773 -0.2349
  142OSM      N15428   1.713   0.920   2.711  0.3286 -0.1117 -0.0256
  142OSM    C1515429   1.841   0.853   2.755 -0.4190  0.2201 -0.3742
  142OSM   H15A15430   1.876   0.782   2.682 -1.9000 -2.4164  1.3215
  142OSM   H15B15431   1.811   0.789   2.837  1.3888 -1.9538 -1.3042
  142OSM   H15C15432   1.914   0.925   2.788  0.1399 -0.5724  0.1401
  142OSM    C1415433   1.747   1.001   2.592  0.9161 -0.2621 -0.1756
  142OSM   H14A15434   1.662   1.046   2.543  1.2211  0.0221 -0.4516
  142OSM   H14B15435   1.798   0.940   2.519 -0.3175 -1.8348  0.2258
  142OSM   H14C15436   1.807   1.083   2.629  0.3464  0.4390 -0.7573
  142OSM    C1315437   1.622   0.806   2.672  0.6236 -1.7388  0.1869
  142OSM   H13A15438   1.668   0.720   2.626 -1.0501 -0.8854 -3.3553
  142OSM   H13B15439   1.549   0.836   2.599 -0.3059 -1.4221  1.2124
  142OSM   H13C15440   1.568   0.771   2.759 -0.8317  2.5534  1.2540
  142OSM    C1215441   1.657   1.004   2.823  0.8344 -0.1283  0.4865
  142OSM   H12A15442   1.579   1.061   2.776  2.7529  1.4491 -0.9843
  142OSM   H12B15443   1.732   1.075   2.857  0.8933  0.4400 -0.7875
  142OSM    C1115444   1.615   0.921   2.948 -0.4094  0.2671 -0.0813
  142OSM   H11A15445   1.538   0.848   2.917 -1.2262  1.0954 -0.0186
  142OSM   H11B15446   1.555   0.988   3.013 -1.4318 -0.7302  0.0218
  142OSM      P15447   1.789   0.945   3.137 -0.0947 -0.2579  0.3677
  142OSM    O1315448   1.879   0.867   3.229  0.3118 -0.3587 -0.4789
  142OSM    O1415449   1.836   1.074   3.081 -0.0312  0.0615 -0.1521
  142OSM    O1115450   1.660   0.985   3.220 -0.1930 -0.1769  0.1735
  142OSM    O1215451   1.719   0.854   3.026  0.2631 -0.0022 -0.3519
  142OSM    C1S15452   1.576   0.887   3.280 -0.1642 -1.0468  0.4544
  142OSM    H1S15453   1.609   0.783   3.261 -0.3023 -0.9953 -0.0804
  142OSM    H1T15454   1.479   0.895   3.226 -0.4323 -3.7144  0.3987
  142OSM     NF15455   1.486   0.797   3.486  0.1295 -0.2565 -0.0320
  142OSM    HNF15456   1.390   0.800   3.512  0.6138  1.6265  1.7631
  142OSM    C2S15457   1.541   0.921   3.426  0.4435  0.2184  0.4836
  142OSM    H2S15458   1.638   0.941   3.477  0.5149  2.7714 -0.4892
  142OSM    C3S15459   1.449   1.039   3.447  0.4626  0.0413  0.2218
  142OSM    H3S15460   1.350   1.001   3.413  1.0615 -1.2565 -0.1202
  142OSM     O315461   1.465   1.154   3.357 -0.2270 -0.3229 -0.0720
  142OSM    HO315462   1.499   1.124   3.272 -0.2070  0.5341 -0.3775
  142OSM    C4S15463   1.427   1.089   3.591  1.0136 -0.2943 -0.2164
  142OSM    H4S15464   1.358   1.030   3.653 -0.0868  1.9781  0.8561
  142OSM    C5S15465   1.488   1.183   3.663 -0.2894  0.5952 -0.6891
  142OSM    H5S15466   1.576   1.239   3.627 -0.1669  0.6610 -0.2955
  142OSM    C6S15467   1.461   1.215   3.810  0.1362  0.1994  0.1469
  142OSM    H6S15468   1.405   1.311   3.820  0.7428  0.6300 -0.5114
  142OSM    H6T15469   1.559   1.222   3.861 -1.9952  0.8767  4.6874
  142OSM    C7S15470   1.381   1.112   3.894 -0.3129  0.3686 -0.3025
  142OSM    H7S15471   1.424   1.012   3.872 -2.1628 -0.9945  1.8603
  142OSM    H7T15472   1.277   1.114   3.856 -0.4231  3.0239 -0.0602
  142OSM    C8S15473   1.394   1.133   4.045  1.0291 -0.5485 -0.0233
  142OSM    H8S15474   1.382   1.243   4.057  2.4642 -0.5005  1.2648
  142OSM    H8T15475   1.503   1.128   4.067  1.3714  0.6967 -1.2620
  142OSM    C9S15476   1.298   1.066   4.141  0.5130 -0.1285  0.2256
  142OSM    H9S15477   1.283   0.959   4.116  0.0103  0.2024 -0.9669
  142OSM    H9T15478   1.196   1.109   4.135  0.5519 -0.2318 -2.5935
  142OSM   C10S15479   1.358   1.083   4.285 -0.0301  0.2881  0.2121
  142OSM   H10S15480   1.367   1.193   4.303  0.9922  0.4200 -0.9136
  142OSM   H10T15481   1.461   1.045   4.298  0.5601  1.8024  0.1801
  142OSM   C11S15482   1.270   1.006   4.379  0.1785 -0.4481 -0.0677
  142OSM   H11S15483   1.279   0.896   4.365 -1.3174 -1.0839  3.1141
  142OSM   H11T15484   1.165   1.038   4.363  0.9858  3.0650  0.8642
  142OSM   C12S15485   1.307   1.026   4.529 -0.5478 -0.3255 -0.6552
  142OSM   H12S15486   1.218   0.996   4.588 -1.1448  1.9557 -0.3053
  142OSM   H12T15487   1.307   1.136   4.540  1.8701 -0.4334  1.3651
  142OSM   C13S15488   1.441   0.961   4.574  0.2417 -0.4382 -0.0984
  142OSM   H13S15489   1.529   1.018   4.536 -1.1925  1.4381 -0.7784
  142OSM   H13T15490   1.438   0.854   4.545 -2.6622 -1.0961  2.0798
  142OSM   C14S15491   1.442   0.962   4.725  0.0198 -0.3102 -0.0479
  142OSM   H14S15492   1.359   0.897   4.762 -0.1742  0.1743  0.3826
  142OSM   H14T15493   1.420   1.068   4.750  1.2368 -0.0279 -0.0942
  142OSM   C15S15494   1.576   0.925   4.790  0.2125  0.1143  0.3976
  142OSM   H15S15495   1.660   0.956   4.725  0.0178 -0.5938 -0.2144
  142OSM   H15T15496   1.581   0.815   4.774  0.9758  0.3069 -0.8371
  142OSM   C16S15497   1.592   0.972   4.935 -0.1014  0.0003 -0.0898
  142OSM   H16S15498   1.494   0.985   4.987 -0.0054  0.4590 -0.0178
  142OSM   H16T15499   1.641   1.072   4.939 -0.2989  0.1545 -1.2262
  142OSM   C17S15500   1.666   0.874   5.028  0.6010 -0.3193  0.1142
  142OSM   H17S15501   1.607   0.780   5.022  0.5923 -0.3451  0.5826
  142OSM   H17T15502   1.647   0.908   5.132 -0.2630 -0.7428  0.1007
  142OSM   C18S15503   1.808   0.856   5.001  0.4118 -0.1196 -0.0258
  142OSM   H18S15504   1.841   0.754   5.031 -0.5095 -1.3466 -2.8789
  142OSM   H18T15505   1.868   0.942   5.037  0.3453 -0.1403  0.1349
  142OSM   H18U15506   1.825   0.854   4.891  1.8019 -1.9844  0.1780
  142OSM    C1F15507   1.560   0.683   3.515 -0.0718 -0.3951  0.0582
  142OSM     OF15508   1.681   0.680   3.504 -0.2392  0.4175 -1.2772
  142OSM    C2F15509   1.488   0.565   3.561  0.1853 -0.0342 -0.6760
  142OSM    H2F15510   1.548   0.477   3.529  0.2816  0.5445 -2.1993
  142OSM    H2G15511   1.391   0.567   3.506  0.1688  1.6922 -0.6465
  142OSM    C3F15512   1.467   0.564   3.712  0.0905  0.7559  0.0574
  142OSM    H3F15513   1.406   0.654   3.737  0.8988  1.5646 -0.7883
  142OSM    H3G15514   1.565   0.575   3.764  0.9200 -1.8643 -0.8173
  142OSM    C4F15515   1.389   0.438   3.746  0.3274 -0.5965  0.0922
  142OSM    H4F15516   1.405   0.367   3.662 -0.9597  0.4378 -1.0817
  142OSM    H4G15517   1.287   0.472   3.772  1.2910  1.9240  0.9201
  142OSM    C5F15518   1.435   0.376   3.876 -0.5131 -0.4194 -0.2250
  142OSM    H5F15519   1.543   0.378   3.899 -0.5661 -2.4647  0.4001
  142OSM    H5G15520   1.416   0.267   3.869  0.5844 -0.6258 -0.1994
  142OSM    C6F15521   1.359   0.434   3.998 -0.2850 -0.6339  0.0535
  142OSM    H6F15522   1.252   0.450   3.971  0.1026  0.1380 -1.1496
  142OSM    H6G15523   1.411   0.531   4.013  0.7081 -1.2412  0.5808
  142OSM    C7F15524   1.366   0.336   4.117 -0.2274  0.2744  0.3341
  142OSM    H7F15525   1.470   0.309   4.144 -0.3627 -0.4103  0.1910
  142OSM    H7G15526   1.301   0.252   4.086  0.3396 -0.8981  2.1621
  142OSM    C8F15527   1.316   0.389   4.252 -0.3844 -0.4390 -0.4283
  142OSM    H8F15528   1.339   0.315   4.331  2.6522  1.6010  0.7950
  142OSM    H8G15529   1.205   0.394   4.250 -0.4239 -0.5617  0.7508
  142OSM    C9F15530   1.379   0.515   4.300  0.3675  0.2780 -0.1796
  142OSM    H9F15531   1.455   0.551   4.228 -1.4377  0.3534 -2.1340
  142OSM   C10F15532   1.342   0.595   4.408  0.0033  0.1234  0.0815
  142OSM   H10F15533   1.401   0.685   4.430  1.4006 -0.2223 -1.9855
  142OSM   C11F15534   1.229   0.571   4.510 -0.5730 -0.4946 -0.0022
  142OSM   H11F15535   1.142   0.524   4.458 -0.4143  1.6034 -2.3807
  142OSM   H11G15536   1.200   0.669   4.552  0.3691 -0.0445 -0.3897
  142OSM   C12F15537   1.291   0.468   4.612  0.5699  0.5430 -0.0013
  142OSM   H12F15538   1.324   0.377   4.558  0.6540  1.4872 -1.6053
  142OSM   H12G15539   1.208   0.440   4.681 -1.7770  0.9670 -2.4739
  142OSM   C13F15540   1.411   0.513   4.694 -0.4339  0.9040 -0.0930
  142OSM   H13F15541   1.399   0.620   4.722 -0.8775  1.1997 -1.3466
  142OSM   H13G15542   1.507   0.517   4.638 -0.3534 -0.9805 -0.1615
  142OSM   C14F15543   1.421   0.433   4.824  0.5267  0.1940 -0.4369
  142OSM   H14F15544   1.453   0.331   4.796  0.2534 -0.1454  0.4648
  142OSM   H14G15545   1.320   0.419   4.868  0.8391 -1.0595 -0.0901
  142OSM   C15F15546   1.513   0.494   4.933  0.0267 -0.9617 -0.0256
  142OSM   H15F15547   1.467   0.591   4.961 -0.9268 -1.8037  1.4311
  142OSM   H15G15548   1.608   0.517   4.879 -2.0260 -0.1236 -3.6038
  142OSM   C16F15549   1.539   0.423   5.068 -0.2125  0.1188 -0.0471
  142OSM   H16F15550   1.601   0.333   5.049 -0.4218  0.1346 -0.8799
  142OSM   H16G15551   1.454   0.372   5.119  0.7261 -1.6585 -0.2029
  142OSM   C17F15552   1.602   0.526   5.166 -0.0544  0.0029 -0.1687
  142OSM   H17F15553   1.672   0.594   5.114  0.2230 -2.7987 -3.9173
  142OSM   H17G15554   1.660   0.466   5.239 -1.8270  0.4329  1.6865
  142OSM   C18F15555   1.504   0.598   5.255  0.5911  0.0289  0.8547
  142OSM   H18F15556   1.548   0.682   5.313 -0.6023  1.8287 -0.6828
  142OSM   H18G15557   1.456   0.527   5.325 -2.4757  1.0609 -0.0422
  142OSM   H18H15558   1.418   0.641   5.199 -2.3366 -3.1242  2.5237
  143OSM      N15559   0.665   0.373   2.939  0.1695  0.0131 -0.2191
  143OSM    C1515560   0.804   0.322   2.948  0.5076  0.8604 -0.1237
  143OSM   H15A15561   0.857   0.379   3.023 -1.6115 -0.9802  3.0573
  143OSM   H15B15562   0.851   0.340   2.853 -3.1412  0.5171 -2.1513
  143OSM   H15C15563   0.800   0.217   2.972 -2.8610  0.5339 -1.4976
  143OSM    C1415564   0.658   0.514   2.886 -0.2449 -0.2988  0.4002
  143OSM   H14A15565   0.693   0.515   2.784  1.8743  3.6159  0.9548
  143OSM   H14B15566   0.716   0.583   2.946  0.3692 -0.7744  0.3686
  143OSM   H14C15567   0.560   0.557   2.898 -0.1338 -0.2068  1.0159
  143OSM    C1315568   0.595   0.295   2.838  0.0434  0.0784  0.3431
  143OSM   H13A15569   0.507   0.348   2.806  1.0989  0.9505 -1.3059
  143OSM   H13B15570   0.579   0.198   2.883 -2.1174  0.1749 -0.1181
  143OSM   H13C15571   0.642   0.289   2.741 -0.0839  3.4780 -0.0359
  143OSM    C1215572   0.605   0.356   3.083  0.3096 -0.5803  0.4302
  143OSM   H12A15573   0.644   0.434   3.145 -1.2301 -0.6983  1.6056
  143OSM   H12B15574   0.641   0.265   3.130  2.6285  0.8931  1.6576
  143OSM    C1115575   0.454   0.355   3.111  0.4091  0.2021  0.2883
  143OSM   H11A15576   0.430   0.345   3.219  2.6852 -0.6330  0.7712
  143OSM   H11B15577   0.410   0.259   3.074  0.5890  0.8921 -1.8449
  143OSM      P15578   0.386   0.611   3.125  0.1522 -0.1986 -0.4904
  143OSM    O1315579   0.518   0.640   3.181 -0.2653  0.1727 -0.0032
  143OSM    O1415580   0.327   0.691   3.020 -0.5097 -0.5855  0.1837
  143OSM    O1115581   0.285   0.588   3.239 -0.0351 -0.1938 -0.3602
  143OSM    O1215582   0.390   0.467   3.056 -0.2310  0.0577 -0.3219
  143OSM    C1S15583   0.181   0.489   3.226  0.0960  0.1588  0.0244
  143OSM    H1S15584   0.222   0.385   3.225 -1.8864 -0.7767  2.8449
  143OSM    H1T15585   0.136   0.526   3.132  0.6428  0.6021 -0.0698
  143OSM     NF15586  -0.017   0.385   3.356 -0.4438 -0.7940 -0.5459
  143OSM    HNF15587  -0.112   0.392   3.326 -1.2134  0.2961  1.8874
  143OSM    C2S15588   0.069   0.507   3.335  0.7377  0.2510  0.3491
  143OSM    H2S15589   0.142   0.521   3.418  3.5943  1.7826 -2.2159
  143OSM    C3S15590  -0.006   0.644   3.325  0.3210  0.1620 -0.1718
  143OSM    H3S15591  -0.064   0.643   3.230 -1.3539 -3.6403  0.6872
  143OSM     O315592   0.080   0.757   3.335 -0.1702  0.2930  0.1871
  143OSM    HO315593   0.165   0.724   3.307  0.2762  0.9568  0.7085
  143OSM    C4S15594  -0.117   0.649   3.429 -0.5339 -0.3924  0.5915
  143OSM    H4S15595  -0.213   0.635   3.378 -0.8298  2.4021  0.2228
  143OSM    C5S15596  -0.113   0.698   3.554 -0.2440 -0.0151  0.2054
  143OSM    H5S15597  -0.013   0.719   3.594  0.0931  0.1207 -0.6936
  143OSM    C6S15598  -0.224   0.728   3.651  0.0083 -0.1235 -0.0775
  143OSM    H6S15599  -0.317   0.689   3.603 -0.5514  2.8921 -1.6798
  143OSM    H6T15600  -0.257   0.833   3.661 -0.4891 -0.3371  0.6746
  143OSM    C7S15601  -0.195   0.667   3.787 -0.5274 -0.1856 -0.5300
  143OSM    H7S15602  -0.108   0.718   3.835 -0.2437  1.8559 -3.0209
  143OSM    H7T15603  -0.175   0.558   3.797 -1.0234 -0.1618  0.9314
  143OSM    C8S15604  -0.317   0.680   3.895 -0.4044  0.1791 -0.4896
  143OSM    H8S15605  -0.385   0.601   3.857 -0.0897 -1.4626  2.0805
  143OSM    H8T15606  -0.365   0.778   3.874 -1.5656  0.3795  2.6132
  143OSM    C9S15607  -0.287   0.667   4.047 -0.4556 -0.3246  0.8889
  143OSM    H9S15608  -0.236   0.750   4.101 -0.1705  0.7525 -0.9445
  143OSM    H9T15609  -0.222   0.578   4.055 -0.7442 -0.7212 -0.7133
  143OSM   C10S15610  -0.411   0.632   4.129  0.0057 -0.3221  0.4509
  143OSM   H10S15611  -0.450   0.537   4.087 -1.3031 -0.0095  0.8872
  143OSM   H10T15612  -0.490   0.707   4.106  0.3945 -0.1412 -0.3411
  143OSM   C11S15613  -0.382   0.612   4.281  0.3444 -0.3027 -0.0074
  143OSM   H11S15614  -0.347   0.706   4.330 -0.6947 -0.5932  1.3618
  143OSM   H11T15615  -0.295   0.543   4.284  0.3065 -0.4008 -0.9631
  143OSM   C12S15616  -0.496   0.543   4.356  0.7454  0.1033  0.1916
  143OSM   H12S15617  -0.526   0.454   4.296 -0.5695  0.3218  0.4980
  143OSM   H12T15618  -0.579   0.617   4.366 -0.9263 -1.7456  0.5574
  143OSM   C13S15619  -0.461   0.480   4.494  0.2371 -0.3600  0.0713
  143OSM   H13S15620  -0.387   0.398   4.496 -0.8423 -1.3701 -0.4012
  143OSM   H13T15621  -0.556   0.432   4.526 -0.0649  0.5019  0.4939
  143OSM   C14S15622  -0.419   0.592   4.583 -0.5965  0.1886 -0.3158
  143OSM   H14S15623  -0.478   0.683   4.561 -2.3218 -0.8467 -0.1310
  143OSM   H14T15624  -0.313   0.609   4.553 -1.4474 -0.0886 -3.8608
  143OSM   C15S15625  -0.436   0.563   4.735 -0.6871 -0.3811  0.4249
  143OSM   H15S15626  -0.542   0.530   4.742 -1.3396  1.0676 -1.7520
  143OSM   H15T15627  -0.437   0.662   4.784 -0.6207  0.2981 -0.9162
  143OSM   C16S15628  -0.320   0.476   4.796 -0.7336  0.0716  0.1345
  143OSM   H16S15629  -0.226   0.534   4.799 -0.4168 -0.4452  0.2064
  143OSM   H16T15630  -0.299   0.389   4.731 -0.6727  0.2985 -0.1506
  143OSM   C17S15631  -0.359   0.424   4.936  0.5714 -0.3815  0.4042
  143OSM   H17S15632  -0.280   0.357   4.976  1.0380 -0.3375 -0.4151
  143OSM   H17T15633  -0.453   0.364   4.927  1.4086 -1.8333  0.8942
  143OSM   C18S15634  -0.380   0.538   5.039 -0.1182 -0.5532 -0.4397
  143OSM   H18S15635  -0.408   0.504   5.141 -0.2179  0.6616 -0.0369
  143OSM   H18T15636  -0.467   0.605   5.024 -1.4076 -1.2876  2.8347
  143OSM   H18U15637  -0.285   0.595   5.047 -0.6362  0.4596 -1.1893
  143OSM    C1F15638   0.029   0.271   3.392  0.7211  0.1197  0.6881
  143OSM     OF15639   0.151   0.244   3.400 -0.4257  0.2678  0.3774
  143OSM    C2F15640  -0.075   0.167   3.411  0.5386  0.5212  0.3746
  143OSM    H2F15641  -0.030   0.081   3.359 -0.7797  0.5930 -0.9503
  143OSM    H2G15642  -0.174   0.195   3.369  0.7831 -0.4403 -0.9015
  143OSM    C3F15643  -0.097   0.128   3.556 -0.2823 -0.0754  0.2731
  143OSM    H3F15644   0.004   0.089   3.581 -0.2121 -1.1906 -1.5796
  143OSM    H3G15645  -0.183   0.058   3.554  1.3863 -2.2178  0.1149
  143OSM    C4F15646  -0.137   0.243   3.653 -0.6772  0.1020  0.7712
  143OSM    H4F15647  -0.222   0.285   3.595  0.3357 -0.1574 -0.9571
  143OSM    H4G15648  -0.048   0.310   3.654  0.7278 -1.6759  1.7937
  143OSM    C5F15649  -0.175   0.187   3.789  0.3599 -0.2872 -0.6762
  143OSM    H5F15650  -0.081   0.181   3.847  2.0740  0.9523 -3.1257
  143OSM    H5G15651  -0.233   0.093   3.778 -1.1713  0.7785 -2.3750
  143OSM    C6F15652  -0.260   0.281   3.872 -0.4433 -0.3409  0.1539
  143OSM    H6F15653  -0.337   0.324   3.805 -0.1036  0.8543  0.5042
  143OSM    H6G15654  -0.204   0.370   3.908 -0.5507  0.0024 -0.5144
  143OSM    C7F15655  -0.326   0.214   3.996 -0.4384  0.1642  0.4534
  143OSM    H7F15656  -0.382   0.123   3.963  0.0286 -0.2070  0.6740
  143OSM    H7G15657  -0.400   0.287   4.035 -1.0520 -0.1151 -0.1557
  143OSM    C8F15658  -0.216   0.159   4.100  0.4010 -0.3670 -0.1013
  143OSM    H8F15659  -0.204   0.228   4.186 -0.3931 -1.5387  1.0072
  143OSM    H8G15660  -0.122   0.154   4.041 -0.6005  0.2228 -1.8095
  143OSM    C9F15661  -0.232   0.023   4.156 -0.4126  0.7142  0.1262
  143OSM    H9F15662  -0.244  -0.056   4.080 -1.7144 -2.2121  3.1046
  143OSM   C10F15663  -0.243  -0.006   4.288 -0.0170  0.1755 -0.1646
  143OSM   H10F15664  -0.250  -0.111   4.318  0.5802  0.2496  0.2704
  143OSM   C11F15665  -0.228   0.087   4.401 -0.8498  0.4606 -0.0709
  143OSM   H11F15666  -0.280   0.182   4.377  1.0034  1.0217 -2.2185
  143OSM   H11G15667  -0.124   0.126   4.404 -0.8113  0.4119 -0.6137
  143OSM   C12F15668  -0.263   0.038   4.535  0.4028  0.6274 -0.1077
  143OSM   H12F15669  -0.191  -0.037   4.573 -0.6680  0.3932  1.5929
  143OSM   H12G15670  -0.363  -0.010   4.530  1.3099 -1.2923 -0.3241
  143OSM   C13F15671  -0.259   0.142   4.651  0.2086  0.4886 -0.3533
  143OSM   H13F15672  -0.350   0.205   4.641  0.1351  0.6352  1.0450
  143OSM   H13G15673  -0.173   0.212   4.640  0.4263  0.6401  1.8461
  143OSM   C14F15674  -0.236   0.087   4.792  0.2449  0.1856 -0.1689
  143OSM   H14F15675  -0.319   0.023   4.830  0.4381  0.2343  0.3432
  143OSM   H14G15676  -0.236   0.174   4.862 -0.3219 -0.4228  0.6153
  143OSM   C15F15677  -0.099   0.011   4.814  0.1333  0.5620  0.0141
  143OSM   H15F15678  -0.017   0.071   4.770  0.1536  1.6667  1.4720
  143OSM   H15G15679  -0.117  -0.090   4.771 -0.5449  0.8726 -0.4475
  143OSM   C16F15680  -0.065  -0.015   4.964  0.5790 -0.1163  0.0224
  143OSM   H16F15681  -0.160  -0.035   5.018  0.9058  0.5330  0.8556
  143OSM   H16G15682  -0.013   0.077   4.998 -0.2295  0.1975  0.4427
  143OSM   C17F15683   0.034  -0.135   4.976  0.4078  0.1110 -0.5372
  143OSM   H17F15684   0.112  -0.108   5.051 -0.3930 -0.1579  0.4118
  143OSM   H17G15685   0.085  -0.157   4.879  1.1015 -1.9406  0.2346
  143OSM   C18F15686  -0.030  -0.266   5.019  0.2584 -0.0807 -0.5823
  143OSM   H18F15687  -0.093  -0.301   4.934 -0.5233 -0.1066  0.0003
  143OSM   H18G15688  -0.085  -0.260   5.115  0.9629 -1.5807 -0.0621
  143OSM   H18H15689   0.052  -0.341   5.020  2.6189  2.3095  1.6714
  144OSM      N15690   6.660   1.413   2.642  0.6613 -0.7467 -0.1600
  144OSM    C1515691   6.803   1.405   2.621  0.1704  0.7540  0.6421
  144OSM   H15A15692   6.832   1.419   2.518  0.3949 -0.6351  0.4961
  144OSM   H15B15693   6.844   1.309   2.647  0.4991  0.2191 -1.6794
  144OSM   H15C15694   6.856   1.478   2.681  1.4770 -0.5028  1.0708
  144OSM    C1415695   6.622   1.555   2.611  0.4836 -0.2834 -0.2527
  144OSM   H14A15696   6.663   1.630   2.677  2.0798  1.4037 -2.9879
  144OSM   H14B15697   6.516   1.569   2.593  0.3347  2.0704  1.9933
  144OSM   H14C15698   6.656   1.581   2.512 -0.5994 -0.6257 -0.7422
  144OSM    C1315699   6.593   1.319   2.555  0.5018 -0.0368 -0.3208
  144OSM   H13A15700   6.611   1.341   2.451 -0.1593  2.5749  0.0524
  144OSM   H13B15701   6.486   1.334   2.558  0.4820 -0.3144  1.5712
  144OSM   H13C15702   6.628   1.219   2.576  1.3420  0.6361  1.7484
  144OSM    C1215703   6.634   1.398   2.787  0.6625 -0.4143  0.2869
  144OSM   H12A15704   6.527   1.388   2.798  0.6630 -1.6195 -0.5804
  144OSM   H12B15705   6.654   1.493   2.834  0.2342 -0.5008  0.6507
  144OSM    C1115706   6.712   1.297   2.863  0.5101  0.2021  0.5519
  144OSM   H11A15707   6.821   1.318   2.858  0.6951 -0.4959  1.4953
  144OSM   H11B15708   6.706   1.195   2.818  2.2165  0.1993  0.2275
  144OSM      P15709   6.513   1.252   3.040 -0.3521 -0.0032 -0.2263
  144OSM    O1315710   6.475   1.336   3.158 -0.5786 -0.0158 -0.4664
  144OSM    O1415711   6.423   1.245   2.927 -0.3294  0.3871  0.3544
  144OSM    O1115712   6.527   1.107   3.091  0.1108  0.4412  0.1117
  144OSM    O1215713   6.660   1.303   2.991  0.3131  0.1676  0.5523
  144OSM    C1S15714   6.651   1.042   3.111 -1.0531  0.1074  0.6570
  144OSM    H1S15715   6.717   1.058   3.023 -1.6922  0.3923  0.2255
  144OSM    H1T15716   6.631   0.933   3.110 -0.6252  0.0238  1.2397
  144OSM     NF15717   6.865   1.023   3.233  0.2626  0.0198  0.3998
  144OSM    HNF15718   6.893   0.943   3.286  0.9947 -0.9003 -1.2939
  144OSM    C2S15719   6.737   1.085   3.233  0.4171 -0.7030  0.3141
  144OSM    H2S15720   6.755   1.193   3.252 -1.4203 -0.5630  1.5052
  144OSM    C3S15721   6.651   1.049   3.360  0.6431 -0.4183 -0.7936
  144OSM    H3S15722   6.644   0.939   3.365  1.6166 -0.4415  3.1103
  144OSM     O315723   6.509   1.085   3.348  0.3044  0.8980 -0.3351
  144OSM    HO315724   6.508   1.128   3.262 -1.2020 -0.3563 -0.9845
  144OSM    C4S15725   6.705   1.092   3.500  0.6214  0.2712 -0.6044
  144OSM    H4S15726   6.760   1.011   3.551 -0.5174 -1.6499 -2.3228
  144OSM    C5S15727   6.659   1.194   3.572 -0.2163 -0.4942  0.0374
  144OSM    H5S15728   6.594   1.267   3.522 -3.6209 -2.0925  1.8242
  144OSM    C6S15729   6.699   1.217   3.716 -0.2323  0.7566  0.5554
  144OSM    H6S15730   6.607   1.234   3.776 -0.1899  1.0199  0.5472
  144OSM    H6T15731   6.740   1.320   3.719 -1.2481  1.1729  0.6356
  144OSM    C7S15732   6.789   1.118   3.792 -0.1242  0.4584 -0.2739
  144OSM    H7S15733   6.888   1.119   3.742  0.0090 -1.3966 -0.1304
  144OSM    H7T15734   6.744   1.017   3.782 -1.2148  0.8009  0.9997
  144OSM    C8S15735   6.789   1.153   3.941 -0.4438 -0.2150  0.1505
  144OSM    H8S15736   6.681   1.168   3.964 -0.2924  2.3888 -0.5383
  144OSM    H8T15737   6.850   1.245   3.956 -2.2938  1.2016 -0.6870
  144OSM    C9S15738   6.840   1.055   4.044 -0.4158  0.4759  0.1128
  144OSM    H9S15739   6.951   1.057   4.039 -0.2573 -2.1606  1.0394
  144OSM    H9T15740   6.802   0.952   4.025 -0.2042 -0.0549  2.3260
  144OSM   C10S15741   6.789   1.097   4.185 -0.5375  0.2346  0.2448
  144OSM   H10S15742   6.681   1.124   4.189 -1.1711 -2.0531  0.0093
  144OSM   H10T15743   6.843   1.193   4.200 -0.5748  0.6286 -1.7830
  144OSM   C11S15744   6.823   0.993   4.296 -0.4722  0.4413  0.3554
  144OSM   H11S15745   6.934   0.998   4.301 -0.3384  0.7173 -1.8842
  144OSM   H11T15746   6.782   0.897   4.257 -0.5438  1.2913 -1.7632
  144OSM   C12S15747   6.744   1.018   4.428 -0.7573  0.1325 -0.3269
  144OSM   H12S15748   6.635   1.001   4.418 -0.5505 -1.9158  0.3718
  144OSM   H12T15749   6.765   1.119   4.471 -1.1106  1.2492 -2.6414
  144OSM   C13S15750   6.774   0.914   4.540  0.3787  0.6397 -0.4296
  144OSM   H13S15751   6.882   0.910   4.564  0.6110  1.6493 -1.2470
  144OSM   H13T15752   6.742   0.812   4.508 -1.0081  1.4064 -1.5764
  144OSM   C14S15753   6.695   0.943   4.668 -0.3946  0.3191  0.4170
  144OSM   H14S15754   6.585   0.933   4.653 -0.5844  2.8092 -0.2990
  144OSM   H14T15755   6.709   1.042   4.716 -0.6116 -0.2170  1.6127
  144OSM   C15S15756   6.735   0.836   4.772 -0.1603  0.0259 -0.6928
  144OSM   H15S15757   6.843   0.810   4.762 -0.0197 -0.8233  2.2256
  144OSM   H15T15758   6.681   0.741   4.751 -0.6474 -0.3070  1.7982
  144OSM   C16S15759   6.702   0.874   4.921  0.1365 -0.3566 -0.4371
  144OSM   H16S15760   6.666   0.787   4.979 -1.2762  0.2579 -0.3406
  144OSM   H16T15761   6.614   0.942   4.930 -1.0157 -1.8403  0.0128
  144OSM   C17S15762   6.812   0.952   4.997 -0.0636 -0.3679  0.1979
  144OSM   H17S15763   6.838   1.030   4.923  0.9623 -1.7625 -0.9678
  144OSM   H17T15764   6.893   0.877   5.011  0.3868  0.5012  2.9781
  144OSM   C18S15765   6.774   1.015   5.128  0.2137 -0.4362 -0.8806
  144OSM   H18S15766   6.863   1.019   5.196 -1.6809 -3.0415  2.0473
  144OSM   H18T15767   6.708   0.948   5.188  1.9231  1.2490  3.3068
  144OSM   H18U15768   6.733   1.118   5.124 -1.8160 -1.1797 -0.1826
  144OSM    C1F15769   6.967   1.054   3.150 -0.3310 -0.1228  0.7025
  144OSM     OF15770   6.977   1.171   3.109  0.1616 -0.2329 -0.1165
  144OSM    C2F15771   7.082   0.958   3.118  0.0754  0.5662 -0.0263
  144OSM    H2F15772   7.097   0.955   3.008  0.5427  0.0043  0.0500
  144OSM    H2G15773   7.051   0.855   3.149  0.2740  0.3867 -0.4256
  144OSM    C3F15774   7.212   0.998   3.181  0.0613  0.2766  0.2100
  144OSM    H3F15775   7.250   1.094   3.139 -1.0146  1.6112  2.1197
  144OSM    H3G15776   7.293   0.925   3.158 -1.0449 -0.4342 -1.7416
  144OSM    C4F15777   7.209   1.011   3.331 -0.9694  0.3430 -0.8433
  144OSM    H4F15778   7.155   0.924   3.374 -0.6190 -0.1378 -1.3686
  144OSM    H4G15779   7.154   1.103   3.359  0.2730  0.3723  1.8241
  144OSM    C5F15780   7.353   1.016   3.405 -0.8266  0.7068  0.8417
  144OSM    H5F15781   7.433   1.073   3.352 -0.6725  1.5423  1.9330
  144OSM    H5G15782   7.388   0.911   3.410 -2.3541  0.2518  4.3140
  144OSM    C6F15783   7.352   1.082   3.544 -0.0468 -0.3928 -0.2164
  144OSM    H6F15784   7.252   1.054   3.585  0.1517 -0.1358  0.4529
  144OSM    H6G15785   7.337   1.191   3.524 -1.6056 -0.6328 -0.4812
  144OSM    C7F15786   7.458   1.053   3.644 -0.4851  0.2278 -1.1826
  144OSM    H7F15787   7.557   1.093   3.615 -0.7099  0.7624 -1.2293
  144OSM    H7G15788   7.459   0.942   3.648 -0.8018  0.2495 -0.2385
  144OSM    C8F15789   7.445   1.119   3.791  0.1392  0.7271 -0.1765
  144OSM    H8F15790   7.443   1.227   3.766  0.7499  0.2519 -2.5133
  144OSM    H8G15791   7.534   1.110   3.856 -1.3532 -0.8375  1.8074
  144OSM    C9F15792   7.316   1.079   3.858  0.0549  1.0837  0.1742
  144OSM    H9F15793   7.225   1.090   3.797  0.3983 -1.8381 -1.0311
  144OSM   C10F15794   7.302   1.047   3.988  0.6695 -0.0310 -0.1576
  144OSM   H10F15795   7.207   1.002   4.019  0.0485  0.0631 -1.8168
  144OSM   C11F15796   7.409   1.032   4.089 -0.3534  0.5575  0.2918
  144OSM   H11F15797   7.507   1.077   4.061 -0.2227  1.5839  2.2079
  144OSM   H11G15798   7.431   0.926   4.114 -1.2823  0.2536 -0.1424
  144OSM   C12F15799   7.376   1.109   4.220 -0.6370  0.5924 -0.7297
  144OSM   H12F15800   7.352   1.214   4.194 -2.1404 -0.3206 -3.2800
  144OSM   H12G15801   7.466   1.099   4.285  2.6413  1.8351 -4.6894
  144OSM   C13F15802   7.257   1.052   4.298 -0.4544  0.0653  0.0802
  144OSM   H13F15803   7.254   0.941   4.304 -0.0577  0.1393  2.6247
  144OSM   H13G15804   7.165   1.086   4.247  0.5349  0.2903 -1.6580
  144OSM   C14F15805   7.256   1.091   4.446  0.4093  0.4586 -0.6416
  144OSM   H14F15806   7.148   1.106   4.464  0.4055 -0.8021  0.6099
  144OSM   H14G15807   7.305   1.188   4.472 -0.5321  0.6211  0.6280
  144OSM   C15F15808   7.311   0.994   4.549  0.6017  0.5690  0.3204
  144OSM   H15F15809   7.421   0.979   4.547  0.3733 -1.5939  1.0669
  144OSM   H15G15810   7.276   0.892   4.522 -0.8822  1.1099  0.0789
  144OSM   C16F15811   7.256   1.032   4.689 -0.5615 -0.2869  0.4342
  144OSM   H16F15812   7.151   1.066   4.682 -0.1317  1.4478  1.6805
  144OSM   H16G15813   7.326   1.115   4.715 -1.1375  0.4396 -0.3088
  144OSM   C17F15814   7.279   0.916   4.783  0.1102 -0.3446 -0.1831
  144OSM   H17F15815   7.382   0.877   4.792  0.5676  0.8422 -0.0522
  144OSM   H17G15816   7.212   0.836   4.746 -1.4822  0.4682  0.7955
  144OSM   C18F15817   7.221   0.968   4.914 -0.6648  0.2388 -0.1853
  144OSM   H18F15818   7.271   1.062   4.946 -0.8343  0.6253 -1.0319
  144OSM   H18G15819   7.246   0.887   4.986 -1.8561 -0.9317 -1.0347
  144OSM   H18H15820   7.110   0.968   4.906 -1.2449 -0.4733  4.4891
  145SAPE     N15821   3.547   1.395   7.759 -0.7803 -0.4761  0.3957
  145SAPE   HN115822   3.581   1.303   7.794  0.5062  0.6687  2.3831
  145SAPE   HN215823   3.607   1.465   7.808 -0.7534 -0.7473  0.7600
  145SAPE   HN315824   3.445   1.402   7.777 -0.9078 -1.8935  0.3895
  145SAPE   C1215825   3.563   1.415   7.615 -0.8016  0.4601  0.6651
  145SAPE  H12A15826   3.671   1.416   7.590 -0.5530 -2.9257  1.1238
  145SAPE  H12B15827   3.510   1.505   7.578  0.7895  1.3351  0.4132
  145SAPE   C1115828   3.514   1.295   7.531 -0.2699 -0.0492  0.0250
  145SAPE  H11A15829   3.546   1.325   7.429  0.9056 -0.5730  0.2173
  145SAPE  H11B15830   3.404   1.298   7.543 -0.4846  0.3827 -1.8253
  145SAPE     P15831   3.493   1.036   7.592 -0.4507  0.5497 -0.1149
  145SAPE   O1315832   3.582   0.935   7.656 -0.2115  0.1592  0.7506
  145SAPE   O1415833   3.358   1.060   7.651 -0.7459 -0.0745  0.4087
  145SAPE   O1215834   3.571   1.172   7.572 -0.3990  0.2538 -0.2796
  145SAPE   O1115835   3.471   0.983   7.449 -0.0131 -0.0204  0.1487
  145SAPE    C115836   3.568   0.992   7.350 -0.5163  0.0156 -0.0560
  145SAPE    HA15837   3.621   1.089   7.340  1.6425 -1.2490 -2.1563
  145SAPE    HB15838   3.645   0.913   7.360 -0.5526 -0.0898 -0.5532
  145SAPE    C215839   3.514   0.955   7.207 -0.3128 -0.0156  0.2831
  145SAPE    HS15840   3.593   0.984   7.135 -2.5051  1.0672 -1.8606
  145SAPE   O2115841   3.392   1.017   7.166 -0.1221  0.2475 -0.8422
  145SAPE   C2115842   3.390   1.147   7.159  0.1342  0.5023  0.0186
  145SAPE   O2215843   3.488   1.218   7.137 -0.3607  0.0329 -0.3265
  145SAPE   C2215844   3.245   1.200   7.159 -0.3580  0.1171 -0.2849
  145SAPE   H2R15845   3.217   1.223   7.054 -1.4127 -2.4514 -0.6502
  145SAPE   H2S15846   3.181   1.123   7.208 -0.9916  0.2099 -0.9442
  145SAPE    C315847   3.485   0.802   7.190 -0.3316  0.2809  0.0993
  145SAPE    HX15848   3.387   0.787   7.238 -0.0101  1.8743  1.3566
  145SAPE    HY15849   3.559   0.738   7.242 -1.0449  1.3206  2.4959
  145SAPE   O3115850   3.477   0.770   7.053  0.8014 -0.9271  0.5564
  145SAPE   C3115851   3.589   0.755   6.988  0.3555  0.5767  0.4382
  145SAPE   O3215852   3.697   0.788   7.029  0.1713  0.6768 -0.6788
  145SAPE   C3215853   3.555   0.702   6.850  0.2813  0.1177  0.0740
  145SAPE   H2X15854   3.626   0.740   6.773 -0.2679 -0.7771 -0.9040
  145SAPE   H2Y15855   3.453   0.736   6.822 -0.3630 -0.9581  1.0603
  145SAPE   C2315856   3.236   1.323   7.252  0.4029  0.0613  0.4509
  145SAPE   H3R15857   3.308   1.400   7.218 -0.1755  0.1601 -0.5941
  145SAPE   H3S15858   3.264   1.297   7.356  0.2338  2.2505  1.0876
  145SAPE   C2415859   3.099   1.378   7.247 -0.1797 -0.4960 -0.2359
  145SAPE   H4R15860   3.065   1.416   7.149  0.8325 -0.1147 -0.4465
  145SAPE   H4S15861   3.095   1.470   7.309 -1.4377 -1.9304  1.9904
  145SAPE   C2515862   2.984   1.292   7.300 -0.1680  0.4350 -0.1543
  145SAPE   H5R15863   3.018   1.226   7.381  2.1972  1.0503 -0.5648
  145SAPE   C2615864   2.858   1.290   7.254 -0.7032  0.2488  0.4484
  145SAPE   H6R15865   2.788   1.221   7.303 -0.5169  0.3174  0.8168
  145SAPE   C2715866   2.815   1.370   7.137  0.8576  0.0814  0.1629
  145SAPE   H7R15867   2.856   1.320   7.048 -2.2747 -1.6322 -0.4769
  145SAPE   H7S15868   2.862   1.471   7.141  2.0520 -0.4992  1.4947
  145SAPE   C2815869   2.664   1.383   7.123 -0.0634 -0.5256 -0.4750
  145SAPE   H8R15870   2.613   1.363   7.218 -0.3460 -1.7383 -0.8547
  145SAPE   C2915871   2.589   1.359   7.012  0.2381  0.2829 -0.1173
  145SAPE   H9R15872   2.482   1.336   7.026  0.6605 -0.9655  1.3985
  145SAPE  C21015873   2.632   1.350   6.862 -0.6657 -0.2112  0.0069
  145SAPE  H10R15874   2.600   1.249   6.829  0.3144 -0.0600 -1.4646
  145SAPE  H10S15875   2.741   1.340   6.842 -0.8254 -0.6263 -0.6675
  145SAPE  C21115876   2.574   1.462   6.782 -0.1897 -0.5430  0.0344
  145SAPE  H11R15877   2.566   1.554   6.843  0.5661 -0.2123 -0.3625
  145SAPE  C21215878   2.562   1.466   6.651 -0.5702  0.7726  0.3437
  145SAPE  H12R15879   2.535   1.559   6.597  2.5605  0.8038 -1.4387
  145SAPE  C21315880   2.586   1.348   6.548 -0.4369 -1.2009 -0.2202
  145SAPE  H13R15881   2.503   1.328   6.478 -0.6021 -0.3023 -0.3011
  145SAPE  H13S15882   2.612   1.256   6.604  1.3290  0.8004  2.5809
  145SAPE  C21415883   2.710   1.388   6.471 -0.1357  0.2694 -0.1540
  145SAPE  H14R15884   2.808   1.357   6.511  0.1511  1.2803 -0.0460
  145SAPE  C21515885   2.704   1.450   6.353 -0.8394 -0.0438 -0.0438
  145SAPE  H15R15886   2.799   1.466   6.300  0.1637  1.3854  2.0874
  145SAPE  C21615887   2.579   1.492   6.273 -0.4176 -0.7025 -0.6025
  145SAPE  H16R15888   2.492   1.511   6.339  0.1199 -0.1299 -0.0542
  145SAPE  H16S15889   2.552   1.407   6.207  0.1904 -1.0973 -0.3568
  145SAPE  C21715890   2.602   1.619   6.193 -0.3086 -0.2268  1.0495
  145SAPE  H17R15891   2.544   1.622   6.098 -2.6547  0.3343  2.3963
  145SAPE  H17S15892   2.706   1.616   6.156 -0.1274 -1.5073  1.6042
  145SAPE  C21815893   2.592   1.750   6.273  0.5551 -0.0827  0.2948
  145SAPE  H18R15894   2.660   1.723   6.356  0.5289  0.8476  0.6232
  145SAPE  H18S15895   2.489   1.775   6.308  0.1252 -1.3144 -0.0130
  145SAPE  C21915896   2.657   1.872   6.197  1.0681 -0.0338  0.8642
  145SAPE  H19R15897   2.584   1.904   6.120 -0.0412  0.4093  2.0654
  145SAPE  H19S15898   2.742   1.842   6.132 -0.1660  1.0015 -1.3370
  145SAPE  C22015899   2.689   1.986   6.286  0.1257 -0.7048 -0.3670
  145SAPE  H20R15900   2.761   1.957   6.365 -1.5769  0.1007  1.5724
  145SAPE  H20S15901   2.606   2.018   6.353  0.2182 -0.0192 -0.5685
  145SAPE  H20T15902   2.708   2.074   6.220 -0.9038 -1.5644 -1.8484
  145SAPE   C3315903   3.558   0.545   6.869 -0.0227 -0.5391 -0.1055
  145SAPE   H3X15904   3.487   0.519   6.951  1.4360  0.8566  1.6764
  145SAPE   H3Y15905   3.654   0.502   6.904 -1.2801 -1.5226  2.4114
  145SAPE   C3415906   3.527   0.480   6.737 -0.0413 -0.3212  0.2792
  145SAPE   H4X15907   3.424   0.502   6.701  0.5113  0.7978 -0.6615
  145SAPE   H4Y15908   3.527   0.370   6.753  2.0517 -0.5101 -0.7060
  145SAPE   C3515909   3.628   0.513   6.631  0.2315  0.5765 -0.1169
  145SAPE   H5X15910   3.728   0.486   6.669  0.3876  2.2953  0.8170
  145SAPE   H5Y15911   3.627   0.623   6.612  0.4662  0.6861  0.5003
  145SAPE   C3615912   3.616   0.435   6.503  0.4494 -0.3106  0.1840
  145SAPE   H6X15913   3.592   0.328   6.523  1.7736 -0.9680 -1.5248
  145SAPE   H6Y15914   3.714   0.442   6.451  0.0656  0.3204 -0.4668
  145SAPE   C3715915   3.509   0.491   6.413  0.0873 -0.3390 -0.9561
  145SAPE   H7X15916   3.525   0.601   6.407 -0.7130 -0.2941 -2.7904
  145SAPE   H7Y15917   3.408   0.475   6.457  0.1330  1.8867  0.1502
  145SAPE   C3815918   3.517   0.423   6.280  0.6985  0.5567  0.5851
  145SAPE   H8X15919   3.417   0.445   6.238  0.7586 -2.9537 -1.8514
  145SAPE   H8Y15920   3.499   0.315   6.295 -3.7517  1.0572  0.0250
  145SAPE   C3915921   3.629   0.461   6.183  0.2623 -0.2294 -0.0679
  145SAPE   H9X15922   3.727   0.426   6.223  0.5241  0.0805 -0.4330
  145SAPE   H9Y15923   3.631   0.572   6.181  1.4252 -0.1681  1.6544
  145SAPE  C31015924   3.600   0.425   6.036  0.1392 -0.1144  0.2405
  145SAPE  H10X15925   3.510   0.485   6.011 -0.4667  0.0391  2.5230
  145SAPE  H10Y15926   3.579   0.316   6.033 -0.1495 -0.0714  0.5452
  145SAPE  C31115927   3.722   0.471   5.945 -0.1265 -0.4359 -0.3589
  145SAPE  H11X15928   3.815   0.409   5.952 -0.6889 -1.2823 -0.2600
  145SAPE  H11Y15929   3.742   0.577   5.970 -3.2572 -0.2520  1.8998
  145SAPE  C31215930   3.676   0.473   5.801  0.1519 -0.5417  0.2412
  145SAPE  H12X15931   3.588   0.540   5.792  1.2721  0.8385 -0.7630
  145SAPE  H12Y15932   3.637   0.373   5.771 -2.2338  0.5928 -0.6838
  145SAPE  C31315933   3.771   0.532   5.689  0.0995  0.0931 -0.0060
  145SAPE  H13X15934   3.804   0.633   5.719 -0.5877 -0.0669  1.3326
  145SAPE  H13Y15935   3.711   0.534   5.595  0.9234  0.7909 -0.5342
  145SAPE  C31415936   3.900   0.455   5.662 -0.1164  0.3225 -0.0974
  145SAPE  H14X15937   3.892   0.351   5.622 -2.8653 -0.3249  1.8260
  145SAPE  H14Y15938   3.968   0.438   5.747  1.5066 -2.7810 -1.8122
  145SAPE  C31515939   3.991   0.527   5.553  0.3864 -0.1117 -0.2800
  145SAPE  H15X15940   4.099   0.502   5.557  0.3462 -0.7515 -2.3843
  145SAPE  H15Y15941   3.982   0.636   5.573  0.2340 -0.1067 -0.3738
  145SAPE  C31615942   3.950   0.499   5.407  0.1880 -0.2915  0.2384
  145SAPE  H16X15943   3.844   0.529   5.391 -0.7587 -2.3164  2.2297
  145SAPE  H16Y15944   3.949   0.388   5.413 -1.6543 -0.2430  2.1617
  145SAPE  C31715945   4.039   0.558   5.290  0.0585  0.3857 -0.5373
  145SAPE  H17X15946   4.018   0.667   5.292 -0.0453  0.3651 -0.5267
  145SAPE  H17Y15947   3.995   0.522   5.194  1.4076 -1.7509 -0.4093
  145SAPE  C31815948   4.186   0.524   5.324 -0.5596 -0.1288  0.0271
  145SAPE  H18X15949   4.206   0.415   5.331  1.8757  0.2581 -0.0348
  145SAPE  H18Y15950   4.227   0.571   5.416 -0.8699 -0.2730  0.2440
  145SAPE  H18Z15951   4.242   0.569   5.240  1.2529  2.6933  2.5356
  146SAPE     N15952   4.399   3.823   7.714  0.7618 -0.1445  0.0678
  146SAPE   HN115953   4.420   3.792   7.811  1.5692  0.7896  0.2175
  146SAPE   HN215954   4.482   3.808   7.653  0.7380 -0.1791  0.0439
  146SAPE   HN315955   4.380   3.925   7.710  1.6109  0.2123  2.8310
  146SAPE   C1215956   4.287   3.741   7.653 -0.2178 -0.6554  0.6472
  146SAPE  H12A15957   4.195   3.802   7.665 -0.1698 -0.8740  2.4148
  146SAPE  H12B15958   4.280   3.647   7.713  1.0701  0.2718  2.3223
  146SAPE   C1115959   4.309   3.699   7.510 -0.0438  0.3409  0.8916
  146SAPE  H11A15960   4.301   3.776   7.431  0.7904 -0.9442 -0.4819
  146SAPE  H11B15961   4.232   3.624   7.480  0.4478  0.1618  0.0580
  146SAPE     P15962   4.474   3.498   7.491  0.1855  0.4433  0.3854
  146SAPE   O1315963   4.606   3.479   7.550 -0.5174  0.2855  0.3554
  146SAPE   O1415964   4.358   3.415   7.537  0.5232 -0.0624 -0.9330
  146SAPE   O1215965   4.445   3.652   7.496 -0.4528 -0.0149  0.2655
  146SAPE   O1115966   4.484   3.468   7.329  0.0494 -0.0328  0.0461
  146SAPE    C115967   4.596   3.519   7.259  0.5408  0.2673  0.4451
  146SAPE    HA15968   4.560   3.613   7.212  1.5057  0.8475  0.8318
  146SAPE    HB15969   4.681   3.551   7.323  1.4562  0.5711 -0.8884
  146SAPE    C215970   4.641   3.421   7.144  0.1422  0.1966 -0.2365
  146SAPE    HS15971   4.724   3.466   7.086  0.7261  0.0780  0.4923
  146SAPE   O2115972   4.534   3.382   7.052 -0.2403  0.5457 -0.4466
  146SAPE   C2115973   4.496   3.483   6.974 -0.3411  0.0494  0.2432
  146SAPE   O2215974   4.550   3.597   6.975  0.3832  0.4266  0.3236
  146SAPE   C2215975   4.383   3.432   6.875  1.3317 -0.1443 -0.4347
  146SAPE   H2R15976   4.423   3.367   6.794 -2.9852 -0.8959 -2.2399
  146SAPE   H2S15977   4.311   3.374   6.937  1.3510  0.5640  0.2704
  146SAPE    C315978   4.705   3.291   7.200 -0.3438  0.3177 -0.5093
  146SAPE    HX15979   4.634   3.257   7.278  0.5428  2.0612  1.1498
  146SAPE    HY15980   4.795   3.321   7.257  1.2333 -0.1439 -2.6335
  146SAPE   O3115981   4.715   3.187   7.098  0.4786  0.0140 -0.2099
  146SAPE   C3115982   4.843   3.144   7.064  0.2783 -0.4242  0.4750
  146SAPE   O3215983   4.945   3.199   7.113  0.2006  0.0075  0.0759
  146SAPE   C3215984   4.817   3.047   6.948 -0.4792 -0.6559  0.8840
  146SAPE   H2X15985   4.734   3.090   6.888  0.5582 -0.8700 -0.8056
  146SAPE   H2Y15986   4.791   2.945   6.984 -0.0814 -1.4855 -1.0492
  146SAPE   C2315987   4.303   3.548   6.811  1.1490 -0.2662 -0.6165
  146SAPE   H3R15988   4.359   3.600   6.731 -0.9960 -0.0075 -2.0509
  146SAPE   H3S15989   4.283   3.631   6.882  2.6117 -1.2671  1.0380
  146SAPE   C2415990   4.170   3.511   6.742 -0.0785 -0.2877 -0.1720
  146SAPE   H4R15991   4.127   3.609   6.712  1.3084  0.5056  0.3428
  146SAPE   H4S15992   4.096   3.467   6.813 -0.9297  0.5609 -0.5000
  146SAPE   C2515993   4.185   3.411   6.630 -0.1311  0.5841 -0.7880
  146SAPE   H5R15994   4.256   3.328   6.646 -1.6544 -0.2823  2.3261
  146SAPE   C2615995   4.119   3.412   6.513  0.3048  0.5303  0.6934
  146SAPE   H6R15996   4.133   3.323   6.449 -1.3939 -0.1786  1.2373
  146SAPE   C2715997   4.027   3.519   6.472 -0.2393  0.2763  0.3343
  146SAPE   H7R15998   4.085   3.593   6.413 -0.8642  0.2307 -0.3504
  146SAPE   H7S15999   4.003   3.578   6.563  1.8118  1.1476  0.3772
  146SAPE   C2816000   3.905   3.468   6.398 -0.2459  0.3583 -0.2588
  146SAPE   H8R16001   3.828   3.416   6.456 -1.3579  1.4834 -0.6892
  146SAPE   C2916002   3.883   3.472   6.265 -0.1806  0.0506  0.1491
  146SAPE   H9R16003   3.794   3.430   6.215  1.7712 -3.0866 -1.0556
  146SAPE  C21016004   3.975   3.521   6.154 -0.2625 -0.0114 -0.5803
  146SAPE  H10R16005   4.043   3.593   6.205  1.6304 -2.6058  0.8317
  146SAPE  H10S16006   3.913   3.570   6.076 -1.5964 -2.2407 -1.0250
  146SAPE  C21116007   4.067   3.418   6.081 -0.4474 -0.7171 -0.5033
  146SAPE  H11R16008   4.176   3.426   6.094 -0.2935  0.1694 -2.1190
  146SAPE  C21216009   4.030   3.316   5.998  0.3446  0.0891 -0.0946
  146SAPE  H12R16010   4.107   3.254   5.951 -1.2344 -0.9784 -1.3877
  146SAPE  C21316011   3.887   3.274   5.964 -0.4504  0.8878 -0.5243
  146SAPE  H13R16012   3.821   3.300   6.050 -0.4256  0.1388 -0.2691
  146SAPE  H13S16013   3.897   3.164   5.959 -1.2746  0.7103  1.0896
  146SAPE  C21416014   3.833   3.335   5.838 -0.7638 -0.4496  0.6350
  146SAPE  H14R16015   3.807   3.442   5.840  0.2151 -0.2023  1.3811
  146SAPE  C21516016   3.799   3.260   5.731 -0.7634  0.7403 -0.5154
  146SAPE  H15R16017   3.752   3.318   5.650  0.5263  0.1347 -1.7506
  146SAPE  C21616018   3.833   3.115   5.708 -0.7714  0.4493  0.1761
  146SAPE  H16R16019   3.762   3.074   5.633 -0.1616 -0.0533 -0.1407
  146SAPE  H16S16020   3.825   3.059   5.803  0.6473 -0.5585 -0.2712
  146SAPE  C21716021   3.978   3.108   5.645  0.2346 -0.5041 -0.3702
  146SAPE  H17R16022   4.050   3.165   5.709  0.1802  0.7146 -1.3580
  146SAPE  H17S16023   3.973   3.165   5.550  0.1665 -0.2274 -0.2042
  146SAPE  C21816024   4.033   2.968   5.634  0.3786 -0.3982 -0.1822
  146SAPE  H18R16025   3.954   2.904   5.589  0.0213  0.3815 -0.6895
  146SAPE  H18S16026   4.048   2.931   5.737 -0.2693 -2.2884 -0.7149
  146SAPE  C21916027   4.168   2.958   5.563 -0.7773  0.0861  0.2610
  146SAPE  H19R16028   4.231   2.888   5.621  0.5729  0.0232 -1.2136
  146SAPE  H19S16029   4.210   3.060   5.568 -0.7118  0.0903 -0.2753
  146SAPE  C22016030   4.172   2.896   5.421 -0.5513 -0.2925  0.0540
  146SAPE  H20R16031   4.275   2.881   5.382 -1.2449 -0.9643 -1.5905
  146SAPE  H20S16032   4.125   2.971   5.354 -3.7451 -1.8073  0.4589
  146SAPE  H20T16033   4.119   2.799   5.415 -1.1869  0.1315 -1.8922
  146SAPE   C3316034   4.944   3.014   6.861 -0.2061  0.2081  0.9456
  146SAPE   H3X16035   4.918   2.931   6.793 -2.7190 -0.2262  2.3188
  146SAPE   H3Y16036   5.019   2.959   6.923  0.9493 -0.6046 -1.0832
  146SAPE   C3416037   5.014   3.137   6.805  0.0942  0.2566 -0.5224
  146SAPE   H4X16038   5.074   3.189   6.883 -1.8081  2.6421 -0.5399
  146SAPE   H4Y16039   4.936   3.200   6.758 -0.4437  0.7110  0.9243
  146SAPE   C3516040   5.110   3.100   6.693  0.6749  0.2431  0.7385
  146SAPE   H5X16041   5.051   3.065   6.605  1.8996 -0.5599  0.2169
  146SAPE   H5Y16042   5.168   3.011   6.725  0.3617 -1.1568 -2.2241
  146SAPE   C3616043   5.196   3.212   6.642  0.0043  0.1266 -0.9223
  146SAPE   H6X16044   5.278   3.242   6.711 -1.0833  0.5218  0.2446
  146SAPE   H6Y16045   5.135   3.304   6.630 -0.2862 -0.0614 -0.8941
  146SAPE   C3716046   5.256   3.176   6.508  0.1446  0.6846 -0.1007
  146SAPE   H7X16047   5.187   3.209   6.427 -0.6999  0.2089  0.4082
  146SAPE   H7Y16048   5.268   3.066   6.499 -0.1261  0.8403 -4.5448
  146SAPE   C3816049   5.385   3.247   6.498 -0.6429 -0.4463 -0.3261
  146SAPE   H8X16050   5.449   3.207   6.580  0.3597  0.3281 -0.6996
  146SAPE   H8Y16051   5.359   3.354   6.512  0.1432  0.4228 -4.2516
  146SAPE   C3916052   5.465   3.233   6.366  0.9320  0.5406  0.0141
  146SAPE   H9X16053   5.561   3.290   6.365  1.1498  0.1824  0.1874
  146SAPE   H9Y16054   5.400   3.272   6.285 -1.8252 -5.2046 -1.0319
  146SAPE  C31016055   5.503   3.077   6.343 -0.1371  0.1772 -0.4941
  146SAPE  H10X16056   5.416   3.008   6.340  0.4488 -0.5836 -0.3005
  146SAPE  H10Y16057   5.553   3.053   6.439  0.8275 -0.3049 -1.0947
  146SAPE  C31116058   5.613   3.059   6.236 -0.0466 -0.3223  0.1705
  146SAPE  H11X16059   5.661   2.960   6.249  0.5078 -0.2240 -1.0348
  146SAPE  H11Y16060   5.693   3.133   6.256 -1.1232  0.4330  1.9216
  146SAPE  C31216061   5.557   3.079   6.101 -0.5874 -0.1358  0.1355
  146SAPE  H12X16062   5.457   3.128   6.104 -0.0922  0.9459 -0.4648
  146SAPE  H12Y16063   5.542   2.982   6.048  0.0047  0.3553 -0.9588
  146SAPE  C31316064   5.643   3.164   6.014 -0.1499  0.3297  0.1744
  146SAPE  H13X16065   5.728   3.097   5.990 -1.2782 -2.2214  2.7630
  146SAPE  H13Y16066   5.681   3.257   6.061 -2.0479  1.8406 -1.1088
  146SAPE  C31416067   5.587   3.198   5.879  0.1913  0.1273 -0.5115
  146SAPE  H14X16068   5.520   3.286   5.890  0.4817  0.0961  2.2595
  146SAPE  H14Y16069   5.520   3.124   5.831 -0.8313 -1.5722  3.1608
  146SAPE  C31516070   5.699   3.228   5.775  0.7201  0.2769 -0.3014
  146SAPE  H15X16071   5.661   3.232   5.670 -1.6763 -3.5345  0.2350
  146SAPE  H15Y16072   5.767   3.141   5.778 -1.9679 -1.9559 -0.3981
  146SAPE  C31616073   5.772   3.361   5.805 -0.4740  0.6197  0.2018
  146SAPE  H16X16074   5.843   3.352   5.891  0.3257  0.8227 -0.4214
  146SAPE  H16Y16075   5.698   3.438   5.836 -0.7211 -0.1102  1.4818
  146SAPE  C31716076   5.854   3.429   5.689 -0.0793  0.4714 -0.5181
  146SAPE  H17X16077   5.953   3.380   5.679 -0.2804 -0.4433  1.3811
  146SAPE  H17Y16078   5.877   3.534   5.715 -1.1832  0.3160  1.3113
  146SAPE  C31816079   5.786   3.435   5.550 -1.0759  0.5400  0.2136
  146SAPE  H18X16080   5.811   3.341   5.495  2.1941  1.8350 -0.7606
  146SAPE  H18Y16081   5.814   3.523   5.489 -0.1253 -0.2314 -0.5142
  146SAPE  H18Z16082   5.677   3.451   5.556 -1.8991 -3.7245  0.0460
  147SAPE     N16083   5.913   6.025   7.922 -0.3348 -0.1399  0.3257
  147SAPE   HN116084   5.982   6.045   7.846 -1.0846  0.0867 -0.3118
  147SAPE   HN216085   5.925   6.107   7.985  0.8096 -0.5951  0.7241
  147SAPE   HN316086   5.944   5.937   7.968 -1.2855 -1.5362 -1.5850
  147SAPE   C1216087   5.775   6.025   7.865  0.3514  0.3811 -0.0512
  147SAPE  H12A16088   5.771   6.115   7.800  0.2762  0.1621 -0.3571
  147SAPE  H12B16089   5.708   6.058   7.948  0.5384  0.5847  0.0196
  147SAPE   C1116090   5.739   5.891   7.797  0.1606  0.4575 -0.0212
  147SAPE  H11A16091   5.644   5.921   7.747  0.0802 -1.3223 -1.0068
  147SAPE  H11B16092   5.718   5.812   7.871 -0.0362 -0.2405 -0.8014
  147SAPE     P16093   5.841   5.701   7.651  0.1141  0.2179 -0.0781
  147SAPE   O1316094   5.960   5.680   7.560  0.5303 -0.1361  0.0652
  147SAPE   O1416095   5.842   5.623   7.777  0.7303 -0.4964 -0.1675
  147SAPE   O1216096   5.836   5.853   7.696 -0.5272 -0.4363 -0.0129
  147SAPE   O1116097   5.704   5.691   7.570  0.2342 -0.1161 -0.4096
  147SAPE    C116098   5.663   5.783   7.468  0.6996  0.6687  0.2176
  147SAPE    HA16099   5.594   5.861   7.505 -2.5656 -1.8051 -0.1889
  147SAPE    HB16100   5.753   5.839   7.434  0.8097 -1.2204 -3.0437
  147SAPE    C216101   5.585   5.713   7.347  0.2028 -0.2692  0.6342
  147SAPE    HS16102   5.497   5.657   7.384 -1.5650  0.6113 -1.9582
  147SAPE   O2116103   5.680   5.640   7.263  0.3205  0.5316 -0.5068
  147SAPE   C2116104   5.669   5.512   7.271 -0.3943 -0.3445  0.5601
  147SAPE   O2216105   5.595   5.457   7.346  0.9436  0.4068  0.0829
  147SAPE   C2216106   5.766   5.442   7.168 -0.0538 -0.4856 -0.4290
  147SAPE   H2R16107   5.742   5.476   7.065  1.0778  0.9872 -0.2334
  147SAPE   H2S16108   5.870   5.476   7.181  1.3240 -4.1241 -0.7806
  147SAPE    C316109   5.536   5.827   7.242  0.0474  0.1802 -0.4351
  147SAPE    HX16110   5.448   5.879   7.287 -0.7016 -0.9435 -0.5615
  147SAPE    HY16111   5.497   5.773   7.153 -1.9936  0.4684  0.2366
  147SAPE   O3116112   5.639   5.926   7.216 -0.0001 -0.2962  0.2761
  147SAPE   C3116113   5.682   5.935   7.087  0.0759 -0.6687 -0.0180
  147SAPE   O3216114   5.647   5.855   7.003  0.0889  0.1166  0.3371
  147SAPE   C3216115   5.756   6.074   7.075 -0.5339  0.7105  0.1008
  147SAPE   H2X16116   5.833   6.073   7.155  0.8959 -1.9768 -1.1537
  147SAPE   H2Y16117   5.690   6.162   7.084 -0.2881  1.5820 -4.3531
  147SAPE   C2316118   5.765   5.289   7.183 -0.5586 -0.3662 -0.3360
  147SAPE   H3R16119   5.671   5.232   7.166 -0.2886 -1.4092  1.4032
  147SAPE   H3S16120   5.783   5.266   7.290 -1.8322 -0.6396 -0.1651
  147SAPE   C2416121   5.879   5.216   7.092 -0.6108 -0.4472  0.5215
  147SAPE   H4R16122   5.913   5.123   7.141  1.5024 -0.0737 -0.1396
  147SAPE   H4S16123   5.971   5.279   7.098 -1.7170  1.4514 -0.9971
  147SAPE   C2516124   5.843   5.180   6.948 -0.3750 -0.0125 -0.9537
  147SAPE   H5R16125   5.756   5.113   6.949  0.0542 -0.5767 -0.4996
  147SAPE   C2616126   5.912   5.203   6.838 -0.3857 -0.5607 -0.7085
  147SAPE   H6R16127   5.866   5.163   6.747 -0.0689  1.5369 -1.8724
  147SAPE   C2716128   6.053   5.266   6.821  0.0856 -0.3861  0.2650
  147SAPE   H7R16129   6.121   5.186   6.783  2.5351  1.4389  0.5341
  147SAPE   H7S16130   6.107   5.276   6.918 -0.9880 -0.4856  0.8798
  147SAPE   C2816131   6.077   5.388   6.741  0.3402 -0.1095  0.2654
  147SAPE   H8R16132   6.099   5.476   6.804 -0.9407 -0.9373  1.9238
  147SAPE   C2916133   6.072   5.388   6.606  0.2783 -0.1091  0.1130
  147SAPE   H9R16134   6.100   5.481   6.555  1.6550 -0.5793 -0.0328
  147SAPE  C21016135   6.037   5.259   6.519  0.1532 -0.0494 -0.2982
  147SAPE  H10R16136   6.017   5.169   6.581  0.4664 -2.2699 -3.2281
  147SAPE  H10S16137   6.125   5.228   6.459  0.3630  0.3082 -0.1772
  147SAPE  C21116138   5.909   5.275   6.436  0.1764 -0.0304 -0.2432
  147SAPE  H11R16139   5.818   5.299   6.492 -0.8944 -1.5467 -1.2774
  147SAPE  C21216140   5.907   5.278   6.302  0.3457  0.5642 -1.3834
  147SAPE  H12R16141   5.813   5.298   6.248  0.8606  3.4110 -1.3732
  147SAPE  C21316142   6.016   5.237   6.206 -0.1315  0.1014 -0.9465
  147SAPE  H13R16143   5.964   5.195   6.117  1.6311 -3.3824 -0.5335
  147SAPE  H13S16144   6.075   5.148   6.236 -1.8944 -1.6823 -2.4367
  147SAPE  C21416145   6.114   5.349   6.167  0.4093  0.4848  0.1124
  147SAPE  H14R16146   6.169   5.392   6.252 -0.5023  1.3375  0.2970
  147SAPE  C21516147   6.163   5.373   6.042  0.1969  0.3360  0.5865
  147SAPE  H15R16148   6.239   5.453   6.040  0.6588 -0.0708  1.3690
  147SAPE  C21616149   6.113   5.322   5.911 -0.2065  0.3211 -0.5497
  147SAPE  H16R16150   6.027   5.253   5.924 -0.2848  0.5467  0.1639
  147SAPE  H16S16151   6.190   5.261   5.858 -0.3319 -0.1278 -0.2248
  147SAPE  C21716152   6.073   5.428   5.812 -0.1734  0.9561  0.1218
  147SAPE  H17R16153   6.151   5.507   5.802 -0.0790  1.5116  3.6946
  147SAPE  H17S16154   5.984   5.480   5.854 -1.5001  0.2968 -1.7617
  147SAPE  C21816155   6.044   5.380   5.667 -0.4645  0.2614  0.7503
  147SAPE  H18R16156   5.955   5.313   5.670  1.3344 -2.5453 -2.0957
  147SAPE  H18S16157   6.132   5.331   5.620 -1.4976 -0.0713 -0.9268
  147SAPE  C21916158   6.016   5.504   5.578  0.0517  0.1149 -0.1960
  147SAPE  H19R16159   6.096   5.580   5.591  0.1057 -0.0366  0.4011
  147SAPE  H19S16160   5.925   5.544   5.626  0.8386  3.8778 -1.5329
  147SAPE  C22016161   5.987   5.462   5.433  0.5121 -1.0678  0.0545
  147SAPE  H20R16162   6.073   5.416   5.379  0.1119 -1.8560  0.0733
  147SAPE  H20S16163   5.957   5.558   5.387  0.6375  0.2823  2.6783
  147SAPE  H20T16164   5.896   5.398   5.427 -1.0105  0.9589  0.4783
  147SAPE   C3316165   5.830   6.087   6.938  0.2759  0.2586  0.2383
  147SAPE   H3X16166   5.754   6.076   6.858  1.2695 -0.7474 -0.6032
  147SAPE   H3Y16167   5.901   6.002   6.923 -0.2101 -0.1644  0.3190
  147SAPE   C3416168   5.915   6.207   6.925  0.0377  0.0538  0.7366
  147SAPE   H4X16169   6.000   6.201   6.996 -1.0312  1.2511  2.2057
  147SAPE   H4Y16170   5.852   6.285   6.975  0.5581  1.2690 -0.4316
  147SAPE   C3516171   5.956   6.248   6.780 -0.0913  0.0815 -0.5938
  147SAPE   H5X16172   6.025   6.162   6.769 -0.1441  0.1319 -1.3612
  147SAPE   H5Y16173   6.016   6.341   6.781  2.3083 -1.3748 -1.2396
  147SAPE   C3616174   5.845   6.252   6.665 -0.9348  0.1233  0.0615
  147SAPE   H6X16175   5.754   6.310   6.692 -2.3236 -0.3629 -3.1050
  147SAPE   H6Y16176   5.808   6.150   6.643  0.8862 -1.0617  2.1007
  147SAPE   C3716177   5.901   6.310   6.530 -0.5956  0.2647  0.7467
  147SAPE   H7X16178   5.968   6.231   6.488 -1.1166  1.0546 -1.7566
  147SAPE   H7Y16179   5.944   6.411   6.545 -0.2548 -0.2143  3.3986
  147SAPE   C3816180   5.791   6.323   6.420 -0.2067 -0.0762 -0.0616
  147SAPE   H8X16181   5.739   6.416   6.449  0.2943  0.6459 -1.4171
  147SAPE   H8Y16182   5.707   6.250   6.411  0.4468 -0.5996 -2.9129
  147SAPE   C3916183   5.856   6.354   6.281 -0.5655  0.2613 -0.4203
  147SAPE   H9X16184   5.958   6.396   6.290 -1.2245  1.6532  1.1173
  147SAPE   H9Y16185   5.793   6.432   6.232 -1.5048 -1.4952 -2.1676
  147SAPE  C31016186   5.858   6.241   6.184 -0.6984 -0.3776  0.4510
  147SAPE  H10X16187   5.911   6.256   6.088  1.3649 -1.3488  1.3659
  147SAPE  H10Y16188   5.753   6.213   6.162 -0.1064 -1.1129 -1.5608
  147SAPE  C31116189   5.926   6.116   6.245  0.6266 -0.0835  0.6015
  147SAPE  H11X16190   5.882   6.104   6.346 -2.2668  1.7048 -0.3350
  147SAPE  H11Y16191   6.035   6.128   6.263  1.2507 -4.2115  0.4985
  147SAPE  C31216192   5.904   5.983   6.165  0.0808 -0.2479  0.0123
  147SAPE  H12X16193   5.798   5.982   6.132 -0.0076 -0.6322  0.3025
  147SAPE  H12Y16194   5.929   5.908   6.243 -1.4261 -0.6352  0.1498
  147SAPE  C31316195   5.994   5.970   6.043 -0.1963  0.1644  0.5332
  147SAPE  H13X16196   6.061   5.886   6.068  1.1059  1.5375  1.7936
  147SAPE  H13Y16197   6.052   6.062   6.021 -0.4340  0.5330  1.4172
  147SAPE  C31416198   5.931   5.950   5.901 -0.5682 -0.4304 -0.4918
  147SAPE  H14X16199   5.866   6.039   5.888  0.7697  0.7288  0.3970
  147SAPE  H14Y16200   5.872   5.856   5.911 -0.1200 -0.5423  1.6121
  147SAPE  C31516201   6.024   5.939   5.778  0.7241  0.5837  0.2174
  147SAPE  H15X16202   6.112   5.874   5.800 -1.0009 -1.3856  1.7558
  147SAPE  H15Y16203   6.066   6.036   5.746  0.8085 -0.0543 -1.6863
  147SAPE  C31616204   5.946   5.870   5.665  0.1045 -0.4361  0.2019
  147SAPE  H16X16205   5.842   5.901   5.689  0.4636  1.5888 -0.6711
  147SAPE  H16Y16206   5.928   5.761   5.675 -2.5195 -0.3102 -2.0497
  147SAPE  C31716207   5.976   5.901   5.522  0.3846 -0.0404  0.4900
  147SAPE  H17X16208   5.947   6.007   5.508  0.0250  0.0359  1.7134
  147SAPE  H17Y16209   5.909   5.841   5.458 -0.8972  0.8065  0.9996
  147SAPE  C31816210   6.115   5.878   5.474 -0.3696  0.4490 -0.5901
  147SAPE  H18X16211   6.146   5.774   5.500  1.4042  1.1419  0.2523
  147SAPE  H18Y16212   6.183   5.954   5.518 -0.7073  0.3217  0.1815
  147SAPE  H18Z16213   6.139   5.876   5.366  2.4655 -3.8879 -0.1737
  148SAPE     N16214   2.434   0.005   7.624 -0.2432  0.3273 -0.0958
  148SAPE   HN116215   2.392  -0.089   7.639  1.7060 -0.5203  0.3228
  148SAPE   HN216216   2.521   0.020   7.679  1.0643  1.8681 -2.3883
  148SAPE   HN316217   2.364   0.071   7.663 -1.4630 -0.0796 -1.5327
  148SAPE   C1216218   2.470   0.039   7.482  0.2986 -0.0830 -0.9208
  148SAPE  H12A16219   2.555   0.111   7.480 -1.2292  1.9958  1.8013
  148SAPE  H12B16220   2.376   0.067   7.430 -0.4980 -1.5385 -0.3134
  148SAPE   C1116221   2.522  -0.091   7.420 -0.1015  0.3032 -0.5972
  148SAPE  H11A16222   2.539  -0.066   7.313  0.0237  1.3495 -0.3528
  148SAPE  H11B16223   2.444  -0.170   7.424  0.5169 -0.2798  0.7904
  148SAPE     P16224   2.775  -0.077   7.426  0.1962 -0.0842  0.1319
  148SAPE   O1316225   2.779   0.066   7.459  0.2019 -0.0602  0.0131
  148SAPE   O1416226   2.883  -0.170   7.464 -0.0121 -0.0690 -0.1332
  148SAPE   O1216227   2.643  -0.141   7.472 -0.2937  0.2000 -0.6574
  148SAPE   O1116228   2.754  -0.084   7.272  0.2753 -0.2878  0.8127
  148SAPE    C116229   2.783  -0.211   7.210  0.7488  0.9030 -0.1893
  148SAPE    HA16230   2.891  -0.236   7.205  0.4376 -0.5100 -0.4394
  148SAPE    HB16231   2.738  -0.295   7.267  0.0447  0.7579 -0.9477
  148SAPE    C216232   2.729  -0.225   7.061  0.7459  0.3599 -0.3323
  148SAPE    HS16233   2.622  -0.255   7.056  0.6965  0.6954 -1.5896
  148SAPE   O2116234   2.813  -0.327   6.994 -0.0231 -0.3815  0.2135
  148SAPE   C2116235   2.784  -0.451   7.037 -0.2406 -0.0067  0.0336
  148SAPE   O2216236   2.717  -0.486   7.130 -0.2747  0.1211 -0.1286
  148SAPE   C2216237   2.857  -0.550   6.944 -0.0187  0.4760  0.2734
  148SAPE   H2R16238   2.939  -0.494   6.894 -1.8412  3.8277  0.7150
  148SAPE   H2S16239   2.908  -0.622   7.011  0.1130 -1.4597 -1.8104
  148SAPE    C316240   2.748  -0.106   6.970 -0.4432  0.7357 -0.7560
  148SAPE    HX16241   2.850  -0.071   6.997  0.0877 -1.7891  0.8706
  148SAPE    HY16242   2.677  -0.037   7.020 -0.8926 -0.4731  0.3455
  148SAPE   O3116243   2.733  -0.124   6.830  0.5003  0.2521  0.0761
  148SAPE   C3116244   2.617  -0.101   6.783  0.3160  0.3608  0.6905
  148SAPE   O3216245   2.524  -0.038   6.831  0.5989  0.5034 -0.3439
  148SAPE   C3216246   2.605  -0.180   6.651  0.9380 -0.4482  0.0504
  148SAPE   H2X16247   2.599  -0.286   6.685  0.8102 -0.6908 -0.7018
  148SAPE   H2Y16248   2.690  -0.172   6.580 -0.7811  1.5916 -1.9327
  148SAPE   C2316249   2.765  -0.618   6.850 -0.4243 -0.2223 -0.1039
  148SAPE   H3R16250   2.712  -0.546   6.785  1.6403 -0.0934 -1.7466
  148SAPE   H3S16251   2.690  -0.675   6.910 -0.4181  1.0542  1.1666
  148SAPE   C2416252   2.837  -0.732   6.777 -0.2105 -0.4343 -0.2422
  148SAPE   H4R16253   2.890  -0.799   6.847 -2.3060 -1.2235  0.6631
  148SAPE   H4S16254   2.901  -0.684   6.699 -1.5332  0.3849 -0.8678
  148SAPE   C2516255   2.737  -0.824   6.707 -0.1044  0.2692 -0.2958
  148SAPE   H5R16256   2.724  -0.919   6.760 -0.7903 -0.0484 -1.0166
  148SAPE   C2616257   2.676  -0.796   6.593  0.4361  0.0862  0.4127
  148SAPE   H6R16258   2.604  -0.874   6.563  2.0490 -1.2698 -0.1650
  148SAPE   C2716259   2.689  -0.676   6.493  0.1475 -0.1760 -0.1736
  148SAPE   H7R16260   2.730  -0.582   6.536 -1.1094  0.0639  0.5524
  148SAPE   H7S16261   2.584  -0.647   6.470  0.8447  2.4068 -0.3840
  148SAPE   C2816262   2.774  -0.722   6.382  0.0303 -0.2960 -0.2014
  148SAPE   H8R16263   2.821  -0.819   6.407 -0.6967 -0.3074  1.2019
  148SAPE   C2916264   2.784  -0.660   6.255  0.2965 -0.8570  0.7500
  148SAPE   H9R16265   2.847  -0.696   6.172 -1.4533 -1.2210 -0.4746
  148SAPE  C21016266   2.685  -0.550   6.210  0.0351 -0.0219 -0.1359
  148SAPE  H10R16267   2.721  -0.485   6.128 -3.7524  1.4588 -0.8441
  148SAPE  H10S16268   2.637  -0.484   6.285 -2.2667  0.1899 -1.6812
  148SAPE  C21116269   2.569  -0.621   6.146 -0.2424 -0.0094  0.4364
  148SAPE  H11R16270   2.480  -0.642   6.207 -0.7871  0.4420 -0.1866
  148SAPE  C21216271   2.558  -0.651   6.015  0.3668 -0.5750  0.1716
  148SAPE  H12R16272   2.458  -0.688   5.986  0.5967  0.6442 -2.5418
  148SAPE  C21316273   2.649  -0.618   5.897 -0.0168  0.8101 -0.8623
  148SAPE  H13R16274   2.725  -0.698   5.882 -1.9892 -0.8389 -2.8850
  148SAPE  H13S16275   2.712  -0.527   5.904  0.4247  0.6340 -2.2638
  148SAPE  C21416276   2.577  -0.592   5.774  0.0378 -0.8636 -0.2287
  148SAPE  H14R16277   2.575  -0.486   5.744  1.6206 -0.4600  0.9845
  148SAPE  C21516278   2.515  -0.683   5.698  0.4225  0.5451  0.2731
  148SAPE  H15R16279   2.466  -0.655   5.604  0.2688 -2.4320 -0.6506
  148SAPE  C21616280   2.516  -0.829   5.735 -0.1539  0.3572  0.1598
  148SAPE  H16R16281   2.570  -0.853   5.829  1.7496  0.7954 -0.7796
  148SAPE  H16S16282   2.565  -0.887   5.654  0.8662  1.6218 -0.1674
  148SAPE  C21716283   2.371  -0.892   5.741 -0.1505 -0.2884 -0.3561
  148SAPE  H17R16284   2.306  -0.811   5.781 -3.0590 -2.1544 -1.0042
  148SAPE  H17S16285   2.369  -0.984   5.803  3.0460 -1.0102 -1.1516
  148SAPE  C21816286   2.300  -0.939   5.610  0.1567  0.3003  0.4215
  148SAPE  H18R16287   2.304  -0.861   5.531 -1.6116 -0.4195 -0.4241
  148SAPE  H18S16288   2.195  -0.967   5.631  0.1195  0.7823  0.9089
  148SAPE  C21916289   2.384  -1.051   5.532 -0.2725  0.7549  0.3572
  148SAPE  H19R16290   2.494  -1.038   5.537  0.0895 -1.9748  1.0016
  148SAPE  H19S16291   2.355  -1.044   5.425 -0.1040 -1.6872  0.0852
  148SAPE  C22016292   2.346  -1.186   5.597 -0.0232 -0.0025  0.3011
  148SAPE  H20R16293   2.361  -1.190   5.707 -1.2117 -1.0822  0.4409
  148SAPE  H20S16294   2.396  -1.273   5.551 -1.7884 -1.2896  0.7148
  148SAPE  H20T16295   2.236  -1.196   5.582 -0.2532  0.7153  1.3619
  148SAPE   C3316296   2.478  -0.145   6.581  0.0440 -0.6682  0.4263
  148SAPE   H3X16297   2.477  -0.036   6.562  1.2675 -1.0410 -2.4247
  148SAPE   H3Y16298   2.393  -0.171   6.646  0.4951 -1.4229  0.7382
  148SAPE   C3416299   2.458  -0.208   6.439  0.1707 -0.3461 -0.7036
  148SAPE   H4X16300   2.362  -0.168   6.400 -0.3547  3.8914  3.9753
  148SAPE   H4Y16301   2.442  -0.317   6.452 -1.3003 -0.1849 -0.9820
  148SAPE   C3516302   2.565  -0.179   6.335 -0.1026  0.3212  0.4778
  148SAPE   H5X16303   2.655  -0.238   6.364 -0.9038 -0.7706  0.8134
  148SAPE   H5Y16304   2.599  -0.074   6.322 -1.6400  0.4305 -5.8165
  148SAPE   C3616305   2.513  -0.222   6.198 -0.3235  0.3127 -0.7575
  148SAPE   H6X16306   2.422  -0.160   6.186 -1.3671 -0.9551  0.2466
  148SAPE   H6Y16307   2.478  -0.328   6.193  1.9699 -0.5294 -0.3180
  148SAPE   C3716308   2.610  -0.184   6.090  0.3724  0.4813  0.2322
  148SAPE   H7X16309   2.711  -0.215   6.123  0.3723  1.6592  1.4432
  148SAPE   H7Y16310   2.605  -0.074   6.074  1.6048  0.6185  0.7513
  148SAPE   C3816311   2.578  -0.241   5.953  0.1003 -0.0977  0.1520
  148SAPE   H8X16312   2.554  -0.349   5.964 -3.2709  0.7235  2.7233
  148SAPE   H8Y16313   2.664  -0.230   5.884 -0.2693  1.8185 -0.0674
  148SAPE   C3916314   2.446  -0.181   5.893 -0.1364 -0.0472  0.1106
  148SAPE   H9X16315   2.461  -0.071   5.888 -1.2342  0.0429 -2.0032
  148SAPE   H9Y16316   2.358  -0.211   5.955 -0.0048 -1.1686 -0.2286
  148SAPE  C31016317   2.422  -0.230   5.748  0.7054 -0.1764  0.7328
  148SAPE  H10X16318   2.325  -0.192   5.710  2.1749  1.3481 -1.7988
  148SAPE  H10Y16319   2.416  -0.340   5.731  1.2529  0.1060 -1.6678
  148SAPE  C31116320   2.525  -0.177   5.658 -0.0202 -0.4386  0.6796
  148SAPE  H11X16321   2.625  -0.225   5.665 -0.0130 -0.3075  1.5621
  148SAPE  H11Y16322   2.543  -0.072   5.690 -1.5957  0.9621 -2.5474
  148SAPE  C31216323   2.480  -0.165   5.509 -0.0382 -0.1508 -0.1617
  148SAPE  H12X16324   2.387  -0.104   5.505 -0.7571 -1.0801  1.2330
  148SAPE  H12Y16325   2.445  -0.267   5.480 -0.0894 -0.2448  0.2195
  148SAPE  C31316326   2.589  -0.118   5.410 -0.1840  0.8147  0.0634
  148SAPE  H13X16327   2.568  -0.126   5.301  1.0157  2.6537 -0.3442
  148SAPE  H13Y16328   2.683  -0.174   5.432  0.9417  2.4449 -0.4528
  148SAPE  C31416329   2.618   0.035   5.426  0.3448  0.1625  0.0724
  148SAPE  H14X16330   2.632   0.060   5.533 -0.2743  1.4482 -0.1247
  148SAPE  H14Y16331   2.530   0.095   5.395  1.3398  1.2117 -0.8705
  148SAPE  C31516332   2.736   0.078   5.334  1.2081  0.2196 -0.4105
  148SAPE  H15X16333   2.742   0.046   5.228 -1.0850 -0.9918 -0.2476
  148SAPE  H15Y16334   2.826   0.035   5.383  0.8144  1.0889  1.1216
  148SAPE  C31616335   2.759   0.228   5.333 -0.1524 -0.7158  0.2019
  148SAPE  H16X16336   2.765   0.272   5.434  0.7176 -3.1917  1.3152
  148SAPE  H16Y16337   2.675   0.285   5.287 -0.2006 -1.3350 -0.5081
  148SAPE  C31716338   2.899   0.257   5.261  0.1495  0.1832 -0.4325
  148SAPE  H17X16339   2.901   0.214   5.159 -0.3756  2.6688 -1.5531
  148SAPE  H17Y16340   2.970   0.204   5.329 -0.9894 -0.0923  0.5897
  148SAPE  C31816341   2.938   0.401   5.256 -0.4289  0.1165 -0.0692
  148SAPE  H18X16342   3.001   0.422   5.167 -0.7518  0.9355 -0.1139
  148SAPE  H18Y16343   2.987   0.423   5.353 -3.0105  0.5818  1.2235
  148SAPE  H18Z16344   2.837   0.448   5.250 -1.3809 -1.4442  2.2378
  149SAPE     N16345   3.707   3.989   7.732  0.1946 -0.2796  0.7693
  149SAPE   HN116346   3.686   3.940   7.643 -0.0549 -0.6590  1.0337
  149SAPE   HN216347   3.781   3.929   7.773  1.5852  0.2755 -0.7997
  149SAPE   HN316348   3.615   3.991   7.780 -1.2307  2.4262 -1.7593
  149SAPE   C1216349   3.761   4.132   7.713  0.2870  0.2578 -0.0938
  149SAPE  H12A16350   3.869   4.112   7.695  0.1314  0.0523 -0.8367
  149SAPE  H12B16351   3.734   4.201   7.796 -1.1558  0.2600 -0.5425
  149SAPE   C1116352   3.708   4.209   7.592  0.4145 -0.0138  0.2828
  149SAPE  H11A16353   3.737   4.154   7.500  3.0744  1.5378  0.0978
  149SAPE  H11B16354   3.760   4.307   7.587 -2.9811  1.8846 -1.1253
  149SAPE     P16355   3.505   4.358   7.581 -0.0136 -0.2832  0.0542
  149SAPE   O1316356   3.359   4.342   7.556 -0.2835 -0.6452  0.0575
  149SAPE   O1416357   3.545   4.444   7.696 -0.1714  0.4858  0.1898
  149SAPE   O1216358   3.569   4.217   7.612  0.1339 -0.7533 -0.1723
  149SAPE   O1116359   3.573   4.391   7.450  0.3390  0.5085  0.2335
  149SAPE    C116360   3.602   4.528   7.410 -0.0070 -0.2949 -0.8238
  149SAPE    HA16361   3.672   4.560   7.490  1.2974 -0.4238 -1.8782
  149SAPE    HB16362   3.660   4.526   7.315 -0.8945 -0.2364 -1.3703
  149SAPE    C216363   3.482   4.630   7.398 -0.2068  0.1735  0.1920
  149SAPE    HS16364   3.453   4.667   7.498  1.5643  1.1290  0.3830
  149SAPE   O2116365   3.371   4.556   7.334 -0.1477 -0.0117  0.3100
  149SAPE   C2116366   3.261   4.612   7.315  0.1620 -1.3620  0.5091
  149SAPE   O2216367   3.230   4.719   7.372 -0.3573 -0.4115  0.4862
  149SAPE   C2216368   3.157   4.523   7.226 -0.0970 -0.7432 -0.1699
  149SAPE   H2R16369   3.221   4.450   7.171 -1.2936 -0.1143 -2.5316
  149SAPE   H2S16370   3.095   4.472   7.302  0.5232 -3.2098 -1.2197
  149SAPE    C316371   3.517   4.752   7.312  0.7020 -0.0029  0.3338
  149SAPE    HX16372   3.609   4.800   7.353 -0.2523  1.4741  0.8284
  149SAPE    HY16373   3.453   4.842   7.322  3.0585  1.9041 -0.6785
  149SAPE   O3116374   3.515   4.728   7.164  0.2078  0.0151  0.0780
  149SAPE   C3116375   3.630   4.700   7.110  0.4793 -0.3102 -0.3134
  149SAPE   O3216376   3.740   4.708   7.164 -0.6919 -0.0556  0.4048
  149SAPE   C3216377   3.611   4.646   6.972  0.2729  0.0616  0.3740
  149SAPE   H2X16378   3.582   4.543   7.002 -1.9240  0.8590  1.2186
  149SAPE   H2Y16379   3.702   4.653   6.909 -1.4887  0.9291 -2.2286
  149SAPE   C2316380   3.074   4.623   7.131  0.4128  0.0384  0.2972
  149SAPE   H3R16381   3.136   4.666   7.050  1.1181 -0.7010  0.4271
  149SAPE   H3S16382   3.051   4.702   7.206 -0.5570  1.1693 -1.1320
  149SAPE   C2416383   2.949   4.562   7.061  0.1436 -1.1034 -0.2824
  149SAPE   H4R16384   2.900   4.642   7.002  1.4086 -0.2982 -0.2690
  149SAPE   H4S16385   2.886   4.534   7.148  0.8662 -0.1403  0.5802
  149SAPE   C2516386   2.978   4.431   6.985  0.5393  0.7909 -0.4052
  149SAPE   H5R16387   2.955   4.344   7.049 -1.2191  1.1662 -0.4642
  149SAPE   C2616388   3.023   4.417   6.855  0.6295 -0.2097 -0.5106
  149SAPE   H6R16389   3.041   4.314   6.821  0.8316  0.6972 -3.3930
  149SAPE   C2716390   3.056   4.517   6.750  0.2082 -0.3070  0.3510
  149SAPE   H7R16391   3.146   4.476   6.700  1.2299  0.1412  1.7614
  149SAPE   H7S16392   3.089   4.610   6.800 -2.6773  0.2392  1.4433
  149SAPE   C2816393   2.947   4.548   6.655  0.2263  0.2697  0.8303
  149SAPE   H8R16394   2.842   4.541   6.687 -0.4112 -0.0174 -1.1437
  149SAPE   C2916395   2.975   4.577   6.526  0.9940  0.7911 -0.5070
  149SAPE   H9R16396   2.895   4.612   6.459  1.4352  1.8209 -0.5222
  149SAPE  C21016397   3.108   4.591   6.460  0.2908 -0.1066 -0.0875
  149SAPE  H10R16398   3.192   4.597   6.533  0.9580  0.7206 -0.8992
  149SAPE  H10S16399   3.110   4.683   6.398 -0.0267 -1.0605 -1.5720
  149SAPE  C21116400   3.133   4.466   6.372 -0.0089 -0.5584 -0.8360
  149SAPE  H11R16401   3.165   4.383   6.436  0.7232  0.2987 -0.0439
  149SAPE  C21216402   3.113   4.456   6.237  0.8397  0.2988  0.0456
  149SAPE  H12R16403   3.136   4.361   6.186 -1.5954 -0.1450 -0.3287
  149SAPE  C21316404   3.065   4.565   6.144 -0.1914  0.4713 -0.2826
  149SAPE  H13R16405   3.078   4.657   6.206  0.0305  0.6733 -0.6291
  149SAPE  H13S16406   2.959   4.552   6.114  0.1453 -2.9149 -0.3030
  149SAPE  C21416407   3.151   4.590   6.027  0.1131  0.3717 -0.5225
  149SAPE  H14R16408   3.258   4.593   6.052  0.3657 -0.4740 -1.4158
  149SAPE  C21516409   3.124   4.606   5.900 -0.0914 -0.7428 -0.6054
  149SAPE  H15R16410   3.209   4.633   5.836  0.4960  0.2509  0.5531
  149SAPE  C21616411   2.986   4.593   5.835  0.7148 -0.3817 -0.4324
  149SAPE  H16R16412   2.914   4.630   5.910  2.1753 -0.5557  1.1100
  149SAPE  H16S16413   2.959   4.486   5.818 -0.5556  0.0024 -0.9168
  149SAPE  C21716414   2.966   4.665   5.697 -0.2304 -0.2153  0.3338
  149SAPE  H17R16415   2.999   4.769   5.718 -0.1230 -0.4662  1.4404
  149SAPE  H17S16416   2.861   4.676   5.662  0.9387  0.6070 -3.4080
  149SAPE  C21816417   3.040   4.613   5.574 -0.3780  0.4372  0.2832
  149SAPE  H18R16418   3.004   4.513   5.539 -3.1959  1.5953 -0.4616
  149SAPE  H18S16419   3.146   4.591   5.598 -0.6961 -1.2237  0.3412
  149SAPE  C21916420   3.027   4.706   5.457  0.0693 -0.6615 -0.3506
  149SAPE  H19R16421   3.044   4.811   5.486  1.5566 -0.6761 -1.0789
  149SAPE  H19S16422   2.925   4.695   5.413  0.5097  1.4506 -2.0351
  149SAPE  C22016423   3.122   4.669   5.346 -0.3562 -0.2846 -0.1738
  149SAPE  H20R16424   3.215   4.619   5.381 -0.1408  0.4810  0.3707
  149SAPE  H20S16425   3.153   4.755   5.283  0.4358  0.9820  1.8379
  149SAPE  H20T16426   3.073   4.591   5.284 -1.1052 -0.6273  0.8038
  149SAPE   C3316427   3.495   4.712   6.888  0.2672 -0.2716 -0.6170
  149SAPE   H3X16428   3.526   4.806   6.839 -0.7628  0.2104 -0.3791
  149SAPE   H3Y16429   3.413   4.736   6.959  1.2235  0.0856  0.3872
  149SAPE   C3416430   3.438   4.611   6.784 -0.0981 -0.1470  0.2694
  149SAPE   H4X16431   3.359   4.659   6.723  0.5904 -0.9065 -1.2985
  149SAPE   H4Y16432   3.391   4.528   6.840 -1.9336  0.2189 -0.6455
  149SAPE   C3516433   3.529   4.548   6.673 -0.5932  0.4519 -0.5248
  149SAPE   H5X16434   3.620   4.506   6.722  1.4432  4.1994 -0.7926
  149SAPE   H5Y16435   3.554   4.623   6.596  0.2380 -0.8719 -1.5779
  149SAPE   C3616436   3.455   4.440   6.604  0.1177  0.4366 -0.3726
  149SAPE   H6X16437   3.347   4.434   6.627  0.2934 -0.1921  0.3412
  149SAPE   H6Y16438   3.488   4.339   6.639 -0.5004  0.9936  1.9984
  149SAPE   C3716439   3.477   4.431   6.454 -0.1139 -0.8704 -0.1464
  149SAPE   H7X16440   3.472   4.519   6.387  4.3299 -1.0505 -1.0943
  149SAPE   H7Y16441   3.408   4.355   6.411  0.6239 -0.9215 -1.3078
  149SAPE   C3816442   3.612   4.355   6.423 -0.2705  0.3940 -0.3958
  149SAPE   H8X16443   3.598   4.258   6.476 -3.0433 -0.2182 -2.0452
  149SAPE   H8Y16444   3.693   4.418   6.465 -0.4996  0.8223 -0.5869
  149SAPE   C3916445   3.632   4.335   6.274  0.0773 -0.3169 -0.1779
  149SAPE   H9X16446   3.544   4.284   6.230 -0.9068  1.0755  0.0842
  149SAPE   H9Y16447   3.730   4.282   6.266  0.5034  0.5646 -1.0494
  149SAPE  C31016448   3.653   4.468   6.209  0.6128  0.3808  0.0831
  149SAPE  H10X16449   3.741   4.454   6.143 -1.2538 -2.7911 -1.9834
  149SAPE  H10Y16450   3.671   4.554   6.277  1.7254 -0.4979  0.9448
  149SAPE  C31116451   3.536   4.505   6.108 -1.0544 -0.2644  0.4909
  149SAPE  H11X16452   3.471   4.573   6.167 -0.1356  3.8392 -2.7475
  149SAPE  H11Y16453   3.476   4.418   6.076 -1.8802 -0.7013  2.9827
  149SAPE  C31216454   3.587   4.586   5.980 -0.3119  0.1612 -0.3716
  149SAPE  H12X16455   3.674   4.529   5.941  1.1134  2.8828 -1.4227
  149SAPE  H12Y16456   3.629   4.682   6.017 -1.0262  1.5243 -2.8390
  149SAPE  C31316457   3.478   4.614   5.868 -0.4639  1.0726 -0.7647
  149SAPE  H13X16458   3.407   4.684   5.917  1.9803  2.4139  1.0622
  149SAPE  H13Y16459   3.422   4.523   5.838 -0.1038  0.0645  1.4385
  149SAPE  C31416460   3.536   4.673   5.742 -0.0102 -0.4130 -0.5328
  149SAPE  H14X16461   3.632   4.621   5.721 -0.5831 -0.6946 -2.7621
  149SAPE  H14Y16462   3.565   4.778   5.766 -0.1868 -0.6644  0.8308
  149SAPE  C31516463   3.443   4.671   5.625 -0.2862 -0.0531  0.3430
  149SAPE  H15X16464   3.341   4.714   5.633 -0.3070 -0.0238 -0.0660
  149SAPE  H15Y16465   3.418   4.563   5.614 -1.6879  0.1970  0.8207
  149SAPE  C31616466   3.515   4.717   5.490  0.5201  0.4963 -0.2879
  149SAPE  H16X16467   3.461   4.659   5.412  1.4280 -0.1927 -0.4272
  149SAPE  H16Y16468   3.622   4.685   5.489  0.3834 -0.1412 -2.9191
  149SAPE  C31716469   3.520   4.862   5.446 -0.3524 -0.0592  0.3382
  149SAPE  H17X16470   3.562   4.873   5.344 -0.1504 -0.4235  0.3794
  149SAPE  H17Y16471   3.580   4.923   5.517  1.2512 -0.3551 -0.7297
  149SAPE  C31816472   3.385   4.941   5.454 -0.7596 -0.3227  0.3662
  149SAPE  H18X16473   3.403   5.046   5.423 -4.4891  0.5745  0.7372
  149SAPE  H18Y16474   3.342   4.928   5.555 -0.1869  0.7656  0.7681
  149SAPE  H18Z16475   3.320   4.894   5.377 -1.0692  1.4496 -0.5083
  150SAPE     N16476   0.411   2.613   7.248  0.5721  0.2708 -0.1506
  150SAPE   HN116477   0.379   2.563   7.163 -0.3949  0.3393  0.1554
  150SAPE   HN216478   0.468   2.699   7.235 -0.6528  0.9763 -1.1026
  150SAPE   HN316479   0.477   2.537   7.275  0.5911 -0.1257 -1.2699
  150SAPE   C1216480   0.312   2.614   7.359 -0.2785 -0.1373 -0.4578
  150SAPE  H12A16481   0.378   2.606   7.448 -0.1519  1.5039 -0.3817
  150SAPE  H12B16482   0.247   2.525   7.343 -0.8574  0.5022 -1.7989
  150SAPE   C1116483   0.241   2.753   7.363  0.4952  0.5072 -0.2837
  150SAPE  H11A16484   0.203   2.788   7.264  0.1717  1.8253  0.2869
  150SAPE  H11B16485   0.324   2.824   7.382  0.3447  0.5027  0.3837
  150SAPE     P16486  -0.008   2.749   7.438 -0.3133  0.0841  0.2939
  150SAPE   O1316487  -0.039   2.626   7.368  0.3411  0.0794  0.6213
  150SAPE   O1416488  -0.091   2.785   7.556 -0.0327  0.0868 -0.4886
  150SAPE   O1216489   0.143   2.761   7.475 -0.6000 -0.5093  0.0519
  150SAPE   O1116490  -0.026   2.859   7.335  0.1539  0.1447  0.1065
  150SAPE    C116491  -0.004   2.995   7.372  0.0258  0.1914 -0.2759
  150SAPE    HA16492  -0.079   3.020   7.450 -0.4334 -3.0303  0.4555
  150SAPE    HB16493   0.095   3.000   7.423 -0.7110 -1.2376  1.4113
  150SAPE    C216494  -0.010   3.094   7.251  0.1490  0.1442 -0.3730
  150SAPE    HS16495  -0.106   3.084   7.198 -2.1875 -0.2923  3.5515
  150SAPE   O2116496   0.102   3.070   7.165 -0.3246  0.1799 -0.0302
  150SAPE   C2116497   0.097   2.962   7.082 -0.7029 -0.2010 -0.1078
  150SAPE   O2216498  -0.002   2.906   7.048  1.0058  0.2156 -0.0967
  150SAPE   C2216499   0.242   2.929   7.034  0.0653  0.0929  0.4906
  150SAPE   H2R16500   0.295   2.915   7.130 -0.0042  1.2796  0.7158
  150SAPE   H2S16501   0.228   2.834   6.978 -1.1262  1.0360 -0.9129
  150SAPE    C316502   0.015   3.241   7.304 -0.2088  0.1343  1.1524
  150SAPE    HX16503   0.114   3.256   7.351  0.1101 -2.5406  1.5148
  150SAPE    HY16504  -0.060   3.265   7.382 -1.3299  2.0071 -0.4110
  150SAPE   O3116505   0.001   3.325   7.191 -0.3106  0.7204  0.4058
  150SAPE   C3116506  -0.125   3.371   7.157 -0.0123  0.3897 -0.3356
  150SAPE   O3216507  -0.225   3.356   7.227  0.3567  0.6087  0.2932
  150SAPE   C3216508  -0.119   3.459   7.036 -0.2064 -0.2084 -0.7071
  150SAPE   H2X16509  -0.032   3.527   7.041 -1.0703  1.0037 -1.6053
  150SAPE   H2Y16510  -0.218   3.511   7.039  0.4227  0.9790  0.4028
  150SAPE   C2316511   0.304   3.034   6.945  0.0280  0.1716  0.1333
  150SAPE   H3R16512   0.402   3.000   6.905  0.9090  4.0432 -1.4128
  150SAPE   H3S16513   0.325   3.133   6.989 -1.1341  0.8559 -0.7801
  150SAPE   C2416514   0.228   3.050   6.810  0.5943  0.0500  0.0469
  150SAPE   H4R16515   0.132   3.105   6.826  1.4480  1.1901  1.4848
  150SAPE   H4S16516   0.201   2.951   6.766  0.5717 -0.2337  0.6911
  150SAPE   C2516517   0.302   3.110   6.693 -0.6401 -0.1318  0.0624
  150SAPE   H5R16518   0.408   3.138   6.703 -0.4767 -0.7770  0.1780
  150SAPE   C2616519   0.249   3.138   6.572  0.0059  0.8642 -0.5012
  150SAPE   H6R16520   0.310   3.207   6.511 -0.4569  2.6835  1.0153
  150SAPE   C2716521   0.105   3.126   6.532 -0.2210  0.5533 -0.5050
  150SAPE   H7R16522   0.066   3.221   6.490 -0.2851  1.3170  1.2216
  150SAPE   H7S16523   0.040   3.110   6.621 -2.1162  1.8640 -1.5739
  150SAPE   C2816524   0.086   3.013   6.434 -0.8671 -0.5585  0.0672
  150SAPE   H8R16525   0.070   2.914   6.479 -0.3089  0.6554  3.1815
  150SAPE   C2916526   0.097   3.022   6.301 -0.0775 -0.6564  0.2289
  150SAPE   H9R16527   0.090   2.926   6.246  0.1884 -0.4959 -0.0913
  150SAPE  C21016528   0.136   3.142   6.213 -0.2939 -0.1751 -0.0376
  150SAPE  H10R16529   0.240   3.136   6.174 -0.2878  0.3082 -0.1030
  150SAPE  H10S16530   0.139   3.232   6.278  0.4289  0.0376 -0.3516
  150SAPE  C21116531   0.048   3.165   6.092 -1.1011 -0.0741  0.1009
  150SAPE  H11R16532  -0.019   3.251   6.106 -1.4131 -0.2908 -0.0736
  150SAPE  C21216533   0.045   3.101   5.974  0.0107 -0.1820 -0.3589
  150SAPE  H12R16534  -0.039   3.125   5.908  1.7538  1.5488 -2.0530
  150SAPE  C21316535   0.131   2.980   5.939 -0.9114  0.7987 -0.4653
  150SAPE  H13R16536   0.149   2.921   6.031  0.3992  0.2438 -1.0572
  150SAPE  H13S16537   0.222   3.028   5.897 -0.9966  0.9246 -0.5087
  150SAPE  C21416538   0.074   2.891   5.834  0.3104 -0.3075  0.3724
  150SAPE  H14R16539  -0.034   2.880   5.852 -0.2039  3.7824  0.7114
  150SAPE  C21516540   0.136   2.841   5.728 -0.8439  0.7023 -0.1855
  150SAPE  H15R16541   0.084   2.772   5.659  0.2194  0.3682 -0.6726
  150SAPE  C21616542   0.283   2.843   5.703  0.5004 -0.5467  0.0646
  150SAPE  H16R16543   0.308   2.736   5.683 -2.6231 -1.5027  0.6395
  150SAPE  H16S16544   0.337   2.867   5.797 -1.4426  1.4865  0.7570
  150SAPE  C21716545   0.299   2.935   5.579  0.3585 -0.6386 -0.2903
  150SAPE  H17R16546   0.406   2.962   5.564  0.6560 -1.3253  0.5108
  150SAPE  H17S16547   0.251   3.032   5.604  1.9842  0.0077  0.4205
  150SAPE  C21816548   0.245   2.880   5.446  0.3021 -0.4793  0.3377
  150SAPE  H18R16549   0.137   2.853   5.450  0.3862 -1.0316 -0.7261
  150SAPE  H18S16550   0.293   2.783   5.422 -2.0771 -1.3831 -1.2404
  150SAPE  C21916551   0.276   2.966   5.314  0.6222  0.3850  0.3426
  150SAPE  H19R16552   0.384   2.992   5.327  0.6539 -0.1863  1.3238
  150SAPE  H19S16553   0.215   3.058   5.300  0.5404 -0.0475 -2.7047
  150SAPE  C22016554   0.266   2.888   5.181 -0.0679  0.2928  0.1455
  150SAPE  H20R16555   0.289   2.962   5.101 -0.2605  0.8785  0.6190
  150SAPE  H20S16556   0.162   2.850   5.174  0.2051 -0.6332  0.9572
  150SAPE  H20T16557   0.336   2.802   5.181 -0.6197 -0.2041  1.8498
  150SAPE   C3316558  -0.107   3.382   6.907  0.4553 -0.1544  0.1338
  150SAPE   H3X16559  -0.159   3.284   6.904 -1.9245  1.0632 -1.1925
  150SAPE   H3Y16560   0.001   3.357   6.896  0.8324  0.5789  1.8436
  150SAPE   C3416561  -0.140   3.464   6.785  0.1549  0.4806  0.3016
  150SAPE   H4X16562  -0.100   3.567   6.778 -0.4071  0.6127 -1.4238
  150SAPE   H4Y16563  -0.250   3.478   6.789  0.0076 -0.4502 -0.1100
  150SAPE   C3516564  -0.103   3.389   6.654 -0.4704  0.6710  0.0390
  150SAPE   H5X16565  -0.141   3.285   6.666 -1.2340  0.6850 -1.8828
  150SAPE   H5Y16566   0.007   3.379   6.641 -0.4791 -2.6366  1.4947
  150SAPE   C3616567  -0.166   3.467   6.530 -0.5749  0.4345  0.3386
  150SAPE   H6X16568  -0.106   3.440   6.441 -1.2455 -1.9579  0.5202
  150SAPE   H6Y16569  -0.152   3.574   6.555  1.6667  0.5600 -1.1067
  150SAPE   C3716570  -0.317   3.443   6.501 -0.6066  0.4975 -0.0029
  150SAPE   H7X16571  -0.375   3.513   6.565  2.4676  2.7047  0.6379
  150SAPE   H7Y16572  -0.333   3.339   6.536 -2.8380  1.1044  0.9705
  150SAPE   C3816573  -0.363   3.453   6.358 -0.2654  0.2393  0.4559
  150SAPE   H8X16574  -0.295   3.394   6.293  0.7709 -1.3202  2.8130
  150SAPE   H8Y16575  -0.351   3.562   6.339 -2.8250  0.2273 -1.8178
  150SAPE   C3916576  -0.511   3.423   6.334  1.0076  0.3552 -0.2994
  150SAPE   H9X16577  -0.535   3.322   6.373  0.4794  0.5478 -0.1178
  150SAPE   H9Y16578  -0.535   3.409   6.227 -1.5794 -1.4058  0.4336
  150SAPE  C31016579  -0.608   3.536   6.389 -0.1674 -0.1307  0.8913
  150SAPE  H10X16580  -0.565   3.637   6.372 -0.4872  0.1089  1.5065
  150SAPE  H10Y16581  -0.616   3.516   6.498 -0.3819 -0.1062  0.8812
  150SAPE  C31116582  -0.740   3.531   6.324 -0.0827 -0.5003  0.7849
  150SAPE  H11X16583  -0.714   3.565   6.221  1.6806 -0.8524  1.0805
  150SAPE  H11Y16584  -0.798   3.614   6.371  0.5803 -0.3173  1.2930
  150SAPE  C31216585  -0.824   3.404   6.337  0.5686  0.2196 -0.3125
  150SAPE  H12X16586  -0.780   3.315   6.286 -0.8490  1.1214 -3.3256
  150SAPE  H12Y16587  -0.917   3.410   6.276 -0.0605 -0.4980  0.5477
  150SAPE  C31316588  -0.862   3.375   6.487 -0.3762  0.2347 -0.3120
  150SAPE  H13X16589  -0.904   3.468   6.531 -1.4912 -0.5555  0.3251
  150SAPE  H13Y16590  -0.764   3.356   6.536  0.3177  1.3500 -1.2100
  150SAPE  C31416591  -0.943   3.243   6.502  0.0698  0.2907 -0.0746
  150SAPE  H14X16592  -0.884   3.156   6.465  1.1528  0.0356  2.0983
  150SAPE  H14Y16593  -1.036   3.249   6.441  0.9941  0.0762 -1.5720
  150SAPE  C31516594  -1.003   3.210   6.643 -0.1529 -0.1756 -0.0345
  150SAPE  H15X16595  -1.079   3.129   6.635  1.3228 -1.4672 -1.9775
  150SAPE  H15Y16596  -1.057   3.299   6.679  2.5047  1.4556  0.2113
  150SAPE  C31616597  -0.888   3.167   6.747  0.2631 -0.6011  0.1250
  150SAPE  H16X16598  -0.813   3.249   6.740  0.0063  0.0663  3.4443
  150SAPE  H16Y16599  -0.836   3.076   6.711 -1.9769 -2.7605  1.9709
  150SAPE  C31716600  -0.947   3.137   6.893  0.1279  0.2770 -1.1008
  150SAPE  H17X16601  -0.852   3.129   6.950  0.1145  2.1848 -0.7575
  150SAPE  H17Y16602  -1.009   3.045   6.893  1.2201 -0.5048 -0.0215
  150SAPE  C31816603  -1.027   3.251   6.957  0.1272 -0.2276 -0.1289
  150SAPE  H18X16604  -1.120   3.274   6.901  1.5881 -0.3631 -2.7970
  150SAPE  H18Y16605  -0.966   3.344   6.954 -0.4342  0.2146  1.3545
  150SAPE  H18Z16606  -1.055   3.236   7.063  1.2845 -0.1988  0.1925
  151SAPE     N16607   2.405   1.259   7.509 -0.0369  0.5910 -0.3399
  151SAPE   HN116608   2.378   1.238   7.411 -1.5503  0.0065  0.1807
  151SAPE   HN216609   2.508   1.252   7.524 -0.2151  1.1263  1.3835
  151SAPE   HN316610   2.367   1.185   7.572  0.5757 -0.1940 -0.8705
  151SAPE   C1216611   2.355   1.396   7.536 -0.3614 -0.1434 -0.2397
  151SAPE  H12A16612   2.374   1.432   7.639  0.0362  0.1176 -0.4032
  151SAPE  H12B16613   2.247   1.402   7.510 -0.3812  0.4514 -0.0356
  151SAPE   C1116614   2.427   1.487   7.434 -0.4544 -0.4026 -0.0707
  151SAPE  H11A16615   2.375   1.584   7.447 -1.5120 -0.7035 -1.7563
  151SAPE  H11B16616   2.410   1.458   7.328  1.6288 -4.8226  0.5790
  151SAPE     P16617   2.631   1.578   7.572  0.0088 -0.0319  0.0495
  151SAPE   O1316618   2.519   1.651   7.631  0.3054  0.1827  0.2463
  151SAPE   O1416619   2.719   1.502   7.658  0.1617 -0.5972 -0.1805
  151SAPE   O1216620   2.571   1.484   7.455 -0.7460 -0.0464 -0.2041
  151SAPE   O1116621   2.709   1.680   7.491 -0.0973 -0.5577  0.4185
  151SAPE    C116622   2.812   1.643   7.396 -0.8459 -0.1203 -0.1242
  151SAPE    HA16623   2.909   1.650   7.450 -0.1974 -2.2645 -0.9389
  151SAPE    HB16624   2.804   1.543   7.350  0.6727 -1.9469  3.1807
  151SAPE    C216625   2.828   1.748   7.279  0.6639 -1.0136  0.0296
  151SAPE    HS16626   2.807   1.849   7.320  1.1582 -1.5204  1.6024
  151SAPE   O2116627   2.745   1.718   7.168  0.3241  0.1254  0.2052
  151SAPE   C2116628   2.614   1.751   7.177  0.0469  1.3158  0.2638
  151SAPE   O2216629   2.568   1.814   7.265  0.0272 -0.3064 -0.1896
  151SAPE   C2216630   2.537   1.701   7.051  0.5719 -0.2209  0.4208
  151SAPE   H2R16631   2.611   1.715   6.968  0.5906 -1.7960  0.1311
  151SAPE   H2S16632   2.509   1.595   7.071 -1.5917  0.0411 -0.8901
  151SAPE    C316633   2.979   1.745   7.229  0.4093  0.2302 -0.0327
  151SAPE    HX16634   2.995   1.636   7.208 -0.5621 -0.2895  1.7426
  151SAPE    HY16635   3.038   1.780   7.317 -1.4054  1.6333  0.6786
  151SAPE   O3116636   3.008   1.832   7.112 -0.9492  0.1604  0.3912
  151SAPE   C3116637   3.133   1.803   7.065 -0.1915 -0.0633  0.6161
  151SAPE   O3216638   3.200   1.708   7.102 -0.4287  0.3472  0.2303
  151SAPE   C3216639   3.179   1.906   6.964 -0.0975  0.0792  0.0672
  151SAPE   H2X16640   3.233   1.983   7.023  1.9259 -1.6807  0.6079
  151SAPE   H2Y16641   3.085   1.953   6.926 -0.3758  1.1400  1.9427
  151SAPE   C2316642   2.405   1.774   7.018 -0.7319  0.5868 -0.5410
  151SAPE   H3R16643   2.420   1.883   7.004 -0.5297  0.5905 -0.2996
  151SAPE   H3S16644   2.343   1.767   7.110  0.1769 -0.4456  0.0099
  151SAPE   C2416645   2.328   1.713   6.901 -0.4039  0.3600 -0.7158
  151SAPE   H4R16646   2.312   1.606   6.926  2.6035 -0.6149 -2.4101
  151SAPE   H4S16647   2.397   1.714   6.813 -1.0766  0.1741 -1.2547
  151SAPE   C2516648   2.206   1.794   6.868 -0.0452  0.5122  0.0879
  151SAPE   H5R16649   2.150   1.825   6.958  0.5665  0.4211  0.5030
  151SAPE   C2616650   2.175   1.832   6.743 -0.1695  0.0068  0.5854
  151SAPE   H6R16651   2.079   1.886   6.736 -1.0183 -1.6100 -1.3273
  151SAPE   C2716652   2.254   1.806   6.618 -0.2664 -0.6079  0.5620
  151SAPE   H7R16653   2.362   1.832   6.631 -0.9156  1.3912  2.8197
  151SAPE   H7S16654   2.228   1.875   6.536  2.8198 -1.5193 -1.3587
  151SAPE   C2816655   2.255   1.668   6.571 -0.0330 -0.1713  0.2696
  151SAPE   H8R16656   2.319   1.595   6.623  0.4850 -0.5347 -0.8563
  151SAPE   C2916657   2.183   1.615   6.472  0.1586 -0.2232 -0.7384
  151SAPE   H9R16658   2.194   1.510   6.442 -1.5407 -0.1416 -1.7479
  151SAPE  C21016659   2.079   1.691   6.394  1.0701  0.1271 -0.1316
  151SAPE  H10R16660   2.120   1.699   6.292  1.0893 -0.7515 -0.1989
  151SAPE  H10S16661   2.073   1.792   6.440  0.1986  0.0794 -0.1210
  151SAPE  C21116662   1.941   1.622   6.402 -0.6202 -0.5262  0.2571
  151SAPE  H11R16663   1.887   1.653   6.493  0.4794  3.6979 -0.2960
  151SAPE  C21216664   1.877   1.556   6.306  0.4413  1.0233 -0.2588
  151SAPE  H12R16665   1.779   1.511   6.327 -0.0490  1.4882 -1.4327
  151SAPE  C21316666   1.929   1.519   6.169  0.4393 -1.1705 -0.4377
  151SAPE  H13R16667   1.902   1.411   6.169 -1.3728 -0.7483  1.1830
  151SAPE  H13S16668   2.038   1.537   6.157  0.0674  0.9424 -0.9465
  151SAPE  C21416669   1.852   1.592   6.063  0.1316  0.3179  0.4085
  151SAPE  H14R16670   1.845   1.702   6.068  2.0136  0.4228  2.1155
  151SAPE  C21516671   1.772   1.531   5.974  0.7807  0.4123  0.0719
  151SAPE  H15R16672   1.713   1.589   5.902  0.1537  0.7154  0.8161
  151SAPE  C21616673   1.745   1.382   5.963  0.3853 -0.6785 -0.5483
  151SAPE  H16R16674   1.651   1.359   6.017  0.1957  2.4146  0.6213
  151SAPE  H16S16675   1.830   1.319   5.999 -1.2705 -1.5649  2.0860
  151SAPE  C21716676   1.730   1.372   5.813  0.7268  0.1588  0.1296
  151SAPE  H17R16677   1.821   1.412   5.763  2.6532 -3.1184  0.6671
  151SAPE  H17S16678   1.641   1.424   5.773  0.8953 -1.7782 -3.1351
  151SAPE  C21816679   1.724   1.217   5.784 -0.3827 -0.1570  0.2451
  151SAPE  H18R16680   1.644   1.165   5.841 -0.7562  0.4485  0.2792
  151SAPE  H18S16681   1.822   1.172   5.808 -1.0437 -1.9068 -0.1342
  151SAPE  C21916682   1.700   1.199   5.628 -0.1127 -0.1829 -0.0606
  151SAPE  H19R16683   1.791   1.236   5.577  0.0935 -1.3701 -0.5678
  151SAPE  H19S16684   1.618   1.268   5.599  1.1672  1.8311  0.8681
  151SAPE  C22016685   1.660   1.060   5.586 -0.3150 -0.2201 -0.1567
  151SAPE  H20R16686   1.664   1.043   5.476  0.5067 -0.7139 -0.0626
  151SAPE  H20S16687   1.560   1.039   5.628 -0.6956  1.7450  0.0286
  151SAPE  H20T16688   1.726   0.992   5.644  2.3535  2.5618  0.3710
  151SAPE   C3316689   3.261   1.848   6.852 -0.2191 -0.2228  0.1415
  151SAPE   H3X16690   3.204   1.782   6.783  1.7907 -0.9723 -0.8835
  151SAPE   H3Y16691   3.340   1.786   6.899  1.4561  0.2957 -1.8055
  151SAPE   C3416692   3.339   1.950   6.764  0.0938 -1.2839 -0.2621
  151SAPE   H4X16693   3.380   2.032   6.828 -0.3467 -0.5102 -0.9505
  151SAPE   H4Y16694   3.261   1.992   6.697  0.3592  1.3323  0.9085
  151SAPE   C3516695   3.453   1.885   6.690  0.1389  0.2783 -0.0173
  151SAPE   H5X16696   3.424   1.786   6.650  0.1724  0.2816 -0.0506
  151SAPE   H5Y16697   3.533   1.844   6.756 -2.1456 -2.8355  1.0620
  151SAPE   C3616698   3.500   1.969   6.574 -0.1196 -0.4084  0.4591
  151SAPE   H6X16699   3.546   2.060   6.618 -1.8178  0.7422  0.0051
  151SAPE   H6Y16700   3.410   1.995   6.514  0.7357 -0.3870 -0.8649
  151SAPE   C3716701   3.595   1.905   6.471 -0.1275  0.1624  0.3757
  151SAPE   H7X16702   3.680   1.847   6.512 -0.2837 -1.0942 -1.0157
  151SAPE   H7Y16703   3.648   1.984   6.414 -0.8184  0.6526  0.3946
  151SAPE   C3816704   3.521   1.800   6.380 -1.3780  0.3166 -0.2871
  151SAPE   H8X16705   3.424   1.852   6.362 -0.4578  2.4809  0.5919
  151SAPE   H8Y16706   3.510   1.702   6.430 -1.3380  0.4746  0.0352
  151SAPE   C3916707   3.581   1.769   6.243 -0.0872  0.1512 -0.1672
  151SAPE   H9X16708   3.518   1.690   6.198 -1.2722  0.1888  1.3700
  151SAPE   H9Y16709   3.681   1.722   6.252 -0.4519 -0.2207  3.0781
  151SAPE  C31016710   3.584   1.891   6.153 -0.4149 -0.4125  0.2067
  151SAPE  H10X16711   3.648   1.970   6.199 -2.6367  1.6203 -0.0256
  151SAPE  H10Y16712   3.485   1.941   6.154 -0.9925 -1.3278 -2.4763
  151SAPE  C31116713   3.616   1.846   6.012 -0.5585  0.2687 -0.3641
  151SAPE  H11X16714   3.540   1.772   5.977 -2.4795  1.5619  0.8933
  151SAPE  H11Y16715   3.720   1.809   6.007 -0.3335  0.7749  0.4575
  151SAPE  C31216716   3.607   1.964   5.922  0.2886 -0.0907  0.5867
  151SAPE  H12X16717   3.691   2.033   5.943 -0.0338  0.8180 -1.0013
  151SAPE  H12Y16718   3.515   2.021   5.946  0.0541  1.0452 -2.5943
  151SAPE  C31316719   3.618   1.931   5.762 -0.4525  0.2182 -0.2207
  151SAPE  H13X16720   3.537   1.857   5.746  0.1586 -0.1719 -1.6681
  151SAPE  H13Y16721   3.717   1.881   5.749 -1.3260 -1.6316  0.0030
  151SAPE  C31416722   3.592   2.056   5.674  0.5526 -0.6831  0.0192
  151SAPE  H14X16723   3.597   2.027   5.567  1.0343  2.0214 -0.7652
  151SAPE  H14Y16724   3.672   2.132   5.688  0.8093 -0.3997 -2.5236
  151SAPE  C31516725   3.456   2.133   5.692 -0.0123 -0.1385 -0.6090
  151SAPE  H15X16726   3.444   2.169   5.796  1.9484 -1.9943  0.3291
  151SAPE  H15Y16727   3.375   2.061   5.671 -0.9886  0.6533  0.3048
  151SAPE  C31616728   3.448   2.256   5.594 -0.4921  0.3966  0.5981
  151SAPE  H16X16729   3.444   2.220   5.490 -3.1453  0.8868  0.4779
  151SAPE  H16Y16730   3.538   2.322   5.596 -0.5900  0.8266 -3.1587
  151SAPE  C31716731   3.321   2.334   5.618 -0.0015 -0.6108  0.1768
  151SAPE  H17X16732   3.360   2.379   5.712 -0.3554 -1.4849  0.7583
  151SAPE  H17Y16733   3.232   2.269   5.633  0.0592 -0.6163  0.5332
  151SAPE  C31816734   3.287   2.443   5.514 -0.2510 -0.7515  0.4113
  151SAPE  H18X16735   3.183   2.475   5.538  0.1579  0.6849  0.3710
  151SAPE  H18Y16736   3.303   2.409   5.410 -0.5587  0.3768 -0.0229
  151SAPE  H18Z16737   3.353   2.532   5.523 -1.6384  0.3856 -0.1951
  152SAPE     N16738   1.986   3.116   7.341 -0.2429 -0.5588  0.0349
  152SAPE   HN116739   2.065   3.049   7.345  0.1326 -0.0863  2.6114
  152SAPE   HN216740   1.999   3.196   7.406 -0.7798 -0.5198  0.0993
  152SAPE   HN316741   1.925   3.049   7.391 -0.9737  0.5191  0.6421
  152SAPE   C1216742   1.927   3.142   7.212  0.0157  0.0006 -0.5836
  152SAPE  H12A16743   1.995   3.200   7.147 -2.7170  1.9449 -1.9094
  152SAPE  H12B16744   1.851   3.219   7.240 -0.0604 -0.1192 -0.4590
  152SAPE   C1116745   1.863   3.020   7.151  0.2416  1.2164  0.2803
  152SAPE  H11A16746   1.945   2.947   7.140 -0.6777  0.0766  0.7320
  152SAPE  H11B16747   1.815   3.036   7.052  0.9079  0.9119 -0.0963
  152SAPE     P16748   1.697   2.829   7.234 -0.2159 -0.0011 -0.0906
  152SAPE   O1316749   1.781   2.714   7.257  0.4509  0.3358 -0.1826
  152SAPE   O1416750   1.577   2.835   7.317 -0.7116  0.3471  0.2834
  152SAPE   O1216751   1.778   2.962   7.254 -0.1021 -0.2526 -0.1632
  152SAPE   O1116752   1.662   2.845   7.079 -0.2924  0.2295  0.1863
  152SAPE    C116753   1.577   2.953   7.042  0.1929 -0.6416 -0.2364
  152SAPE    HA16754   1.574   3.029   7.123 -1.4038 -1.7936  0.8373
  152SAPE    HB16755   1.617   3.010   6.955  1.1020 -1.4507 -0.3537
  152SAPE    C216756   1.430   2.917   7.010 -0.8395  0.3665  0.6808
  152SAPE    HS16757   1.377   2.889   7.104 -2.8111 -1.3212 -0.8312
  152SAPE   O2116758   1.438   2.805   6.921 -0.3347  0.3148 -0.3363
  152SAPE   C2116759   1.428   2.687   6.987  0.2641  0.1400 -0.0392
  152SAPE   O2216760   1.394   2.677   7.102 -0.6381  0.0458 -0.1052
  152SAPE   C2216761   1.456   2.574   6.885 -0.3957  0.6551  0.9047
  152SAPE   H2R16762   1.530   2.506   6.931 -0.1426 -1.5224 -2.3857
  152SAPE   H2S16763   1.360   2.523   6.862  0.3723  0.1276 -1.4790
  152SAPE    C316764   1.340   3.030   6.959 -0.3795  1.3227  0.1917
  152SAPE    HX16765   1.333   3.115   7.030 -1.0461  0.0787  1.6706
  152SAPE    HY16766   1.235   2.994   6.947 -0.3090  1.3125 -0.4236
  152SAPE   O3116767   1.394   3.079   6.832  0.0780 -0.3128 -0.1338
  152SAPE   C3116768   1.335   3.029   6.720 -0.3705  0.0918 -0.9674
  152SAPE   O3216769   1.222   2.987   6.721  0.0990  0.3332  0.9793
  152SAPE   C3216770   1.434   3.034   6.602  0.3956 -0.2280  0.4608
  152SAPE   H2X16771   1.509   2.952   6.615 -0.4583 -0.8094  1.9109
  152SAPE   H2Y16772   1.485   3.132   6.596 -1.6870  0.8287 -3.4281
  152SAPE   C2316773   1.517   2.609   6.753  0.1496 -0.4335  0.3199
  152SAPE   H3R16774   1.610   2.664   6.777 -0.6659  0.1816  2.3087
  152SAPE   H3S16775   1.442   2.669   6.697  0.4039 -0.4250 -0.0155
  152SAPE   C2416776   1.541   2.479   6.674  0.4550 -0.0669  0.2860
  152SAPE   H4R16777   1.449   2.417   6.680 -0.4072  1.0579 -0.6947
  152SAPE   H4S16778   1.618   2.421   6.730  0.0281 -2.3068 -1.2869
  152SAPE   C2516779   1.593   2.508   6.535 -0.0225  0.5572 -0.6784
  152SAPE   H5R16780   1.654   2.599   6.525  2.6489 -0.8296  1.6072
  152SAPE   C2616781   1.559   2.429   6.432  0.0204  0.4511  0.4331
  152SAPE   H6R16782   1.605   2.450   6.335  0.6503  1.2745  0.8941
  152SAPE   C2716783   1.469   2.308   6.435 -0.2406 -0.3714 -0.8727
  152SAPE   H7R16784   1.435   2.286   6.538 -0.4564  1.1665 -0.5835
  152SAPE   H7S16785   1.519   2.214   6.406 -1.2102 -1.1548 -0.0584
  152SAPE   C2816786   1.351   2.333   6.344  0.3336  0.7544  0.7670
  152SAPE   H8R16787   1.260   2.386   6.378 -0.8399  0.4446 -1.6672
  152SAPE   C2916788   1.337   2.286   6.222 -0.8302  0.5715  0.9359
  152SAPE   H9R16789   1.239   2.302   6.173 -0.9131 -2.5491 -0.1818
  152SAPE  C21016790   1.436   2.213   6.139  0.0490  0.1955  0.2914
  152SAPE  H10R16791   1.379   2.179   6.050 -1.2666  1.4798  0.5994
  152SAPE  H10S16792   1.482   2.129   6.194  1.8474 -0.1296 -1.6023
  152SAPE  C21116793   1.552   2.296   6.088  0.2226 -0.7045  0.1706
  152SAPE  H11R16794   1.566   2.394   6.135  3.3143 -0.9559  0.0256
  152SAPE  C21216795   1.631   2.274   5.982 -0.0091  0.7575  0.0882
  152SAPE  H12R16796   1.714   2.339   5.949  1.4699 -1.2582 -0.3251
  152SAPE  C21316797   1.610   2.163   5.873  0.3740 -0.7304 -0.8046
  152SAPE  H13R16798   1.547   2.077   5.906 -0.6104 -0.4132 -1.7563
  152SAPE  H13S16799   1.709   2.120   5.846  0.9884  0.1891 -0.0605
  152SAPE  C21416800   1.519   2.222   5.767 -0.6317 -0.5218  0.0105
  152SAPE  H14R16801   1.413   2.215   5.796 -0.1824  1.1599  2.3497
  152SAPE  C21516802   1.563   2.276   5.656  1.2475  0.1265  0.2390
  152SAPE  H15R16803   1.484   2.325   5.597  0.4352  1.7004  2.4853
  152SAPE  C21616804   1.705   2.302   5.620 -0.1849  0.2261 -0.0781
  152SAPE  H16R16805   1.787   2.277   5.691 -0.6282  2.3733  1.2706
  152SAPE  H16S16806   1.720   2.411   5.608 -1.0049  0.2218 -1.3348
  152SAPE  C21716807   1.735   2.245   5.479 -0.3625  0.5221  0.4260
  152SAPE  H17R16808   1.836   2.277   5.444 -1.1300  1.0164 -1.4482
  152SAPE  H17S16809   1.660   2.283   5.407 -0.4846 -0.3802  0.0638
  152SAPE  C21816810   1.718   2.091   5.471  0.5687  0.3510  0.8688
  152SAPE  H18R16811   1.691   2.061   5.367  0.1273 -1.3616  1.4428
  152SAPE  H18S16812   1.629   2.046   5.519 -0.2399 -0.8543 -1.5629
  152SAPE  C21916813   1.842   2.018   5.512 -0.4293  0.0930  0.2822
  152SAPE  H19R16814   1.823   1.913   5.542  2.3155  0.2159  3.0122
  152SAPE  H19S16815   1.869   2.060   5.611  0.6947  1.5736 -0.5949
  152SAPE  C22016816   1.966   2.022   5.424  0.2318  0.3527 -0.3832
  152SAPE  H20R16817   2.010   2.124   5.419 -1.2112  1.1451  1.6308
  152SAPE  H20S16818   1.955   1.989   5.318 -1.1730  0.3637 -0.2549
  152SAPE  H20T16819   2.053   1.966   5.465  0.6543  1.3146  0.0762
  152SAPE   C3316820   1.362   3.012   6.464 -0.1025  0.0440  0.3030
  152SAPE   H3X16821   1.270   3.070   6.445  0.1321  0.2332 -0.2718
  152SAPE   H3Y16822   1.338   2.904   6.466  4.1432 -1.2430 -2.8162
  152SAPE   C3416823   1.461   3.035   6.345 -0.0847 -1.1773  0.1566
  152SAPE   H4X16824   1.534   2.953   6.335  0.6819 -0.5082  0.1235
  152SAPE   H4Y16825   1.514   3.131   6.365 -1.4075 -0.8241  2.3880
  152SAPE   C3516826   1.380   3.036   6.213  0.5642 -0.1764  0.4443
  152SAPE   H5X16827   1.304   3.117   6.225  0.0121 -0.6586  0.2453
  152SAPE   H5Y16828   1.321   2.942   6.206 -3.3365  2.0955 -0.6640
  152SAPE   C3616829   1.476   3.051   6.096  0.3878 -0.0730 -0.0238
  152SAPE   H6X16830   1.552   2.970   6.105 -0.9572 -1.3363  0.3363
  152SAPE   H6Y16831   1.522   3.152   6.102 -2.2331  1.0941  2.1086
  152SAPE   C3716832   1.416   3.029   5.951 -0.3708  0.3601  0.1350
  152SAPE   H7X16833   1.371   3.124   5.915 -2.1577 -0.8262 -0.9122
  152SAPE   H7Y16834   1.334   2.954   5.951  0.7789 -0.9513 -0.3708
  152SAPE   C3816835   1.512   2.976   5.843  0.1542 -0.1577 -0.0577
  152SAPE   H8X16836   1.542   2.876   5.879 -0.3151 -1.0222 -1.9928
  152SAPE   H8Y16837   1.599   3.046   5.845  1.1064 -1.3162  0.0328
  152SAPE   C3916838   1.465   2.978   5.700 -0.3384 -0.5200  0.7463
  152SAPE   H9X16839   1.478   3.081   5.660  0.2727 -0.1155  1.9351
  152SAPE   H9Y16840   1.361   2.938   5.696 -0.7045  0.3447  1.2839
  152SAPE  C31016841   1.559   2.901   5.607 -0.0212  0.7383  0.0284
  152SAPE  H10X16842   1.575   2.808   5.666 -2.4880  1.3082  1.7482
  152SAPE  H10Y16843   1.651   2.959   5.585  1.1198 -1.9196 -2.9172
  152SAPE  C31116844   1.499   2.873   5.464 -0.1523 -0.1447 -0.2491
  152SAPE  H11X16845   1.468   2.970   5.420  0.3790 -0.8928 -2.3799
  152SAPE  H11Y16846   1.421   2.795   5.451 -0.4389  0.1944 -0.5672
  152SAPE  C31216847   1.615   2.840   5.364 -0.4082  0.2607  0.2915
  152SAPE  H12X16848   1.687   2.923   5.351  0.1316 -0.1805  0.4043
  152SAPE  H12Y16849   1.565   2.827   5.266  0.0390 -2.6110  0.3457
  152SAPE  C31316850   1.695   2.708   5.393  0.6392 -0.2401 -0.0557
  152SAPE  H13X16851   1.615   2.634   5.414  0.8352  0.0543  2.0100
  152SAPE  H13Y16852   1.745   2.717   5.492  1.5562  0.4261 -0.5723
  152SAPE  C31416853   1.778   2.659   5.276  0.2534 -0.5125 -1.2498
  152SAPE  H14X16854   1.863   2.730   5.264  2.2836 -2.3421  1.2278
  152SAPE  H14Y16855   1.717   2.666   5.183 -3.0991  1.3498  0.9265
  152SAPE  C31516856   1.821   2.514   5.293  0.0107 -0.2736  0.1820
  152SAPE  H15X16857   1.740   2.440   5.306  0.0206 -0.2372  0.4424
  152SAPE  H15Y16858   1.873   2.516   5.391 -1.6260 -1.3495  1.1270
  152SAPE  C31616859   1.911   2.455   5.177 -0.8359 -0.1850 -0.0603
  152SAPE  H16X16860   2.008   2.509   5.188 -1.1723  0.6326 -0.9403
  152SAPE  H16Y16861   1.865   2.485   5.080 -0.4899  0.2955 -0.0822
  152SAPE  C31716862   1.916   2.303   5.179 -0.1363 -0.5335  0.1780
  152SAPE  H17X16863   1.812   2.265   5.189 -0.4273  0.1549 -0.1263
  152SAPE  H17Y16864   1.971   2.277   5.272  2.2268  0.1448 -0.9654
  152SAPE  C31816865   1.980   2.234   5.058 -0.7727 -0.3658 -0.1496
  152SAPE  H18X16866   2.005   2.130   5.088  0.0638 -0.3926 -0.8783
  152SAPE  H18Y16867   2.075   2.283   5.028  0.0617 -0.7222  1.7762
  152SAPE  H18Z16868   1.908   2.227   4.974 -1.6100 -1.1971  0.6221
  153SAPE     N16869   1.307   2.662   7.347 -0.6054  0.0204  0.6796
  153SAPE   HN116870   1.338   2.563   7.335 -0.7465 -0.0272  0.7091
  153SAPE   HN216871   1.360   2.711   7.272 -0.1706  0.8826  1.5265
  153SAPE   HN316872   1.331   2.696   7.443  0.2711  0.5216  0.2952
  153SAPE   C1216873   1.162   2.680   7.312 -0.1440 -0.4665 -0.1989
  153SAPE  H12A16874   1.104   2.606   7.372 -0.6405  0.5340  0.5778
  153SAPE  H12B16875   1.148   2.658   7.204 -0.5845  0.7403 -0.3988
  153SAPE   C1116876   1.116   2.824   7.339  0.2390  0.5681  0.5667
  153SAPE  H11A16877   1.093   2.825   7.447 -1.9409  0.7449  0.1507
  153SAPE  H11B16878   1.015   2.834   7.294 -0.1574 -1.2392  0.9723
  153SAPE     P16879   1.180   3.068   7.305  0.0362  0.4772 -0.1652
  153SAPE   O1316880   1.078   3.079   7.416  0.3246  0.2668 -0.9676
  153SAPE   O1416881   1.307   3.136   7.312  0.2099 -0.1388  0.4532
  153SAPE   O1216882   1.218   2.915   7.293  0.2517  0.9857 -0.4721
  153SAPE   O1116883   1.108   3.104   7.173 -0.2327  0.2755  0.3598
  153SAPE    C116884   0.984   3.146   7.136 -0.3475  0.4315  0.0690
  153SAPE    HA16885   0.954   3.224   7.210 -2.3506  0.0827 -0.3231
  153SAPE    HB16886   1.000   3.206   7.044 -0.2061 -0.8230 -0.7481
  153SAPE    C216887   0.889   3.029   7.108  0.3365  0.7353 -0.1790
  153SAPE    HS16888   0.871   2.973   7.202  2.0116 -0.9196 -0.7654
  153SAPE   O2116889   0.950   2.948   7.005  0.0733  0.2690  0.1899
  153SAPE   C2116890   0.916   2.827   7.000 -0.2018  0.2994 -0.2358
  153SAPE   O2216891   0.839   2.770   7.076 -0.5729 -0.7896 -0.0716
  153SAPE   C2216892   0.987   2.746   6.897 -0.5178  0.1641  0.3422
  153SAPE   H2R16893   1.039   2.828   6.842  0.9624 -0.7563  0.3261
  153SAPE   H2S16894   1.071   2.694   6.947  0.0633 -0.8755 -1.6223
  153SAPE    C316895   0.756   3.092   7.064  0.6776  0.2798 -0.1961
  153SAPE    HX16896   0.723   3.164   7.141 -0.8735  2.8916 -3.0998
  153SAPE    HY16897   0.671   3.021   7.073 -0.5535  1.7318 -0.1695
  153SAPE   O3116898   0.767   3.164   6.940 -0.3845  0.2032  0.0866
  153SAPE   C3116899   0.746   3.084   6.834  0.4161 -0.3827  0.0504
  153SAPE   O3216900   0.681   2.982   6.831  0.5549 -0.3005  0.3545
  153SAPE   C3216901   0.832   3.133   6.721 -1.3155 -0.5061 -0.2739
  153SAPE   H2X16902   0.936   3.121   6.760 -1.3567 -2.6237 -0.6962
  153SAPE   H2Y16903   0.817   3.241   6.702  1.5783 -0.0063 -0.1221
  153SAPE   C2316904   0.895   2.662   6.805 -0.2960 -0.0717  0.2649
  153SAPE   H3R16905   0.797   2.713   6.796 -1.8436 -2.9483 -0.7893
  153SAPE   H3S16906   0.875   2.558   6.839  0.0430 -0.5995 -1.0633
  153SAPE   C2416907   0.958   2.654   6.669 -0.1022  0.7680 -0.0895
  153SAPE   H4R16908   0.937   2.751   6.618 -1.6550 -0.2258 -1.4098
  153SAPE   H4S16909   0.892   2.589   6.608  1.4139  0.2472 -1.2450
  153SAPE   C2516910   1.102   2.622   6.652 -0.3530  0.1515  0.6313
  153SAPE   H5R16911   1.151   2.576   6.739  1.9237  0.2480 -0.5245
  153SAPE   C2616912   1.174   2.663   6.546 -0.1015 -0.3734 -0.0978
  153SAPE   H6R16913   1.281   2.639   6.556 -0.1744 -0.3024  1.0439
  153SAPE   C2716914   1.134   2.725   6.415 -0.2638 -0.8559  0.8421
  153SAPE   H7R16915   1.215   2.789   6.374 -0.1297 -0.1644  2.1181
  153SAPE   H7S16916   1.059   2.801   6.447  0.8299  0.3209  0.6858
  153SAPE   C2816917   1.077   2.633   6.311  0.2655  0.0866 -1.1640
  153SAPE   H8R16918   1.012   2.556   6.356  1.4772  0.6033  1.6836
  153SAPE   C2916919   1.082   2.633   6.174 -0.0740  0.6892  0.1954
  153SAPE   H9R16920   1.035   2.547   6.123  0.9604  0.2264 -0.0055
  153SAPE  C21016921   1.156   2.725   6.079 -0.3476  0.2730  0.6113
  153SAPE  H10R16922   1.162   2.831   6.112  0.3840  0.0297  1.2878
  153SAPE  H10S16923   1.096   2.724   5.985  0.5925  1.6954 -0.0432
  153SAPE  C21116924   1.291   2.665   6.041  0.0656 -0.0975  0.3725
  153SAPE  H11R16925   1.358   2.649   6.126 -0.8420 -1.7988  0.8079
  153SAPE  C21216926   1.330   2.627   5.925  0.2643  0.7099  0.0807
  153SAPE  H12R16927   1.429   2.581   5.914 -0.1509 -0.1407 -0.2052
  153SAPE  C21316928   1.257   2.630   5.792  0.0813  0.4255 -0.4048
  153SAPE  H13R16929   1.340   2.632   5.719  0.5026  1.5050  0.0903
  153SAPE  H13S16930   1.210   2.730   5.778 -2.5100 -0.8501 -1.6166
  153SAPE  C21416931   1.173   2.516   5.738 -0.0745 -0.2956 -0.2513
  153SAPE  H14R16932   1.191   2.417   5.781 -2.5607 -0.2317  1.1277
  153SAPE  C21516933   1.085   2.520   5.627 -0.0856  0.3188 -0.6176
  153SAPE  H15R16934   1.020   2.436   5.596 -1.3789  0.8940  0.4807
  153SAPE  C21616935   1.069   2.633   5.540 -0.7031  0.0439 -0.5095
  153SAPE  H16R16936   1.149   2.708   5.554  0.2677 -0.7491 -1.6095
  153SAPE  H16S16937   0.971   2.682   5.560 -1.2291 -1.6560  1.3996
  153SAPE  C21716938   1.059   2.579   5.393 -0.2340 -0.0806  0.0742
  153SAPE  H17R16939   1.057   2.667   5.325  0.1989  0.6101  0.9375
  153SAPE  H17S16940   0.965   2.524   5.372 -1.7200  1.9023  1.1134
  153SAPE  C21816941   1.175   2.484   5.345 -0.1713  0.5518  0.2777
  153SAPE  H18R16942   1.163   2.468   5.235  0.1691 -2.1141  0.5771
  153SAPE  H18S16943   1.160   2.391   5.403 -0.2635  2.3774  3.3894
  153SAPE  C21916944   1.323   2.524   5.364 -0.4614 -0.5061 -0.6883
  153SAPE  H19R16945   1.340   2.555   5.470 -2.2689  2.5740 -1.1527
  153SAPE  H19S16946   1.315   2.620   5.308 -1.2522 -0.8622 -1.2101
  153SAPE  C22016947   1.419   2.426   5.295 -0.3689  0.5352 -0.7412
  153SAPE  H20R16948   1.510   2.481   5.266 -1.4400  2.6486 -0.3211
  153SAPE  H20S16949   1.379   2.379   5.202  1.0437 -1.2953 -0.4978
  153SAPE  H20T16950   1.452   2.351   5.370  1.0221  1.2239 -0.6443
  153SAPE   C3316951   0.827   3.050   6.589  0.7243  0.1338  0.3595
  153SAPE   H3X16952   0.724   3.046   6.548  0.9877 -4.2481 -0.3926
  153SAPE   H3Y16953   0.841   2.948   6.632 -1.3280 -1.1812 -1.8902
  153SAPE   C3416954   0.939   3.085   6.496  0.1909 -0.2310 -0.0165
  153SAPE   H4X16955   1.038   3.045   6.526  1.2945  0.1927 -2.7631
  153SAPE   H4Y16956   0.942   3.196   6.500  1.1782 -0.2469  0.0593
  153SAPE   C3516957   0.894   3.050   6.355 -0.0153  0.1956 -0.4356
  153SAPE   H5X16958   0.791   3.081   6.327 -0.0341  2.5933  1.8479
  153SAPE   H5Y16959   0.898   2.940   6.345 -2.2917 -0.1750  1.5898
  153SAPE   C3616960   0.991   3.099   6.249  0.3974 -0.4827 -0.2477
  153SAPE   H6X16961   1.095   3.066   6.267  0.3277 -1.3365 -1.2862
  153SAPE   H6Y16962   0.980   3.209   6.257  0.9576 -0.3908 -0.6956
  153SAPE   C3716963   0.945   3.053   6.108 -0.5593  0.0678 -0.4823
  153SAPE   H7X16964   0.836   3.071   6.093 -1.5398 -4.1983  0.3414
  153SAPE   H7Y16965   0.954   2.943   6.107  2.7724  0.1633  2.3343
  153SAPE   C3816966   1.040   3.102   6.000 -0.4078  0.1733  0.6680
  153SAPE   H8X16967   1.140   3.064   6.032  0.2651  1.5286  0.2632
  153SAPE   H8Y16968   1.045   3.212   6.006 -2.7435  0.4963 -1.5738
  153SAPE   C3916969   1.002   3.055   5.862 -0.1310  0.4235 -0.5583
  153SAPE   H9X16970   0.893   3.067   5.847  0.0602  4.0901  0.1546
  153SAPE   H9Y16971   1.013   2.945   5.877 -0.3158  0.3807 -0.7423
  153SAPE  C31016972   1.086   3.129   5.749  0.5486 -0.4805 -0.3796
  153SAPE  H10X16973   1.195   3.122   5.769  0.3724  1.0538  1.4560
  153SAPE  H10Y16974   1.053   3.234   5.762 -1.4855 -1.3233  2.2566
  153SAPE  C31116975   1.050   3.077   5.612  0.2467 -0.1497 -0.0422
  153SAPE  H11X16976   0.943   3.097   5.590  0.1461 -0.5405  0.0950
  153SAPE  H11Y16977   1.065   2.967   5.617 -1.4702 -0.4209 -0.2817
  153SAPE  C31216978   1.130   3.134   5.499  0.3449  0.5572 -0.7432
  153SAPE  H12X16979   1.235   3.133   5.534  0.4708  1.4441 -1.0811
  153SAPE  H12Y16980   1.107   3.242   5.487 -0.4784  0.8433  2.5706
  153SAPE  C31316981   1.123   3.053   5.364  0.2599 -0.7462 -0.8922
  153SAPE  H13X16982   1.018   3.055   5.329 -1.3273  0.9072  3.2541
  153SAPE  H13Y16983   1.156   2.951   5.393 -1.3487 -1.6066 -1.9882
  153SAPE  C31416984   1.215   3.121   5.261  0.0501  1.1952  0.3461
  153SAPE  H14X16985   1.314   3.143   5.306  0.4176 -1.5843  1.0693
  153SAPE  H14Y16986   1.169   3.217   5.230  0.9059  2.1583  1.9245
  153SAPE  C31516987   1.236   3.039   5.128 -0.2606 -0.2315 -0.6212
  153SAPE  H15X16988   1.150   3.047   5.059  0.1118 -1.5766 -1.2885
  153SAPE  H15Y16989   1.244   2.931   5.156 -1.4433 -0.7751 -2.2245
  153SAPE  C31616990   1.356   3.100   5.050  0.9793  0.2547 -0.7063
  153SAPE  H16X16991   1.449   3.085   5.111  1.7348  2.4901 -1.2039
  153SAPE  H16Y16992   1.348   3.211   5.055  1.5976  0.2603  0.6727
  153SAPE  C31716993   1.383   3.041   4.912  0.5871 -0.2017  0.3181
  153SAPE  H17X16994   1.382   2.930   4.913  0.8753 -0.2120 -0.2643
  153SAPE  H17Y16995   1.488   3.070   4.891  0.3241  0.6694  0.1315
  153SAPE  C31816996   1.295   3.106   4.808 -0.1448  0.6137 -0.4387
  153SAPE  H18X16997   1.290   3.217   4.813  0.7316  0.6446 -0.0401
  153SAPE  H18Y16998   1.198   3.053   4.796 -0.3435  1.1697 -1.3766
  153SAPE  H18Z16999   1.353   3.086   4.715  0.2321 -2.9407  0.4139
  154SAPE     N17000   5.033   0.456   7.603  0.5914  0.9083  0.8017
  154SAPE   HN117001   4.966   0.454   7.682  0.0494  0.9255  0.3496
  154SAPE   HN217002   5.052   0.357   7.577 -0.0688  0.7189  1.0125
  154SAPE   HN317003   5.119   0.494   7.647  1.2111  0.4776  0.0015
  154SAPE   C1217004   4.981   0.527   7.481  0.5135 -0.4246  0.0459
  154SAPE  H12A17005   5.046   0.496   7.396  0.6985 -1.2927  0.4946
  154SAPE  H12B17006   4.981   0.634   7.509  2.9509 -0.5308  0.6246
  154SAPE   C1117007   4.842   0.479   7.448 -0.7211 -0.4668 -0.3012
  154SAPE  H11A17008   4.828   0.371   7.424 -0.1114 -0.5002 -0.5391
  154SAPE  H11B17009   4.808   0.526   7.353  0.5200 -2.3709 -1.7837
  154SAPE     P17010   4.593   0.499   7.539  0.0374 -0.0982 -0.0265
  154SAPE   O1317011   4.559   0.356   7.552 -0.1897 -0.4907  0.0535
  154SAPE   O1417012   4.533   0.593   7.626 -0.1257  0.2191 -0.1860
  154SAPE   O1217013   4.753   0.512   7.558  0.4704  0.6072  0.2144
  154SAPE   O1117014   4.564   0.543   7.394 -0.1997 -0.0278  0.2619
  154SAPE    C117015   4.556   0.451   7.286  0.0041 -0.5666 -0.4955
  154SAPE    HA17016   4.662   0.442   7.254  0.7169 -3.5252  2.2063
  154SAPE    HB17017   4.528   0.344   7.303  1.2473 -1.0143 -1.1430
  154SAPE    C217018   4.454   0.494   7.182  0.3452 -0.1978 -0.9067
  154SAPE    HS17019   4.440   0.417   7.103 -2.1630 -1.3811  0.5933
  154SAPE   O2117020   4.492   0.621   7.122  0.0839 -0.2843  0.3120
  154SAPE   C2117021   4.602   0.615   7.047 -0.1542  1.0201  0.1491
  154SAPE   O2217022   4.659   0.512   7.022 -0.2435 -0.5312  0.5674
  154SAPE   C2217023   4.645   0.758   7.005 -0.8254 -0.3244 -0.0309
  154SAPE   H2R17024   4.554   0.815   6.978  0.5206  1.4565 -1.0096
  154SAPE   H2S17025   4.692   0.812   7.090  1.0030  1.3256 -1.9751
  154SAPE    C317026   4.308   0.503   7.242  0.4387  0.3714  0.1671
  154SAPE    HX17027   4.321   0.586   7.315  1.6497 -0.0541  0.4601
  154SAPE    HY17028   4.277   0.412   7.297  0.2954  1.1059  1.3555
  154SAPE   O3117029   4.225   0.533   7.135  0.0408  0.4429  0.2131
  154SAPE   C3117030   4.184   0.663   7.123  0.7156  0.5901  0.7307
  154SAPE   O3217031   4.213   0.754   7.196  0.2824  0.3217  0.3332
  154SAPE   C3217032   4.086   0.668   7.002  0.2931 -0.3314 -0.4149
  154SAPE   H2X17033   3.983   0.654   7.040  0.8609 -0.3431  1.1608
  154SAPE   H2Y17034   4.105   0.584   6.931  0.9207 -0.1245 -0.4991
  154SAPE   C2317035   4.731   0.757   6.879  0.3127  0.9028  0.2436
  154SAPE   H3R17036   4.833   0.717   6.897 -0.0337 -1.4160 -2.2707
  154SAPE   H3S17037   4.747   0.861   6.844  1.5033  0.1612 -1.5801
  154SAPE   C2417038   4.665   0.680   6.768  0.1684  0.4063  0.2242
  154SAPE   H4R17039   4.557   0.663   6.785  0.7941 -3.6652  1.3883
  154SAPE   H4S17040   4.701   0.576   6.787  0.9328  0.3299 -1.4850
  154SAPE   C2517041   4.717   0.724   6.638  0.2273  0.2695  0.4413
  154SAPE   H5R17042   4.825   0.718   6.617 -0.1500  0.2967 -1.7324
  154SAPE   C2617043   4.644   0.764   6.528  0.4912 -0.0029 -0.3178
  154SAPE   H6R17044   4.689   0.796   6.433  0.4267  0.5233 -0.1704
  154SAPE   C2717045   4.487   0.771   6.523 -0.3726  0.4863  0.3353
  154SAPE   H7R17046   4.452   0.874   6.500  0.9358  0.6456 -1.0764
  154SAPE   H7S17047   4.444   0.738   6.620 -4.0725 -0.8134 -1.5593
  154SAPE   C2817048   4.413   0.690   6.412  0.1737 -0.7023  0.2803
  154SAPE   H8R17049   4.341   0.626   6.466 -0.9188  1.3153  1.3191
  154SAPE   C2917050   4.427   0.699   6.280  0.0206  0.3146  0.5939
  154SAPE   H9R17051   4.376   0.625   6.217 -1.0725 -0.3902  2.2282
  154SAPE  C21017052   4.523   0.785   6.205 -0.1413 -0.3263  0.3296
  154SAPE  H10R17053   4.589   0.719   6.144 -1.5079 -0.9386 -0.5346
  154SAPE  H10S17054   4.578   0.852   6.274 -0.5881  1.5671 -1.0784
  154SAPE  C21117055   4.450   0.878   6.109 -0.2110 -0.1197 -0.4895
  154SAPE  H11R17056   4.351   0.916   6.139 -0.2729  0.4894 -1.4024
  154SAPE  C21217057   4.494   0.929   5.992  0.9606  0.6122 -0.4177
  154SAPE  H12R17058   4.434   1.007   5.942  1.6011  1.7349  0.5268
  154SAPE  C21317059   4.620   0.901   5.922  0.2655  0.0609 -0.1006
  154SAPE  H13R17060   4.707   0.883   5.989  2.3829  0.7259 -2.5438
  154SAPE  H13S17061   4.652   0.996   5.875  2.2879  1.2761  3.3164
  154SAPE  C21417062   4.603   0.779   5.838 -0.4703 -0.2818 -0.1641
  154SAPE  H14R17063   4.614   0.684   5.893  1.7967 -0.8446 -1.4563
  154SAPE  C21517064   4.577   0.771   5.703 -0.7192  0.0304 -0.0561
  154SAPE  H15R17065   4.556   0.669   5.669 -0.3760 -0.1264  0.1924
  154SAPE  C21617066   4.548   0.875   5.598 -0.4213 -0.0912 -0.4745
  154SAPE  H16R17067   4.601   0.967   5.631  0.2613 -0.5638 -0.2332
  154SAPE  H16S17068   4.442   0.897   5.574 -0.6156 -0.6751 -0.1426
  154SAPE  C21717069   4.613   0.835   5.464  0.4746 -0.7494  0.1267
  154SAPE  H17R17070   4.711   0.790   5.489 -0.2150 -1.7341  1.1947
  154SAPE  H17S17071   4.618   0.930   5.407 -0.6026 -1.5968 -1.4423
  154SAPE  C21817072   4.526   0.736   5.385 -0.4058  0.0901 -0.0016
  154SAPE  H18R17073   4.435   0.792   5.352  0.4609  1.1781 -0.6202
  154SAPE  H18S17074   4.477   0.654   5.441 -1.3902 -0.6740 -1.8965
  154SAPE  C21917075   4.593   0.690   5.258 -0.3241 -0.0132 -1.1580
  154SAPE  H19R17076   4.684   0.634   5.287  0.2515  0.8628 -1.2572
  154SAPE  H19S17077   4.615   0.781   5.199  0.2919 -0.0806 -1.0333
  154SAPE  C22017078   4.501   0.604   5.170  0.3413  0.6432  0.5341
  154SAPE  H20R17079   4.401   0.648   5.147 -1.4320 -2.5846  1.3856
  154SAPE  H20S17080   4.480   0.520   5.240 -0.9047  1.7872  1.5897
  154SAPE  H20T17081   4.543   0.573   5.072  0.4967  1.5196  0.3170
  154SAPE   C3317082   4.100   0.801   6.925  0.0193 -0.2515 -0.3530
  154SAPE   H3X17083   4.207   0.821   6.906 -0.0785  1.0493  0.3141
  154SAPE   H3Y17084   4.072   0.887   6.990 -0.9687 -0.7849 -0.0536
  154SAPE   C3417085   4.005   0.808   6.802 -0.2410 -0.3384  0.3751
  154SAPE   H4X17086   4.005   0.911   6.761  1.3829 -0.7336 -0.7116
  154SAPE   H4Y17087   3.907   0.772   6.839 -0.1236  0.6841  1.7531
  154SAPE   C3517088   4.047   0.717   6.690 -0.4747  0.2525 -0.5340
  154SAPE   H5X17089   4.046   0.610   6.718  0.6799  0.5733  0.9259
  154SAPE   H5Y17090   4.154   0.736   6.669  0.0167 -0.8502  0.8173
  154SAPE   C3617091   3.962   0.756   6.570 -0.0532 -0.4904  0.0796
  154SAPE   H6X17092   3.941   0.864   6.553 -0.4780 -0.3177  1.5954
  154SAPE   H6Y17093   3.861   0.715   6.589 -0.1665  0.3804  1.4588
  154SAPE   C3717094   4.033   0.699   6.442  0.4676  0.1092 -0.1274
  154SAPE   H7X17095   4.056   0.591   6.455 -3.1129 -0.6810  0.7472
  154SAPE   H7Y17096   4.128   0.755   6.433  0.0585  0.6407 -1.3152
  154SAPE   C3817097   3.949   0.718   6.318 -0.3346  0.2226  0.0706
  154SAPE   H8X17098   3.946   0.826   6.291  0.3593  0.0377 -0.8145
  154SAPE   H8Y17099   3.849   0.676   6.342  0.0350 -1.0686 -0.5689
  154SAPE   C3917100   4.007   0.636   6.188  0.7572  0.2115 -0.2121
  154SAPE   H9X17101   4.100   0.687   6.154 -0.5317  1.6833 -1.6958
  154SAPE   H9Y17102   3.931   0.659   6.110 -1.2078 -2.3338  0.8106
  154SAPE  C31017103   4.033   0.488   6.196 -0.5049  0.1884 -0.4241
  154SAPE  H10X17104   3.940   0.428   6.207 -0.4844 -0.1702 -1.9782
  154SAPE  H10Y17105   4.099   0.471   6.283  0.1510  2.3088 -0.4646
  154SAPE  C31117106   4.097   0.437   6.064  0.3702  0.4426 -0.4573
  154SAPE  H11X17107   4.181   0.507   6.043  0.2661  0.2241 -1.7124
  154SAPE  H11Y17108   4.038   0.463   5.973  1.2804 -1.7970 -1.7726
  154SAPE  C31217109   4.149   0.288   6.069 -0.5859 -0.3023 -0.3822
  154SAPE  H12X17110   4.077   0.224   6.125 -0.4203  0.5465  0.8534
  154SAPE  H12Y17111   4.244   0.285   6.126 -1.3101 -1.0159  0.8592
  154SAPE  C31317112   4.186   0.239   5.931  0.1253 -0.7381 -0.4100
  154SAPE  H13X17113   4.101   0.231   5.860  0.8987  0.1687 -1.4702
  154SAPE  H13Y17114   4.230   0.137   5.931 -0.7720 -1.1596 -2.1429
  154SAPE  C31417115   4.305   0.325   5.870  0.3663  0.1651  0.2998
  154SAPE  H14X17116   4.390   0.336   5.940 -0.3127  1.4709  0.9513
  154SAPE  H14Y17117   4.266   0.425   5.843  1.9209  1.3476  2.2404
  154SAPE  C31517118   4.354   0.266   5.735  0.4204 -0.3178  0.4078
  154SAPE  H15X17119   4.268   0.234   5.673  0.8755  1.2535 -1.1026
  154SAPE  H15Y17120   4.426   0.182   5.747  2.2627  1.4301  2.5306
  154SAPE  C31617121   4.433   0.373   5.649  0.8239  0.5286 -0.8059
  154SAPE  H16X17122   4.496   0.430   5.720  0.9689 -2.0981  1.3439
  154SAPE  H16Y17123   4.370   0.445   5.593 -1.6775 -1.7816 -1.1995
  154SAPE  C31717124   4.515   0.299   5.547 -0.0445  0.0457 -0.0660
  154SAPE  H17X17125   4.598   0.234   5.583  0.3237  1.7498  2.4508
  154SAPE  H17Y17126   4.570   0.381   5.497  0.8549 -0.7794 -0.4532
  154SAPE  C31817127   4.450   0.213   5.435 -0.2258  0.1592  1.2949
  154SAPE  H18X17128   4.534   0.214   5.362  0.8994 -1.7773  2.4656
  154SAPE  H18Y17129   4.361   0.247   5.378  0.5764 -1.5777 -1.1897
  154SAPE  H18Z17130   4.439   0.105   5.461 -1.5637 -0.1451 -0.3505
  155SAPE     N17131   6.169   3.159   7.394  0.1839 -0.8161 -0.3766
  155SAPE   HN117132   6.074   3.201   7.400  0.0929 -1.2461  2.3037
  155SAPE   HN217133   6.171   3.106   7.483 -0.5217  0.1208  0.2050
  155SAPE   HN317134   6.242   3.232   7.405 -0.7896  0.1588 -0.2133
  155SAPE   C1217135   6.181   3.065   7.279  0.0512  0.6935 -0.0483
  155SAPE  H12A17136   6.286   3.028   7.280  0.1254  0.9021 -0.0063
  155SAPE  H12B17137   6.169   3.119   7.182  1.7452 -0.3003 -0.8594
  155SAPE   C1117138   6.094   2.934   7.287  1.1853 -0.3899 -0.0510
  155SAPE  H11A17139   6.136   2.860   7.217 -2.6883 -0.9677 -2.0682
  155SAPE  H11B17140   5.989   2.955   7.257  0.8178 -1.2148  0.5992
  155SAPE     P17141   5.980   2.803   7.482  0.1507  0.2439  0.1413
  155SAPE   O1317142   6.026   2.761   7.615 -0.4012 -0.0686 -0.0157
  155SAPE   O1417143   5.856   2.881   7.467 -0.0640  0.7644  0.2077
  155SAPE   O1217144   6.108   2.875   7.418 -0.0026 -0.0339  0.4639
  155SAPE   O1117145   5.977   2.669   7.398 -0.2170  0.0848 -0.1604
  155SAPE    C117146   5.863   2.586   7.381 -0.6244  0.3064 -0.9841
  155SAPE    HA17147   5.878   2.486   7.426  0.4679  0.3142 -1.3109
  155SAPE    HB17148   5.773   2.632   7.430 -0.1077  0.7645 -0.4482
  155SAPE    C217149   5.831   2.569   7.235 -0.1339 -0.2950  1.3031
  155SAPE    HS17150   5.867   2.469   7.202  0.6576 -0.0925  1.5279
  155SAPE   O2117151   5.874   2.684   7.155 -0.4031 -0.1081  0.3035
  155SAPE   C2117152   5.945   2.649   7.050  0.0723  0.0509  0.2046
  155SAPE   O2217153   5.973   2.528   7.018  0.1874 -0.2268 -0.5073
  155SAPE   C2217154   5.985   2.769   6.971 -0.3676  0.5588 -0.2557
  155SAPE   H2R17155   5.901   2.791   6.902 -0.8266 -1.2945 -0.3398
  155SAPE   H2S17156   6.000   2.854   7.041 -1.1906  0.7810 -0.3453
  155SAPE    C317157   5.675   2.556   7.223  0.0232  0.5749 -0.3471
  155SAPE    HX17158   5.626   2.652   7.249 -0.0119  1.0693 -2.1306
  155SAPE    HY17159   5.637   2.476   7.291 -0.3945  0.4411 -0.7348
  155SAPE   O3117160   5.643   2.534   7.082 -0.0617  0.2931 -0.8320
  155SAPE   C3117161   5.638   2.406   7.043  0.4620 -0.6156 -0.7704
  155SAPE   O3217162   5.664   2.311   7.118 -0.2133  0.7271  0.1937
  155SAPE   C3217163   5.575   2.389   6.910  0.0819 -0.4667 -0.3443
  155SAPE   H2X17164   5.521   2.483   6.887 -2.2974 -1.1898  1.7610
  155SAPE   H2Y17165   5.503   2.305   6.921 -0.6295  0.1654 -0.1558
  155SAPE   C2317166   6.118   2.758   6.892 -0.0015  0.0050  0.5256
  155SAPE   H3R17167   6.206   2.739   6.957  1.2164 -0.0771 -1.0965
  155SAPE   H3S17168   6.121   2.860   6.848  1.6578 -0.7069 -1.1577
  155SAPE   C2417169   6.128   2.658   6.779 -0.8496 -1.1112  0.2178
  155SAPE   H4R17170   6.125   2.558   6.826 -0.4614 -1.4604 -0.4832
  155SAPE   H4S17171   6.235   2.668   6.753 -1.1161  2.2725 -0.0330
  155SAPE   C2517172   6.032   2.676   6.663  0.1000  0.2731 -0.3479
  155SAPE   H5R17173   5.952   2.600   6.661 -0.3743  0.7159  0.7353
  155SAPE   C2617174   6.060   2.726   6.538 -0.0164 -0.2213  0.0917
  155SAPE   H6R17175   5.990   2.729   6.453  1.8347 -0.0057 -1.4880
  155SAPE   C2717176   6.181   2.801   6.498  0.1075 -0.6750  0.3471
  155SAPE   H7R17177   6.254   2.750   6.431  1.1989  0.9406  0.2537
  155SAPE   H7S17178   6.246   2.808   6.588  0.2939 -1.3488  0.2727
  155SAPE   C2817179   6.150   2.942   6.446  0.2153 -0.3166  0.0744
  155SAPE   H8R17180   6.169   3.034   6.502  1.7421  1.2159 -2.7408
  155SAPE   C2917181   6.121   2.971   6.320  0.1701 -0.7505 -0.2410
  155SAPE   H9R17182   6.096   3.075   6.295 -0.0415 -0.3169  1.6450
  155SAPE  C21017183   6.097   2.866   6.211 -0.1186  0.0532  0.3759
  155SAPE  H10R17184   6.107   2.761   6.248  0.6819 -0.3631 -0.9650
  155SAPE  H10S17185   6.169   2.886   6.130 -1.0212  2.3203  0.0772
  155SAPE  C21117186   5.952   2.895   6.165  0.0871  0.0212  0.9012
  155SAPE  H11R17187   5.878   2.928   6.239 -0.5296 -0.8069  0.6681
  155SAPE  C21217188   5.899   2.878   6.042  0.2947 -0.2380  0.5020
  155SAPE  H12R17189   5.792   2.899   6.029  0.3612  0.9354  1.6598
  155SAPE  C21317190   5.976   2.822   5.920 -0.0090  0.3424 -0.2287
  155SAPE  H13R17191   5.968   2.711   5.924  0.1701  0.1791 -2.9185
  155SAPE  H13S17192   6.084   2.843   5.932  0.1071 -0.5879  0.4354
  155SAPE  C21417193   5.925   2.871   5.789  1.0891 -0.1320  0.5074
  155SAPE  H14R17194   5.830   2.820   5.766  1.5392 -1.1674  0.8641
  155SAPE  C21517195   5.985   2.957   5.705 -0.0758  0.3046  0.4926
  155SAPE  H15R17196   5.947   2.976   5.603  0.3409  1.1075  0.4783
  155SAPE  C21617197   6.121   3.018   5.734  0.1187 -0.0411  0.3842
  155SAPE  H16R17198   6.182   3.045   5.646  1.3599  0.1039  1.2573
  155SAPE  H16S17199   6.181   2.934   5.776 -1.9668 -0.9156  1.8394
  155SAPE  C21717200   6.112   3.139   5.819  0.4752 -0.1741 -0.8736
  155SAPE  H17R17201   6.099   3.124   5.929  1.3524  1.7013 -0.4683
  155SAPE  H17S17202   6.035   3.212   5.786  1.1996  0.0827 -2.0565
  155SAPE  C21817203   6.243   3.224   5.821 -0.7931 -0.1223 -0.1382
  155SAPE  H18R17204   6.232   3.301   5.742  0.5793 -0.6115 -0.8421
  155SAPE  H18S17205   6.333   3.167   5.791 -0.3451  0.8199 -0.6383
  155SAPE  C21917206   6.280   3.299   5.949 -0.9094  0.3114  0.6851
  155SAPE  H19R17207   6.312   3.225   6.025  0.6170  0.8731  0.6293
  155SAPE  H19S17208   6.195   3.360   5.986 -0.8122  1.4450 -0.8656
  155SAPE  C22017209   6.405   3.384   5.933 -0.2177 -0.4414 -0.2747
  155SAPE  H20R17210   6.498   3.323   5.938 -0.0494 -0.2438 -0.9600
  155SAPE  H20S17211   6.409   3.455   6.018  0.1743  0.9835 -1.4515
  155SAPE  H20T17212   6.409   3.442   5.839  0.1615  1.6266  0.9486
  155SAPE   C3317213   5.682   2.346   6.797  0.4015 -0.3720 -0.2301
  155SAPE   H3X17214   5.745   2.263   6.836  0.1787 -0.3153  0.2485
  155SAPE   H3Y17215   5.751   2.432   6.782 -0.6267  0.3459 -1.0099
  155SAPE   C3417216   5.624   2.296   6.673  0.4545 -0.2191 -0.2040
  155SAPE   H4X17217   5.562   2.366   6.613  1.2130 -0.5969 -1.4705
  155SAPE   H4Y17218   5.562   2.208   6.700  0.9303 -0.2636  0.7710
  155SAPE   C3517219   5.727   2.252   6.571 -0.0402 -0.1070 -0.5675
  155SAPE   H5X17220   5.788   2.169   6.614  1.0832  1.1446  0.3270
  155SAPE   H5Y17221   5.791   2.337   6.539  2.2100 -1.6256 -0.3440
  155SAPE   C3617222   5.654   2.198   6.443 -0.7480  0.2126 -0.3179
  155SAPE   H6X17223   5.611   2.283   6.386  0.9781 -0.6648 -3.1147
  155SAPE   H6Y17224   5.571   2.129   6.470  0.5472 -0.6560  1.6855
  155SAPE   C3717225   5.753   2.138   6.337 -0.6302 -0.3690  1.0323
  155SAPE   H7X17226   5.819   2.065   6.388 -0.3171  0.0407  1.2173
  155SAPE   H7Y17227   5.825   2.219   6.314  0.1765 -0.8483  1.7838
  155SAPE   C3817228   5.673   2.079   6.219  0.2088  0.4021 -0.0497
  155SAPE   H8X17229   5.596   2.156   6.196 -1.4752 -0.4638  2.3227
  155SAPE   H8Y17230   5.618   1.992   6.261  1.3335 -0.5081 -0.4043
  155SAPE   C3917231   5.761   2.042   6.094  0.3450 -0.2286  0.1002
  155SAPE   H9X17232   5.694   2.006   6.013  2.5108  0.3993 -2.0750
  155SAPE   H9Y17233   5.836   1.964   6.118 -1.1791 -1.3142  1.5826
  155SAPE  C31017234   5.840   2.158   6.043  0.2695  0.0967  0.4183
  155SAPE  H10X17235   5.904   2.176   6.131 -1.0457 -0.3207  1.5014
  155SAPE  H10Y17236   5.768   2.242   6.031 -0.5796 -0.4645  1.4019
  155SAPE  C31117237   5.914   2.129   5.916 -0.6294  0.1707  0.0580
  155SAPE  H11X17238   5.846   2.099   5.833 -1.5027 -0.1241  0.8729
  155SAPE  H11Y17239   5.991   2.049   5.921 -0.5304  0.1008 -1.8449
  155SAPE  C31217240   6.002   2.251   5.876 -0.2480  0.0410  0.2017
  155SAPE  H12X17241   6.066   2.283   5.960  0.1368  2.2430 -0.8656
  155SAPE  H12Y17242   5.938   2.340   5.856  1.2918  0.6432 -2.4619
  155SAPE  C31317243   6.086   2.209   5.754 -0.3255 -0.5340 -0.0175
  155SAPE  H13X17244   6.014   2.206   5.669 -1.5019 -3.6901  0.9630
  155SAPE  H13Y17245   6.133   2.109   5.762 -0.4993 -0.5704  0.5946
  155SAPE  C31417246   6.189   2.311   5.715 -0.3015  0.1481 -0.3047
  155SAPE  H14X17247   6.273   2.292   5.785 -0.4612 -0.9940 -0.3969
  155SAPE  H14Y17248   6.163   2.419   5.718  1.3992  0.6595 -1.6930
  155SAPE  C31517249   6.223   2.295   5.568 -0.5928  0.3650  0.1254
  155SAPE  H15X17250   6.142   2.345   5.510  0.3914  0.6788 -1.0425
  155SAPE  H15Y17251   6.226   2.186   5.546  0.5652  0.8409 -2.5241
  155SAPE  C31617252   6.366   2.357   5.538  0.7624  0.6907 -0.7808
  155SAPE  H16X17253   6.438   2.291   5.592  0.5323  0.8037 -0.3233
  155SAPE  H16Y17254   6.372   2.454   5.591  2.4427  0.1786  0.0465
  155SAPE  C31717255   6.407   2.373   5.392  0.6907  0.6477 -0.2212
  155SAPE  H17X17256   6.512   2.409   5.398  1.2767 -1.1602  1.2638
  155SAPE  H17Y17257   6.340   2.450   5.347 -0.6964 -0.1854  0.3370
  155SAPE  C31817258   6.392   2.242   5.309 -0.4292  0.9096  0.0977
  155SAPE  H18X17259   6.424   2.149   5.359 -0.2386  0.4490 -0.8610
  155SAPE  H18Y17260   6.454   2.246   5.217 -1.7668 -0.8553 -0.9414
  155SAPE  H18Z17261   6.286   2.226   5.278 -0.1029  1.8650 -1.6559
  156SAPE     N17262   1.760   1.822   7.190  0.6602 -0.6304  0.0622
  156SAPE   HN117263   1.858   1.851   7.173  0.7119 -1.0548 -0.3701
  156SAPE   HN217264   1.737   1.894   7.261 -0.8154  0.9914 -1.9237
  156SAPE   HN317265   1.746   1.724   7.223 -2.3656 -0.4682 -0.4748
  156SAPE   C1217266   1.667   1.843   7.071 -1.0196  0.0735 -1.0545
  156SAPE  H12A17267   1.686   1.768   6.991 -0.1462 -1.5536  0.6024
  156SAPE  H12B17268   1.677   1.945   7.027 -0.8496  0.0927 -0.9720
  156SAPE   C1117269   1.525   1.817   7.123  0.4375 -0.1823 -0.6180
  156SAPE  H11A17270   1.513   1.709   7.145  0.9000 -0.1401 -0.1024
  156SAPE  H11B17271   1.454   1.822   7.038 -1.2478  0.2467  0.7516
  156SAPE     P17272   1.386   2.027   7.225  0.2387 -0.0446  0.3043
  156SAPE   O1317273   1.254   1.979   7.270 -0.0078 -0.0401 -0.1255
  156SAPE   O1417274   1.452   2.141   7.286 -0.3324 -0.6528 -0.5424
  156SAPE   O1217275   1.482   1.900   7.234 -0.4060  0.0837  0.4560
  156SAPE   O1117276   1.377   2.050   7.069 -0.3421 -0.2321  0.0610
  156SAPE    C117277   1.467   2.152   7.009 -0.3512 -0.7774 -0.6766
  156SAPE    HA17278   1.456   2.251   7.059  2.9034 -1.6608  2.1752
  156SAPE    HB17279   1.569   2.116   7.031 -0.7864 -1.8665 -0.3968
  156SAPE    C217280   1.441   2.162   6.861  0.3295 -0.0028 -0.5300
  156SAPE    HS17281   1.495   2.251   6.821 -0.4087  0.2216 -1.0520
  156SAPE   O2117282   1.296   2.166   6.829 -0.2301  0.3866  0.0919
  156SAPE   C2117283   1.209   2.236   6.897 -0.2934 -0.0411 -0.6883
  156SAPE   O2217284   1.232   2.336   6.960 -0.6229  0.2013  0.3658
  156SAPE   C2217285   1.068   2.189   6.865  0.7758  0.0066 -0.4745
  156SAPE   H2R17286   1.078   2.103   6.795  1.3544 -0.1880 -0.1615
  156SAPE   H2S17287   1.021   2.159   6.961 -1.2109  0.3064 -1.3090
  156SAPE    C317288   1.512   2.039   6.792 -1.1117 -0.0373  0.0777
  156SAPE    HX17289   1.507   1.948   6.856  1.1632 -0.3739 -0.1503
  156SAPE    HY17290   1.617   2.076   6.786 -0.7814 -0.7143  1.3006
  156SAPE   O3117291   1.453   2.017   6.664 -0.0889 -0.1346  0.0539
  156SAPE   C3117292   1.496   1.913   6.598  0.2546  0.1545  0.2621
  156SAPE   O3217293   1.571   1.825   6.638  0.1273  0.0888 -0.1309
  156SAPE   C3217294   1.427   1.919   6.459  0.2422 -0.8772  0.0219
  156SAPE   H2X17295   1.450   2.019   6.416  0.2331 -0.8464  0.0895
  156SAPE   H2Y17296   1.319   1.900   6.473  0.0681  0.1127  0.0812
  156SAPE   C2317297   0.990   2.304   6.792 -0.1901  0.3700  0.7753
  156SAPE   H3R17298   1.028   2.310   6.688 -0.8530 -1.2901  0.4048
  156SAPE   H3S17299   1.024   2.397   6.844  0.4717 -0.4699  1.8886
  156SAPE   C2417300   0.836   2.278   6.801 -0.1102 -0.4225 -0.0881
  156SAPE   H4R17301   0.800   2.381   6.779 -1.2754 -0.5592  1.1164
  156SAPE   H4S17302   0.804   2.273   6.907  1.7580 -1.7170  0.4734
  156SAPE   C2517303   0.789   2.173   6.700  0.2547 -0.4629 -0.1613
  156SAPE   H5R17304   0.748   2.080   6.740  0.4819 -0.6519 -0.3654
  156SAPE   C2617305   0.781   2.187   6.567 -0.2733  0.7229  0.6017
  156SAPE   H6R17306   0.737   2.101   6.514  0.6024  0.6824 -0.0784
  156SAPE   C2717307   0.811   2.300   6.479 -0.0403 -0.6683  0.4950
  156SAPE   H7R17308   0.917   2.293   6.449 -0.5161 -1.4384 -1.1128
  156SAPE   H7S17309   0.797   2.390   6.542 -1.9596  0.8173 -1.8850
  156SAPE   C2817310   0.721   2.317   6.355 -0.2429 -0.8443  0.8067
  156SAPE   H8R17311   0.714   2.233   6.283 -2.7084 -0.0964  0.0395
  156SAPE   C2917312   0.654   2.431   6.320 -0.4366  0.0710 -0.3013
  156SAPE   H9R17313   0.578   2.431   6.241 -0.5661  1.5076 -0.2074
  156SAPE  C21017314   0.657   2.563   6.394 -0.3611  0.0712 -0.1643
  156SAPE  H10R17315   0.644   2.650   6.326 -2.2812 -1.2786 -1.6551
  156SAPE  H10S17316   0.766   2.580   6.412  0.4556  0.5441 -4.4098
  156SAPE  C21117317   0.573   2.571   6.516 -0.1872  0.4784 -0.1332
  156SAPE  H11R17318   0.555   2.472   6.560 -1.6121  0.8370  0.1293
  156SAPE  C21217319   0.517   2.683   6.573 -0.1997 -0.3537  0.8059
  156SAPE  H12R17320   0.473   2.666   6.673 -0.8944 -0.4578  0.4889
  156SAPE  C21317321   0.539   2.821   6.517  0.1568 -1.1179  0.0263
  156SAPE  H13R17322   0.637   2.825   6.466 -0.2622 -0.3465 -0.7461
  156SAPE  H13S17323   0.552   2.894   6.600  1.6716 -2.2141  0.8081
  156SAPE  C21417324   0.436   2.873   6.422  0.5428 -0.1209 -0.0657
  156SAPE  H14R17325   0.344   2.892   6.479  0.9519 -0.1164  0.5951
  156SAPE  C21517326   0.445   2.901   6.289 -0.7475  0.0343 -0.4787
  156SAPE  H15R17327   0.361   2.914   6.219 -0.6425  1.5512 -0.3707
  156SAPE  C21617328   0.571   2.889   6.209  0.1532  0.4924  0.2135
  156SAPE  H16R17329   0.666   2.855   6.257 -0.3000 -0.8575  0.1929
  156SAPE  H16S17330   0.587   2.991   6.168  0.0416  0.4840  0.1488
  156SAPE  C21717331   0.549   2.798   6.091  0.3222  0.4085  0.7870
  156SAPE  H17R17332   0.457   2.812   6.030  0.9238  1.0849  0.0013
  156SAPE  H17S17333   0.540   2.694   6.128 -1.8573  0.2631 -0.0014
  156SAPE  C21817334   0.667   2.823   5.992 -0.3074  0.0742 -0.3481
  156SAPE  H18R17335   0.759   2.801   6.051  1.2637 -0.1870 -2.7497
  156SAPE  H18S17336   0.673   2.926   5.950 -0.4096 -0.2582 -1.1955
  156SAPE  C21917337   0.664   2.714   5.874 -0.6224 -0.8259  0.3639
  156SAPE  H19R17338   0.563   2.730   5.831  0.5339 -0.7964 -2.5660
  156SAPE  H19S17339   0.670   2.610   5.913  1.7036 -1.3610 -1.2120
  156SAPE  C22017340   0.772   2.733   5.769 -0.4984  0.5296  0.0482
  156SAPE  H20R17341   0.750   2.819   5.701 -3.3044 -0.7529 -0.8024
  156SAPE  H20S17342   0.772   2.648   5.697  2.1196 -0.9555  1.6296
  156SAPE  H20T17343   0.874   2.722   5.812 -0.2064 -2.0315 -1.1164
  156SAPE   C3317344   1.475   1.800   6.367  1.2127  0.1338  0.8445
  156SAPE   H3X17345   1.412   1.711   6.387 -1.6164  2.1492  1.4632
  156SAPE   H3Y17346   1.579   1.769   6.391  2.0258 -0.2235 -2.5669
  156SAPE   C3417347   1.483   1.817   6.211  0.2529  0.2652 -0.2311
  156SAPE   H4X17348   1.560   1.746   6.175  1.3183  0.9966  0.5474
  156SAPE   H4Y17349   1.519   1.918   6.185 -0.0693  1.0189  1.9956
  156SAPE   C3517350   1.346   1.794   6.146 -0.7087 -0.3141 -0.6167
  156SAPE   H5X17351   1.299   1.895   6.150  0.5644  0.2924 -0.3035
  156SAPE   H5Y17352   1.287   1.730   6.214  2.0748 -1.7496  0.6176
  156SAPE   C3617353   1.350   1.735   6.005 -0.2842  0.3099  0.0424
  156SAPE   H6X17354   1.246   1.743   5.968  0.1774 -0.3871 -1.4874
  156SAPE   H6Y17355   1.392   1.632   6.007  0.5388  0.6323 -0.4819
  156SAPE   C3717356   1.429   1.821   5.906  0.2832  0.2323 -0.3740
  156SAPE   H7X17357   1.536   1.822   5.936 -0.0942 -0.9247  1.1980
  156SAPE   H7Y17358   1.386   1.923   5.915 -1.0213 -0.1630 -1.6770
  156SAPE   C3817359   1.415   1.771   5.767  0.5352  0.0907  0.3948
  156SAPE   H8X17360   1.312   1.775   5.727  0.8958  2.0712 -0.4273
  156SAPE   H8Y17361   1.430   1.661   5.759  0.2302 -0.0995  2.0798
  156SAPE   C3917362   1.515   1.838   5.666 -0.3836  0.0558  0.0202
  156SAPE   H9X17363   1.606   1.820   5.728 -2.2632 -1.7983  2.4190
  156SAPE   H9Y17364   1.496   1.947   5.654  0.8133  0.2363 -0.4148
  156SAPE  C31017365   1.524   1.767   5.534  0.1710  0.3877 -0.6130
  156SAPE  H10X17366   1.550   1.843   5.457 -0.5884  1.5295  0.2404
  156SAPE  H10Y17367   1.428   1.723   5.500  0.2073 -0.0087 -0.2151
  156SAPE  C31117368   1.629   1.655   5.530 -0.3672 -0.1259 -0.1448
  156SAPE  H11X17369   1.597   1.569   5.593 -0.5178  1.2044  1.6805
  156SAPE  H11Y17370   1.720   1.692   5.582 -0.5795 -0.0921  0.2012
  156SAPE  C31217371   1.653   1.577   5.391  0.0263 -0.0696 -0.7506
  156SAPE  H12X17372   1.742   1.511   5.401  0.1027  0.2821  1.2750
  156SAPE  H12Y17373   1.674   1.660   5.321 -0.0023  0.5978  0.0161
  156SAPE  C31317374   1.537   1.494   5.339  0.5875 -0.4853 -0.0093
  156SAPE  H13X17375   1.445   1.551   5.316  0.0588 -1.5953 -0.7095
  156SAPE  H13Y17376   1.504   1.424   5.418 -0.2077  0.6414  0.6878
  156SAPE  C31417377   1.560   1.409   5.217 -0.2758 -0.8728  0.1264
  156SAPE  H14X17378   1.652   1.352   5.245  0.5066  0.4923  0.4560
  156SAPE  H14Y17379   1.588   1.475   5.131  0.3557  1.2861  1.8942
  156SAPE  C31517380   1.449   1.313   5.177  0.0978  0.0850 -0.8107
  156SAPE  H15X17381   1.464   1.294   5.069  2.2886  0.7194 -0.6628
  156SAPE  H15Y17382   1.347   1.357   5.183 -0.6081 -1.5197 -0.4375
  156SAPE  C31617383   1.451   1.187   5.261 -0.2676  0.3965  0.0509
  156SAPE  H16X17384   1.421   1.217   5.364 -2.3360  2.4955 -1.0840
  156SAPE  H16Y17385   1.555   1.148   5.251  0.0567  0.4758  2.5296
  156SAPE  C31717386   1.335   1.086   5.215 -0.1345  0.2145  0.1632
  156SAPE  H17X17387   1.330   1.066   5.106  0.0308  1.1024 -0.0189
  156SAPE  H17Y17388   1.241   1.140   5.241 -0.1782  1.2641 -1.9660
  156SAPE  C31817389   1.344   0.954   5.300 -0.5473 -0.2153 -0.1160
  156SAPE  H18X17390   1.450   0.921   5.289 -1.0344 -1.2407 -2.2338
  156SAPE  H18Y17391   1.268   0.878   5.273 -4.2052  2.6933  1.0740
  156SAPE  H18Z17392   1.319   0.997   5.399  0.4158  2.7288 -1.0536
  157SAPE     N17393   6.692   6.393   7.435 -0.9882 -0.6150  0.5722
  157SAPE   HN117394   6.638   6.462   7.492 -1.4076 -0.3692 -0.1122
  157SAPE   HN217395   6.682   6.414   7.334  1.4505 -0.1741  0.3614
  157SAPE   HN317396   6.656   6.297   7.454 -0.1030 -1.0163  0.2796
  157SAPE   C1217397   6.832   6.396   7.487  0.0655 -0.0067  0.4481
  157SAPE  H12A17398   6.841   6.369   7.594  0.2263 -0.4427  0.3309
  157SAPE  H12B17399   6.864   6.502   7.483 -1.5421  0.4725 -0.7236
  157SAPE   C1117400   6.929   6.306   7.407 -1.0791 -0.1509  0.3303
  157SAPE  H11A17401   6.928   6.337   7.301 -0.8159 -0.9361  0.0913
  157SAPE  H11B17402   6.899   6.200   7.400  0.8858 -0.6496 -1.4562
  157SAPE     P17403   7.161   6.426   7.475  0.6072  0.1969 -0.0983
  157SAPE   O1317404   7.112   6.521   7.580 -0.4039 -0.1537  1.0293
  157SAPE   O1417405   7.289   6.360   7.501 -0.3714 -1.1269 -0.4710
  157SAPE   O1217406   7.066   6.310   7.460  0.5402 -0.1533 -0.0117
  157SAPE   O1117407   7.157   6.504   7.340 -1.4415 -0.0167  0.3610
  157SAPE    C117408   7.247   6.615   7.320 -0.1191 -0.7521 -1.0814
  157SAPE    HA17409   7.203   6.709   7.358  2.7967 -0.7052  2.8085
  157SAPE    HB17410   7.344   6.611   7.374 -0.1306  2.2276 -0.6825
  157SAPE    C217411   7.283   6.633   7.170  0.1505  0.5145 -1.0140
  157SAPE    HS17412   7.326   6.735   7.160 -0.1397  0.7152 -0.3199
  157SAPE   O2117413   7.168   6.617   7.083  0.8052 -0.6554  0.0797
  157SAPE   C2117414   7.069   6.707   7.096 -0.7878  0.2599 -0.2393
  157SAPE   O2217415   7.087   6.822   7.125 -0.0093 -0.5073 -0.9351
  157SAPE   C2217416   6.933   6.644   7.066 -0.1467  0.7729 -0.5718
  157SAPE   H2R17417   6.921   6.568   7.145 -1.5418  1.1260 -0.4116
  157SAPE   H2S17418   6.860   6.728   7.079 -0.5398  0.1448  1.7091
  157SAPE    C317419   7.388   6.534   7.142  0.5162  0.2027 -0.0440
  157SAPE    HX17420   7.360   6.433   7.177 -0.4688  0.5306  0.1340
  157SAPE    HY17421   7.475   6.561   7.206 -0.9105  1.0713  1.6015
  157SAPE   O3117422   7.417   6.544   7.006  0.3708  0.1033  0.5404
  157SAPE   C3117423   7.458   6.430   6.952 -0.3022 -0.3529 -0.0185
  157SAPE   O3217424   7.487   6.327   7.005 -0.0323 -0.2338 -0.3380
  157SAPE   C3217425   7.436   6.451   6.803 -0.6367 -0.3527  0.0776
  157SAPE   H2X17426   7.462   6.557   6.787 -0.3519 -0.3676  0.4343
  157SAPE   H2Y17427   7.328   6.442   6.777 -1.1356  0.9135  1.5507
  157SAPE   C2317428   6.923   6.573   6.929 -0.3981  0.8552 -0.1704
  157SAPE   H3R17429   6.854   6.486   6.936  0.6919 -0.0739 -0.7627
  157SAPE   H3S17430   7.020   6.521   6.913 -0.7448 -0.3246  1.3063
  157SAPE   C2417431   6.876   6.664   6.817  0.1100 -0.0889  0.0171
  157SAPE   H4R17432   6.788   6.725   6.846  1.1224  1.1134  0.6667
  157SAPE   H4S17433   6.845   6.589   6.741 -1.3153  1.1139 -0.6346
  157SAPE   C2517434   6.989   6.749   6.752  0.1426 -0.3765  0.4785
  157SAPE   H5R17435   7.050   6.793   6.833 -0.5154  1.3765  0.0443
  157SAPE   C2617436   7.021   6.772   6.622 -0.3047  0.2197 -0.5841
  157SAPE   H6R17437   7.112   6.828   6.597  0.6572 -0.6938  0.7463
  157SAPE   C2717438   6.934   6.729   6.509 -0.6322 -0.0648  0.3496
  157SAPE   H7R17439   6.958   6.788   6.417 -1.0217 -0.6953 -0.1623
  157SAPE   H7S17440   6.828   6.753   6.532 -1.0762 -2.1158  0.5902
  157SAPE   C2817441   6.953   6.578   6.475 -0.6538 -0.4419  0.7860
  157SAPE   H8R17442   6.891   6.502   6.525 -1.0831 -1.8425 -1.6983
  157SAPE   C2917443   7.044   6.524   6.387  0.2453  0.6108  0.4236
  157SAPE   H9R17444   7.042   6.415   6.371 -4.3792 -0.1740  4.0507
  157SAPE  C21017445   7.141   6.600   6.305  0.6926 -0.3474 -0.0661
  157SAPE  H10R17446   7.239   6.549   6.299 -1.0541 -3.8548 -1.9406
  157SAPE  H10S17447   7.162   6.696   6.357  1.2603 -1.3423  1.6414
  157SAPE  C21117448   7.084   6.621   6.167  0.6154 -0.3049 -0.0867
  157SAPE  H11R17449   6.974   6.628   6.169  0.6130 -0.3344 -0.1135
  157SAPE  C21217450   7.151   6.640   6.052  0.5241 -0.7554  0.0062
  157SAPE  H12R17451   7.087   6.660   5.964  0.5965  2.3913  0.5649
  157SAPE  C21317452   7.297   6.652   6.019 -0.2515  0.6747  0.3089
  157SAPE  H13R17453   7.330   6.549   5.996 -0.2727  0.4011  1.4365
  157SAPE  H13S17454   7.348   6.683   6.113  0.5474 -0.9345  0.4431
  157SAPE  C21417455   7.339   6.742   5.912  0.2485 -0.2604  0.1743
  157SAPE  H14R17456   7.367   6.838   5.958  1.4601 -0.5918  0.1401
  157SAPE  C21517457   7.325   6.728   5.774  0.0786  0.1096  0.3209
  157SAPE  H15R17458   7.349   6.808   5.703 -0.7337 -0.0566 -0.1553
  157SAPE  C21617459   7.253   6.608   5.712  0.4005 -0.2257  0.2629
  157SAPE  H16R17460   7.166   6.652   5.659 -0.9204 -1.7729  1.0980
  157SAPE  H16S17461   7.222   6.542   5.795  1.8481 -1.6707 -0.2972
  157SAPE  C21717462   7.341   6.531   5.598 -0.2297 -0.1333 -0.4331
  157SAPE  H17R17463   7.289   6.436   5.576  1.0379 -0.6762 -1.1887
  157SAPE  H17S17464   7.441   6.502   5.638  0.5497  0.8592 -1.5960
  157SAPE  C21817465   7.370   6.603   5.470  0.1307 -0.7965  0.3801
  157SAPE  H18R17466   7.408   6.704   5.497  2.4996 -0.7238 -2.7095
  157SAPE  H18S17467   7.281   6.631   5.411  0.1776  0.7797  1.0165
  157SAPE  C21917468   7.484   6.546   5.385 -0.1477 -0.6262  0.2926
  157SAPE  H19R17469   7.571   6.548   5.455  1.8879 -0.0395 -2.1156
  157SAPE  H19S17470   7.509   6.618   5.305  0.0274  0.7071  1.5041
  157SAPE  C22017471   7.460   6.402   5.330 -0.1297  0.7105  0.2668
  157SAPE  H20R17472   7.410   6.411   5.232  2.9402 -2.1091 -1.7632
  157SAPE  H20S17473   7.396   6.340   5.397 -0.2112 -2.6152 -2.6497
  157SAPE  H20T17474   7.556   6.348   5.312 -0.9061  0.1041 -2.4458
  157SAPE   C3317475   7.513   6.356   6.710  0.0496  0.2521 -0.0910
  157SAPE   H3X17476   7.464   6.256   6.715 -0.5828  0.5259 -0.7262
  157SAPE   H3Y17477   7.619   6.331   6.730  0.9547  1.7437 -2.6532
  157SAPE   C3417478   7.504   6.399   6.558 -0.6354 -0.2106 -0.3872
  157SAPE   H4X17479   7.574   6.485   6.551  2.2665 -2.4163 -0.7139
  157SAPE   H4Y17480   7.397   6.415   6.534 -0.8480 -2.2113 -0.9297
  157SAPE   C3517481   7.554   6.281   6.472  0.1446 -0.2252  0.8538
  157SAPE   H5X17482   7.486   6.193   6.478  0.3887 -0.5421 -0.7078
  157SAPE   H5Y17483   7.647   6.243   6.520  1.1007  0.0852 -0.6940
  157SAPE   C3617484   7.583   6.321   6.328 -0.0030  0.5000 -0.0360
  157SAPE   H6X17485   7.675   6.383   6.324  0.5206 -0.1149  1.5625
  157SAPE   H6Y17486   7.504   6.390   6.290 -1.4926 -0.3731  1.3474
  157SAPE   C3717487   7.607   6.197   6.236 -0.3549 -0.7744 -0.5911
  157SAPE   H7X17488   7.511   6.147   6.213 -1.2584  0.3420  0.6277
  157SAPE   H7Y17489   7.681   6.131   6.286  0.7009  1.4169  0.8780
  157SAPE   C3817490   7.660   6.233   6.096 -0.4210  0.4173 -0.2723
  157SAPE   H8X17491   7.684   6.137   6.045 -1.1879 -0.6089  1.2360
  157SAPE   H8Y17492   7.748   6.299   6.110 -0.8818  1.0917 -0.5100
  157SAPE   C3917493   7.555   6.295   6.010  0.2960  0.8611  0.2038
  157SAPE   H9X17494   7.532   6.400   6.038  0.1476  1.0690 -0.6669
  157SAPE   H9Y17495   7.462   6.233   6.019  1.3268 -0.5859  1.4816
  157SAPE  C31017496   7.598   6.288   5.867  0.0979 -0.5029 -0.4616
  157SAPE  H10X17497   7.510   6.306   5.801 -1.5319  0.0340  1.7570
  157SAPE  H10Y17498   7.649   6.192   5.846  2.9593  0.5635  1.1402
  157SAPE  C31117499   7.706   6.393   5.841  0.9731 -0.4159  0.4875
  157SAPE  H11X17500   7.802   6.389   5.897  0.4920 -0.6609  1.3137
  157SAPE  H11Y17501   7.651   6.484   5.873 -1.5233 -1.4804 -0.5327
  157SAPE  C31217502   7.733   6.406   5.688 -0.2247 -0.5470 -0.3771
  157SAPE  H12X17503   7.637   6.403   5.632 -0.7158  0.6871  0.3411
  157SAPE  H12Y17504   7.800   6.319   5.674 -0.6210 -1.3862  2.3507
  157SAPE  C31317505   7.812   6.545   5.666 -0.8813  0.3416  0.1351
  157SAPE  H13X17506   7.907   6.550   5.723 -1.8921 -1.1399  2.0678
  157SAPE  H13Y17507   7.749   6.631   5.699  1.9215  1.8415  1.9682
  157SAPE  C31417508   7.852   6.554   5.517 -0.5436  0.1254  0.1548
  157SAPE  H14X17509   7.862   6.662   5.498 -0.7744  0.2680  0.8138
  157SAPE  H14Y17510   7.764   6.519   5.458 -1.8190 -2.9331  3.4827
  157SAPE  C31517511   7.980   6.495   5.482 -0.3906 -0.0012  0.2950
  157SAPE  H15X17512   7.994   6.385   5.491  1.4516  0.2002  0.4449
  157SAPE  H15Y17513   8.057   6.530   5.554  0.7491 -0.8179 -0.4766
  157SAPE  C31617514   8.018   6.536   5.335  0.0729 -0.1020 -0.1892
  157SAPE  H16X17515   7.934   6.513   5.267 -0.9667 -0.6591  1.2247
  157SAPE  H16Y17516   8.101   6.473   5.298  1.5509  0.9658  1.1556
  157SAPE  C31717517   8.070   6.680   5.317  0.0250 -0.3288  0.0485
  157SAPE  H17X17518   8.152   6.697   5.389  0.2829  1.3061 -0.5881
  157SAPE  H17Y17519   7.983   6.746   5.339  0.0541 -0.2984  0.0721
  157SAPE  C31817520   8.131   6.707   5.187  0.5418  0.1429  0.4094
  157SAPE  H18X17521   8.221   6.646   5.162  0.1043  0.5235 -2.4464
  157SAPE  H18Y17522   8.159   6.813   5.169  0.9322 -0.0782 -0.3672
  157SAPE  H18Z17523   8.051   6.686   5.112 -0.5496  3.0361  0.6574
  158SAPE     N17524   4.175   5.629   7.388 -0.7230  0.3552 -0.1455
  158SAPE   HN117525   4.242   5.622   7.467 -2.3480 -0.5260  1.2220
  158SAPE   HN217526   4.101   5.694   7.421  1.2177  1.4380  2.3914
  158SAPE   HN317527   4.151   5.529   7.369 -0.2356  0.0301  0.8465
  158SAPE   C1217528   4.245   5.700   7.282  0.2523  0.2357  0.3584
  158SAPE  H12A17529   4.263   5.803   7.320 -1.5701  0.8164 -0.2551
  158SAPE  H12B17530   4.178   5.705   7.193  1.7076  1.7095 -0.7115
  158SAPE   C1117531   4.384   5.645   7.245 -0.6378 -0.3862  0.1443
  158SAPE  H11A17532   4.435   5.702   7.164 -1.6012 -0.6422 -0.6739
  158SAPE  H11B17533   4.379   5.542   7.202  3.1510 -1.4889  1.8943
  158SAPE     P17534   4.571   5.534   7.386 -0.0713  0.0377 -0.3284
  158SAPE   O1317535   4.686   5.588   7.459  0.2113  0.1946 -0.5152
  158SAPE   O1417536   4.505   5.411   7.448  0.7093 -0.3185  0.8880
  158SAPE   O1217537   4.469   5.646   7.359  0.0480 -0.4512 -0.3283
  158SAPE   O1117538   4.603   5.490   7.243  0.1457 -0.2921  0.4929
  158SAPE    C117539   4.737   5.496   7.186  0.1202  0.3988 -0.4727
  158SAPE    HA17540   4.813   5.435   7.239 -1.1569 -1.3388 -0.5488
  158SAPE    HB17541   4.733   5.449   7.086  0.7572 -1.1980  0.2153
  158SAPE    C217542   4.782   5.646   7.158  0.3550  0.4395 -0.2911
  158SAPE    HS17543   4.783   5.697   7.257 -1.0585  0.4796 -0.2761
  158SAPE   O2117544   4.673   5.716   7.092 -0.5749  0.2922 -0.4949
  158SAPE   C2117545   4.693   5.853   7.098  0.1976 -0.5635  0.3990
  158SAPE   O2217546   4.794   5.910   7.139 -0.3201 -0.2121 -0.1957
  158SAPE   C2217547   4.574   5.923   7.026 -0.3485 -0.2442 -0.0154
  158SAPE   H2R17548   4.559   5.867   6.931  0.0280  0.2655 -0.3847
  158SAPE   H2S17549   4.486   5.915   7.092 -0.4314  0.5483 -0.0192
  158SAPE    C317550   4.914   5.665   7.076  0.7175  0.5494 -0.0254
  158SAPE    HX17551   4.975   5.578   7.108  0.3991  0.5206  0.5233
  158SAPE    HY17552   4.965   5.759   7.107  0.3161  1.4861 -2.0380
  158SAPE   O3117553   4.903   5.655   6.931  0.4652  0.0700 -0.1340
  158SAPE   C3117554   5.019   5.684   6.864 -0.1238 -0.7647 -0.3222
  158SAPE   O3217555   5.131   5.698   6.916  0.1063 -0.4454 -1.0177
  158SAPE   C3217556   4.979   5.692   6.714 -0.0476 -0.7253  0.5062
  158SAPE   H2X17557   4.911   5.779   6.700  0.2447 -0.7708 -1.4334
  158SAPE   H2Y17558   4.929   5.596   6.689  0.5017 -0.3547 -2.3683
  158SAPE   C2317559   4.606   6.068   6.985 -0.0770 -0.5889 -0.1994
  158SAPE   H3R17560   4.698   6.080   6.923  0.5925 -0.2495  0.8456
  158SAPE   H3S17561   4.630   6.123   7.078 -2.1831 -1.3224  0.8406
  158SAPE   C2417562   4.480   6.126   6.912 -0.0353  0.2351 -0.0502
  158SAPE   H4R17563   4.385   6.103   6.965 -1.2916  0.5058 -2.0695
  158SAPE   H4S17564   4.471   6.067   6.818  1.2629 -0.5249  0.2746
  158SAPE   C2517565   4.499   6.266   6.872 -0.9188 -0.0100  0.1776
  158SAPE   H5R17566   4.452   6.339   6.940  0.0475  0.0061  0.8383
  158SAPE   C2617567   4.548   6.309   6.754 -0.1239  0.0568 -0.2614
  158SAPE   H6R17568   4.550   6.417   6.734  1.2851  0.1693  0.3671
  158SAPE   C2717569   4.582   6.224   6.632  0.0250  0.0659  0.3924
  158SAPE   H7R17570   4.541   6.276   6.543 -0.2053  1.1503  1.1172
  158SAPE   H7S17571   4.525   6.129   6.635 -0.0412 -0.0099 -1.7218
  158SAPE   C2817572   4.728   6.186   6.621  0.2844 -0.1314 -0.1891
  158SAPE   H8R17573   4.795   6.191   6.708  0.7553  0.6484 -0.5920
  158SAPE   C2917574   4.779   6.124   6.516  0.1866  0.0023  0.0975
  158SAPE   H9R17575   4.884   6.089   6.518  0.0600 -0.5787 -1.6316
  158SAPE  C21017576   4.710   6.088   6.394 -0.1663 -0.3093 -0.0952
  158SAPE  H10R17577   4.772   6.134   6.315 -0.4219  1.5937  0.7713
  158SAPE  H10S17578   4.605   6.126   6.398 -1.1949 -2.6800 -1.7377
  158SAPE  C21117579   4.703   5.941   6.363 -0.2299  0.5790  0.6685
  158SAPE  H11R17580   4.692   5.868   6.445 -0.9929  0.6432  0.6268
  158SAPE  C21217581   4.724   5.893   6.238  0.5806  0.8942  0.7089
  158SAPE  H12R17582   4.728   5.784   6.228  1.7735  0.9917 -0.1217
  158SAPE  C21317583   4.739   5.985   6.113 -0.0965 -0.3056  0.2930
  158SAPE  H13R17584   4.846   5.978   6.084  0.0665 -0.5125  0.9288
  158SAPE  H13S17585   4.713   6.092   6.129  0.7134 -0.0362 -0.1286
  158SAPE  C21417586   4.644   5.945   6.001  0.2753  0.5768 -0.0375
  158SAPE  H14R17587   4.623   5.838   5.987 -2.5111  1.1822 -1.1570
  158SAPE  C21517588   4.581   6.026   5.914  0.1840  0.1694  0.2266
  158SAPE  H15R17589   4.514   5.981   5.839  0.3137 -1.0603  0.8139
  158SAPE  C21617590   4.590   6.173   5.899  0.5164  0.2744 -0.5475
  158SAPE  H16R17591   4.631   6.222   5.990 -2.3569 -0.8368  1.4916
  158SAPE  H16S17592   4.486   6.213   5.904  1.6086  3.2949  0.6968
  158SAPE  C21717593   4.650   6.223   5.764  0.2319 -0.1921  0.1987
  158SAPE  H17R17594   4.757   6.191   5.771 -0.7797 -4.2238 -0.1755
  158SAPE  H17S17595   4.633   6.333   5.761 -5.2947 -0.8084 -0.8586
  158SAPE  C21817596   4.586   6.159   5.636 -0.3659  0.0437 -0.6778
  158SAPE  H18R17597   4.597   6.049   5.627 -1.0457 -0.0477 -0.4181
  158SAPE  H18S17598   4.642   6.194   5.547  2.3187 -1.8653  0.1345
  158SAPE  C21917599   4.435   6.188   5.617  0.1233 -0.5980  0.2382
  158SAPE  H19R17600   4.415   6.293   5.645 -1.6578 -0.7515 -0.3274
  158SAPE  H19S17601   4.373   6.141   5.696  2.3112 -0.8113  1.9200
  158SAPE  C22017602   4.378   6.154   5.477  0.3837 -0.4469 -0.2927
  158SAPE  H20R17603   4.375   6.043   5.471  1.0661 -0.6105  1.6964
  158SAPE  H20S17604   4.435   6.205   5.396  1.7900  2.7069  2.4228
  158SAPE  H20T17605   4.271   6.184   5.471  0.5097 -0.2516 -1.9606
  158SAPE   C3317606   5.099   5.709   6.618 -0.0831 -0.2538 -0.8635
  158SAPE   H3X17607   5.159   5.616   6.626  1.9511  1.0651 -0.3475
  158SAPE   H3Y17608   5.156   5.798   6.651  2.0150 -1.2263 -1.7038
  158SAPE   C3417609   5.048   5.710   6.469  0.2235 -0.1761 -0.4001
  158SAPE   H4X17610   4.969   5.788   6.471  1.0336  0.6903  2.4126
  158SAPE   H4Y17611   4.992   5.617   6.449 -2.7510  1.0258  1.5696
  158SAPE   C3517612   5.163   5.744   6.365 -0.0589  0.7248  0.4861
  158SAPE   H5X17613   5.242   5.666   6.364 -2.1231 -1.5161 -1.3540
  158SAPE   H5Y17614   5.203   5.845   6.385 -1.0753  1.8497 -2.5382
  158SAPE   C3617615   5.113   5.737   6.224  0.3343 -0.5385 -0.3621
  158SAPE   H6X17616   5.056   5.830   6.207  1.9992  0.2433 -1.9127
  158SAPE   H6Y17617   5.055   5.642   6.225  0.4173 -0.6311  1.9140
  158SAPE   C3717618   5.219   5.726   6.115  0.2940 -0.3392  0.1372
  158SAPE   H7X17619   5.278   5.632   6.127  0.6549  0.1710  2.9777
  158SAPE   H7Y17620   5.283   5.816   6.126 -3.1390  2.5782 -1.8413
  158SAPE   C3817621   5.164   5.721   5.971  0.1806 -0.2614  0.0657
  158SAPE   H8X17622   5.098   5.631   5.962 -1.1976  0.7859 -0.6582
  158SAPE   H8Y17623   5.242   5.701   5.896 -0.5289  0.9073 -1.0228
  158SAPE   C3917624   5.081   5.846   5.932 -0.2820 -0.0023 -0.1345
  158SAPE   H9X17625   5.156   5.924   5.906 -1.2303  0.9140 -0.1863
  158SAPE   H9Y17626   5.020   5.881   6.018  0.2423 -2.9180  1.5748
  158SAPE  C31017627   4.996   5.817   5.806  0.4156  0.3925  0.6423
  158SAPE  H10X17628   4.904   5.879   5.818  0.2820  0.1416  0.9498
  158SAPE  H10Y17629   4.950   5.716   5.801 -0.3040  0.7402  0.0215
  158SAPE  C31117630   5.071   5.853   5.675  0.4056  0.0516  0.0752
  158SAPE  H11X17631   5.160   5.787   5.672  1.4777  1.4865 -0.7358
  158SAPE  H11Y17632   5.108   5.955   5.698 -0.6502  0.5350 -0.2949
  158SAPE  C31217633   4.985   5.854   5.552 -0.4631 -0.2619 -0.8505
  158SAPE  H12X17634   4.895   5.919   5.562 -0.6307 -0.5909 -0.1798
  158SAPE  H12Y17635   4.943   5.752   5.540  0.7501 -0.9319  0.3865
  158SAPE  C31317636   5.059   5.890   5.425 -0.3764  0.3621  0.9559
  158SAPE  H13X17637   5.110   5.797   5.393 -0.6333 -0.2558  2.2691
  158SAPE  H13Y17638   5.135   5.970   5.443  0.5480 -0.2352 -0.1938
  158SAPE  C31417639   4.967   5.927   5.306 -0.5224  0.3441 -0.3013
  158SAPE  H14X17640   4.900   5.840   5.289 -0.1638 -0.7672  3.2101
  158SAPE  H14Y17641   5.029   5.940   5.215  1.0503  0.0421  0.6919
  158SAPE  C31517642   4.900   6.065   5.322 -0.3242  0.7188 -0.2117
  158SAPE  H15X17643   4.978   6.129   5.367  0.4613 -0.1765 -0.2544
  158SAPE  H15Y17644   4.813   6.067   5.391  0.6118  0.9174  0.9850
  158SAPE  C31617645   4.855   6.119   5.186 -0.9656 -0.5061  0.1060
  158SAPE  H16X17646   4.936   6.157   5.121 -3.2824 -0.0439 -2.7517
  158SAPE  H16Y17647   4.791   6.209   5.196 -0.1370 -0.0561  1.5502
  158SAPE  C31717648   4.770   6.020   5.107  0.4406 -1.0305  0.0892
  158SAPE  H17X17649   4.832   5.933   5.080  0.1146 -1.7306  1.5176
  158SAPE  H17Y17650   4.735   6.063   5.010  0.4249 -0.3499  0.3910
  158SAPE  C31817651   4.644   5.981   5.186  0.7749 -0.2893  0.1265
  158SAPE  H18X17652   4.576   5.923   5.119  1.4845  0.2569 -1.1057
  158SAPE  H18Y17653   4.589   6.074   5.211  0.4631  0.2929 -2.4414
  158SAPE  H18Z17654   4.659   5.931   5.284 -0.1230  2.5460  1.8021
  159SAPE     N17655   2.215   6.492   2.678 -0.1887  0.5489  0.2206
  159SAPE   HN117656   2.278   6.562   2.635  1.3350 -0.9168 -0.0062
  159SAPE   HN217657   2.234   6.497   2.781 -0.9185 -0.4368  0.4240
  159SAPE   HN317658   2.263   6.403   2.654 -2.2562 -0.3386 -0.9360
  159SAPE   C1217659   2.075   6.488   2.620 -0.0487  0.0609  1.0132
  159SAPE  H12A17660   2.059   6.387   2.576 -0.5920 -0.3076  2.0191
  159SAPE  H12B17661   2.072   6.570   2.546  1.3618 -0.4192  0.3789
  159SAPE   C1117662   1.968   6.505   2.730  0.5170 -0.5616 -0.3431
  159SAPE  H11A17663   1.976   6.430   2.811 -1.2926  0.3250  0.7364
  159SAPE  H11B17664   1.867   6.494   2.685  0.2804  1.2911 -0.3509
  159SAPE     P17665   1.850   6.709   2.863  0.4726 -0.4677  0.2211
  159SAPE   O1317666   1.902   6.836   2.916  0.3454  0.1309  0.2080
  159SAPE   O1417667   1.761   6.729   2.752  0.6214  0.9973  0.6287
  159SAPE   O1217668   1.976   6.636   2.796 -0.0196  0.0378  0.2600
  159SAPE   O1117669   1.792   6.614   2.980 -0.5862 -0.1121  0.1205
  159SAPE    C117670   1.863   6.606   3.105 -0.3672 -0.1292 -0.4368
  159SAPE    HA17671   1.953   6.671   3.110 -0.5048  0.0468 -0.2430
  159SAPE    HB17672   1.798   6.643   3.186  0.7869  0.4945  0.2336
  159SAPE    C217673   1.910   6.467   3.137 -0.1049  0.2630 -0.3852
  159SAPE    HS17674   1.976   6.438   3.052 -0.7671 -0.6145 -0.6147
  159SAPE   O2117675   1.794   6.374   3.143 -0.6819  0.2809  0.1712
  159SAPE   C2117676   1.810   6.251   3.099 -0.0607  0.9198 -0.0498
  159SAPE   O2217677   1.906   6.219   3.027 -0.1897  0.2041  0.3730
  159SAPE   C2217678   1.694   6.169   3.142 -0.0294 -0.2432 -0.4281
  159SAPE   H2R17679   1.606   6.218   3.095  1.0674  3.5371  1.0490
  159SAPE   H2S17680   1.702   6.069   3.094 -1.2886 -0.5119 -0.1079
  159SAPE    C317681   1.988   6.462   3.267 -0.6310 -0.6778 -0.0785
  159SAPE    HX17682   2.072   6.533   3.255 -1.7559  0.6616 -0.1823
  159SAPE    HY17683   2.032   6.360   3.279 -0.3909 -0.5210  0.3880
  159SAPE   O3117684   1.907   6.494   3.381 -0.0842  0.1386  0.3207
  159SAPE   C3117685   1.977   6.488   3.492  0.9470  0.2093  0.3764
  159SAPE   O3217686   2.093   6.452   3.490  0.6141  0.5685  0.0084
  159SAPE   C3217687   1.884   6.498   3.613 -0.0593 -0.5139 -0.8763
  159SAPE   H2X17688   1.854   6.604   3.620 -2.1311 -1.0824 -0.3523
  159SAPE   H2Y17689   1.946   6.466   3.699 -0.2369 -0.9881 -0.9199
  159SAPE   C2317690   1.686   6.139   3.301 -0.3434 -0.8429  1.0057
  159SAPE   H3R17691   1.586   6.091   3.302 -1.4312  1.2488  3.1495
  159SAPE   H3S17692   1.673   6.243   3.338  0.0334 -0.0531 -0.9535
  159SAPE   C2417693   1.795   6.063   3.368  0.0790 -0.0282  0.0167
  159SAPE   H4R17694   1.801   6.104   3.471 -1.3765  0.7856 -0.1975
  159SAPE   H4S17695   1.893   6.090   3.323  0.9898 -2.7601  0.1628
  159SAPE   C2517696   1.806   5.912   3.360 -0.6659  0.0727 -0.1010
  159SAPE   H5R17697   1.802   5.868   3.259  1.8244  2.2467 -1.3003
  159SAPE   C2617698   1.806   5.837   3.476 -0.3726 -0.1855  0.2291
  159SAPE   H6R17699   1.810   5.727   3.477 -0.4511 -0.1915 -0.1117
  159SAPE   C2717700   1.797   5.875   3.617  0.3802 -0.5204 -0.4042
  159SAPE   H7R17701   1.825   5.982   3.632 -0.4847 -0.5313  1.6349
  159SAPE   H7S17702   1.876   5.820   3.673  1.4951  2.1344  0.8296
  159SAPE   C2817703   1.656   5.861   3.676  0.5531 -0.5303 -0.5276
  159SAPE   H8R17704   1.567   5.871   3.613 -0.0571 -0.7508  0.2929
  159SAPE   C2917705   1.628   5.840   3.809 -0.0654  0.7086 -0.2398
  159SAPE   H9R17706   1.522   5.830   3.838 -0.6507 -1.2715 -2.6508
  159SAPE  C21017707   1.725   5.827   3.925 -0.2676  0.0094  0.8631
  159SAPE  H10R17708   1.824   5.794   3.886 -1.0457 -2.8824  1.0797
  159SAPE  H10S17709   1.679   5.747   3.986  1.3685  0.2497  2.5044
  159SAPE  C21117710   1.751   5.943   4.015  0.4591  0.0524  0.8730
  159SAPE  H11R17711   1.681   6.027   3.998  0.1024 -0.2124  1.0372
  159SAPE  C21217712   1.859   5.951   4.097  0.3646 -0.1241  0.1224
  159SAPE  H12R17713   1.869   6.045   4.154  0.4305  1.4612 -2.3321
  159SAPE  C21317714   1.969   5.850   4.116  0.3629 -0.2257  0.6240
  159SAPE  H13R17715   1.993   5.814   4.014  0.6876 -2.3590  1.3917
  159SAPE  H13S17716   1.917   5.769   4.172 -1.1895  1.1996  1.3372
  159SAPE  C21417717   2.090   5.900   4.196  0.9562 -0.2074  0.0958
  159SAPE  H14R17718   2.179   5.924   4.135  0.1492  1.0102 -0.6686
  159SAPE  C21517719   2.094   5.902   4.331 -0.2821  0.7057 -0.3058
  159SAPE  H15R17720   2.186   5.939   4.379 -0.1173 -0.4273  0.2846
  159SAPE  C21617721   1.985   5.876   4.426  0.5918  0.1862 -0.3192
  159SAPE  H16R17722   1.883   5.865   4.385 -0.6607  0.8835  2.3968
  159SAPE  H16S17723   1.977   5.973   4.479  0.6526  0.2739 -0.4685
  159SAPE  C21717724   2.022   5.745   4.508 -0.5025 -0.4033  0.3105
  159SAPE  H17R17725   2.119   5.766   4.558 -0.8386 -0.0799  0.8280
  159SAPE  H17S17726   2.040   5.658   4.442  0.1946  0.7069 -1.0182
  159SAPE  C21817727   1.925   5.707   4.622 -0.6896  0.0511 -0.3748
  159SAPE  H18R17728   1.827   5.677   4.579  0.5414 -1.2788 -2.4373
  159SAPE  H18S17729   1.890   5.790   4.687 -4.1781 -1.2909 -0.3384
  159SAPE  C21917730   1.976   5.592   4.718  1.0835  0.3444  0.5266
  159SAPE  H19R17731   1.979   5.494   4.666 -2.2322  1.6974 -2.6367
  159SAPE  H19S17732   1.890   5.577   4.787 -1.3614 -2.2346 -2.7694
  159SAPE  C22017733   2.108   5.624   4.793  0.2276 -0.0363  0.0439
  159SAPE  H20R17734   2.103   5.562   4.885 -0.1617 -0.3720 -0.2011
  159SAPE  H20S17735   2.109   5.734   4.809 -1.6392  0.0147  0.0836
  159SAPE  H20T17736   2.192   5.603   4.724  0.7456  1.5361  0.1521
  159SAPE   C3317737   1.748   6.416   3.610  0.8595  0.3843  0.3081
  159SAPE   H3X17738   1.758   6.305   3.609 -2.8663 -0.0750  0.2986
  159SAPE   H3Y17739   1.692   6.437   3.517 -0.4275 -1.1313  0.6898
  159SAPE   C3417740   1.660   6.456   3.733 -0.1059  0.3078  0.0088
  159SAPE   H4X17741   1.565   6.399   3.721 -0.4286  0.8104  0.1688
  159SAPE   H4Y17742   1.628   6.562   3.722 -0.5852  0.3373  1.5042
  159SAPE   C3517743   1.729   6.447   3.871 -0.4367 -0.7322 -0.1506
  159SAPE   H5X17744   1.659   6.486   3.948  0.0449  1.3462 -0.7181
  159SAPE   H5Y17745   1.823   6.503   3.889 -0.6785  0.5526 -2.5405
  159SAPE   C3617746   1.757   6.304   3.909  0.0278 -0.5565  0.1954
  159SAPE   H6X17747   1.805   6.256   3.821 -0.7739 -1.6604  0.3473
  159SAPE   H6Y17748   1.656   6.259   3.911 -0.3113  0.1225 -0.7963
  159SAPE   C3717749   1.841   6.294   4.029  0.0348  0.3689 -0.3470
  159SAPE   H7X17750   1.925   6.363   4.050  0.4913 -0.5598  0.9847
  159SAPE   H7Y17751   1.884   6.192   4.018  0.2641  0.1017  2.3221
  159SAPE   C3817752   1.763   6.295   4.155 -0.1030 -0.2642  0.8617
  159SAPE   H8X17753   1.684   6.217   4.158  2.1127 -2.8107 -1.2839
  159SAPE   H8Y17754   1.702   6.387   4.155  0.3764  0.0738 -0.1459
  159SAPE   C3917755   1.840   6.296   4.293  0.0929 -0.2850 -0.0836
  159SAPE   H9X17756   1.940   6.344   4.286  0.7036 -1.4978  0.0654
  159SAPE   H9Y17757   1.860   6.188   4.308  1.0601 -0.4712 -2.3131
  159SAPE  C31017758   1.770   6.380   4.405 -0.3654 -0.4117 -0.1820
  159SAPE  H10X17759   1.671   6.345   4.440  0.3444  0.5508  3.2649
  159SAPE  H10Y17760   1.757   6.480   4.358  0.4763 -0.0879  0.2494
  159SAPE  C31117761   1.853   6.391   4.539 -0.2040  0.2124  0.5904
  159SAPE  H11X17762   1.799   6.455   4.612  0.5461  1.9135 -0.3018
  159SAPE  H11Y17763   1.957   6.423   4.518  0.2776  0.4237  3.0411
  159SAPE  C31217764   1.874   6.254   4.615 -0.0909  0.4645 -0.2134
  159SAPE  H12X17765   1.922   6.177   4.550 -0.0906  0.8414 -0.6667
  159SAPE  H12Y17766   1.773   6.214   4.638  0.3733 -0.9186 -0.4457
  159SAPE  C31317767   1.943   6.259   4.759 -0.2306 -1.2213 -0.0961
  159SAPE  H13X17768   1.887   6.336   4.816  0.4130 -0.3013 -0.6906
  159SAPE  H13Y17769   2.046   6.293   4.737 -1.0932  1.3832 -0.4196
  159SAPE  C31417770   1.921   6.125   4.841 -0.2565 -0.0433 -0.4145
  159SAPE  H14X17771   1.979   6.051   4.782  1.0779  1.7915 -1.4937
  159SAPE  H14Y17772   1.815   6.093   4.831 -0.4069  0.0409  0.7150
  159SAPE  C31517773   1.961   6.139   4.989  0.4731  0.1275  0.5670
  159SAPE  H15X17774   1.900   6.221   5.034  0.7279  0.7017 -0.1249
  159SAPE  H15Y17775   2.067   6.165   5.007  0.5569  0.1110  0.1045
  159SAPE  C31617776   1.918   6.013   5.070 -0.4610 -0.1686 -0.3035
  159SAPE  H16X17777   1.809   6.000   5.087 -0.6080  0.1210 -0.9858
  159SAPE  H16Y17778   1.951   6.037   5.173  0.2480  2.8994 -1.1625
  159SAPE  C31717779   1.986   5.886   5.030 -0.6946  0.7409  0.3828
  159SAPE  H17X17780   2.091   5.907   5.002 -0.8243  1.2938  0.2782
  159SAPE  H17Y17781   1.937   5.852   4.936 -0.2733  1.9806 -0.3121
  159SAPE  C31817782   1.983   5.777   5.129 -0.6037  0.0361  0.8104
  159SAPE  H18X17783   2.083   5.728   5.130 -1.8313 -2.7698 -1.3812
  159SAPE  H18Y17784   1.898   5.711   5.104  1.2287 -1.4524 -1.9805
  159SAPE  H18Z17785   1.967   5.821   5.230 -2.1952  0.2952  0.4744
  160SAPE     N17786   3.935   4.722   2.796 -0.2417  0.1619 -0.0099
  160SAPE   HN117787   4.016   4.787   2.808  1.4878 -1.7522 -0.7836
  160SAPE   HN217788   3.968   4.629   2.829 -0.4964  0.7451  2.0997
  160SAPE   HN317789   3.911   4.717   2.695 -1.4986 -2.3772  0.3230
  160SAPE   C1217790   3.825   4.786   2.883  0.1699 -0.4164  0.3357
  160SAPE  H12A17791   3.726   4.742   2.857  0.5403 -0.9037 -0.2980
  160SAPE  H12B17792   3.830   4.895   2.860 -0.2344  0.0159  2.1239
  160SAPE   C1117793   3.862   4.769   3.036  0.0648  0.6254  0.9422
  160SAPE  H11A17794   3.860   4.662   3.067 -1.7509  0.7660  1.4077
  160SAPE  H11B17795   3.772   4.810   3.087 -2.5596 -1.1002 -1.9704
  160SAPE     P17796   4.086   4.767   3.162 -0.3566  0.2142  0.3739
  160SAPE   O1317797   4.122   4.628   3.110  0.2697  0.4589 -0.0925
  160SAPE   O1417798   4.195   4.867   3.173  0.3633 -0.0265  0.1838
  160SAPE   O1217799   3.980   4.835   3.066 -0.6069  0.6785  0.2700
  160SAPE   O1117800   3.996   4.749   3.297  0.0723 -0.2924 -0.1581
  160SAPE    C117801   3.966   4.863   3.373 -0.4298 -0.6880 -0.4373
  160SAPE    HA17802   4.054   4.889   3.435  0.2973  1.3342 -2.2067
  160SAPE    HB17803   3.934   4.944   3.304 -0.6570 -0.7797 -0.4401
  160SAPE    C217804   3.852   4.840   3.479 -0.8630  0.1791  0.4035
  160SAPE    HS17805   3.844   4.931   3.542 -0.9470 -0.4878  1.3708
  160SAPE   O2117806   3.887   4.719   3.554 -0.1144  0.1092 -0.5461
  160SAPE   C2117807   3.967   4.753   3.654  0.9152  0.0000 -0.2457
  160SAPE   O2217808   4.007   4.865   3.693  0.0309 -0.5281  0.0219
  160SAPE   C2217809   3.997   4.623   3.733  0.1473  0.5065 -0.3808
  160SAPE   H2R17810   3.904   4.565   3.752 -0.4129  1.6903  0.6014
  160SAPE   H2S17811   4.054   4.557   3.664  1.8357  0.5331  0.9109
  160SAPE    C317812   3.712   4.820   3.412 -1.2228  0.1200 -0.4361
  160SAPE    HX17813   3.735   4.743   3.335  2.2791 -1.7529  2.1552
  160SAPE    HY17814   3.682   4.908   3.350 -0.5535 -0.1294 -1.1395
  160SAPE   O3117815   3.609   4.789   3.505  0.5736  0.1172 -0.4396
  160SAPE   C3117816   3.572   4.668   3.507  0.1620  0.6923  0.1723
  160SAPE   O3217817   3.623   4.578   3.444  0.2750 -0.4316 -0.1381
  160SAPE   C3217818   3.461   4.650   3.606 -0.0498  0.0940 -0.3549
  160SAPE   H2X17819   3.371   4.645   3.542 -1.3677 -0.2254  1.4333
  160SAPE   H2Y17820   3.446   4.736   3.676  0.7252  1.1371 -1.4412
  160SAPE   C2317821   4.092   4.636   3.855  0.2514 -0.0276  0.1363
  160SAPE   H3R17822   4.029   4.695   3.925 -2.7164 -1.0933 -1.4455
  160SAPE   H3S17823   4.174   4.704   3.822 -0.4578 -0.1212 -1.9552
  160SAPE   C2417824   4.143   4.502   3.912 -0.2519  0.1489 -0.0120
  160SAPE   H4R17825   4.230   4.534   3.974 -1.4189  0.6332  1.4487
  160SAPE   H4S17826   4.181   4.445   3.825 -1.9683 -0.6933 -0.2546
  160SAPE   C2517827   4.046   4.419   3.990 -0.7355  0.4869  0.2182
  160SAPE   H5R17828   4.007   4.464   4.082 -1.6382 -0.6336  0.3989
  160SAPE   C2617829   4.025   4.294   3.953 -0.2009  0.3276 -0.6578
  160SAPE   H6R17830   3.948   4.238   4.008  2.3665 -2.7550  0.1357
  160SAPE   C2717831   4.097   4.204   3.852  0.0804 -0.0289  0.0060
  160SAPE   H7R17832   4.048   4.105   3.860  1.0040 -0.7712 -2.5062
  160SAPE   H7S17833   4.202   4.212   3.887 -0.3706  0.3797  1.3093
  160SAPE   C2817834   4.094   4.235   3.701  0.0478 -0.6140  1.2637
  160SAPE   H8R17835   4.190   4.243   3.649  0.0729  2.0100  1.5777
  160SAPE   C2917836   3.990   4.252   3.618  0.8743  0.0797  0.6958
  160SAPE   H9R17837   4.008   4.258   3.510  0.3871 -0.3891  0.5803
  160SAPE  C21017838   3.842   4.263   3.651  0.0080 -0.5499  0.0883
  160SAPE  H10R17839   3.815   4.371   3.655 -1.5325 -0.9465  0.8445
  160SAPE  H10S17840   3.825   4.224   3.753 -0.0450  0.5523  0.5140
  160SAPE  C21117841   3.763   4.205   3.536 -0.6892  0.0079  0.0366
  160SAPE  H11R17842   3.736   4.274   3.455  1.7134  1.1193  0.1011
  160SAPE  C21217843   3.710   4.084   3.529  0.3325 -0.1840  0.1185
  160SAPE  H12R17844   3.659   4.055   3.436 -0.3568  0.5899  0.2445
  160SAPE  C21317845   3.724   3.977   3.636 -0.1531 -0.3367 -0.3093
  160SAPE  H13R17846   3.629   3.923   3.650 -0.9992  0.8165 -1.4073
  160SAPE  H13S17847   3.740   4.024   3.736 -2.3217  0.0923 -0.1242
  160SAPE  C21417848   3.845   3.884   3.603 -0.6541  0.4245 -0.0365
  160SAPE  H14R17849   3.891   3.890   3.503 -0.1429 -0.1708  0.1605
  160SAPE  C21517850   3.896   3.792   3.684 -0.3979 -0.8759  0.6312
  160SAPE  H15R17851   3.971   3.720   3.648 -0.2083 -0.4784  0.2090
  160SAPE  C21617852   3.869   3.765   3.826 -0.3615  0.4729 -0.2829
  160SAPE  H16R17853   3.812   3.671   3.845  0.9657 -0.5408 -1.1054
  160SAPE  H16S17854   3.803   3.848   3.858 -1.3803 -0.0004 -1.0865
  160SAPE  C21717855   4.003   3.746   3.910  0.5245  0.3213  0.9096
  160SAPE  H17R17856   4.079   3.820   3.878 -0.5105  0.2783 -1.9458
  160SAPE  H17S17857   4.037   3.648   3.869  1.4249  1.7676 -2.1304
  160SAPE  C21817858   3.981   3.740   4.054  0.1738 -0.2835  0.4692
  160SAPE  H18R17859   3.912   3.655   4.074 -2.7190  0.7993 -3.6033
  160SAPE  H18S17860   3.947   3.838   4.092  0.9870  1.5347 -3.0585
  160SAPE  C21917861   4.114   3.716   4.115  0.2312 -0.0938 -0.5674
  160SAPE  H19R17862   4.181   3.784   4.058  1.4981 -2.0351 -1.5005
  160SAPE  H19S17863   4.157   3.614   4.105  0.3840 -0.0058 -0.8028
  160SAPE  C22017864   4.125   3.766   4.263 -0.6109  0.3447  1.1371
  160SAPE  H20R17865   4.077   3.866   4.267  1.0395  1.2115  0.3933
  160SAPE  H20S17866   4.228   3.759   4.303  0.6875 -0.5188 -2.0580
  160SAPE  H20T17867   4.057   3.693   4.312  0.9793 -1.0023  1.4076
  160SAPE   C3317868   3.482   4.516   3.682 -0.1175  0.0996  0.2100
  160SAPE   H3X17869   3.499   4.431   3.613 -0.1615  0.5134 -0.3209
  160SAPE   H3Y17870   3.384   4.508   3.733  0.5809 -3.4798  1.2275
  160SAPE   C3417871   3.588   4.519   3.791 -1.0271  0.5737 -0.4257
  160SAPE   H4X17872   3.693   4.512   3.753 -0.9971 -0.0083 -0.2425
  160SAPE   H4Y17873   3.582   4.422   3.844 -0.1375  0.0086 -1.3185
  160SAPE   C3517874   3.567   4.630   3.889  0.1759 -0.4783 -0.2684
  160SAPE   H5X17875   3.462   4.627   3.925  1.1082 -1.5918  2.6823
  160SAPE   H5Y17876   3.586   4.729   3.843  2.2463 -1.2422 -1.1764
  160SAPE   C3617877   3.650   4.617   4.013  0.1661 -0.3699 -0.6201
  160SAPE   H6X17878   3.625   4.694   4.089 -0.0280 -0.8972 -0.1480
  160SAPE   H6Y17879   3.756   4.638   3.983 -0.5636  2.7196 -1.4315
  160SAPE   C3717880   3.655   4.471   4.070 -0.5954 -0.3718  0.3988
  160SAPE   H7X17881   3.703   4.403   3.997  0.3638 -1.5623  2.0791
  160SAPE   H7Y17882   3.550   4.437   4.086 -0.6873  0.4434  1.6141
  160SAPE   C3817883   3.733   4.435   4.199  0.1696  1.0582 -0.4937
  160SAPE   H8X17884   3.672   4.497   4.269  0.9844  1.4315 -0.1022
  160SAPE   H8Y17885   3.836   4.475   4.204 -0.2093  2.2955 -1.8703
  160SAPE   C3917886   3.734   4.285   4.230 -0.1751 -0.2547 -0.0305
  160SAPE   H9X17887   3.739   4.223   4.138 -1.4835 -1.0442  0.3991
  160SAPE   H9Y17888   3.640   4.264   4.285 -0.3744 -2.1108 -1.0183
  160SAPE  C31017889   3.843   4.235   4.332  0.5696 -0.1616 -0.2515
  160SAPE  H10X17890   3.947   4.246   4.293  1.2061 -1.8697  0.8500
  160SAPE  H10Y17891   3.836   4.125   4.340  1.3243 -0.2787 -0.9898
  160SAPE  C31117892   3.840   4.305   4.469  1.3840  0.8193  0.5240
  160SAPE  H11X17893   3.838   4.415   4.478 -3.0395  1.1957 -2.0262
  160SAPE  H11Y17894   3.927   4.260   4.520  0.5304 -2.3457 -0.5672
  160SAPE  C31217895   3.710   4.250   4.548 -0.5397 -0.1497  0.1650
  160SAPE  H12X17896   3.696   4.142   4.523 -0.6782 -0.1495  0.2388
  160SAPE  H12Y17897   3.615   4.296   4.513  0.0750  0.2209 -1.0637
  160SAPE  C31317898   3.719   4.271   4.700  0.8497  0.5148 -0.9109
  160SAPE  H13X17899   3.733   4.377   4.729  1.5848  0.0050  0.7284
  160SAPE  H13Y17900   3.809   4.218   4.737 -0.7775 -1.0993  0.9670
  160SAPE  C31417901   3.595   4.223   4.781  0.6339  0.0449 -0.4685
  160SAPE  H14X17902   3.635   4.198   4.882  2.2212  0.4167 -0.9707
  160SAPE  H14Y17903   3.549   4.132   4.738  0.1711  0.3366 -0.6006
  160SAPE  C31517904   3.494   4.338   4.802  0.4257 -0.0943  0.4143
  160SAPE  H15X17905   3.463   4.365   4.699  3.2013  0.4050 -0.3643
  160SAPE  H15Y17906   3.542   4.434   4.832 -0.1988  0.1226  0.7443
  160SAPE  C31617907   3.370   4.308   4.889 -0.2391  0.6031  0.3827
  160SAPE  H16X17908   3.418   4.284   4.986  0.3137  3.0966  0.8020
  160SAPE  H16Y17909   3.317   4.223   4.840  0.7019 -0.0373  0.4590
  160SAPE  C31717910   3.267   4.424   4.890 -0.0646  0.0261  0.2961
  160SAPE  H17X17911   3.268   4.478   4.793  2.0217  1.5631  1.0824
  160SAPE  H17Y17912   3.299   4.497   4.967  0.7377 -0.9969  0.9744
  160SAPE  C31817913   3.124   4.373   4.925 -0.2933  0.6461 -0.1912
  160SAPE  H18X17914   3.110   4.327   5.025  1.4516 -1.5273 -0.8703
  160SAPE  H18Y17915   3.108   4.289   4.854 -0.0014 -0.8333  1.4379
  160SAPE  H18Z17916   3.045   4.450   4.908 -0.1532  0.6378 -0.9063
  161SAPE     N17917   2.989   1.644   2.965 -0.0916  0.1291 -0.2580
  161SAPE   HN117918   2.971   1.566   3.030 -1.1015  0.0931 -0.5526
  161SAPE   HN217919   3.020   1.724   3.025  1.0955  0.0454 -0.7307
  161SAPE   HN317920   2.898   1.672   2.923 -0.0852  1.4679  0.5448
  161SAPE   C1217921   3.103   1.611   2.884  0.4836  0.7654 -0.1244
  161SAPE  H12A17922   3.132   1.701   2.825 -1.9318  1.7175  0.0278
  161SAPE  H12B17923   3.081   1.537   2.804  1.8212 -0.5823  0.6916
  161SAPE   C1117924   3.216   1.561   2.974 -0.0830 -0.2688  0.3165
  161SAPE  H11A17925   3.255   1.642   3.039  0.8185 -0.5479  0.1372
  161SAPE  H11B17926   3.291   1.534   2.896  0.2059  0.4042  0.3554
  161SAPE     P17927   3.294   1.369   3.123  0.0343 -0.1142 -0.3720
  161SAPE   O1317928   3.258   1.230   3.156  0.2551 -0.2596 -0.0995
  161SAPE   O1417929   3.421   1.397   3.060 -0.0318 -0.1332 -0.1614
  161SAPE   O1217930   3.168   1.450   3.054 -0.8204 -0.9154 -0.3571
  161SAPE   O1117931   3.295   1.446   3.263  0.1154 -0.2977  0.2399
  161SAPE    C117932   3.178   1.482   3.339 -0.0117  0.2893  0.1377
  161SAPE    HA17933   3.164   1.592   3.331  0.3891  0.3051 -0.4315
  161SAPE    HB17934   3.086   1.426   3.313 -1.8679  1.5662  3.4086
  161SAPE    C217935   3.200   1.445   3.485  0.6779 -0.1416 -0.1604
  161SAPE    HS17936   3.110   1.472   3.543 -1.5726  0.8451 -3.7882
  161SAPE   O2117937   3.311   1.503   3.551 -0.0598 -0.3631  0.3993
  161SAPE   C2117938   3.311   1.636   3.564 -0.0127 -0.4219  0.2722
  161SAPE   O2217939   3.219   1.707   3.525  0.3513  0.0350  0.4408
  161SAPE   C2217940   3.432   1.682   3.659 -0.5489 -0.2507 -0.3196
  161SAPE   H2R17941   3.528   1.680   3.604 -0.6008 -1.9659 -0.4144
  161SAPE   H2S17942   3.416   1.783   3.702  0.2174 -0.3843  0.3115
  161SAPE    C317943   3.220   1.291   3.502 -0.5604 -0.6156  0.0450
  161SAPE    HX17944   3.306   1.256   3.440  0.8304 -2.1683  2.6895
  161SAPE    HY17945   3.135   1.233   3.459  0.3257 -2.3908  0.5955
  161SAPE   O3117946   3.252   1.259   3.640 -1.0107  0.4240  0.3683
  161SAPE   C3117947   3.350   1.171   3.657 -0.2164 -0.1798 -0.3006
  161SAPE   O3217948   3.434   1.135   3.574 -0.0170  0.3840 -0.8397
  161SAPE   C3217949   3.339   1.118   3.807  0.0492 -0.1048 -0.0844
  161SAPE   H2X17950   3.373   1.203   3.870  0.2931  0.6137 -1.1457
  161SAPE   H2Y17951   3.411   1.037   3.830 -0.2810 -0.2790  0.3554
  161SAPE   C2317952   3.467   1.592   3.779  0.0436 -0.2171 -0.1344
  161SAPE   H3R17953   3.491   1.490   3.743  1.2092  0.8152 -2.5997
  161SAPE   H3S17954   3.384   1.578   3.851  1.7195 -0.1777  1.9152
  161SAPE   C2417955   3.573   1.647   3.873 -0.6082 -0.3447 -0.4981
  161SAPE   H4R17956   3.664   1.667   3.813 -0.9804 -0.2248 -1.0327
  161SAPE   H4S17957   3.602   1.567   3.944 -0.7042  0.2551  0.2330
  161SAPE   C2517958   3.536   1.780   3.939  0.0687 -0.3314 -0.7000
  161SAPE   H5R17959   3.537   1.867   3.872 -1.7016  0.6194  0.4561
  161SAPE   C2617960   3.492   1.794   4.069  0.1593  0.5142  0.2638
  161SAPE   H6R17961   3.457   1.892   4.105  0.4036  0.2882  1.1437
  161SAPE   C2717962   3.457   1.679   4.154  0.3000  0.2781 -0.4625
  161SAPE   H7R17963   3.459   1.577   4.109  1.2958 -0.1736  0.5531
  161SAPE   H7S17964   3.348   1.693   4.166  0.6962  1.7468  1.9110
  161SAPE   C2817965   3.543   1.677   4.280  0.1983  0.0676  0.9099
  161SAPE   H8R17966   3.622   1.601   4.282  0.3108  0.1843  0.9127
  161SAPE   C2917967   3.518   1.747   4.392 -0.6214 -0.0278 -0.4844
  161SAPE   H9R17968   3.595   1.741   4.469 -0.0253 -2.2456 -1.1729
  161SAPE  C21017969   3.417   1.861   4.413 -0.8050  0.2424  0.6390
  161SAPE  H10R17970   3.314   1.819   4.404 -0.3322 -0.8068 -0.0253
  161SAPE  H10S17971   3.437   1.938   4.335 -0.4534  0.8500  1.3161
  161SAPE  C21117972   3.431   1.935   4.543  0.4125  0.0290 -0.2050
  161SAPE  H11R17973   3.471   2.036   4.528 -1.0949  0.2322 -3.7908
  161SAPE  C21217974   3.397   1.889   4.666  0.1768 -0.1961  0.2664
  161SAPE  H12R17975   3.418   1.955   4.752 -0.0583  0.1260  0.0813
  161SAPE  C21317976   3.348   1.751   4.699  0.2569  0.4587 -0.3137
  161SAPE  H13R17977   3.412   1.682   4.640 -1.2367 -2.4818  1.2713
  161SAPE  H13S17978   3.242   1.734   4.672 -0.1032  1.0131  0.7142
  161SAPE  C21417979   3.350   1.714   4.844  0.1908 -0.3021 -0.0516
  161SAPE  H14R17980   3.449   1.689   4.886  0.4194  0.3200 -0.2161
  161SAPE  C21517981   3.252   1.728   4.933  0.5891 -0.0569 -0.3231
  161SAPE  H15R17982   3.273   1.721   5.041 -1.0617 -0.2032  0.0186
  161SAPE  C21617983   3.115   1.787   4.910 -0.1309  0.4066  0.1968
  161SAPE  H16R17984   3.116   1.852   4.819 -2.0281  2.6930  1.6729
  161SAPE  H16S17985   3.095   1.861   4.990 -0.1880 -1.0390  1.5605
  161SAPE  C21717986   2.997   1.681   4.913 -0.4648  0.2655  0.6174
  161SAPE  H17R17987   3.000   1.636   5.015  3.5774  0.4438  0.7263
  161SAPE  H17S17988   3.016   1.609   4.831 -0.2436  0.1513  0.7673
  161SAPE  C21817989   2.865   1.763   4.902 -0.0056 -0.0486  0.2964
  161SAPE  H18R17990   2.864   1.808   4.800 -1.3341  2.8281  1.4581
  161SAPE  H18S17991   2.847   1.845   4.975 -1.9135 -0.5585  0.4494
  161SAPE  C21917992   2.738   1.681   4.923  0.8463  0.5454  0.2651
  161SAPE  H19R17993   2.734   1.667   5.033  0.3808 -0.9619  0.0820
  161SAPE  H19S17994   2.761   1.579   4.886 -0.3304 -0.4620  2.1708
  161SAPE  C22017995   2.610   1.736   4.863  0.2789  0.3026 -0.6690
  161SAPE  H20R17996   2.529   1.660   4.858  0.2282  0.3447 -0.4907
  161SAPE  H20S17997   2.632   1.759   4.756  1.2927  0.1291 -0.5133
  161SAPE  H20T17998   2.584   1.829   4.918  1.4266  0.3421 -0.1660
  161SAPE   C3317999   3.198   1.072   3.845 -0.2359  0.3895 -0.4955
  161SAPE   H3X18000   3.181   0.979   3.787  1.3943 -0.4615  0.3206
  161SAPE   H3Y18001   3.119   1.146   3.821 -0.4726 -0.1794 -1.5308
  161SAPE   C3418002   3.189   1.033   4.001  0.3181 -0.1839  0.5528
  161SAPE   H4X18003   3.081   1.016   4.015 -0.2755  1.3670 -1.4924
  161SAPE   H4Y18004   3.227   1.118   4.062 -1.9545  0.4715  1.1401
  161SAPE   C3518005   3.260   0.909   4.049 -0.2965  0.0068  0.0047
  161SAPE   H5X18006   3.368   0.927   4.031 -0.3532  0.5632  0.2222
  161SAPE   H5Y18007   3.228   0.826   3.982 -0.9171 -1.5510  2.1192
  161SAPE   C3618008   3.225   0.879   4.195  0.5964  0.6350 -0.1876
  161SAPE   H6X18009   3.116   0.859   4.208  0.5053 -1.5800 -3.2379
  161SAPE   H6Y18010   3.251   0.966   4.259 -1.0331  2.0320 -1.3274
  161SAPE   C3718011   3.305   0.759   4.257  0.2874  0.7392  0.7310
  161SAPE   H7X18012   3.402   0.796   4.297  0.5495  1.7701 -0.7454
  161SAPE   H7Y18013   3.319   0.673   4.187 -0.5647  0.7192  0.5732
  161SAPE   C3818014   3.227   0.700   4.375  0.4479 -0.3820  0.2560
  161SAPE   H8X18015   3.281   0.609   4.410  1.1759  0.7986  2.3584
  161SAPE   H8Y18016   3.123   0.669   4.350  0.3967  0.2710 -0.3539
  161SAPE   C3918017   3.228   0.799   4.494 -0.2076 -0.3556 -0.1333
  161SAPE   H9X18018   3.152   0.878   4.474 -1.4333 -1.2732  0.8020
  161SAPE   H9Y18019   3.329   0.845   4.509 -0.7419  0.7799  0.1421
  161SAPE  C31018020   3.192   0.735   4.627 -0.4624 -0.1474 -0.3287
  161SAPE  H10X18021   3.253   0.645   4.651 -1.1436 -0.4998  0.1109
  161SAPE  H10Y18022   3.087   0.701   4.615 -0.6417  0.3190 -0.0954
  161SAPE  C31118023   3.203   0.828   4.741  0.1955  0.1150  0.0424
  161SAPE  H11X18024   3.132   0.912   4.727  0.0709  0.0456  0.2452
  161SAPE  H11Y18025   3.309   0.861   4.753  0.6930 -1.0944 -0.7930
  161SAPE  C31218026   3.164   0.748   4.871  0.2868 -0.2172  0.2196
  161SAPE  H12X18027   3.220   0.652   4.862  3.0753  1.3185 -0.0363
  161SAPE  H12Y18028   3.054   0.739   4.876  0.1065  1.4056 -0.4286
  161SAPE  C31318029   3.201   0.841   4.982  1.0806 -0.2131  0.4410
  161SAPE  H13X18030   3.133   0.929   4.975 -1.9938 -2.5343 -0.8415
  161SAPE  H13Y18031   3.307   0.875   4.976  0.7373  0.8726  0.1975
  161SAPE  C31418032   3.175   0.774   5.117  0.2193 -0.8146  0.4563
  161SAPE  H14X18033   3.072   0.731   5.118 -0.7107  1.2446 -0.4661
  161SAPE  H14Y18034   3.182   0.855   5.193  2.5815 -0.1621 -0.3868
  161SAPE  C31518035   3.276   0.666   5.155 -0.4957 -0.0403 -1.0971
  161SAPE  H15X18036   3.380   0.699   5.135 -0.0036 -0.9193 -0.0479
  161SAPE  H15Y18037   3.247   0.580   5.090  1.7327 -1.7306  0.0063
  161SAPE  C31618038   3.263   0.623   5.303 -0.1263 -0.7832  0.0655
  161SAPE  H16X18039   3.156   0.591   5.305 -0.8391  1.0679 -2.6056
  161SAPE  H16Y18040   3.266   0.713   5.367  3.2330 -0.6491 -0.1324
  161SAPE  C31718041   3.368   0.518   5.346 -0.1353  1.0212  0.2199
  161SAPE  H17X18042   3.476   0.545   5.338 -0.3825  2.6281  1.7169
  161SAPE  H17Y18043   3.357   0.425   5.287  1.9408  0.4135  0.6967
  161SAPE  C31818044   3.352   0.474   5.504 -0.2408  0.0846 -0.0558
  161SAPE  H18X18045   3.245   0.456   5.526 -0.4133  0.8006 -0.2874
  161SAPE  H18Y18046   3.381   0.566   5.559 -0.5326  0.8455 -1.1358
  161SAPE  H18Z18047   3.414   0.390   5.541  1.2173  1.0886 -0.1208
  162SAPE     N18048   2.831   1.058   2.948 -0.1078  0.1591 -0.6752
  162SAPE   HN118049   2.875   0.988   3.011  2.7243  1.6203 -0.8626
  162SAPE   HN218050   2.807   1.005   2.861  0.0285 -3.5876  1.3667
  162SAPE   HN318051   2.899   1.136   2.936 -0.9986  1.3398  1.4681
  162SAPE   C1218052   2.701   1.114   2.999  0.5612  0.1313 -0.8483
  162SAPE  H12A18053   2.627   1.032   2.987  0.4587  0.2709 -1.1863
  162SAPE  H12B18054   2.670   1.205   2.943 -0.5067  0.3314  0.0238
  162SAPE   C1118055   2.693   1.162   3.146 -0.2566  0.6199 -0.2711
  162SAPE  H11A18056   2.705   1.066   3.200  1.3922  1.0364  0.1642
  162SAPE  H11B18057   2.588   1.197   3.160  0.2439  1.7616  0.8212
  162SAPE     P18058   2.750   1.416   3.157  0.2109 -0.4860  0.2131
  162SAPE   O1318059   2.871   1.494   3.141 -0.0858 -0.1788  0.3486
  162SAPE   O1418060   2.636   1.438   3.062 -0.3147 -0.0696 -0.1716
  162SAPE   O1218061   2.786   1.265   3.178  0.0834 -0.0174  0.2936
  162SAPE   O1118062   2.696   1.456   3.300  0.0531  0.1980  0.3399
  162SAPE    C118063   2.785   1.437   3.414  0.4549  0.1639  0.3601
  162SAPE    HA18064   2.893   1.427   3.391  0.7425  1.6755  0.9187
  162SAPE    HB18065   2.778   1.535   3.466  0.6856  1.5378 -2.0472
  162SAPE    C218066   2.741   1.310   3.489  0.8178 -0.2202 -0.6847
  162SAPE    HS18067   2.689   1.254   3.409 -0.7380 -0.2996  0.3342
  162SAPE   O2118068   2.645   1.346   3.592  0.3192  0.3334  0.2533
  162SAPE   C2118069   2.545   1.254   3.616  0.3247 -0.4850 -0.0828
  162SAPE   O2218070   2.536   1.148   3.555  0.3742  0.1249 -0.3072
  162SAPE   C2218071   2.445   1.317   3.719 -0.4684 -0.0129  0.1073
  162SAPE   H2R18072   2.411   1.418   3.688  2.2418  1.1457  0.6173
  162SAPE   H2S18073   2.366   1.239   3.727  1.3326 -1.8609  0.8925
  162SAPE    C318074   2.857   1.220   3.557 -0.0345 -0.3441  0.7630
  162SAPE    HX18075   2.909   1.155   3.483 -0.0467 -2.3092  2.4131
  162SAPE    HY18076   2.804   1.145   3.618  0.8436 -1.7596 -0.1447
  162SAPE   O3118077   2.939   1.311   3.636 -0.4368  0.0269 -0.0094
  162SAPE   C3118078   2.900   1.334   3.757 -0.1960  0.0002  0.1026
  162SAPE   O3218079   2.803   1.296   3.815 -0.1275  0.3253  0.0224
  162SAPE   C3218080   3.018   1.412   3.835 -0.2745  0.3228  0.5551
  162SAPE   H2X18081   3.002   1.519   3.810 -1.6453 -0.1097 -0.5493
  162SAPE   H2Y18082   3.115   1.376   3.794  1.3947  1.8297  2.9626
  162SAPE   C2318083   2.500   1.299   3.866 -0.1666 -0.4900  0.0028
  162SAPE   H3R18084   2.578   1.377   3.883 -1.7333  1.0099  0.6444
  162SAPE   H3S18085   2.559   1.206   3.882  1.8532  0.7889  0.4534
  162SAPE   C2418086   2.404   1.312   3.984  0.0743 -0.0751  0.0664
  162SAPE   H4R18087   2.341   1.403   3.976 -0.0309 -0.2558 -1.3312
  162SAPE   H4S18088   2.469   1.325   4.074  1.4204  1.3306 -1.0724
  162SAPE   C2518089   2.318   1.193   4.009  0.1388 -0.5388 -0.3735
  162SAPE   H5R18090   2.247   1.176   3.927 -2.3466  0.6148  1.3929
  162SAPE   C2618091   2.304   1.126   4.124 -0.0064  0.6115 -0.4406
  162SAPE   H6R18092   2.224   1.050   4.122  0.6562 -0.1288  0.2883
  162SAPE   C2718093   2.381   1.159   4.253 -0.1570  0.0252  0.1456
  162SAPE   H7R18094   2.483   1.194   4.227 -0.2521 -0.7848 -1.4301
  162SAPE   H7S18095   2.404   1.065   4.307  1.2484 -0.9008 -1.9552
  162SAPE   C2818096   2.321   1.261   4.345  0.3337  0.5212  0.2681
  162SAPE   H8R18097   2.293   1.358   4.300  1.5597  1.8013  2.0895
  162SAPE   C2918098   2.297   1.236   4.474  0.2507  0.6973  0.1107
  162SAPE   H9R18099   2.230   1.305   4.526 -0.2435  0.6243 -0.4197
  162SAPE  C21018100   2.336   1.119   4.562 -0.1068 -0.2372  0.2365
  162SAPE  H10R18101   2.376   1.150   4.660 -1.0106  0.5408  0.3743
  162SAPE  H10S18102   2.427   1.065   4.528  0.1429 -0.1802  0.8133
  162SAPE  C21118103   2.219   1.022   4.575  0.0719  0.4750 -0.3077
  162SAPE  H11R18104   2.164   0.997   4.483  1.0321 -2.7478 -0.1485
  162SAPE  C21218105   2.197   0.946   4.681 -0.9035  0.6201  0.0009
  162SAPE  H12R18106   2.103   0.890   4.685 -0.9254  0.6368 -0.2761
  162SAPE  C21318107   2.274   0.935   4.812 -0.0737 -0.3915  0.4599
  162SAPE  H13R18108   2.207   0.946   4.900  2.3330 -0.4748  2.3825
  162SAPE  H13S18109   2.346   1.019   4.823  0.6457 -1.0881  1.1146
  162SAPE  C21418110   2.340   0.805   4.809  0.4930 -0.5989  0.6205
  162SAPE  H14R18111   2.390   0.788   4.712 -0.5331  0.2672 -0.0775
  162SAPE  C21518112   2.349   0.711   4.902  0.2803 -0.5089 -0.4800
  162SAPE  H15R18113   2.398   0.616   4.875  1.6713  0.0623 -0.0775
  162SAPE  C21618114   2.295   0.708   5.038  0.6014 -0.6538  0.4186
  162SAPE  H16R18115   2.218   0.627   5.038  0.6026 -0.8242 -3.1596
  162SAPE  H16S18116   2.260   0.806   5.076 -0.4783 -1.9405  3.0475
  162SAPE  C21718117   2.406   0.662   5.132 -0.7152  0.1525  0.3726
  162SAPE  H17R18118   2.497   0.725   5.125 -0.5784 -0.1177 -0.3549
  162SAPE  H17S18119   2.449   0.564   5.102 -1.3176  0.8267 -3.2135
  162SAPE  C21818120   2.362   0.672   5.282 -0.0588  0.8612 -0.2694
  162SAPE  H18R18121   2.258   0.633   5.287  0.6054 -0.7312  2.1755
  162SAPE  H18S18122   2.359   0.779   5.311  0.2032  0.7712  0.0928
  162SAPE  C21918123   2.462   0.594   5.368 -0.4244 -0.2202 -0.5989
  162SAPE  H19R18124   2.560   0.639   5.342  0.6772 -2.2206 -0.1603
  162SAPE  H19S18125   2.477   0.491   5.328 -0.8734 -1.0344  1.2327
  162SAPE  C22018126   2.433   0.583   5.515  0.4582 -0.1905  0.1482
  162SAPE  H20R18127   2.333   0.537   5.531  0.4340  0.0121  0.5751
  162SAPE  H20S18128   2.429   0.680   5.568 -0.1937 -0.7342  1.1376
  162SAPE  H20T18129   2.512   0.520   5.562 -0.9376 -1.0733  1.3912
  162SAPE   C3318130   3.016   1.384   3.984  0.2997  0.9819  0.1406
  162SAPE   H3X18131   3.044   1.278   3.999 -2.9856 -0.2277 -1.2110
  162SAPE   H3Y18132   2.912   1.381   4.022 -0.1572 -0.6725 -1.1357
  162SAPE   C3418133   3.108   1.476   4.065 -0.5589 -0.0563 -0.3535
  162SAPE   H4X18134   3.052   1.568   4.091  1.7630  1.0362  1.1891
  162SAPE   H4Y18135   3.185   1.520   3.998 -0.0556  0.9327  0.8354
  162SAPE   C3518136   3.176   1.411   4.183  0.0132  0.1892 -1.0234
  162SAPE   H5X18137   3.250   1.476   4.235 -0.3761  0.7537 -1.1665
  162SAPE   H5Y18138   3.235   1.319   4.162  0.3965 -0.2114  1.4536
  162SAPE   C3618139   3.070   1.355   4.293 -0.3815  0.1155  0.0913
  162SAPE   H6X18140   2.998   1.293   4.236 -1.5091  1.0810  0.4413
  162SAPE   H6Y18141   3.009   1.436   4.338 -1.1074 -0.4462  0.1297
  162SAPE   C3718142   3.132   1.261   4.394  0.3738 -0.0050  0.1477
  162SAPE   H7X18143   3.215   1.211   4.340  1.5539  1.6967  0.3013
  162SAPE   H7Y18144   3.062   1.181   4.427  0.0797  0.8384  1.6583
  162SAPE   C3818145   3.181   1.329   4.526  0.1343  0.2444 -0.4727
  162SAPE   H8X18146   3.098   1.381   4.577 -0.8774 -1.4076 -0.3619
  162SAPE   H8Y18147   3.264   1.398   4.500 -0.0572  1.4144  1.7747
  162SAPE   C3918148   3.217   1.232   4.637 -0.5142 -0.3361  0.2661
  162SAPE   H9X18149   3.294   1.162   4.598 -1.4040 -0.6996 -0.9078
  162SAPE   H9Y18150   3.134   1.164   4.663 -1.3904  0.9294  0.8790
  162SAPE  C31018151   3.280   1.297   4.765 -0.1492  0.2310  0.4720
  162SAPE  H10X18152   3.209   1.371   4.809 -0.5779  1.8453 -2.6574
  162SAPE  H10Y18153   3.364   1.366   4.740 -0.9978  2.1154  2.4707
  162SAPE  C31118154   3.313   1.178   4.863  0.0766  0.7647  0.0862
  162SAPE  H11X18155   3.353   1.097   4.797 -0.6552 -0.2994  0.9081
  162SAPE  H11Y18156   3.213   1.152   4.902 -0.0782  1.6619  0.3016
  162SAPE  C31218157   3.401   1.223   4.982 -0.4972 -0.5862  0.1111
  162SAPE  H12X18158   3.486   1.279   4.937  0.6870 -2.7212 -0.4989
  162SAPE  H12Y18159   3.455   1.138   5.030 -0.9528  0.2111  2.1219
  162SAPE  C31318160   3.349   1.321   5.093 -0.7523  0.5868  0.3917
  162SAPE  H13X18161   3.276   1.385   5.038  1.2412 -0.4692 -3.8547
  162SAPE  H13Y18162   3.433   1.390   5.115  1.6600 -2.7859  2.7124
  162SAPE  C31418163   3.293   1.242   5.219 -0.2891 -0.3302  0.2323
  162SAPE  H14X18164   3.263   1.318   5.294  1.1043 -0.4901  0.9778
  162SAPE  H14Y18165   3.373   1.182   5.266 -0.7468 -0.9511  0.2273
  162SAPE  C31518166   3.168   1.148   5.198  0.4551 -0.1313  0.7656
  162SAPE  H15X18167   3.148   1.084   5.286 -0.7743 -2.7081 -1.2821
  162SAPE  H15Y18168   3.193   1.087   5.109 -0.2507  0.6684 -0.0009
  162SAPE  C31618169   3.037   1.211   5.158 -0.0031 -0.3493 -0.6338
  162SAPE  H16X18170   2.968   1.130   5.125 -0.5006  0.0369 -0.5611
  162SAPE  H16Y18171   3.055   1.279   5.071  2.0506  0.4333  0.3529
  162SAPE  C31718172   2.961   1.294   5.265 -0.8689  0.1613 -1.3524
  162SAPE  H17X18173   3.027   1.369   5.314 -1.3632  0.1437 -0.6532
  162SAPE  H17Y18174   2.914   1.231   5.343  0.7860  0.0356 -0.4154
  162SAPE  C31818175   2.846   1.380   5.213  0.2479 -0.9189 -0.4774
  162SAPE  H18X18176   2.784   1.403   5.302  0.3024 -3.5981  0.3173
  162SAPE  H18Y18177   2.780   1.321   5.145 -0.8981  1.5366 -1.6679
  162SAPE  H18Z18178   2.886   1.473   5.166  1.7993 -2.4304 -2.3261
  163SAPE     N18179   1.839   0.617   3.302 -0.2632  0.1918  0.0727
  163SAPE   HN118180   1.905   0.552   3.349  1.4950  0.1408 -2.2615
  163SAPE   HN218181   1.883   0.708   3.278 -0.6559 -0.1962 -2.4273
  163SAPE   HN318182   1.774   0.640   3.380 -0.9520  4.2754 -1.4358
  163SAPE   C1218183   1.785   0.548   3.170 -0.1080 -0.4811 -0.8798
  163SAPE  H12A18184   1.684   0.591   3.150 -0.6822 -1.0564  0.6804
  163SAPE  H12B18185   1.759   0.443   3.196  1.1769 -0.7020 -0.4513
  163SAPE   C1118186   1.893   0.558   3.056 -0.2941  0.3786  0.2458
  163SAPE  H11A18187   1.895   0.663   3.019 -1.5275 -0.3180 -1.9828
  163SAPE  H11B18188   1.860   0.486   2.979  1.8230  0.3647 -0.7380
  163SAPE     P18189   2.132   0.481   3.019  0.0997 -0.2286 -0.1128
  163SAPE   O1318190   2.090   0.357   2.955 -0.1390  0.1516  0.5775
  163SAPE   O1418191   2.150   0.595   2.924 -0.1663 -0.1493  0.1156
  163SAPE   O1218192   2.021   0.521   3.121  0.2961  0.5021 -0.4353
  163SAPE   O1118193   2.257   0.446   3.102  0.1544  0.6353 -0.3994
  163SAPE    C118194   2.296   0.537   3.208  0.3338  0.0888 -0.0575
  163SAPE    HA18195   2.405   0.554   3.194  0.7527 -1.2643  1.2521
  163SAPE    HB18196   2.246   0.636   3.206  1.3796  0.6577  0.7923
  163SAPE    C218197   2.280   0.469   3.347 -0.1508  0.1939 -0.3580
  163SAPE    HS18198   2.173   0.472   3.376 -0.1552 -2.0894  0.1072
  163SAPE   O2118199   2.367   0.540   3.448 -0.2333  0.0936  0.3320
  163SAPE   C2118200   2.314   0.644   3.485  0.2346 -0.3535  0.2954
  163SAPE   O2218201   2.207   0.691   3.447  0.1165 -0.7047 -0.0091
  163SAPE   C2218202   2.393   0.706   3.594  0.0356 -0.5152 -0.1056
  163SAPE   H2R18203   2.471   0.643   3.642  1.9893  1.8401  0.0284
  163SAPE   H2S18204   2.451   0.794   3.559  1.0518 -0.1363  2.2909
  163SAPE    C318205   2.325   0.320   3.340  0.1996 -0.2092  0.3350
  163SAPE    HX18206   2.433   0.309   3.318  0.2832 -1.0378  1.1208
  163SAPE    HY18207   2.275   0.269   3.255 -0.4746 -1.3234  1.3811
  163SAPE   O3118208   2.290   0.242   3.456  0.5577 -0.0027 -0.1560
  163SAPE   C3118209   2.313   0.112   3.448  0.0255 -0.2884 -0.3316
  163SAPE   O3218210   2.349   0.051   3.349 -0.5583 -0.3072 -0.2881
  163SAPE   C3218211   2.270   0.048   3.580 -0.1066 -0.1552  0.4926
  163SAPE   H2X18212   2.162   0.021   3.576  0.0794 -0.9893  0.8594
  163SAPE   H2Y18213   2.292   0.121   3.661  1.2889 -1.3063  1.1959
  163SAPE   C2318214   2.309   0.753   3.711 -0.1643 -0.5051 -0.3832
  163SAPE   H3R18215   2.254   0.670   3.760  2.0716 -1.4969  0.5881
  163SAPE   H3S18216   2.223   0.813   3.675 -0.1187 -0.1421  0.1009
  163SAPE   C2418217   2.379   0.838   3.822  0.2026 -0.2280 -0.2306
  163SAPE   H4R18218   2.289   0.881   3.871  1.2488  1.2428  0.4962
  163SAPE   H4S18219   2.442   0.921   3.782  0.3345 -1.1417 -2.0475
  163SAPE   C2518220   2.465   0.747   3.909  0.0168 -0.8713  0.0732
  163SAPE   H5R18221   2.560   0.717   3.863  0.3000 -0.3754  0.3299
  163SAPE   C2618222   2.441   0.708   4.032 -0.2675 -0.0415  0.0176
  163SAPE   H6R18223   2.518   0.646   4.081 -0.3912 -3.1695 -3.2987
  163SAPE   C2718224   2.314   0.737   4.108 -0.3196 -0.7542 -0.4046
  163SAPE   H7R18225   2.242   0.799   4.051  1.0767  1.7020  0.3615
  163SAPE   H7S18226   2.352   0.799   4.192 -0.5610 -0.3408 -0.6008
  163SAPE   C2818227   2.256   0.604   4.161  0.4594 -0.1921  0.5147
  163SAPE   H8R18228   2.238   0.528   4.083 -1.1483 -1.1652  1.7772
  163SAPE   C2918229   2.226   0.581   4.292 -0.5124 -0.0469  0.2003
  163SAPE   H9R18230   2.183   0.482   4.314  2.4614 -1.2368  1.0905
  163SAPE  C21018231   2.244   0.671   4.415  0.2971  0.1451  0.1029
  163SAPE  H10R18232   2.148   0.723   4.431 -0.1982 -1.0702  1.3321
  163SAPE  H10S18233   2.318   0.750   4.390  0.1354 -0.0995 -1.2387
  163SAPE  C21118234   2.296   0.592   4.536  0.4685  0.1228 -0.4976
  163SAPE  H11R18235   2.220   0.548   4.602  0.6318 -1.1928 -1.1625
  163SAPE  C21218236   2.422   0.551   4.561  0.0439 -0.0520  0.1591
  163SAPE  H12R18237   2.447   0.484   4.645  1.3475 -0.3011 -0.4037
  163SAPE  C21318238   2.546   0.579   4.482  0.3594  0.0199 -0.6428
  163SAPE  H13R18239   2.629   0.594   4.554 -0.0552  3.9056 -0.7484
  163SAPE  H13S18240   2.537   0.674   4.425  0.1380  1.2749  1.3774
  163SAPE  C21418241   2.592   0.471   4.393 -0.0940 -0.1058 -0.3431
  163SAPE  H14R18242   2.527   0.382   4.383 -0.7984  0.1083  1.7845
  163SAPE  C21518243   2.714   0.462   4.335 -0.0520 -0.2137 -0.2156
  163SAPE  H15R18244   2.742   0.369   4.282  1.4776 -1.2514  2.2484
  163SAPE  C21618245   2.815   0.568   4.338 -0.3130 -0.4184  0.5267
  163SAPE  H16R18246   2.902   0.549   4.403  0.0063 -0.2556  0.1520
  163SAPE  H16S18247   2.775   0.668   4.365  0.1358 -0.0424 -0.1750
  163SAPE  C21718248   2.858   0.586   4.185  0.1103  0.2511 -0.1571
  163SAPE  H17R18249   2.924   0.675   4.174 -1.2009  1.3773  0.8345
  163SAPE  H17S18250   2.768   0.608   4.123 -1.8634 -3.5445  1.0234
  163SAPE  C21818251   2.934   0.468   4.129 -0.1675 -1.0406 -0.9685
  163SAPE  H18R18252   2.868   0.378   4.133 -0.3198 -0.8903  0.1201
  163SAPE  H18S18253   3.021   0.433   4.188  0.1983  0.8124 -0.3765
  163SAPE  C21918254   2.980   0.481   3.984 -0.1542  0.8060 -0.1500
  163SAPE  H19R18255   2.902   0.526   3.919 -1.2337  0.6969  1.0426
  163SAPE  H19S18256   2.994   0.375   3.953 -0.0460  0.0381  2.2950
  163SAPE  C22018257   3.109   0.559   3.965 -0.1304  0.4788  0.5651
  163SAPE  H20R18258   3.146   0.553   3.860 -1.3310 -0.6894  0.1768
  163SAPE  H20S18259   3.192   0.528   4.032  1.7950  1.6000 -1.1692
  163SAPE  H20T18260   3.081   0.663   3.993 -0.1473  0.8317 -0.7057
  163SAPE   C3318261   2.344  -0.082   3.632  0.6073  1.0574 -0.6413
  163SAPE   H3X18262   2.454  -0.064   3.634  1.0946 -1.3510 -2.1806
  163SAPE   H3Y18263   2.327  -0.170   3.566  1.8181 -0.4551  0.9683
  163SAPE   C3418264   2.300  -0.137   3.772 -0.7372  0.1082  0.7956
  163SAPE   H4X18265   2.280  -0.051   3.839  0.0667 -1.3733  3.0528
  163SAPE   H4Y18266   2.395  -0.169   3.820 -0.8869 -1.7077 -0.0285
  163SAPE   C3518267   2.202  -0.252   3.779  0.0479  0.1611  1.0587
  163SAPE   H5X18268   2.249  -0.339   3.730 -0.8008  0.9773 -1.3650
  163SAPE   H5Y18269   2.109  -0.216   3.730 -0.6001 -1.1113  1.3201
  163SAPE   C3618270   2.159  -0.306   3.918 -0.4075 -0.1743  0.3231
  163SAPE   H6X18271   2.121  -0.408   3.899  0.3150 -0.3243 -0.3843
  163SAPE   H6Y18272   2.078  -0.238   3.953 -0.2519 -0.1843  0.7070
  163SAPE   C3718273   2.270  -0.312   4.020 -0.8628 -0.0335 -0.2932
  163SAPE   H7X18274   2.304  -0.209   4.045 -1.0740 -0.0667  0.1439
  163SAPE   H7Y18275   2.371  -0.354   3.997 -1.5785 -0.4818 -2.8861
  163SAPE   C3818276   2.226  -0.361   4.152  0.0751  0.2854 -0.1783
  163SAPE   H8X18277   2.211  -0.471   4.156  0.4208  0.2409 -0.0763
  163SAPE   H8Y18278   2.129  -0.308   4.167  0.0745  1.0275 -2.5083
  163SAPE   C3918279   2.321  -0.320   4.263  0.6286 -0.5128 -0.7674
  163SAPE   H9X18280   2.326  -0.209   4.276  0.2791 -0.2322 -2.6507
  163SAPE   H9Y18281   2.423  -0.361   4.251  1.1116 -0.7759  2.9987
  163SAPE  C31018282   2.279  -0.384   4.402 -0.3101 -0.8406  0.2256
  163SAPE  H10X18283   2.305  -0.493   4.399  0.4421 -0.6900  0.9164
  163SAPE  H10Y18284   2.170  -0.370   4.413 -0.9605 -4.8381  0.5378
  163SAPE  C31118285   2.339  -0.327   4.528  0.2648  1.3283  0.1045
  163SAPE  H11X18286   2.334  -0.216   4.523 -0.5440  1.4164  2.0359
  163SAPE  H11Y18287   2.448  -0.348   4.522  0.4113  1.2834  2.0418
  163SAPE  C31218288   2.282  -0.386   4.658 -0.4779  0.3581  0.0952
  163SAPE  H12X18289   2.290  -0.497   4.659 -2.9445  0.1350  0.1063
  163SAPE  H12Y18290   2.175  -0.356   4.651 -0.5580  0.1962  0.5670
  163SAPE  C31318291   2.349  -0.322   4.778 -0.5177  0.5869 -0.6992
  163SAPE  H13X18292   2.287  -0.349   4.867 -1.7569 -0.2902 -1.7763
  163SAPE  H13Y18293   2.349  -0.212   4.769 -1.7700  0.6232 -0.5295
  163SAPE  C31418294   2.492  -0.373   4.804  0.6165  0.1829  0.8299
  163SAPE  H14X18295   2.551  -0.317   4.728 -0.7681  1.5798  0.7233
  163SAPE  H14Y18296   2.502  -0.480   4.779  0.2384  0.4151 -0.3880
  163SAPE  C31518297   2.556  -0.343   4.944  0.1443 -0.3045 -0.2119
  163SAPE  H15X18298   2.556  -0.234   4.965  0.7255 -0.2922 -0.2442
  163SAPE  H15Y18299   2.662  -0.378   4.939  1.3488  2.6746  1.5718
  163SAPE  C31618300   2.473  -0.412   5.055 -0.6372  0.2451  0.6031
  163SAPE  H16X18301   2.449  -0.514   5.017  1.1790  0.4366 -1.2300
  163SAPE  H16Y18302   2.374  -0.365   5.074 -0.2586  1.5600 -0.5413
  163SAPE  C31718303   2.560  -0.421   5.180  0.4287  0.4406  0.1328
  163SAPE  H17X18304   2.604  -0.321   5.200  1.8551 -0.3809  1.3274
  163SAPE  H17Y18305   2.650  -0.482   5.161  1.3121  1.8107 -0.2506
  163SAPE  C31818306   2.487  -0.481   5.302  1.0374 -0.4431 -0.6288
  163SAPE  H18X18307   2.467  -0.587   5.278 -1.1914 -0.3164  0.3986
  163SAPE  H18Y18308   2.392  -0.431   5.330  0.4888 -1.2491 -1.0162
  163SAPE  H18Z18309   2.555  -0.479   5.390 -0.4261  0.9171  0.5307
  164SAPE     N18310   5.524   6.423   2.929  0.0505 -0.1895  0.2490
  164SAPE   HN118311   5.437   6.448   2.877  0.4645  0.2786 -0.2258
  164SAPE   HN218312   5.593   6.414   2.853  1.8516  0.4196  1.7443
  164SAPE   HN318313   5.512   6.328   2.970 -0.3368  1.1233  3.4630
  164SAPE   C1218314   5.593   6.502   3.032  0.5404 -0.1821  0.9748
  164SAPE  H12A18315   5.524   6.508   3.119  3.2880 -0.2322  3.3127
  164SAPE  H12B18316   5.600   6.606   2.994  0.6362 -0.2114  0.9107
  164SAPE   C1118317   5.727   6.436   3.064  0.4648  1.4454 -0.0058
  164SAPE  H11A18318   5.711   6.333   3.105 -4.2052  1.7142 -0.5307
  164SAPE  H11B18319   5.758   6.497   3.151 -1.7020  0.2005  1.7614
  164SAPE     P18320   5.846   6.329   2.850 -0.1744 -0.0996 -0.3696
  164SAPE   O1318321   5.717   6.310   2.783 -0.0857  0.4894 -0.2119
  164SAPE   O1418322   5.954   6.374   2.759 -0.0245 -0.5478  0.3306
  164SAPE   O1218323   5.823   6.445   2.958 -0.1437 -0.2052 -0.2363
  164SAPE   O1118324   5.884   6.203   2.935 -0.0725 -0.1685  0.2327
  164SAPE    C118325   5.800   6.089   2.946  0.2175 -0.0349 -0.5203
  164SAPE    HA18326   5.693   6.108   2.924  0.0003 -1.6714 -0.9875
  164SAPE    HB18327   5.845   6.014   2.876  4.3506  1.2905  0.4119
  164SAPE    C218328   5.813   6.013   3.082 -0.4237 -0.1269 -0.7460
  164SAPE    HS18329   5.747   5.924   3.075 -0.3530 -0.1276 -1.4442
  164SAPE   O2118330   5.788   6.108   3.188  0.6703  0.0421  0.3394
  164SAPE   C2118331   5.704   6.064   3.274  0.7188  0.6663 -1.3117
  164SAPE   O2218332   5.652   5.952   3.273 -0.1965 -0.1688 -0.0129
  164SAPE   C2218333   5.655   6.185   3.357 -0.0554  0.4870  0.0889
  164SAPE   H2R18334   5.748   6.238   3.387 -0.8947  1.4843  1.0049
  164SAPE   H2S18335   5.596   6.246   3.286 -0.8036 -0.2162  0.1036
  164SAPE    C318336   5.962   5.963   3.098  0.8257 -0.2903  0.6061
  164SAPE    HX18337   6.020   6.058   3.100 -1.3356  1.1510 -1.0642
  164SAPE    HY18338   5.994   5.898   3.014 -0.7388 -1.4202  0.8578
  164SAPE   O3118339   5.973   5.891   3.219 -0.5458  0.3837  0.2606
  164SAPE   C3118340   5.924   5.767   3.232 -0.0192 -0.1029 -0.2316
  164SAPE   O3218341   5.855   5.710   3.144 -0.3242  0.6409 -0.1066
  164SAPE   C3218342   5.940   5.718   3.373 -0.4674 -0.1817  0.9225
  164SAPE   H2X18343   5.945   5.607   3.370  2.6384 -0.2191  3.3527
  164SAPE   H2Y18344   5.855   5.754   3.435  1.4977  3.1757  1.9377
  164SAPE   C2318345   5.569   6.153   3.483  0.3767 -0.3380 -0.1124
  164SAPE   H3R18346   5.487   6.080   3.463 -0.2464  0.4018 -0.2845
  164SAPE   H3S18347   5.537   6.247   3.532  1.3237 -0.5958  1.0656
  164SAPE   C2418348   5.667   6.082   3.581 -0.5529 -0.4719 -0.7669
  164SAPE   H4R18349   5.755   6.149   3.588 -0.3502 -0.7430 -0.7197
  164SAPE   H4S18350   5.696   5.984   3.540  0.4311 -0.5142 -0.0154
  164SAPE   C2518351   5.612   6.070   3.721  0.2599 -0.1606  0.0463
  164SAPE   H5R18352   5.503   6.056   3.720  0.2755 -0.7664 -2.8546
  164SAPE   C2618353   5.678   6.054   3.834 -0.5189 -0.8203  0.4558
  164SAPE   H6R18354   5.613   6.058   3.923 -0.4558 -0.3794  0.4834
  164SAPE   C2718355   5.827   6.066   3.855  0.4424  0.5178  0.1656
  164SAPE   H7R18356   5.866   6.031   3.757 -0.1556  0.5232 -0.0822
  164SAPE   H7S18357   5.863   5.999   3.936  0.5497  0.0233 -0.2858
  164SAPE   C2818358   5.862   6.213   3.867  0.4729  0.0775 -0.3518
  164SAPE   H8R18359   5.870   6.273   3.775 -1.1189 -0.3063 -0.7713
  164SAPE   C2918360   5.870   6.280   3.978  1.1070 -0.2373  0.2386
  164SAPE   H9R18361   5.901   6.386   3.977 -1.8474  0.7035  0.3844
  164SAPE  C21018362   5.845   6.228   4.120  0.6239  0.1192 -0.2332
  164SAPE  H10R18363   5.818   6.120   4.127 -0.2468  0.4103  1.3838
  164SAPE  H10S18364   5.756   6.283   4.157 -1.4253 -0.8442 -3.3427
  164SAPE  C21118365   5.968   6.250   4.212  0.0974  0.3539 -0.2153
  164SAPE  H11R18366   6.055   6.191   4.181  0.0054 -0.1915  0.5215
  164SAPE  C21218367   5.975   6.328   4.321 -0.7712 -0.0860  0.2840
  164SAPE  H12R18368   6.074   6.336   4.370 -0.5469 -2.9153  0.5055
  164SAPE  C21318369   5.871   6.417   4.372  0.0857  0.1808  0.0367
  164SAPE  H13R18370   5.793   6.354   4.419 -1.6110 -0.9942 -3.9634
  164SAPE  H13S18371   5.817   6.454   4.282  2.4558 -1.0435 -2.0266
  164SAPE  C21418372   5.911   6.533   4.461 -0.3130 -0.5504  0.1328
  164SAPE  H14R18373   5.912   6.628   4.405  2.2188 -1.1390 -0.9996
  164SAPE  C21518374   5.970   6.514   4.585 -0.0114 -0.0310 -0.2714
  164SAPE  H15R18375   6.004   6.605   4.637 -1.8176  1.6532 -1.8784
  164SAPE  C21618376   5.984   6.380   4.663  0.1033 -0.3023  0.1150
  164SAPE  H16R18377   6.090   6.350   4.666  0.1957  0.0334  0.3085
  164SAPE  H16S18378   5.926   6.296   4.619 -1.7083 -0.3036  2.3175
  164SAPE  C21718379   5.935   6.402   4.805  0.0908 -0.8207 -1.2366
  164SAPE  H17R18380   5.999   6.466   4.869 -1.7891 -0.4168  0.3565
  164SAPE  H17S18381   5.919   6.304   4.856  0.2063 -0.3320 -0.2366
  164SAPE  C21818382   5.800   6.474   4.829  0.0908  0.2569  0.3290
  164SAPE  H18R18383   5.729   6.442   4.750 -0.0633 -1.7520  1.2346
  164SAPE  H18S18384   5.814   6.584   4.818  0.4421  0.1049 -0.9712
  164SAPE  C21918385   5.746   6.433   4.967  0.6692 -0.9285  0.4131
  164SAPE  H19R18386   5.812   6.490   5.037 -0.4351  0.3141  0.4923
  164SAPE  H19S18387   5.755   6.323   4.970 -1.4034 -1.1633 -0.4837
  164SAPE  C22018388   5.598   6.464   4.996 -0.3305  0.1560 -0.8764
  164SAPE  H20R18389   5.531   6.383   4.962 -1.3112  0.5561  0.0381
  164SAPE  H20S18390   5.562   6.556   4.945 -2.1402 -0.7940 -1.4046
  164SAPE  H20T18391   5.594   6.483   5.106  2.7563  3.2549 -1.1107
  164SAPE   C3318392   6.072   5.770   3.437 -0.0665  0.0368 -0.3538
  164SAPE   H3X18393   6.069   5.880   3.451  0.0295  0.1018 -0.8586
  164SAPE   H3Y18394   6.155   5.741   3.369  0.2915  0.3129 -0.0409
  164SAPE   C3418395   6.102   5.714   3.587 -0.4094 -0.1312  0.8625
  164SAPE   H4X18396   6.200   5.756   3.620 -0.3011 -0.0894  0.4922
  164SAPE   H4Y18397   6.111   5.604   3.576 -1.1852 -0.1973  0.8459
  164SAPE   C3518398   5.986   5.746   3.679  0.5408  0.3250 -1.0924
  164SAPE   H5X18399   5.891   5.700   3.646 -1.0262  1.4479  1.5380
  164SAPE   H5Y18400   5.964   5.855   3.679 -1.1725  0.0115 -1.5265
  164SAPE   C3618401   6.013   5.693   3.818 -0.3171  0.5571  0.0690
  164SAPE   H6X18402   6.025   5.778   3.889  0.0156  0.2053  0.4378
  164SAPE   H6Y18403   6.118   5.659   3.806  1.5391  4.9600  1.5281
  164SAPE   C3718404   5.923   5.575   3.870  0.4654  0.2517 -0.5253
  164SAPE   H7X18405   5.923   5.488   3.800  3.7193 -2.6688  2.6704
  164SAPE   H7Y18406   5.820   5.616   3.867  0.7510  1.0230 -3.5918
  164SAPE   C3818407   5.952   5.524   4.013 -0.1383  0.2366  0.3176
  164SAPE   H8X18408   5.974   5.598   4.094 -0.3106  1.1186 -0.4333
  164SAPE   H8Y18409   6.048   5.468   4.003  0.0003  0.1786  1.6704
  164SAPE   C3918410   5.836   5.434   4.058 -0.1581 -0.1947  0.4848
  164SAPE   H9X18411   5.831   5.360   3.975  2.8479  1.0751 -0.9676
  164SAPE   H9Y18412   5.739   5.486   4.045 -0.3124 -0.6097 -0.0404
  164SAPE  C31018413   5.863   5.367   4.196  0.2203 -0.7841  0.3302
  164SAPE  H10X18414   5.954   5.304   4.189 -0.9208 -2.4123 -0.6139
  164SAPE  H10Y18415   5.775   5.312   4.235  0.2312 -0.8084  0.3204
  164SAPE  C31118416   5.898   5.475   4.301 -0.0186  0.3534 -0.0073
  164SAPE  H11X18417   5.828   5.556   4.270 -0.3286 -0.1553 -0.6669
  164SAPE  H11Y18418   6.004   5.508   4.300  0.4115 -0.8595  1.7575
  164SAPE  C31218419   5.889   5.429   4.449  0.6864  0.0721 -0.1627
  164SAPE  H12X18420   5.955   5.340   4.445  0.6412  0.0412 -0.2093
  164SAPE  H12Y18421   5.789   5.392   4.476  0.1786  0.2923 -1.6381
  164SAPE  C31318422   5.930   5.537   4.551  0.4120 -0.2547  0.0676
  164SAPE  H13X18423   5.855   5.619   4.543  1.1562  0.3055 -1.6319
  164SAPE  H13Y18424   6.028   5.577   4.519  0.8761 -2.0678 -0.9318
  164SAPE  C31418425   5.946   5.485   4.690 -0.1262  0.0341  0.2592
  164SAPE  H14X18426   6.009   5.559   4.745  2.9478 -2.1025 -0.1173
  164SAPE  H14Y18427   6.010   5.395   4.682  0.9415  0.8302 -0.6024
  164SAPE  C31518428   5.810   5.459   4.756  0.0471 -0.0246  0.4355
  164SAPE  H15X18429   5.754   5.373   4.715  1.4390 -0.9317  0.3662
  164SAPE  H15Y18430   5.752   5.550   4.730 -2.6178 -1.4405  1.1211
  164SAPE  C31618431   5.823   5.450   4.911 -0.1040  1.0068 -0.3859
  164SAPE  H16X18432   5.725   5.480   4.955 -0.1701 -0.1790  0.3119
  164SAPE  H16Y18433   5.892   5.530   4.945  0.2792  0.8161 -0.7017
  164SAPE  C31718434   5.856   5.308   4.968 -0.2114 -0.1733  0.1403
  164SAPE  H17X18435   5.849   5.316   5.078 -1.0492 -1.7086  0.2365
  164SAPE  H17Y18436   5.960   5.284   4.937 -0.3751 -0.8102  0.0647
  164SAPE  C31818437   5.771   5.200   4.918  0.0900  1.0159 -1.1659
  164SAPE  H18X18438   5.788   5.175   4.811 -0.2293 -0.4415 -0.8934
  164SAPE  H18Y18439   5.664   5.225   4.930 -0.1152  0.0330 -0.9318
  164SAPE  H18Z18440   5.781   5.105   4.974 -0.9647  0.8281 -1.2884
  165SAPE     N18441   5.600   1.632   3.544  0.7053 -0.2501 -0.1323
  165SAPE   HN118442   5.670   1.629   3.467  0.9581  2.0566 -0.0442
  165SAPE   HN218443   5.516   1.683   3.511 -1.3677 -1.2984  3.1115
  165SAPE   HN318444   5.646   1.688   3.618  1.7637  1.0292 -1.6906
  165SAPE   C1218445   5.573   1.490   3.584 -0.3316 -0.0631 -0.4228
  165SAPE  H12A18446   5.462   1.481   3.584 -0.4865  1.5099 -0.4911
  165SAPE  H12B18447   5.601   1.488   3.691 -1.0876 -0.3580 -0.2262
  165SAPE   C1118448   5.644   1.383   3.496  0.3844 -0.2373  0.0797
  165SAPE  H11A18449   5.626   1.279   3.530  2.6432 -0.5269  0.5543
  165SAPE  H11B18450   5.753   1.394   3.514  0.1403  0.3761  1.2646
  165SAPE     P18451   5.499   1.347   3.272 -0.4337 -0.3078 -0.3677
  165SAPE   O1318452   5.432   1.465   3.211 -0.0795  0.2039  0.8211
  165SAPE   O1418453   5.540   1.247   3.178  0.0047  0.5680  0.1457
  165SAPE   O1218454   5.613   1.397   3.358  0.3885 -0.3928 -0.2344
  165SAPE   O1118455   5.393   1.294   3.376 -0.2988 -0.4412 -1.3389
  165SAPE    C118456   5.382   1.154   3.412  0.3486 -0.1568 -0.1804
  165SAPE    HA18457   5.335   1.101   3.325  0.5813 -1.0943  0.2462
  165SAPE    HB18458   5.481   1.109   3.434  0.2950 -0.3948 -0.4095
  165SAPE    C218459   5.282   1.124   3.530  1.3058  0.5555 -0.0894
  165SAPE    HS18460   5.185   1.163   3.494  1.3516  0.7376 -0.0198
  165SAPE   O2118461   5.325   1.184   3.648 -0.6625 -0.0819  1.1775
  165SAPE   C2118462   5.236   1.258   3.707 -0.4549 -0.0874 -0.7164
  165SAPE   O2218463   5.116   1.260   3.698  0.6474 -0.7804  0.4194
  165SAPE   C2218464   5.316   1.340   3.810  0.2203  0.4415 -0.8161
  165SAPE   H2R18465   5.316   1.291   3.910  2.6665 -0.6100 -1.2501
  165SAPE   H2S18466   5.423   1.341   3.777  0.8703  1.1530  1.1957
  165SAPE    C318467   5.249   0.973   3.556 -0.4648 -0.0698 -0.1698
  165SAPE    HX18468   5.346   0.927   3.586 -0.2822  1.0801  1.1045
  165SAPE    HY18469   5.217   0.922   3.463  1.1998 -0.8064 -0.3770
  165SAPE   O3118470   5.158   0.969   3.666 -0.1887  0.0066 -0.6884
  165SAPE   C3118471   5.028   0.954   3.662 -0.4969  0.4566 -0.1000
  165SAPE   O3218472   4.959   0.927   3.568 -0.4382  0.0141 -0.4344
  165SAPE   C3218473   4.981   0.972   3.813  0.1349 -0.5150 -0.0362
  165SAPE   H2X18474   4.874   0.943   3.817  0.0002 -0.4504 -2.0843
  165SAPE   H2Y18475   4.974   1.083   3.823  0.9167 -0.3172 -1.3615
  165SAPE   C2318476   5.267   1.482   3.827 -0.3008 -0.0517 -0.0435
  165SAPE   H3R18477   5.178   1.478   3.894 -0.8408 -2.9093 -0.7884
  165SAPE   H3S18478   5.246   1.538   3.733  0.1814  0.1692 -0.0210
  165SAPE   C2418479   5.360   1.568   3.914  0.0908  0.4211 -0.0301
  165SAPE   H4R18480   5.460   1.575   3.866 -0.1951  0.4913 -0.6310
  165SAPE   H4S18481   5.366   1.518   4.013  0.6760  2.2086  0.8968
  165SAPE   C2518482   5.317   1.710   3.934  0.5678 -0.1152  0.4558
  165SAPE   H5R18483   5.332   1.781   3.851  0.4411 -1.2425 -0.5539
  165SAPE   C2618484   5.230   1.752   4.026  0.1336  0.0085 -0.2334
  165SAPE   H6R18485   5.194   1.855   4.021  1.9262  0.7793  1.4530
  165SAPE   C2718486   5.166   1.666   4.133  0.4953  0.7046 -0.3450
  165SAPE   H7R18487   5.096   1.598   4.080 -1.0483  1.8612  0.1369
  165SAPE   H7S18488   5.098   1.725   4.198 -1.1128  0.8462 -2.0700
  165SAPE   C2818489   5.246   1.582   4.235 -0.2464  0.0276  0.3603
  165SAPE   H8R18490   5.338   1.637   4.261 -0.0880  0.6862 -1.4778
  165SAPE   C2918491   5.221   1.456   4.275 -0.8772  0.3664  0.1257
  165SAPE   H9R18492   5.279   1.416   4.360 -1.1950 -1.0196 -0.2886
  165SAPE  C21018493   5.107   1.371   4.228  0.2212 -0.1184  0.2936
  165SAPE  H10R18494   5.134   1.328   4.129 -0.4574  0.7419 -0.2822
  165SAPE  H10S18495   5.019   1.439   4.218  0.6867  0.6669  1.3813
  165SAPE  C21118496   5.065   1.265   4.326  0.0721 -0.0867  0.9178
  165SAPE  H11R18497   5.074   1.160   4.293  1.7830  0.1534  0.5095
  165SAPE  C21218498   5.007   1.285   4.442 -0.6626 -0.6853 -0.2442
  165SAPE  H12R18499   4.979   1.204   4.512  0.3859  1.2490  2.5851
  165SAPE  C21318500   4.965   1.419   4.487 -0.7613  0.3947  0.3654
  165SAPE  H13R18501   4.871   1.447   4.436  0.4328  1.1698 -1.5324
  165SAPE  H13S18502   5.025   1.503   4.444  0.7558 -0.9100 -0.1448
  165SAPE  C21418503   4.967   1.448   4.636 -0.0585 -0.3240 -0.8770
  165SAPE  H14R18504   5.068   1.455   4.680 -0.3256  0.2361 -0.3356
  165SAPE  C21518505   4.869   1.474   4.724  0.7761  0.7150  0.3733
  165SAPE  H15R18506   4.905   1.507   4.823  2.0773  0.4573  0.0081
  165SAPE  C21618507   4.720   1.492   4.691 -0.3504  0.0541 -0.0757
  165SAPE  H16R18508   4.653   1.451   4.770 -1.7555  0.5507 -0.9728
  165SAPE  H16S18509   4.696   1.439   4.597  1.1459  2.0679 -1.6895
  165SAPE  C21718510   4.662   1.631   4.679  0.1758 -0.1320 -0.5773
  165SAPE  H17R18511   4.693   1.683   4.772 -2.9004 -0.8461  0.9740
  165SAPE  H17S18512   4.551   1.628   4.668  0.2231 -0.3669 -1.0609
  165SAPE  C21818513   4.708   1.708   4.552  0.3097 -0.0298  1.0960
  165SAPE  H18R18514   4.817   1.685   4.543  0.7531  2.1547  0.0945
  165SAPE  H18S18515   4.705   1.818   4.570 -0.5163  0.2567 -0.5949
  165SAPE  C21918516   4.636   1.672   4.419  0.5540  0.2128 -0.2084
  165SAPE  H19R18517   4.537   1.722   4.412  0.5744  0.3369  0.4010
  165SAPE  H19S18518   4.619   1.563   4.422 -1.5859  0.4894 -0.5021
  165SAPE  C22018519   4.713   1.717   4.298 -1.1302 -0.0412  0.9259
  165SAPE  H20R18520   4.813   1.668   4.300 -1.8984 -1.8069 -0.6285
  165SAPE  H20S18521   4.729   1.827   4.299 -2.3125  0.1384  1.0454
  165SAPE  H20T18522   4.663   1.692   4.202  1.7332  2.7898 -1.5187
  165SAPE   C3318523   5.069   0.907   3.922 -0.3325  0.0526 -0.3503
  165SAPE   H3X18524   5.175   0.938   3.911 -0.3008 -0.4634 -1.7223
  165SAPE   H3Y18525   5.059   0.796   3.918 -2.6761  0.2447 -2.8106
  165SAPE   C3418526   5.032   0.962   4.060 -0.0557  0.3360  0.2876
  165SAPE   H4X18527   5.013   1.071   4.061 -2.1646  0.0747 -2.0461
  165SAPE   H4Y18528   5.114   0.950   4.134  0.6644  1.2497 -0.3438
  165SAPE   C3518529   4.915   0.888   4.119  0.4633 -0.1958  0.3864
  165SAPE   H5X18530   4.928   0.778   4.108  2.4995  0.2025 -2.0939
  165SAPE   H5Y18531   4.826   0.920   4.061  0.3527  0.8460  1.0991
  165SAPE   C3618532   4.883   0.898   4.270  0.2939 -0.1344  0.5052
  165SAPE   H6X18533   4.775   0.907   4.294 -0.0393  0.0957 -0.9512
  165SAPE   H6Y18534   4.922   0.996   4.305 -2.6473  0.6249  2.0255
  165SAPE   C3718535   4.930   0.789   4.359 -1.1076 -0.3598 -0.4482
  165SAPE   H7X18536   5.033   0.814   4.391 -1.3651  1.7732 -1.0809
  165SAPE   H7Y18537   4.930   0.692   4.305 -0.2864 -1.2142  1.0267
  165SAPE   C3818538   4.839   0.751   4.471 -0.0923  0.3618 -0.2898
  165SAPE   H8X18539   4.738   0.718   4.438 -0.6410  0.7426  0.9405
  165SAPE   H8Y18540   4.825   0.832   4.545 -0.2042  0.0452  0.0375
  165SAPE   C3918541   4.889   0.625   4.546  0.3504 -0.2049  0.4268
  165SAPE   H9X18542   5.000   0.629   4.549  0.4011 -1.5080  0.9845
  165SAPE   H9Y18543   4.859   0.535   4.487 -0.1489  0.6118 -0.5943
  165SAPE  C31018544   4.818   0.599   4.684 -0.0836 -0.4154  0.0496
  165SAPE  H10X18545   4.710   0.624   4.669  0.3603  0.4045 -2.2621
  165SAPE  H10Y18546   4.876   0.664   4.753  2.6265 -1.3367 -1.2483
  165SAPE  C31118547   4.833   0.452   4.728 -0.3713 -0.1042  0.0431
  165SAPE  H11X18548   4.942   0.435   4.719 -0.2093  1.5925 -1.8397
  165SAPE  H11Y18549   4.788   0.389   4.649 -0.0802  0.3376 -0.4755
  165SAPE  C31218550   4.781   0.425   4.869 -0.4309  0.3388 -0.5129
  165SAPE  H12X18551   4.746   0.323   4.895  0.7615  0.2563  0.8907
  165SAPE  H12Y18552   4.696   0.490   4.898  0.2248  0.6619  0.7679
  165SAPE  C31318553   4.895   0.448   4.969  0.1710  0.4595 -0.8073
  165SAPE  H13X18554   4.919   0.556   4.986  0.9666  0.2090 -0.2559
  165SAPE  H13Y18555   4.987   0.393   4.938  1.0513  1.5068 -0.1425
  165SAPE  C31418556   4.855   0.396   5.110 -0.1965 -0.3736 -0.3078
  165SAPE  H14X18557   4.745   0.411   5.115  0.0502  3.7353 -2.8474
  165SAPE  H14Y18558   4.895   0.448   5.200 -1.4268 -4.4607  2.9155
  165SAPE  C31518559   4.901   0.259   5.158  0.4911  0.1594 -0.3115
  165SAPE  H15X18560   5.008   0.261   5.128  0.0681  2.7648 -2.0118
  165SAPE  H15Y18561   4.843   0.183   5.103  1.1692  0.2639 -1.1997
  165SAPE  C31618562   4.890   0.223   5.310  0.1275 -0.1939 -0.2579
  165SAPE  H16X18563   4.783   0.218   5.342  0.1477  0.8533 -0.0197
  165SAPE  H16Y18564   4.938   0.307   5.364 -1.3055  0.8953 -0.6283
  165SAPE  C31718565   4.960   0.088   5.352 -0.1298  0.5846 -0.7347
  165SAPE  H17X18566   5.067   0.102   5.326  0.0281  1.1821  0.2145
  165SAPE  H17Y18567   4.922   0.009   5.282 -0.9773  0.6621 -0.3672
  165SAPE  C31818568   4.931   0.036   5.493 -0.3434 -0.0631  0.0879
  165SAPE  H18X18569   4.958  -0.072   5.502  1.1158  0.2011 -0.7925
  165SAPE  H18Y18570   4.822   0.044   5.513 -0.2279 -0.1278  0.7466
  165SAPE  H18Z18571   4.993   0.081   5.573  1.6777 -0.3541 -1.2170
  166SAPE     N18572   5.602   0.987   3.095  1.0897  0.1402  0.8112
  166SAPE   HN118573   5.705   0.975   3.095  0.7861 -3.7190  0.1027
  166SAPE   HN218574   5.579   1.080   3.137 -1.1073 -0.4174  0.9606
  166SAPE   HN318575   5.561   0.921   3.165  0.0659 -2.4973 -2.0443
  166SAPE   C1218576   5.551   0.944   2.956 -0.0623 -0.2505  0.2329
  166SAPE  H12A18577   5.607   0.853   2.925 -0.9981 -0.2437 -1.6399
  166SAPE  H12B18578   5.579   1.034   2.897 -1.4656  0.2326  0.2737
  166SAPE   C1118579   5.399   0.923   2.952  0.6025 -0.0717  0.4437
  166SAPE  H11A18580   5.382   0.813   2.953 -2.9237  0.3609  1.1918
  166SAPE  H11B18581   5.367   0.942   2.848  0.4093  1.3253  0.7369
  166SAPE     P18582   5.175   0.930   3.104 -0.0410  0.1030  0.0270
  166SAPE   O1318583   5.096   1.032   3.171  0.4491 -0.2358 -0.5959
  166SAPE   O1418584   5.111   0.852   2.992  0.2582 -0.5938  0.4620
  166SAPE   O1218585   5.312   0.992   3.046  0.1388  0.2506  0.4422
  166SAPE   O1118586   5.222   0.822   3.210  0.0346  0.0469  0.2963
  166SAPE    C118587   5.147   0.702   3.244 -0.1697  0.6815  0.1858
  166SAPE    HA18588   5.062   0.730   3.311 -1.0097 -0.1625 -0.5065
  166SAPE    HB18589   5.103   0.659   3.152  0.3116 -3.4297  1.6863
  166SAPE    C218590   5.234   0.586   3.301 -0.0587  0.5057  0.6443
  166SAPE    HS18591   5.169   0.499   3.323  1.9551 -0.8108  1.7388
  166SAPE   O2118592   5.306   0.624   3.422 -0.2717  1.3583  0.5867
  166SAPE   C2118593   5.230   0.623   3.531 -0.3959 -1.0739  0.0088
  166SAPE   O2218594   5.109   0.610   3.536 -0.2663 -0.0922  0.3165
  166SAPE   C2218595   5.316   0.627   3.645  0.3040  0.3240 -0.1127
  166SAPE   H2R18596   5.367   0.529   3.656 -1.0855 -0.4285 -0.1287
  166SAPE   H2S18597   5.391   0.709   3.639 -0.8302  1.4794  0.7750
  166SAPE    C318598   5.335   0.527   3.208 -0.6611  0.6197 -0.6842
  166SAPE    HX18599   5.407   0.602   3.169 -0.0550 -0.5461 -1.8972
  166SAPE    HY18600   5.288   0.479   3.119 -1.6605 -1.1054  0.7121
  166SAPE   O3118601   5.397   0.409   3.276 -0.3662 -0.0393  0.1012
  166SAPE   C3118602   5.526   0.415   3.304  0.1503 -0.5797 -0.2815
  166SAPE   O3218603   5.600   0.511   3.275  0.5286  0.4247  0.1927
  166SAPE   C3218604   5.566   0.284   3.371  0.2599  0.1071 -0.7056
  166SAPE   H2X18605   5.643   0.245   3.302  0.2319 -1.5441  0.1426
  166SAPE   H2Y18606   5.482   0.214   3.390 -1.1826  2.1686  1.0415
  166SAPE   C2318607   5.237   0.640   3.778  0.4500  0.8471 -1.0743
  166SAPE   H3R18608   5.131   0.612   3.760  0.0987  1.1372  0.4132
  166SAPE   H3S18609   5.240   0.744   3.817  1.2904  1.5174 -2.8121
  166SAPE   C2418610   5.281   0.536   3.890 -0.4441  0.0124 -0.7942
  166SAPE   H4R18611   5.265   0.431   3.857  0.9727 -0.4254 -0.1640
  166SAPE   H4S18612   5.210   0.556   3.973 -1.0241 -1.0775 -1.0011
  166SAPE   C2518613   5.421   0.541   3.935 -0.0179 -1.0430  0.2313
  166SAPE   H5R18614   5.508   0.540   3.868  0.7288 -0.6644  1.1665
  166SAPE   C2618615   5.455   0.526   4.064  0.6637 -0.4994  0.1906
  166SAPE   H6R18616   5.560   0.535   4.096  0.4246  3.2716  0.4513
  166SAPE   C2718617   5.365   0.504   4.179 -0.1491 -0.3357  0.4107
  166SAPE   H7R18618   5.419   0.440   4.252 -1.1709 -0.6981  0.8693
  166SAPE   H7S18619   5.273   0.445   4.157 -1.6886  1.4627  1.6972
  166SAPE   C2818620   5.307   0.630   4.241 -1.0918  0.3867  0.3712
  166SAPE   H8R18621   5.246   0.688   4.170  1.1834  1.3425 -0.9498
  166SAPE   C2918622   5.327   0.664   4.366 -0.2997  0.0031 -0.0483
  166SAPE   H9R18623   5.296   0.762   4.405  1.1214  0.5895 -0.3467
  166SAPE  C21018624   5.403   0.587   4.464  0.7931 -0.2726 -0.2728
  166SAPE  H10R18625   5.410   0.662   4.546 -3.0769 -0.0338  0.0008
  166SAPE  H10S18626   5.501   0.556   4.422  1.5957 -0.8590  1.8658
  166SAPE  C21118627   5.337   0.458   4.512  0.2846  0.3592 -0.0698
  166SAPE  H11R18628   5.311   0.392   4.428  0.9607 -0.0273  0.0217
  166SAPE  C21218629   5.309   0.427   4.640  0.0537  0.1716 -0.3953
  166SAPE  H12R18630   5.270   0.326   4.662  1.7472 -0.0621  1.7724
  166SAPE  C21318631   5.340   0.513   4.759  0.1749  1.2652  0.2444
  166SAPE  H13R18632   5.444   0.549   4.743 -0.6552  2.7724 -2.4289
  166SAPE  H13S18633   5.342   0.443   4.845 -1.5576  0.8069 -0.0574
  166SAPE  C21418634   5.246   0.632   4.778  0.3193 -0.1577 -0.1921
  166SAPE  H14R18635   5.219   0.686   4.686 -2.9695  0.5686  1.0404
  166SAPE  C21518636   5.216   0.694   4.897 -0.7745  0.0600  0.1435
  166SAPE  H15R18637   5.145   0.778   4.894 -0.1958  0.5720  0.3985
  166SAPE  C21618638   5.263   0.639   5.030 -0.0919  0.1363  1.2576
  166SAPE  H16R18639   5.374   0.646   5.026  0.0092 -1.4428 -2.8431
  166SAPE  H16S18640   5.233   0.534   5.044  0.7712  0.0450  2.6820
  166SAPE  C21718641   5.211   0.717   5.148 -0.0599  0.7778  0.1389
  166SAPE  H17R18642   5.237   0.662   5.241 -1.2203 -0.9163 -0.4842
  166SAPE  H17S18643   5.100   0.713   5.148 -0.0408  0.0176 -0.5827
  166SAPE  C21818644   5.273   0.860   5.165  0.3291  0.4614 -0.4351
  166SAPE  H18R18645   5.215   0.930   5.101 -0.5769  0.7236  0.6332
  166SAPE  H18S18646   5.377   0.853   5.128 -0.1780  2.1025 -2.3426
  166SAPE  C21918647   5.263   0.916   5.303  0.9124  1.2035 -0.8518
  166SAPE  H19R18648   5.362   0.922   5.354 -0.2594  1.2971  1.5442
  166SAPE  H19S18649   5.205   0.853   5.374  1.5397  1.8951  0.3042
  166SAPE  C22018650   5.196   1.052   5.305  0.2856 -0.1408  0.8602
  166SAPE  H20R18651   5.099   1.039   5.252  0.2985 -1.6722  1.1887
  166SAPE  H20S18652   5.262   1.118   5.243 -1.5397 -0.6023 -1.7772
  166SAPE  H20T18653   5.188   1.095   5.407 -1.0961 -1.0925  1.1757
  166SAPE   C3318654   5.641   0.308   3.505  0.4573 -0.3625  0.3912
  166SAPE   H3X18655   5.578   0.351   3.586  0.2319 -0.5034  0.2899
  166SAPE   H3Y18656   5.723   0.381   3.490 -0.0740  0.5097  1.5441
  166SAPE   C3418657   5.708   0.185   3.572  0.1201 -0.4037  0.4056
  166SAPE   H4X18658   5.776   0.135   3.500  1.2003  0.8110  0.5668
  166SAPE   H4Y18659   5.633   0.111   3.609 -1.3927  0.2817 -1.1113
  166SAPE   C3518660   5.793   0.226   3.690 -0.1455 -0.0680  0.2338
  166SAPE   H5X18661   5.864   0.304   3.654  0.2093 -0.4305  0.1455
  166SAPE   H5Y18662   5.853   0.138   3.720  0.0738 -0.0586 -0.1677
  166SAPE   C3618663   5.722   0.273   3.824  0.6808  0.3633 -0.3522
  166SAPE   H6X18664   5.614   0.264   3.801  0.8229  0.3545 -1.0672
  166SAPE   H6Y18665   5.740   0.382   3.821  1.6187  0.3231  1.9444
  166SAPE   C3718666   5.766   0.193   3.949 -0.3836 -0.0707  0.3142
  166SAPE   H7X18667   5.870   0.233   3.959  0.2807 -0.7879 -2.6239
  166SAPE   H7Y18668   5.775   0.087   3.920 -0.9305  0.1150 -0.5639
  166SAPE   C3818669   5.677   0.228   4.065  0.6470 -0.2373  0.0375
  166SAPE   H8X18670   5.572   0.219   4.031  0.1390  2.2039  0.7987
  166SAPE   H8Y18671   5.694   0.335   4.091 -1.6510  0.4975 -1.2179
  166SAPE   C3918672   5.693   0.146   4.183 -0.6937  0.4150  0.7462
  166SAPE   H9X18673   5.800   0.160   4.210 -0.0851  0.2612 -1.4291
  166SAPE   H9Y18674   5.685   0.038   4.158  1.4270  0.0280  1.5164
  166SAPE  C31018675   5.597   0.182   4.289  0.4175  0.2992 -0.2485
  166SAPE  H10X18676   5.499   0.137   4.262  0.4967 -1.4927  2.1256
  166SAPE  H10Y18677   5.581   0.291   4.303 -1.4242  0.1919 -1.3041
  166SAPE  C31118678   5.644   0.122   4.423 -0.1330 -0.1966  0.3931
  166SAPE  H11X18679   5.748   0.146   4.454  0.3936 -1.3149 -0.4369
  166SAPE  H11Y18680   5.636   0.015   4.397 -0.0770  0.4122 -2.5018
  166SAPE  C31218681   5.547   0.148   4.544  0.0350 -0.0495 -0.0689
  166SAPE  H12X18682   5.448   0.130   4.496  0.4291  0.5879 -1.1727
  166SAPE  H12Y18683   5.547   0.259   4.554  0.9517 -0.0336 -0.2333
  166SAPE  C31318684   5.556   0.049   4.661  0.3126  0.6037 -0.5923
  166SAPE  H13X18685   5.537  -0.052   4.618 -1.2800  0.2708  0.7960
  166SAPE  H13Y18686   5.469   0.067   4.728  0.5997 -0.6969  0.1692
  166SAPE  C31418687   5.687   0.048   4.743 -0.3078 -0.3731  0.4472
  166SAPE  H14X18688   5.767  -0.006   4.688 -0.6600 -2.2425  1.6963
  166SAPE  H14Y18689   5.665   0.002   4.842 -1.9102  1.9610  1.2515
  166SAPE  C31518690   5.737   0.189   4.776 -0.1584 -0.3746  0.6913
  166SAPE  H15X18691   5.739   0.250   4.682 -0.6172 -1.3691  0.0149
  166SAPE  H15Y18692   5.841   0.194   4.815  0.3516 -0.4099 -0.5979
  166SAPE  C31618693   5.651   0.268   4.879  0.0034  0.0678  0.2448
  166SAPE  H16X18694   5.547   0.252   4.843 -0.4458  2.0091  0.6150
  166SAPE  H16Y18695   5.657   0.378   4.869  1.6125 -0.1330 -1.5490
  166SAPE  C31718696   5.662   0.217   5.026  0.7372 -0.0561  0.2180
  166SAPE  H17X18697   5.770   0.205   5.050  0.3631 -1.0844  1.4790
  166SAPE  H17Y18698   5.616   0.116   5.027  0.5574  0.0193 -0.1807
  166SAPE  C31818699   5.602   0.320   5.130 -0.4965  0.4339 -0.6867
  166SAPE  H18X18700   5.625   0.284   5.233 -0.4971  0.9145 -0.5139
  166SAPE  H18Y18701   5.494   0.343   5.116 -0.6664  0.8798  1.0828
  166SAPE  H18Z18702   5.651   0.419   5.119 -2.8978  1.6174 -1.5678
  167SAPE     N18703   3.283   6.154   2.628  0.0485  0.4415  0.0065
  167SAPE   HN118704   3.215   6.122   2.556 -0.4963  0.0041  0.6958
  167SAPE   HN218705   3.215   6.177   2.703  0.6227  0.6600  0.4612
  167SAPE   HN318706   3.335   6.241   2.604  0.0252  0.8273  1.3067
  167SAPE   C1218707   3.382   6.056   2.685  0.9105  0.2158  0.5064
  167SAPE  H12A18708   3.435   6.101   2.772 -0.2698 -3.2681  3.2855
  167SAPE  H12B18709   3.452   6.012   2.611 -0.4831 -0.6456 -0.3361
  167SAPE   C1118710   3.309   5.940   2.750  0.0730  0.4319  0.2475
  167SAPE  H11A18711   3.225   5.983   2.809 -1.6251 -0.2572 -1.5472
  167SAPE  H11B18712   3.379   5.886   2.818  1.3176 -0.1230 -1.3990
  167SAPE     P18713   3.247   5.697   2.684 -0.1163 -0.5641 -0.1943
  167SAPE   O1318714   3.131   5.642   2.609  0.0153  0.0765 -0.4924
  167SAPE   O1418715   3.375   5.620   2.685 -0.1988 -0.3244  0.2631
  167SAPE   O1218716   3.272   5.850   2.649 -0.0404 -0.0091  0.4276
  167SAPE   O1118717   3.193   5.714   2.830  0.5135 -0.1483  0.3033
  167SAPE    C118718   3.261   5.661   2.944 -0.6210 -0.0544  0.3958
  167SAPE    HA18719   3.228   5.555   2.942 -2.4311  0.4946 -0.1845
  167SAPE    HB18720   3.372   5.662   2.937 -0.6382  0.3552  0.1788
  167SAPE    C218721   3.214   5.712   3.083 -0.6130 -0.4496  0.3623
  167SAPE    HS18722   3.114   5.664   3.085 -0.2758 -1.6990 -3.4798
  167SAPE   O2118723   3.213   5.860   3.099  0.1988 -0.5891  0.4473
  167SAPE   C2118724   3.326   5.927   3.127  0.4681  0.8332 -0.1399
  167SAPE   O2218725   3.437   5.879   3.116 -0.2352  0.2058 -0.6994
  167SAPE   C2218726   3.284   6.066   3.168 -0.8451 -0.1581  0.6926
  167SAPE   H2R18727   3.363   6.125   3.117 -2.0227  0.4395 -0.4916
  167SAPE   H2S18728   3.184   6.088   3.125 -0.6780 -2.3430 -0.9762
  167SAPE    C318729   3.299   5.642   3.195  0.0933 -0.0115 -0.7978
  167SAPE    HX18730   3.407   5.644   3.169 -0.2272 -0.6127 -2.2643
  167SAPE    HY18731   3.286   5.532   3.201  1.6141 -0.1395  2.2174
  167SAPE   O3118732   3.288   5.698   3.326  0.3888  0.1852  0.5217
  167SAPE   C3118733   3.187   5.671   3.407 -0.3703 -0.2277 -0.3636
  167SAPE   O3218734   3.101   5.590   3.384 -0.6111 -0.4174  0.2188
  167SAPE   C3218735   3.198   5.763   3.526  0.2761 -0.1110 -0.5353
  167SAPE   H2X18736   3.143   5.717   3.611  0.5443  0.8961  0.1922
  167SAPE   H2Y18737   3.151   5.857   3.492  0.9831  0.3101 -0.3728
  167SAPE   C2318738   3.289   6.070   3.319 -0.2305 -0.2656  0.6639
  167SAPE   H3R18739   3.376   6.009   3.353  0.9163 -0.5697 -2.5372
  167SAPE   H3S18740   3.197   6.027   3.364  0.5267 -3.0295 -0.2408
  167SAPE   C2418741   3.297   6.217   3.378  0.1985  0.3763  0.6594
  167SAPE   H4R18742   3.403   6.241   3.352  0.9531 -1.2720  1.9739
  167SAPE   H4S18743   3.294   6.208   3.489 -1.4754 -0.2837  0.5756
  167SAPE   C2518744   3.202   6.319   3.330  0.1549  0.5207 -0.0623
  167SAPE   H5R18745   3.212   6.335   3.221  3.2174 -0.6793 -0.0693
  167SAPE   C2618746   3.134   6.402   3.411 -0.1816  0.0272  0.2743
  167SAPE   H6R18747   3.082   6.487   3.364 -1.4076 -1.1310 -0.5254
  167SAPE   C2718748   3.132   6.409   3.566  0.1943 -0.3067  0.4362
  167SAPE   H7R18749   3.148   6.307   3.607  0.9795  0.4073  1.9685
  167SAPE   H7S18750   3.034   6.447   3.601 -0.1578 -2.5952  2.2310
  167SAPE   C2818751   3.237   6.505   3.623 -1.1455 -0.2724  0.1606
  167SAPE   H8R18752   3.266   6.589   3.558  0.9859 -0.8199  0.3272
  167SAPE   C2918753   3.302   6.492   3.740 -0.4235 -0.3262  0.1548
  167SAPE   H9R18754   3.376   6.569   3.763  0.7190 -1.7070  1.2601
  167SAPE  C21018755   3.289   6.376   3.840 -0.0274 -0.3015 -0.2696
  167SAPE  H10R18756   3.216   6.297   3.813  1.3561 -1.8248  0.2682
  167SAPE  H10S18757   3.229   6.423   3.921 -0.3831  0.2620 -0.8547
  167SAPE  C21118758   3.416   6.314   3.906  0.3632  0.9865 -0.3565
  167SAPE  H11R18759   3.506   6.294   3.846  1.3404  2.7269  0.4550
  167SAPE  C21218760   3.440   6.308   4.038 -0.0619  0.2565  0.0735
  167SAPE  H12R18761   3.530   6.255   4.073 -1.2967 -2.0737 -0.0194
  167SAPE  C21318762   3.347   6.317   4.158 -0.9463  0.1787  0.0021
  167SAPE  H13R18763   3.273   6.399   4.154 -3.3703 -1.8688  0.0800
  167SAPE  H13S18764   3.412   6.342   4.244  1.0612 -0.6233 -1.2073
  167SAPE  C21418765   3.272   6.188   4.173 -0.3855  0.6635 -0.0532
  167SAPE  H14R18766   3.262   6.128   4.082  0.1799 -0.6254  0.7033
  167SAPE  C21518767   3.222   6.144   4.287  0.6535 -0.3065  0.8960
  167SAPE  H15R18768   3.168   6.049   4.290 -3.0599  1.6121  1.7352
  167SAPE  C21618769   3.212   6.230   4.414 -0.3149  0.4253  0.1401
  167SAPE  H16R18770   3.114   6.206   4.462 -0.8068  0.2545 -0.9128
  167SAPE  H16S18771   3.226   6.339   4.398  1.7935  0.1640  0.0214
  167SAPE  C21718772   3.312   6.181   4.509 -0.1425  0.5005  0.2270
  167SAPE  H17R18773   3.413   6.183   4.462  1.3761 -1.4600  3.0985
  167SAPE  H17S18774   3.297   6.076   4.544  2.9442 -0.3814 -0.7450
  167SAPE  C21818775   3.314   6.277   4.629  0.0031  0.8108 -0.3010
  167SAPE  H18R18776   3.219   6.281   4.687  1.9265  0.6908  3.0577
  167SAPE  H18S18777   3.356   6.378   4.611 -2.3064  2.8390  4.1265
  167SAPE  C21918778   3.421   6.231   4.728 -0.5677  0.0877  0.8586
  167SAPE  H19R18779   3.516   6.223   4.671 -0.6124 -1.1966  0.9438
  167SAPE  H19S18780   3.416   6.125   4.758  1.5154 -0.3032 -0.0295
  167SAPE  C22018781   3.427   6.332   4.842 -0.3530 -0.0451 -0.0404
  167SAPE  H20R18782   3.493   6.286   4.919  0.4914 -1.1957 -1.4078
  167SAPE  H20S18783   3.328   6.344   4.892 -1.9376 -2.1735 -2.4507
  167SAPE  H20T18784   3.467   6.428   4.801 -0.6846  0.6547  1.2086
  167SAPE   C3318785   3.341   5.789   3.579  0.4182 -0.8072  0.1557
  167SAPE   H3X18786   3.349   5.871   3.653 -0.8615 -2.6577  2.4765
  167SAPE   H3Y18787   3.402   5.813   3.489  0.0883 -0.1331  0.1133
  167SAPE   C3418788   3.421   5.669   3.629  0.4724  0.5303 -0.0467
  167SAPE   H4X18789   3.525   5.693   3.659  0.1655  0.0118  1.5333
  167SAPE   H4Y18790   3.436   5.596   3.547  1.8846  1.6590 -0.8464
  167SAPE   C3518791   3.354   5.590   3.749  0.2196 -0.5363  0.6747
  167SAPE   H5X18792   3.369   5.481   3.739  1.8825 -0.5195  2.2788
  167SAPE   H5Y18793   3.245   5.610   3.750  0.1215 -0.7369 -1.7284
  167SAPE   C3618794   3.393   5.638   3.887 -0.4797  1.1447  0.1837
  167SAPE   H6X18795   3.349   5.739   3.905 -0.0704  1.2955  0.3501
  167SAPE   H6Y18796   3.499   5.654   3.915 -0.0775 -0.1967 -0.5056
  167SAPE   C3718797   3.354   5.538   3.995 -0.0241 -1.1678 -0.0027
  167SAPE   H7X18798   3.394   5.438   3.967  1.0945 -0.4279 -1.1024
  167SAPE   H7Y18799   3.243   5.538   3.990 -0.0010 -0.8813 -0.6104
  167SAPE   C3818800   3.379   5.578   4.139  0.1025  0.2710  0.3253
  167SAPE   H8X18801   3.305   5.655   4.169  0.0255  0.5561 -0.5709
  167SAPE   H8Y18802   3.479   5.625   4.153 -0.0294  0.1491  1.9551
  167SAPE   C3918803   3.367   5.463   4.245 -0.6731 -0.5218 -0.1437
  167SAPE   H9X18804   3.261   5.431   4.236 -0.3310 -1.4329 -1.3239
  167SAPE   H9Y18805   3.369   5.502   4.349  0.7799 -2.6614  0.6977
  167SAPE  C31018806   3.469   5.344   4.223  0.1189 -0.7671  0.1170
  167SAPE  H10X18807   3.566   5.376   4.268 -1.1582  0.2546  2.2980
  167SAPE  H10Y18808   3.469   5.318   4.115  0.3790  3.7728 -1.1817
  167SAPE  C31118809   3.435   5.231   4.318  0.3395  0.6090 -0.1698
  167SAPE  H11X18810   3.466   5.129   4.286 -0.6397 -0.1823  1.2386
  167SAPE  H11Y18811   3.324   5.225   4.317  0.4024 -0.8570 -0.3022
  167SAPE  C31218812   3.493   5.250   4.457  0.5769  0.5902 -0.1254
  167SAPE  H12X18813   3.462   5.343   4.511 -0.3950  0.4070 -0.3606
  167SAPE  H12Y18814   3.603   5.265   4.449  0.5300  1.8442  1.1260
  167SAPE  C31318815   3.467   5.133   4.558  0.5988  0.0663  0.0373
  167SAPE  H13X18816   3.517   5.042   4.521  2.9210  0.3095  2.2817
  167SAPE  H13Y18817   3.357   5.124   4.572  0.6051  0.7962  0.6624
  167SAPE  C31418818   3.525   5.157   4.697  0.4247 -0.5056  0.2174
  167SAPE  H14X18819   3.488   5.258   4.726 -0.4784 -1.5311  2.9375
  167SAPE  H14Y18820   3.635   5.143   4.692  0.3218 -1.1796 -0.4047
  167SAPE  C31518821   3.463   5.070   4.807 -0.2090 -0.4803  0.8424
  167SAPE  H15X18822   3.489   4.963   4.794 -0.5910 -0.5632  0.7376
  167SAPE  H15Y18823   3.353   5.080   4.796 -0.1114 -1.5851 -2.0285
  167SAPE  C31618824   3.500   5.125   4.940 -0.6787  0.1868 -0.7993
  167SAPE  H16X18825   3.473   5.232   4.943 -3.0334 -0.3725  1.7116
  167SAPE  H16Y18826   3.608   5.130   4.968 -0.8404  0.2295 -0.1663
  167SAPE  C31718827   3.421   5.059   5.056  0.4773 -0.8562 -0.0957
  167SAPE  H17X18828   3.314   5.061   5.027  0.5460  1.8500 -0.3951
  167SAPE  H17Y18829   3.424   5.125   5.145  1.2747 -1.5622  0.4141
  167SAPE  C31818830   3.479   4.925   5.096 -0.5362  0.4981 -0.3255
  167SAPE  H18X18831   3.418   4.884   5.179  1.1916 -1.4391  0.0708
  167SAPE  H18Y18832   3.583   4.939   5.131 -0.5527 -1.3665  0.5723
  167SAPE  H18Z18833   3.487   4.854   5.011  0.4875  1.3628 -0.9984
  168SAPE     N18834   6.697   5.773   2.962 -0.2057  0.7593 -0.7216
  168SAPE   HN118835   6.601   5.767   3.001 -0.3606 -3.2360 -1.3423
  168SAPE   HN218836   6.707   5.862   2.908  2.0747  0.1403 -1.4243
  168SAPE   HN318837   6.691   5.697   2.891 -0.3316 -0.2580  0.3553
  168SAPE   C1218838   6.805   5.747   3.062  0.0930 -0.3658  0.6981
  168SAPE  H12A18839   6.784   5.653   3.119  0.0758 -0.3431  0.7293
  168SAPE  H12B18840   6.800   5.836   3.128 -0.4749 -0.1652  0.3938
  168SAPE   C1118841   6.942   5.743   2.996 -0.2360  0.6675  0.2933
  168SAPE  H11A18842   6.957   5.652   2.933 -0.3809  0.5927  0.3659
  168SAPE  H11B18843   7.025   5.742   3.070  0.0199  0.3305  0.0110
  168SAPE     P18844   7.096   5.924   2.892 -0.0729 -0.3616 -0.2943
  168SAPE   O1318845   7.201   5.822   2.859  0.8603  0.2943 -0.0785
  168SAPE   O1418846   7.071   6.041   2.808  0.2495 -0.2665  0.0225
  168SAPE   O1218847   6.955   5.858   2.910  0.1255  0.1587 -0.5793
  168SAPE   O1118848   7.130   5.976   3.041 -0.0491  0.5128  0.0615
  168SAPE    C118849   7.047   6.083   3.095  0.0033 -0.3017  0.0168
  168SAPE    HA18850   7.042   6.172   3.028  2.6952 -0.6824 -0.7854
  168SAPE    HB18851   6.943   6.048   3.110 -0.0719 -0.5362 -0.9839
  168SAPE    C218852   7.093   6.125   3.239  0.4891  0.5354  0.1635
  168SAPE    HS18853   7.199   6.158   3.236  0.7583 -0.0741 -4.4223
  168SAPE   O2118854   7.079   6.003   3.319 -0.3568  0.2801 -0.5438
  168SAPE   C2118855   7.175   5.971   3.412  0.0393 -0.2586  1.3731
  168SAPE   O2218856   7.284   6.027   3.421  0.5301  1.3824  0.2089
  168SAPE   C2218857   7.117   5.876   3.510  0.1352  0.2788  0.0679
  168SAPE   H2R18858   7.011   5.864   3.479 -0.6530  1.1158  2.3070
  168SAPE   H2S18859   7.174   5.782   3.491 -1.0637 -0.7832  1.5157
  168SAPE    C318860   7.006   6.243   3.298  0.0276  0.0109 -0.6440
  168SAPE    HX18861   6.900   6.207   3.293  0.4661 -1.6403  0.6387
  168SAPE    HY18862   7.004   6.334   3.235  1.0549  0.6477  0.2203
  168SAPE   O3118863   7.037   6.269   3.436  0.2883 -0.4093  0.3956
  168SAPE   C3118864   7.148   6.343   3.451  0.4446  0.4773 -0.6985
  168SAPE   O3218865   7.212   6.389   3.362 -0.2679  0.3131  0.1883
  168SAPE   C3218866   7.180   6.368   3.597  1.0950 -0.4251 -0.1927
  168SAPE   H2X18867   7.098   6.338   3.666  3.8526 -0.8603  3.2356
  168SAPE   H2Y18868   7.190   6.477   3.615 -3.5389  0.2562 -0.6729
  168SAPE   C2318869   7.126   5.917   3.655 -0.8606  0.3535 -0.0586
  168SAPE   H3R18870   7.228   5.955   3.678 -0.7652  0.7208 -1.0296
  168SAPE   H3S18871   7.115   5.836   3.731 -1.2937  0.8023  0.3641
  168SAPE   C2418872   7.015   6.016   3.691 -0.0899 -0.4157  0.1111
  168SAPE   H4R18873   6.914   5.973   3.678 -0.3564 -0.3577  1.7499
  168SAPE   H4S18874   7.016   6.101   3.620 -0.5749 -0.5742 -0.0841
  168SAPE   C2518875   7.040   6.066   3.825 -0.0144 -0.6776 -0.3187
  168SAPE   H5R18876   7.126   6.133   3.837 -1.0870  0.5982  0.6573
  168SAPE   C2618877   6.965   6.047   3.938  0.0287 -0.2443  0.3715
  168SAPE   H6R18878   7.000   6.094   4.031 -1.4415 -0.8973  1.2984
  168SAPE   C2718879   6.831   5.983   3.940  0.6027  0.4945  0.4737
  168SAPE   H7R18880   6.777   5.965   3.844 -0.0745 -1.5996  1.1855
  168SAPE   H7S18881   6.756   6.048   3.990  0.9581  0.1219  1.5086
  168SAPE   C2818882   6.841   5.862   4.030  0.0954  0.8150 -0.3078
  168SAPE   H8R18883   6.881   5.777   3.974 -0.7153  0.8239 -0.9188
  168SAPE   C2918884   6.819   5.843   4.162  0.3709  0.2817 -0.1184
  168SAPE   H9R18885   6.832   5.745   4.211  2.6682  0.4968 -0.1778
  168SAPE  C21018886   6.766   5.950   4.254  0.1487  0.1272 -0.4000
  168SAPE  H10R18887   6.774   6.050   4.206 -0.0766  0.0288 -0.6432
  168SAPE  H10S18888   6.829   5.969   4.344  2.0093  0.1149 -1.6440
  168SAPE  C21118889   6.626   5.910   4.285  0.4828  0.4640  0.0613
  168SAPE  H11R18890   6.559   5.906   4.197  0.4485  4.4383 -0.3059
  168SAPE  C21218891   6.566   5.886   4.406 -0.2002 -0.5263 -0.2527
  168SAPE  H12R18892   6.457   5.877   4.413 -0.3607  1.9907  2.2067
  168SAPE  C21318893   6.645   5.896   4.539  0.4383 -0.4414 -0.9565
  168SAPE  H13R18894   6.612   5.982   4.602  1.0119 -1.0911  0.2761
  168SAPE  H13S18895   6.752   5.911   4.514  0.3578  0.3436 -0.8520
  168SAPE  C21418896   6.640   5.767   4.628 -0.8388 -0.3259 -0.9804
  168SAPE  H14R18897   6.646   5.673   4.572  1.4601  0.4568 -2.1784
  168SAPE  C21518898   6.627   5.760   4.768 -0.9051 -0.2426  0.1937
  168SAPE  H15R18899   6.612   5.661   4.812 -0.7179 -0.4982 -0.3092
  168SAPE  C21618900   6.624   5.879   4.862  0.5819 -0.6497  0.4630
  168SAPE  H16R18901   6.519   5.890   4.896 -0.3610  1.4685 -2.6962
  168SAPE  H16S18902   6.654   5.975   4.815  2.5242 -0.5102  1.8362
  168SAPE  C21718903   6.729   5.847   4.963 -0.1743 -0.9146 -0.2827
  168SAPE  H17R18904   6.826   5.874   4.917  0.0572  1.5182  1.4551
  168SAPE  H17S18905   6.715   5.743   5.001  2.4329 -0.2018  3.0867
  168SAPE  C21818906   6.718   5.948   5.083 -0.0626 -0.7531 -0.0516
  168SAPE  H18R18907   6.724   6.051   5.040  0.5913 -1.0208 -0.6058
  168SAPE  H18S18908   6.809   5.935   5.146  0.5393 -1.3315 -1.0237
  168SAPE  C21918909   6.602   5.921   5.178 -0.0182  0.0960 -0.6665
  168SAPE  H19R18910   6.611   5.813   5.201 -1.6181 -0.0727 -0.7151
  168SAPE  H19S18911   6.503   5.931   5.128 -0.1372  0.5546 -0.3467
  168SAPE  C22018912   6.598   6.025   5.288 -0.0208  0.2526  0.5134
  168SAPE  H20R18913   6.695   6.036   5.339 -0.2252 -2.0101  1.5257
  168SAPE  H20S18914   6.519   6.002   5.362  0.0888 -0.4096  0.4390
  168SAPE  H20T18915   6.555   6.121   5.251  0.4336 -0.2270 -1.3653
  168SAPE   C3318916   7.312   6.306   3.653 -0.0274  0.3279  0.1453
  168SAPE   H3X18917   7.396   6.303   3.580 -1.4297 -3.8675 -1.6252
  168SAPE   H3Y18918   7.298   6.197   3.672  0.4895  0.3996  1.0025
  168SAPE   C3418919   7.351   6.368   3.786  0.1514 -0.1246 -0.6234
  168SAPE   H4X18920   7.337   6.477   3.771  1.5110  0.2498  0.5841
  168SAPE   H4Y18921   7.459   6.343   3.791  0.3248  0.8163  1.5675
  168SAPE   C3518922   7.276   6.323   3.912  0.1098 -0.2922  0.7624
  168SAPE   H5X18923   7.299   6.215   3.926  0.2154 -0.4082 -0.2619
  168SAPE   H5Y18924   7.166   6.330   3.899  0.4472  1.0707 -2.1730
  168SAPE   C3618925   7.312   6.392   4.039 -0.0435  0.6892  0.2667
  168SAPE   H6X18926   7.224   6.452   4.070 -1.2186 -0.1161 -1.3462
  168SAPE   H6Y18927   7.393   6.465   4.021  0.3310  0.4215  0.8332
  168SAPE   C3718928   7.345   6.303   4.160  0.1054  0.8124 -0.0572
  168SAPE   H7X18929   7.380   6.359   4.249 -1.3435  0.6223  0.6758
  168SAPE   H7Y18930   7.421   6.225   4.138  0.5201  0.1898  3.0599
  168SAPE   C3818931   7.215   6.234   4.218 -0.1828 -0.1089 -0.4126
  168SAPE   H8X18932   7.168   6.168   4.141 -1.3651 -0.0540  0.2395
  168SAPE   H8Y18933   7.137   6.309   4.242 -0.0735 -0.3268  0.6742
  168SAPE   C3918934   7.234   6.141   4.340 -0.1992  0.1446  0.0066
  168SAPE   H9X18935   7.298   6.052   4.320 -0.6007  0.2696 -1.9515
  168SAPE   H9Y18936   7.139   6.087   4.358 -1.0438  0.7446 -2.4011
  168SAPE  C31018937   7.280   6.215   4.467 -0.2311  0.3661  0.6478
  168SAPE  H10X18938   7.201   6.280   4.508 -0.1895  1.1224 -0.4321
  168SAPE  H10Y18939   7.374   6.271   4.447 -0.8294  0.8471 -1.0608
  168SAPE  C31118940   7.311   6.111   4.577  0.0654 -0.5652 -0.2242
  168SAPE  H11X18941   7.396   6.046   4.547  1.4942  0.8943  0.4610
  168SAPE  H11Y18942   7.220   6.061   4.615  0.6864 -0.7511  1.0783
  168SAPE  C31218943   7.386   6.182   4.696  0.4992  0.3381  0.6555
  168SAPE  H12X18944   7.449   6.258   4.645  1.1348 -3.0219 -4.1141
  168SAPE  H12Y18945   7.460   6.123   4.753 -1.0333 -0.4642  1.8934
  168SAPE  C31318946   7.291   6.262   4.790 -0.1767  0.6974 -0.4324
  168SAPE  H13X18947   7.304   6.209   4.887  1.9357  0.0610 -1.0098
  168SAPE  H13Y18948   7.188   6.278   4.750 -1.3452  1.7687  2.6663
  168SAPE  C31418949   7.354   6.400   4.807 -0.6836 -0.1118  0.5716
  168SAPE  H14X18950   7.383   6.444   4.709  0.2754 -0.5875  0.6252
  168SAPE  H14Y18951   7.453   6.379   4.853 -0.7756 -0.4775  0.6030
  168SAPE  C31518952   7.272   6.505   4.887 -0.2605  0.4841 -0.0206
  168SAPE  H15X18953   7.261   6.450   4.984  2.0204  0.5245  0.3328
  168SAPE  H15Y18954   7.175   6.518   4.835 -0.8203 -0.4492  0.7397
  168SAPE  C31618955   7.347   6.629   4.911 -0.0406  0.0773  0.0527
  168SAPE  H16X18956   7.400   6.667   4.821  1.3477 -0.7218  0.5119
  168SAPE  H16Y18957   7.429   6.611   4.982 -1.2380 -0.3411  1.3792
  168SAPE  C31718958   7.276   6.743   4.990  0.4137  0.0650 -0.1517
  168SAPE  H17X18959   7.351   6.804   5.045 -0.5015  2.3162 -1.2664
  168SAPE  H17Y18960   7.211   6.698   5.068  2.7583 -1.2536  1.1851
  168SAPE  C31818961   7.194   6.846   4.917  0.3840  0.1436  0.6048
  168SAPE  H18X18962   7.264   6.911   4.859  1.8865 -1.4641  0.5409
  168SAPE  H18Y18963   7.133   6.900   4.992 -0.3854 -0.5972  0.5138
  168SAPE  H18Z18964   7.136   6.785   4.845  1.3938 -1.5030  1.1290
  169SAPE     N18965   4.299   5.001   2.967 -0.1600  0.0171 -0.3183
  169SAPE   HN118966   4.341   5.093   2.994  0.3873 -0.2718 -0.1617
  169SAPE   HN218967   4.228   4.999   2.891 -1.4645 -1.3233  0.8813
  169SAPE   HN318968   4.257   4.963   3.055 -1.1993  1.7207 -0.0289
  169SAPE   C1218969   4.405   4.908   2.924 -0.1551  0.4966 -0.7780
  169SAPE  H12A18970   4.437   4.934   2.821  3.1417 -1.7342 -0.4769
  169SAPE  H12B18971   4.362   4.805   2.920 -3.8398  1.7305  1.8945
  169SAPE   C1118972   4.532   4.911   3.013 -0.4928 -0.3612  0.7926
  169SAPE  H11A18973   4.604   4.832   2.985  1.0588  1.5071 -0.8474
  169SAPE  H11B18974   4.498   4.893   3.117 -2.6080 -0.9116  0.0612
  169SAPE     P18975   4.729   5.047   3.088 -0.1723  0.1549 -0.4396
  169SAPE   O1318976   4.824   4.959   3.017 -0.0092 -0.1399 -0.2094
  169SAPE   O1418977   4.763   5.189   3.097 -0.0540 -0.5505  0.0489
  169SAPE   O1218978   4.602   5.035   2.995  0.0323 -0.0903 -0.6326
  169SAPE   O1118979   4.687   4.974   3.228  0.4405 -0.2181 -0.5051
  169SAPE    C118980   4.612   5.057   3.322  0.0810  1.0400 -0.0643
  169SAPE    HA18981   4.552   5.138   3.276 -1.8102 -0.4223 -0.2893
  169SAPE    HB18982   4.537   4.988   3.366  0.2627  0.9064  0.0408
  169SAPE    C218983   4.708   5.103   3.438  0.0681 -0.3049  0.4400
  169SAPE    HS18984   4.783   5.165   3.385  0.3860  0.5000  1.7911
  169SAPE   O2118985   4.774   4.994   3.495 -0.0546  0.9668 -0.5998
  169SAPE   C2118986   4.897   5.014   3.541  0.2812 -0.4802 -0.2682
  169SAPE   O2218987   4.965   5.115   3.539 -0.5541 -0.1928 -0.3583
  169SAPE   C2218988   4.947   4.879   3.586  0.4724  0.0188 -0.0247
  169SAPE   H2R18989   4.878   4.848   3.668  2.1111  0.1435  1.4439
  169SAPE   H2S18990   4.941   4.796   3.513  3.2284 -0.9893  0.7740
  169SAPE    C318991   4.627   5.190   3.540  0.1894  0.0563 -0.0718
  169SAPE    HX18992   4.530   5.142   3.566  0.1007  0.8771  1.1602
  169SAPE    HY18993   4.591   5.285   3.494  0.6746  0.3851  0.2327
  169SAPE   O3118994   4.704   5.197   3.662  0.2962  0.9749 -0.1550
  169SAPE   C3118995   4.753   5.314   3.694 -0.5995 -0.0507 -0.0911
  169SAPE   O3218996   4.727   5.419   3.636 -0.2131  0.3449  0.2067
  169SAPE   C3218997   4.846   5.311   3.816 -0.0385 -0.1143  0.4244
  169SAPE   H2X18998   4.936   5.367   3.786  0.0745  0.0577  1.0556
  169SAPE   H2Y18999   4.877   5.205   3.830 -0.1363 -0.7443 -3.2015
  169SAPE   C2319000   5.094   4.885   3.633 -0.2235  0.0726  0.2082
  169SAPE   H3R19001   5.127   4.985   3.671 -0.3388 -0.0413  0.6130
  169SAPE   H3S19002   5.159   4.869   3.545 -1.1553  2.5465 -1.0268
  169SAPE   C2419003   5.131   4.784   3.746  0.0788  0.0493 -0.3460
  169SAPE   H4R19004   5.075   4.690   3.726  0.7443 -0.4569  0.1346
  169SAPE   H4S19005   5.068   4.825   3.828  1.4242  0.8805  0.2892
  169SAPE   C2519006   5.271   4.773   3.788 -0.6043 -0.3056 -0.2097
  169SAPE   H5R19007   5.349   4.755   3.712  1.8348 -1.3917  2.3686
  169SAPE   C2619008   5.317   4.796   3.911 -0.4514 -0.1900  0.6241
  169SAPE   H6R19009   5.424   4.806   3.932 -0.5435 -0.9987  1.5336
  169SAPE   C2719010   5.236   4.820   4.035  0.0018 -0.9841  0.2164
  169SAPE   H7R19011   5.142   4.761   4.036 -0.0642 -0.8851 -0.1178
  169SAPE   H7S19012   5.212   4.928   4.040 -1.5993 -1.3725  1.8304
  169SAPE   C2819013   5.319   4.788   4.160 -0.3553  0.3037 -0.0487
  169SAPE   H8R19014   5.429   4.789   4.158 -0.2759  0.0165  2.1324
  169SAPE   C2919015   5.267   4.757   4.281  0.3078 -0.5724 -0.2664
  169SAPE   H9R19016   5.342   4.749   4.361  0.2850 -0.9222 -0.2809
  169SAPE  C21019017   5.122   4.741   4.322 -0.2702 -0.2709 -1.0322
  169SAPE  H10R19018   5.110   4.640   4.368  1.5269 -1.0012 -2.0516
  169SAPE  H10S19019   5.049   4.739   4.239 -1.0354 -0.7027 -0.3666
  169SAPE  C21119020   5.060   4.844   4.412  1.2532  0.5130 -0.1684
  169SAPE  H11R19021   5.075   4.948   4.380 -3.2258  1.4378  0.1417
  169SAPE  C21219022   4.986   4.812   4.524 -0.1671 -0.4631  0.5291
  169SAPE  H12R19023   4.949   4.894   4.587  1.8611  1.3192 -0.4461
  169SAPE  C21319024   4.946   4.678   4.570 -0.4800 -1.5337 -0.3110
  169SAPE  H13R19025   4.971   4.589   4.508  1.5428 -1.5918  0.5113
  169SAPE  H13S19026   4.837   4.694   4.585 -0.2530  0.9651 -0.9054
  169SAPE  C21419027   5.031   4.657   4.700  0.0270 -0.2147 -0.3113
  169SAPE  H14R19028   5.138   4.640   4.684  0.4679  1.5916  0.4555
  169SAPE  C21519029   4.998   4.629   4.829  0.1453 -0.3706 -0.3975
  169SAPE  H15R19030   5.084   4.615   4.895 -0.2595 -2.0800 -0.1996
  169SAPE  C21619031   4.872   4.637   4.904  0.1568  0.6438  0.7728
  169SAPE  H16R19032   4.823   4.537   4.901 -0.6654  1.0557 -0.4771
  169SAPE  H16S19033   4.795   4.695   4.849 -1.4985 -1.2947  0.9059
  169SAPE  C21719034   4.870   4.689   5.054 -0.6227  0.7046 -0.0727
  169SAPE  H17R19035   4.896   4.796   5.045 -1.1960  0.7814 -0.8864
  169SAPE  H17S19036   4.946   4.622   5.101 -1.4871  0.8567  1.6239
  169SAPE  C21819037   4.736   4.688   5.120 -0.2910 -0.3128  0.6183
  169SAPE  H18R19038   4.715   4.580   5.138  1.4258 -0.6847  0.5032
  169SAPE  H18S19039   4.656   4.733   5.057 -1.3040 -0.4372  1.7582
  169SAPE  C21919040   4.720   4.764   5.255  0.0990  0.6531 -0.4463
  169SAPE  H19R19041   4.733   4.874   5.244 -2.0612  1.0278  0.3368
  169SAPE  H19S19042   4.812   4.740   5.314 -0.9763 -0.6823  0.7500
  169SAPE  C22019043   4.593   4.733   5.326  0.4343 -0.1223 -0.0277
  169SAPE  H20R19044   4.587   4.818   5.396  1.2042 -0.1902  0.1330
  169SAPE  H20S19045   4.592   4.645   5.393  0.7048 -1.5109 -1.7590
  169SAPE  H20T19046   4.518   4.727   5.244 -0.3716  1.5713  0.5439
  169SAPE   C3319047   4.775   5.365   3.942  0.0964 -0.0347  0.5474
  169SAPE   H3X19048   4.686   5.304   3.965 -0.5279  0.5718 -0.2132
  169SAPE   H3Y19049   4.747   5.469   3.915  1.4383  0.1812 -0.1181
  169SAPE   C3419050   4.867   5.367   4.061 -0.3880 -0.2582 -0.2823
  169SAPE   H4X19051   4.956   5.430   4.041 -0.6538  0.1757 -0.1361
  169SAPE   H4Y19052   4.909   5.268   4.085 -1.4990 -0.6127  0.3047
  169SAPE   C3519053   4.793   5.421   4.191 -0.3165 -0.2771  0.3844
  169SAPE   H5X19054   4.723   5.335   4.204  0.7176 -1.0501  1.0039
  169SAPE   H5Y19055   4.750   5.522   4.174  1.6664  0.2572 -2.0436
  169SAPE   C3619056   4.888   5.434   4.315  0.0738  0.1437 -0.7262
  169SAPE   H6X19057   4.961   5.515   4.293 -0.1073  0.7582  0.8390
  169SAPE   H6Y19058   4.947   5.340   4.324  1.0958  0.5681 -2.4914
  169SAPE   C3719059   4.813   5.469   4.447 -0.0406  0.8137  0.7418
  169SAPE   H7X19060   4.745   5.384   4.469  2.4468 -1.0360  1.8999
  169SAPE   H7Y19061   4.758   5.562   4.425  1.1863  1.4282  0.1421
  169SAPE   C3819062   4.909   5.481   4.561 -0.3346  0.6423 -0.0209
  169SAPE   H8X19063   4.854   5.532   4.644 -2.1426  1.0934 -1.4282
  169SAPE   H8Y19064   4.995   5.543   4.531  0.1670  0.9693  1.9712
  169SAPE   C3919065   4.963   5.339   4.615  0.6774 -0.5326  0.4696
  169SAPE   H9X19066   5.024   5.290   4.537  0.0765 -0.4560 -0.0515
  169SAPE   H9Y19067   4.882   5.265   4.634  0.6769 -0.7014 -0.1862
  169SAPE  C31019068   5.040   5.351   4.745  0.5613 -0.0544 -0.5052
  169SAPE  H10X19069   4.967   5.414   4.801 -1.7158 -1.8754 -1.2692
  169SAPE  H10Y19070   5.135   5.400   4.713  0.2374  0.2145 -1.0571
  169SAPE  C31119071   5.083   5.219   4.813  0.4818  0.0415 -0.1335
  169SAPE  H11X19072   5.092   5.133   4.743 -0.8714  0.8402 -1.3626
  169SAPE  H11Y19073   5.005   5.184   4.884 -1.5858 -1.0381 -2.7268
  169SAPE  C31219074   5.208   5.238   4.902 -0.0379  0.0467 -0.4783
  169SAPE  H12X19075   5.184   5.316   4.977 -1.2762 -0.2988 -0.4919
  169SAPE  H12Y19076   5.289   5.283   4.841 -0.4719 -0.4341 -1.4176
  169SAPE  C31319077   5.246   5.105   4.976 -0.7249  0.0805 -0.2184
  169SAPE  H13X19078   5.241   5.016   4.910 -0.8999 -0.8084  0.9534
  169SAPE  H13Y19079   5.158   5.096   5.044 -1.3469 -1.1696 -1.1524
  169SAPE  C31419080   5.377   5.106   5.056  0.4292  0.2986 -0.1456
  169SAPE  H14X19081   5.382   5.197   5.120  0.4457  0.1176  0.1112
  169SAPE  H14Y19082   5.460   5.092   4.984  1.7116 -0.3212  1.3865
  169SAPE  C31519083   5.376   4.991   5.156  0.7941  0.2463  0.1171
  169SAPE  H15X19084   5.319   4.911   5.104  1.8407 -0.1128 -0.5253
  169SAPE  H15Y19085   5.312   5.021   5.241  1.9622  0.7804  0.8256
  169SAPE  C31619086   5.518   4.956   5.205  0.3054  0.2488 -0.8305
  169SAPE  H16X19087   5.562   5.049   5.247  0.1473 -0.6379  1.4954
  169SAPE  H16Y19088   5.568   4.924   5.112 -1.3581  0.5039 -1.8495
  169SAPE  C31719089   5.526   4.858   5.327  0.1906  0.5301  0.2172
  169SAPE  H17X19090   5.482   4.896   5.421  0.5432 -1.1443  1.0895
  169SAPE  H17Y19091   5.630   4.838   5.363 -0.0427 -0.3337  0.4327
  169SAPE  C31819092   5.470   4.720   5.291  0.6568 -0.2454 -0.3789
  169SAPE  H18X19093   5.496   4.649   5.372 -0.0807  2.1821  2.1486
  169SAPE  H18Y19094   5.509   4.684   5.193 -1.0368  1.6155 -1.8236
  169SAPE  H18Z19095   5.359   4.718   5.283  0.4967 -4.0447  0.7946
  170SAPE     N19096   6.263   6.175   2.494 -0.0001  0.1406 -0.3772
  170SAPE   HN119097   6.307   6.268   2.479 -1.5755  1.3905  2.1066
  170SAPE   HN219098   6.240   6.121   2.408 -1.2852  1.8425 -1.1749
  170SAPE   HN319099   6.169   6.202   2.531  1.3569  3.2550  1.0813
  170SAPE   C1219100   6.353   6.112   2.603  0.7208 -1.0485  0.2512
  170SAPE  H12A19101   6.458   6.097   2.572  0.9209  1.0796 -0.3078
  170SAPE  H12B19102   6.314   6.011   2.627  0.2891 -0.4639  2.2061
  170SAPE   C1119103   6.329   6.194   2.727  0.4355  0.0862 -0.3405
  170SAPE  H11A19104   6.387   6.150   2.811 -0.4164 -0.4403 -0.0133
  170SAPE  H11B19105   6.223   6.194   2.761  0.2186 -0.5104 -0.9896
  170SAPE     P19106   6.439   6.427   2.803 -0.0938  0.4606 -0.1773
  170SAPE   O1319107   6.577   6.439   2.756 -0.1661  0.1194 -0.0070
  170SAPE   O1419108   6.363   6.554   2.796 -0.7806  0.3753  0.4910
  170SAPE   O1219109   6.373   6.326   2.695 -0.0089  0.2331  0.4165
  170SAPE   O1119110   6.418   6.353   2.946 -0.5289 -0.1309  0.4541
  170SAPE    C119111   6.281   6.338   2.990 -0.3591 -0.0373  0.3680
  170SAPE    HA19112   6.209   6.395   2.929  0.4621  0.7568  0.1089
  170SAPE    HB19113   6.259   6.229   2.989  0.9337 -0.3816  2.3019
  170SAPE    C219114   6.251   6.370   3.142 -0.1708  0.1765 -0.1625
  170SAPE    HS19115   6.261   6.479   3.160  2.6833  0.0725 -0.5813
  170SAPE   O2119116   6.341   6.293   3.224  0.5447 -0.0838  0.2796
  170SAPE   C2119117   6.376   6.355   3.338 -0.4011 -0.3490  0.5268
  170SAPE   O2219118   6.353   6.468   3.368  0.0972 -0.1155 -0.2315
  170SAPE   C2219119   6.459   6.252   3.415 -0.2389 -1.1160 -0.2079
  170SAPE   H2R19120   6.555   6.227   3.364  2.5260 -0.1458  4.0305
  170SAPE   H2S19121   6.497   6.306   3.504  1.5294 -1.7511 -0.5276
  170SAPE    C319122   6.112   6.327   3.181  0.6266 -0.3263  0.9603
  170SAPE    HX19123   6.102   6.219   3.158 -0.9182  0.1874 -1.0141
  170SAPE    HY19124   6.041   6.379   3.113  1.3379 -0.0046  0.4411
  170SAPE   O3119125   6.087   6.346   3.321  0.6994  0.6988  0.0015
  170SAPE   C3119126   6.013   6.455   3.353 -0.0575 -0.2109  0.0183
  170SAPE   O3219127   5.973   6.534   3.270  0.5614  0.0794 -0.7143
  170SAPE   C3219128   6.004   6.463   3.505 -0.6703 -0.2666 -0.1773
  170SAPE   H2X19129   6.100   6.511   3.535  1.1622 -2.0073 -2.7313
  170SAPE   H2Y19130   5.993   6.364   3.554 -1.7557  0.9262  2.0974
  170SAPE   C2319131   6.377   6.128   3.449  0.0273 -0.3172 -0.8124
  170SAPE   H3R19132   6.447   6.061   3.502  2.1694  1.6706 -0.9638
  170SAPE   H3S19133   6.347   6.081   3.353 -0.4932  0.4328 -1.0337
  170SAPE   C2419134   6.257   6.166   3.542 -0.3115 -0.2794  0.9273
  170SAPE   H4R19135   6.208   6.066   3.544  2.6334 -2.0551 -2.9145
  170SAPE   H4S19136   6.192   6.231   3.479  1.4624  0.5733 -0.0712
  170SAPE   C2519137   6.289   6.234   3.667 -0.2879 -1.1770 -0.1330
  170SAPE   H5R19138   6.335   6.334   3.665  1.1606 -1.8090  0.1193
  170SAPE   C2619139   6.258   6.189   3.788  0.8318  0.4321  0.8242
  170SAPE   H6R19140   6.273   6.253   3.876  1.3082  0.0746  1.0022
  170SAPE   C2719141   6.205   6.046   3.820 -0.0567  0.3269 -0.2268
  170SAPE   H7R19142   6.160   6.007   3.726 -0.3481  1.9932 -0.8256
  170SAPE   H7S19143   6.121   6.040   3.892 -1.6571  0.1015 -2.0226
  170SAPE   C2819144   6.326   5.961   3.861  0.6778 -0.0409  0.3790
  170SAPE   H8R19145   6.404   5.937   3.786 -1.7399 -2.1655 -1.6517
  170SAPE   C2919146   6.345   5.923   3.987  0.2624  0.0639  0.3189
  170SAPE   H9R19147   6.439   5.871   4.011  2.7750  3.8410 -0.4396
  170SAPE  C21019148   6.263   5.949   4.110 -0.6201  0.1774  1.2325
  170SAPE  H10R19149   6.177   6.017   4.096 -0.3365 -0.0407 -2.6397
  170SAPE  H10S19150   6.328   6.001   4.184 -1.1016  1.5952  0.6880
  170SAPE  C21119151   6.224   5.813   4.167  0.1310 -0.0146 -0.0448
  170SAPE  H11R19152   6.226   5.723   4.105  0.5064 -0.1801  0.2007
  170SAPE  C21219153   6.176   5.794   4.286  0.7985 -0.5156 -0.1028
  170SAPE  H12R19154   6.163   5.692   4.326 -2.3059 -0.3226 -0.4159
  170SAPE  C21319155   6.147   5.907   4.380  0.1927 -0.2507 -0.8685
  170SAPE  H13R19156   6.122   6.003   4.331 -0.6685 -0.2560 -0.4490
  170SAPE  H13S19157   6.232   5.939   4.444 -1.2101 -0.1473  1.0241
  170SAPE  C21419158   6.019   5.869   4.454  0.5586 -0.8188 -1.0940
  170SAPE  H14R19159   5.930   5.844   4.395 -0.0041 -3.2236  0.6020
  170SAPE  C21519160   6.006   5.870   4.587  0.2764  0.4039  0.2271
  170SAPE  H15R19161   5.905   5.845   4.623 -0.1671  1.5526 -0.1910
  170SAPE  C21619162   6.117   5.882   4.692  0.5821  0.3274  0.1850
  170SAPE  H16R19163   6.217   5.882   4.644  0.5252 -0.1692  0.0644
  170SAPE  H16S19164   6.109   5.801   4.767  0.3012 -0.6144 -0.8248
  170SAPE  C21719165   6.112   6.013   4.770  0.1282 -0.8800  0.6212
  170SAPE  H17R19166   6.010   6.024   4.810 -1.2286 -4.2401 -1.4505
  170SAPE  H17S19167   6.136   6.098   4.703  1.1666 -0.6612  1.2412
  170SAPE  C21819168   6.220   6.025   4.875 -0.6368 -0.7087 -0.0783
  170SAPE  H18R19169   6.323   5.991   4.852 -0.6761 -2.2567  1.7964
  170SAPE  H18S19170   6.194   5.948   4.951  3.0329 -2.0297  0.0568
  170SAPE  C21919171   6.218   6.167   4.922 -0.3064 -0.5299 -0.2449
  170SAPE  H19R19172   6.115   6.202   4.946  0.2331  0.9333  0.0740
  170SAPE  H19S19173   6.240   6.236   4.838 -2.4599  1.1589  0.4887
  170SAPE  C22019174   6.321   6.193   5.033 -0.4161 -0.1270  0.1423
  170SAPE  H20R19175   6.311   6.115   5.112 -0.3954  1.2030  1.4984
  170SAPE  H20S19176   6.313   6.296   5.073  0.5127 -0.2597  0.7015
  170SAPE  H20T19177   6.419   6.177   4.983 -1.0344 -1.2000 -0.7895
  170SAPE   C3319178   5.881   6.535   3.542  0.8754  0.5176  0.5901
  170SAPE   H3X19179   5.870   6.628   3.483  0.3064  0.7420  1.0422
  170SAPE   H3Y19180   5.890   6.556   3.651  0.8332 -1.8265  1.1014
  170SAPE   C3419181   5.750   6.458   3.514  0.4220  0.3847  0.3538
  170SAPE   H4X19182   5.743   6.359   3.566 -2.6072  1.6997  2.7664
  170SAPE   H4Y19183   5.737   6.436   3.406  0.2113  1.7751  0.0855
  170SAPE   C3519184   5.630   6.539   3.559  0.3044 -0.0615 -0.0150
  170SAPE   H5X19185   5.538   6.486   3.527  1.8936 -3.3315  0.3653
  170SAPE   H5Y19186   5.633   6.641   3.515 -0.4105  0.4747  1.1243
  170SAPE   C3619187   5.626   6.544   3.712  0.3602 -0.6000  0.1195
  170SAPE   H6X19188   5.709   6.611   3.743  0.8201 -0.2875 -1.6924
  170SAPE   H6Y19189   5.651   6.447   3.760 -1.5752 -1.0370  0.3409
  170SAPE   C3719190   5.490   6.588   3.766  0.2836 -0.1424 -0.0716
  170SAPE   H7X19191   5.418   6.519   3.717  0.9302 -1.3750  0.6615
  170SAPE   H7Y19192   5.462   6.692   3.740 -0.8002  0.1952  2.1606
  170SAPE   C3819193   5.492   6.561   3.916  0.4368  0.6885  0.3701
  170SAPE   H8X19194   5.506   6.452   3.932 -1.5392 -0.0569 -2.2778
  170SAPE   H8Y19195   5.385   6.584   3.937  0.6284  1.2209  0.7949
  170SAPE   C3919196   5.584   6.650   4.003 -0.6646  0.0227  0.4544
  170SAPE   H9X19197   5.540   6.749   4.028  0.0638  0.4434  0.1005
  170SAPE   H9Y19198   5.681   6.662   3.950 -0.8740  2.4615  0.5168
  170SAPE  C31019199   5.613   6.578   4.133 -0.2079 -0.7467  0.3355
  170SAPE  H10X19200   5.695   6.627   4.190 -0.6428 -1.4425  1.6111
  170SAPE  H10Y19201   5.654   6.475   4.129  3.0197  0.3676  1.4160
  170SAPE  C31119202   5.486   6.589   4.218  0.0628  0.5330  0.8494
  170SAPE  H11X19203   5.403   6.533   4.170 -2.4898  1.1027  4.2272
  170SAPE  H11Y19204   5.462   6.697   4.220  0.8223  0.7223  0.4582
  170SAPE  C31219205   5.512   6.547   4.363  0.7697  0.1117 -0.4262
  170SAPE  H12X19206   5.579   6.622   4.410  0.5501  0.6079 -0.8921
  170SAPE  H12Y19207   5.575   6.456   4.367  2.5769  1.3536  2.7529
  170SAPE  C31319208   5.374   6.531   4.434 -0.3013  0.2782  0.3567
  170SAPE  H13X19209   5.304   6.478   4.366  0.4429  0.6184 -0.7075
  170SAPE  H13Y19210   5.321   6.628   4.445  0.6074  0.7618  0.6030
  170SAPE  C31419211   5.401   6.467   4.570 -0.4030 -0.5973 -0.4957
  170SAPE  H14X19212   5.451   6.537   4.640 -2.0730  0.7517 -0.5724
  170SAPE  H14Y19213   5.468   6.379   4.564 -0.2424 -0.4245 -1.3629
  170SAPE  C31519214   5.274   6.419   4.641  0.0509  0.1320 -0.5171
  170SAPE  H15X19215   5.231   6.347   4.568  0.7935  0.9873 -1.8343
  170SAPE  H15Y19216   5.218   6.512   4.660  2.1086  0.7779  3.3052
  170SAPE  C31619217   5.304   6.356   4.773 -0.2530 -0.1334 -0.7182
  170SAPE  H16X19218   5.375   6.417   4.833 -0.5734 -0.8407  0.3962
  170SAPE  H16Y19219   5.345   6.255   4.752 -2.0816 -0.9270 -0.6327
  170SAPE  C31719220   5.177   6.335   4.867  0.1982 -0.1849  0.8947
  170SAPE  H17X19221   5.122   6.246   4.830 -1.9698  1.4492 -0.0254
  170SAPE  H17Y19222   5.112   6.425   4.858  1.3376  0.5035 -1.2135
  170SAPE  C31819223   5.219   6.302   5.017  0.2393  0.0481  0.8761
  170SAPE  H18X19224   5.146   6.226   5.050  0.5183 -1.1604 -1.1222
  170SAPE  H18Y19225   5.211   6.397   5.072  1.1926  0.1893  0.8014
  170SAPE  H18Z19226   5.321   6.258   5.022  0.0320 -0.8990 -1.5806
  171SAPE     N19227   5.869   5.360   2.775 -0.0589  0.5125 -0.3140
  171SAPE   HN119228   5.795   5.413   2.825  0.0842  2.6675 -2.2556
  171SAPE   HN219229   5.956   5.389   2.824  0.5172 -2.6996  0.8295
  171SAPE   HN319230   5.863   5.394   2.678  0.3118 -0.2247 -0.6048
  171SAPE   C1219231   5.850   5.206   2.785 -0.1858 -0.1888 -0.5947
  171SAPE  H12A19232   5.899   5.165   2.693 -0.6057 -1.1255 -0.4140
  171SAPE  H12B19233   5.741   5.187   2.776 -0.3239  0.7319 -0.9590
  171SAPE   C1119234   5.919   5.151   2.908  0.6784 -0.1861 -0.0690
  171SAPE  H11A19235   6.026   5.177   2.901 -0.0626  3.0166 -1.6103
  171SAPE  H11B19236   5.911   5.040   2.907 -1.0814 -0.1984  2.8703
  171SAPE     P19237   5.710   5.141   3.066 -0.0982  0.1297  0.1853
  171SAPE   O1319238   5.615   5.206   2.973 -0.0725 -0.2158 -0.3431
  171SAPE   O1419239   5.703   4.994   3.064  0.6955  0.2835 -0.0339
  171SAPE   O1219240   5.854   5.190   3.033  0.6012  0.4430 -0.5931
  171SAPE   O1119241   5.688   5.200   3.216  0.8458 -0.1072  0.6974
  171SAPE    C119242   5.740   5.323   3.256 -0.5337  0.1704 -0.3746
  171SAPE    HA19243   5.842   5.341   3.215 -0.1648 -1.8686 -0.4612
  171SAPE    HB19244   5.693   5.411   3.207  0.3158 -0.2461 -2.0081
  171SAPE    C219245   5.750   5.337   3.410  0.3088 -0.7132 -0.5219
  171SAPE    HS19246   5.803   5.434   3.424 -1.5089  0.3887 -0.9625
  171SAPE   O2119247   5.824   5.234   3.476  0.2630 -0.2492 -0.2368
  171SAPE   C2119248   5.955   5.228   3.456 -0.2833  0.0116 -0.3212
  171SAPE   O2219249   6.022   5.314   3.399  0.1955 -0.3870 -0.5957
  171SAPE   C2219250   6.005   5.091   3.515 -0.1151  0.6360  0.6103
  171SAPE   H2R19251   5.914   5.029   3.525 -0.7222  0.6340 -3.3371
  171SAPE   H2S19252   6.077   5.047   3.443 -0.5360  2.0904 -0.7528
  171SAPE    C319253   5.600   5.349   3.465  0.0459  0.0389 -0.1443
  171SAPE    HX19254   5.535   5.282   3.405 -1.9763  1.1626  0.6985
  171SAPE    HY19255   5.556   5.449   3.446 -0.7931 -0.8322 -3.4045
  171SAPE   O3119256   5.591   5.330   3.608 -0.0117  0.2908 -0.8088
  171SAPE   C3119257   5.581   5.206   3.645 -0.1318 -0.1905  0.0946
  171SAPE   O3219258   5.580   5.110   3.577  0.6441  1.0887  0.4757
  171SAPE   C3219259   5.562   5.207   3.799 -0.3962  0.3299  0.9264
  171SAPE   H2X19260   5.470   5.148   3.815  0.3236 -1.7039 -1.7439
  171SAPE   H2Y19261   5.542   5.311   3.833 -3.9081  0.0231  0.1080
  171SAPE   C2319262   6.085   5.107   3.647 -0.0273 -0.1800 -0.6702
  171SAPE   H3R19263   6.183   5.155   3.625 -1.0905  1.3730 -2.2588
  171SAPE   H3S19264   6.113   5.006   3.683 -1.6445 -0.5483 -0.3808
  171SAPE   C2419265   6.015   5.186   3.757 -0.1670  0.5370 -0.7300
  171SAPE   H4R19266   5.923   5.128   3.777 -0.7017  0.8649 -2.1189
  171SAPE   H4S19267   5.996   5.284   3.708 -2.2441 -0.1585 -1.4015
  171SAPE   C2519268   6.106   5.210   3.880  0.0325 -0.2877  0.2943
  171SAPE   H5R19269   6.148   5.311   3.878  0.3906 -0.4440 -0.4655
  171SAPE   C2619270   6.144   5.120   3.974  0.0003  0.3196  0.4699
  171SAPE   H6R19271   6.216   5.157   4.049 -0.0351 -0.6913  1.0222
  171SAPE   C2719272   6.091   4.978   3.988  0.3786  0.1922 -0.1078
  171SAPE   H7R19273   6.008   4.956   3.917  0.9024 -1.2886 -0.2803
  171SAPE   H7S19274   6.059   4.962   4.093  3.0079 -1.3164  0.5426
  171SAPE   C2819275   6.199   4.891   3.940  0.8074 -0.3562 -0.8037
  171SAPE   H8R19276   6.247   4.915   3.844 -1.0150 -0.0456 -1.6831
  171SAPE   C2919277   6.228   4.777   4.002 -0.4164  0.1439 -0.4336
  171SAPE   H9R19278   6.300   4.709   3.955 -0.7918  0.7196 -1.8978
  171SAPE  C21019279   6.171   4.729   4.134  0.3553 -0.1595  0.9156
  171SAPE  H10R19280   6.119   4.632   4.118  0.2637  0.2150 -1.4000
  171SAPE  H10S19281   6.097   4.798   4.180  1.6081  1.1381  1.0481
  171SAPE  C21119282   6.273   4.700   4.234  0.0277  0.0956 -0.2103
  171SAPE  H11R19283   6.375   4.709   4.195 -0.5346 -2.6805 -2.7893
  171SAPE  C21219284   6.252   4.631   4.352 -0.7647  0.1598 -0.0934
  171SAPE  H12R19285   6.342   4.604   4.408  0.8567 -3.1614 -3.8492
  171SAPE  C21319286   6.121   4.590   4.418  0.3631  0.2385 -0.5936
  171SAPE  H13R19287   6.061   4.519   4.356 -0.2629  0.8502 -0.7044
  171SAPE  H13S19288   6.070   4.688   4.430 -1.8316 -1.1385  2.6014
  171SAPE  C21419289   6.139   4.526   4.554 -0.4197 -0.1631  0.0399
  171SAPE  H14R19290   6.225   4.571   4.606 -0.6026 -1.7791  1.8224
  171SAPE  C21519291   6.075   4.432   4.628  1.6627 -0.7295 -0.0233
  171SAPE  H15R19292   6.107   4.410   4.730 -0.2745 -0.1022  0.7675
  171SAPE  C21619293   5.959   4.356   4.570 -0.4505 -0.2034  0.0221
  171SAPE  H16R19294   5.985   4.249   4.587  0.8623  0.1535  0.3875
  171SAPE  H16S19295   5.951   4.362   4.460  2.0946  0.2074 -0.1827
  171SAPE  C21719296   5.829   4.375   4.639 -0.2689  0.3693 -0.7283
  171SAPE  H17R19297   5.748   4.325   4.582  0.2372  1.5531 -2.5876
  171SAPE  H17S19298   5.793   4.481   4.643  2.4431  1.3389  0.0320
  171SAPE  C21819299   5.830   4.316   4.786 -1.0266  0.4880  0.2262
  171SAPE  H18R19300   5.909   4.375   4.838  0.7401 -0.7465 -0.9271
  171SAPE  H18S19301   5.863   4.210   4.779 -1.2326  0.4250  0.1994
  171SAPE  C21919302   5.686   4.319   4.844 -0.5036  0.5772  0.3098
  171SAPE  H19R19303   5.619   4.268   4.772 -0.5012 -0.0329  0.7307
  171SAPE  H19S19304   5.656   4.423   4.821  0.9582  0.6340 -1.6009
  171SAPE  C22019305   5.675   4.300   5.000  0.6552 -0.1719 -0.1740
  171SAPE  H20R19306   5.581   4.244   5.020  1.2694 -1.2785 -0.3116
  171SAPE  H20S19307   5.676   4.397   5.054  1.4606  0.4059 -1.1943
  171SAPE  H20T19308   5.753   4.233   5.044 -0.8688 -1.4893  0.6450
  171SAPE   C3319309   5.672   5.126   3.872 -0.0797 -0.0773  0.0268
  171SAPE   H3X19310   5.767   5.184   3.874  0.1562 -0.2663 -2.4048
  171SAPE   H3Y19311   5.694   5.024   3.834 -1.2291  0.0673 -1.1128
  171SAPE   C3419312   5.632   5.106   4.019 -0.2494 -0.0137 -0.4709
  171SAPE   H4X19313   5.543   5.039   4.015 -1.4280  1.5238 -1.4746
  171SAPE   H4Y19314   5.600   5.204   4.061 -0.3514 -0.4602  0.5112
  171SAPE   C3519315   5.747   5.048   4.096  0.3937  0.0812  0.0125
  171SAPE   H5X19316   5.833   5.119   4.098 -0.9915  1.8268  0.2333
  171SAPE   H5Y19317   5.787   4.955   4.052  0.2845 -0.3386  0.7852
  171SAPE   C3619318   5.716   5.017   4.244 -0.1622  0.7710  0.4521
  171SAPE   H6X19319   5.638   4.938   4.244  0.4257  0.1504 -0.9792
  171SAPE   H6Y19320   5.673   5.106   4.295  2.6054  2.0823  0.6778
  171SAPE   C3719321   5.833   4.958   4.328  0.1641 -0.4791  0.1604
  171SAPE   H7X19322   5.876   4.870   4.275 -1.5777 -0.2076 -1.8319
  171SAPE   H7Y19323   5.776   4.932   4.419  1.2252  2.0096  1.6434
  171SAPE   C3819324   5.948   5.051   4.360  0.7078  0.2965  0.0235
  171SAPE   H8X19325   5.915   5.140   4.417  2.8923  0.1005  1.7333
  171SAPE   H8Y19326   5.993   5.084   4.264  0.6186 -1.0893 -0.5173
  171SAPE   C3919327   6.053   4.986   4.449  0.1639  0.6293 -0.2731
  171SAPE   H9X19328   6.103   4.904   4.395 -1.0709 -0.7329  0.5568
  171SAPE   H9Y19329   6.004   4.946   4.540 -0.5537  0.6315 -0.6508
  171SAPE  C31019330   6.164   5.084   4.504  0.3225  0.1990  0.3824
  171SAPE  H10X19331   6.127   5.152   4.583 -1.7966  0.1180 -0.4895
  171SAPE  H10Y19332   6.196   5.161   4.431 -2.5520  2.5144  1.4083
  171SAPE  C31119333   6.276   5.006   4.578  0.5260 -0.5245 -0.2538
  171SAPE  H11X19334   6.355   5.081   4.602 -0.3115  0.7125 -1.2350
  171SAPE  H11Y19335   6.307   4.929   4.505  2.1414 -0.0512 -0.1268
  171SAPE  C31219336   6.233   4.928   4.704 -0.8675  0.0661 -0.6266
  171SAPE  H12X19337   6.313   4.870   4.753  0.1672  0.3707 -1.8960
  171SAPE  H12Y19338   6.167   4.841   4.684  0.0059 -0.8871  0.5427
  171SAPE  C31319339   6.157   5.016   4.809 -0.7071  0.4611  0.3269
  171SAPE  H13X19340   6.079   5.068   4.749 -1.0306 -4.2091 -4.0698
  171SAPE  H13Y19341   6.215   5.095   4.860  0.7973 -1.5708  1.9638
  171SAPE  C31419342   6.082   4.943   4.914  0.3833  0.6906  0.2184
  171SAPE  H14X19343   6.001   4.875   4.880 -0.2507  1.4955  0.0684
  171SAPE  H14Y19344   6.040   5.028   4.972  2.8672  0.2792  2.8287
  171SAPE  C31519345   6.171   4.872   5.015  0.0351  0.0968 -0.2604
  171SAPE  H15X19346   6.242   4.806   4.960 -1.1064 -2.4753  1.2098
  171SAPE  H15Y19347   6.116   4.793   5.070 -0.5308  1.2309  0.8436
  171SAPE  C31619348   6.242   4.968   5.125 -0.0926  0.6317  0.5923
  171SAPE  H16X19349   6.165   5.017   5.189 -0.8571  1.3597 -0.8214
  171SAPE  H16Y19350   6.293   5.046   5.065  0.9173 -1.4011 -1.3360
  171SAPE  C31719351   6.353   4.901   5.209 -0.0895  0.3465  0.5813
  171SAPE  H17X19352   6.393   4.964   5.290  1.3234  0.1440  0.0701
  171SAPE  H17Y19353   6.444   4.894   5.145  0.0284 -2.0602  0.9120
  171SAPE  C31819354   6.324   4.767   5.271  0.2836  0.3631 -0.8308
  171SAPE  H18X19355   6.282   4.693   5.200 -0.0099 -1.3298  1.0234
  171SAPE  H18Y19356   6.258   4.770   5.360  2.1563  0.6847  0.6100
  171SAPE  H18Z19357   6.421   4.728   5.307  0.1185  0.7790  0.1066
  172SAPE     N19358   6.536   0.387   2.507 -0.6679 -0.1857 -0.8022
  172SAPE   HN119359   6.538   0.489   2.488  1.6653 -0.1569 -0.6559
  172SAPE   HN219360   6.582   0.375   2.599 -2.9784 -1.5174  0.2900
  172SAPE   HN319361   6.586   0.323   2.441  1.3598  1.0509 -0.5385
  172SAPE   C1219362   6.393   0.340   2.531 -0.8175 -0.0363 -0.5401
  172SAPE  H12A19363   6.363   0.292   2.436 -0.9175  2.3911 -1.8313
  172SAPE  H12B19364   6.338   0.437   2.538  0.7937  0.9558 -0.9696
  172SAPE   C1119365   6.384   0.265   2.666 -0.0262  0.9408  0.2976
  172SAPE  H11A19366   6.443   0.172   2.651 -0.5088  0.8882 -1.5678
  172SAPE  H11B19367   6.278   0.236   2.681 -0.1626  2.5974  3.1085
  172SAPE     P19368   6.381   0.333   2.923  0.2832  0.1039 -0.2930
  172SAPE   O1319369   6.487   0.395   3.012 -0.0475 -0.7413 -0.5050
  172SAPE   O1419370   6.243   0.392   2.926  0.1433 -0.5768 -0.1970
  172SAPE   O1219371   6.435   0.339   2.775  0.3368 -0.0636 -0.3160
  172SAPE   O1119372   6.373   0.180   2.951  0.5584 -0.5310 -0.5229
  172SAPE    C119373   6.492   0.097   2.950 -0.5154  0.5201  0.6601
  172SAPE    HA19374   6.459  -0.001   2.908 -1.4896 -0.0221  2.5239
  172SAPE    HB19375   6.570   0.126   2.878 -0.3668  0.0420  0.6242
  172SAPE    C219376   6.533   0.057   3.093  0.1377 -0.2941  0.3541
  172SAPE    HS19377   6.603   0.133   3.134 -0.5358  0.7451 -0.3583
  172SAPE   O2119378   6.589  -0.077   3.087 -0.1760  0.1457 -0.3192
  172SAPE   C2119379   6.718  -0.086   3.056  0.1421 -0.6402  0.0586
  172SAPE   O2219380   6.794   0.007   3.032 -0.1883 -0.4211 -0.0877
  172SAPE   C2219381   6.757  -0.233   3.044  1.2199  0.5561 -0.0137
  172SAPE   H2R19382   6.712  -0.262   2.947  1.0499  2.4465 -0.5390
  172SAPE   H2S19383   6.867  -0.247   3.034  1.3583  1.8799 -0.5112
  172SAPE    C319384   6.416   0.056   3.191  0.0402  0.1055 -0.1112
  172SAPE    HX19385   6.340  -0.015   3.151  1.4308 -1.6016  0.1408
  172SAPE    HY19386   6.368   0.156   3.204 -0.6207 -0.1391 -0.5978
  172SAPE   O3119387   6.458   0.005   3.321 -0.6522  0.5897 -0.5928
  172SAPE   C3119388   6.355  -0.035   3.404  0.5217  0.7871  0.0863
  172SAPE   O3219389   6.234  -0.017   3.375 -0.6723  0.0079  0.1196
  172SAPE   C3219390   6.403  -0.091   3.536 -0.1761  0.4254 -0.7942
  172SAPE   H2X19391   6.514  -0.096   3.542 -0.3001 -2.2736  2.5400
  172SAPE   H2Y19392   6.366  -0.195   3.549 -1.2198  0.9366  0.6856
  172SAPE   C2319393   6.702  -0.322   3.154 -0.5996  0.6097 -0.0995
  172SAPE   H3R19394   6.722  -0.428   3.129 -2.0054  0.2385  0.2592
  172SAPE   H3S19395   6.592  -0.320   3.166 -0.7424 -0.3939 -1.0997
  172SAPE   C2419396   6.769  -0.291   3.294  1.3140  0.4638 -0.0011
  172SAPE   H4R19397   6.715  -0.205   3.338 -3.0584 -0.7018 -2.4984
  172SAPE   H4S19398   6.876  -0.271   3.273  1.1068  1.9737  0.2821
  172SAPE   C2519399   6.755  -0.409   3.391 -0.6609  0.3252 -0.3161
  172SAPE   H5R19400   6.717  -0.498   3.340 -1.2725  0.0662  0.5604
  172SAPE   C2619401   6.769  -0.398   3.523 -0.4777 -0.4558  0.1279
  172SAPE   H6R19402   6.784  -0.490   3.580 -0.1933 -0.4356  0.0845
  172SAPE   C2719403   6.810  -0.273   3.599 -0.2291  0.0579 -0.3521
  172SAPE   H7R19404   6.726  -0.203   3.580  1.1273  1.5948 -0.8873
  172SAPE   H7S19405   6.884  -0.217   3.538 -1.6522  0.3812 -1.8696
  172SAPE   C2819406   6.843  -0.279   3.744 -0.1739  0.5944 -0.0772
  172SAPE   H8R19407   6.951  -0.279   3.766  0.1585  0.5590 -1.6330
  172SAPE   C2919408   6.752  -0.277   3.844  0.2646  0.1737 -0.2006
  172SAPE   H9R19409   6.791  -0.297   3.945 -1.7278  2.1345  1.0511
  172SAPE  C21019410   6.601  -0.290   3.837 -0.4940  0.0864 -0.2252
  172SAPE  H10R19411   6.572  -0.284   3.730 -1.6383  1.0929  0.1104
  172SAPE  H10S19412   6.564  -0.193   3.879  0.6153  0.1286  0.7054
  172SAPE  C21119413   6.542  -0.414   3.901 -0.2500 -0.0340  0.3042
  172SAPE  H11R19414   6.512  -0.493   3.830  0.9797 -0.3372  0.1010
  172SAPE  C21219415   6.495  -0.431   4.026 -0.3285  0.3731  0.4219
  172SAPE  H12R19416   6.482  -0.537   4.052  2.2455 -0.6639 -2.0181
  172SAPE  C21319417   6.506  -0.336   4.148  0.3971  0.0812  0.0504
  172SAPE  H13R19418   6.534  -0.237   4.105 -0.0121  0.4979  0.7206
  172SAPE  H13S19419   6.587  -0.380   4.210  0.0352  0.6040  0.9110
  172SAPE  C21419420   6.375  -0.338   4.227 -0.2316 -0.1334 -0.4053
  172SAPE  H14R19421   6.292  -0.280   4.183 -2.7194 -0.7244  3.0722
  172SAPE  C21519422   6.350  -0.385   4.350 -0.2386 -0.8936 -0.3372
  172SAPE  H15R19423   6.251  -0.370   4.394 -0.1351  0.7345 -0.5903
  172SAPE  C21619424   6.452  -0.452   4.438  0.7018  0.3853 -0.1972
  172SAPE  H16R19425   6.550  -0.473   4.390 -0.0472  0.3604 -1.7509
  172SAPE  H16S19426   6.413  -0.553   4.465 -1.1336  1.6238  2.1667
  172SAPE  C21719427   6.484  -0.370   4.561 -0.9835 -0.3254  0.4604
  172SAPE  H17R19428   6.540  -0.279   4.532  2.2490 -1.9824  1.0372
  172SAPE  H17S19429   6.566  -0.421   4.617  1.8485  0.3495 -2.7194
  172SAPE  C21819430   6.379  -0.348   4.664  0.6266  0.2548  0.0634
  172SAPE  H18R19431   6.346  -0.439   4.719  0.2423 -1.2576 -2.4984
  172SAPE  H18S19432   6.280  -0.318   4.622 -0.4631 -1.4157  1.3303
  172SAPE  C21919433   6.418  -0.242   4.772 -0.6961  0.6468  0.0569
  172SAPE  H19R19434   6.451  -0.154   4.713  1.0941  0.8370  1.2389
  172SAPE  H19S19435   6.511  -0.278   4.821  0.0763  0.1256 -1.7131
  172SAPE  C22019436   6.304  -0.208   4.862 -0.1411 -0.1110  0.2016
  172SAPE  H20R19437   6.222  -0.152   4.814  1.3650  0.9119 -1.2649
  172SAPE  H20S19438   6.332  -0.138   4.944 -0.6553  1.6865 -1.1047
  172SAPE  H20T19439   6.272  -0.304   4.910  1.1669 -0.4171  0.5037
  172SAPE   C3319440   6.356  -0.016   3.663 -0.4352 -0.2746 -0.0479
  172SAPE   H3X19441   6.372   0.092   3.645  1.3100 -0.6463 -0.8849
  172SAPE   H3Y19442   6.426  -0.050   3.742  0.9485  0.2650 -1.0045
  172SAPE   C3419443   6.216  -0.051   3.723 -0.6331  0.6429  0.7578
  172SAPE   H4X19444   6.195  -0.157   3.698 -0.6543  0.7201  0.4410
  172SAPE   H4Y19445   6.132   0.000   3.670 -0.6790 -0.3230 -0.1457
  172SAPE   C3519446   6.197  -0.016   3.870  0.0621  0.4721 -0.2072
  172SAPE   H5X19447   6.217   0.091   3.891  0.3922  0.1658  1.1043
  172SAPE   H5Y19448   6.272  -0.075   3.925  2.1998  2.6355 -0.6340
  172SAPE   C3619449   6.046  -0.037   3.922 -0.6834  0.4810 -0.0691
  172SAPE   H6X19450   6.022  -0.145   3.909 -1.6027  0.9854 -3.3306
  172SAPE   H6Y19451   5.988   0.021   3.848 -0.0022 -0.4516 -1.3719
  172SAPE   C3719452   6.012   0.007   4.071  0.4275 -0.1932  0.5341
  172SAPE   H7X19453   5.908  -0.019   4.098 -0.3362  2.0952  0.0084
  172SAPE   H7Y19454   6.012   0.117   4.062 -1.3368 -0.2146 -0.0527
  172SAPE   C3819455   6.106  -0.056   4.176 -1.1238 -0.6125  0.2721
  172SAPE   H8X19456   6.215  -0.050   4.153 -1.0320 -1.3137  0.4984
  172SAPE   H8Y19457   6.073  -0.162   4.183  1.0460 -1.4542 -1.2544
  172SAPE   C3919458   6.104   0.024   4.307  0.2742 -0.1787  0.0633
  172SAPE   H9X19459   5.998   0.032   4.340  0.4947 -1.0452  1.0155
  172SAPE   H9Y19460   6.135   0.129   4.288 -0.2549  0.3805  2.0634
  172SAPE  C31019461   6.186  -0.032   4.421 -0.1920 -0.4096  0.7451
  172SAPE  H10X19462   6.287  -0.050   4.379 -0.0915 -0.0143  0.8080
  172SAPE  H10Y19463   6.149  -0.134   4.444 -2.8777 -0.1278 -1.7032
  172SAPE  C31119464   6.189   0.071   4.537  0.1314  0.1176 -0.0102
  172SAPE  H11X19465   6.277   0.134   4.514  0.5399 -1.3958 -3.1437
  172SAPE  H11Y19466   6.225   0.013   4.626 -1.8121  1.7674  1.9464
  172SAPE  C31219467   6.067   0.158   4.559  0.0924 -0.3763 -0.1586
  172SAPE  H12X19468   5.978   0.092   4.574 -1.4875  1.1655 -2.1260
  172SAPE  H12Y19469   6.039   0.222   4.472 -0.9441  0.8805  1.0450
  172SAPE  C31319470   6.086   0.255   4.684  0.2702  0.7893  0.2757
  172SAPE  H13X19471   5.986   0.301   4.700 -0.4116 -0.9452  1.3506
  172SAPE  H13Y19472   6.165   0.331   4.667  0.9048  0.1587  0.3985
  172SAPE  C31419473   6.132   0.193   4.812 -0.0770 -0.2464  0.1402
  172SAPE  H14X19474   6.242   0.178   4.803 -0.1198  0.2660 -1.5526
  172SAPE  H14Y19475   6.087   0.092   4.802  0.1907 -0.1799 -2.4257
  172SAPE  C31519476   6.084   0.270   4.938 -0.3687 -0.5242  0.1473
  172SAPE  H15X19477   5.989   0.314   4.901  0.1045  0.7266  0.3653
  172SAPE  H15Y19478   6.148   0.360   4.953  1.0263 -1.3066 -0.8785
  172SAPE  C31619479   6.066   0.195   5.070  0.1373  0.0804 -0.0136
  172SAPE  H16X19480   6.160   0.151   5.109 -0.2761  0.2733  1.2412
  172SAPE  H16Y19481   5.982   0.122   5.062  0.3708 -0.9382  4.3729
  172SAPE  C31719482   6.022   0.292   5.183 -0.9756  0.5588  0.7841
  172SAPE  H17X19483   5.968   0.236   5.263 -1.0222  1.9371  1.7688
  172SAPE  H17Y19484   5.950   0.372   5.154  1.7904  3.2772  0.8017
  172SAPE  C31819485   6.147   0.359   5.243 -0.9303 -0.0060 -0.3709
  172SAPE  H18X19486   6.214   0.416   5.176 -0.0138  0.3832  0.8326
  172SAPE  H18Y19487   6.212   0.288   5.300 -1.7689 -0.4290  0.0795
  172SAPE  H18Z19488   6.114   0.423   5.328  0.2033  0.0572  0.0446
  173SLPC     N19489   5.019   2.306   7.625 -0.5571 -0.1203 -0.2873
  173SLPC   C1319490   4.972   2.254   7.756  0.0528  0.1792 -0.0772
  173SLPC  H13A19491   5.027   2.168   7.791 -1.6677 -0.6739  0.6448
  173SLPC  H13B19492   4.997   2.324   7.834  2.7405 -2.0659  1.2581
  173SLPC  H13C19493   4.868   2.227   7.767  0.2959 -0.1979  1.6286
  173SLPC   C1419494   4.961   2.440   7.594 -0.4526 -0.7743 -0.1765
  173SLPC  H14A19495   4.859   2.434   7.561 -0.5164 -2.7796  0.2685
  173SLPC  H14B19496   4.970   2.510   7.675 -0.3135  1.2511 -1.8663
  173SLPC  H14C19497   5.023   2.483   7.516  1.1167 -1.4020  0.6727
  173SLPC   C1519498   4.972   2.213   7.514  0.5317 -0.7582 -0.6177
  173SLPC  H15A19499   5.005   2.241   7.415 -1.4902 -0.7316 -1.3162
  173SLPC  H15B19500   5.003   2.111   7.537 -1.2273 -1.6610 -2.0663
  173SLPC  H15C19501   4.865   2.223   7.516  0.4518 -0.3176 -3.5250
  173SLPC   C1219502   5.169   2.322   7.624  0.1560  0.7731 -0.6816
  173SLPC  H12A19503   5.210   2.222   7.625 -0.5632  0.4274 -2.1945
  173SLPC  H12B19504   5.208   2.373   7.711  0.1593 -0.3313 -0.0174
  173SLPC   C1119505   5.229   2.376   7.498 -0.7661  0.0830 -0.1372
  173SLPC  H11A19506   5.193   2.319   7.410 -2.1481 -0.0011  0.4535
  173SLPC  H11B19507   5.337   2.359   7.515 -1.3210 -0.4753  3.8277
  173SLPC     P19508   5.315   2.623   7.445  0.0142 -0.1098 -0.0801
  173SLPC   O1319509   5.242   2.755   7.421 -0.6846  0.3348  0.4122
  173SLPC   O1419510   5.418   2.624   7.550  0.2121 -0.2784 -0.2566
  173SLPC   O1219511   5.201   2.511   7.485 -0.0351 -0.6542  0.1318
  173SLPC   O1119512   5.369   2.560   7.311 -0.0683 -0.1802 -0.2587
  173SLPC    C119513   5.315   2.602   7.184  0.1945  0.6806  0.1218
  173SLPC    HA19514   5.297   2.712   7.182  1.6889  0.9756  0.9528
  173SLPC    HB19515   5.388   2.578   7.103  1.9906  3.3077  0.8058
  173SLPC    C219516   5.177   2.538   7.149  0.4942 -0.4688 -0.4809
  173SLPC    HS19517   5.105   2.567   7.228 -1.5630  0.1731 -2.5094
  173SLPC   O2119518   5.198   2.397   7.137 -0.2629  0.2330  0.7526
  173SLPC   C2119519   5.085   2.321   7.151  0.6116  0.0733  0.3793
  173SLPC   O2219520   4.982   2.357   7.193  0.3397  0.4818  0.2762
  173SLPC   C2219521   5.111   2.184   7.103 -0.0396  0.2978  0.4964
  173SLPC   H2R19522   5.162   2.127   7.183 -1.6016 -2.3921 -0.2977
  173SLPC   H2S19523   5.023   2.119   7.084  1.7656 -1.6634 -1.8509
  173SLPC    C319524   5.122   2.594   7.024  0.1503  0.3312  0.5992
  173SLPC    HX19525   5.118   2.705   7.033  1.8961  0.7784 -2.5540
  173SLPC    HY19526   5.022   2.547   7.015  0.4047 -0.1360  0.1347
  173SLPC   O3119527   5.206   2.563   6.906 -0.0630 -0.3721  0.1976
  173SLPC   C3119528   5.147   2.515   6.799  0.2586 -0.1705  0.1480
  173SLPC   O3219529   5.032   2.477   6.793 -0.2462 -0.8229 -0.1704
  173SLPC   C3219530   5.248   2.511   6.680  0.3960 -0.4287 -0.3576
  173SLPC   H2X19531   5.345   2.479   6.724  0.7927 -0.6557 -1.3705
  173SLPC   H2Y19532   5.251   2.617   6.647 -0.6316 -1.1920 -3.2574
  173SLPC   C2319533   5.199   2.181   6.973 -0.1153 -0.6365 -0.1632
  173SLPC   H3R19534   5.307   2.201   6.990 -0.4267  0.4026  0.7705
  173SLPC   H3S19535   5.169   2.253   6.893  1.5611 -1.4287 -1.5526
  173SLPC   C2419536   5.183   2.046   6.910 -0.1443  0.0147  0.1554
  173SLPC   H4R19537   5.084   1.998   6.895 -0.5253  0.0544  2.2541
  173SLPC   H4S19538   5.221   1.982   6.992  0.8862 -1.3137 -1.2960
  173SLPC   C2519539   5.274   2.039   6.789 -0.0290 -0.2744 -0.2340
  173SLPC   H5R19540   5.370   2.080   6.825  0.2810 -1.6630  0.5464
  173SLPC   H5S19541   5.247   2.110   6.707 -2.2899 -2.3415 -1.4294
  173SLPC   C2619542   5.288   1.899   6.736 -0.0214  0.0875 -0.2252
  173SLPC   H6R19543   5.187   1.874   6.695 -0.6505  2.3319 -0.2043
  173SLPC   H6S19544   5.331   1.841   6.820  1.4507  0.4844 -0.6781
  173SLPC   C2719545   5.400   1.896   6.630 -0.4267  0.3340 -0.9561
  173SLPC   H7R19546   5.488   1.954   6.664 -1.2141 -0.1771  2.3361
  173SLPC   H7S19547   5.359   1.937   6.535 -1.1087  1.3687 -0.2400
  173SLPC   C2819548   5.469   1.755   6.595 -0.5446  0.3120  0.1309
  173SLPC   H8R19549   5.503   1.743   6.490  4.0004 -2.1164  1.6104
  173SLPC   H8S19550   5.387   1.681   6.604  0.4333 -0.7829  0.2183
  173SLPC   C2919551   5.583   1.714   6.684  0.1990 -0.4145 -0.4891
  173SLPC   H9R19552   5.556   1.638   6.759  2.8051  0.3776  1.3725
  173SLPC  C21019553   5.715   1.749   6.667  0.2202  0.4977 -0.8030
  173SLPC  H10R19554   5.793   1.692   6.719  1.1681  0.5106 -2.1561
  173SLPC  C21119555   5.784   1.836   6.568 -0.2709 -0.1505 -0.2436
  173SLPC  H11R19556   5.862   1.900   6.613 -1.1440  1.3986 -0.8690
  173SLPC  H11S19557   5.707   1.909   6.535 -0.4967 -0.9807 -1.6840
  173SLPC  C21219558   5.818   1.767   6.439 -0.8290  0.8256  0.2543
  173SLPC  H12R19559   5.753   1.680   6.421 -0.1502  0.4101 -0.2031
  173SLPC  C21319560   5.929   1.788   6.362 -0.1878 -0.8417  0.3022
  173SLPC  H13R19561   5.946   1.727   6.273  2.2843  0.9838 -0.5757
  173SLPC  C21419562   6.030   1.895   6.403 -0.3657  0.9194  0.6805
  173SLPC  H14R19563   6.102   1.837   6.464  1.5897  1.2000 -1.2434
  173SLPC  H14S19564   5.986   1.984   6.453  1.5840  3.9260 -2.5443
  173SLPC  C21519565   6.107   1.930   6.274 -0.0471 -0.2927  0.1682
  173SLPC  H15R19566   6.188   2.002   6.298  1.3212 -0.8598 -2.3281
  173SLPC  H15S19567   6.035   1.982   6.208 -2.2356 -0.9264  1.9425
  173SLPC  C21619568   6.180   1.818   6.200 -0.4024  0.5672  1.1297
  173SLPC  H16R19569   6.118   1.750   6.138 -0.6164  1.1849  0.6489
  173SLPC  H16S19570   6.233   1.753   6.272  0.7845  0.8993  0.5779
  173SLPC  C21719571   6.282   1.885   6.103 -0.5042  0.4668  0.3967
  173SLPC  H17R19572   6.345   1.954   6.164 -1.4047  0.6893  1.0890
  173SLPC  H17S19573   6.232   1.927   6.014  0.8279  3.1460  0.7966
  173SLPC  C21819574   6.391   1.794   6.045  0.2740 -0.1739 -0.6522
  173SLPC  H18R19575   6.470   1.845   5.984  0.4557  0.5020  0.1298
  173SLPC  H18S19576   6.345   1.709   5.991  0.0584 -0.5564  0.1214
  173SLPC  H18T19577   6.446   1.748   6.130  0.9848  1.5873 -0.0991
  173SLPC   C3319578   5.200   2.428   6.556 -0.4129 -0.6688  0.5956
  173SLPC   H3X19579   5.105   2.472   6.520 -1.0512 -0.3602  2.5175
  173SLPC   H3Y19580   5.181   2.327   6.598 -1.1378 -0.2699  1.2522
  173SLPC   C3419581   5.304   2.404   6.449 -0.5127  0.5198 -0.7482
  173SLPC   H4X19582   5.392   2.355   6.496  0.5805  1.9102 -1.2787
  173SLPC   H4Y19583   5.337   2.501   6.407 -1.1508  0.6126 -1.0570
  173SLPC   C3519584   5.257   2.313   6.336  0.5292  0.4779 -0.3804
  173SLPC   H5X19585   5.237   2.210   6.373  1.8921  0.7821  1.3501
  173SLPC   H5Y19586   5.342   2.287   6.269 -0.9084  0.6729 -2.3917
  173SLPC   C3619587   5.148   2.379   6.246 -1.0510  0.4800 -1.2096
  173SLPC   H6X19588   5.047   2.379   6.290 -1.8059  1.9769 -2.8220
  173SLPC   H6Y19589   5.143   2.314   6.156 -2.4699 -0.0346 -0.7877
  173SLPC   C3719590   5.189   2.514   6.204  0.0442 -0.0889  0.1434
  173SLPC   H7X19591   5.298   2.498   6.186  0.3647 -2.0087  3.0479
  173SLPC   H7Y19592   5.176   2.595   6.279  0.0738 -0.2164  0.2862
  173SLPC   C3819593   5.129   2.557   6.076  0.7453 -0.2889 -0.0941
  173SLPC   H8X19594   5.022   2.573   6.099  0.2396 -2.8787 -0.3670
  173SLPC   H8Y19595   5.124   2.471   6.005  1.4109  0.3417 -0.9440
  173SLPC   C3919596   5.202   2.678   6.022  0.0418 -0.1097  0.0063
  173SLPC   H9X19597   5.304   2.648   5.989  0.8396  0.9013  1.4460
  173SLPC   H9Y19598   5.205   2.768   6.087  0.9249 -0.0820 -0.0635
  173SLPC  C31019599   5.132   2.733   5.898 -0.6406 -0.1575  0.4173
  173SLPC  H10X19600   5.025   2.757   5.914 -1.4954 -0.6963 -3.5296
  173SLPC  H10Y19601   5.137   2.655   5.819 -0.0406  0.2950  0.0075
  173SLPC  C31119602   5.194   2.856   5.847 -0.1048 -0.4479  0.3101
  173SLPC  H11X19603   5.295   2.846   5.801 -0.9849  0.8362 -2.0624
  173SLPC  H11Y19604   5.217   2.931   5.926 -0.9399  0.1805 -0.0289
  173SLPC  C31219605   5.105   2.914   5.735  0.5029  0.0128  0.2124
  173SLPC  H12X19606   5.004   2.929   5.778  0.0154  1.1208 -1.2208
  173SLPC  H12Y19607   5.108   2.831   5.661 -1.1937  0.4655 -0.4046
  173SLPC  C31319608   5.158   3.042   5.671  1.0808 -0.9905 -0.3157
  173SLPC  H13X19609   5.254   3.033   5.615  0.9489  1.3753 -1.0227
  173SLPC  H13Y19610   5.172   3.112   5.756  2.6430 -1.4083 -0.1918
  173SLPC  C31419611   5.056   3.115   5.573  0.1086  0.1232 -0.0339
  173SLPC  H14X19612   4.955   3.081   5.604  0.8288  0.4776  2.9604
  173SLPC  H14Y19613   5.088   3.067   5.478  0.3631  0.3073 -0.0421
  173SLPC  C31519614   5.061   3.266   5.568  0.7556  0.5128  0.5967
  173SLPC  H15X19615   5.063   3.303   5.673  2.8706 -0.0281  0.7914
  173SLPC  H15Y19616   4.964   3.301   5.526  0.5477 -0.4853  0.2251
  173SLPC  C31619617   5.178   3.321   5.490 -0.5917 -0.4344  0.6761
  173SLPC  H16X19618   5.196   3.260   5.399  0.2353 -0.1033  0.6166
  173SLPC  H16Y19619   5.258   3.297   5.564  0.5911  3.6543  0.9921
  173SLPC  C31719620   5.159   3.464   5.465 -0.1099  0.3783 -0.1008
  173SLPC  H17X19621   5.146   3.522   5.559 -1.4817 -0.0725  0.0157
  173SLPC  H17Y19622   5.061   3.467   5.412 -1.9395 -2.5452  2.7127
  173SLPC  C31819623   5.270   3.532   5.384  0.4985  0.0868  0.6936
  173SLPC  H18X19624   5.362   3.537   5.447  0.7460  1.5428  0.2498
  173SLPC  H18Y19625   5.234   3.632   5.354 -0.3490  0.1000  1.6766
  173SLPC  H18Z19626   5.296   3.476   5.291  1.9189 -0.3439  1.3130
  174SLPC     N19627   2.271   4.197   7.591  0.0009  0.1998 -0.2243
  174SLPC   C1319628   2.335   4.326   7.572 -0.7279  0.0904  0.7474
  174SLPC  H13A19629   2.270   4.404   7.610 -1.8983 -1.4622  2.0593
  174SLPC  H13B19630   2.432   4.351   7.613 -1.1087  1.3385  0.9260
  174SLPC  H13C19631   2.359   4.346   7.469  1.3167  0.0432  1.1779
  174SLPC   C1419632   2.218   4.178   7.728  0.9219  0.1689  0.8017
  174SLPC  H14A19633   2.145   4.098   7.739  3.6269 -2.6593 -0.3759
  174SLPC  H14B19634   2.308   4.156   7.783  0.7869 -2.6362  0.0662
  174SLPC  H14C19635   2.174   4.273   7.755  0.2200 -0.5119  2.2389
  174SLPC   C1519636   2.371   4.084   7.564 -0.4704  0.5763  0.1432
  174SLPC  H15A19637   2.435   4.079   7.651 -0.5233  2.8682  0.3747
  174SLPC  H15B19638   2.318   3.992   7.544  2.1247 -1.4135  1.6069
  174SLPC  H15C19639   2.435   4.120   7.485  1.3130 -0.1037  1.2236
  174SLPC   C1219640   2.156   4.199   7.487 -0.0317 -0.3140 -0.2792
  174SLPC  H12A19641   2.192   4.225   7.388  1.4184  1.6506  0.6987
  174SLPC  H12B19642   2.099   4.287   7.510  0.0632  0.7904 -3.6344
  174SLPC   C1119643   2.057   4.076   7.472 -0.6407 -0.9038 -1.0753
  174SLPC  H11A19644   1.971   4.099   7.405 -0.7840 -0.0609 -0.6166
  174SLPC  H11B19645   2.011   4.067   7.573 -2.5401 -0.5822 -1.8702
  174SLPC     P19646   2.190   3.949   7.273 -0.5379 -0.0900  0.0811
  174SLPC   O1319647   2.231   4.082   7.227 -0.1961  0.1344 -0.2953
  174SLPC   O1419648   2.291   3.841   7.267  0.3867  0.2058  0.3922
  174SLPC   O1219649   2.122   3.954   7.415  0.2051 -0.5840  0.3969
  174SLPC   O1119650   2.078   3.905   7.178  0.1696 -0.4815 -0.2499
  174SLPC    C119651   1.948   3.867   7.205  0.8377 -0.3842  0.6680
  174SLPC    HA19652   1.940   3.829   7.309  1.1568  2.7618  1.9503
  174SLPC    HB19653   1.879   3.954   7.207 -1.3415 -2.0183  0.4428
  174SLPC    C219654   1.903   3.751   7.106 -0.2806  0.0257  0.5283
  174SLPC    HS19655   1.991   3.684   7.117 -0.6761 -0.3826  1.2662
  174SLPC   O2119656   1.874   3.816   6.975  0.2847 -0.0108 -0.7708
  174SLPC   C2119657   1.968   3.794   6.889 -0.1663 -0.9911  0.5452
  174SLPC   O2219658   2.083   3.751   6.910  0.1270  0.3131 -0.0628
  174SLPC   C2219659   1.917   3.840   6.754  0.8556 -0.1399 -0.3595
  174SLPC   H2R19660   1.810   3.811   6.743  0.1751  2.2538 -0.4869
  174SLPC   H2S19661   1.912   3.950   6.743  1.9841 -0.2659 -2.9479
  174SLPC    C319662   1.777   3.669   7.160 -0.1140 -0.9145 -0.5882
  174SLPC    HX19663   1.689   3.734   7.183 -0.9703 -2.1350 -0.2999
  174SLPC    HY19664   1.797   3.628   7.262 -2.0506  1.3670  0.8228
  174SLPC   O3119665   1.736   3.565   7.075 -0.6061 -0.3295 -0.0421
  174SLPC   C3119666   1.704   3.446   7.122 -0.3036 -0.0805  0.6410
  174SLPC   O3219667   1.702   3.416   7.241  0.3563 -0.6667  0.0144
  174SLPC   C3219668   1.677   3.352   7.006 -0.3980 -0.3029  0.3378
  174SLPC   H2X19669   1.571   3.366   6.976 -0.0019  3.1071  0.1526
  174SLPC   H2Y19670   1.690   3.249   7.045  0.4007 -0.1907  0.3910
  174SLPC   C2319671   1.999   3.777   6.639  0.4913  0.6435  0.4525
  174SLPC   H3R19672   1.972   3.669   6.641  0.7071  0.5922  1.7901
  174SLPC   H3S19673   2.110   3.784   6.642  0.8725 -2.5978 -1.4404
  174SLPC   C2419674   1.944   3.827   6.504  0.0945  0.0390 -0.3184
  174SLPC   H4R19675   1.956   3.937   6.502  0.4812  0.0250  0.5761
  174SLPC   H4S19676   1.835   3.803   6.505  0.0398  0.2974  0.5664
  174SLPC   C2519677   2.003   3.751   6.385 -0.1234  0.2439 -0.2167
  174SLPC   H5R19678   2.000   3.640   6.396 -1.1373  0.3974  1.3311
  174SLPC   H5S19679   2.111   3.778   6.375 -0.1967 -0.1565 -3.1043
  174SLPC   C2619680   1.936   3.805   6.255 -0.0496 -0.5182  0.9100
  174SLPC   H6R19681   1.926   3.915   6.263  1.9702  0.0013 -1.9520
  174SLPC   H6S19682   1.839   3.753   6.241  0.8097 -2.0481  0.3414
  174SLPC   C2719683   2.011   3.780   6.121 -1.0591  0.0245  0.8378
  174SLPC   H7R19684   2.037   3.672   6.118  2.0863  0.7025  0.7044
  174SLPC   H7S19685   2.111   3.824   6.138  0.9214 -3.3185 -0.9837
  174SLPC   C2819686   1.940   3.825   5.996  0.2746 -0.2236 -0.1384
  174SLPC   H8R19687   2.026   3.853   5.932  1.3800  0.9682  1.7500
  174SLPC   H8S19688   1.896   3.923   6.026  1.6388 -0.0880  1.6419
  174SLPC   C2919689   1.845   3.722   5.937 -0.2263 -0.2587  0.2492
  174SLPC   H9R19690   1.766   3.686   6.004  0.6808 -0.9641  0.9616
  174SLPC  C21019691   1.864   3.645   5.832 -0.5029  0.2603  0.3431
  174SLPC  H10R19692   1.781   3.581   5.801 -1.5059  1.2213  0.9687
  174SLPC  C21119693   1.977   3.655   5.730 -0.3671  1.2517 -0.1944
  174SLPC  H11R19694   2.043   3.741   5.756 -1.1125  1.0723  2.5405
  174SLPC  H11S19695   1.936   3.684   5.630 -0.7691  0.5031 -0.2580
  174SLPC  C21219696   2.064   3.529   5.715  0.4518 -0.6089  0.0102
  174SLPC  H12R19697   2.142   3.532   5.793 -0.7754  1.7942  1.2578
  174SLPC  C21319698   2.065   3.439   5.617  0.4171  0.2710 -0.5830
  174SLPC  H13R19699   2.147   3.366   5.618 -0.1128 -0.4003 -2.4339
  174SLPC  C21419700   1.965   3.419   5.508  0.0559 -0.0229 -0.1163
  174SLPC  H14R19701   2.004   3.472   5.419  3.4656 -3.5890 -1.0083
  174SLPC  H14S19702   1.864   3.459   5.533 -1.1126 -2.0414 -1.3459
  174SLPC  C21519703   1.943   3.267   5.459  0.2884  0.0740  0.0327
  174SLPC  H15R19704   1.926   3.208   5.551  0.7135  0.2787  0.2499
  174SLPC  H15S19705   2.042   3.239   5.418 -0.1578  0.1059 -1.0837
  174SLPC  C21619706   1.828   3.241   5.362 -0.0336  1.0395  0.7036
  174SLPC  H16R19707   1.844   3.141   5.317 -0.5502  1.2649 -0.0120
  174SLPC  H16S19708   1.833   3.299   5.267  0.4512  3.2027  1.9784
  174SLPC  C21719709   1.691   3.249   5.430  0.0129  0.7487  0.7148
  174SLPC  H17R19710   1.684   3.344   5.488  2.3206  3.3780 -2.9260
  174SLPC  H17S19711   1.668   3.175   5.509  0.9727 -0.9641 -0.5533
  174SLPC  C21819712   1.579   3.254   5.330  0.6718  0.0538  0.1319
  174SLPC  H18R19713   1.598   3.314   5.238  2.1542 -1.5367 -0.6484
  174SLPC  H18S19714   1.487   3.280   5.388  1.0335  0.8789  0.3579
  174SLPC  H18T19715   1.547   3.158   5.286 -1.0269  1.1812 -1.2064
  174SLPC   C3319716   1.774   3.355   6.887 -0.5284 -0.2403  0.5981
  174SLPC   H3X19717   1.875   3.335   6.928  0.3804  1.9395 -0.4241
  174SLPC   H3Y19718   1.786   3.460   6.852 -0.0695 -1.0079 -1.7233
  174SLPC   C3419719   1.735   3.274   6.763  0.6395  0.8582 -0.5137
  174SLPC   H4X19720   1.636   3.313   6.732  0.6206  0.1258 -1.4097
  174SLPC   H4Y19721   1.723   3.167   6.791  2.5552  0.8137  0.3119
  174SLPC   C3519722   1.823   3.293   6.636 -0.8094 -0.0618  0.1028
  174SLPC   H5X19723   1.929   3.272   6.663 -0.6987  0.2000 -0.1244
  174SLPC   H5Y19724   1.832   3.401   6.611 -0.4503 -0.5061 -1.8037
  174SLPC   C3619725   1.778   3.214   6.516 -0.2821 -0.7740 -0.0487
  174SLPC   H6X19726   1.673   3.247   6.497  0.6789  1.7442 -1.4723
  174SLPC   H6Y19727   1.782   3.104   6.533  0.0924 -0.9740 -1.2925
  174SLPC   C3719728   1.863   3.243   6.388  0.4667 -0.0216  0.1766
  174SLPC   H7X19729   1.968   3.213   6.409  0.2761  0.1112  1.3841
  174SLPC   H7Y19730   1.849   3.349   6.358 -0.3658 -0.7226 -2.1284
  174SLPC   C3819731   1.820   3.155   6.263 -0.3719 -0.8148 -0.8937
  174SLPC   H8X19732   1.710   3.149   6.249 -0.2512 -1.1286 -1.7769
  174SLPC   H8Y19733   1.848   3.050   6.286  0.1036 -0.7803 -1.2903
  174SLPC   C3919734   1.872   3.206   6.124  0.5767 -0.2105 -0.3673
  174SLPC   H9X19735   1.909   3.308   6.148 -1.2515  0.0197  1.7514
  174SLPC   H9Y19736   1.793   3.241   6.055 -1.2777 -1.5869  0.9515
  174SLPC  C31019737   1.973   3.117   6.056 -0.0937 -0.0580 -0.2931
  174SLPC  H10X19738   1.930   3.016   6.041  2.1478 -1.4637  1.8309
  174SLPC  H10Y19739   2.048   3.102   6.137 -0.6925 -0.1573  0.2468
  174SLPC  C31119740   2.029   3.183   5.924 -0.3795 -0.8749 -0.5203
  174SLPC  H11X19741   2.069   3.285   5.939 -1.2776 -0.3748 -1.4281
  174SLPC  H11Y19742   1.946   3.198   5.852 -1.2081 -2.2335  0.0977
  174SLPC  C31219743   2.107   3.098   5.832  0.1493  0.0174  0.4724
  174SLPC  H12X19744   2.125   3.149   5.735 -0.5988  0.3485  0.5020
  174SLPC  H12Y19745   2.056   3.003   5.804 -2.0767  0.6174  2.2316
  174SLPC  C31319746   2.250   3.073   5.880  0.4907  0.5256  0.2368
  174SLPC  H13X19747   2.239   3.045   5.987  1.4381  1.2599  0.5454
  174SLPC  H13Y19748   2.307   3.168   5.870  0.4650  0.4848 -0.3486
  174SLPC  C31419749   2.320   2.953   5.808 -0.3989 -0.1355 -0.0451
  174SLPC  H14X19750   2.272   2.856   5.832  0.0567 -0.3942 -0.1868
  174SLPC  H14Y19751   2.422   2.954   5.851  0.2891 -0.0801 -1.6373
  174SLPC  C31519752   2.325   2.954   5.654 -0.0747  0.1593 -0.4034
  174SLPC  H15X19753   2.362   3.053   5.619  1.2541 -0.2008 -0.0799
  174SLPC  H15Y19754   2.225   2.937   5.611 -0.6049 -0.4407  0.9987
  174SLPC  C31619755   2.415   2.835   5.612  0.9671 -0.4503  0.4331
  174SLPC  H16X19756   2.363   2.740   5.636  0.3113 -0.6607 -1.5755
  174SLPC  H16Y19757   2.504   2.831   5.679  1.4863 -0.6563 -0.2458
  174SLPC  C31719758   2.458   2.820   5.467  0.8407 -0.2819  0.2697
  174SLPC  H17X19759   2.528   2.904   5.448  0.4782  0.1848  0.9531
  174SLPC  H17Y19760   2.367   2.835   5.405 -0.1578 -1.1709  1.4416
  174SLPC  C31819761   2.515   2.682   5.433  0.0468 -0.4069 -0.1670
  174SLPC  H18X19762   2.617   2.654   5.469 -0.3543 -1.2235  0.3860
  174SLPC  H18Y19763   2.512   2.665   5.324  0.3880  0.3823 -0.3049
  174SLPC  H18Z19764   2.444   2.611   5.482  0.5726 -0.4248  0.5868
  175SLPC     N19765   6.566   4.435   7.616 -0.0609  0.0728  0.0035
  175SLPC   C1319766   6.509   4.571   7.621 -0.1753  0.6902 -0.0510
  175SLPC  H13A19767   6.444   4.596   7.539  1.9639  0.6892 -1.8519
  175SLPC  H13B19768   6.447   4.586   7.709  0.5122  0.6608  0.4494
  175SLPC  H13C19769   6.592   4.640   7.625 -0.0761  0.5723  3.3075
  175SLPC   C1419770   6.610   4.408   7.477  0.4786 -0.6427 -0.3661
  175SLPC  H14A19771   6.624   4.302   7.458  2.7864 -0.4562 -0.0072
  175SLPC  H14B19772   6.535   4.435   7.404 -0.8816 -3.6258 -0.2336
  175SLPC  H14C19773   6.705   4.457   7.462  0.2721  0.4298  1.5427
  175SLPC   C1519774   6.457   4.334   7.647  0.0396  0.6765 -0.1698
  175SLPC  H15A19775   6.427   4.342   7.750 -0.1321  0.1343 -0.1772
  175SLPC  H15B19776   6.367   4.349   7.590  0.6978 -1.1541 -1.8139
  175SLPC  H15C19777   6.489   4.237   7.613 -0.0866  1.3274 -2.3093
  175SLPC   C1219778   6.682   4.435   7.709 -0.2331  0.1506 -0.1145
  175SLPC  H12A19779   6.722   4.335   7.706 -1.6294 -0.5109  1.6913
  175SLPC  H12B19780   6.646   4.445   7.810 -0.7425  1.0227 -0.3666
  175SLPC   C1119781   6.808   4.522   7.676  0.2522 -0.7073 -0.5730
  175SLPC  H11A19782   6.840   4.474   7.581  0.4619  0.1839 -0.9633
  175SLPC  H11B19783   6.895   4.519   7.745  2.3792  0.8826 -3.0210
  175SLPC     P19784   6.788   4.785   7.740  0.1805  0.3385  0.0218
  175SLPC   O1319785   6.661   4.859   7.746  0.1527 -0.3098 -0.7520
  175SLPC   O1419786   6.839   4.741   7.871  0.5173  0.5916  0.5125
  175SLPC   O1219787   6.772   4.660   7.650  0.2059  0.5206  0.0228
  175SLPC   O1119788   6.891   4.884   7.672 -0.1908  0.0172  0.2537
  175SLPC    C119789   6.981   4.841   7.571  0.0698  1.2810  0.0965
  175SLPC    HA19790   7.082   4.884   7.588  0.8449 -0.4579  0.1435
  175SLPC    HB19791   6.996   4.731   7.570  1.8090  1.4348  2.0120
  175SLPC    C219792   6.930   4.887   7.433  0.0199  0.1025  0.0702
  175SLPC    HS19793   6.902   4.993   7.447  0.3001  0.1197  0.5419
  175SLPC   O2119794   6.820   4.798   7.394 -0.6415  0.2576 -0.5008
  175SLPC   C2119795   6.723   4.850   7.316 -0.1660 -1.0147 -0.3536
  175SLPC   O2219796   6.716   4.968   7.286  0.3073  0.8409  0.7105
  175SLPC   C2219797   6.634   4.745   7.263 -0.1917 -0.4213 -0.6422
  175SLPC   H2R19798   6.681   4.646   7.242 -0.5475 -0.6554 -0.3546
  175SLPC   H2S19799   6.552   4.728   7.335  0.0588  0.5438 -0.1182
  175SLPC    C319800   7.043   4.869   7.321 -0.1045  0.1785  0.5959
  175SLPC    HX19801   7.066   4.761   7.310 -0.3506  0.4073 -3.5129
  175SLPC    HY19802   7.133   4.927   7.352 -0.7885  2.2560 -1.1356
  175SLPC   O3119803   7.006   4.908   7.187 -0.3302  0.2823 -0.0330
  175SLPC   C3119804   7.042   5.031   7.149  0.3713 -0.1351  0.2787
  175SLPC   O3219805   7.110   5.111   7.212 -0.5596  0.2648  0.1413
  175SLPC   C3219806   6.977   5.085   7.027 -0.2164  0.1770  0.3490
  175SLPC   H2X19807   7.052   5.153   6.981 -0.9201 -0.3367 -1.6830
  175SLPC   H2Y19808   6.876   5.124   7.052  0.3763  1.8157  0.2773
  175SLPC   C2319809   6.557   4.794   7.135 -0.1930 -0.8790 -0.1537
  175SLPC   H3R19810   6.514   4.896   7.141 -1.3453 -1.3925  0.4937
  175SLPC   H3S19811   6.465   4.735   7.117  0.3605 -1.8544  0.1549
  175SLPC   C2419812   6.621   4.768   6.997 -0.3485  0.3955  0.0548
  175SLPC   H4R19813   6.668   4.667   6.994 -1.3233 -0.1196  1.0767
  175SLPC   H4S19814   6.687   4.855   6.981 -0.8148  0.8298  0.4613
  175SLPC   C2519815   6.517   4.755   6.887 -0.0720 -0.1914  0.2185
  175SLPC   H5R19816   6.450   4.842   6.875 -2.2259 -1.9570 -1.5967
  175SLPC   H5S19817   6.452   4.665   6.902  1.9340 -1.9871 -1.2530
  175SLPC   C2619818   6.581   4.727   6.751  0.3754  0.0185  0.0633
  175SLPC   H6R19819   6.637   4.631   6.746  1.7987  0.8476 -0.4837
  175SLPC   H6S19820   6.662   4.801   6.738  2.5650 -2.0808  0.9521
  175SLPC   C2719821   6.472   4.726   6.644 -0.3901 -0.1666 -0.3163
  175SLPC   H7R19822   6.442   4.829   6.613  0.3412 -1.0820 -4.6943
  175SLPC   H7S19823   6.392   4.659   6.681  1.2250 -0.8533  2.1799
  175SLPC   C2819824   6.512   4.682   6.501 -0.0853  0.1357 -0.2204
  175SLPC   H8R19825   6.581   4.598   6.519  0.4446  0.4094 -0.9145
  175SLPC   H8S19826   6.576   4.755   6.447 -0.4928 -1.6552 -3.4005
  175SLPC   C2919827   6.400   4.643   6.415  0.2803  0.5846  0.4852
  175SLPC   H9R19828   6.367   4.720   6.344 -0.6053 -1.3384 -1.3093
  175SLPC  C21019829   6.313   4.540   6.422 -0.0805  0.3665 -0.5009
  175SLPC  H10R19830   6.234   4.531   6.347 -1.4182 -1.9657  1.0346
  175SLPC  C21119831   6.335   4.422   6.511  0.6203 -0.1808  0.0030
  175SLPC  H11R19832   6.438   4.432   6.553  0.8073  0.8103 -0.6515
  175SLPC  H11S19833   6.342   4.328   6.452  0.8506 -0.6673  0.7848
  175SLPC  C21219834   6.219   4.427   6.605  0.1101  0.3049 -0.6180
  175SLPC  H12R19835   6.123   4.442   6.554  0.5400 -0.2589 -1.6299
  175SLPC  C21319836   6.215   4.415   6.744  0.3169 -1.0216  0.2911
  175SLPC  H13R19837   6.114   4.409   6.788 -0.1523  0.8380 -0.4400
  175SLPC  C21419838   6.331   4.387   6.836 -0.4346 -0.1477  0.4908
  175SLPC  H14R19839   6.417   4.440   6.790 -1.2859 -0.6982 -1.8952
  175SLPC  H14S19840   6.360   4.281   6.825 -0.5690 -0.0167 -1.5297
  175SLPC  C21519841   6.317   4.423   6.985 -0.0319 -0.1990  0.0169
  175SLPC  H15R19842   6.240   4.350   7.017 -1.3180  1.2994  0.5075
  175SLPC  H15S19843   6.273   4.525   6.995  1.1902  0.6360 -2.2607
  175SLPC  C21619844   6.446   4.395   7.071 -0.0342 -0.0663  0.1869
  175SLPC  H16R19845   6.438   4.443   7.171  1.8396  2.8337 -0.9292
  175SLPC  H16S19846   6.533   4.438   7.016 -1.4218  2.0628 -0.4431
  175SLPC  C21719847   6.483   4.253   7.097 -0.1753 -0.3177  0.5139
  175SLPC  H17R19848   6.589   4.256   7.131 -0.3972  0.3115  1.1705
  175SLPC  H17S19849   6.467   4.190   7.007  0.5249 -2.4310  1.8045
  175SLPC  C21819850   6.402   4.184   7.210 -0.0747  0.5692  0.0756
  175SLPC  H18R19851   6.297   4.219   7.216 -0.7314 -1.3797  1.0277
  175SLPC  H18S19852   6.443   4.204   7.312 -1.5680 -2.3260  1.3585
  175SLPC  H18T19853   6.402   4.075   7.190 -0.4912  0.4924  0.4906
  175SLPC   C3319854   6.961   4.970   6.914  0.2395 -0.0285 -0.1613
  175SLPC   H3X19855   6.871   4.907   6.926 -0.9995  1.6380 -0.3448
  175SLPC   H3Y19856   7.051   4.904   6.911  0.9530  0.8894  0.3802
  175SLPC   C3419857   6.944   5.039   6.785  0.1865  0.1328  0.5032
  175SLPC   H4X19858   7.020   5.116   6.759  0.6625 -0.4219  0.2305
  175SLPC   H4Y19859   6.854   5.104   6.780  1.3088  1.6927 -0.7235
  175SLPC   C3519860   6.934   4.931   6.672  0.2348  0.3675 -0.5071
  175SLPC   H5X19861   6.874   4.844   6.707  1.5260  0.1916  1.4071
  175SLPC   H5Y19862   7.038   4.897   6.656  1.4105  2.5677  1.7280
  175SLPC   C3619863   6.878   4.986   6.538  0.2448  0.5940 -0.3347
  175SLPC   H6X19864   6.934   5.079   6.514  1.8207 -0.0322  0.7969
  175SLPC   H6Y19865   6.774   5.020   6.557  0.7325  2.5403 -0.8229
  175SLPC   C3719866   6.874   4.893   6.425  0.8784  0.3901 -0.0503
  175SLPC   H7X19867   6.807   4.811   6.459  2.5392 -0.7891  0.4983
  175SLPC   H7Y19868   6.969   4.841   6.399  1.1707  1.4550 -1.1902
  175SLPC   C3819869   6.806   4.949   6.292  0.2980 -0.0115  0.3880
  175SLPC   H8X19870   6.887   5.013   6.250  0.2827 -0.7095 -0.7566
  175SLPC   H8Y19871   6.724   5.012   6.332  0.6860 -0.2690  1.6571
  175SLPC   C3919872   6.761   4.850   6.186  0.1936 -0.3026 -0.3536
  175SLPC   H9X19873   6.664   4.800   6.209  0.7670 -2.4154 -2.1570
  175SLPC   H9Y19874   6.842   4.774   6.180  0.1541 -0.4872  1.0809
  175SLPC  C31019875   6.724   4.920   6.054 -0.2984  0.0079  0.4784
  175SLPC  H10X19876   6.806   4.987   6.021 -0.2466 -0.3702 -0.1999
  175SLPC  H10Y19877   6.635   4.982   6.079 -0.5087 -0.6635  1.4498
  175SLPC  C31119878   6.686   4.807   5.954 -0.1166 -0.3579  0.2367
  175SLPC  H11X19879   6.587   4.761   5.977  0.2835 -1.6030 -0.4251
  175SLPC  H11Y19880   6.763   4.727   5.953 -0.0724 -0.3160 -0.6297
  175SLPC  C31219881   6.695   4.865   5.809 -0.3480  0.9475 -0.4499
  175SLPC  H12X19882   6.788   4.824   5.763 -1.3295 -0.5815 -1.1622
  175SLPC  H12Y19883   6.729   4.971   5.814  2.0497  0.1933  2.5044
  175SLPC  C31319884   6.578   4.825   5.719  0.1677  0.1669  0.5006
  175SLPC  H13X19885   6.484   4.861   5.767 -0.3159 -0.4795  0.0589
  175SLPC  H13Y19886   6.554   4.717   5.709 -2.8437  0.8823 -1.6817
  175SLPC  C31419887   6.577   4.865   5.561 -0.0040  0.2165  0.2828
  175SLPC  H14X19888   6.562   4.975   5.561 -0.6988  0.1270  0.9589
  175SLPC  H14Y19889   6.501   4.802   5.511  0.5131 -2.0374  2.1431
  175SLPC  C31519890   6.710   4.834   5.484  0.1860 -0.5563  1.1084
  175SLPC  H15X19891   6.728   4.724   5.487  0.9240 -0.6259 -2.0878
  175SLPC  H15Y19892   6.797   4.884   5.531  0.7708 -0.3332 -0.1713
  175SLPC  C31619893   6.692   4.878   5.335  0.9325  0.4641 -0.2846
  175SLPC  H16X19894   6.652   4.981   5.324  1.6463  1.3288  3.5721
  175SLPC  H16Y19895   6.618   4.811   5.286  0.5531  0.6472  0.0260
  175SLPC  C31719896   6.817   4.868   5.252  0.2254 -1.2878  0.1797
  175SLPC  H17X19897   6.861   4.769   5.228  1.9686 -0.4692 -0.1902
  175SLPC  H17Y19898   6.899   4.920   5.307 -0.5766  2.2115 -1.6407
  175SLPC  C31819899   6.801   4.945   5.121  1.0316 -0.6512  0.0527
  175SLPC  H18X19900   6.801   5.052   5.150  0.9379 -0.3405 -1.0242
  175SLPC  H18Y19901   6.707   4.911   5.071 -0.0605  2.6727 -0.4237
  175SLPC  H18Z19902   6.887   4.929   5.052 -0.4719  0.5159 -2.2320
  176SLPC     N19903   4.209   2.568   7.503  0.4746  0.2811 -0.5962
  176SLPC   C1319904   4.097   2.507   7.424  0.2577  0.5570  0.6122
  176SLPC  H13A19905   4.015   2.470   7.484 -0.8706  0.8920 -0.6760
  176SLPC  H13B19906   4.059   2.577   7.352 -2.3968 -0.5426  0.8519
  176SLPC  H13C19907   4.134   2.429   7.359  0.0567  0.0199  1.1335
  176SLPC   C1419908   4.281   2.457   7.582 -0.1388 -0.4725 -0.2887
  176SLPC  H14A19909   4.357   2.512   7.635 -2.5292  0.1249  2.8640
  176SLPC  H14B19910   4.215   2.430   7.663 -0.5075  0.5557 -0.2284
  176SLPC  H14C19911   4.319   2.375   7.523  1.2516 -0.4566  0.5617
  176SLPC   C1519912   4.151   2.673   7.598 -0.8310  0.2701 -0.0464
  176SLPC  H15A19913   4.108   2.616   7.679  0.0558  1.3057  1.1874
  176SLPC  H15B19914   4.235   2.734   7.628 -0.1563 -0.2368 -0.8286
  176SLPC  H15C19915   4.072   2.721   7.543 -1.9669  0.3750  1.6249
  176SLPC   C1219916   4.304   2.634   7.405  0.5650  0.0732 -0.3231
  176SLPC  H12A19917   4.369   2.703   7.456  0.1364  2.5979 -2.9384
  176SLPC  H12B19918   4.240   2.696   7.344  1.4616  1.7105  0.3576
  176SLPC   C1119919   4.392   2.544   7.317 -0.1445 -0.8124  0.1408
  176SLPC  H11A19920   4.480   2.499   7.367  0.0929 -1.0154 -0.4403
  176SLPC  H11B19921   4.441   2.621   7.253 -0.9346 -0.5334 -0.1389
  176SLPC     P19922   4.404   2.352   7.150 -0.2951  0.1828  0.2649
  176SLPC   O1319923   4.454   2.237   7.236 -0.1736  0.1492 -0.3074
  176SLPC   O1419924   4.337   2.305   7.024  0.5974  0.1465  0.0409
  176SLPC   O1219925   4.316   2.449   7.228  0.0184  0.2458 -0.2828
  176SLPC   O1119926   4.534   2.435   7.118 -0.6543 -0.2023  0.1619
  176SLPC    C119927   4.539   2.514   7.000 -0.4568 -0.4161  0.0719
  176SLPC    HA19928   4.444   2.537   6.947  0.3700 -1.3207 -1.8941
  176SLPC    HB19929   4.584   2.613   7.024 -1.0282  0.0083 -0.5597
  176SLPC    C219930   4.639   2.453   6.899  0.0130  0.4483 -0.0064
  176SLPC    HS19931   4.732   2.427   6.954 -2.0728 -0.0460  3.5744
  176SLPC   O2119932   4.652   2.535   6.782  0.5934 -0.7162 -0.2493
  176SLPC   C2119933   4.722   2.646   6.799  0.4478 -0.1461  0.1821
  176SLPC   O2219934   4.771   2.692   6.900  0.1296 -0.6769 -0.7024
  176SLPC   C2219935   4.726   2.742   6.676 -0.3093  0.3018 -0.4575
  176SLPC   H2R19936   4.639   2.715   6.612 -0.2107 -2.1493  0.3605
  176SLPC   H2S19937   4.712   2.844   6.717  0.7311  0.6797 -0.9857
  176SLPC    C319938   4.586   2.314   6.843 -0.4243 -0.6568 -0.4062
  176SLPC    HX19939   4.483   2.329   6.805 -0.6789  2.4686  1.2469
  176SLPC    HY19940   4.583   2.249   6.933 -1.3195 -2.3976 -1.6263
  176SLPC   O3119941   4.666   2.241   6.756 -0.3466 -0.2346  0.6249
  176SLPC   C3119942   4.788   2.205   6.802 -0.3722 -0.5509  0.5719
  176SLPC   O3219943   4.822   2.199   6.920  0.1249 -0.1137  0.0494
  176SLPC   C3219944   4.890   2.182   6.689 -0.1853 -0.2184 -0.7760
  176SLPC   H2X19945   4.976   2.125   6.730 -0.9453 -1.3816 -0.7378
  176SLPC   H2Y19946   4.933   2.280   6.660  0.5551 -0.3889 -0.2845
  176SLPC   C2319947   4.859   2.744   6.595 -0.9089  0.5601 -0.2733
  176SLPC   H3R19948   4.854   2.648   6.539 -0.2984  0.6182 -0.4285
  176SLPC   H3S19949   4.945   2.733   6.664 -0.3927 -0.3519 -1.0462
  176SLPC   C2419950   4.882   2.855   6.495 -0.2555  0.4117 -0.7034
  176SLPC   H4R19951   4.889   2.949   6.554 -2.2844 -0.5774  1.2661
  176SLPC   H4S19952   4.787   2.872   6.439 -0.1461 -1.9524 -1.7134
  176SLPC   C2519953   4.995   2.838   6.389 -0.4176 -0.7131 -0.1572
  176SLPC   H5R19954   4.959   2.766   6.312 -0.7562 -0.9939  0.2566
  176SLPC   H5S19955   5.078   2.799   6.452 -2.4765 -0.3557  3.0019
  176SLPC   C2619956   5.022   2.972   6.314  0.1589  0.2409  0.7399
  176SLPC   H6R19957   5.119   2.960   6.263 -0.4888  0.5901 -0.6115
  176SLPC   H6S19958   5.034   3.059   6.383 -3.2495  1.4834 -0.0436
  176SLPC   C2719959   4.921   2.998   6.210  0.8286 -0.5172 -0.1183
  176SLPC   H7R19960   4.820   3.013   6.253  0.2491  2.0825 -2.1412
  176SLPC   H7S19961   4.914   2.908   6.146  3.7855 -0.6236 -0.4252
  176SLPC   C2819962   4.961   3.103   6.108  0.8443 -0.0970  0.2705
  176SLPC   H8R19963   4.872   3.096   6.041  0.1703  0.9507  1.0176
  176SLPC   H8S19964   5.054   3.081   6.051  2.2709  1.2854  1.9740
  176SLPC   C2919965   4.963   3.236   6.184 -0.1578 -0.0947 -0.5693
  176SLPC   H9R19966   5.043   3.245   6.260 -0.4993  0.9094 -0.3133
  176SLPC  C21019967   4.892   3.341   6.151  0.8577 -0.3748  0.7724
  176SLPC  H10R19968   4.881   3.423   6.223 -2.7500  0.2176 -0.2522
  176SLPC  C21119969   4.789   3.357   6.038 -0.3064  0.2804  0.9054
  176SLPC  H11R19970   4.715   3.438   6.053 -1.2140 -0.1166 -1.0173
  176SLPC  H11S19971   4.731   3.261   6.038  2.6717 -1.6602  0.0221
  176SLPC  C21219972   4.854   3.374   5.899 -0.4412 -0.2241 -0.8136
  176SLPC  H12R19973   4.918   3.292   5.863  0.2634  0.3703 -0.9360
  176SLPC  C21319974   4.851   3.487   5.820  1.2245  0.0086  0.0229
  176SLPC  H13R19975   4.918   3.486   5.733 -0.9225 -1.1491 -1.7077
  176SLPC  C21419976   4.779   3.612   5.856  0.6805  0.4367  0.8682
  176SLPC  H14R19977   4.703   3.586   5.932  0.1176 -3.9362 -0.9009
  176SLPC  H14S19978   4.721   3.644   5.767 -0.2125  1.2925  1.7317
  176SLPC  C21519979   4.856   3.735   5.908  0.2114 -0.2861 -0.6858
  176SLPC  H15R19980   4.912   3.703   5.998 -1.2670  0.8180  0.6823
  176SLPC  H15S19981   4.781   3.809   5.942  1.1496  0.4085 -0.0964
  176SLPC  C21619982   4.946   3.817   5.806 -0.3905  0.7011  0.1129
  176SLPC  H16R19983   5.029   3.749   5.776 -0.3266  0.4463  0.8551
  176SLPC  H16S19984   4.991   3.901   5.863  3.6906 -1.0869 -0.0841
  176SLPC  C21719985   4.879   3.873   5.681 -0.3967  0.5772  0.0397
  176SLPC  H17R19986   4.804   3.950   5.709  0.1808  0.9554  0.5640
  176SLPC  H17S19987   4.823   3.793   5.628 -0.1748  0.5550 -0.1655
  176SLPC  C21819988   4.973   3.939   5.579 -0.5108  0.3967  0.3055
  176SLPC  H18R19989   5.014   3.854   5.521 -4.8994 -1.1313 -0.8638
  176SLPC  H18S19990   5.046   4.000   5.638  0.7368 -0.8849  0.1500
  176SLPC  H18T19991   4.909   4.007   5.520 -0.7313  2.1194  2.3842
  176SLPC   C3319992   4.860   2.109   6.558 -0.1659 -0.8416 -0.4373
  176SLPC   H3X19993   4.807   2.181   6.493 -0.3921 -0.1504  0.5020
  176SLPC   H3Y19994   4.793   2.024   6.586  0.9454 -0.8680  2.5366
  176SLPC   C3419995   4.989   2.057   6.489 -0.0216  0.0167  0.1602
  176SLPC   H4X19996   5.014   1.959   6.535  1.2979  0.8393  1.2557
  176SLPC   H4Y19997   5.074   2.125   6.509 -1.8719  3.4669 -2.5795
  176SLPC   C3519998   4.982   2.037   6.341 -0.0332 -0.6187  0.9867
  176SLPC   H5X19999   5.000   2.138   6.300 -1.3628 -0.8833 -0.3161
  176SLPC   H5Y20000   4.884   2.009   6.298  0.6589  1.3752 -2.2238
  176SLPC   C3620001   5.093   1.938   6.294  1.3044 -0.3116  0.0003
  176SLPC   H6X20002   5.055   1.837   6.320 -1.0300  1.0284  2.4256
  176SLPC   H6Y20003   5.177   1.948   6.366  1.5449 -0.3900 -0.2670
  176SLPC   C3720004   5.123   1.956   6.148 -0.3838 -1.3002 -0.1149
  176SLPC   H7X20005   5.179   2.051   6.133 -0.4254 -1.3972 -0.9397
  176SLPC   H7Y20006   5.033   1.957   6.084  0.7743 -2.0588 -1.8677
  176SLPC   C3820007   5.206   1.843   6.086  0.7609  0.0444  0.4989
  176SLPC   H8X20008   5.219   1.863   5.978  0.8158  3.5866  1.0379
  176SLPC   H8Y20009   5.160   1.745   6.111  0.1537 -0.5129 -2.4257
  176SLPC   C3920010   5.347   1.824   6.151  0.8864 -0.4714 -0.4458
  176SLPC   H9X20011   5.336   1.814   6.261  0.6685  1.4721 -0.2703
  176SLPC   H9Y20012   5.410   1.915   6.145  1.2577 -0.6475  0.5577
  176SLPC  C31020013   5.425   1.702   6.086 -0.0222 -0.7489  0.7609
  176SLPC  H10X20014   5.476   1.734   5.993 -0.6875 -0.5818  0.4456
  176SLPC  H10Y20015   5.354   1.619   6.067  0.6992 -1.5613  1.5288
  176SLPC  C31120016   5.530   1.646   6.185 -0.2326 -0.5022 -0.0275
  176SLPC  H11X20017   5.482   1.590   6.268  0.8079 -2.9287 -0.9677
  176SLPC  H11Y20018   5.575   1.732   6.238  0.4611  0.1036 -1.5349
  176SLPC  C31220019   5.643   1.569   6.113 -0.0956  0.2347 -0.4698
  176SLPC  H12X20020   5.606   1.476   6.063 -1.9035  0.2809  0.6927
  176SLPC  H12Y20021   5.701   1.524   6.196 -2.5888  1.8926  2.3235
  176SLPC  C31320022   5.732   1.655   6.018 -0.4346 -0.1480 -0.4068
  176SLPC  H13X20023   5.801   1.725   6.069 -0.8047 -1.0871  1.4780
  176SLPC  H13Y20024   5.667   1.709   5.947 -0.7594 -1.6593 -1.3042
  176SLPC  C31420025   5.829   1.571   5.932  0.0157  0.2470  0.0058
  176SLPC  H14X20026   5.769   1.500   5.871 -0.4751 -0.3330  1.1114
  176SLPC  H14Y20027   5.902   1.509   5.990  1.3258  2.6559  1.0582
  176SLPC  C31520028   5.918   1.656   5.839 -0.4889  0.2840  0.1353
  176SLPC  H15X20029   5.980   1.725   5.900  2.1716 -0.2213 -1.8352
  176SLPC  H15Y20030   5.849   1.713   5.772  0.1628  1.3033  0.3054
  176SLPC  C31620031   6.019   1.578   5.750 -0.2105 -0.5672 -0.3151
  176SLPC  H16X20032   6.113   1.552   5.803 -0.1938 -0.0747 -0.0948
  176SLPC  H16Y20033   6.055   1.639   5.664 -0.7423 -3.0329 -2.3926
  176SLPC  C31720034   5.964   1.450   5.690  0.3172  0.0138 -0.3526
  176SLPC  H17X20035   5.889   1.489   5.618 -0.8785  0.4188  1.0608
  176SLPC  H17Y20036   5.916   1.391   5.771 -1.9256 -0.1570 -1.7371
  176SLPC  C31820037   6.068   1.360   5.626 -1.0327 -0.6717  0.6395
  176SLPC  H18X20038   6.010   1.275   5.583 -1.6046 -0.0410  0.1519
  176SLPC  H18Y20039   6.139   1.312   5.697 -1.4830 -1.6514  0.4493
  176SLPC  H18Z20040   6.120   1.414   5.544  0.1082  0.0391  1.7908
  177SLPC     N20041   1.020   3.526   7.479  0.0080  0.5180  0.3978
  177SLPC   C1320042   1.018   3.376   7.514  0.2113 -0.2390 -0.3149
  177SLPC  H13A20043   1.094   3.329   7.454  0.8189  0.2849  0.0352
  177SLPC  H13B20044   1.037   3.366   7.619 -1.8190  0.3351  0.1623
  177SLPC  H13C20045   0.929   3.321   7.487  1.2581 -1.5255 -1.3008
  177SLPC   C1420046   1.002   3.540   7.326 -0.1283  0.0686  0.2380
  177SLPC  H14A20047   0.908   3.494   7.298  0.4268  0.5191 -2.5988
  177SLPC  H14B20048   0.998   3.647   7.309 -1.2435 -0.0346 -0.2330
  177SLPC  H14C20049   1.093   3.494   7.290  0.7805  2.6252 -0.9489
  177SLPC   C1520050   1.149   3.594   7.519  0.1800  0.2651  0.2949
  177SLPC  H15A20051   1.182   3.562   7.617 -1.2262 -2.1529  0.0640
  177SLPC  H15B20052   1.231   3.558   7.459 -0.7258  0.3876 -1.0544
  177SLPC  H15C20053   1.135   3.701   7.509  1.3129  0.4896  0.8899
  177SLPC   C1220054   0.907   3.598   7.539  0.2762  0.7626 -0.2130
  177SLPC  H12A20055   0.817   3.551   7.502  0.7753 -0.5872  0.2350
  177SLPC  H12B20056   0.912   3.704   7.519 -0.5656  1.2741  2.0079
  177SLPC   C1120057   0.910   3.585   7.691 -0.6632  0.5770  0.1141
  177SLPC  H11A20058   0.999   3.639   7.729 -0.6685  1.4663 -1.0919
  177SLPC  H11B20059   0.930   3.481   7.725  1.5189  0.9341  0.0503
  177SLPC     P20060   0.650   3.564   7.740  0.0180 -0.1406 -0.4047
  177SLPC   O1320061   0.650   3.419   7.779  0.7510  0.4100  0.6789
  177SLPC   O1420062   0.557   3.653   7.814 -0.2958  0.5900  0.3549
  177SLPC   O1220063   0.794   3.634   7.755  0.1175 -0.3526  0.3391
  177SLPC   O1120064   0.613   3.572   7.585 -0.0702  0.9346 -0.5863
  177SLPC    C120065   0.482   3.590   7.535  0.5139  0.0416  0.5564
  177SLPC    HA20066   0.415   3.552   7.615  0.9892 -0.8190  0.5607
  177SLPC    HB20067   0.475   3.701   7.529  0.7478  0.2627  3.0823
  177SLPC    C220068   0.457   3.534   7.390 -0.7175  0.0792  0.6229
  177SLPC    HS20069   0.512   3.438   7.385  2.3470  1.7693 -0.5900
  177SLPC   O2120070   0.518   3.639   7.305 -0.0242  0.5417  0.2302
  177SLPC   C2120071   0.596   3.595   7.212 -0.5667 -0.3778 -0.6144
  177SLPC   O2220072   0.626   3.482   7.180  0.2030  0.1834 -0.0586
  177SLPC   C2220073   0.655   3.709   7.135  0.0654  0.0195 -0.0685
  177SLPC   H2R20074   0.580   3.783   7.099  1.1554  2.4896  2.3828
  177SLPC   H2S20075   0.717   3.771   7.204 -0.0415  0.8146 -0.6694
  177SLPC    C320076   0.303   3.516   7.346  0.3135 -0.3382 -0.2377
  177SLPC    HX20077   0.254   3.613   7.366 -1.0204 -0.3758 -2.8240
  177SLPC    HY20078   0.252   3.447   7.417 -0.7101  0.2809 -0.3445
  177SLPC   O3120079   0.283   3.479   7.210 -0.8009 -0.4078  0.3640
  177SLPC   C3120080   0.289   3.571   7.111 -0.5809 -0.2598 -0.2689
  177SLPC   O3220081   0.295   3.690   7.128 -0.1258  1.1690 -0.7460
  177SLPC   C3220082   0.290   3.502   6.986 -0.0370 -0.5009  0.0111
  177SLPC   H2X20083   0.201   3.437   6.985  0.8095 -1.6972 -1.2973
  177SLPC   H2Y20084   0.376   3.431   6.990 -0.6661 -1.2705  0.0389
  177SLPC   C2320085   0.748   3.670   7.013 -0.0584  0.0764  0.5873
  177SLPC   H3R20086   0.819   3.591   7.046  0.1475 -0.7438 -1.6566
  177SLPC   H3S20087   0.804   3.765   6.997  0.6789 -0.1970  1.5014
  177SLPC   C2420088   0.667   3.621   6.888  0.3951  0.0039  0.5392
  177SLPC   H4R20089   0.628   3.714   6.841  0.3143 -0.6737 -0.7856
  177SLPC   H4S20090   0.591   3.549   6.923  0.0417  0.2628  0.3170
  177SLPC   C2520091   0.752   3.536   6.780  0.5969 -0.4781  0.3191
  177SLPC   H5R20092   0.797   3.445   6.825  3.0641  0.6677  0.3384
  177SLPC   H5S20093   0.843   3.587   6.743  1.8264 -2.5382  0.3381
  177SLPC   C2620094   0.670   3.513   6.646  0.4413 -0.2983 -0.1942
  177SLPC   H6R20095   0.617   3.607   6.621  1.4427  0.2496 -0.3222
  177SLPC   H6S20096   0.596   3.432   6.664 -0.2231 -0.0250 -1.5845
  177SLPC   C2720097   0.767   3.476   6.525  0.7300  0.4574 -0.8705
  177SLPC   H7R20098   0.853   3.414   6.558  0.4585  0.4877 -0.0856
  177SLPC   H7S20099   0.812   3.563   6.474  0.1164  0.0861 -2.1019
  177SLPC   C2820100   0.695   3.400   6.412 -0.2300  0.4345  0.5909
  177SLPC   H8R20101   0.637   3.314   6.452  0.3879 -0.5591 -0.5905
  177SLPC   H8S20102   0.776   3.356   6.350  0.7077  3.4173 -0.4716
  177SLPC   C2920103   0.599   3.473   6.324 -0.1440  0.2520  0.1434
  177SLPC   H9R20104   0.579   3.575   6.360 -0.3902  0.2780 -0.0629
  177SLPC  C21020105   0.555   3.434   6.201 -0.7455 -0.2035 -0.4224
  177SLPC  H10R20106   0.493   3.497   6.134 -1.1661 -0.7327 -0.5404
  177SLPC  C21120107   0.569   3.299   6.131 -0.3187 -0.2554  0.5214
  177SLPC  H11R20108   0.468   3.254   6.123  0.2261 -1.1842 -2.0161
  177SLPC  H11S20109   0.633   3.221   6.178  1.3857 -0.3540 -1.7690
  177SLPC  C21220110   0.622   3.307   5.990 -0.1047 -0.0382  0.1028
  177SLPC  H12R20111   0.731   3.302   5.984  0.1517 -0.3735  3.1883
  177SLPC  C21320112   0.551   3.308   5.875  0.7404 -0.3560 -0.0373
  177SLPC  H13R20113   0.602   3.311   5.778 -0.4340 -0.6354 -0.6821
  177SLPC  C21420114   0.395   3.320   5.874  0.1526  0.4345 -0.1461
  177SLPC  H14R20115   0.365   3.427   5.875  1.8051  0.9419 -1.1641
  177SLPC  H14S20116   0.348   3.265   5.959  3.6712  0.9663  2.3792
  177SLPC  C21520117   0.340   3.265   5.741 -0.0216 -0.1504 -0.2525
  177SLPC  H15R20118   0.231   3.256   5.759 -0.2234 -0.4988 -1.5200
  177SLPC  H15S20119   0.381   3.163   5.726 -0.3490 -0.4685  0.9212
  177SLPC  C21620120   0.379   3.358   5.618  0.4237  0.0514  0.2650
  177SLPC  H16R20121   0.487   3.378   5.598  1.0468 -1.5115  1.8486
  177SLPC  H16S20122   0.346   3.460   5.645  0.7046 -0.0224  0.8997
  177SLPC  C21720123   0.291   3.340   5.494  0.0353 -1.0413 -0.1779
  177SLPC  H17R20124   0.181   3.346   5.512  0.2853  0.9292  1.0162
  177SLPC  H17S20125   0.311   3.245   5.440  0.7788 -1.2265  0.4036
  177SLPC  C21820126   0.307   3.456   5.393 -0.5240  0.3753  0.9684
  177SLPC  H18R20127   0.263   3.554   5.422 -2.9609  0.4285 -2.2967
  177SLPC  H18S20128   0.252   3.431   5.300 -0.0196  1.0909  0.4628
  177SLPC  H18T20129   0.412   3.461   5.357 -1.0645  1.6846 -0.5876
  177SLPC   C3320130   0.288   3.606   6.874  0.0286  0.7249 -0.3556
  177SLPC   H3X20131   0.391   3.644   6.858  0.2257  0.3433 -0.0149
  177SLPC   H3Y20132   0.232   3.698   6.898 -0.8973  1.1002 -3.4655
  177SLPC   C3420133   0.243   3.532   6.745 -0.7178 -0.4174 -0.1514
  177SLPC   H4X20134   0.132   3.534   6.738 -0.7933  0.1522  0.9498
  177SLPC   H4Y20135   0.284   3.430   6.726 -0.7232 -0.8816  2.0535
  177SLPC   C3520136   0.297   3.630   6.632  0.1096 -0.1361  0.0210
  177SLPC   H5X20137   0.390   3.675   6.671  1.2168 -1.8720 -0.4851
  177SLPC   H5Y20138   0.219   3.708   6.619 -1.6130 -2.0078 -1.9231
  177SLPC   C3620139   0.333   3.562   6.500  0.0468 -0.2385 -0.3144
  177SLPC   H6X20140   0.391   3.468   6.514 -0.8289 -0.5197  1.9291
  177SLPC   H6Y20141   0.394   3.634   6.441  0.2574  1.0133  1.3303
  177SLPC   C3720142   0.214   3.542   6.403  0.3270 -0.3389 -0.0942
  177SLPC   H7X20143   0.147   3.474   6.461  1.7412  0.8813  3.2312
  177SLPC   H7Y20144   0.252   3.483   6.317 -0.7750  1.5716 -2.0008
  177SLPC   C3820145   0.125   3.665   6.354  0.1790 -0.4157  0.1863
  177SLPC   H8X20146   0.201   3.737   6.318 -1.6540  0.9883 -1.0975
  177SLPC   H8Y20147   0.075   3.704   6.445 -0.8457  1.3827 -1.0779
  177SLPC   C3920148   0.022   3.627   6.251  0.6898  0.0884  0.6614
  177SLPC   H9X20149  -0.065   3.696   6.244  1.4296  0.9021 -0.9730
  177SLPC   H9Y20150  -0.014   3.526   6.279 -2.8804  0.9336 -0.3098
  177SLPC  C31020151   0.076   3.610   6.105 -0.4863  0.7294  0.0301
  177SLPC  H10X20152   0.165   3.543   6.117 -1.0908 -0.2631 -0.8186
  177SLPC  H10Y20153   0.121   3.705   6.069  0.6101 -0.3922 -1.7194
  177SLPC  C31120154  -0.022   3.550   6.005  0.0884  0.4905 -0.4421
  177SLPC  H11X20155  -0.103   3.622   5.982  0.0412  0.6495  0.1955
  177SLPC  H11Y20156  -0.066   3.453   6.036 -2.4654  2.0702  1.2339
  177SLPC  C31220157   0.064   3.527   5.880  1.0341  0.5265  0.3518
  177SLPC  H12X20158   0.153   3.467   5.910  0.4422  0.7189  2.6481
  177SLPC  H12Y20159   0.110   3.620   5.839  2.5188 -0.2418  0.2103
  177SLPC  C31320160  -0.015   3.451   5.766 -0.4288 -0.3345  0.3530
  177SLPC  H13X20161  -0.117   3.425   5.801 -0.6158 -0.4525 -0.2792
  177SLPC  H13Y20162   0.025   3.354   5.730  0.5683  0.5378 -0.9927
  177SLPC  C31420163  -0.051   3.538   5.647  0.3104  0.5352  0.0911
  177SLPC  H14X20164   0.048   3.561   5.602  1.5942  0.0960  2.5007
  177SLPC  H14Y20165  -0.095   3.630   5.691 -1.1385 -0.1424  0.1078
  177SLPC  C31520166  -0.144   3.467   5.550  0.4121 -0.1693  0.0284
  177SLPC  H15X20167  -0.101   3.372   5.512 -1.8590 -0.8340 -1.0398
  177SLPC  H15Y20168  -0.153   3.528   5.458  0.9024 -0.6393 -0.3345
  177SLPC  C31620169  -0.282   3.437   5.596  0.0723  0.1970  0.4825
  177SLPC  H16X20170  -0.342   3.525   5.629 -0.6327 -0.6743  1.6214
  177SLPC  H16Y20171  -0.288   3.367   5.683 -1.1148 -1.6467 -1.0088
  177SLPC  C31720172  -0.370   3.362   5.497  0.0469 -0.2243  0.1198
  177SLPC  H17X20173  -0.339   3.392   5.395 -0.2351 -2.1081 -0.5550
  177SLPC  H17Y20174  -0.480   3.371   5.510 -0.0937 -1.2453 -0.2754
  177SLPC  C31820175  -0.354   3.208   5.481 -0.5542  0.0040  0.1047
  177SLPC  H18X20176  -0.426   3.160   5.411 -1.2158  1.2474 -0.0920
  177SLPC  H18Y20177  -0.364   3.156   5.579  1.4116  1.1953  1.0059
  177SLPC  H18Z20178  -0.253   3.184   5.440 -1.4943 -1.8704 -1.2782
  178SLPC     N20179   2.648   0.891   7.789 -0.2982 -0.4850 -0.7064
  178SLPC   C1320180   2.569   0.980   7.700 -0.5138  0.2486 -0.3139
  178SLPC  H13A20181   2.620   0.999   7.607 -0.6058  2.6313  0.0450
  178SLPC  H13B20182   2.480   0.931   7.664  0.0171  0.2793 -1.7101
  178SLPC  H13C20183   2.540   1.073   7.748 -0.2331 -0.5217  1.4180
  178SLPC   C1420184   2.584   0.859   7.919 -0.1250  0.5662 -0.2761
  178SLPC  H14A20185   2.558   0.938   7.987 -1.4221  1.1415 -1.3940
  178SLPC  H14B20186   2.504   0.788   7.905  2.0842 -1.8335 -1.7391
  178SLPC  H14C20187   2.646   0.786   7.969  0.7673 -1.7707 -4.3117
  178SLPC   C1520188   2.779   0.959   7.811  0.1409  0.0919 -0.3715
  178SLPC  H15A20189   2.752   1.046   7.869 -0.1601 -1.0102  1.1902
  178SLPC  H15B20190   2.839   0.891   7.869  0.7079  0.5878 -0.3626
  178SLPC  H15C20191   2.823   0.983   7.715 -1.2028 -3.9220 -2.2123
  178SLPC   C1220192   2.663   0.765   7.706 -0.2200  0.8630 -0.6397
  178SLPC  H12A20193   2.572   0.709   7.689 -0.5836  0.8078  1.3021
  178SLPC  H12B20194   2.716   0.699   7.773 -1.1658  2.5154  1.8597
  178SLPC   C1120195   2.750   0.778   7.576  0.3466 -0.0116  0.4101
  178SLPC  H11A20196   2.737   0.872   7.518  2.2984 -0.0191 -0.1009
  178SLPC  H11B20197   2.719   0.693   7.512 -0.6579  0.5336  0.1538
  178SLPC     P20198   2.948   0.614   7.659  0.0890  0.0108  0.2437
  178SLPC   O1320199   3.091   0.618   7.666 -0.4484 -0.3730 -0.6699
  178SLPC   O1420200   2.876   0.572   7.777 -0.8005  0.2273 -0.0666
  178SLPC   O1220201   2.883   0.758   7.617 -0.1042 -0.2568 -0.4619
  178SLPC   O1120202   2.906   0.520   7.539  0.2133  0.3034  0.2300
  178SLPC    C120203   2.987   0.521   7.423 -0.1979 -0.6863 -0.3586
  178SLPC    HA20204   3.091   0.484   7.441  0.0199 -0.8528 -1.8619
  178SLPC    HB20205   2.953   0.437   7.359 -1.7350 -0.2055 -0.2059
  178SLPC    C220206   2.993   0.653   7.343 -0.4527 -0.2601  0.0719
  178SLPC    HS20207   3.030   0.741   7.399  2.2233  0.2964 -2.3341
  178SLPC   O2120208   2.857   0.685   7.292  0.2181  0.2547 -0.6456
  178SLPC   C2120209   2.857   0.809   7.249  0.4352  0.0781  0.2209
  178SLPC   O2220210   2.956   0.886   7.245 -0.2011  0.0845 -0.1255
  178SLPC   C2220211   2.716   0.852   7.188 -0.4070  0.3314  0.6553
  178SLPC   H2R20212   2.652   0.762   7.194 -2.7285  1.7421 -1.2211
  178SLPC   H2S20213   2.674   0.935   7.248 -1.9633 -0.8608  1.2686
  178SLPC    C320214   3.098   0.639   7.231 -0.1416  0.1818  0.2715
  178SLPC    HX20215   3.181   0.592   7.286  0.1315 -0.7549 -0.8929
  178SLPC    HY20216   3.133   0.740   7.201  1.7270 -0.0895  1.4276
  178SLPC   O3120217   3.049   0.559   7.119  0.1893  0.6812 -0.0760
  178SLPC   C3120218   3.148   0.516   7.044 -0.1698 -0.0561 -0.0238
  178SLPC   O3220219   3.266   0.530   7.067 -1.4061 -0.3186 -0.2665
  178SLPC   C3220220   3.085   0.462   6.915  0.2010  0.4448  0.4372
  178SLPC   H2X20221   3.122   0.531   6.836  0.6560 -0.6498 -0.3309
  178SLPC   H2Y20222   2.977   0.488   6.908 -0.0626 -0.8175 -0.4885
  178SLPC   C2320223   2.724   0.886   7.041  0.5423  0.2725  0.1673
  178SLPC   H3R20224   2.776   0.801   6.993 -0.0779  0.1554 -0.3121
  178SLPC   H3S20225   2.776   0.985   7.035  1.0117  0.2351  2.5097
  178SLPC   C2420226   2.583   0.909   6.986  0.6286 -0.2423 -0.2097
  178SLPC   H4R20227   2.538   0.995   7.040  0.8551 -0.6249  0.6152
  178SLPC   H4S20228   2.517   0.821   7.004  0.8585 -0.0985  1.5645
  178SLPC   C2520229   2.576   0.955   6.836 -0.3186 -0.3422 -0.9803
  178SLPC   H5R20230   2.672   1.004   6.810 -1.0819  1.1075 -1.1466
  178SLPC   H5S20231   2.490   1.023   6.819 -0.7377 -0.3817  0.7818
  178SLPC   C2620232   2.557   0.847   6.724  1.1811  0.0634  0.7568
  178SLPC   H6R20233   2.490   0.765   6.758 -0.1589  1.1366  0.8128
  178SLPC   H6S20234   2.653   0.793   6.709  1.7211  1.1999 -0.0136
  178SLPC   C2720235   2.516   0.898   6.587 -0.3817  0.3380  0.1213
  178SLPC   H7R20236   2.470   0.998   6.598 -0.1382  0.7222 -1.9475
  178SLPC   H7S20237   2.440   0.822   6.558  0.1460  0.2855 -1.1708
  178SLPC   C2820238   2.622   0.911   6.484 -0.1261 -0.1973  0.4971
  178SLPC   H8R20239   2.671   0.811   6.489  0.6355  0.1150 -0.4838
  178SLPC   H8S20240   2.692   0.993   6.512 -1.1722  1.5862 -1.8280
  178SLPC   C2920241   2.578   0.933   6.342  0.2210 -0.6170  1.0081
  178SLPC   H9R20242   2.480   0.894   6.311  0.6012 -0.4481 -0.4700
  178SLPC  C21020243   2.651   0.981   6.245 -0.0266  0.5389  0.2429
  178SLPC  H10R20244   2.591   1.005   6.156 -3.1483  1.2679  2.3704
  178SLPC  C21120245   2.789   1.030   6.251 -0.0327 -0.3157 -0.9612
  178SLPC  H11R20246   2.846   0.981   6.333 -0.4448  0.7648 -0.0036
  178SLPC  H11S20247   2.796   1.138   6.278  1.8021 -0.5491 -0.3354
  178SLPC  C21220248   2.867   1.010   6.123  0.0918 -0.3256 -0.5765
  178SLPC  H12R20249   2.937   0.927   6.141 -2.7023 -2.3891  2.0394
  178SLPC  C21320250   2.839   1.068   6.002 -0.4617  0.5255  0.5876
  178SLPC  H13R20251   2.897   1.047   5.911 -1.4779  1.2328 -0.2400
  178SLPC  C21420252   2.730   1.176   5.979 -0.9250 -0.4204 -0.1347
  178SLPC  H14R20253   2.786   1.266   5.947  2.1319 -2.5945 -1.2997
  178SLPC  H14S20254   2.666   1.196   6.069 -1.7262 -1.4161 -0.4647
  178SLPC  C21520255   2.627   1.132   5.873  0.3691 -0.0769 -0.2656
  178SLPC  H15R20256   2.556   1.217   5.866  0.4755  0.1230  0.9937
  178SLPC  H15S20257   2.567   1.041   5.896  0.9811 -0.6764 -0.9748
  178SLPC  C21620258   2.687   1.111   5.730  0.5511 -0.4964 -0.2287
  178SLPC  H16R20259   2.726   1.008   5.718  1.2876 -0.2434 -0.1267
  178SLPC  H16S20260   2.776   1.177   5.723  0.0473  0.1133 -0.9777
  178SLPC  C21720261   2.588   1.126   5.618  0.4646  0.5244 -0.2547
  178SLPC  H17R20262   2.646   1.133   5.524 -2.6081 -1.2332 -2.4666
  178SLPC  H17S20263   2.528   1.219   5.621 -1.3362 -0.5707 -0.4477
  178SLPC  C21820264   2.498   1.002   5.599 -0.1368 -0.2526 -0.0363
  178SLPC  H18R20265   2.549   0.910   5.561 -2.3223 -1.3193 -0.5464
  178SLPC  H18S20266   2.417   1.031   5.529 -1.0445 -2.4793  0.0144
  178SLPC  H18T20267   2.455   0.978   5.699 -1.2470 -1.8071 -0.8451
  178SLPC   C3320268   3.120   0.315   6.878  0.1985 -0.0688  0.5967
  178SLPC   H3X20269   3.076   0.256   6.961 -1.1454  1.3408  0.9139
  178SLPC   H3Y20270   3.228   0.291   6.888  0.0043 -1.5750 -0.4873
  178SLPC   C3420271   3.049   0.268   6.745 -1.1703 -0.0728 -0.5504
  178SLPC   H4X20272   2.940   0.276   6.763 -1.4239 -4.2632  0.8917
  178SLPC   H4Y20273   3.063   0.158   6.734  0.2195 -0.0361  0.5190
  178SLPC   C3520274   3.082   0.352   6.621 -0.0196 -0.5664 -0.5594
  178SLPC   H5X20275   3.193   0.351   6.619  0.0050 -0.8621  0.5429
  178SLPC   H5Y20276   3.039   0.454   6.626 -0.2601 -0.7187  2.1334
  178SLPC   C3620277   3.048   0.274   6.491  0.4348  0.0481 -0.3802
  178SLPC   H6X20278   3.126   0.195   6.475  1.1936  1.0180 -1.6427
  178SLPC   H6Y20279   3.065   0.338   6.402 -1.1542  2.6566  1.0780
  178SLPC   C3720280   2.913   0.206   6.484 -0.4979 -0.2146  0.1094
  178SLPC   H7X20281   2.832   0.280   6.466 -2.4705 -2.7967 -2.6707
  178SLPC   H7Y20282   2.898   0.148   6.577  3.1868 -0.7981  0.4847
  178SLPC   C3820283   2.885   0.100   6.370 -0.8241 -0.1380  0.5093
  178SLPC   H8X20284   2.783   0.058   6.386 -1.3126  0.1655 -1.5140
  178SLPC   H8Y20285   2.964   0.023   6.371  0.9332  1.5196  2.9930
  178SLPC   C3920286   2.885   0.161   6.227 -0.4122 -0.1199  0.2319
  178SLPC   H9X20287   2.975   0.226   6.227 -0.0496 -0.5935  1.1973
  178SLPC   H9Y20288   2.792   0.221   6.227  0.6003  1.5179 -0.1924
  178SLPC  C31020289   2.886   0.050   6.118 -1.1361  0.2779 -0.1453
  178SLPC  H10X20290   2.787   0.004   6.134 -1.7330  2.1911  2.1557
  178SLPC  H10Y20291   2.969  -0.024   6.120 -2.1434 -0.8775 -0.0053
  178SLPC  C31120292   2.893   0.113   5.978 -0.2610 -0.1531  0.4413
  178SLPC  H11X20293   2.997   0.152   5.973 -0.6191  1.3049  2.7087
  178SLPC  H11Y20294   2.817   0.194   5.974  0.9121  0.9337 -0.7681
  178SLPC  C31220295   2.853   0.020   5.860 -0.2418 -0.2077 -0.7304
  178SLPC  H12X20296   2.743   0.006   5.867 -0.6063  1.0149 -2.9275
  178SLPC  H12Y20297   2.906  -0.075   5.882 -0.0731 -0.2491 -1.2901
  178SLPC  C31320298   2.890   0.084   5.727 -0.8204  0.0034  0.0815
  178SLPC  H13X20299   2.829   0.177   5.718 -0.4536  0.0955 -1.9824
  178SLPC  H13Y20300   2.858   0.010   5.650 -0.6403 -1.3698  1.2803
  178SLPC  C31420301   3.035   0.111   5.696  0.4872 -0.0212  0.6012
  178SLPC  H14X20302   3.084   0.180   5.769  0.9168 -2.3491  2.6210
  178SLPC  H14Y20303   3.026   0.153   5.593  2.1572 -1.1072 -0.0280
  178SLPC  C31520304   3.127  -0.010   5.685 -0.2271 -0.5562 -0.3597
  178SLPC  H15X20305   3.090  -0.103   5.638  1.8101 -1.1426 -0.9260
  178SLPC  H15Y20306   3.152  -0.039   5.789 -0.2430  1.2614  0.1918
  178SLPC  C31620307   3.269   0.018   5.625 -0.2561  0.2017  0.0964
  178SLPC  H16X20308   3.347  -0.056   5.653 -0.5589 -0.6286 -1.1753
  178SLPC  H16Y20309   3.317   0.113   5.659 -0.3728 -0.2469  1.5935
  178SLPC  C31720310   3.264   0.033   5.476  0.4025 -0.1048 -0.1618
  178SLPC  H17X20311   3.202   0.123   5.459  0.4877  0.2243  1.1895
  178SLPC  H17Y20312   3.208  -0.044   5.419 -0.9698  0.8912 -0.1906
  178SLPC  C31820313   3.400   0.051   5.408  0.5145 -0.1572 -0.7320
  178SLPC  H18X20314   3.434   0.150   5.443  1.0073  0.1836 -2.1235
  178SLPC  H18Y20315   3.390   0.051   5.297 -0.7106  1.7344 -0.6718
  178SLPC  H18Z20316   3.475  -0.027   5.432  0.6202  0.2730  0.3880
  179SLPC     N20317   6.777   2.598   2.939  1.0316  0.0407 -0.1953
  179SLPC   C1320318   6.655   2.593   2.852  0.0044 -0.9443  0.3923
  179SLPC  H13A20319   6.676   2.623   2.750 -0.0699 -1.7253  0.1326
  179SLPC  H13B20320   6.617   2.494   2.829  1.8522 -1.4300 -0.7707
  179SLPC  H13C20321   6.568   2.651   2.877  1.2305  0.6675  1.0395
  179SLPC   C1420322   6.893   2.546   2.866 -0.4015  0.5097  0.3780
  179SLPC  H14A20323   6.912   2.604   2.777 -0.8467  0.7796  0.4523
  179SLPC  H14B20324   6.981   2.566   2.925 -1.2023  1.4409  1.3086
  179SLPC  H14C20325   6.881   2.443   2.837 -0.7218  0.3947  0.9087
  179SLPC   C1520326   6.741   2.513   3.056 -0.1667 -0.1393  0.2017
  179SLPC  H15A20327   6.730   2.410   3.026 -0.3463 -0.8773  2.5461
  179SLPC  H15B20328   6.823   2.505   3.126  0.9460 -1.2042 -1.1694
  179SLPC  H15C20329   6.651   2.547   3.106 -1.1944 -0.1412 -1.5788
  179SLPC   C1220330   6.789   2.742   2.980  0.3826 -0.3742 -0.2997
  179SLPC  H12A20331   6.699   2.767   3.035  1.1242 -0.8357  1.1635
  179SLPC  H12B20332   6.791   2.802   2.891  1.1453  0.2730  0.1443
  179SLPC   C1120333   6.903   2.789   3.072 -0.3448 -0.5659  0.9344
  179SLPC  H11A20334   6.889   2.736   3.169 -3.3239  0.1822  1.0026
  179SLPC  H11B20335   6.896   2.899   3.087  1.5145 -0.0920 -1.1357
  179SLPC     P20336   7.102   2.827   2.902 -0.1050  0.4290  0.2352
  179SLPC   O1320337   7.217   2.749   2.854  0.0659 -0.2824 -0.4070
  179SLPC   O1420338   7.002   2.856   2.796 -0.1439  0.0847 -0.3433
  179SLPC   O1220339   7.033   2.750   3.023 -0.1129 -0.7585  0.4196
  179SLPC   O1120340   7.148   2.964   2.969  0.1570 -0.4331 -0.6587
  179SLPC    C120341   7.278   2.967   3.030  0.6921 -0.1811  0.2534
  179SLPC    HA20342   7.359   2.903   2.989  0.7324  0.6506 -1.0605
  179SLPC    HB20343   7.317   3.070   3.017  1.3871 -0.3544  0.8996
  179SLPC    C220344   7.275   2.952   3.181  0.1863  0.5805  0.3485
  179SLPC    HS20345   7.373   2.992   3.217 -0.3379  1.0833  1.2435
  179SLPC   O2120346   7.251   2.812   3.218  0.5085 -0.1574  0.4295
  179SLPC   C2120347   7.361   2.734   3.213  0.2289 -0.4508  0.6212
  179SLPC   O2220348   7.476   2.767   3.185  0.2632 -0.6131 -0.4282
  179SLPC   C2220349   7.330   2.590   3.257  0.1093 -0.5631  0.5745
  179SLPC   H2R20350   7.221   2.591   3.279  0.1589  0.5975  0.8148
  179SLPC   H2S20351   7.351   2.520   3.173 -0.7802 -0.1117 -0.0381
  179SLPC    C320352   7.158   3.043   3.241 -0.5781 -0.2811  0.3734
  179SLPC    HX20353   7.064   2.990   3.216 -1.8701  1.9783  0.2651
  179SLPC    HY20354   7.163   3.141   3.189 -0.8041  0.1533  1.1540
  179SLPC   O3120355   7.163   3.055   3.388 -0.0784  0.0897  0.4294
  179SLPC   C3120356   7.253   3.152   3.433 -0.2139  0.0116 -0.3979
  179SLPC   O3220357   7.340   3.199   3.364 -0.2916  0.0468  0.4322
  179SLPC   C3220358   7.237   3.175   3.580  0.1928  0.2733  0.2820
  179SLPC   H2X20359   7.139   3.140   3.620  1.3616 -1.5078  1.7369
  179SLPC   H2Y20360   7.232   3.285   3.600 -1.5803  0.6803 -1.9068
  179SLPC   C2320361   7.413   2.548   3.385 -0.3220  0.5383 -0.1411
  179SLPC   H3R20362   7.515   2.516   3.354 -1.2414 -4.1961  0.9466
  179SLPC   H3S20363   7.365   2.455   3.423  0.2470  0.6228  0.8253
  179SLPC   C2420364   7.420   2.653   3.493  0.1827 -0.4731  0.3527
  179SLPC   H4R20365   7.316   2.680   3.519 -0.9814 -3.6330 -0.6202
  179SLPC   H4S20366   7.478   2.745   3.470  1.2362 -0.7253  1.8482
  179SLPC   C2520367   7.482   2.598   3.624 -0.1163 -0.4669  0.3494
  179SLPC   H5R20368   7.591   2.615   3.631 -0.1902  0.8341 -1.1821
  179SLPC   H5S20369   7.463   2.489   3.630  1.5431 -0.8113 -0.0844
  179SLPC   C2620370   7.414   2.664   3.747 -0.0744  0.6235 -0.2237
  179SLPC   H6R20371   7.313   2.616   3.747  0.0030  0.4033  1.3744
  179SLPC   H6S20372   7.407   2.773   3.726  1.0919  1.0743  1.5265
  179SLPC   C2720373   7.499   2.634   3.876  0.1003  0.6966  0.2511
  179SLPC   H7R20374   7.607   2.637   3.852  0.4563  0.4087  1.7117
  179SLPC   H7S20375   7.497   2.525   3.898 -1.4102  0.2179 -1.9157
  179SLPC   C2820376   7.461   2.704   4.004  0.2293  0.4174 -0.2181
  179SLPC   H8R20377   7.470   2.814   3.994  2.2290  0.1801 -1.4022
  179SLPC   H8S20378   7.529   2.672   4.085 -0.5428  2.4035  1.3046
  179SLPC   C2920379   7.327   2.674   4.054  0.2360 -0.1413 -0.6384
  179SLPC   H9R20380   7.245   2.690   3.982  0.8967  0.2914 -1.3050
  179SLPC  C21020381   7.291   2.647   4.179  0.0117 -0.9121  0.0729
  179SLPC  H10R20382   7.186   2.626   4.203  0.1311  0.9074  2.6612
  179SLPC  C21120383   7.382   2.627   4.296 -0.0834 -0.2287  0.0825
  179SLPC  H11R20384   7.373   2.717   4.360  0.8099 -0.6783  0.8705
  179SLPC  H11S20385   7.492   2.625   4.278  0.3525  0.5932  2.3462
  179SLPC  C21220386   7.348   2.514   4.386  0.0920 -0.2022  0.2603
  179SLPC  H12R20387   7.242   2.506   4.411 -0.3306 -1.9804 -1.8102
  179SLPC  C21320388   7.431   2.439   4.463  0.1384 -0.5111 -0.1579
  179SLPC  H13R20389   7.386   2.364   4.530 -0.9637 -1.1026 -1.5127
  179SLPC  C21420390   7.582   2.449   4.462  0.7070  0.4519 -0.2708
  179SLPC  H14R20391   7.622   2.537   4.406  1.8295 -1.3349 -2.4434
  179SLPC  H14S20392   7.624   2.356   4.419  1.1193 -1.5893  4.0004
  179SLPC  C21520393   7.641   2.457   4.605  0.0101 -0.3965 -0.8143
  179SLPC  H15R20394   7.599   2.551   4.647  0.3236 -0.4572 -0.3580
  179SLPC  H15S20395   7.751   2.462   4.587  0.3407  1.4102  1.2794
  179SLPC  C21620396   7.602   2.342   4.710 -0.7550  0.2293  0.2699
  179SLPC  H16R20397   7.641   2.249   4.661  1.5417  0.5638  1.3101
  179SLPC  H16S20398   7.491   2.338   4.712 -0.8087 -2.9908 -1.8481
  179SLPC  C21720399   7.657   2.354   4.849  0.0482 -0.1375  0.2518
  179SLPC  H17R20400   7.626   2.450   4.897 -1.9470 -0.3413 -0.5493
  179SLPC  H17S20401   7.766   2.364   4.834 -0.1647 -1.2701 -2.5996
  179SLPC  C21820402   7.619   2.237   4.932 -0.1019 -0.6290 -0.3049
  179SLPC  H18R20403   7.510   2.244   4.952 -0.2270 -1.5909 -0.5947
  179SLPC  H18S20404   7.663   2.245   5.034  0.5969  2.1231 -0.7377
  179SLPC  H18T20405   7.644   2.137   4.890  2.8138 -0.3567  0.5915
  179SLPC   C3320406   7.340   3.103   3.664  0.6294  0.1526 -0.0296
  179SLPC   H3X20407   7.442   3.124   3.626 -0.2371 -0.8146 -3.1381
  179SLPC   H3Y20408   7.315   2.995   3.653  0.4623  0.4239 -3.0786
  179SLPC   C3420409   7.319   3.151   3.814  0.1579  0.3635 -0.0071
  179SLPC   H4X20410   7.210   3.161   3.833 -0.2915 -0.7431 -1.7685
  179SLPC   H4Y20411   7.363   3.254   3.814 -0.7340  0.9420 -4.1354
  179SLPC   C3520412   7.372   3.061   3.927  0.1490  0.9361 -0.8056
  179SLPC   H5X20413   7.304   2.973   3.928 -1.4427  2.1123 -1.6027
  179SLPC   H5Y20414   7.481   3.042   3.911 -0.0663 -2.0069  0.6039
  179SLPC   C3620415   7.375   3.127   4.069 -0.0552  1.2267 -0.2125
  179SLPC   H6X20416   7.278   3.181   4.072 -0.4294  0.5882  3.1309
  179SLPC   H6Y20417   7.456   3.200   4.087  1.1034 -0.1673  0.3833
  179SLPC   C3720418   7.384   3.025   4.190  0.4352 -0.5132  0.2767
  179SLPC   H7X20419   7.480   2.970   4.198  2.1534  2.4930  2.6632
  179SLPC   H7Y20420   7.301   2.952   4.179  0.3520 -0.8452  2.5915
  179SLPC   C3820421   7.374   3.104   4.319  0.5489  0.3659 -0.4608
  179SLPC   H8X20422   7.286   3.171   4.319  0.5300  0.4022  1.5034
  179SLPC   H8Y20423   7.467   3.163   4.328 -1.1356  3.0227  0.5908
  179SLPC   C3920424   7.366   3.011   4.440 -0.1734 -0.6680 -0.8938
  179SLPC   H9X20425   7.467   2.966   4.454  0.3205  0.3528 -1.0353
  179SLPC   H9Y20426   7.296   2.925   4.442  0.0978 -0.8832 -0.4236
  179SLPC  C31020427   7.334   3.084   4.574 -0.1378 -0.3277 -0.8153
  179SLPC  H10X20428   7.223   3.092   4.576 -0.1299  0.4035 -2.0140
  179SLPC  H10Y20429   7.373   3.187   4.585  0.3596 -0.7314  1.8949
  179SLPC  C31120430   7.388   3.008   4.697  0.2169  0.4813 -0.7338
  179SLPC  H11X20431   7.387   3.069   4.789 -0.0508  0.4438 -0.7125
  179SLPC  H11Y20432   7.498   2.992   4.688  0.5871  0.2850  2.9159
  179SLPC  C31220433   7.328   2.871   4.728  0.2342  0.0909  0.0680
  179SLPC  H12X20434   7.335   2.799   4.644  0.9817 -0.7627  0.8437
  179SLPC  H12Y20435   7.220   2.885   4.754  0.3427  1.8595 -0.2837
  179SLPC  C31320436   7.393   2.812   4.850 -0.6746  0.3323 -0.3474
  179SLPC  H13X20437   7.385   2.892   4.927 -0.4631 -0.4942  0.5442
  179SLPC  H13Y20438   7.503   2.797   4.841 -0.4863  0.0170  1.9601
  179SLPC  C31420439   7.339   2.680   4.915  0.3946 -0.1851  0.0282
  179SLPC  H14X20440   7.346   2.593   4.847 -0.4260 -0.8541  0.7830
  179SLPC  H14Y20441   7.234   2.693   4.947  0.0164 -2.2143 -0.2929
  179SLPC  C31520442   7.414   2.647   5.052  0.6736  0.5218  0.4742
  179SLPC  H15X20443   7.383   2.733   5.115 -3.3866  1.3105 -2.2112
  179SLPC  H15Y20444   7.521   2.644   5.021  0.9437 -0.5515  1.4538
  179SLPC  C31620445   7.386   2.508   5.120 -0.8599 -0.5061  0.2291
  179SLPC  H16X20446   7.420   2.430   5.048  0.5399 -0.2226  0.5398
  179SLPC  H16Y20447   7.276   2.500   5.130 -1.0551  2.2285  0.8992
  179SLPC  C31720448   7.471   2.507   5.247 -0.0654 -0.4320 -0.3931
  179SLPC  H17X20449   7.581   2.497   5.235 -0.1714 -0.5788 -1.2751
  179SLPC  H17Y20450   7.443   2.413   5.300  1.0638  0.2679  1.5645
  179SLPC  C31820451   7.428   2.613   5.348 -0.1828 -0.3288 -0.6989
  179SLPC  H18X20452   7.470   2.592   5.449 -0.3680 -0.5404 -0.6647
  179SLPC  H18Y20453   7.318   2.627   5.341 -0.3973 -1.9559 -1.0497
  179SLPC  H18Z20454   7.471   2.710   5.316  1.8274 -1.2259 -0.9061
  180SLPC     N20455   5.630   3.152   3.005 -0.5859  0.2305  0.4639
  180SLPC   C1320456   5.487   3.096   2.995  0.2075  0.2924  0.6076
  180SLPC  H13A20457   5.465   3.074   2.891 -0.5780 -1.4368  1.0942
  180SLPC  H13B20458   5.457   3.006   3.047 -0.7298  0.3372  0.1630
  180SLPC  H13C20459   5.417   3.173   3.022 -1.5293 -1.1188  0.3010
  180SLPC   C1420460   5.640   3.279   2.918  0.1454  0.4650 -0.3666
  180SLPC  H14A20461   5.728   3.334   2.946 -0.7771 -0.0895  4.7450
  180SLPC  H14B20462   5.652   3.250   2.815  0.1123 -0.2156 -0.1848
  180SLPC  H14C20463   5.553   3.343   2.919  0.0654  0.3842 -1.3484
  180SLPC   C1520464   5.732   3.059   2.964  0.1647  0.5362  0.1913
  180SLPC  H15A20465   5.828   3.106   2.979  0.3530 -0.1204  1.1447
  180SLPC  H15B20466   5.733   2.962   3.010 -0.9875  0.2312 -0.3685
  180SLPC  H15C20467   5.712   3.033   2.861 -1.3403  0.1124  0.5638
  180SLPC   C1220468   5.657   3.177   3.157 -0.2260  0.3261  0.1403
  180SLPC  H12A20469   5.637   3.085   3.211  2.0600  0.5136  1.4460
  180SLPC  H12B20470   5.581   3.251   3.175  0.9928  1.5381  0.4446
  180SLPC   C1120471   5.792   3.219   3.214 -1.0530 -0.7003 -0.3324
  180SLPC  H11A20472   5.870   3.151   3.174 -1.4639 -0.1679 -2.1360
  180SLPC  H11B20473   5.795   3.218   3.325 -1.3702  3.0703 -0.1376
  180SLPC     P20474   5.777   3.473   3.239  0.0582 -0.1617 -0.1868
  180SLPC   O1320475   5.790   3.586   3.138  0.3499 -0.7640  0.1462
  180SLPC   O1420476   5.643   3.449   3.305  0.5230  0.4065  0.4845
  180SLPC   O1220477   5.830   3.351   3.158  0.4534 -0.1576 -0.0433
  180SLPC   O1120478   5.881   3.494   3.356  0.1887  0.5782  0.2684
  180SLPC    C120479   6.015   3.516   3.325 -0.0277 -0.0673  0.1701
  180SLPC    HA20480   6.044   3.502   3.219 -0.8470  5.1802 -1.0262
  180SLPC    HB20481   6.035   3.625   3.334  0.7583 -0.1763 -0.1524
  180SLPC    C220482   6.112   3.428   3.421 -0.2719 -0.0978  0.3831
  180SLPC    HS20483   6.113   3.326   3.377  2.4572 -0.0733  0.2465
  180SLPC   O2120484   6.069   3.423   3.561  0.4171 -0.2602  0.6191
  180SLPC   C2120485   6.091   3.310   3.627  0.2360  0.3174 -0.2949
  180SLPC   O2220486   6.139   3.208   3.575 -0.8790 -0.0073  0.7016
  180SLPC   C2220487   6.064   3.328   3.774 -0.1506  0.8239  0.2798
  180SLPC   H2R20488   6.138   3.380   3.838  0.3405  0.0729  0.3271
  180SLPC   H2S20489   5.972   3.391   3.774 -2.1934 -1.9432  0.5656
  180SLPC    C320490   6.256   3.480   3.408 -0.3420  0.4690 -0.0886
  180SLPC    HX20491   6.278   3.584   3.439  2.5615 -0.1495  0.2389
  180SLPC    HY20492   6.273   3.482   3.298 -0.1464  0.0465 -0.0706
  180SLPC   O3120493   6.337   3.375   3.466 -0.6695 -0.0810 -0.3837
  180SLPC   C3120494   6.403   3.415   3.570  0.5368  0.1888  0.1127
  180SLPC   O3220495   6.419   3.535   3.602  0.7063 -0.0099  0.0299
  180SLPC   C3220496   6.473   3.294   3.637  0.0867  0.5136 -0.3538
  180SLPC   H2X20497   6.577   3.281   3.601 -0.5334 -1.9324 -1.4780
  180SLPC   H2Y20498   6.431   3.198   3.598 -0.4394  0.4788  0.2856
  180SLPC   C2320499   6.039   3.197   3.850 -0.1384 -0.3851  0.4569
  180SLPC   H3R20500   6.136   3.142   3.849 -0.3065 -0.9767  4.0934
  180SLPC   H3S20501   5.966   3.147   3.782 -1.0232  2.4676 -0.8383
  180SLPC   C2420502   5.988   3.211   3.994  1.5877 -0.1438  0.1644
  180SLPC   H4R20503   5.884   3.252   3.993  2.0929  1.2533  1.6057
  180SLPC   H4S20504   6.043   3.290   4.049  0.7388 -0.8403  2.1003
  180SLPC   C2520505   6.006   3.080   4.069  0.3104 -0.0460  0.7775
  180SLPC   H5R20506   6.109   3.041   4.063  0.0638 -0.5127 -1.0550
  180SLPC   H5S20507   5.957   2.993   4.021 -1.0483 -0.2334  2.4281
  180SLPC   C2620508   5.944   3.088   4.210 -0.5861  1.7165 -0.0071
  180SLPC   H6R20509   5.836   3.114   4.204 -1.1301 -0.4359 -0.1522
  180SLPC   H6S20510   5.998   3.163   4.271  1.7070 -0.4387  0.7549
  180SLPC   C2720511   5.979   2.963   4.292  0.2867  0.8160  0.6708
  180SLPC   H7R20512   6.087   2.940   4.283  0.5020  1.0427  2.4525
  180SLPC   H7S20513   5.925   2.879   4.244  1.2002  0.6473 -0.0931
  180SLPC   C2820514   5.938   2.980   4.437 -0.1213  0.3530  0.1534
  180SLPC   H8R20515   5.844   3.040   4.440 -2.1715 -2.6801  3.2054
  180SLPC   H8S20516   6.014   3.050   4.479 -0.8536  1.5770 -0.4803
  180SLPC   C2920517   5.919   2.857   4.512  0.9936  0.2949  0.4880
  180SLPC   H9R20518   5.880   2.770   4.456 -2.0202  2.5487 -1.2353
  180SLPC  C21020519   5.964   2.832   4.634  0.4261 -0.0365 -0.2728
  180SLPC  H10R20520   5.946   2.733   4.677 -0.0130 -0.2356 -0.9062
  180SLPC  C21120521   6.039   2.926   4.727 -0.2276  0.1455  0.1208
  180SLPC  H11R20522   6.103   3.000   4.675 -2.2172  2.3478  0.6386
  180SLPC  H11S20523   6.107   2.853   4.775 -2.7202 -1.5616  1.2939
  180SLPC  C21220524   5.964   3.010   4.823  0.0637 -0.0482  0.2608
  180SLPC  H12R20525   5.943   3.110   4.782  1.9468  0.1102 -0.4328
  180SLPC  C21320526   5.925   2.975   4.944  0.4619  0.0320  0.5163
  180SLPC  H13R20527   5.873   3.049   5.008  0.4384 -0.2409  0.8156
  180SLPC  C21420528   5.951   2.840   5.008  0.1512 -0.4643 -0.0852
  180SLPC  H14R20529   6.051   2.797   4.985 -0.6454 -1.0254 -2.9755
  180SLPC  H14S20530   5.877   2.769   4.964 -2.4014  2.8859 -1.6278
  180SLPC  C21520531   5.922   2.853   5.166  0.6952  0.6142 -0.4661
  180SLPC  H15R20532   5.816   2.851   5.199  1.0795  2.5210  1.1154
  180SLPC  H15S20533   5.974   2.948   5.194 -1.3551  1.9192 -0.9031
  180SLPC  C21620534   5.979   2.742   5.261 -0.0181  0.4291 -0.4697
  180SLPC  H16R20535   6.080   2.728   5.216 -0.9601 -0.7245 -2.3976
  180SLPC  H16S20536   5.926   2.648   5.236  1.7830 -1.1666  1.3855
  180SLPC  C21720537   5.961   2.748   5.404  0.0629 -0.5756  0.1393
  180SLPC  H17R20538   5.852   2.755   5.424 -0.6158 -0.8919 -2.9421
  180SLPC  H17S20539   6.008   2.838   5.447 -2.8695  1.3750 -0.4655
  180SLPC  C21820540   6.021   2.628   5.481  0.0525  0.7018  0.2272
  180SLPC  H18R20541   6.005   2.642   5.590 -4.1283 -1.4309  0.1068
  180SLPC  H18S20542   6.131   2.622   5.470 -0.1465  1.0309 -2.6793
  180SLPC  H18T20543   5.972   2.532   5.456  1.5497 -0.8462  2.8250
  180SLPC   C3320544   6.458   3.283   3.791 -0.8319 -0.3011 -0.2256
  180SLPC   H3X20545   6.354   3.262   3.824 -1.0111 -0.2436 -0.7356
  180SLPC   H3Y20546   6.480   3.383   3.834  0.3360 -0.1923 -1.0289
  180SLPC   C3420547   6.557   3.179   3.855  0.7738  0.1199 -0.1632
  180SLPC   H4X20548   6.664   3.208   3.846  0.5842  1.5056  1.5292
  180SLPC   H4Y20549   6.545   3.083   3.800  1.1618  0.3613 -0.6844
  180SLPC   C3520550   6.528   3.134   3.997 -0.3681 -0.5161 -0.6386
  180SLPC   H5X20551   6.534   3.212   4.075  1.2709 -1.4701  0.2552
  180SLPC   H5Y20552   6.611   3.062   4.017  1.0245  1.3164  0.4566
  180SLPC   C3620553   6.403   3.052   4.018  0.5733 -0.2986  0.4048
  180SLPC   H6X20554   6.397   2.973   3.941  3.4589 -0.8259  0.5836
  180SLPC   H6Y20555   6.311   3.113   4.011  0.5972 -0.2134  0.8083
  180SLPC   C3720556   6.407   2.980   4.156 -0.0771 -0.4737 -0.4455
  180SLPC   H7X20557   6.506   2.931   4.168 -0.8316 -2.1588 -0.7427
  180SLPC   H7Y20558   6.337   2.894   4.169 -0.2895 -0.0262  1.7570
  180SLPC   C3820559   6.371   3.067   4.279 -0.3223  0.3076  0.5676
  180SLPC   H8X20560   6.262   3.089   4.277 -0.1535  1.1451  0.0954
  180SLPC   H8Y20561   6.428   3.162   4.273 -0.9648  0.6147 -1.4857
  180SLPC   C3920562   6.404   2.998   4.405  1.2110 -0.4234  0.0486
  180SLPC   H9X20563   6.509   2.960   4.402  1.0412 -1.3648  2.8347
  180SLPC   H9Y20564   6.340   2.908   4.418 -0.3298  0.4478 -1.2450
  180SLPC  C31020565   6.375   3.075   4.530 -0.3359  0.5098  0.1708
  180SLPC  H10X20566   6.276   3.124   4.527 -0.0741  1.1609  1.3734
  180SLPC  H10Y20567   6.452   3.155   4.529  1.2938 -0.9713  1.0894
  180SLPC  C31120568   6.396   2.989   4.656 -0.4785  0.6462 -0.6649
  180SLPC  H11X20569   6.503   2.961   4.664 -0.6769  0.2790  1.0106
  180SLPC  H11Y20570   6.325   2.904   4.664  1.6696 -1.0649  2.5370
  180SLPC  C31220571   6.363   3.068   4.781 -0.4432  0.1253 -0.4865
  180SLPC  H12X20572   6.266   3.121   4.770 -0.5360  0.2299  0.6979
  180SLPC  H12Y20573   6.429   3.156   4.799 -0.7969  0.2430  0.2833
  180SLPC  C31320574   6.380   2.986   4.912 -0.3190  0.0880 -0.2305
  180SLPC  H13X20575   6.488   2.975   4.937 -0.2285  2.3578  0.5677
  180SLPC  H13Y20576   6.336   2.884   4.907 -0.6249  0.2108 -0.0618
  180SLPC  C31420577   6.304   3.043   5.031  0.2785  1.2176 -0.2229
  180SLPC  H14X20578   6.339   3.000   5.127 -1.5627  1.3302  0.5431
  180SLPC  H14Y20579   6.198   3.016   5.013  0.6040 -0.4458  0.2010
  180SLPC  C31520580   6.303   3.195   5.066  0.2573 -0.3984 -0.3296
  180SLPC  H15X20581   6.307   3.248   4.969  1.9510 -2.2505 -1.3416
  180SLPC  H15Y20582   6.399   3.221   5.116 -0.9502  1.9875  0.9540
  180SLPC  C31620583   6.190   3.234   5.159  0.4892  0.1363  0.6982
  180SLPC  H16X20584   6.202   3.181   5.255 -0.4434 -0.5246  0.4703
  180SLPC  H16Y20585   6.090   3.213   5.114 -0.0249  1.6918  1.0469
  180SLPC  C31720586   6.189   3.382   5.189 -0.1074  0.3762 -1.4272
  180SLPC  H17X20587   6.164   3.446   5.102  0.3281  4.2998  1.0675
  180SLPC  H17Y20588   6.293   3.408   5.219 -0.5972 -1.3767  2.3784
  180SLPC  C31820589   6.109   3.423   5.323  1.0591  0.2410  0.4553
  180SLPC  H18X20590   6.138   3.375   5.419 -1.5243  1.8700  2.1473
  180SLPC  H18Y20591   6.005   3.386   5.313  0.7623  0.6431  1.9026
  180SLPC  H18Z20592   6.107   3.533   5.340 -0.4884  0.1781  0.7934
  181SLPC     N20593   0.712   2.235   2.570 -0.3651 -0.1113  0.1310
  181SLPC   C1320594   0.850   2.297   2.557  0.2883  0.1242 -0.1646
  181SLPC  H13A20595   0.919   2.235   2.612  0.6682 -1.1160 -1.9887
  181SLPC  H13B20596   0.868   2.300   2.451 -0.0764 -1.8703 -0.3107
  181SLPC  H13C20597   0.840   2.398   2.595 -1.2417 -0.2720  0.5942
  181SLPC   C1420598   0.609   2.341   2.544 -0.1638  0.3582 -0.3844
  181SLPC  H14A20599   0.583   2.405   2.626 -1.3482  2.6134 -2.3880
  181SLPC  H14B20600   0.648   2.412   2.473  2.3734  0.1078  0.6701
  181SLPC  H14C20601   0.514   2.301   2.510 -0.4525  2.2695 -2.0663
  181SLPC   C1520602   0.688   2.198   2.704 -0.3867 -0.5610  0.2299
  181SLPC  H15A20603   0.585   2.167   2.714 -0.3262 -1.8949 -2.3468
  181SLPC  H15B20604   0.744   2.114   2.744 -1.9785 -0.6263  2.4622
  181SLPC  H15C20605   0.688   2.281   2.772 -0.0665  1.4525 -2.0915
  181SLPC   C1220606   0.691   2.122   2.463  0.4487 -0.6082  0.1207
  181SLPC  H12A20607   0.698   2.179   2.372  0.4293  1.4888  1.3618
  181SLPC  H12B20608   0.590   2.088   2.480  0.2836  0.5951  1.8022
  181SLPC   C1120609   0.780   2.003   2.480 -0.0637  0.3994 -0.3358
  181SLPC  H11A20610   0.884   2.042   2.477 -0.0321  0.3436  0.0443
  181SLPC  H11B20611   0.772   1.940   2.389 -0.4552  0.4623 -0.3467
  181SLPC     P20612   0.878   1.862   2.668  0.6185  0.3208 -0.1480
  181SLPC   O1320613   0.825   1.736   2.720  0.2211  0.7915  0.1124
  181SLPC   O1420614   1.003   1.863   2.586  0.3886  0.2410 -1.2275
  181SLPC   O1220615   0.751   1.926   2.602 -0.3241  0.0851 -0.0753
  181SLPC   O1120616   0.894   1.965   2.793  0.2667  0.3399  0.0183
  181SLPC    C120617   0.918   1.925   2.928 -0.6319 -0.3590 -0.4007
  181SLPC    HA20618   1.002   1.856   2.950  0.4941  1.2265  0.3817
  181SLPC    HB20619   0.950   2.018   2.979 -0.1874 -0.6469 -0.1534
  181SLPC    C220620   0.786   1.894   3.011  0.5453 -0.2671  0.1859
  181SLPC    HS20621   0.696   1.915   2.950  0.6512  2.7159  0.8945
  181SLPC   O2120622   0.780   1.987   3.131 -0.0209 -0.1656  0.0114
  181SLPC   C2120623   0.664   1.993   3.184 -0.8665  0.6721 -0.3950
  181SLPC   O2220624   0.567   1.931   3.143 -0.2063  0.1905  0.2284
  181SLPC   C2220625   0.670   2.078   3.309 -0.8075  0.0117  0.4938
  181SLPC   H2R20626   0.774   2.071   3.345 -1.3644  0.1380  2.2015
  181SLPC   H2S20627   0.658   2.179   3.265 -0.5898 -0.6290 -1.1276
  181SLPC    C320628   0.767   1.743   3.062 -0.9308  0.1917  0.1944
  181SLPC    HX20629   0.771   1.682   2.970  2.6780 -1.0806  1.0182
  181SLPC    HY20630   0.666   1.733   3.107 -0.1559 -2.0029  1.6249
  181SLPC   O3120631   0.872   1.716   3.162  0.0323 -0.0033  0.2353
  181SLPC   C3120632   0.935   1.599   3.141 -0.2939 -0.2371 -0.0717
  181SLPC   O3220633   0.922   1.527   3.042 -0.1843  0.0275 -0.2626
  181SLPC   C3220634   1.022   1.572   3.273 -0.4411  0.2243 -0.5013
  181SLPC   H2X20635   0.942   1.574   3.350  0.0331  2.8855  0.0055
  181SLPC   H2Y20636   1.088   1.659   3.293 -0.8102  0.3920  0.0260
  181SLPC   C2320637   0.572   2.043   3.420  0.4632 -0.1395 -0.5703
  181SLPC   H3R20638   0.523   1.944   3.414 -1.8658  0.7857  1.6613
  181SLPC   H3S20639   0.476   2.099   3.423  0.3129 -0.4199 -0.1131
  181SLPC   C2420640   0.635   2.080   3.558 -0.1730  0.2687  0.5870
  181SLPC   H4R20641   0.647   2.191   3.564  1.0196  0.0789  3.9014
  181SLPC   H4S20642   0.735   2.032   3.567  1.4365  3.0024 -1.2345
  181SLPC   C2520643   0.541   2.048   3.675  0.9421 -0.3459 -0.0934
  181SLPC   H5R20644   0.509   1.942   3.666 -0.4838  0.2244 -3.3290
  181SLPC   H5S20645   0.450   2.109   3.653 -0.0564 -1.7797 -0.1220
  181SLPC   C2620646   0.597   2.087   3.811 -0.4948 -0.2598 -0.3668
  181SLPC   H6R20647   0.659   2.175   3.788 -0.7935  0.5595  1.7621
  181SLPC   H6S20648   0.657   2.010   3.863  4.1790  1.9276 -1.9911
  181SLPC   C2720649   0.486   2.126   3.907  0.2028  0.1839  0.0195
  181SLPC   H7R20650   0.416   2.040   3.924  1.2665 -0.4952  1.0836
  181SLPC   H7S20651   0.421   2.202   3.858 -0.7124 -0.4487  0.2124
  181SLPC   C2820652   0.542   2.164   4.037 -0.0879 -0.1628  0.3713
  181SLPC   H8R20653   0.596   2.258   4.012 -3.0906  1.3410 -0.9486
  181SLPC   H8S20654   0.606   2.082   4.077 -1.2743 -0.7002  1.2270
  181SLPC   C2920655   0.440   2.208   4.140  0.0483 -0.2668 -0.1057
  181SLPC   H9R20656   0.408   2.313   4.134  2.8245  0.6154 -0.8671
  181SLPC  C21020657   0.396   2.124   4.238 -0.5199 -0.2690 -0.8987
  181SLPC  H10R20658   0.314   2.163   4.300  1.2378 -0.2954  1.5464
  181SLPC  C21120659   0.423   1.974   4.252  0.3994 -0.0451  0.2129
  181SLPC  H11R20660   0.466   1.938   4.157 -1.4813  1.2584 -1.1980
  181SLPC  H11S20661   0.331   1.912   4.264  1.5269 -1.8742 -0.2355
  181SLPC  C21220662   0.520   1.949   4.360 -0.4690 -0.1163  0.3480
  181SLPC  H12R20663   0.622   1.922   4.329 -0.3088  1.6664 -0.8017
  181SLPC  C21320664   0.480   1.933   4.485 -0.8367 -0.2684 -0.3657
  181SLPC  H13R20665   0.556   1.903   4.559 -1.1157 -2.2594 -0.8028
  181SLPC  C21420666   0.341   1.945   4.544 -0.1855 -0.2924 -0.0266
  181SLPC  H14R20667   0.287   1.854   4.509  0.6272 -1.2666  1.1754
  181SLPC  H14S20668   0.288   2.021   4.483  0.0205  0.1339  0.3226
  181SLPC  C21520669   0.330   1.991   4.689  0.7864  0.1163  0.4339
  181SLPC  H15R20670   0.384   1.917   4.752  2.7114  1.4176  0.4280
  181SLPC  H15S20671   0.223   1.989   4.719  0.1682 -0.6203 -1.6373
  181SLPC  C21620672   0.385   2.136   4.713  0.1559 -0.0104 -0.3577
  181SLPC  H16R20673   0.350   2.197   4.627  0.4800 -0.2978 -0.6946
  181SLPC  H16S20674   0.495   2.147   4.703  0.3926 -1.0544  0.7670
  181SLPC  C21720675   0.356   2.200   4.845  0.1423 -0.2656  0.3167
  181SLPC  H17R20676   0.251   2.237   4.847 -0.3972 -1.3937 -2.3502
  181SLPC  H17S20677   0.418   2.292   4.849 -0.5303  0.2695 -0.9592
  181SLPC  C21820678   0.396   2.112   4.958 -0.4363  0.5561 -0.1249
  181SLPC  H18R20679   0.348   2.012   4.959 -1.7047  1.1531 -0.0804
  181SLPC  H18S20680   0.374   2.154   5.058  0.1194 -2.8071  1.5663
  181SLPC  H18T20681   0.505   2.087   4.958 -0.5589 -0.3259  2.3705
  181SLPC   C3320682   1.115   1.446   3.263  0.3637 -0.4224 -0.8038
  181SLPC   H3X20683   1.199   1.475   3.331 -1.9136 -2.1574  3.0819
  181SLPC   H3Y20684   1.158   1.439   3.161  3.2229 -1.5338  0.3599
  181SLPC   C3420685   1.051   1.312   3.299 -0.1903  0.0959 -0.3388
  181SLPC   H4X20686   1.093   1.240   3.226  3.2909 -0.0123  1.5532
  181SLPC   H4Y20687   0.948   1.332   3.264 -0.1228  2.0737  0.4662
  181SLPC   C3520688   1.069   1.266   3.443 -0.3159  0.9181  0.5315
  181SLPC   H5X20689   1.178   1.275   3.467 -0.0504  1.7669 -0.9021
  181SLPC   H5Y20690   1.042   1.158   3.447  0.0277  0.7876 -0.4302
  181SLPC   C3620691   0.998   1.346   3.555 -0.3703 -0.5527  0.2566
  181SLPC   H6X20692   0.888   1.338   3.544 -0.4351  1.0075 -0.4510
  181SLPC   H6Y20693   1.018   1.453   3.532 -0.7667 -0.5939 -0.3147
  181SLPC   C3720694   1.037   1.305   3.700 -0.3311  0.7189  0.1698
  181SLPC   H7X20695   1.138   1.345   3.721  0.3428  0.0774 -1.6493
  181SLPC   H7Y20696   1.021   1.196   3.716 -0.6317  0.9878  1.9837
  181SLPC   C3820697   0.952   1.367   3.815 -0.4046  0.3700  0.6908
  181SLPC   H8X20698   0.845   1.352   3.792 -0.6772  0.1037  2.0491
  181SLPC   H8Y20699   0.963   1.477   3.821 -2.6712  0.6379  0.5782
  181SLPC   C3920700   0.982   1.290   3.942  0.2966  0.6768 -0.4437
  181SLPC   H9X20701   1.088   1.309   3.969  0.1472  0.3919  0.3766
  181SLPC   H9Y20702   0.973   1.182   3.918 -0.8011  0.6922 -0.1418
  181SLPC  C31020703   0.897   1.343   4.060 -0.5800  0.1234  0.7745
  181SLPC  H10X20704   0.795   1.303   4.038 -0.0768 -0.2622 -1.0109
  181SLPC  H10Y20705   0.900   1.454   4.056 -1.4568  0.1313  0.0469
  181SLPC  C31120706   0.940   1.280   4.186 -0.1480  0.6829  0.0516
  181SLPC  H11X20707   1.049   1.295   4.205  0.3734 -2.0210 -0.2821
  181SLPC  H11Y20708   0.931   1.169   4.178  0.3854  0.5224  1.4386
  181SLPC  C31220709   0.849   1.317   4.305  0.5442 -0.0092  0.7386
  181SLPC  H12X20710   0.746   1.296   4.270  0.7868 -2.0558  1.1184
  181SLPC  H12Y20711   0.871   1.421   4.337  0.0678  0.5127 -0.5397
  181SLPC  C31320712   0.880   1.231   4.428 -0.0466  0.2851  0.0712
  181SLPC  H13X20713   0.990   1.230   4.442 -0.1873 -0.7209  1.3200
  181SLPC  H13Y20714   0.851   1.125   4.406  0.6456  0.0253  0.3885
  181SLPC  C31420715   0.815   1.270   4.555 -0.3113  0.0461 -0.2084
  181SLPC  H14X20716   0.705   1.273   4.543 -0.1300  0.3186 -2.1847
  181SLPC  H14Y20717   0.832   1.376   4.587 -0.6829  0.5055 -1.4592
  181SLPC  C31520718   0.872   1.195   4.679 -0.6644 -0.7000 -0.2447
  181SLPC  H15X20719   0.982   1.208   4.670 -0.8157  1.7870  0.5840
  181SLPC  H15Y20720   0.852   1.086   4.683 -1.2608 -0.5585  2.3791
  181SLPC  C31620721   0.808   1.246   4.803  0.1530 -0.1083 -0.3075
  181SLPC  H16X20722   0.702   1.212   4.805 -0.0903  0.6557  0.0346
  181SLPC  H16Y20723   0.818   1.356   4.807  0.5706 -0.1553 -0.0537
  181SLPC  C31720724   0.867   1.200   4.939 -0.1282 -0.3125  0.3129
  181SLPC  H17X20725   0.963   1.252   4.962  0.5714 -0.9033 -1.1348
  181SLPC  H17Y20726   0.903   1.096   4.921  2.7141  0.3760  1.4946
  181SLPC  C31820727   0.769   1.198   5.052 -0.7092 -0.2241  0.5386
  181SLPC  H18X20728   0.719   1.297   5.062  1.5846  0.9673  0.8618
  181SLPC  H18Y20729   0.821   1.177   5.148  2.1274  2.7495 -0.1668
  181SLPC  H18Z20730   0.694   1.120   5.029 -1.3745  0.3633  0.6715
  182SLPC     N20731   4.148   2.755   2.983 -0.0360 -0.0489  0.2818
  182SLPC   C1320732   4.263   2.670   2.933 -0.0814  0.1000 -0.5940
  182SLPC  H13A20733   4.317   2.710   2.848 -0.1226  0.9327 -0.2383
  182SLPC  H13B20734   4.342   2.647   3.003  1.2614 -2.3467 -2.7600
  182SLPC  H13C20735   4.218   2.579   2.898 -2.6043 -0.0749  2.6097
  182SLPC   C1420736   4.070   2.680   3.083  0.7206  0.5781  0.1583
  182SLPC  H14A20737   3.981   2.737   3.106  2.2063  1.7705  3.7936
  182SLPC  H14B20738   4.044   2.581   3.051  0.6218  1.2087 -1.8736
  182SLPC  H14C20739   4.135   2.673   3.170 -1.8089  0.1134  2.1348
  182SLPC   C1520740   4.060   2.793   2.871  0.2889 -0.6686 -0.4787
  182SLPC  H15A20741   3.988   2.871   2.890 -2.2379 -2.3593 -2.4333
  182SLPC  H15B20742   4.113   2.834   2.787 -0.8458 -0.2414 -1.0013
  182SLPC  H15C20743   4.000   2.706   2.848  0.4462 -0.6572 -0.9267
  182SLPC   C1220744   4.210   2.882   3.035 -0.0205  1.3452 -0.2622
  182SLPC  H12A20745   4.265   2.938   2.961  0.9061  0.9004  0.0689
  182SLPC  H12B20746   4.281   2.846   3.107  1.0978 -0.5332 -2.1865
  182SLPC   C1120747   4.117   2.987   3.090 -0.5248 -0.1364 -0.1211
  182SLPC  H11A20748   4.048   3.018   3.009  1.5394  3.8003 -0.6054
  182SLPC  H11B20749   4.173   3.082   3.100 -1.1012  0.2041 -0.1091
  182SLPC     P20750   4.127   2.985   3.344 -0.2012  0.1345  0.1145
  182SLPC   O1320751   4.267   2.951   3.336 -0.2245  0.3068  0.1437
  182SLPC   O1420752   4.110   3.129   3.380 -0.0944 -0.4808 -0.0293
  182SLPC   O1220753   4.049   2.957   3.213 -0.8879  0.0030 -0.0423
  182SLPC   O1120754   4.066   2.893   3.458 -0.5166  0.7595 -0.7014
  182SLPC    C120755   3.938   2.840   3.444 -0.5150  0.0457 -0.4260
  182SLPC    HA20756   3.919   2.802   3.341  0.1785 -0.3635 -0.4087
  182SLPC    HB20757   3.927   2.750   3.507 -0.7603  1.5378  1.7635
  182SLPC    C220758   3.825   2.943   3.487  0.0261  0.1271  0.2831
  182SLPC    HS20759   3.849   3.027   3.418  2.3775 -1.7008 -1.2787
  182SLPC   O2120760   3.838   2.985   3.625  0.4748 -0.2829  0.0363
  182SLPC   C2120761   3.776   3.096   3.657  0.3207 -0.9271  0.8056
  182SLPC   O2220762   3.713   3.168   3.581  0.2889  0.2953  0.6168
  182SLPC   C2220763   3.799   3.136   3.800 -0.2473  0.1092  0.0219
  182SLPC   H2R20764   3.759   3.056   3.866  0.8079  1.0912  1.9346
  182SLPC   H2S20765   3.906   3.125   3.826 -0.3905  0.8925  1.0191
  182SLPC    C320766   3.675   2.895   3.460 -0.2940  0.2380  1.0110
  182SLPC    HX20767   3.661   2.854   3.357 -0.6425  0.9415  0.7681
  182SLPC    HY20768   3.617   2.990   3.451  2.2503  1.9020  1.0408
  182SLPC   O3120769   3.607   2.812   3.558 -0.1161  0.1881 -0.5273
  182SLPC   C3120770   3.634   2.682   3.562 -0.7650  0.4760 -0.1450
  182SLPC   O3220771   3.702   2.617   3.485 -0.1899  0.1130 -0.2563
  182SLPC   C3220772   3.558   2.630   3.685 -0.4999 -0.1460 -0.5808
  182SLPC   H2X20773   3.558   2.519   3.679 -1.4797 -0.1172 -1.4175
  182SLPC   H2Y20774   3.450   2.649   3.664 -0.1037  0.8099 -1.8591
  182SLPC   C2320775   3.749   3.272   3.847 -0.2310 -0.9995  0.5089
  182SLPC   H3R20776   3.648   3.301   3.811  0.1072 -0.4044  0.0175
  182SLPC   H3S20777   3.812   3.352   3.803 -2.0657 -1.3943 -3.2797
  182SLPC   C2420778   3.750   3.295   4.001 -0.7196  0.1199  0.1046
  182SLPC   H4R20779   3.857   3.289   4.030  0.0002  1.2952 -2.0927
  182SLPC   H4S20780   3.715   3.200   4.046  1.1906 -0.4211  0.5340
  182SLPC   C2520781   3.702   3.434   4.051  0.4981 -0.3249  0.5643
  182SLPC   H5R20782   3.617   3.474   3.991 -0.3858 -0.7243  1.5168
  182SLPC   H5S20783   3.788   3.501   4.034  0.4991 -0.2579  0.8380
  182SLPC   C2620784   3.660   3.443   4.200  0.6549 -0.0594 -0.1379
  182SLPC   H6R20785   3.557   3.401   4.208  0.0947  1.3381  0.2170
  182SLPC   H6S20786   3.647   3.543   4.247  0.1060 -0.9870  1.7924
  182SLPC   C2720787   3.764   3.369   4.287 -0.5790  0.5619 -0.3866
  182SLPC   H7R20788   3.869   3.374   4.253 -0.0603 -0.7591  0.9054
  182SLPC   H7S20789   3.738   3.261   4.284 -0.2042  0.4833 -0.8662
  182SLPC   C2820790   3.754   3.410   4.439 -0.5877  0.3591  0.4178
  182SLPC   H8R20791   3.786   3.517   4.441 -1.7810  0.7241  0.7023
  182SLPC   H8S20792   3.830   3.357   4.500 -2.6321 -0.7309  2.1273
  182SLPC   C2920793   3.615   3.385   4.495  0.3170 -0.0875  0.2180
  182SLPC   H9R20794   3.530   3.388   4.425  1.1387  2.0330 -0.7755
  182SLPC  C21020795   3.583   3.359   4.630  0.2360  0.0267  0.2089
  182SLPC  H10R20796   3.477   3.338   4.650 -0.2708 -0.6706 -2.6952
  182SLPC  C21120797   3.683   3.372   4.739  1.0475 -0.2856 -0.4264
  182SLPC  H11R20798   3.725   3.475   4.744  1.6216 -0.5195 -0.3048
  182SLPC  H11S20799   3.774   3.311   4.719  0.1394 -1.3240 -1.5278
  182SLPC  C21220800   3.610   3.319   4.861  0.8494 -0.4499  0.3161
  182SLPC  H12R20801   3.580   3.214   4.853  3.1156 -1.3439  2.3452
  182SLPC  C21320802   3.590   3.381   4.977  0.0422  0.1177  0.5940
  182SLPC  H13R20803   3.522   3.329   5.045 -0.5369  0.7235  0.4905
  182SLPC  C21420804   3.610   3.526   5.020  0.2516  1.2487 -0.4511
  182SLPC  H14R20805   3.530   3.593   4.980  0.3392  2.9655  2.0512
  182SLPC  H14S20806   3.713   3.560   4.996  1.2284 -1.4260 -0.4017
  182SLPC  C21520807   3.608   3.538   5.172  0.0150  0.7992 -0.0614
  182SLPC  H15R20808   3.537   3.471   5.224 -0.3403  0.8432 -0.4866
  182SLPC  H15S20809   3.575   3.642   5.188 -0.7318  0.8525 -1.7457
  182SLPC  C21620810   3.743   3.524   5.240 -0.0885  0.3087 -0.3035
  182SLPC  H16R20811   3.812   3.595   5.191 -0.4553  0.0240 -1.2553
  182SLPC  H16S20812   3.785   3.427   5.207 -1.3630 -0.6747  0.8148
  182SLPC  C21720813   3.749   3.567   5.385 -0.2011  0.2553  0.3877
  182SLPC  H17R20814   3.687   3.509   5.458 -0.1369 -0.1471  0.1266
  182SLPC  H17S20815   3.715   3.672   5.397  0.2939  0.9613 -3.1817
  182SLPC  C21820816   3.896   3.559   5.435 -0.0570 -1.0032  0.5431
  182SLPC  H18R20817   3.971   3.614   5.375 -0.8907  1.6415  1.7884
  182SLPC  H18S20818   3.926   3.452   5.425 -0.4546 -0.9393 -2.2997
  182SLPC  H18T20819   3.914   3.595   5.538  3.4497 -0.5843 -0.0801
  182SLPC   C3320820   3.613   2.685   3.822  0.6336  0.0789  0.1348
  182SLPC   H3X20821   3.584   2.792   3.831 -1.7390 -0.6697  2.2652
  182SLPC   H3Y20822   3.723   2.673   3.828  0.7711  1.5955  1.2601
  182SLPC   C3420823   3.543   2.624   3.940 -0.4027 -0.0612 -0.3124
  182SLPC   H4X20824   3.555   2.514   3.948  0.3009 -0.1068 -1.7096
  182SLPC   H4Y20825   3.434   2.645   3.944 -0.0572  1.7959  1.4648
  182SLPC   C3520826   3.610   2.677   4.065  0.1437 -0.1238 -0.5244
  182SLPC   H5X20827   3.632   2.785   4.053  0.8547  0.0629  1.8775
  182SLPC   H5Y20828   3.697   2.618   4.102 -0.0699  0.2383  0.6088
  182SLPC   C3620829   3.510   2.669   4.185  0.3880 -0.1024  0.5455
  182SLPC   H6X20830   3.489   2.560   4.189  0.1398 -0.3616 -3.6264
  182SLPC   H6Y20831   3.416   2.726   4.170  0.1233 -0.2015  1.7853
  182SLPC   C3720832   3.574   2.701   4.322  0.2056 -0.2588 -0.4233
  182SLPC   H7X20833   3.628   2.798   4.324  0.5639 -0.3086 -3.0473
  182SLPC   H7Y20834   3.641   2.617   4.350  1.6627  0.4755 -1.5353
  182SLPC   C3820835   3.459   2.698   4.422 -0.1847 -0.3312 -0.5594
  182SLPC   H8X20836   3.400   2.605   4.412  0.2461 -0.6801  0.1027
  182SLPC   H8Y20837   3.386   2.781   4.414 -2.0331 -1.6308  1.5165
  182SLPC   C3920838   3.509   2.710   4.567  0.2289  0.0148 -0.0202
  182SLPC   H9X20839   3.576   2.799   4.563  0.0496  0.2292  1.3673
  182SLPC   H9Y20840   3.573   2.622   4.590 -0.4475 -0.0911  1.6194
  182SLPC  C31020841   3.389   2.727   4.666  0.4155 -0.2648  0.3906
  182SLPC  H10X20842   3.340   2.628   4.658 -2.0800  0.9267  0.0761
  182SLPC  H10Y20843   3.319   2.806   4.631  2.2825  1.3715  0.1310
  182SLPC  C31120844   3.432   2.747   4.812  0.1647 -0.0855  0.4425
  182SLPC  H11X20845   3.490   2.841   4.804 -2.9210  2.0943  1.9145
  182SLPC  H11Y20846   3.499   2.665   4.847  1.4040  0.0049 -1.5325
  182SLPC  C31220847   3.311   2.772   4.905 -0.2672  0.4232  0.7085
  182SLPC  H12X20848   3.229   2.708   4.867 -0.2010  0.1943  0.9470
  182SLPC  H12Y20849   3.275   2.877   4.898  0.6370  0.6915 -0.1844
  182SLPC  C31320850   3.340   2.745   5.051  0.1924  0.3861  0.1975
  182SLPC  H13X20851   3.438   2.787   5.082  0.5763 -0.7016  0.5355
  182SLPC  H13Y20852   3.361   2.636   5.061  1.8462  0.6494 -0.0299
  182SLPC  C31420853   3.227   2.788   5.142  0.1031  0.1016  0.0271
  182SLPC  H14X20854   3.140   2.723   5.118  0.4562 -0.0877 -0.7912
  182SLPC  H14Y20855   3.209   2.895   5.116 -2.0303  0.2111  1.6874
  182SLPC  C31520856   3.258   2.764   5.295  0.2827 -0.3775  0.2729
  182SLPC  H15X20857   3.324   2.676   5.315 -0.3883 -0.9347  0.0685
  182SLPC  H15Y20858   3.169   2.765   5.361  2.1175  0.0775  2.9229
  182SLPC  C31620859   3.345   2.884   5.349 -0.3520 -0.4315 -0.4765
  182SLPC  H16X20860   3.293   2.980   5.330  1.6691  1.3412  2.2459
  182SLPC  H16Y20861   3.441   2.891   5.294 -0.4062  1.7190 -0.3690
  182SLPC  C31720862   3.370   2.863   5.501 -0.5931 -0.0929 -0.2690
  182SLPC  H17X20863   3.401   2.759   5.522 -1.9394 -1.5753 -4.4502
  182SLPC  H17Y20864   3.264   2.864   5.532 -0.5106  1.0810  0.0130
  182SLPC  C31820865   3.447   2.976   5.560  0.0563 -1.0285 -1.0014
  182SLPC  H18X20866   3.540   2.989   5.501 -1.0215  1.8480 -2.2633
  182SLPC  H18Y20867   3.467   2.950   5.666 -0.3213 -1.3931 -1.0186
  182SLPC  H18Z20868   3.396   3.074   5.554 -1.3026 -1.6060  0.6058
  183SLPC     N20869   1.997   3.476   2.982  0.1990  0.5540  0.3987
  183SLPC   C1320870   2.089   3.591   2.948 -0.8664  0.6623 -1.1109
  183SLPC  H13A20871   2.091   3.629   2.847  2.1484  1.2781 -0.9154
  183SLPC  H13B20872   2.058   3.675   3.009 -0.7020  0.1620 -0.3244
  183SLPC  H13C20873   2.191   3.575   2.979 -1.1015  1.5819  0.2681
  183SLPC   C1420874   1.861   3.526   2.973  0.4920  0.4165  0.4095
  183SLPC  H14A20875   1.849   3.607   3.043 -0.1980  0.8764 -0.2172
  183SLPC  H14B20876   1.839   3.570   2.876 -2.1799  0.7337  1.0856
  183SLPC  H14C20877   1.791   3.449   3.004  0.5838  0.3670  0.4936
  183SLPC   C1520878   2.027   3.418   3.123 -0.0388 -0.4491 -0.2249
  183SLPC  H15A20879   2.009   3.503   3.187  1.4165  1.2250 -1.9381
  183SLPC  H15B20880   1.965   3.331   3.138 -0.1565 -0.5325 -1.1255
  183SLPC  H15C20881   2.129   3.384   3.126  0.7681  1.8522  0.5726
  183SLPC   C1220882   2.002   3.375   2.871 -0.0509  0.6314  0.4012
  183SLPC  H12A20883   2.099   3.328   2.876  0.4723  1.4359 -1.3462
  183SLPC  H12B20884   1.985   3.419   2.774 -0.0424  0.9754  0.5519
  183SLPC   C1120885   1.898   3.258   2.878 -0.0946 -0.1952  0.1892
  183SLPC  H11A20886   1.917   3.185   2.796  3.2127  0.5258  0.1565
  183SLPC  H11B20887   1.808   3.318   2.854  1.0364  1.3418 -0.4014
  183SLPC     P20888   1.919   3.042   3.030  0.4892 -0.2242 -0.6583
  183SLPC   O1320889   1.818   2.967   2.959  0.5610 -0.1739  0.5541
  183SLPC   O1420890   2.058   3.012   3.004 -0.5703 -0.3331 -0.0306
  183SLPC   O1220891   1.888   3.195   3.009 -0.1766 -0.8394  0.8341
  183SLPC   O1120892   1.890   3.029   3.185 -0.0647  0.3071 -0.1902
  183SLPC    C120893   1.755   3.060   3.234 -0.1588 -0.0939  0.1192
  183SLPC    HA20894   1.676   3.006   3.177 -0.6415 -0.7843  1.3900
  183SLPC    HB20895   1.738   3.022   3.337 -3.2972 -0.2166 -0.3511
  183SLPC    C220896   1.722   3.212   3.256 -0.6390 -0.2500  0.0212
  183SLPC    HS20897   1.750   3.263   3.162  0.7882 -1.5852 -0.3087
  183SLPC   O2120898   1.797   3.255   3.374  0.1298  0.1193 -0.0356
  183SLPC   C2120899   1.812   3.380   3.387 -0.2637 -0.4879 -0.3536
  183SLPC   O2220900   1.775   3.469   3.307 -0.3126 -0.3339 -0.4998
  183SLPC   C2220901   1.883   3.411   3.523  0.4187  0.4605  0.0714
  183SLPC   H2R20902   1.950   3.327   3.555 -0.7227  0.6238  3.1963
  183SLPC   H2S20903   1.952   3.493   3.494 -0.2782  0.4360 -1.7950
  183SLPC    C320904   1.568   3.239   3.274 -0.3237 -0.2793  0.4505
  183SLPC    HX20905   1.533   3.202   3.176 -0.4694  1.8625 -0.3691
  183SLPC    HY20906   1.559   3.350   3.284 -0.8807 -0.1531 -1.2399
  183SLPC   O3120907   1.509   3.160   3.377 -0.0296 -0.6907  0.0803
  183SLPC   C3120908   1.470   3.218   3.492 -0.1377 -0.1021 -0.2846
  183SLPC   O3220909   1.473   3.337   3.519  0.2740 -0.3236 -0.6311
  183SLPC   C3220910   1.415   3.108   3.593 -0.1550 -0.4694 -0.0553
  183SLPC   H2X20911   1.486   3.023   3.590  2.3928  1.5516 -1.0072
  183SLPC   H2Y20912   1.317   3.087   3.545 -1.2221  1.9377  0.8824
  183SLPC   C2320913   1.771   3.452   3.618  0.1558 -0.1173 -0.6475
  183SLPC   H3R20914   1.705   3.363   3.628  1.1489 -0.6874  1.1276
  183SLPC   H3S20915   1.728   3.542   3.570 -0.0173 -0.7739 -1.7621
  183SLPC   C2420916   1.831   3.505   3.755 -0.4626  0.2673  0.2491
  183SLPC   H4R20917   1.886   3.419   3.797  0.7426  0.3213 -1.1398
  183SLPC   H4S20918   1.747   3.540   3.819  0.0426  0.5384  0.7755
  183SLPC   C2520919   1.935   3.618   3.749 -0.3895  0.1526 -0.7199
  183SLPC   H5R20920   1.911   3.685   3.664 -0.2698  2.0071  0.6610
  183SLPC   H5S20921   2.026   3.562   3.717 -0.5236  0.1984 -1.1908
  183SLPC   C2620922   1.957   3.685   3.885 -0.2607  0.6725 -0.5546
  183SLPC   H6R20923   1.984   3.607   3.959  2.4406  1.5971 -0.4294
  183SLPC   H6S20924   1.864   3.739   3.914 -0.8532 -1.0543  0.9828
  183SLPC   C2720925   2.071   3.774   3.877 -0.0242 -0.3423  0.2708
  183SLPC   H7R20926   2.048   3.853   3.802 -0.5039  0.2078  0.9760
  183SLPC   H7S20927   2.171   3.730   3.858 -0.4268 -1.0584 -0.2115
  183SLPC   C2820928   2.095   3.826   4.023  0.9103 -0.4681  0.3892
  183SLPC   H8R20929   2.114   3.737   4.087  1.8849  0.0213  0.7936
  183SLPC   H8S20930   1.994   3.857   4.055  2.4385  2.4412  2.8625
  183SLPC   C2920931   2.186   3.942   4.057 -0.7606 -0.2049 -0.5885
  183SLPC   H9R20932   2.198   4.008   3.970 -0.4231  0.1204 -0.2988
  183SLPC  C21020933   2.251   3.954   4.173 -0.2619 -0.4058  0.9714
  183SLPC  H10R20934   2.315   4.042   4.183  1.1857 -1.1226 -1.2817
  183SLPC  C21120935   2.219   3.871   4.295 -0.9683 -1.1406  1.3525
  183SLPC  H11R20936   2.221   3.765   4.260 -1.5293 -1.0609  1.0669
  183SLPC  H11S20937   2.121   3.907   4.333 -0.2911  1.6443  0.6463
  183SLPC  C21220938   2.323   3.887   4.405 -0.2352 -0.2669 -0.3380
  183SLPC  H12R20939   2.331   3.989   4.447  3.0000 -0.0775 -1.1588
  183SLPC  C21320940   2.396   3.796   4.479  0.4561 -0.1098  0.3525
  183SLPC  H13R20941   2.457   3.839   4.560 -0.7553 -0.4119  1.4460
  183SLPC  C21420942   2.403   3.643   4.458  0.6028  0.4733 -0.0209
  183SLPC  H14R20943   2.505   3.601   4.441  0.9810  1.5994 -0.5974
  183SLPC  H14S20944   2.353   3.605   4.367  0.7626 -1.5010  0.6524
  183SLPC  C21520945   2.330   3.588   4.582 -0.3436 -0.2180 -0.7878
  183SLPC  H15R20946   2.321   3.478   4.579 -2.5471 -0.1466  0.7092
  183SLPC  H15S20947   2.227   3.628   4.572 -0.0556  0.0274 -3.3447
  183SLPC  C21620948   2.382   3.627   4.724 -0.0878 -0.2764 -0.0170
  183SLPC  H16R20949   2.368   3.736   4.743 -2.7430 -0.6016  0.3400
  183SLPC  H16S20950   2.491   3.607   4.723 -0.2062 -1.0079  0.7680
  183SLPC  C21720951   2.303   3.544   4.830 -0.2481 -0.0351  0.3150
  183SLPC  H17R20952   2.366   3.536   4.921 -0.4128 -0.9666  0.3531
  183SLPC  H17S20953   2.278   3.441   4.797 -2.6974  0.4327  0.4584
  183SLPC  C21820954   2.177   3.622   4.865 -0.4561  0.0213 -0.1348
  183SLPC  H18R20955   2.112   3.657   4.782 -0.4390  1.1427  0.3123
  183SLPC  H18S20956   2.192   3.707   4.935 -0.4478  0.5587 -0.7736
  183SLPC  H18T20957   2.110   3.548   4.913  0.4162 -0.6262  0.1172
  183SLPC   C3320958   1.378   3.148   3.729 -0.1385 -0.0185 -0.4833
  183SLPC   H3X20959   1.322   3.068   3.782 -0.8966  0.7913 -0.0301
  183SLPC   H3Y20960   1.313   3.238   3.723  0.6376  0.5878  0.0349
  183SLPC   C3420961   1.497   3.190   3.815  0.2690 -0.2449 -0.5204
  183SLPC   H4X20962   1.441   3.221   3.905  1.3986  2.4007 -0.6234
  183SLPC   H4Y20963   1.549   3.279   3.773 -0.0744  1.0571  1.6984
  183SLPC   C3520964   1.589   3.075   3.854  0.1618  0.3466  0.7034
  183SLPC   H5X20965   1.669   3.076   3.778  0.2424 -0.8440  0.7594
  183SLPC   H5Y20966   1.528   2.983   3.842 -1.9882  1.7940 -0.1230
  183SLPC   C3620967   1.656   3.085   3.988 -0.5845  0.7285  0.3469
  183SLPC   H6X20968   1.718   2.992   3.994 -2.5961 -0.9083 -2.2833
  183SLPC   H6Y20969   1.575   3.083   4.065 -0.9655  1.4027 -0.0340
  183SLPC   C3720970   1.747   3.202   4.007  0.7387 -0.2968  0.2325
  183SLPC   H7X20971   1.798   3.234   3.914  2.1142  0.0317  1.0779
  183SLPC   H7Y20972   1.823   3.169   4.081  0.3052  2.2749  1.9514
  183SLPC   C3820973   1.685   3.332   4.067 -0.9480 -0.2425 -0.2235
  183SLPC   H8X20974   1.616   3.381   3.995 -1.6191  0.2319  0.7210
  183SLPC   H8Y20975   1.772   3.402   4.068 -2.4147  1.6782 -0.7064
  183SLPC   C3920976   1.628   3.331   4.213 -1.1086  0.6409  1.1009
  183SLPC   H9X20977   1.698   3.277   4.279 -0.3285  1.9821  1.4112
  183SLPC   H9Y20978   1.528   3.283   4.203 -1.3116  0.8806  1.9028
  183SLPC  C31020979   1.619   3.468   4.279 -0.4978  0.2716  0.6811
  183SLPC  H10X20980   1.545   3.539   4.236 -0.2795 -1.0213 -2.0008
  183SLPC  H10Y20981   1.715   3.524   4.267  1.2512 -2.8155 -0.8630
  183SLPC  C31120982   1.592   3.462   4.433 -0.0291 -0.0845  0.9592
  183SLPC  H11X20983   1.627   3.562   4.467  0.1929  0.5150 -0.8824
  183SLPC  H11Y20984   1.664   3.393   4.481 -0.1881 -1.5935 -0.8416
  183SLPC  C31220985   1.453   3.421   4.478 -0.3346 -0.4254 -0.0912
  183SLPC  H12X20986   1.412   3.327   4.436 -2.1844  0.5446 -0.6021
  183SLPC  H12Y20987   1.378   3.495   4.440  1.0611 -0.1243 -2.4784
  183SLPC  C31320988   1.431   3.432   4.630  0.8306 -0.4551 -0.2412
  183SLPC  H13X20989   1.515   3.495   4.668  0.0824  1.0746 -1.0556
  183SLPC  H13Y20990   1.447   3.331   4.675  1.4407  0.0279  0.6534
  183SLPC  C31420991   1.296   3.493   4.681 -0.0186 -0.0606  0.4770
  183SLPC  H14X20992   1.231   3.404   4.667  2.3091 -1.6516 -0.9454
  183SLPC  H14Y20993   1.273   3.570   4.604 -0.2211  0.1987  0.7947
  183SLPC  C31520994   1.299   3.560   4.818 -0.1749 -0.1125 -0.1341
  183SLPC  H15X20995   1.198   3.589   4.854 -0.0646 -0.1893  0.2447
  183SLPC  H15Y20996   1.359   3.652   4.799 -0.2322  0.1342  0.8262
  183SLPC  C31620997   1.365   3.479   4.934 -1.0388 -0.1561 -0.4583
  183SLPC  H16X20998   1.472   3.454   4.918 -1.0025  0.0077 -0.4764
  183SLPC  H16Y20999   1.313   3.380   4.930 -0.0041 -0.7603  0.5371
  183SLPC  C31721000   1.351   3.542   5.069 -0.7377 -0.4057 -0.2084
  183SLPC  H17X21001   1.401   3.641   5.064 -2.4103  0.4453 -0.8661
  183SLPC  H17Y21002   1.411   3.482   5.140 -0.6606 -2.9770 -2.2667
  183SLPC  C31821003   1.215   3.554   5.114 -0.0247  0.5993 -0.3755
  183SLPC  H18X21004   1.164   3.460   5.141  0.4397  0.4571  0.0268
  183SLPC  H18Y21005   1.148   3.614   5.049  0.5698  1.4493 -0.2309
  183SLPC  H18Z21006   1.197   3.613   5.207  0.8232 -1.6515  1.2983
  184SLPC     N21007   3.883   6.431   2.941  0.1048  0.1571 -0.0595
  184SLPC   C1321008   3.852   6.323   3.044  0.0979  0.1627  0.0939
  184SLPC  H13A21009   3.750   6.292   3.025  0.6067 -1.3322 -0.3543
  184SLPC  H13B21010   3.901   6.227   3.036 -1.6694 -0.8682  0.9498
  184SLPC  H13C21011   3.870   6.361   3.143 -0.5338  0.3565  0.1357
  184SLPC   C1421012   3.854   6.563   3.003  0.5884  0.3133 -0.0785
  184SLPC  H14A21013   3.920   6.575   3.087  1.2027 -0.5034 -0.4327
  184SLPC  H14B21014   3.861   6.636   2.923 -2.3451  0.2894 -0.4721
  184SLPC  H14C21015   3.754   6.567   3.044  1.6070 -1.5764  2.9239
  184SLPC   C1521016   3.797   6.411   2.820 -0.1985 -0.0703  0.0286
  184SLPC  H15A21017   3.691   6.404   2.837 -0.1434  0.4047  0.6216
  184SLPC  H15B21018   3.819   6.495   2.756  0.1812  0.8754  1.3599
  184SLPC  H15C21019   3.839   6.321   2.777  2.4002  0.4516  1.2699
  184SLPC   C1221020   4.023   6.416   2.896 -0.2443  0.5030  0.3498
  184SLPC  H12A21021   4.078   6.469   2.972 -0.8472  0.8012  0.5885
  184SLPC  H12B21022   4.045   6.476   2.809  1.1593  0.7053  0.8270
  184SLPC   C1121023   4.085   6.281   2.868  0.6417 -0.3458  0.2879
  184SLPC  H11A21024   4.111   6.226   2.960 -1.2549 -2.5676 -0.3837
  184SLPC  H11B21025   4.180   6.303   2.815 -0.5267  1.6250 -1.1898
  184SLPC     P21026   3.978   6.050   2.830 -0.0936 -0.0492  0.0285
  184SLPC   O1321027   3.852   6.000   2.776 -0.0274  0.1430  0.4278
  184SLPC   O1421028   4.093   5.985   2.779 -0.6158  0.1051  0.0991
  184SLPC   O1221029   3.998   6.199   2.789 -0.2496 -0.1008  0.1133
  184SLPC   O1121030   3.974   6.051   2.988  0.6554  0.5557  0.5761
  184SLPC    C121031   4.026   5.935   3.054 -0.2639  0.5014 -0.2112
  184SLPC    HA21032   3.961   5.845   3.044  0.3342  0.2677 -2.6748
  184SLPC    HB21033   4.131   5.912   3.027  0.5661  1.2731  2.1054
  184SLPC    C221034   4.027   5.964   3.204 -0.2933  0.4684 -0.1906
  184SLPC    HS21035   4.052   5.870   3.258  1.9202  0.6210 -0.8341
  184SLPC   O2121036   3.907   6.030   3.246 -0.3066 -0.4733  0.1942
  184SLPC   C2121037   3.811   5.939   3.277 -0.1620  0.2991  0.0349
  184SLPC   O2221038   3.836   5.817   3.288  0.1633 -0.2329 -0.8162
  184SLPC   C2221039   3.678   5.999   3.314 -0.0642 -0.4237 -0.2863
  184SLPC   H2R21040   3.643   6.066   3.232 -0.2426  0.6566  0.6495
  184SLPC   H2S21041   3.603   5.917   3.316 -2.1925  1.3710 -1.1596
  184SLPC    C321042   4.152   6.048   3.238 -0.2942  0.3253 -0.0748
  184SLPC    HX21043   4.135   6.148   3.193 -0.7515 -0.2329 -1.1759
  184SLPC    HY21044   4.246   6.004   3.198 -1.0999 -1.3316 -0.2474
  184SLPC   O3121045   4.170   6.054   3.380 -0.5122 -0.1873  0.1385
  184SLPC   C3121046   4.131   6.166   3.436 -0.0484 -0.0003 -0.1558
  184SLPC   O3221047   4.065   6.258   3.387  0.2186 -0.2474  0.2387
  184SLPC   C3221048   4.166   6.158   3.582  0.7423  0.6737  0.1666
  184SLPC   H2X21049   4.109   6.240   3.631  0.1609 -0.6100  1.7427
  184SLPC   H2Y21050   4.275   6.163   3.602  0.7403  0.8693  0.1344
  184SLPC   C2321051   3.699   6.096   3.437  0.8273  0.1632 -0.1164
  184SLPC   H3R21052   3.619   6.174   3.431  1.5650  0.8481 -1.3802
  184SLPC   H3S21053   3.795   6.151   3.444  1.6088 -1.2712  0.8597
  184SLPC   C2421054   3.669   6.031   3.576 -0.6236 -0.0613 -0.6661
  184SLPC   H4R21055   3.736   5.944   3.589 -1.7460 -1.0448 -1.2660
  184SLPC   H4S21056   3.567   5.986   3.579  0.1262 -1.8276 -0.5267
  184SLPC   C2521057   3.673   6.125   3.693  0.1201  0.0306  0.1846
  184SLPC   H5R21058   3.593   6.201   3.679 -0.3922 -0.6864 -0.8692
  184SLPC   H5S21059   3.773   6.173   3.697  0.1756 -0.1043  0.4767
  184SLPC   C2621060   3.665   6.064   3.830  0.0681  0.1396  0.0799
  184SLPC   H6R21061   3.650   6.151   3.898 -1.4362 -1.2855  1.6520
  184SLPC   H6S21062   3.762   6.018   3.860 -1.0019 -1.8850  0.5832
  184SLPC   C2721063   3.559   5.967   3.855 -0.5757  0.4112  0.8180
  184SLPC   H7R21064   3.583   5.877   3.795 -1.8505  0.3410  0.3869
  184SLPC   H7S21065   3.462   6.010   3.821 -0.2571  2.7333  2.6178
  184SLPC   C2821066   3.540   5.945   4.007  1.5688  0.4397  0.3375
  184SLPC   H8R21067   3.448   5.888   4.035  0.8414  1.6106  0.3900
  184SLPC   H8S21068   3.522   6.051   4.033  1.8317  1.0324 -1.7314
  184SLPC   C2921069   3.668   5.883   4.073 -0.2579  0.0414  0.8222
  184SLPC   H9R21070   3.731   5.810   4.019  1.2345  1.0843  1.0840
  184SLPC  C21021071   3.699   5.906   4.200 -0.3309  0.3275  0.1799
  184SLPC  H10R21072   3.781   5.844   4.239 -0.6658 -1.3289 -1.6341
  184SLPC  C21121073   3.609   5.990   4.285 -0.5027 -0.0839 -0.1626
  184SLPC  H11R21074   3.502   5.967   4.271  0.0015 -1.4773 -2.0857
  184SLPC  H11S21075   3.617   6.097   4.259 -0.9003  0.1921  0.7907
  184SLPC  C21221076   3.660   5.961   4.433  0.5038 -0.6098  0.8699
  184SLPC  H12R21077   3.716   6.047   4.474 -0.1896  1.0732 -1.5139
  184SLPC  C21321078   3.620   5.858   4.503 -0.0804  0.3821 -0.0697
  184SLPC  H13R21079   3.672   5.841   4.598  0.2370 -1.2779 -0.5189
  184SLPC  C21421080   3.534   5.744   4.456 -0.3354 -0.0659 -0.6487
  184SLPC  H14R21081   3.586   5.687   4.376 -2.0366 -2.4414 -0.1586
  184SLPC  H14S21082   3.432   5.773   4.423 -1.2561 -0.9851  1.2646
  184SLPC  C21521083   3.518   5.646   4.572 -0.2483 -0.0276 -0.1342
  184SLPC  H15R21084   3.613   5.590   4.589  0.6458  1.7090  0.8787
  184SLPC  H15S21085   3.443   5.571   4.540 -3.0675  1.8049  1.6586
  184SLPC  C21621086   3.462   5.701   4.703 -0.4319 -0.7477  0.0907
  184SLPC  H16R21087   3.374   5.765   4.680  1.4117  1.7481 -0.3739
  184SLPC  H16S21088   3.539   5.763   4.752  0.5973 -0.2500 -2.0300
  184SLPC  C21721089   3.415   5.599   4.803 -0.3222 -0.2585  0.0111
  184SLPC  H17R21090   3.365   5.518   4.746 -0.1937  0.6533 -1.4527
  184SLPC  H17S21091   3.345   5.651   4.872  3.0478  2.7099  1.5047
  184SLPC  C21821092   3.524   5.548   4.892  0.0211 -1.1914 -0.1602
  184SLPC  H18R21093   3.463   5.502   4.973 -0.2880  1.1089  0.9738
  184SLPC  H18S21094   3.583   5.627   4.942 -1.0359 -0.7566  0.4409
  184SLPC  H18T21095   3.592   5.475   4.841  1.1780 -0.7778  0.7592
  184SLPC   C3321096   4.107   6.037   3.656  0.4242  0.1416 -0.0795
  184SLPC   H3X21097   4.169   5.946   3.638 -1.0429 -1.0287  0.5953
  184SLPC   H3Y21098   4.004   6.020   3.618  0.2981  0.7112 -0.0053
  184SLPC   C3421099   4.101   6.062   3.813 -0.2487  0.6025  0.9258
  184SLPC   H4X21100   4.028   6.143   3.835  0.2754  1.3723 -0.0919
  184SLPC   H4Y21101   4.204   6.102   3.828 -0.5338  1.4499  0.6896
  184SLPC   C3521102   4.080   5.936   3.895  0.6056  0.3450 -0.5389
  184SLPC   H5X21103   4.164   5.864   3.888  1.3963  1.1311  0.4994
  184SLPC   H5Y21104   3.988   5.882   3.863 -0.3451  1.5626  0.0606
  184SLPC   C3621105   4.057   5.967   4.043  0.1396  0.6712 -0.5528
  184SLPC   H6X21106   3.963   6.023   4.063  0.0447  0.4073 -0.2631
  184SLPC   H6Y21107   4.146   6.029   4.070  0.2353  0.4798 -0.4239
  184SLPC   C3721108   4.060   5.848   4.132 -0.1949 -0.4247 -0.3657
  184SLPC   H7X21109   4.132   5.776   4.088  1.3868  0.3956  0.8020
  184SLPC   H7Y21110   3.964   5.793   4.143  0.1003 -0.7570  0.6423
  184SLPC   C3821111   4.101   5.896   4.272  0.7158  0.4331 -0.0294
  184SLPC   H8X21112   4.030   5.976   4.305 -0.6315 -0.5435 -0.4579
  184SLPC   H8Y21113   4.206   5.933   4.274  1.4103 -1.4256  2.8576
  184SLPC   C3921114   4.089   5.779   4.375 -0.0022 -0.1079  0.3439
  184SLPC   H9X21115   4.178   5.711   4.369  0.0448 -0.1365  1.2490
  184SLPC   H9Y21116   3.996   5.720   4.361  0.0955  0.3559 -2.9968
  184SLPC  C31021117   4.092   5.828   4.518 -0.8549  0.6051 -0.2149
  184SLPC  H10X21118   4.022   5.910   4.546 -0.1845  1.1397 -0.0770
  184SLPC  H10Y21119   4.194   5.870   4.531  0.6380 -2.5165 -1.1367
  184SLPC  C31121120   4.065   5.714   4.622  0.2523 -0.0239 -0.3574
  184SLPC  H11X21121   4.130   5.626   4.607  0.2837 -0.6417  2.7549
  184SLPC  H11Y21122   3.958   5.686   4.626  0.4057 -0.5040  1.6296
  184SLPC  C31221123   4.110   5.766   4.758 -0.1104 -0.1239  0.1841
  184SLPC  H12X21124   4.086   5.873   4.774 -0.2586 -0.2748  0.9795
  184SLPC  H12Y21125   4.221   5.757   4.756 -0.1154 -0.8157 -2.9612
  184SLPC  C31321126   4.047   5.683   4.871  0.3502 -0.1932 -0.0339
  184SLPC  H13X21127   4.059   5.575   4.850 -0.0149 -0.1254 -0.6030
  184SLPC  H13Y21128   3.938   5.705   4.871  0.5533  1.3996 -3.1152
  184SLPC  C31421129   4.099   5.718   5.013 -0.5954 -0.1227 -0.2781
  184SLPC  H14X21130   4.103   5.828   5.031 -0.1611  0.1997 -2.1175
  184SLPC  H14Y21131   4.198   5.670   5.028 -0.0146  1.1665  0.2318
  184SLPC  C31521132   4.012   5.652   5.120 -0.5068 -1.1439 -0.5701
  184SLPC  H15X21133   4.009   5.541   5.121  1.6362 -1.2793  1.5350
  184SLPC  H15Y21134   3.912   5.700   5.112 -0.3443 -0.8271 -0.7320
  184SLPC  C31621135   4.051   5.693   5.258  0.1477 -0.1282 -0.1875
  184SLPC  H16X21136   4.047   5.804   5.264  2.5934  0.0290 -0.3723
  184SLPC  H16Y21137   4.152   5.651   5.277 -0.4439 -0.7919  1.7604
  184SLPC  C31721138   3.963   5.624   5.359 -0.3755 -0.0656 -0.5043
  184SLPC  H17X21139   3.952   5.517   5.330 -0.6774 -0.2294  0.1903
  184SLPC  H17Y21140   3.859   5.661   5.344 -0.4371 -0.1475 -0.2770
  184SLPC  C31821141   4.004   5.627   5.505 -0.3956 -0.5743  0.3709
  184SLPC  H18X21142   4.088   5.555   5.512 -1.3061 -1.7848 -0.8330
  184SLPC  H18Y21143   3.932   5.576   5.573 -1.0205 -2.4650 -1.6016
  184SLPC  H18Z21144   4.036   5.728   5.539 -3.1563  0.3681  0.4308
  185POPC     N21145   5.052   1.686   7.813 -0.2106 -0.3290 -0.5321
  185POPC   C1221146   4.911   1.642   7.788  0.4829  0.4969 -0.0032
  185POPC  H12A21147   4.837   1.694   7.847  0.2177 -0.2403  0.3309
  185POPC  H12B21148   4.907   1.535   7.806 -1.7592  0.0363 -2.5688
  185POPC   C1321149   5.078   1.825   7.754  0.9582  0.0897 -0.0125
  185POPC  H13A21150   5.060   1.813   7.648 -0.4594 -0.9364  0.3038
  185POPC  H13B21151   5.016   1.902   7.797  0.0145 -0.4304 -0.4210
  185POPC  H13C21152   5.182   1.852   7.759  0.7910  0.7273  0.1317
  185POPC   C1421153   5.076   1.699   7.963 -0.0502 -0.4272 -0.6014
  185POPC  H14A21154   5.003   1.767   8.003 -0.0363 -0.0028 -1.2950
  185POPC  H14B21155   5.074   1.601   8.009  2.7550  0.1880  1.1103
  185POPC  H14C21156   5.170   1.747   7.986  0.7756 -2.2954  0.1860
  185POPC   C1521157   5.152   1.602   7.747  0.0149  0.5421 -0.2083
  185POPC  H15A21158   5.139   1.503   7.787  1.1925  1.0344  1.4989
  185POPC  H15B21159   5.251   1.634   7.775  0.5150  0.3205 -1.6795
  185POPC  H15C21160   5.146   1.607   7.640  3.0453 -2.6850 -0.6963
  185POPC   C1121161   4.849   1.644   7.643 -0.0209 -0.4349 -0.3541
  185POPC  H11A21162   4.859   1.748   7.606  0.6298 -0.9943 -1.7972
  185POPC  H11B21163   4.745   1.609   7.661  0.6464 -1.2481  2.4844
  185POPC     P21164   4.893   1.401   7.555  0.3474  0.2275 -0.3580
  185POPC   O1321165   4.845   1.373   7.688  0.5371  0.3289 -0.6974
  185POPC   O1421166   5.015   1.334   7.509  0.1918  0.2664 -0.7728
  185POPC   O1221167   4.913   1.559   7.548  0.0385 -0.5670 -0.1955
  185POPC   O1121168   4.772   1.364   7.454 -0.0345  0.4068 -0.4310
  185POPC    C121169   4.789   1.397   7.318  0.3037  0.0489  0.2523
  185POPC    HA21170   4.889   1.378   7.275 -0.0012 -2.8472  0.6233
  185POPC    HB21171   4.772   1.505   7.295  3.1878  0.4976 -0.0597
  185POPC    C221172   4.682   1.329   7.239 -0.5602 -0.4173 -0.2635
  185POPC    HS21173   4.683   1.221   7.266 -3.1977 -0.3822  0.2553
  185POPC   O2121174   4.694   1.354   7.104 -0.1484 -0.3778  0.3192
  185POPC   C2121175   4.705   1.257   7.020 -0.5463  0.1542  0.0144
  185POPC   O2221176   4.716   1.140   7.044 -0.3521  0.3070  0.1426
  185POPC   C2221177   4.683   1.315   6.885 -0.2678  0.1690 -0.1153
  185POPC   H2R21178   4.746   1.407   6.881  0.0506 -0.0870 -1.7562
  185POPC   H2S21179   4.576   1.344   6.885 -0.6228 -1.0884  0.5659
  185POPC    C321180   4.538   1.380   7.284 -0.3558 -0.0701 -0.0310
  185POPC    HX21181   4.544   1.491   7.276 -2.1349 -0.0527 -2.2989
  185POPC    HY21182   4.515   1.358   7.391  3.7822  1.0537  1.2774
  185POPC   O3121183   4.432   1.330   7.193  0.3222 -0.1261 -0.4225
  185POPC   C3121184   4.378   1.214   7.217  0.0447 -0.2006  0.2184
  185POPC   O3221185   4.411   1.132   7.298  0.0935 -0.3998  0.3084
  185POPC   C3221186   4.266   1.186   7.109 -0.0792 -0.3122  0.0383
  185POPC   H2X21187   4.194   1.271   7.111 -0.6688 -0.7856  2.4588
  185POPC   H2Y21188   4.218   1.092   7.144  1.8041 -1.4157 -0.2517
  185POPC   C2321189   4.715   1.215   6.769 -0.0169 -0.0797  0.6382
  185POPC   H3R21190   4.664   1.118   6.787 -2.2755  0.7098 -1.0501
  185POPC   H3S21191   4.826   1.202   6.774 -0.1920 -1.3149  2.8695
  185POPC   C2421192   4.674   1.263   6.633  0.4694 -0.1941  0.7374
  185POPC   H4R21193   4.740   1.348   6.604  3.5093 -2.0827  1.5817
  185POPC   H4S21194   4.569   1.298   6.639 -0.3802 -2.6491  1.2076
  185POPC   C2521195   4.675   1.159   6.521 -0.0115  0.7571  0.5472
  185POPC   H5R21196   4.614   1.072   6.554  0.2859  0.8235  1.2851
  185POPC   H5S21197   4.778   1.123   6.501 -0.5618  0.2816 -1.6600
  185POPC   C2621198   4.621   1.217   6.388 -0.1200  0.1911  0.1688
  185POPC   H6R21199   4.524   1.265   6.414  0.0556 -0.1216  1.5133
  185POPC   H6S21200   4.603   1.142   6.308  1.2042  1.6244 -1.5254
  185POPC   C2721201   4.710   1.318   6.328  0.2858 -0.1750  0.6129
  185POPC   H7R21202   4.817   1.290   6.318  0.1209 -0.8189  0.5870
  185POPC   H7S21203   4.716   1.404   6.398  0.2154 -0.2976  0.7701
  185POPC   C2821204   4.652   1.369   6.196 -0.0956  0.0280 -0.8748
  185POPC   H8R21205   4.668   1.476   6.170  2.6956 -0.9089 -3.6951
  185POPC   H8S21206   4.542   1.358   6.201  0.1392 -2.6544 -0.1937
  185POPC   C2921207   4.692   1.292   6.077  0.6665  0.4912 -0.4379
  185POPC   H9121208   4.644   1.193   6.071  0.8715  0.4338 -1.2690
  185POPC  C21021209   4.767   1.325   5.968  0.0084 -0.2179  0.1608
  185POPC  H10121210   4.795   1.242   5.901 -2.3529 -0.2292 -0.8960
  185POPC  C21121211   4.834   1.456   5.935  0.1885 -0.4339  0.5136
  185POPC  H11R21212   4.944   1.446   5.927  0.0216 -1.2913 -1.3581
  185POPC  H11S21213   4.824   1.536   6.011 -0.1359 -0.1636  0.1937
  185POPC  C21221214   4.786   1.511   5.797  0.0337  0.1396  0.4580
  185POPC  H12R21215   4.679   1.529   5.822  0.0600  1.4279 -0.2282
  185POPC  H12S21216   4.800   1.439   5.713 -1.6873 -0.7107  0.8666
  185POPC  C21321217   4.856   1.645   5.755 -0.3770  0.2431 -0.3130
  185POPC  H13R21218   4.824   1.663   5.650 -0.0730  3.8061  0.0817
  185POPC  H13S21219   4.966   1.630   5.755 -0.3539 -0.0886  2.5873
  185POPC  C21421220   4.807   1.763   5.837  0.3319 -0.6668  0.3450
  185POPC  H14R21221   4.825   1.752   5.947  0.1965 -1.0076  0.3366
  185POPC  H14S21222   4.698   1.771   5.820  0.6263  1.4003 -0.8229
  185POPC  C21521223   4.860   1.903   5.797 -0.0779  0.6256 -0.1728
  185POPC  H15R21224   4.849   1.902   5.687  0.7628 -0.5958 -0.2535
  185POPC  H15S21225   4.970   1.904   5.816 -0.0445 -0.6633 -0.2466
  185POPC  C21621226   4.794   2.015   5.880 -0.3669 -0.5630 -0.1689
  185POPC  H16R21227   4.870   2.096   5.874 -0.1467 -0.7853 -0.4567
  185POPC  H16S21228   4.775   1.982   5.984 -1.9545 -0.3305 -0.3591
  185POPC  C21721229   4.657   2.072   5.827  0.0235 -0.1853 -0.2034
  185POPC  H17R21230   4.590   1.986   5.806 -0.5284  0.0321  0.6237
  185POPC  H17S21231   4.678   2.131   5.736 -1.8221  2.5349  0.9899
  185POPC  C21821232   4.575   2.158   5.926  0.5665 -0.0996  0.1910
  185POPC  H18R21233   4.541   2.104   6.016  2.1718 -1.0634  0.2540
  185POPC  H18S21234   4.488   2.209   5.879  0.7686 -0.0497 -0.1363
  185POPC  H18T21235   4.638   2.247   5.949  0.3642 -0.0697  0.6200
  185POPC   C3321236   4.302   1.153   6.962 -0.0345  0.4406 -0.4888
  185POPC   H3X21237   4.225   1.086   6.919 -0.3679  2.2844 -3.0188
  185POPC   H3Y21238   4.408   1.121   6.966  1.2755  4.3121  0.2536
  185POPC   C3421239   4.284   1.271   6.866  0.4986 -0.3187 -0.1548
  185POPC   H4X21240   4.356   1.349   6.900  0.7661 -1.6512  2.7024
  185POPC   H4Y21241   4.180   1.306   6.882 -0.6424 -3.6011  0.3781
  185POPC   C3521242   4.307   1.232   6.718  0.0058 -0.1880 -0.1102
  185POPC   H5X21243   4.396   1.167   6.705 -0.0473 -0.1624 -0.6285
  185POPC   H5Y21244   4.326   1.327   6.664 -0.8211 -0.2958 -0.6117
  185POPC   C3621245   4.189   1.169   6.643  0.8332  0.4358  0.3042
  185POPC   H6X21246   4.096   1.230   6.650  1.0615  0.7642  0.5355
  185POPC   H6Y21247   4.178   1.070   6.692  4.3039  1.0820  2.7992
  185POPC   C3721248   4.217   1.144   6.495  0.0648  0.6046  0.3610
  185POPC   H7X21249   4.140   1.070   6.463  1.2363  0.1140 -1.4567
  185POPC   H7Y21250   4.313   1.093   6.474  0.9940  1.5303  2.1973
  185POPC   C3821251   4.218   1.275   6.412 -0.3611 -0.6798 -0.1233
  185POPC   H8X21252   4.306   1.333   6.445 -2.2326  1.8509  0.7300
  185POPC   H8Y21253   4.131   1.335   6.446  0.0567  1.4512 -2.4795
  185POPC   C3921254   4.207   1.259   6.266  0.4239 -0.1309 -0.0822
  185POPC   H9X21255   4.303   1.215   6.231 -1.0953 -2.1690 -1.9194
  185POPC   H9Y21256   4.196   1.364   6.234  0.3300 -0.3568 -0.7977
  185POPC  C31021257   4.091   1.167   6.211  0.3211  0.3485  0.0352
  185POPC  H10X21258   3.994   1.211   6.243 -0.8570 -1.6325 -0.6577
  185POPC  H10Y21259   4.097   1.075   6.273 -2.3817 -0.9017 -1.4086
  185POPC  C31121260   4.102   1.146   6.064  0.2125 -0.7052  0.1430
  185POPC  H11X21261   4.202   1.113   6.028  1.1661  0.5893  1.4862
  185POPC  H11Y21262   4.088   1.246   6.018  0.5040 -0.3971  0.7098
  185POPC  C31221263   3.997   1.044   6.011 -0.9512 -0.2500 -0.2885
  185POPC  H12X21264   3.899   1.070   6.058  0.2833 -0.3004  2.5057
  185POPC  H12Y21265   4.015   0.940   6.046 -2.1301 -0.6000 -0.6678
  185POPC  C31321266   3.995   1.041   5.857  0.1379  0.0430  0.1345
  185POPC  H13X21267   3.991   1.148   5.828 -1.9583  0.9456  3.2921
  185POPC  H13Y21268   3.901   1.000   5.815 -0.6064 -0.3390  2.0828
  185POPC  C31421269   4.099   0.950   5.796  0.1391 -0.4037 -0.1733
  185POPC  H14X21270   4.197   0.978   5.839 -0.8394  0.8011  1.3757
  185POPC  H14Y21271   4.098   0.975   5.688  0.7007  0.7974  0.0857
  185POPC  C31521272   4.081   0.796   5.814 -0.1742  0.1443  0.2732
  185POPC  H15X21273   4.000   0.756   5.749  1.6091 -2.5085 -0.4472
  185POPC  H15Y21274   4.046   0.764   5.915  0.7860 -0.9269  0.2828
  185POPC  C31621275   4.199   0.712   5.786  0.5791 -0.2745 -0.7918
  185POPC  H16X21276   4.166   0.607   5.771  0.0672 -0.2109 -0.1381
  185POPC  H16Y21277   4.280   0.732   5.859  0.8780  0.8890 -1.4193
  185POPC  H16Z21278   4.242   0.751   5.691 -0.6417  0.1855 -1.1821
  186POPC     N21279   0.638   6.619   7.736 -0.5164  0.3659 -0.6486
  186POPC   C1221280   0.717   6.544   7.628 -0.0394 -0.4325  0.8967
  186POPC  H12A21281   0.641   6.479   7.585 -0.5784  0.9369 -0.3224
  186POPC  H12B21282   0.790   6.477   7.671 -0.0493 -1.6269 -0.8698
  186POPC   C1321283   0.742   6.698   7.823  0.1465  0.5762 -0.1267
  186POPC  H13A21284   0.809   6.632   7.875  0.3368  0.8432 -0.0271
  186POPC  H13B21285   0.801   6.763   7.759  1.5061 -1.6041 -1.2223
  186POPC  H13C21286   0.691   6.758   7.897  0.4750 -1.2089  1.6262
  186POPC   C1421287   0.534   6.708   7.683  0.3056  0.0542  0.5016
  186POPC  H14A21288   0.491   6.772   7.759  0.8588 -0.6373  1.4209
  186POPC  H14B21289   0.574   6.763   7.599  1.2209  0.0714  0.9416
  186POPC  H14C21290   0.443   6.660   7.650  0.7682  0.1584 -1.0000
  186POPC   C1521291   0.572   6.516   7.830 -0.2382 -0.1001 -0.4228
  186POPC  H15A21292   0.512   6.443   7.779  1.0683 -1.3152 -0.2629
  186POPC  H15B21293   0.510   6.569   7.900 -1.9572 -2.9554  0.3655
  186POPC  H15C21294   0.639   6.465   7.898  1.6471  2.0528 -0.5476
  186POPC   C1121295   0.791   6.634   7.521  0.4071  0.2581  0.0277
  186POPC  H11A21296   0.726   6.713   7.479  0.1032 -0.6867 -1.3227
  186POPC  H11B21297   0.828   6.571   7.438  1.1383  2.3478 -1.3206
  186POPC     P21298   1.028   6.625   7.599 -0.2549 -0.4611  0.1375
  186POPC   O1321299   1.010   6.521   7.706  0.2753 -0.6817 -1.0639
  186POPC   O1421300   1.134   6.720   7.632  0.3727  0.1663 -0.3671
  186POPC   O1221301   0.897   6.705   7.573 -0.1872 -0.1278 -0.0920
  186POPC   O1121302   1.054   6.562   7.461 -0.4177  0.2506  0.2505
  186POPC    C121303   1.099   6.637   7.350 -0.1919 -0.0940  0.8380
  186POPC    HA21304   1.181   6.708   7.373  0.7075 -0.4104 -1.0987
  186POPC    HB21305   1.020   6.706   7.314  3.0528  2.9760 -1.0733
  186POPC    C221306   1.146   6.542   7.236  0.1680  0.1640  0.9549
  186POPC    HS21307   1.229   6.474   7.265  0.2356 -0.6851 -1.1029
  186POPC   O2121308   1.176   6.607   7.111  0.0743 -0.0510  0.0430
  186POPC   C2121309   1.298   6.669   7.120 -0.2414  0.2101  0.3699
  186POPC   O2221310   1.362   6.677   7.222  0.5853  0.5863 -0.4293
  186POPC   C2221311   1.345   6.720   6.984  0.1867  0.5357 -0.6967
  186POPC   H2R21312   1.261   6.782   6.946  0.3483  0.2661 -1.5025
  186POPC   H2S21313   1.349   6.629   6.921 -0.3435 -0.8795  1.2174
  186POPC    C321314   1.039   6.433   7.222  0.0937  0.4731  0.1430
  186POPC    HX21315   0.946   6.486   7.192  0.6739  0.6747 -1.3808
  186POPC    HY21316   1.029   6.377   7.317  2.4448 -0.5465 -0.1373
  186POPC   O3121317   1.085   6.342   7.115  0.1763 -0.2125  0.0064
  186POPC   C3121318   1.040   6.374   6.996 -0.1809  0.3688  0.2977
  186POPC   O3221319   0.980   6.475   6.962  0.5801  0.4701 -0.1667
  186POPC   C3221320   1.068   6.256   6.906  0.1470  0.3425  0.2638
  186POPC   H2X21321   0.977   6.194   6.914  0.5268 -0.2786 -0.1158
  186POPC   H2Y21322   1.145   6.185   6.945  0.0013  1.5637  2.9337
  186POPC   C2321323   1.486   6.781   7.001 -0.1333  0.2985 -0.0383
  186POPC   H3R21324   1.516   6.794   7.108 -1.3364 -0.6364  0.4366
  186POPC   H3S21325   1.494   6.878   6.948 -1.0684 -0.6878 -2.1055
  186POPC   C2421326   1.598   6.682   6.958 -0.3034  0.3801 -0.3696
  186POPC   H4R21327   1.568   6.576   6.976 -3.8939  1.7380  3.0285
  186POPC   H4S21328   1.685   6.713   7.019  0.6957  1.4819 -2.2698
  186POPC   C2521329   1.646   6.704   6.816 -0.3073 -0.7707 -0.4097
  186POPC   H5R21330   1.696   6.804   6.814 -2.4521  0.3462 -1.8736
  186POPC   H5S21331   1.558   6.718   6.750 -1.2211 -1.4793  0.6178
  186POPC   C2621332   1.750   6.590   6.771 -0.1065  0.1209  0.2044
  186POPC   H6R21333   1.692   6.526   6.701 -0.2136  0.1150  0.2997
  186POPC   H6S21334   1.787   6.529   6.856  2.2876 -0.3292 -1.0660
  186POPC   C2721335   1.878   6.650   6.701  0.9527 -0.6750  0.4746
  186POPC   H7R21336   1.940   6.669   6.791  1.5458 -2.0121  0.3744
  186POPC   H7S21337   1.841   6.737   6.644  0.6607 -2.4412 -2.2357
  186POPC   C2821338   1.942   6.558   6.598 -0.3039 -0.0576 -0.0784
  186POPC   H8R21339   1.958   6.462   6.651  0.0755  0.1597  0.2043
  186POPC   H8S21340   2.041   6.594   6.563 -0.7102  1.0190 -0.1611
  186POPC   C2921341   1.858   6.519   6.475  0.1847  0.0653 -0.7590
  186POPC   H9121342   1.763   6.468   6.496 -0.0178  0.1314 -1.4729
  186POPC  C21021343   1.889   6.551   6.350 -0.6288  0.7031  0.2941
  186POPC  H10121344   1.823   6.509   6.273  0.5094 -2.0392  0.6918
  186POPC  C21121345   2.006   6.624   6.302 -0.2313  0.0751  0.5714
  186POPC  H11R21346   2.038   6.694   6.382 -1.4098  0.5502  0.6534
  186POPC  H11S21347   1.973   6.688   6.216  1.6670 -0.0837 -0.3139
  186POPC  C21221348   2.130   6.554   6.254 -0.1613  0.4641  0.3127
  186POPC  H12R21349   2.180   6.497   6.335  0.3473  0.1190 -0.2409
  186POPC  H12S21350   2.190   6.644   6.226 -0.4473  0.4604 -0.3351
  186POPC  C21321351   2.113   6.465   6.135 -0.3667  0.0385  0.1373
  186POPC  H13R21352   2.064   6.370   6.164 -0.4364  0.4049  1.2409
  186POPC  H13S21353   2.215   6.438   6.099 -0.0718  1.3119 -0.0673
  186POPC  C21421354   2.046   6.538   6.020  0.3857  0.3163 -0.7620
  186POPC  H14R21355   2.094   6.638   6.011 -2.6727  2.0809  0.9225
  186POPC  H14S21356   1.940   6.561   6.042 -0.0499 -0.3187 -2.0803
  186POPC  C21521357   2.048   6.471   5.883  0.6694 -0.5352 -0.2163
  186POPC  H15R21358   2.002   6.371   5.897 -1.5384  0.7371  2.7251
  186POPC  H15S21359   2.156   6.452   5.870  0.7030 -1.0342  0.7147
  186POPC  C21621360   1.981   6.549   5.768  0.6322 -1.0295  0.1985
  186POPC  H16R21361   2.020   6.652   5.761 -0.3861 -0.5832  0.8735
  186POPC  H16S21362   1.874   6.564   5.795  0.7719 -0.4689  0.4446
  186POPC  C21721363   1.984   6.490   5.634  0.2756 -0.7976 -0.1799
  186POPC  H17R21364   1.940   6.390   5.654  0.1539 -0.8448 -0.6831
  186POPC  H17S21365   2.086   6.477   5.593  0.3713  2.8865 -1.4001
  186POPC  C21821366   1.911   6.571   5.530  0.2430 -0.1459 -0.1922
  186POPC  H18R21367   1.807   6.582   5.567  0.3504  0.8552 -0.1336
  186POPC  H18S21368   1.909   6.526   5.429  2.6587 -0.3599 -0.2068
  186POPC  H18T21369   1.962   6.670   5.537  0.7558 -0.4424  0.4054
  186POPC   C3321370   1.092   6.300   6.752 -0.0508 -0.7146 -1.0032
  186POPC   H3X21371   1.180   6.364   6.729 -1.4867  2.1881  0.9940
  186POPC   H3Y21372   1.004   6.354   6.712 -2.2050 -2.7501  0.6982
  186POPC   C3421373   1.100   6.179   6.671  0.0394  0.7509 -0.6521
  186POPC   H4X21374   1.012   6.114   6.688  0.8708  0.5795  4.1905
  186POPC   H4Y21375   1.192   6.129   6.708 -1.2775 -0.6676  0.8290
  186POPC   C3521376   1.124   6.206   6.516 -0.1761  0.1425  0.5572
  186POPC   H5X21377   1.222   6.258   6.504  0.2536 -0.9996 -1.4454
  186POPC   H5Y21378   1.036   6.263   6.478  0.1679  0.1858 -0.2010
  186POPC   C3621379   1.128   6.075   6.437 -0.3526 -0.3718 -0.2337
  186POPC   H6X21380   1.026   6.036   6.458 -0.2008 -0.1434  0.9714
  186POPC   H6Y21381   1.202   6.002   6.475 -1.1111 -1.0458 -0.0328
  186POPC   C3721382   1.152   6.101   6.287 -0.1366 -0.3757 -0.5411
  186POPC   H7X21383   1.262   6.113   6.274  0.0746  0.1658  1.5354
  186POPC   H7Y21384   1.088   6.186   6.255  0.2678  0.2342  0.2499
  186POPC   C3821385   1.114   5.972   6.207  0.4394  0.3710 -0.1113
  186POPC   H8X21386   1.005   5.954   6.214  0.5233 -0.1622 -0.1567
  186POPC   H8Y21387   1.167   5.889   6.258 -2.0117 -0.4215  1.2886
  186POPC   C3921388   1.155   5.991   6.063 -0.0043 -1.0141  0.3395
  186POPC   H9X21389   1.257   6.033   6.049 -1.3315  2.0991 -1.0729
  186POPC   H9Y21390   1.084   6.070   6.028 -0.3267 -1.3419  0.2511
  186POPC  C31021391   1.157   5.865   5.978  0.2735 -0.5110 -0.2591
  186POPC  H10X21392   1.074   5.800   6.012 -0.1446 -0.3294 -0.9301
  186POPC  H10Y21393   1.243   5.804   6.015 -0.7993 -1.9417 -0.0480
  186POPC  C31121394   1.166   5.875   5.831 -0.6262  0.2507 -0.0735
  186POPC  H11X21395   1.175   5.780   5.774 -0.3627  1.7056 -2.5965
  186POPC  H11Y21396   1.261   5.929   5.808 -0.6637  0.6328  0.6374
  186POPC  C31221397   1.054   5.957   5.766 -0.3046 -0.5553 -0.3274
  186POPC  H12X21398   1.073   6.064   5.788 -1.7494 -0.6363  1.6195
  186POPC  H12Y21399   0.955   5.930   5.808  0.3778  0.2526  2.0017
  186POPC  C31321400   1.036   5.943   5.617  0.8940  0.0005  0.7660
  186POPC  H13X21401   0.997   5.840   5.605  0.8114 -0.2735  2.9662
  186POPC  H13Y21402   1.132   5.956   5.562  0.8305  1.5873  0.9674
  186POPC  C31421403   0.922   6.036   5.563  0.3455  0.2332 -0.1212
  186POPC  H14X21404   0.947   6.030   5.456 -0.2610  2.1290 -0.4043
  186POPC  H14Y21405   0.931   6.140   5.601  2.5674  0.4182 -1.0419
  186POPC  C31521406   0.776   5.980   5.571  0.2546 -0.2649  0.0732
  186POPC  H15X21407   0.742   6.007   5.673 -0.1794  0.2537 -0.2067
  186POPC  H15Y21408   0.778   5.869   5.562 -0.3949 -0.3754  1.1543
  186POPC  C31621409   0.693   6.031   5.462  0.3335  0.3271 -0.4070
  186POPC  H16X21410   0.588   5.999   5.481  0.1617  1.8083  1.4651
  186POPC  H16Y21411   0.733   6.000   5.363  0.4116  0.1638 -0.3239
  186POPC  H16Z21412   0.685   6.142   5.464 -0.8662  0.2430  1.1377
  187POPC     N21413   4.659   1.099   3.007  0.0779 -0.1565 -0.4590
  187POPC   C1221414   4.606   1.232   3.072  0.1113  0.1270 -0.3884
  187POPC  H12A21415   4.660   1.313   3.025 -2.1912  1.8741 -0.1789
  187POPC  H12B21416   4.650   1.242   3.171  0.1939  1.8502 -0.5623
  187POPC   C1321417   4.809   1.101   3.010  0.0804  0.5120 -0.1965
  187POPC  H13A21418   4.860   1.100   3.105 -0.1634  0.7530 -0.0606
  187POPC  H13B21419   4.852   1.016   2.959  0.3557  1.2657 -1.2474
  187POPC  H13C21420   4.845   1.195   2.971  3.4998  0.8805  3.2976
  187POPC   C1421421   4.611   0.978   3.070 -0.7750  0.6189 -0.1940
  187POPC  H14A21422   4.639   0.972   3.174  2.0536  1.2683 -0.8228
  187POPC  H14B21423   4.505   0.970   3.050 -0.3207 -1.9169 -2.1868
  187POPC  H14C21424   4.648   0.894   3.013  2.3086  1.5748  0.2131
  187POPC   C1521425   4.613   1.113   2.868  0.5075 -0.3362  0.3841
  187POPC  H15A21426   4.509   1.142   2.859  1.0863  1.7333 -0.2401
  187POPC  H15B21427   4.622   1.023   2.810  0.2469  0.5349 -1.0478
  187POPC  H15C21428   4.670   1.184   2.811  0.1583  0.3822  0.9013
  187POPC   C1121429   4.457   1.262   3.075  0.4833 -0.0746 -0.2401
  187POPC  H11A21430   4.414   1.266   2.972  1.8413  3.8068 -0.8256
  187POPC  H11B21431   4.443   1.363   3.119  0.1598 -1.2677  2.6272
  187POPC     P21432   4.424   1.186   3.322  0.1244 -0.0477  0.1976
  187POPC   O1321433   4.295   1.236   3.375  0.4586 -0.3388  0.2400
  187POPC   O1421434   4.543   1.273   3.345  0.2589  0.7060  0.6959
  187POPC   O1221435   4.394   1.172   3.168 -0.0015  0.5052  0.3754
  187POPC   O1121436   4.451   1.039   3.378 -0.4558  0.1702  0.4227
  187POPC    C121437   4.382   0.920   3.334 -0.0097  0.4169 -0.2215
  187POPC    HA21438   4.445   0.832   3.357 -0.6247  0.3013  1.1347
  187POPC    HB21439   4.375   0.933   3.223  1.1010 -0.6992 -0.4412
  187POPC    C221440   4.246   0.906   3.415 -0.4840 -0.0114  0.6903
  187POPC    HS21441   4.197   1.006   3.408 -1.1668 -0.1453  2.6991
  187POPC   O2121442   4.275   0.885   3.556 -0.4656 -0.3144  0.4087
  187POPC   C2121443   4.172   0.899   3.639 -0.6572  0.2039 -0.0587
  187POPC   O2221444   4.058   0.929   3.613  1.2043 -0.5816 -0.2457
  187POPC   C2221445   4.223   0.889   3.783  0.8254  0.0872 -0.6577
  187POPC   H2R21446   4.303   0.962   3.806 -0.8646  1.5127  1.0216
  187POPC   H2S21447   4.282   0.794   3.784  1.4242  0.4586 -0.3272
  187POPC    C321448   4.152   0.803   3.361 -0.0772  0.4419 -0.2517
  187POPC    HX21449   4.162   0.803   3.250 -0.3242  0.6967 -0.2741
  187POPC    HY21450   4.049   0.841   3.376 -1.1743 -2.9508  2.1020
  187POPC   O3121451   4.170   0.671   3.419  0.0006 -0.0234  0.1181
  187POPC   C3121452   4.259   0.597   3.367  0.0044 -0.0295  0.1384
  187POPC   O3221453   4.330   0.626   3.277 -0.3969  0.4744 -0.0698
  187POPC   C3221454   4.283   0.472   3.453 -1.0060  0.3485 -1.1118
  187POPC   H2X21455   4.184   0.422   3.461 -0.6168 -0.5127 -1.5542
  187POPC   H2Y21456   4.320   0.505   3.553  2.0094  0.9245 -2.3327
  187POPC   C2321457   4.117   0.899   3.893  0.2226  0.5421 -0.8900
  187POPC   H3R21458   4.025   0.839   3.870 -0.6244  1.8094 -0.9272
  187POPC   H3S21459   4.073   1.001   3.883  1.3662  1.0104 -1.3532
  187POPC   C2421460   4.172   0.859   4.028  0.0023  0.9486  0.1148
  187POPC   H4R21461   4.263   0.920   4.048 -0.1152  0.6885  1.5725
  187POPC   H4S21462   4.214   0.756   4.032  1.7741  1.6690  1.8546
  187POPC   C2521463   4.084   0.884   4.150  0.3102  1.0132 -0.2484
  187POPC   H5R21464   3.986   0.849   4.112  1.3337 -2.9938  0.4055
  187POPC   H5S21465   4.079   0.992   4.177 -0.0400  0.8317  0.4279
  187POPC   C2621466   4.104   0.797   4.278 -0.0767  0.4362 -0.3603
  187POPC   H6R21467   4.212   0.814   4.299 -0.1935  2.2226 -1.0265
  187POPC   H6S21468   4.084   0.694   4.242  0.0675  0.5778 -0.8605
  187POPC   C2721469   4.014   0.834   4.398 -0.0038 -0.0472  0.0029
  187POPC   H7R21470   3.913   0.848   4.354  0.5163  2.0101 -0.6295
  187POPC   H7S21471   4.059   0.927   4.438  2.8004 -0.0792 -2.6908
  187POPC   C2821472   4.001   0.726   4.508  0.4811 -0.1858 -0.6777
  187POPC   H8R21473   4.103   0.692   4.536 -0.5486 -1.9546  1.1941
  187POPC   H8S21474   3.945   0.644   4.459  0.2788 -0.5897  0.2018
  187POPC   C2921475   3.919   0.764   4.634 -0.3128 -0.3569 -0.0055
  187POPC   H9121476   3.843   0.839   4.608 -0.6611 -1.5039 -2.6401
  187POPC  C21021477   3.949   0.726   4.758 -0.2895  0.6241 -0.1540
  187POPC  H10121478   3.887   0.757   4.844  1.2071  1.2773  0.7289
  187POPC  C21121479   4.059   0.632   4.805 -0.5771  0.2011  1.1893
  187POPC  H11R21480   4.116   0.597   4.717  0.2993  2.5576  0.7459
  187POPC  H11S21481   4.044   0.539   4.864  1.4183  0.9511  3.0274
  187POPC  C21221482   4.169   0.712   4.883 -0.1623 -0.8771  0.6055
  187POPC  H12R21483   4.256   0.645   4.898  0.3345 -0.3644  0.0995
  187POPC  H12S21484   4.121   0.740   4.979  1.3443  1.2930  0.8212
  187POPC  C21321485   4.224   0.834   4.801  0.8432  0.5053  0.1049
  187POPC  H13R21486   4.138   0.898   4.774 -0.1902 -1.2460 -0.9481
  187POPC  H13S21487   4.263   0.790   4.707  1.6582  0.9236  0.2374
  187POPC  C21421488   4.341   0.918   4.846  0.1263  0.1320 -0.3799
  187POPC  H14R21489   4.333   0.930   4.956  0.5441  0.1082 -0.3470
  187POPC  H14S21490   4.329   1.023   4.811 -1.0010 -0.0089 -0.4606
  187POPC  C21521491   4.479   0.858   4.822 -0.7649  0.0883  0.6243
  187POPC  H15R21492   4.492   0.827   4.716 -0.1577 -1.4141  1.1031
  187POPC  H15S21493   4.486   0.764   4.881  3.4287 -0.6153 -0.6105
  187POPC  C21621494   4.599   0.941   4.846 -0.8381  1.0359 -0.1914
  187POPC  H16R21495   4.693   0.883   4.830 -0.0907  2.4091 -1.0166
  187POPC  H16S21496   4.598   0.983   4.949  1.7670 -0.8397  0.7126
  187POPC  C21721497   4.604   1.072   4.759  0.3417  0.2168  0.1653
  187POPC  H17R21498   4.513   1.135   4.774  0.1391 -0.0656  0.1361
  187POPC  H17S21499   4.608   1.053   4.650 -0.4560  1.3665 -0.0859
  187POPC  C21821500   4.732   1.152   4.789  0.2124  0.2530 -0.5167
  187POPC  H18R21501   4.710   1.222   4.872 -0.8753 -1.8192  1.0554
  187POPC  H18S21502   4.770   1.211   4.704 -0.9562  1.3670 -0.2966
  187POPC  H18T21503   4.813   1.090   4.833 -0.4608 -1.6763 -1.8754
  187POPC   C3321504   4.376   0.353   3.391  0.1428 -0.2913  0.4625
  187POPC   H3X21505   4.472   0.403   3.366 -0.0949  0.5484  1.1415
  187POPC   H3Y21506   4.339   0.314   3.294 -1.6643 -0.3945  1.1595
  187POPC   C3421507   4.403   0.231   3.478 -0.4268  0.3709  0.3101
  187POPC   H4X21508   4.468   0.158   3.425  1.1484  2.2204 -0.4354
  187POPC   H4Y21509   4.304   0.183   3.494 -1.3233  1.9388 -0.2706
  187POPC   C3521510   4.471   0.268   3.615 -0.2046 -0.1395 -0.7930
  187POPC   H5X21511   4.386   0.305   3.676 -0.3286 -1.7901  0.0855
  187POPC   H5Y21512   4.548   0.348   3.610  0.9397 -1.2199 -1.1789
  187POPC   C3621513   4.534   0.147   3.683  0.2476 -0.3670 -0.2825
  187POPC   H6X21514   4.622   0.114   3.624 -0.0477 -3.0293  0.6080
  187POPC   H6Y21515   4.460   0.064   3.680  0.9651 -0.9858 -2.0330
  187POPC   C3721516   4.567   0.180   3.831  0.0051 -0.0006 -0.6406
  187POPC   H7X21517   4.479   0.240   3.862 -0.7826 -1.4169 -0.0835
  187POPC   H7Y21518   4.649   0.256   3.833  0.3173 -0.3399  1.4001
  187POPC   C3821519   4.597   0.064   3.926 -0.1331 -0.0163 -0.3660
  187POPC   H8X21520   4.691   0.008   3.904 -0.6037 -1.9071  1.9828
  187POPC   H8Y21521   4.512  -0.008   3.914 -0.6429  0.3571  0.8770
  187POPC   C3921522   4.596   0.111   4.078 -0.2368  0.3164 -0.0963
  187POPC   H9X21523   4.492   0.146   4.099 -0.9368 -1.4123 -0.4854
  187POPC   H9Y21524   4.666   0.196   4.088 -0.3896  0.3683  0.5793
  187POPC  C31021525   4.632  -0.008   4.169 -0.0120 -0.8647  0.7375
  187POPC  H10X21526   4.741  -0.028   4.169 -0.0331 -1.1202 -0.8033
  187POPC  H10Y21527   4.584  -0.099   4.126 -0.1063  0.2381 -1.6274
  187POPC  C31121528   4.575   0.007   4.304  0.4970 -0.7946  0.6016
  187POPC  H11X21529   4.466   0.026   4.294  0.4437 -2.2777 -4.3017
  187POPC  H11Y21530   4.619   0.091   4.363  2.0769 -1.0995 -0.0883
  187POPC  C31221531   4.603  -0.122   4.391  0.1109 -0.9075  1.3900
  187POPC  H12X21532   4.709  -0.154   4.396  0.8850  0.6490 -2.0395
  187POPC  H12Y21533   4.545  -0.201   4.339  0.6926  0.4466 -1.5272
  187POPC  C31321534   4.547  -0.108   4.531 -0.2968 -0.6885  0.6836
  187POPC  H13X21535   4.547  -0.000   4.556 -2.5844 -0.7408  1.1224
  187POPC  H13Y21536   4.613  -0.169   4.597  0.7947 -0.2662 -0.0024
  187POPC  C31421537   4.408  -0.158   4.557 -0.5339  0.3779 -1.3793
  187POPC  H14X21538   4.410  -0.268   4.544  1.0029  0.0507  1.0732
  187POPC  H14Y21539   4.336  -0.109   4.488 -1.0778 -1.8054 -2.4572
  187POPC  C31521540   4.364  -0.141   4.700  0.3461  0.6712 -0.6841
  187POPC  H15X21541   4.376  -0.036   4.733  0.5939  0.7853 -1.1415
  187POPC  H15Y21542   4.431  -0.203   4.764 -0.1347 -1.9394 -2.5532
  187POPC  C31621543   4.221  -0.194   4.725  1.1052 -0.3420 -0.7608
  187POPC  H16X21544   4.204  -0.304   4.714 -2.3694  0.1806 -1.7721
  187POPC  H16Y21545   4.151  -0.136   4.661  0.3022 -0.9253 -0.4332
  187POPC  H16Z21546   4.196  -0.167   4.830 -1.4690  0.3894 -1.4922
  188POPC     N21547   5.038   0.084   2.654  0.6348  0.2948 -0.5292
  188POPC   C1221548   5.084  -0.025   2.749  0.3994  0.9372 -0.5141
  188POPC  H12A21549   5.130   0.032   2.828 -1.0127  2.1738 -0.5487
  188POPC  H12B21550   5.162  -0.080   2.698  2.1872  1.7853  1.1599
  188POPC   C1321551   4.924   0.171   2.703  0.2043 -0.2209  0.2324
  188POPC  H13A21552   4.834   0.113   2.688 -0.4855  0.4006  1.7883
  188POPC  H13B21553   4.927   0.183   2.810  1.8847  0.3621  0.1562
  188POPC  H13C21554   4.913   0.268   2.656  1.7838  0.5773  1.4368
  188POPC   C1421555   5.145   0.184   2.626  0.4644 -0.1878  0.0713
  188POPC  H14A21556   5.105   0.266   2.567  2.3404 -1.0420 -2.5784
  188POPC  H14B21557   5.174   0.235   2.717 -1.1069 -0.4163  0.7146
  188POPC  H14C21558   5.232   0.152   2.570 -1.3841  0.6771 -3.6579
  188POPC   C1521559   4.986   0.025   2.529 -0.2179  0.4691  0.5736
  188POPC  H15A21560   5.068  -0.021   2.477 -0.6351 -1.1160  1.2560
  188POPC  H15B21561   4.949   0.088   2.450 -2.3319 -2.5877 -1.1038
  188POPC  H15C21562   4.905  -0.045   2.543 -0.6252  0.3497 -2.0017
  188POPC   C1121563   4.971  -0.109   2.815 -0.9762  0.0372  0.3202
  188POPC  H11A21564   5.020  -0.203   2.848 -1.2859 -0.5058 -0.7238
  188POPC  H11B21565   4.895  -0.142   2.741 -0.1058 -1.0369 -0.1218
  188POPC     P21566   4.997  -0.026   3.067 -0.3218 -0.1389 -0.5496
  188POPC   O1321567   4.929   0.061   3.170 -0.2216 -0.0744 -0.1051
  188POPC   O1421568   5.142   0.002   3.031  0.3131  0.0951 -0.1350
  188POPC   O1221569   4.917  -0.038   2.929  0.4266 -0.4132 -0.6085
  188POPC   O1121570   5.014  -0.174   3.117  0.1424 -0.6355 -0.2959
  188POPC    C121571   4.899  -0.266   3.108  0.3142  0.0822 -0.1476
  188POPC    HA21572   4.929  -0.372   3.117 -1.4015 -0.3796  0.5240
  188POPC    HB21573   4.854  -0.249   3.007 -1.5912  0.7141  0.7629
  188POPC    C221574   4.788  -0.232   3.216 -0.6073  0.1723 -0.0844
  188POPC    HS21575   4.770  -0.122   3.214 -0.4930  0.1855 -1.5630
  188POPC   O2121576   4.841  -0.269   3.345  0.9080 -0.1445  0.2083
  188POPC   C2121577   4.796  -0.214   3.455 -0.4035 -0.9600  0.6276
  188POPC   O2221578   4.710  -0.128   3.464  0.4830  0.3673 -0.0259
  188POPC   C2221579   4.867  -0.271   3.577  0.3189 -0.1318  0.4039
  188POPC   H2R21580   4.970  -0.229   3.582 -0.3876  2.3135 -2.6640
  188POPC   H2S21581   4.864  -0.382   3.575 -1.2709 -0.1393 -3.2111
  188POPC    C321582   4.653  -0.305   3.190  0.3289  0.0578  0.1880
  188POPC    HX21583   4.682  -0.405   3.152  0.2956  0.6161 -1.3428
  188POPC    HY21584   4.600  -0.256   3.105  1.1419 -1.3509 -1.1652
  188POPC   O3121585   4.574  -0.322   3.314 -0.9882 -0.1535  0.9119
  188POPC   C3121586   4.464  -0.241   3.315  0.0620  0.0940  0.6452
  188POPC   O3221587   4.442  -0.150   3.241 -0.1898 -0.9734  0.1186
  188POPC   C3221588   4.372  -0.286   3.428 -0.2068 -0.0615  0.1623
  188POPC   H2X21589   4.397  -0.393   3.441  1.0408 -0.2900 -3.2036
  188POPC   H2Y21590   4.264  -0.289   3.403 -0.5638 -2.2742  1.7044
  188POPC   C2321591   4.789  -0.220   3.698  0.6287  0.6835 -0.9984
  188POPC   H3R21592   4.684  -0.253   3.689  1.5217 -2.4002 -1.0370
  188POPC   H3S21593   4.777  -0.110   3.707  0.6236  0.5578  0.8553
  188POPC   C2421594   4.850  -0.261   3.831  0.0161  0.3696 -0.1175
  188POPC   H4R21595   4.773  -0.224   3.902 -1.6069  0.3207 -1.7955
  188POPC   H4S21596   4.942  -0.200   3.835  0.2483  0.3496 -3.1432
  188POPC   C2521597   4.873  -0.412   3.859  0.9442  0.6038 -0.0973
  188POPC   H5R21598   4.950  -0.447   3.787  1.1932 -0.4415  0.6490
  188POPC   H5S21599   4.785  -0.476   3.834  0.6442  0.1608  1.9353
  188POPC   C2621600   4.930  -0.450   3.997 -0.1167 -0.3547  1.1208
  188POPC   H6R21601   5.024  -0.391   4.008  0.1391 -0.8731  1.7654
  188POPC   H6S21602   4.955  -0.558   4.008  0.7507 -0.1952  0.8099
  188POPC   C2721603   4.843  -0.400   4.113 -0.1326 -0.2060  0.0617
  188POPC   H7R21604   4.748  -0.458   4.114  1.3433 -2.8050  0.8831
  188POPC   H7S21605   4.818  -0.294   4.094 -1.3622 -0.3612  0.7025
  188POPC   C2821606   4.905  -0.405   4.252  0.0300  0.2286  0.0222
  188POPC   H8R21607   4.838  -0.349   4.320 -0.5609 -0.8817  0.3753
  188POPC   H8S21608   5.004  -0.354   4.247 -0.0095  0.5911  2.0201
  188POPC   C2921609   4.941  -0.535   4.308 -0.3152  0.5740  0.1139
  188POPC   H9121610   5.006  -0.587   4.236 -1.0454  1.0061 -0.8741
  188POPC  C21021611   4.901  -0.601   4.421 -0.1452 -0.5822 -0.0834
  188POPC  H10121612   4.944  -0.695   4.458 -0.9135 -0.8533  0.1530
  188POPC  C21121613   4.791  -0.552   4.517 -0.3843 -0.6174 -0.7524
  188POPC  H11R21614   4.728  -0.641   4.539  0.7253 -1.4370 -0.8224
  188POPC  H11S21615   4.727  -0.474   4.470  0.4445  1.0835  0.7957
  188POPC  C21221616   4.852  -0.483   4.644  0.4763 -0.3527 -0.5948
  188POPC  H12R21617   4.931  -0.413   4.607  1.0349 -1.7623 -2.1588
  188POPC  H12S21618   4.906  -0.557   4.708  2.0619  0.0876 -1.3643
  188POPC  C21321619   4.742  -0.403   4.726  0.5169 -0.8797  0.2297
  188POPC  H13R21620   4.665  -0.470   4.772  0.7750 -0.3948  1.4077
  188POPC  H13S21621   4.687  -0.330   4.664  1.8015  0.0920  0.2059
  188POPC  C21421622   4.799  -0.314   4.839  0.9999 -0.6136 -0.1507
  188POPC  H14R21623   4.899  -0.274   4.811  1.0082 -1.4526 -1.3983
  188POPC  H14S21624   4.822  -0.364   4.936 -0.4797  0.8750  1.0262
  188POPC  C21521625   4.711  -0.195   4.878  0.6719 -0.3382  0.5273
  188POPC  H15R21626   4.610  -0.234   4.903  1.2281 -0.7555  2.2031
  188POPC  H15S21627   4.710  -0.124   4.792  1.5842  0.3154  1.0409
  188POPC  C21621628   4.760  -0.123   5.007  0.1102 -0.5243 -0.0973
  188POPC  H16R21629   4.834  -0.043   4.986 -1.2789  1.2817  1.4990
  188POPC  H16S21630   4.804  -0.199   5.075  0.9354  0.1590  0.1508
  188POPC  C21721631   4.646  -0.054   5.082 -0.2707  0.3336 -0.9598
  188POPC  H17R21632   4.699   0.003   5.161  0.5571  0.3019 -1.4833
  188POPC  H17S21633   4.583  -0.127   5.137 -0.9623  3.1995  2.3618
  188POPC  C21821634   4.559   0.027   4.993 -0.2296  0.0996 -1.1375
  188POPC  H18R21635   4.514   0.113   5.046  0.9227 -1.0302  1.9065
  188POPC  H18S21636   4.482  -0.034   4.942  1.9968 -0.7277 -3.7694
  188POPC  H18T21637   4.611   0.073   4.907 -1.7537 -0.7130 -2.5624
  188POPC   C3321638   4.392  -0.214   3.558 -0.1992 -0.8401  0.2193
  188POPC   H3X21639   4.357  -0.108   3.562  1.3324 -0.3382  3.1621
  188POPC   H3Y21640   4.502  -0.220   3.570 -0.1580  0.9736  1.0899
  188POPC   C3421641   4.314  -0.284   3.668  0.5218  0.4229  0.4785
  188POPC   H4X21642   4.322  -0.391   3.637 -3.1841  0.7846 -2.3173
  188POPC   H4Y21643   4.209  -0.249   3.667  0.5330  0.4653  0.7930
  188POPC   C3521644   4.366  -0.256   3.803  0.2842  0.2574  0.2157
  188POPC   H5X21645   4.354  -0.148   3.826 -2.7061  0.4458 -1.6289
  188POPC   H5Y21646   4.475  -0.276   3.810  0.1051 -0.9104 -0.0920
  188POPC   C3621647   4.294  -0.335   3.911 -0.5452  0.6217  0.6128
  188POPC   H6X21648   4.300  -0.441   3.878 -0.1118  1.4193 -2.0552
  188POPC   H6Y21649   4.192  -0.292   3.923 -0.3220  1.8870 -1.5125
  188POPC   C3721650   4.352  -0.329   4.048  0.3127  0.4335 -0.1943
  188POPC   H7X21651   4.330  -0.225   4.080  0.3523  0.5435 -0.5237
  188POPC   H7Y21652   4.459  -0.348   4.070  0.1273  1.0781  1.3905
  188POPC   C3821653   4.284  -0.435   4.139 -0.4748  0.8222 -0.4902
  188POPC   H8X21654   4.295  -0.535   4.092 -0.7502  0.4912  0.1419
  188POPC   H8Y21655   4.174  -0.417   4.140 -0.6117  0.2033 -2.0035
  188POPC   C3921656   4.335  -0.437   4.285  0.1914  0.8441 -0.1482
  188POPC   H9X21657   4.324  -0.337   4.330  2.0810  1.7067 -1.4527
  188POPC   H9Y21658   4.444  -0.455   4.274  0.3012  1.4487 -0.0799
  188POPC  C31021659   4.270  -0.550   4.365 -0.3181 -0.0449  0.2675
  188POPC  H10X21660   4.305  -0.642   4.313  0.5900  0.7287 -0.5234
  188POPC  H10Y21661   4.159  -0.546   4.369 -0.2894  0.7372  0.3626
  188POPC  C31121662   4.311  -0.559   4.518 -0.1360 -0.7823  0.2012
  188POPC  H11X21663   4.311  -0.457   4.561  0.4360 -0.0620 -1.4423
  188POPC  H11Y21664   4.417  -0.587   4.531 -0.2463 -1.1041  0.4399
  188POPC  C31221665   4.218  -0.656   4.599 -0.2197  0.0631  0.8765
  188POPC  H12X21666   4.221  -0.759   4.557  0.3780  0.4005  0.0538
  188POPC  H12Y21667   4.116  -0.616   4.580 -0.4090 -1.1495 -0.8809
  188POPC  C31321668   4.240  -0.650   4.750  0.4804 -1.2460 -0.0562
  188POPC  H13X21669   4.173  -0.724   4.799  1.2464 -1.1935  1.0999
  188POPC  H13Y21670   4.214  -0.544   4.772 -1.3682 -1.7080  0.1616
  188POPC  C31421671   4.372  -0.688   4.800  0.0890 -0.2568 -0.1174
  188POPC  H14X21672   4.444  -0.624   4.744 -1.9714  1.1627 -1.2719
  188POPC  H14Y21673   4.399  -0.793   4.776 -2.1057 -0.3891 -2.4499
  188POPC  C31521674   4.398  -0.674   4.953 -0.6844 -0.3780 -0.2708
  188POPC  H15X21675   4.369  -0.570   4.977 -1.4291 -0.3665 -1.1826
  188POPC  H15Y21676   4.508  -0.685   4.967 -0.7020 -1.3325 -0.7568
  188POPC  C31621677   4.320  -0.773   5.044  0.3499  0.7143 -0.1335
  188POPC  H16X21678   4.213  -0.760   5.019 -0.6498 -2.3711  1.9816
  188POPC  H16Y21679   4.332  -0.749   5.152 -1.8854 -0.3928  0.4256
  188POPC  H16Z21680   4.342  -0.877   5.011 -1.3284  0.5654 -0.8983
  189SAPI   C1221681   1.240   5.821   8.014 -1.0474  0.7213 -0.8998
  189SAPI    H221682   1.252   5.712   8.031 -2.2152  0.6284 -0.5356
  189SAPI    O221683   1.097   5.843   8.040 -0.1827  0.2674  0.4660
  189SAPI   HO221684   1.078   5.932   8.011  0.6854  0.4227  0.3491
  189SAPI   C1321685   1.338   5.870   8.119  0.4208  0.0140 -0.3841
  189SAPI    H321686   1.439   5.835   8.088  0.2323 -0.6752 -0.2545
  189SAPI    O321687   1.305   5.810   8.241  0.1301  0.1003  0.0821
  189SAPI   HO321688   1.384   5.823   8.292  1.1073  1.5752 -1.6870
  189SAPI   C1421689   1.328   6.022   8.135  0.4918 -0.3725  0.4013
  189SAPI    H421690   1.229   6.044   8.180 -0.3817  0.1853 -1.6540
  189SAPI    O421691   1.428   6.075   8.224 -0.2596 -0.0308 -0.3912
  189SAPI   HO421692   1.395   6.073   8.314 -0.2727 -0.1762 -0.4008
  189SAPI   C1521693   1.336   6.098   7.996  0.5481 -1.1855 -0.1164
  189SAPI    H521694   1.444   6.117   7.984  0.7835 -1.1059  1.7296
  189SAPI    O521695   1.264   6.221   7.998  0.1993  0.1149  0.5442
  189SAPI   HO521696   1.318   6.280   7.945  0.2877 -0.5919 -0.1700
  189SAPI   C1621697   1.305   6.018   7.868  0.1317  0.0064 -0.5631
  189SAPI    H621698   1.202   6.048   7.839 -0.6603 -2.7300 -0.8459
  189SAPI    O621699   1.386   6.052   7.759  0.5330  0.0434  0.0623
  189SAPI   HO621700   1.331   6.078   7.685 -0.9759  0.9087  1.4490
  189SAPI   C1121701   1.305   5.862   7.881  0.0995  0.0870 -0.5540
  189SAPI    H121702   1.412   5.831   7.875  0.2525  0.1722  1.2082
  189SAPI     P21703   1.272   5.665   7.705 -0.0886 -0.2119 -0.3002
  189SAPI   O1321704   1.157   5.566   7.703  0.0377  0.5214  0.0442
  189SAPI   O1421705   1.403   5.625   7.754  0.2196  0.1922 -0.0994
  189SAPI   O1221706   1.227   5.810   7.777  0.1118 -0.1795 -0.0078
  189SAPI   O1121707   1.293   5.709   7.557 -0.0328  0.3212 -0.1688
  189SAPI    C121708   1.263   5.841   7.503 -0.2871  0.8277 -0.1499
  189SAPI    HA21709   1.155   5.862   7.519 -0.2218  1.8188 -0.8610
  189SAPI    HB21710   1.322   5.925   7.546  0.3336 -0.2591  1.1903
  189SAPI    C221711   1.285   5.840   7.342  0.1277 -0.2154 -0.1104
  189SAPI    HS21712   1.224   5.758   7.298 -1.6885  2.4600 -2.9493
  189SAPI   O2121713   1.422   5.835   7.301  0.0211 -0.0188  0.0031
  189SAPI   C2121714   1.456   5.761   7.204 -0.1132 -0.4920 -0.1574
  189SAPI   O2221715   1.386   5.688   7.132  0.4863 -0.3077  0.4629
  189SAPI   C2221716   1.612   5.783   7.187  0.3807  0.2519  0.3163
  189SAPI   H2R21717   1.652   5.842   7.273 -0.5517 -0.2848  1.1299
  189SAPI   H2S21718   1.664   5.685   7.190  1.5070  0.7463 -1.3951
  189SAPI    C321719   1.230   5.968   7.271  0.2072  0.5166  0.5427
  189SAPI    HX21720   1.296   6.054   7.294 -0.1328  0.7275  0.7303
  189SAPI    HY21721   1.126   5.984   7.306 -0.0630 -0.8830  0.4560
  189SAPI   O3121722   1.227   5.950   7.123 -0.0576 -0.3293 -0.2787
  189SAPI   C3121723   1.128   5.874   7.083  0.2073 -0.3724  1.0532
  189SAPI   O3221724   1.042   5.820   7.155 -0.3767 -0.5516 -0.1218
  189SAPI   C3221725   1.123   5.895   6.933 -0.1754  0.0035  0.9868
  189SAPI   H2X21726   1.191   5.976   6.899 -0.2250  0.1678  1.2769
  189SAPI   H2Y21727   1.019   5.910   6.896 -0.4392 -3.0605  0.2784
  189SAPI   C2321728   1.632   5.852   7.050  0.0086 -0.1229  0.1029
  189SAPI   H3R21729   1.569   5.944   7.054 -1.5652 -0.9568 -2.6713
  189SAPI   H3S21730   1.590   5.785   6.972  0.7702 -0.7932  0.2605
  189SAPI   C2421731   1.779   5.888   7.013 -0.2838 -0.1727 -0.4182
  189SAPI   H4R21732   1.839   5.795   7.009 -0.2736 -0.1865  0.0327
  189SAPI   H4S21733   1.814   5.960   7.090  0.1211  0.0238 -0.7757
  189SAPI   C2521734   1.788   5.955   6.878 -0.0052 -0.8954 -0.0633
  189SAPI   H5R21735   1.729   6.045   6.856 -0.3642 -1.6820 -2.6471
  189SAPI   C2621736   1.866   5.920   6.775 -0.1797  0.1690 -0.3723
  189SAPI   H6R21737   1.883   5.985   6.688  0.9192 -1.3955 -1.3907
  189SAPI   C2721738   1.950   5.794   6.769  0.2834  0.3748  0.1331
  189SAPI   H7R21739   1.881   5.712   6.796  0.1639 -0.2234 -1.8129
  189SAPI   H7S21740   2.027   5.807   6.847  0.5956  0.6653 -0.2145
  189SAPI   C2821741   2.005   5.776   6.635  0.0033 -0.4450  0.0712
  189SAPI   H8R21742   2.092   5.838   6.610 -1.2702  0.7768 -1.5199
  189SAPI   C2921743   1.948   5.712   6.534 -0.1488  0.4339  0.3753
  189SAPI   H9R21744   2.000   5.720   6.437 -0.2186  2.3530  0.4667
  189SAPI  C21021745   1.822   5.631   6.540 -0.4536  0.4568  0.4800
  189SAPI  H10R21746   1.785   5.623   6.645 -0.1932 -0.2374  0.5259
  189SAPI  H10S21747   1.854   5.528   6.513  1.0690  1.0425 -0.0273
  189SAPI  C21121748   1.717   5.683   6.447  0.2055  0.4580  0.6723
  189SAPI  H11R21749   1.653   5.768   6.476  1.1109  1.5548 -0.4449
  189SAPI  C21221750   1.693   5.628   6.326  0.0090 -1.0496 -0.1095
  189SAPI  H12R21751   1.611   5.671   6.267 -0.6197 -1.0095  0.7699
  189SAPI  C21321752   1.770   5.519   6.257 -0.2529 -0.0738  0.2004
  189SAPI  H13R21753   1.767   5.430   6.324  1.5558 -0.6120 -0.3632
  189SAPI  H13S21754   1.875   5.555   6.252 -0.3094  1.0420  3.7583
  189SAPI  C21421755   1.720   5.469   6.125  0.2367  0.0241  0.1721
  189SAPI  H14R21756   1.694   5.554   6.060 -0.8272  1.1700  2.0148
  189SAPI  C21521757   1.700   5.340   6.085 -0.7024 -0.2722 -0.2874
  189SAPI  H15R21758   1.643   5.325   5.993 -2.0223  0.2603  0.4238
  189SAPI  C21621759   1.721   5.215   6.165  0.1875 -0.1680 -0.3206
  189SAPI  H16R21760   1.759   5.229   6.269  0.1872 -1.4457 -0.1242
  189SAPI  H16S21761   1.799   5.149   6.123  0.3251  1.7537 -3.3583
  189SAPI  C21721762   1.582   5.147   6.175  0.8136  0.6991 -1.0482
  189SAPI  H17R21763   1.509   5.222   6.211  0.6835  0.2460 -0.3480
  189SAPI  H17S21764   1.582   5.070   6.255  1.8408  0.6749 -1.0500
  189SAPI  C21821765   1.539   5.092   6.040  0.1358  0.2768 -0.4490
  189SAPI  H18R21766   1.609   5.022   5.989  0.5280  0.9610 -0.8706
  189SAPI  H18S21767   1.523   5.180   5.974  3.8516  0.9209 -0.7500
  189SAPI  C21921768   1.411   5.008   6.062  0.2307 -0.0260  0.5704
  189SAPI  H19R21769   1.343   5.077   6.116  1.6600  2.1039 -0.1895
  189SAPI  H19S21770   1.430   4.919   6.125  0.3551 -0.8126 -0.5395
  189SAPI  C22021771   1.349   4.980   5.931  0.5816  0.2324 -0.3238
  189SAPI  H20R21772   1.281   5.054   5.885  0.0838  0.8971  1.3815
  189SAPI  H20S21773   1.295   4.885   5.951  1.8472 -1.1843 -3.0746
  189SAPI  H20T21774   1.434   4.953   5.865  0.0998  2.1452 -1.7916
  189SAPI   C3321775   1.184   5.772   6.849  0.0668 -0.4397 -0.9439
  189SAPI   H3X21776   1.109   5.690   6.849  0.6911 -1.0235 -1.6908
  189SAPI   H3Y21777   1.277   5.735   6.896  0.5938  2.6255  0.6568
  189SAPI   C3421778   1.194   5.813   6.705  0.6801  0.1550  0.3925
  189SAPI   H4X21779   1.275   5.889   6.698  1.9981 -1.1788  0.5427
  189SAPI   H4Y21780   1.101   5.864   6.674 -0.2615 -1.6344  0.1510
  189SAPI   C3521781   1.236   5.693   6.619 -0.1039  0.0893 -0.1743
  189SAPI   H5X21782   1.175   5.605   6.644  0.7653 -1.0170 -1.7445
  189SAPI   H5Y21783   1.344   5.671   6.639 -0.3486 -2.0888 -0.9756
  189SAPI   C3621784   1.241   5.724   6.471 -0.2110  0.0965 -0.4569
  189SAPI   H6X21785   1.313   5.807   6.454 -0.7716  0.5090 -0.8446
  189SAPI   H6Y21786   1.141   5.755   6.433 -0.0480 -0.0795 -1.0405
  189SAPI   C3721787   1.284   5.602   6.392  0.0129 -0.6882 -0.6716
  189SAPI   H7X21788   1.225   5.517   6.433 -0.0344 -1.3188 -1.9660
  189SAPI   H7Y21789   1.392   5.583   6.404  0.7301  1.1037 -3.3208
  189SAPI   C3821790   1.255   5.617   6.243 -0.0616 -0.1593  0.5157
  189SAPI   H8X21791   1.318   5.702   6.209 -1.6477  1.1218  0.6520
  189SAPI   H8Y21792   1.155   5.657   6.217 -0.4846 -0.2592  1.8743
  189SAPI   C3921793   1.295   5.487   6.169 -0.1842 -0.0905  0.6147
  189SAPI   H9X21794   1.285   5.395   6.231 -0.4685  0.5062  1.4654
  189SAPI   H9Y21795   1.402   5.493   6.139 -0.6175 -0.1373 -1.0174
  189SAPI  C31021796   1.214   5.469   6.043 -0.4863 -0.3129 -0.5678
  189SAPI  H10X21797   1.210   5.571   5.998 -0.5024 -0.4034 -0.7712
  189SAPI  H10Y21798   1.107   5.441   6.060 -1.0564  0.7918 -2.1169
  189SAPI  C31121799   1.277   5.379   5.935 -0.4324 -0.0638 -0.6455
  189SAPI  H11X21800   1.272   5.272   5.963 -1.8638  0.7624  2.7782
  189SAPI  H11Y21801   1.386   5.400   5.935 -0.5949  0.9645  0.7267
  189SAPI  C31221802   1.216   5.380   5.795 -0.3356 -0.4456 -0.5836
  189SAPI  H12X21803   1.211   5.489   5.776 -1.8687 -0.6414 -1.4672
  189SAPI  H12Y21804   1.109   5.351   5.797 -0.9940  1.6300 -2.1080
  189SAPI  C31321805   1.291   5.293   5.692 -0.1198 -0.1926 -0.3532
  189SAPI  H13X21806   1.313   5.193   5.733 -2.0265 -0.0387  1.2093
  189SAPI  H13Y21807   1.389   5.346   5.684  0.1846 -1.0275 -3.4759
  189SAPI  C31421808   1.218   5.284   5.563 -0.9114 -0.1598  0.4145
  189SAPI  H14X21809   1.108   5.278   5.577 -0.6796 -0.5525  2.3585
  189SAPI  H14Y21810   1.247   5.188   5.515 -1.0428  0.6092 -1.2783
  189SAPI  C31521811   1.253   5.396   5.462 -0.0708  0.0683 -0.3866
  189SAPI  H15X21812   1.361   5.394   5.436  0.3501 -1.3683  1.2556
  189SAPI  H15Y21813   1.232   5.484   5.525 -2.0951 -0.2793 -0.5065
  189SAPI  C31621814   1.170   5.386   5.331 -0.4949 -0.7525  0.4426
  189SAPI  H16X21815   1.063   5.392   5.362 -1.3250  2.4690 -2.3712
  189SAPI  H16Y21816   1.196   5.288   5.286  3.6783  1.2104 -2.0031
  189SAPI  C31721817   1.206   5.500   5.228  0.3770  0.3948  0.3579
  189SAPI  H17X21818   1.157   5.470   5.133 -0.0741 -0.0099  0.7109
  189SAPI  H17Y21819   1.314   5.494   5.204  0.3008 -0.8092  0.2578
  189SAPI  C31821820   1.157   5.639   5.261  0.4669 -0.2407 -0.4779
  189SAPI  H18X21821   1.175   5.712   5.179  1.5423 -1.2566 -1.1901
  189SAPI  H18Y21822   1.203   5.679   5.353  1.4354 -0.3427 -0.9040
  189SAPI  H18Z21823   1.050   5.634   5.290  1.1092  0.1238  2.2002
  190SAPI   C1221824   1.461   0.963   7.633  0.0960  0.7899  0.4509
  190SAPI    H221825   1.472   1.052   7.699  1.1735  2.6247 -2.0635
  190SAPI    O221826   1.506   0.842   7.681  0.0582 -0.5173  0.0921
  190SAPI   HO221827   1.589   0.818   7.640  0.0818  0.3526 -0.4078
  190SAPI   C1321828   1.318   0.949   7.597  0.2465  0.6697  0.2786
  190SAPI    H321829   1.289   1.051   7.562 -2.8733 -0.0492  0.4457
  190SAPI    O321830   1.235   0.926   7.717  0.1741  0.2414  0.5962
  190SAPI   HO321831   1.267   0.852   7.768 -1.2952 -1.8756 -1.3352
  190SAPI   C1421832   1.283   0.850   7.487  0.2111 -0.5006  0.3530
  190SAPI    H421833   1.297   0.746   7.523  0.3727 -0.8671 -0.7278
  190SAPI    O421834   1.154   0.869   7.427 -0.8000  0.0094  0.2491
  190SAPI   HO421835   1.092   0.803   7.458  0.0924  0.2893  2.8351
  190SAPI   C1521836   1.388   0.855   7.374 -0.2814  0.1528  0.0696
  190SAPI    H521837   1.360   0.930   7.296 -0.3415  0.0220 -0.0360
  190SAPI    O521838   1.393   0.730   7.298 -0.0663  0.2091 -0.6736
  190SAPI   HO521839   1.307   0.721   7.257 -0.3594 -0.6112  0.0753
  190SAPI   C1621840   1.534   0.887   7.408  0.7698 -0.1246  0.0906
  190SAPI    H621841   1.586   0.794   7.438  0.3192 -1.6065 -3.3162
  190SAPI    O621842   1.600   0.928   7.288  0.0391 -0.3638 -0.4126
  190SAPI   HO621843   1.694   0.936   7.308  0.1461 -0.2214 -0.9626
  190SAPI   C1121844   1.542   0.999   7.515 -0.7588  0.2038  0.8638
  190SAPI    H121845   1.489   1.083   7.464  0.8727  0.7864  0.0375
  190SAPI     P21846   1.799   0.947   7.571 -0.2212 -0.5410 -0.2573
  190SAPI   O1321847   1.760   0.823   7.638 -0.1206  0.0746 -0.5296
  190SAPI   O1421848   1.905   1.027   7.634  0.1134 -0.5139 -0.2943
  190SAPI   O1221849   1.671   1.046   7.553  0.0965 -0.5337 -0.7884
  190SAPI   O1121850   1.833   0.923   7.421  0.1441 -0.0719  0.5053
  190SAPI    C121851   1.947   0.881   7.357  0.6594 -0.3829  0.6746
  190SAPI    HA21852   1.999   0.974   7.328 -0.2765 -0.3490 -0.9818
  190SAPI    HB21853   2.011   0.822   7.426  1.3438 -0.9078 -0.3916
  190SAPI    C221854   1.918   0.799   7.222  0.0803  0.3694 -1.5450
  190SAPI    HS21855   2.014   0.778   7.170  0.6207 -1.0760 -0.0355
  190SAPI   O2121856   1.819   0.870   7.139 -0.1147  0.6851  0.4555
  190SAPI   C2121857   1.867   0.964   7.074  0.4761  0.3760 -0.8002
  190SAPI   O2221858   1.983   0.998   7.077 -0.8737  0.8116 -0.9950
  190SAPI   C2221859   1.770   1.015   6.973 -0.0256 -0.1194 -0.2561
  190SAPI   H2R21860   1.668   1.025   7.016  0.2497 -0.2602  0.4563
  190SAPI   H2S21861   1.793   1.120   6.946 -3.4987  1.1211  1.1385
  190SAPI    C321862   1.857   0.664   7.266  0.3493 -0.3760 -0.2022
  190SAPI    HX21863   1.764   0.691   7.321 -0.0744 -0.1895 -1.0040
  190SAPI    HY21864   1.918   0.623   7.349 -1.0965  1.1256  1.7100
  190SAPI   O3121865   1.827   0.573   7.158 -0.2050  0.1593  0.3282
  190SAPI   C3121866   1.816   0.438   7.185  0.4084  0.0550 -0.4953
  190SAPI   O3221867   1.827   0.389   7.297  0.2594 -0.7984  0.4485
  190SAPI   C3221868   1.770   0.367   7.063 -0.7187  0.5012 -0.2991
  190SAPI   H2X21869   1.803   0.410   6.966  2.1741 -0.1309  0.3033
  190SAPI   H2Y21870   1.659   0.377   7.069 -0.8968 -0.5590 -1.5530
  190SAPI   C2321871   1.777   0.921   6.853 -0.2039  0.3477  0.0541
  190SAPI   H3R21872   1.691   0.946   6.787 -0.2910  0.6301  0.2713
  190SAPI   H3S21873   1.775   0.816   6.887  1.9794  0.8067  1.8364
  190SAPI   C2421874   1.911   0.937   6.770  0.5102  0.4815  0.2200
  190SAPI   H4R21875   1.919   0.850   6.702  0.8415  1.8139 -1.4986
  190SAPI   H4S21876   2.001   0.934   6.836  1.9759 -1.5832 -1.7572
  190SAPI   C2521877   1.908   1.067   6.683 -0.1751 -0.3668  0.2982
  190SAPI   H5R21878   1.932   1.159   6.738 -2.0589 -0.8292  1.9825
  190SAPI   C2621879   1.867   1.073   6.556 -0.6544 -0.8289  0.0536
  190SAPI   H6R21880   1.877   1.174   6.513 -0.6089 -0.1501  1.6188
  190SAPI   C2721881   1.838   0.963   6.450 -0.0999 -0.2702 -0.4549
  190SAPI   H7R21882   1.841   0.859   6.488 -2.9566 -0.2774 -0.0388
  190SAPI   H7S21883   1.923   0.953   6.378  1.8748 -1.2816  1.8973
  190SAPI   C2821884   1.701   0.990   6.399  0.2612 -0.4983 -0.6800
  190SAPI   H8R21885   1.619   1.000   6.471  1.4927 -0.0550  0.6990
  190SAPI   C2921886   1.672   0.983   6.268  0.3691  0.8186  0.4871
  190SAPI   H9R21887   1.569   1.009   6.237  0.5187  1.0477  0.1860
  190SAPI  C21021888   1.762   0.947   6.151 -1.2177 -0.2833  0.8323
  190SAPI  H10R21889   1.861   0.991   6.172  0.5031 -2.2911 -2.2203
  190SAPI  H10S21890   1.738   1.005   6.059 -1.2163  0.7262  1.4599
  190SAPI  C21121891   1.763   0.799   6.119 -0.2324  0.3850 -0.9442
  190SAPI  H11R21892   1.803   0.730   6.195 -2.1090 -1.3788 -1.4805
  190SAPI  C21221893   1.697   0.740   6.019 -0.5104  0.3010  0.1731
  190SAPI  H12R21894   1.705   0.631   6.010  1.8364  0.5288 -1.4265
  190SAPI  C21321895   1.613   0.811   5.915 -0.0936 -0.4077 -0.8177
  190SAPI  H13R21896   1.689   0.857   5.849 -0.1032  1.8429  0.6409
  190SAPI  H13S21897   1.555   0.895   5.958  1.8384 -0.0426  1.2776
  190SAPI  C21421898   1.526   0.723   5.836  1.0000  0.9431 -0.7858
  190SAPI  H14R21899   1.426   0.712   5.880  0.3219 -0.4945 -2.5487
  190SAPI  C21521900   1.552   0.657   5.722  0.5344 -0.4185  0.1273
  190SAPI  H15R21901   1.477   0.591   5.675 -0.3468 -0.9411  2.1433
  190SAPI  C21621902   1.678   0.656   5.638 -0.1246 -0.3495  0.2244
  190SAPI  H16R21903   1.763   0.666   5.710 -2.2047  0.7081  2.7079
  190SAPI  H16S21904   1.668   0.729   5.556  0.3481 -0.5201  0.0090
  190SAPI  C21721905   1.705   0.525   5.565  0.7319  0.3027  0.7599
  190SAPI  H17R21906   1.621   0.498   5.498  0.6526  0.8103  0.6499
  190SAPI  H17S21907   1.713   0.445   5.642  0.2138  0.0657  0.5693
  190SAPI  C21821908   1.830   0.535   5.476  0.2793 -0.6839  0.0684
  190SAPI  H18R21909   1.910   0.590   5.531 -0.3743  0.9431 -0.5409
  190SAPI  H18S21910   1.796   0.606   5.398 -0.1527  1.2642  1.9318
  190SAPI  C21921911   1.879   0.398   5.421  0.0836 -0.2917 -0.4446
  190SAPI  H19R21912   1.797   0.327   5.400  0.2095 -0.2245 -1.1790
  190SAPI  H19S21913   1.936   0.354   5.506  0.3860  2.4581  0.9028
  190SAPI  C22021914   1.956   0.408   5.297 -0.0084 -0.2525  0.9375
  190SAPI  H20R21915   2.052   0.456   5.327  1.1945 -2.2199  0.4455
  190SAPI  H20S21916   1.907   0.474   5.222 -1.9554 -3.2156 -0.5965
  190SAPI  H20T21917   1.985   0.323   5.231  1.8185  1.5072 -0.6631
  190SAPI   C3321918   1.804   0.214   7.073 -0.1531  0.2920  0.1819
  190SAPI   H3X21919   1.757   0.158   6.990 -0.4865  0.9637 -0.0924
  190SAPI   H3Y21920   1.763   0.163   7.163  0.7047  0.4976  0.7081
  190SAPI   C3421921   1.953   0.185   7.061 -0.0174 -0.2735  0.3458
  190SAPI   H4X21922   1.980   0.078   7.075  0.9112 -0.4500 -2.2145
  190SAPI   H4Y21923   1.995   0.234   7.151 -1.7654  1.8083  0.1058
  190SAPI   C3521924   2.004   0.238   6.930  0.5960 -0.2853 -0.1659
  190SAPI   H5X21925   2.113   0.218   6.918  0.3738 -2.4067  0.9257
  190SAPI   H5Y21926   2.001   0.349   6.932 -0.4200 -0.3098  1.0659
  190SAPI   C3621927   1.921   0.195   6.806 -0.1974  0.1361 -0.6632
  190SAPI   H6X21928   1.824   0.250   6.814 -0.8669 -0.9030 -1.4348
  190SAPI   H6Y21929   1.903   0.086   6.815 -1.6148  0.4810  1.5355
  190SAPI   C3721930   1.989   0.225   6.671 -0.2974  0.1393  0.6768
  190SAPI   H7X21931   2.009   0.334   6.663  1.7630 -0.0286  2.4329
  190SAPI   H7Y21932   1.921   0.194   6.589  2.3413 -0.7498 -1.3181
  190SAPI   C3821933   2.124   0.151   6.655 -0.3922 -0.6101 -0.2403
  190SAPI   H8X21934   2.136   0.074   6.734  1.4174  0.5512  0.6843
  190SAPI   H8Y21935   2.197   0.229   6.683 -1.8070 -0.2608  2.8613
  190SAPI   C3921936   2.151   0.079   6.524 -0.2449  0.1925 -0.2350
  190SAPI   H9X21937   2.055   0.031   6.494 -1.0954  0.7581  1.4570
  190SAPI   H9Y21938   2.225  -0.003   6.537 -0.4988  0.0863  0.6274
  190SAPI  C31021939   2.223   0.179   6.424 -0.7761 -0.2544 -0.5875
  190SAPI  H10X21940   2.318   0.207   6.475 -1.0518 -0.2984 -0.0390
  190SAPI  H10Y21941   2.154   0.264   6.407 -2.4178 -1.2990  0.5284
  190SAPI  C31121942   2.260   0.114   6.297  0.3236  0.2190 -0.3491
  190SAPI  H11X21943   2.166   0.082   6.246  0.4537  0.3403 -0.6688
  190SAPI  H11Y21944   2.332   0.030   6.302  0.2246  0.2215  2.6615
  190SAPI  C31221945   2.334   0.214   6.206 -0.2865 -0.2487  0.6437
  190SAPI  H12X21946   2.432   0.250   6.245  0.7338  1.3404 -2.9571
  190SAPI  H12Y21947   2.257   0.293   6.196 -0.5440 -0.6139 -0.5511
  190SAPI  C31321948   2.356   0.156   6.068  0.0541  0.6092 -0.2464
  190SAPI  H13X21949   2.288   0.068   6.067  1.4982 -0.6424  2.0218
  190SAPI  H13Y21950   2.460   0.119   6.055  1.3731  3.4880  1.1618
  190SAPI  C31421951   2.320   0.252   5.952  0.1144  0.2307  0.3692
  190SAPI  H14X21952   2.394   0.334   5.964  0.0257  0.6919 -1.8587
  190SAPI  H14Y21953   2.216   0.289   5.950  0.6235  1.7189  0.5697
  190SAPI  C31521954   2.331   0.188   5.814  0.1562  0.3759  0.4980
  190SAPI  H15X21955   2.250   0.111   5.812 -1.3554  1.8558  1.4038
  190SAPI  H15Y21956   2.429   0.138   5.797  0.2066  0.6337  0.0214
  190SAPI  C31621957   2.299   0.279   5.691  0.7394 -0.3517  0.4208
  190SAPI  H16X21958   2.384   0.351   5.685  1.2697 -0.9665  0.3171
  190SAPI  H16Y21959   2.202   0.331   5.706  0.0532 -0.8181 -1.9999
  190SAPI  C31721960   2.279   0.218   5.552 -0.3163 -0.2252  0.2273
  190SAPI  H17X21961   2.365   0.148   5.540  0.5379  0.1601  3.2933
  190SAPI  H17Y21962   2.267   0.300   5.478  1.3583  0.6174  0.8537
  190SAPI  C31821963   2.153   0.130   5.542 -0.3588 -0.3175  0.4230
  190SAPI  H18X21964   2.134   0.109   5.434  0.1981  0.6873  0.1174
  190SAPI  H18Y21965   2.069   0.186   5.587 -1.2134 -0.5875 -0.7793
  190SAPI  H18Z21966   2.169   0.029   5.585 -3.0199 -0.0343  2.3226
  191SAPI   C1221967   2.838   6.418   2.547 -0.4216  0.1195 -0.3311
  191SAPI    H221968   2.831   6.318   2.596 -1.3172 -0.4848 -1.6309
  191SAPI    O221969   2.833   6.530   2.637 -0.1300  0.5040  0.2591
  191SAPI   HO221970   2.880   6.502   2.716 -0.7410 -0.4785  0.2968
  191SAPI   C1321971   2.963   6.420   2.454  0.0762  0.2695 -0.0609
  191SAPI    H321972   2.945   6.330   2.392  0.8409 -1.1682  1.7239
  191SAPI    O321973   3.085   6.398   2.524  0.3448  0.6264  0.6285
  191SAPI   HO321974   3.093   6.484   2.567  1.1692 -1.3695  5.0302
  191SAPI   C1421975   2.960   6.553   2.379 -0.4557  0.9407 -0.0102
  191SAPI    H421976   2.959   6.635   2.454 -0.1805  0.7126  0.2452
  191SAPI    O421977   3.080   6.574   2.305 -0.9733  0.0414  0.4194
  191SAPI   HO421978   3.129   6.649   2.341  1.6186 -1.7567  0.8952
  191SAPI   C1521979   2.839   6.561   2.284 -0.2728  0.0447  0.1114
  191SAPI    H521980   2.858   6.476   2.215  0.8467 -0.7572  1.3674
  191SAPI    O521981   2.832   6.682   2.211 -0.0675  0.8622  0.2056
  191SAPI   HO521982   2.877   6.670   2.127  1.7037 -0.3734  1.2732
  191SAPI   C1621983   2.706   6.535   2.362  0.8817  0.4251  0.3157
  191SAPI    H621984   2.691   6.627   2.423 -0.0233  1.3339 -1.2029
  191SAPI    O621985   2.601   6.521   2.266 -0.0865 -0.2561  0.4432
  191SAPI   HO621986   2.590   6.597   2.209  0.4739 -2.0792 -2.2968
  191SAPI   C1121987   2.710   6.413   2.461 -0.7991  0.0508  0.0049
  191SAPI    H121988   2.719   6.317   2.405 -1.5174  0.6389 -1.1687
  191SAPI     P21989   2.531   6.270   2.611  0.7706 -0.2345  0.7436
  191SAPI   O1321990   2.536   6.164   2.501 -0.7428 -0.2948  0.4191
  191SAPI   O1421991   2.393   6.301   2.659  1.0243 -0.1963 -0.3529
  191SAPI   O1221992   2.600   6.411   2.558 -1.0255 -0.8652 -0.0864
  191SAPI   O1121993   2.623   6.232   2.743  0.1830 -0.0850  0.2531
  191SAPI    C121994   2.605   6.320   2.863  0.0286  0.2064  0.6734
  191SAPI    HA21995   2.608   6.429   2.839  1.1469  0.7052  2.8367
  191SAPI    HB21996   2.508   6.294   2.911 -0.8952  0.3555 -1.0110
  191SAPI    C221997   2.712   6.296   2.967  0.3254 -0.0490  0.3487
  191SAPI    HS21998   2.806   6.326   2.916  0.4262  0.4745  0.8290
  191SAPI   O2121999   2.718   6.159   3.011  0.8384 -0.1391 -0.1362
  191SAPI   C2122000   2.842   6.120   3.034  0.6186 -0.4698 -0.1755
  191SAPI   O2222001   2.946   6.179   2.992  0.3275 -0.3043 -0.1109
  191SAPI   C2222002   2.836   5.990   3.114  0.1810 -0.3050 -0.0355
  191SAPI   H2R22003   2.780   5.918   3.050 -0.6768 -1.1779  1.6227
  191SAPI   H2S22004   2.939   5.952   3.124  1.0238  2.0582  1.0241
  191SAPI    C322005   2.709   6.383   3.095 -0.4352 -0.1584 -0.2852
  191SAPI    HX22006   2.738   6.490   3.081  1.2020 -0.7301 -1.6466
  191SAPI    HY22007   2.789   6.348   3.164 -1.2838 -1.3388  0.1145
  191SAPI   O3122008   2.586   6.373   3.157 -0.0292  0.6503  0.3959
  191SAPI   C3122009   2.561   6.470   3.252  0.3513  0.3254 -0.0731
  191SAPI   O3222010   2.634   6.568   3.274 -0.2109  0.4247 -0.1704
  191SAPI   C3222011   2.423   6.442   3.322 -0.0122  0.2231  0.1181
  191SAPI   H2X22012   2.384   6.346   3.281  2.7718 -0.5982 -0.7977
  191SAPI   H2Y22013   2.348   6.514   3.284 -1.4754 -0.7435  1.0616
  191SAPI   C2322014   2.779   6.013   3.253 -0.8438 -0.3734 -0.6283
  191SAPI   H3R22015   2.669   6.025   3.242 -0.8202 -0.4022 -0.9087
  191SAPI   H3S22016   2.828   6.097   3.305  1.7306 -1.9433 -0.3684
  191SAPI   C2422017   2.809   5.903   3.354 -0.0823  0.9694  0.3859
  191SAPI   H4R22018   2.754   5.919   3.449 -2.5543 -1.0392 -0.6081
  191SAPI   H4S22019   2.920   5.897   3.364  0.1694 -0.2204 -2.2631
  191SAPI   C2522020   2.767   5.767   3.293  0.3023 -0.5519  0.1441
  191SAPI   H5R22021   2.837   5.725   3.220  0.7085 -3.0481  1.8565
  191SAPI   C2622022   2.654   5.699   3.324  0.2657  0.0523  0.7877
  191SAPI   H6R22023   2.627   5.615   3.258 -1.4880 -0.3084  1.9012
  191SAPI   C2722024   2.556   5.735   3.433 -0.2066 -0.7568  0.9520
  191SAPI   H7R22025   2.459   5.771   3.393  0.5014  2.0067  1.4825
  191SAPI   H7S22026   2.587   5.821   3.496  0.0756 -0.7362  0.7912
  191SAPI   C2822027   2.522   5.614   3.517  0.1563 -0.6329  0.0231
  191SAPI   H8R22028   2.432   5.559   3.485 -0.7959  0.2305  1.1017
  191SAPI   C2922029   2.584   5.575   3.626 -0.8017  0.4002 -0.3855
  191SAPI   H9R22030   2.550   5.479   3.668 -0.7800 -0.6160 -2.5289
  191SAPI  C21022031   2.709   5.628   3.689  0.1168  0.4360 -0.2711
  191SAPI  H10R22032   2.700   5.625   3.800  1.1678  0.4698 -0.1781
  191SAPI  H10S22033   2.718   5.737   3.669  1.8128  0.2266 -0.8604
  191SAPI  C21122034   2.839   5.565   3.648  0.2150 -0.2367  0.2504
  191SAPI  H11R22035   2.855   5.572   3.539  0.4837  1.1337  0.3515
  191SAPI  C21222036   2.937   5.500   3.713  0.0727  0.2294  0.9667
  191SAPI  H12R22037   3.030   5.467   3.663  0.1083  2.4486 -0.5784
  191SAPI  C21322038   2.946   5.470   3.864 -0.8927 -0.0962  0.7927
  191SAPI  H13R22039   2.928   5.560   3.927 -0.1359  0.3272  0.4246
  191SAPI  H13S22040   3.053   5.445   3.885 -0.6520  0.6439  0.5021
  191SAPI  C21422041   2.864   5.355   3.905  0.5596 -0.2847 -0.6022
  191SAPI  H14R22042   2.789   5.319   3.834  2.4254  0.5186 -3.1437
  191SAPI  C21522043   2.879   5.266   4.002  0.2938  0.3170  0.0257
  191SAPI  H15R22044   2.808   5.183   4.015  0.2787  0.4492  0.8167
  191SAPI  C21622045   2.972   5.283   4.114 -0.3698  0.0474 -0.2050
  191SAPI  H16R22046   2.990   5.389   4.142  2.7626 -0.4953  0.1493
  191SAPI  H16S22047   3.071   5.246   4.082 -0.5428 -1.1012  0.5324
  191SAPI  C21722048   2.926   5.218   4.244 -0.5775  0.0901  0.5988
  191SAPI  H17R22049   2.928   5.107   4.237  3.2844  0.0077  0.6649
  191SAPI  H17S22050   2.827   5.263   4.267 -0.1150  1.1531  0.5616
  191SAPI  C21822051   3.023   5.253   4.360  0.5011 -0.2948  0.0174
  191SAPI  H18R22052   3.004   5.358   4.390 -0.8101 -0.4308 -0.2926
  191SAPI  H18S22053   3.130   5.229   4.342  0.3761 -0.8205 -0.0579
  191SAPI  C21922054   2.990   5.175   4.493  0.2989  0.1109 -0.9200
  191SAPI  H19R22055   3.027   5.070   4.497 -1.5046 -0.5475  1.9456
  191SAPI  H19S22056   2.879   5.176   4.503  0.3147 -0.4004 -0.6314
  191SAPI  C22022057   3.056   5.232   4.612  0.1926 -1.3016 -0.6334
  191SAPI  H20R22058   3.162   5.256   4.586 -0.6874  1.5716 -1.9427
  191SAPI  H20S22059   3.044   5.166   4.701  0.1228 -1.4461 -0.7499
  191SAPI  H20T22060   3.021   5.333   4.642 -2.3914 -1.7087 -2.0304
  191SAPI   C3322061   2.430   6.448   3.481  0.1995  0.0207  0.9286
  191SAPI   H3X22062   2.324   6.459   3.512  0.1944  2.1431  0.2811
  191SAPI   H3Y22063   2.488   6.540   3.503  0.6467  0.2718 -1.1426
  191SAPI   C3422064   2.477   6.324   3.563 -0.1537  0.4530 -0.2468
  191SAPI   H4X22065   2.410   6.238   3.539 -0.5190  0.3701  1.0097
  191SAPI   H4Y22066   2.460   6.338   3.672 -0.3565 -3.0944  0.3168
  191SAPI   C3522067   2.621   6.276   3.538  0.0632  0.6986 -0.4524
  191SAPI   H5X22068   2.686   6.366   3.526 -0.9056  1.0801 -3.7015
  191SAPI   H5Y22069   2.628   6.228   3.438 -0.3353 -1.6233  0.5765
  191SAPI   C3622070   2.675   6.192   3.660 -0.2013 -0.2893 -0.2881
  191SAPI   H6X22071   2.611   6.102   3.674 -0.6210  0.3375  2.2261
  191SAPI   H6Y22072   2.664   6.241   3.759  0.9826 -0.5586 -0.0145
  191SAPI   C3722073   2.824   6.148   3.641  0.0848  0.6539 -0.4491
  191SAPI   H7X22074   2.891   6.229   3.604 -0.5959  2.3372  1.7561
  191SAPI   H7Y22075   2.818   6.061   3.573 -0.4797 -0.2781  0.7530
  191SAPI   C3822076   2.891   6.085   3.770  1.1610  0.0176 -0.1380
  191SAPI   H8X22077   2.820   6.012   3.815 -0.0414  2.0806  1.5059
  191SAPI   H8Y22078   2.899   6.173   3.838 -0.4587  0.6091 -0.6513
  191SAPI   C3922079   3.030   6.020   3.742  0.6511 -0.4983 -0.5410
  191SAPI   H9X22080   3.092   6.079   3.670  0.5555  3.1668  2.0617
  191SAPI   H9Y22081   3.019   5.921   3.693  3.4190 -2.2251  1.9588
  191SAPI  C31022082   3.113   5.998   3.870 -0.6175 -0.1401 -0.2119
  191SAPI  H10X22083   3.164   6.095   3.888 -2.1766  0.9592 -1.3681
  191SAPI  H10Y22084   3.189   5.920   3.848 -0.5436 -0.6562  1.6891
  191SAPI  C31122085   3.052   5.946   3.999 -0.4596 -0.3244 -0.0919
  191SAPI  H11X22086   2.978   6.020   4.035 -1.4625 -0.9495 -0.8124
  191SAPI  H11Y22087   3.134   5.932   4.073 -1.6462 -1.0740  1.1285
  191SAPI  C31222088   2.982   5.811   3.977 -0.3375  0.1470  0.5404
  191SAPI  H12X22089   3.057   5.731   3.957 -1.2348 -0.1106 -2.1171
  191SAPI  H12Y22090   2.920   5.814   3.885 -1.2077 -0.0604  1.1074
  191SAPI  C31322091   2.901   5.759   4.102  0.0143  0.5103 -1.3509
  191SAPI  H13X22092   2.824   5.682   4.079 -0.7104  1.2993 -1.6218
  191SAPI  H13Y22093   2.830   5.835   4.141  0.4779  0.2769  0.0252
  191SAPI  C31422094   2.997   5.723   4.220  0.1333 -0.1499 -0.2114
  191SAPI  H14X22095   3.067   5.808   4.240  1.6697 -1.2289 -0.8197
  191SAPI  H14Y22096   3.054   5.632   4.193 -1.7880 -0.9864 -1.6994
  191SAPI  C31522097   2.928   5.687   4.355 -0.1904  0.1126  0.1802
  191SAPI  H15X22098   2.879   5.589   4.337  1.9956 -1.0795  0.3231
  191SAPI  H15Y22099   2.865   5.772   4.386  0.6497  0.4769  0.9474
  191SAPI  C31622100   3.033   5.661   4.465 -0.4052 -0.4696 -0.4944
  191SAPI  H16X22101   3.105   5.746   4.470  0.0163 -0.9003  1.0815
  191SAPI  H16Y22102   3.099   5.579   4.432  1.7973  1.5018 -1.2274
  191SAPI  C31722103   2.975   5.641   4.604  0.3160  0.3367 -0.7670
  191SAPI  H17X22104   3.060   5.611   4.670 -0.2717  0.1878 -0.0711
  191SAPI  H17Y22105   2.906   5.555   4.599  1.1804 -0.6080  1.9863
  191SAPI  C31822106   2.901   5.773   4.649 -0.2062  0.4447  0.2803
  191SAPI  H18X22107   2.884   5.757   4.757 -0.0863  1.3190  0.4335
  191SAPI  H18Y22108   2.817   5.804   4.582 -0.1512 -1.9889 -1.0183
  191SAPI  H18Z22109   2.972   5.857   4.638  1.5970 -0.9571  0.7944
  192SAPI   C1222110   5.962   2.718   3.216 -0.3846  0.4166  0.4152
  192SAPI    H222111   5.887   2.636   3.215 -1.0170  0.9480 -1.8093
  192SAPI    O222112   6.087   2.655   3.243 -0.0827  0.0716  0.0777
  192SAPI   HO222113   6.072   2.562   3.262  1.8507 -0.0410  1.3513
  192SAPI   C1322114   5.965   2.785   3.083  0.3228 -0.0338  0.4633
  192SAPI    H322115   5.865   2.826   3.057  0.7606  0.5316 -0.3861
  192SAPI    O322116   5.991   2.686   2.980 -0.5562 -0.2444  0.3969
  192SAPI   HO322117   6.041   2.612   3.014 -0.0815 -1.4216 -2.6412
  192SAPI   C1422118   6.071   2.896   3.076 -0.1481  0.3320  0.5959
  192SAPI    H422119   6.160   2.832   3.057 -0.6270  0.2192 -1.4768
  192SAPI    O422120   6.049   2.972   2.954  0.4035 -0.0483  0.1768
  192SAPI   HO422121   6.116   2.943   2.892  1.5536 -0.4044  1.5316
  192SAPI   C1522122   6.105   2.975   3.207  0.0409  0.1362  0.7170
  192SAPI    H522123   6.047   3.068   3.191  0.9695  0.6213  0.0414
  192SAPI    O522124   6.243   3.014   3.216  0.7070  0.0913  0.0793
  192SAPI   HO522125   6.259   3.032   3.309 -0.1961 -0.4284  0.3504
  192SAPI   C1622126   6.043   2.918   3.332  0.3377  0.5946 -0.7860
  192SAPI    H622127   6.127   2.867   3.383 -0.5172 -1.6325 -1.4951
  192SAPI    O622128   5.994   3.016   3.429 -0.2109  0.6904  0.2648
  192SAPI   HO622129   6.072   3.045   3.476  0.9733 -1.4180 -0.2424
  192SAPI   C1122130   5.933   2.823   3.324  0.0833 -0.3353 -0.2910
  192SAPI    H122131   5.838   2.871   3.294 -0.3286 -2.4200 -2.7316
  192SAPI     P22132   5.770   2.697   3.502 -0.1284  0.0230  0.0954
  192SAPI   O1322133   5.791   2.640   3.639  1.0132  0.4317  0.3712
  192SAPI   O1422134   5.707   2.612   3.396 -0.3579  0.1312 -0.1204
  192SAPI   O1222135   5.917   2.746   3.446  0.3087 -0.2146 -0.4601
  192SAPI   O1122136   5.690   2.836   3.514  0.0488 -0.0814  0.1889
  192SAPI    C122137   5.719   2.935   3.612  0.1836 -0.2014 -0.3193
  192SAPI    HA22138   5.827   2.941   3.636  0.6972 -1.1151 -2.2870
  192SAPI    HB22139   5.680   3.031   3.572 -0.8960 -0.2609  0.5262
  192SAPI    C222140   5.649   2.906   3.747 -0.0864  1.0412  0.3391
  192SAPI    HS22141   5.672   2.801   3.774 -1.4035  0.6876  0.1483
  192SAPI   O2122142   5.502   2.929   3.731  0.3589 -0.0077 -0.5977
  192SAPI   C2122143   5.426   2.845   3.807  0.3362 -0.0286 -0.3048
  192SAPI   O2222144   5.467   2.755   3.880 -0.0547 -0.2075 -1.0335
  192SAPI   C2222145   5.278   2.879   3.784  0.2484  0.3847  0.2725
  192SAPI   H2R22146   5.265   2.980   3.740  1.4143  0.8728  1.0030
  192SAPI   H2S22147   5.238   2.801   3.715 -1.7621  1.7496 -0.1872
  192SAPI    C322148   5.721   2.998   3.851  0.1870  0.6109  0.2435
  192SAPI    HX22149   5.718   3.105   3.822  3.8731  0.5175 -0.9531
  192SAPI    HY22150   5.826   2.968   3.868 -0.5184 -1.4574  1.2725
  192SAPI   O3122151   5.642   2.980   3.978 -0.1736  0.4472 -0.3501
  192SAPI   C3122152   5.680   2.883   4.061  0.8552  0.4739  0.5512
  192SAPI   O3222153   5.771   2.811   4.053 -0.6092  0.1960  0.6471
  192SAPI   C3222154   5.589   2.888   4.181  0.3993  0.3009  0.1264
  192SAPI   H2X22155   5.500   2.954   4.175  0.0854  0.0085  1.3248
  192SAPI   H2Y22156   5.647   2.928   4.266  0.5621 -0.2347  0.2733
  192SAPI   C2322157   5.194   2.884   3.913  0.7121 -0.4275 -0.4015
  192SAPI   H3R22158   5.222   2.801   3.982  1.1994 -0.1981 -0.3171
  192SAPI   H3S22159   5.086   2.881   3.889 -0.1218  1.0118  2.6524
  192SAPI   C2422160   5.226   3.016   3.998  0.1060 -0.7876 -0.1306
  192SAPI   H4R22161   5.257   3.093   3.923  2.0680  1.9934  3.2376
  192SAPI   H4S22162   5.319   3.004   4.058 -1.1654 -0.2879  2.0220
  192SAPI   C2522163   5.115   3.082   4.080  0.1515  0.1119  0.9645
  192SAPI   H5R22164   5.041   3.122   4.009  0.4777 -0.1812  0.4534
  192SAPI   C2622165   5.097   3.076   4.212 -0.1754 -0.0573  0.1400
  192SAPI   H6R22166   5.004   3.121   4.249  1.0899  1.6497  1.4292
  192SAPI   C2722167   5.182   2.999   4.314  0.7186 -0.5116  0.0176
  192SAPI   H7R22168   5.220   3.079   4.381  0.5212 -1.0594  0.7962
  192SAPI   H7S22169   5.273   2.948   4.275  0.1061 -1.4427 -0.2278
  192SAPI   C2822170   5.098   2.897   4.375 -0.1392  0.4537  0.4130
  192SAPI   H8R22171   5.063   2.819   4.305 -1.4557  0.9242  0.5168
  192SAPI   C2922172   5.071   2.880   4.505 -0.0276  0.1360  0.1287
  192SAPI   H9R22173   5.008   2.794   4.530  1.0563 -1.4384 -2.1179
  192SAPI  C21022174   5.115   2.973   4.617  0.0959  0.0992 -0.1085
  192SAPI  H10R22175   5.093   3.079   4.591 -0.9432 -0.4323 -1.5289
  192SAPI  H10S22176   5.223   2.962   4.641 -0.2825  0.8192  2.2380
  192SAPI  C21122177   5.038   2.957   4.747  0.0970  0.1570  0.1099
  192SAPI  H11R22178   4.983   3.048   4.773 -1.7007  0.1981 -3.2352
  192SAPI  C21222179   5.029   2.851   4.821  0.1989  0.5162 -0.5649
  192SAPI  H12R22180   4.968   2.867   4.911 -1.2169 -2.6446 -0.8164
  192SAPI  C21322181   5.093   2.713   4.810 -0.2719  1.1201  0.4442
  192SAPI  H13R22182   5.187   2.706   4.868  1.3618  2.4150 -1.8759
  192SAPI  H13S22183   5.127   2.685   4.708  0.5105  1.8272  0.5039
  192SAPI  C21422184   4.993   2.606   4.846 -0.4585 -0.1432 -0.1092
  192SAPI  H14R22185   4.899   2.618   4.790 -0.6260  0.7257  0.3488
  192SAPI  C21522186   4.996   2.499   4.926 -0.1725  0.0242 -0.2393
  192SAPI  H15R22187   4.918   2.422   4.924  0.4655 -0.6444  0.3874
  192SAPI  C21622188   5.114   2.457   5.018  0.1489  0.1210 -0.6668
  192SAPI  H16R22189   5.201   2.518   4.986  1.4865  0.5090  3.2273
  192SAPI  H16S22190   5.142   2.353   4.992 -0.4892 -0.0616 -0.6573
  192SAPI  C21722191   5.068   2.490   5.164 -0.2091  0.9233 -0.8294
  192SAPI  H17R22192   4.985   2.419   5.186  0.0371  0.9873  0.4007
  192SAPI  H17S22193   5.036   2.593   5.191  1.2354  0.9559  0.9043
  192SAPI  C21822194   5.177   2.447   5.267  0.0444  0.0547  0.0371
  192SAPI  H18R22195   5.273   2.502   5.257 -0.3430  1.1890  2.0049
  192SAPI  H18S22196   5.191   2.337   5.255 -0.6340 -0.1623  1.0681
  192SAPI  C21922197   5.147   2.433   5.418 -0.0967 -0.4585 -0.5077
  192SAPI  H19R22198   5.220   2.374   5.476  0.6756 -0.1220 -1.1256
  192SAPI  H19S22199   5.044   2.392   5.425 -0.4597  0.6155  0.8984
  192SAPI  C22022200   5.145   2.564   5.487  0.7566 -0.0194 -0.1558
  192SAPI  H20R22201   5.086   2.622   5.413 -1.2620 -0.7634  0.7819
  192SAPI  H20S22202   5.246   2.606   5.503  1.1153 -0.1597 -1.8878
  192SAPI  H20T22203   5.085   2.575   5.580  1.2655  1.4456  0.0242
  192SAPI   C3322204   5.549   2.744   4.234 -0.1228 -0.4842  0.1390
  192SAPI   H3X22205   5.633   2.673   4.221  1.0933  0.2116  3.2116
  192SAPI   H3Y22206   5.472   2.706   4.163  0.0093 -0.8973  0.2177
  192SAPI   C3422207   5.492   2.746   4.374 -0.1641 -0.6370 -0.2706
  192SAPI   H4X22208   5.431   2.654   4.378 -0.5644 -0.3776 -0.2978
  192SAPI   H4Y22209   5.420   2.831   4.370 -1.4157 -1.7033 -1.0925
  192SAPI   C3522210   5.598   2.747   4.481  0.3735 -0.2632  0.1283
  192SAPI   H5X22211   5.640   2.846   4.508  0.0150 -0.7234  2.6479
  192SAPI   H5Y22212   5.685   2.684   4.454 -1.0794 -1.2745 -2.5151
  192SAPI   C3622213   5.528   2.693   4.612 -0.1181 -0.0227 -0.2487
  192SAPI   H6X22214   5.487   2.593   4.586  0.0595 -0.9102  2.4903
  192SAPI   H6Y22215   5.439   2.758   4.626  0.7979  0.9180  1.6831
  192SAPI   C3722216   5.623   2.686   4.735 -0.2745  0.1775 -0.1408
  192SAPI   H7X22217   5.654   2.789   4.761  1.0030 -0.3706  0.5720
  192SAPI   H7Y22218   5.706   2.615   4.716 -1.2768 -0.7960 -1.1152
  192SAPI   C3822219   5.533   2.648   4.856 -0.2903 -0.2869 -0.2346
  192SAPI   H8X22220   5.482   2.552   4.833  0.8780 -0.9914  0.0361
  192SAPI   H8Y22221   5.447   2.719   4.860 -1.5497 -1.7117 -0.7777
  192SAPI   C3922222   5.613   2.641   4.988  0.5283 -0.2932 -0.4966
  192SAPI   H9X22223   5.625   2.742   5.032 -2.5112  0.0562 -0.2980
  192SAPI   H9Y22224   5.713   2.595   4.968  0.1365 -1.3535 -0.1165
  192SAPI  C31022225   5.544   2.548   5.087  0.3919 -0.2279 -0.0747
  192SAPI  H10X22226   5.530   2.454   5.030 -0.3419 -1.7397  2.4259
  192SAPI  H10Y22227   5.442   2.587   5.110  0.6912  0.0055  0.9219
  192SAPI  C31122228   5.620   2.525   5.221 -0.1403  0.3157  0.2655
  192SAPI  H11X22229   5.678   2.614   5.253 -0.8063  1.2750 -1.0874
  192SAPI  H11Y22230   5.698   2.450   5.195 -0.4068 -0.5609  1.8359
  192SAPI  C31222231   5.527   2.463   5.323  1.0250  0.4545 -0.4102
  192SAPI  H12X22232   5.462   2.389   5.271  2.0549 -0.0854 -0.9678
  192SAPI  H12Y22233   5.470   2.539   5.379 -0.0027 -1.3252  1.0770
  192SAPI  C31322234   5.604   2.381   5.424 -0.1280  0.5816 -0.1070
  192SAPI  H13X22235   5.679   2.446   5.474 -0.0284  0.3725  0.0172
  192SAPI  H13Y22236   5.662   2.304   5.369  1.8108  0.9382  1.3110
  192SAPI  C31422237   5.520   2.308   5.524  0.1096 -0.7473  0.1184
  192SAPI  H14X22238   5.447   2.263   5.454  1.8821  0.7911 -2.9634
  192SAPI  H14Y22239   5.461   2.381   5.585 -1.2213  0.8582 -2.8666
  192SAPI  C31522240   5.594   2.221   5.616 -0.1917  0.3115  0.4083
  192SAPI  H15X22241   5.663   2.279   5.681  1.3600 -0.5786 -0.3729
  192SAPI  H15Y22242   5.670   2.160   5.563  0.6494 -0.8529  2.8375
  192SAPI  C31622243   5.512   2.136   5.703 -0.2715  0.3620 -0.4093
  192SAPI  H16X22244   5.442   2.203   5.757 -1.3554  1.7600 -3.3348
  192SAPI  H16Y22245   5.571   2.089   5.785 -0.4182 -2.0832 -1.5887
  192SAPI  C31722246   5.409   2.044   5.637  0.5827 -0.3316 -0.4663
  192SAPI  H17X22247   5.453   1.948   5.604  1.7664 -0.2405  0.7642
  192SAPI  H17Y22248   5.352   2.084   5.551 -0.8923  2.3365  1.5951
  192SAPI  C31822249   5.295   2.007   5.737 -0.4066  0.4146  0.1737
  192SAPI  H18X22250   5.350   1.966   5.824 -0.7273 -0.1242  0.1193
  192SAPI  H18Y22251   5.226   1.940   5.682  1.1242 -1.2604  0.1941
  192SAPI  H18Z22252   5.244   2.104   5.759  1.0918  1.1381  0.6170
  193SOD    SOD22253   5.480   0.151   2.978  0.3089 -0.3107  0.2146
  194SOD    SOD22254   5.087   6.187   7.957 -0.0692 -0.4430 -0.2122
  195SOD    SOD22255   4.747   0.716   0.863 -0.8140  0.3561 -0.1773
  196SOD    SOD22256   6.553   3.296   8.022  0.2125 -0.0497  0.2183
  197SOD    SOD22257   5.225   1.483   3.333 -0.1441  0.3570 -0.2437
  198SOD    SOD22258   5.252   6.472   1.838 -0.3582 -0.0836  0.2126
  199SOD    SOD22259   1.882   2.918   2.177 -0.1293  0.3314  0.0327
  200SOD    SOD22260   2.751   2.485   8.446 -0.2326 -0.2619 -0.0244
  201SOD    SOD22261   4.459   4.515   7.491 -0.0557 -0.0587 -0.0937
  202SOD    SOD22262   0.208   3.416   2.303 -0.0662  0.0498 -0.1548
  203SOD    SOD22263   4.349   4.129   0.300 -0.1210  0.0317  0.2239
  204SOD    SOD22264   3.581   4.377   2.625  0.3906  0.2779  0.3413
  205SOD    SOD22265   0.117   0.752   7.061 -0.8181 -0.3292  0.0821
  206SOD    SOD22266   4.465   4.194   7.628  0.3090  0.3525  0.1495
  207SOD    SOD22267   5.572   5.143   8.510 -0.0898 -0.2444  1.1002
  208SOD    SOD22268   4.454   1.008   7.462 -0.5152 -0.0066  0.2460
  209SOD    SOD22269   2.090   5.665   1.456 -0.4905  0.1295  0.8077
  210SOD    SOD22270   0.688   4.530   0.625 -0.1647 -0.2942  0.0083
  211SOD    SOD22271   4.279   3.082   1.286 -0.4648  0.1667  0.7793
  212SOD    SOD22272   5.637   4.592   2.007 -0.3713 -0.2589 -0.0833
  213SOD    SOD22273   0.069   1.634   1.190  0.1614 -0.4465  0.4443
  214SOD    SOD22274   2.872   1.372   2.054  0.0766  0.0659  0.5488
  215SOD    SOD22275   2.197   1.130   3.293 -0.5897  0.1462 -0.2211
  216SOD    SOD22276   6.234   1.805   8.470 -0.1666 -0.0520  0.3177
  217SOD    SOD22277   1.599   6.662   8.491  0.2434  0.3349 -0.0715
  218SOD    SOD22278   2.455   4.789   8.157  0.3611 -0.3338 -0.3670
  219SOD    SOD22279   1.036   6.592   1.238  0.4327 -0.0119  0.1275
  220SOD    SOD22280   1.828   5.854   7.663 -0.4630  0.7208 -0.1346
  221SOD    SOD22281   0.597   3.461   1.565  0.1112  0.0495  0.1101
  222SOD    SOD22282   4.837   2.145   2.990 -0.1880 -0.3962  0.0399
  223SOD    SOD22283   3.273   0.600   7.827  0.5700  0.4206 -0.1752
  224SOD    SOD22284   0.104   5.905   0.182 -0.1008  0.0928 -0.1476
  225SOD    SOD22285   2.495   0.890   0.234 -0.1685  0.1262  0.0570
  226SOD    SOD22286   5.538   1.899   1.125 -0.0956  0.0114 -0.7035
  227SOD    SOD22287   6.412   5.718   8.062 -0.5295 -0.3294  0.1839
  228SOD    SOD22288   3.535   6.617   7.676 -0.2669  0.1470 -0.3774
  229SOD    SOD22289   5.203   4.695   3.069  0.4152 -0.0398  0.1089
  230SOD    SOD22290   1.886   0.738   8.505 -0.4982 -0.1472  0.4018
  231SOD    SOD22291   2.431   5.202   3.122 -0.0763  0.0759 -0.0746
  232SOD    SOD22292   0.880   2.660   7.809  0.1938 -0.1163  0.1519
  233SOD    SOD22293   5.794   0.062   1.603 -0.1927  0.1567 -0.1923
  234CLA    CLA22294   0.688   5.385   2.293  0.0301 -0.0660  0.3164
  235CLA    CLA22295   5.323   6.704   1.725  0.1543  0.1046  0.3649
  236CLA    CLA22296   5.927   1.188   1.650  0.1655 -0.1951 -0.4255
  237CLA    CLA22297   1.118   0.025   8.271 -0.1728  0.1750  0.1795
  238CLA    CLA22298   1.881   3.142   7.840 -0.1467 -0.2661  0.3902
  239CLA    CLA22299   0.464   3.844   0.911  0.0698 -0.0356  0.3222
  240CLA    CLA22300   5.338   4.803   0.562  0.1817  0.5174  0.0564
  241CLA    CLA22301   0.502   2.437   0.193 -0.1799 -0.1578 -0.1250
  242CLA    CLA22302   3.308   6.366   1.586  0.2414  0.3994 -0.1673
  243CLA    CLA22303   0.835   3.637   8.481  0.0129  0.1568  0.0071
  244CLA    CLA22304   0.657   6.207   0.591  0.0150 -0.0944  0.1928
  245CLA    CLA22305   3.801   2.596   8.400 -0.1590  0.2321  0.1724
  246CLA    CLA22306   5.589   0.020   2.215  0.0545 -0.1229  0.6414
  247CLA    CLA22307   5.216   3.490   8.594  0.1419 -0.2314 -0.0580
  248CLA    CLA22308   3.693   0.665   1.529  0.0764  0.1083 -0.1122
  249CLA    CLA22309   4.951   5.397   2.532  0.1909 -0.3165  0.0695
  250CLA    CLA22310   4.315   6.554   8.168 -0.0569  0.0728  0.1828
  251TIP3   OH222311   4.122   6.541   2.065  0.0923  0.3544 -0.9055
  251TIP3    H122312   4.143   6.486   2.141  0.0313  1.7046  0.1255
  251TIP3    H222313   4.194   6.526   2.004 -0.4161 -1.6142 -1.1227
  252TIP3   OH222314   1.799   3.408   1.971 -0.0355 -0.2730 -0.4910
  252TIP3    H122315   1.879   3.420   1.921 -0.4347 -1.6550 -1.5395
  252TIP3    H222316   1.729   3.416   1.906 -0.7405  0.5366  0.3366
  253TIP3   OH222317   2.674   5.903   1.748  0.1194  0.5304  0.5553
  253TIP3    H122318   2.614   5.929   1.818  3.3068  2.7019  2.7574
  253TIP3    H222319   2.678   5.979   1.691 -0.2116 -0.1320 -0.3743
  254TIP3   OH222320   2.991   4.379   7.684  0.2792  0.3579 -0.0183
  254TIP3    H122321   2.913   4.428   7.710 -0.1019  0.8209 -1.8841
  254TIP3    H222322   2.957   4.294   7.655  1.0594 -1.9000  4.7390
  255TIP3   OH222323   0.675   4.027   2.018  0.3461 -0.7440 -0.6825
  255TIP3    H122324   0.741   3.962   2.042 -2.0190 -2.1872  2.7353
  255TIP3    H222325   0.677   4.091   2.089 -2.5630 -1.4831  0.2161
  256TIP3   OH222326   3.845   4.109   8.696  0.0960  0.3646  0.3456
  256TIP3    H122327   3.778   4.121   8.628  0.8834 -1.1926 -0.7800
  256TIP3    H222328   3.800   4.064   8.766  0.3569 -2.9131 -1.3924
  257TIP3   OH222329   4.716   1.999   3.113 -0.2340  0.7728  0.3306
  257TIP3    H122330   4.629   2.021   3.078  0.3159  1.3440 -0.7205
  257TIP3    H222331   4.713   2.029   3.204 -0.7334  1.9378 -0.0448
  258TIP3   OH222332   3.743   5.249   0.142  0.8331 -0.2077  0.1512
  258TIP3    H122333   3.836   5.262   0.160  0.8418 -1.0369  0.7786
  258TIP3    H222334   3.726   5.301   0.064  1.5365  0.9731  0.7529
  259TIP3   OH222335   3.161   2.593   0.980 -0.0982 -0.5432  0.5130
  259TIP3    H122336   3.172   2.554   0.893  0.9265 -0.7665  0.7344
  259TIP3    H222337   3.088   2.654   0.969  0.6392  0.1724 -0.7685
  260TIP3   OH222338   2.307   3.587   1.761  0.3282 -0.4060  0.0796
  260TIP3    H122339   2.352   3.631   1.689 -0.8850  1.2298  0.2502
  260TIP3    H222340   2.372   3.584   1.832  0.7953  0.1334 -0.3141
  261TIP3   OH222341   3.114   1.089   8.505 -0.6039  0.0374  0.4496
  261TIP3    H122342   3.170   1.056   8.575 -1.0354 -1.7222  0.0185
  261TIP3    H222343   3.160   1.166   8.472 -0.1847  0.6475  2.3492
  262TIP3   OH222344   0.706   4.233   2.205  0.0339 -0.8745  0.0712
  262TIP3    H122345   0.704   4.329   2.203  0.6141 -0.8689 -1.4975
  262TIP3    H222346   0.719   4.212   2.298  2.8817  0.6858  0.1528
  263TIP3   OH222347   2.658   6.277   0.444 -0.4583  0.7145 -0.4488
  263TIP3    H122348   2.735   6.334   0.449 -0.4218  0.5243  2.0969
  263TIP3    H222349   2.621   6.296   0.357  3.1781 -0.2229 -2.4151
  264TIP3   OH222350   4.374   1.130   8.025 -0.3451 -0.5878 -0.3128
  264TIP3    H122351   4.443   1.190   7.998 -1.3702  0.1591 -1.3587
  264TIP3    H222352   4.371   1.137   8.120  0.5399 -0.1008 -0.3171
  265TIP3   OH222353   3.128   2.047   0.110 -0.1562 -0.0010 -0.8109
  265TIP3    H122354   3.220   2.023   0.099  0.2719  1.6670 -1.1909
  265TIP3    H222355   3.082   1.998   0.041  0.2544 -1.6520  0.0285
  266TIP3   OH222356   0.860   2.078   7.133  0.2414  0.2023 -0.2437
  266TIP3    H122357   0.815   2.162   7.142 -1.2274 -0.5629 -0.0553
  266TIP3    H222358   0.929   2.080   7.200 -1.6607  0.1259  1.8498
  267TIP3   OH222359   6.744   0.772   2.004 -0.0320 -0.1867  0.1649
  267TIP3    H122360   6.833   0.735   2.008  0.7187  1.2299 -1.6715
  267TIP3    H222361   6.696   0.728   2.074  1.8537 -1.7088  0.5860
  268TIP3   OH222362   0.108   4.263   8.472 -0.5674  0.3795 -0.0061
  268TIP3    H122363   0.014   4.264   8.454 -0.4517  0.5235 -0.6200
  268TIP3    H222364   0.145   4.205   8.405 -0.0856  1.1821 -0.4457
  269TIP3   OH222365   6.234   2.240   3.144  0.2286 -0.0048 -0.3120
  269TIP3    H122366   6.229   2.190   3.226 -2.1044  0.2957 -0.2147
  269TIP3    H222367   6.172   2.197   3.085  2.0703 -0.3871 -2.0814
  270TIP3   OH222368   4.768   6.506   2.413  0.0888 -0.1630  0.1748
  270TIP3    H122369   4.711   6.583   2.407  0.5363  0.1358 -0.2602
  270TIP3    H222370   4.709   6.432   2.403 -0.2062  0.1507 -0.4345
  271TIP3   OH222371   6.580   1.191   0.550  0.0462  0.2272 -0.1996
  271TIP3    H122372   6.556   1.113   0.500  0.1581 -1.2644  1.9637
  271TIP3    H222373   6.518   1.194   0.623  2.1098  0.1583  1.6674
  272TIP3   OH222374   5.252   3.821   0.076  0.2025 -0.1987 -0.1684
  272TIP3    H122375   5.283   3.885   0.012  0.6464 -1.4877 -1.2976
  272TIP3    H222376   5.327   3.764   0.091  0.2923  0.3923  1.9881
  273TIP3   OH222377   3.547   2.412   2.115  0.3622  0.0906 -0.5200
  273TIP3    H122378   3.593   2.413   2.031  0.5196  1.3419 -0.4447
  273TIP3    H222379   3.583   2.337   2.161  0.2739 -0.6148 -1.5670
  274TIP3   OH222380   2.610   4.473   0.721 -0.0875  0.1514  0.2498
  274TIP3    H122381   2.542   4.415   0.686 -0.5755  0.5551  0.5065
  274TIP3    H222382   2.691   4.424   0.710 -0.0515  0.6787 -2.4123
  275TIP3   OH222383   0.279   2.161   8.174  0.2999  0.0239  0.2061
  275TIP3    H122384   0.283   2.254   8.196 -0.9196  0.1471 -0.0099
  275TIP3    H222385   0.246   2.120   8.254  2.1633 -0.4430  0.7892
  276TIP3   OH222386   1.687   3.058   0.236 -0.2917  0.2130  0.0745
  276TIP3    H122387   1.753   3.000   0.273 -0.7492 -2.8311 -3.3315
  276TIP3    H222388   1.604   3.014   0.254 -0.6826 -0.1418 -2.2427
  277TIP3   OH222389   4.388   0.912   0.705 -0.1457 -0.0326 -0.4776
  277TIP3    H122390   4.311   0.883   0.657 -0.8487 -2.9265  2.0823
  277TIP3    H222391   4.358   0.988   0.755 -0.1945  1.1978 -2.2886
  278TIP3   OH222392   5.828   3.340   2.507  0.0293 -0.1821 -0.2796
  278TIP3    H122393   5.806   3.271   2.570  2.0041  0.6588  1.4526
  278TIP3    H222394   5.774   3.415   2.533  1.1510  0.3017  0.7751
  279TIP3   OH222395   3.722   3.616   1.808  0.2130  0.0266 -0.9473
  279TIP3    H122396   3.735   3.706   1.838  1.4425 -0.1023 -1.0309
  279TIP3    H222397   3.811   3.579   1.804 -0.2480 -1.0993 -1.1886
  280TIP3   OH222398   4.227   1.526   2.012  0.5959  0.2432  0.0349
  280TIP3    H122399   4.198   1.537   2.103  1.5549 -0.1530  0.4005
  280TIP3    H222400   4.274   1.442   2.013  1.0628  0.4975 -0.7135
  281TIP3   OH222401   0.553   1.143   2.493  0.3891 -0.1973 -0.4942
  281TIP3    H122402   0.553   1.103   2.581  0.5415  0.3490 -0.2421
  281TIP3    H222403   0.464   1.127   2.460 -0.3938  1.4655  0.6475
  282TIP3   OH222404   4.507   3.648   1.660 -0.2633 -0.6075 -0.5586
  282TIP3    H122405   4.467   3.734   1.648 -0.3213 -0.6825 -0.8990
  282TIP3    H222406   4.462   3.591   1.597 -0.2691 -0.9015 -0.2953
  283TIP3   OH222407   0.476   2.282   1.884 -0.1960 -0.3376 -0.0937
  283TIP3    H122408   0.552   2.250   1.835 -0.8545  0.3689 -1.6487
  283TIP3    H222409   0.407   2.289   1.818 -1.1972  0.4174  1.0093
  284TIP3   OH222410   3.857   2.905   1.597 -0.1777 -0.1386 -0.0478
  284TIP3    H122411   3.793   2.836   1.612 -0.4196  0.2564  0.7865
  284TIP3    H222412   3.940   2.867   1.625  0.0465 -0.8100 -1.5590
  285TIP3   OH222413   2.088   4.793   0.308  0.2820  0.6574 -0.1070
  285TIP3    H122414   2.162   4.830   0.356  1.0738  0.5162 -1.1754
  285TIP3    H222415   2.028   4.866   0.295  0.8024  1.0517 -0.2931
  286TIP3   OH222416   3.215   4.875   1.208 -0.1690 -0.0720  0.5473
  286TIP3    H122417   3.138   4.868   1.151  0.9505 -1.6664 -0.8738
  286TIP3    H222418   3.285   4.905   1.150  0.7047 -0.4423  1.3735
  287TIP3   OH222419   5.021   4.864   8.314 -0.0310 -0.4583  0.5135
  287TIP3    H122420   4.967   4.864   8.393 -2.6115  1.3216 -1.0739
  287TIP3    H222421   5.013   4.775   8.279 -1.5844 -0.3840  0.6088
  288TIP3   OH222422   5.610   0.769   2.460 -0.8734 -0.1302 -0.3482
  288TIP3    H122423   5.619   0.826   2.384  0.5600  1.6362  1.0605
  288TIP3    H222424   5.521   0.786   2.491 -0.2753  1.8889  0.4027
  289TIP3   OH222425   4.070   3.890   1.303 -0.3714  0.5803  0.2811
  289TIP3    H122426   4.106   3.940   1.377  0.9030  0.2715 -0.1074
  289TIP3    H222427   4.071   3.799   1.333  2.6719  0.0666 -0.9695
  290TIP3   OH222428   1.467   4.536   1.618 -0.5079 -0.1765 -0.1606
  290TIP3    H122429   1.534   4.599   1.645 -1.7182  0.7629  0.7538
  290TIP3    H222430   1.481   4.460   1.675  1.6783 -1.2803 -2.0219
  291TIP3   OH222431   2.621   2.561   7.858  0.3469  0.5657 -0.6543
  291TIP3    H122432   2.604   2.548   7.765  1.1681  1.2344 -0.9156
  291TIP3    H222433   2.695   2.622   7.860  0.1363  0.8051  0.4367
  292TIP3   OH222434   0.845   4.052   1.493 -0.1025  0.0490 -0.1104
  292TIP3    H122435   0.772   4.000   1.459  0.3769 -0.8164  0.1611
  292TIP3    H222436   0.825   4.142   1.466 -2.0054  0.0714  1.1503
  293TIP3   OH222437   2.721   2.109   2.252 -0.6271 -0.3574 -0.0656
  293TIP3    H122438   2.814   2.084   2.251 -0.7272 -0.7979  0.9988
  293TIP3    H222439   2.690   2.087   2.164  1.0894  3.0063 -1.7135
  294TIP3   OH222440   3.652   4.014   1.576 -0.3525 -0.6759 -0.2356
  294TIP3    H122441   3.561   4.000   1.604 -0.6960  2.5739  0.7336
  294TIP3    H222442   3.644   4.063   1.494  0.4024  1.2052  0.7491
  295TIP3   OH222443   0.325   2.090   2.530  0.3217 -0.6454  0.5962
  295TIP3    H122444   0.320   2.163   2.592  0.8024 -0.6477  0.6351
  295TIP3    H222445   0.258   2.029   2.562 -1.6653  0.7190 -0.6886
  296TIP3   OH222446   3.210   0.713   8.667 -0.0251 -0.1183  0.1404
  296TIP3    H122447   3.154   0.648   8.710 -0.3789 -2.2206 -3.1615
  296TIP3    H222448   3.269   0.661   8.612  0.1387  2.3026 -2.1488
  297TIP3   OH222449   2.118   3.161   1.428  0.0402  0.2744  0.2717
  297TIP3    H122450   2.135   3.204   1.512  0.0494  0.0924  0.3628
  297TIP3    H222451   2.100   3.234   1.368 -0.4766  0.3831  0.5486
  298TIP3   OH222452   2.647   2.434   1.457  1.1575  0.1611 -0.4556
  298TIP3    H122453   2.642   2.527   1.481  0.5934 -0.0422  0.2026
  298TIP3    H222454   2.599   2.428   1.375  2.2055  0.6598 -1.1374
  299TIP3   OH222455   3.414   0.832   0.216  0.2132  0.2306  0.0928
  299TIP3    H122456   3.465   0.906   0.249 -0.1813  1.0486 -1.0821
  299TIP3    H222457   3.326   0.847   0.249  0.2363  0.0209  0.2514
  300TIP3   OH222458   3.664   6.584   7.868  0.8437 -0.3317 -0.7107
  300TIP3    H122459   3.723   6.512   7.846  2.5423  0.8576 -0.2618
  300TIP3    H222460   3.718   6.645   7.920 -0.8078  0.7761 -0.1931
  301TIP3   OH222461   1.872   5.603   8.012  0.4085  0.7032 -0.4381
  301TIP3    H122462   1.912   5.563   7.935  0.4159  0.5337 -0.3461
  301TIP3    H222463   1.915   5.561   8.086  0.9804  1.4468 -0.3424
  302TIP3   OH222464   1.312   0.346   7.937 -0.3508  0.0174 -0.3310
  302TIP3    H122465   1.347   0.260   7.961  0.9155  0.9855  1.5385
  302TIP3    H222466   1.380   0.386   7.882  0.2464  0.7598  0.8926
  303TIP3   OH222467   1.837   6.241   2.485  0.2083  0.0510  0.3147
  303TIP3    H122468   1.809   6.163   2.436 -2.1134  1.6469 -1.0462
  303TIP3    H222469   1.787   6.237   2.566 -0.1416  0.2928  0.1096
  304TIP3   OH222470   1.726   6.286   7.735 -0.1055 -0.0479  0.1041
  304TIP3    H122471   1.813   6.324   7.748  0.6874 -1.8693  0.5244
  304TIP3    H222472   1.676   6.316   7.811  0.3012  0.6091  0.1216
  305TIP3   OH222473   6.367   2.868   8.129 -0.2734  0.2580 -0.0519
  305TIP3    H122474   6.388   2.787   8.082  0.3930  1.4620 -1.9531
  305TIP3    H222475   6.397   2.852   8.219  0.7377 -1.2549 -0.6130
  306TIP3   OH222476   4.336   2.238   7.997  0.7314 -0.0660 -0.3381
  306TIP3    H122477   4.261   2.282   7.958 -1.0808 -4.6947 -2.9532
  306TIP3    H222478   4.411   2.293   7.976 -1.4586  2.9218 -0.9377
  307TIP3   OH222479   2.473   4.527   1.710 -0.2237  0.2475  0.1513
  307TIP3    H122480   2.384   4.549   1.737 -1.3661 -1.1843 -2.0528
  307TIP3    H222481   2.503   4.463   1.774 -1.5828 -0.6959 -0.1024
  308TIP3   OH222482   0.434   3.673   1.564 -0.0614  0.3699 -0.0007
  308TIP3    H122483   0.408   3.678   1.656 -0.1108 -0.1569  0.0149
  308TIP3    H222484   0.431   3.764   1.534 -0.4050  0.5018  0.4170
  309TIP3   OH222485   3.854   1.297   2.186  0.5280  0.0477  0.1511
  309TIP3    H122486   3.861   1.390   2.207  0.3972  0.0550  0.1609
  309TIP3    H222487   3.898   1.252   2.258 -0.7297  0.0211  0.9358
  310TIP3   OH222488   2.767   2.244   7.720  0.0292 -0.3354 -0.6576
  310TIP3    H122489   2.746   2.153   7.699  0.1937 -1.0114  1.7865
  310TIP3    H222490   2.760   2.290   7.636 -0.3202 -2.5256 -1.9196
  311TIP3   OH222491   2.259   3.120   8.200  0.2681 -0.2812  0.3289
  311TIP3    H122492   2.214   3.111   8.284 -0.4553 -0.1930 -0.0466
  311TIP3    H222493   2.229   3.045   8.148 -0.5756  0.5559 -0.4320
  312TIP3   OH222494   4.454   4.201   1.067 -0.2451  0.1854 -0.5787
  312TIP3    H122495   4.523   4.135   1.077 -0.3382  0.3725  1.8033
  312TIP3    H222496   4.389   4.177   1.133 -1.9370  0.7046 -1.9788
  313TIP3   OH222497   6.638   6.707   0.285  0.0131  0.0291 -0.2809
  313TIP3    H122498   6.649   6.717   0.380  0.6095 -1.5752 -0.1389
  313TIP3    H222499   6.563   6.648   0.276  0.1731 -0.1039 -0.7830
  314TIP3   OH222500   1.571   3.257   2.892 -0.0962 -0.3287 -0.2788
  314TIP3    H122501   1.513   3.305   2.951  0.2030  0.0344 -0.2780
  314TIP3    H222502   1.562   3.166   2.919 -0.0365 -0.1768  0.2635
  315TIP3   OH222503   1.221   1.319   1.230  0.0216  0.0325 -0.7552
  315TIP3    H122504   1.194   1.376   1.158 -1.8781  0.8996  0.5484
  315TIP3    H222505   1.287   1.371   1.278  0.8865 -0.3268 -1.5396
  316TIP3   OH222506   5.785   3.384   0.304  0.4271  0.1281 -1.3238
  316TIP3    H122507   5.705   3.353   0.262 -0.6101  1.3627 -0.3244
  316TIP3    H222508   5.826   3.305   0.339 -1.4833 -0.3278  0.0277
  317TIP3   OH222509   0.836   1.331   0.541  0.3918 -0.3391 -0.0813
  317TIP3    H122510   0.874   1.371   0.619  1.1450 -0.1388 -0.5341
  317TIP3    H222511   0.843   1.399   0.473  0.6353 -0.8406 -0.5677
  318TIP3   OH222512   1.754   5.668   2.495 -0.4157  0.2295  0.0081
  318TIP3    H122513   1.791   5.634   2.576  0.2102 -0.0765 -0.4022
  318TIP3    H222514   1.759   5.595   2.433 -0.9082  0.4530 -0.3017
  319TIP3   OH222515   5.814   4.325   3.031  0.3353 -0.5548  0.4540
  319TIP3    H122516   5.763   4.262   3.082  0.1072 -1.9640 -1.4124
  319TIP3    H222517   5.878   4.360   3.093 -1.1335 -0.7553  2.1630
  320TIP3   OH222518   4.593   2.024   2.490 -0.9414  0.2007  0.3784
  320TIP3    H122519   4.508   1.979   2.494 -0.6709 -0.5518 -1.2944
  320TIP3    H222520   4.593   2.067   2.405 -0.5406  2.1289  1.3141
  321TIP3   OH222521   0.837   5.313   1.044  0.3845 -0.1799  0.2699
  321TIP3    H122522   0.797   5.245   0.989 -0.0875  0.5719 -0.3374
  321TIP3    H222523   0.876   5.264   1.117 -0.7709 -1.0374  0.3561
  322TIP3   OH222524   5.426   5.335   0.440 -0.1578  0.1513  0.3844
  322TIP3    H122525   5.440   5.338   0.534 -1.0929 -1.0932  0.5949
  322TIP3    H222526   5.334   5.358   0.429 -0.2937 -0.6037 -0.1307
  323TIP3   OH222527   1.682   2.269   8.428 -0.0446 -0.1516  0.3011
  323TIP3    H122528   1.598   2.250   8.386  0.2829 -2.4905  0.5317
  323TIP3    H222529   1.726   2.330   8.368 -1.3450  0.0132 -0.5122
  324TIP3   OH222530   1.007   0.399   2.113 -0.2908 -0.5054  0.1429
  324TIP3    H122531   1.011   0.450   2.032 -2.3601 -0.6781 -0.1231
  324TIP3    H222532   0.978   0.312   2.086 -0.0401 -0.8550  0.9614
  325TIP3   OH222533   0.392   4.510   0.334  0.0638 -0.2580  0.1792
  325TIP3    H122534   0.431   4.514   0.421 -1.8082  0.0968  1.0623
  325TIP3    H222535   0.393   4.600   0.302 -0.0640 -0.2431  0.2170
  326TIP3   OH222536   0.430   0.954   1.680 -0.5322  0.4346 -0.0415
  326TIP3    H122537   0.394   0.950   1.591 -2.3157  1.7197  0.5680
  326TIP3    H222538   0.508   1.009   1.672 -0.0090 -0.3882 -0.9737
  327TIP3   OH222539   3.616   0.847   2.721 -0.2542  0.0478  0.2046
  327TIP3    H122540   3.691   0.904   2.708 -0.1355 -0.4172 -1.3227
  327TIP3    H222541   3.542   0.907   2.733 -0.0144  0.5325 -0.6415
  328TIP3   OH222542   3.438   1.322   0.251 -0.9400  0.0125 -0.1143
  328TIP3    H122543   3.348   1.289   0.253 -0.9518  0.0518  0.0363
  328TIP3    H222544   3.490   1.253   0.293 -1.0268  0.3696  0.6008
  329TIP3   OH222545   6.779   4.171   1.819 -0.2040 -0.1612  0.4252
  329TIP3    H122546   6.767   4.263   1.794  2.4548  0.6525  1.7213
  329TIP3    H222547   6.791   4.124   1.736 -4.3652  0.0226 -0.4865
  330TIP3   OH222548   2.292   4.888   2.789 -0.1632 -0.2905  0.5088
  330TIP3    H122549   2.258   4.801   2.812  0.7161 -0.7053  0.2616
  330TIP3    H222550   2.214   4.938   2.764 -0.5511 -1.3460 -0.4585
  331TIP3   OH222551   1.962   0.194   0.584 -0.6582 -0.3772  0.1065
  331TIP3    H122552   2.006   0.196   0.499  0.9556  0.2124  0.9341
  331TIP3    H222553   1.998   0.117   0.628 -0.9578 -0.2700  0.5459
  332TIP3   OH222554   4.149   4.459   8.392  0.4019  0.3654 -0.0329
  332TIP3    H122555   4.199   4.523   8.443  1.6317 -1.1980  0.8147
  332TIP3    H222556   4.158   4.489   8.301  0.8337  1.4571  0.3563
  333TIP3   OH222557   3.575   1.529   0.570  0.4965 -0.3763 -0.3698
  333TIP3    H122558   3.597   1.522   0.663  0.4969  1.3079 -0.2019
  333TIP3    H222559   3.650   1.574   0.530 -0.1640  0.3222 -0.8645
  334TIP3   OH222560   3.618   5.388   7.700  0.5665 -0.0374  0.2058
  334TIP3    H122561   3.650   5.478   7.691 -1.4361  0.6303 -0.6375
  334TIP3    H222562   3.567   5.389   7.781 -0.8841  0.0871 -0.6676
  335TIP3   OH222563   6.615   6.482   0.046  0.0185  0.1484  0.0899
  335TIP3    H122564   6.563   6.538  -0.012  0.7194  0.2592 -0.4421
  335TIP3    H222565   6.691   6.536   0.069 -0.2646  0.1129  1.1361
  336TIP3   OH222566   5.741   0.976   1.768  0.4056  0.0107 -0.4331
  336TIP3    H122567   5.795   1.053   1.751  0.4527 -0.3519 -2.0998
  336TIP3    H222568   5.805   0.906   1.784  0.3689  0.1420  0.3484
  337TIP3   OH222569   4.132   0.471   1.331 -0.1237  0.4035  0.3728
  337TIP3    H122570   4.074   0.428   1.268 -0.0110 -2.8505  2.2625
  337TIP3    H222571   4.075   0.530   1.381 -1.0687 -0.1135 -0.0754
  338TIP3   OH222572   4.938   3.327   1.109 -0.6255 -0.5000 -1.0394
  338TIP3    H122573   4.889   3.298   1.032 -2.6024 -1.9013  0.6372
  338TIP3    H222574   4.960   3.247   1.156 -0.4771  0.3574  0.4381
  339TIP3   OH222575   3.398   4.375   3.229  0.4692 -0.3264 -0.2931
  339TIP3    H122576   3.424   4.332   3.148  3.2076  0.5844 -0.0202
  339TIP3    H222577   3.414   4.309   3.297 -0.2358 -0.5454 -0.3375
  340TIP3   OH222578   4.638   2.500   7.744  0.1278  0.0528  0.3208
  340TIP3    H122579   4.623   2.581   7.694  0.6137  0.1250  0.2875
  340TIP3    H222580   4.592   2.514   7.827  1.0951  0.8175  0.7557
  341TIP3   OH222581   1.789   4.030   2.300 -0.4730 -0.8815 -0.0316
  341TIP3    H122582   1.853   4.092   2.264 -0.9491 -0.7634 -0.6860
  341TIP3    H222583   1.820   4.014   2.389 -1.2018  1.5401  0.7593
  342TIP3   OH222584   2.094   5.047   1.284  0.0924  0.4525 -0.3015
  342TIP3    H122585   2.155   5.011   1.220  0.1434  0.0384 -0.0237
  342TIP3    H222586   2.139   5.123   1.321 -0.2574  1.1947 -1.3241
  343TIP3   OH222587   2.662   4.753   0.665  0.0772 -0.7264 -0.0651
  343TIP3    H122588   2.610   4.798   0.731  0.7755 -0.7360  0.5083
  343TIP3    H222589   2.637   4.661   0.673  0.3464 -0.7637  0.3677
  344TIP3   OH222590   3.484   4.460   1.589 -0.5199  0.3473 -0.4816
  344TIP3    H122591   3.526   4.459   1.502 -1.8182 -0.3418 -1.1263
  344TIP3    H222592   3.454   4.371   1.603 -0.4013  0.4722  0.6589
  345TIP3   OH222593   6.684   3.343   0.383 -0.1242  0.4113  0.1511
  345TIP3    H122594   6.670   3.397   0.305  2.3390  1.0933  0.1111
  345TIP3    H222595   6.664   3.402   0.456 -2.7064 -0.3089  0.1231
  346TIP3   OH222596   5.003   5.294   1.519 -0.3879  0.3004  0.2809
  346TIP3    H122597   4.958   5.276   1.437 -0.8285 -0.5698  0.7010
  346TIP3    H222598   5.096   5.298   1.495 -0.1233 -3.1999  0.1751
  347TIP3   OH222599   1.549   2.992   7.731  0.5037 -0.5865 -0.3013
  347TIP3    H122600   1.566   3.083   7.708  0.3523 -0.4198  0.2258
  347TIP3    H222601   1.552   2.991   7.827  0.5501 -1.1446 -0.3093
  348TIP3   OH222602   2.114   2.894   2.154  0.3045 -0.5975  0.8713
  348TIP3    H122603   2.190   2.857   2.109 -0.0624 -0.5335  0.1841
  348TIP3    H222604   2.135   2.987   2.164 -0.2373 -0.2865 -0.5571
  349TIP3   OH222605   3.196   5.114   0.147  0.6441  0.1234  0.0068
  349TIP3    H122606   3.102   5.099   0.157  0.6283  0.6829  0.7378
  349TIP3    H222607   3.236   5.064   0.218  0.8058  0.9143  0.4790
  350TIP3   OH222608   4.618   0.618   2.835 -0.5037  0.1998  0.0474
  350TIP3    H122609   4.543   0.587   2.885  0.2053  1.6452  2.1609
  350TIP3    H222610   4.675   0.659   2.900  2.2061 -0.9223 -1.4179
  351TIP3   OH222611   4.603   3.997   7.968  0.8167 -0.5116 -0.1695
  351TIP3    H122612   4.575   4.085   7.940  1.1523 -0.2218  0.3826
  351TIP3    H222613   4.545   3.975   8.040 -0.0278 -1.2477 -1.0590
  352TIP3   OH222614   6.679   4.221   8.404  0.8279 -0.7763  0.2185
  352TIP3    H122615   6.635   4.199   8.486  0.5192 -1.2677 -0.0773
  352TIP3    H222616   6.626   4.180   8.336 -0.3804  1.7340 -0.4646
  353TIP3   OH222617   0.791   1.634   7.936  0.1018  0.2981 -0.3906
  353TIP3    H122618   0.771   1.576   8.009  0.8320  0.2155 -0.2476
  353TIP3    H222619   0.784   1.579   7.858  1.3538 -0.1404 -0.2105
  354TIP3   OH222620   6.755   0.900   7.042  0.1541 -0.1096 -0.0438
  354TIP3    H122621   6.745   0.995   7.053  0.2033  0.0131 -0.9713
  354TIP3    H222622   6.689   0.862   7.100  1.3632  0.4267  1.7734
  355TIP3   OH222623   5.978   1.936   0.010  0.4652 -0.4893 -0.8812
  355TIP3    H122624   5.984   1.995   0.085  0.9569  1.5856 -2.4723
  355TIP3    H222625   6.057   1.953  -0.041  0.9104 -2.9708 -1.1447
  356TIP3   OH222626   0.412   1.493   8.716 -0.2608  0.2013  0.5045
  356TIP3    H122627   0.417   1.411   8.766 -0.5778 -0.0053  0.1949
  356TIP3    H222628   0.478   1.483   8.647 -0.9810 -0.2044 -0.1362
  357TIP3   OH222629   0.117   3.592   3.094 -0.0912 -0.4879  0.7561
  357TIP3    H122630   0.051   3.657   3.119 -0.2420 -0.2914 -0.1260
  357TIP3    H222631   0.093   3.513   3.142 -0.9326 -0.4059  0.4767
  358TIP3   OH222632   5.535   6.833   3.160  0.0227 -0.3072  0.1088
  358TIP3    H122633   5.466   6.775   3.192  0.9362 -1.4938 -0.0116
  358TIP3    H222634   5.614   6.804   3.205  0.4040  1.2592  0.5075
  359TIP3   OH222635   4.882   4.273   7.362  0.4251  0.3863  0.1064
  359TIP3    H122636   4.822   4.310   7.296  0.5837  0.0833 -0.2120
  359TIP3    H222637   4.957   4.244   7.311 -0.3701 -1.8700  0.1333
  360TIP3   OH222638   2.609   3.219   8.504  0.2658  0.4191 -0.2830
  360TIP3    H122639   2.619   3.127   8.481  0.2467  0.5381 -0.7906
  360TIP3    H222640   2.672   3.264   8.447 -1.1654  0.9122 -1.5282
  361TIP3   OH222641   4.189   4.445   2.587  0.1390  0.1386 -0.5672
  361TIP3    H122642   4.125   4.396   2.638 -1.3041  1.0566 -1.4005
  361TIP3    H222643   4.245   4.487   2.652 -1.5367  1.1456  0.3221
  362TIP3   OH222644   3.804   6.657   1.327  0.0691  0.2964 -0.1000
  362TIP3    H122645   3.709   6.670   1.322  0.1555  0.8895 -0.2807
  362TIP3    H222646   3.820   6.633   1.418 -0.1856  0.7950  0.0773
  363TIP3   OH222647   4.833   1.749   3.198 -0.3526  0.6853  0.4247
  363TIP3    H122648   4.884   1.781   3.273 -1.2662 -0.1675  1.4480
  363TIP3    H222649   4.780   1.823   3.172  0.1072  1.0465  0.4963
  364TIP3   OH222650   6.248   0.034   1.241 -0.2877 -0.1365  0.2259
  364TIP3    H122651   6.295   0.113   1.267  0.2289 -0.1407 -0.6832
  364TIP3    H222652   6.315  -0.024   1.204 -1.0177 -0.0239 -1.3613
  365TIP3   OH222653   1.720   1.504   1.533 -0.1269 -0.6353  0.6204
  365TIP3    H122654   1.778   1.435   1.567  1.4510  0.4523  0.2271
  365TIP3    H222655   1.639   1.458   1.511  0.1564 -2.0185  2.2485
  366TIP3   OH222656   5.966   0.318   0.811 -0.1109 -0.2631 -0.0041
  366TIP3    H122657   5.959   0.349   0.721  1.1497 -0.7744 -0.2978
  366TIP3    H222658   5.919   0.234   0.812  2.0879 -1.5954 -0.8975
  367TIP3   OH222659   6.344   0.245   1.563 -0.0917 -0.6687 -0.1111
  367TIP3    H122660   6.368   0.313   1.626 -0.5531 -0.3189 -0.3149
  367TIP3    H222661   6.399   0.262   1.487 -0.9886  0.1408 -0.5828
  368TIP3   OH222662   5.703   1.738   3.772 -0.0620 -0.0661 -0.9881
  368TIP3    H122663   5.789   1.757   3.808 -0.4994  0.0220  0.0393
  368TIP3    H222664   5.658   1.823   3.771 -0.3042 -0.1935 -1.0764
  369TIP3   OH222665   4.862   0.472   8.730 -0.3029  0.1166  0.3259
  369TIP3    H122666   4.886   0.383   8.754  2.6182  0.5643 -0.5467
  369TIP3    H222667   4.820   0.464   8.644  1.1875 -0.3612 -0.3954
  370TIP3   OH222668   3.435   2.689   0.367  0.0100  0.2207 -0.0798
  370TIP3    H122669   3.450   2.731   0.282 -0.1551 -0.0735 -0.2550
  370TIP3    H222670   3.383   2.611   0.347  0.7472 -0.3533  0.1786
  371TIP3   OH222671   0.302   4.272   0.902 -0.2699  0.4965  0.2960
  371TIP3    H122672   0.386   4.232   0.924 -0.5235  0.4330  1.1899
  371TIP3    H222673   0.256   4.279   0.986 -0.3588  2.3775  0.1302
  372TIP3   OH222674   0.956   4.448   8.266  0.4537 -0.1899  0.3974
  372TIP3    H122675   0.870   4.483   8.244  0.1115 -0.5783  1.0796
  372TIP3    H222676   0.944   4.353   8.266  0.4416 -0.2134  2.1819
  373TIP3   OH222677   0.156   6.806   0.087  0.4105 -0.0129 -0.4710
  373TIP3    H122678   0.171   6.724   0.039  0.4636  0.1936 -0.8055
  373TIP3    H222679   0.240   6.851   0.084  0.4070  0.0125 -0.2024
  374TIP3   OH222680   3.591   2.670   8.052 -0.2792 -0.0280  0.2211
  374TIP3    H122681   3.664   2.714   8.009 -0.7305 -0.0436 -0.5865
  374TIP3    H222682   3.587   2.709   8.139  0.4296  0.2695  0.1247
  375TIP3   OH222683   2.869   1.764   7.743 -0.8827 -0.3489 -0.0678
  375TIP3    H122684   2.937   1.811   7.694 -1.5127  0.4890 -0.1718
  375TIP3    H222685   2.821   1.715   7.676  0.1612 -1.6559  0.1193
  376TIP3   OH222686   2.598   5.958   2.033  0.0275 -0.1945  0.1592
  376TIP3    H122687   2.669   5.908   2.074  1.6345  1.4303 -0.5110
  376TIP3    H222688   2.573   6.023   2.100 -0.7045 -0.6038  0.3014
  377TIP3   OH222689   2.906   1.486   1.429  0.3606  0.7472  0.1676
  377TIP3    H122690   2.939   1.502   1.340  0.6884 -0.4517  0.0524
  377TIP3    H222691   2.811   1.484   1.420  0.3887 -3.2684 -0.9642
  378TIP3   OH222692   5.714   5.940   0.614  0.1708 -0.0087  0.2734
  378TIP3    H122693   5.733   5.866   0.671 -0.4011 -0.5256 -0.1867
  378TIP3    H222694   5.717   5.903   0.525  1.6259  0.8995 -0.0856
  379TIP3   OH222695   6.525   2.532   6.813  0.5786 -0.2533 -0.0193
  379TIP3    H122696   6.599   2.590   6.800  1.1066 -0.5516  1.4397
  379TIP3    H222697   6.505   2.539   6.907 -0.6389 -0.8777 -0.2095
  380TIP3   OH222698   0.985   1.520   2.777 -0.1415  0.6837  0.2743
  380TIP3    H122699   0.920   1.583   2.744  1.0933  1.1568 -1.3729
  380TIP3    H222700   0.958   1.504   2.867 -1.1773  2.6912  0.3850
  381TIP3   OH222701   5.145   5.974   7.900  0.2132 -0.3374 -0.1790
  381TIP3    H122702   5.206   5.924   7.955  1.6368 -0.8419 -2.1248
  381TIP3    H222703   5.130   5.919   7.824 -0.4876  0.9963 -1.0414
  382TIP3   OH222704   6.006   2.474   0.527 -0.6008 -0.5957 -0.5792
  382TIP3    H122705   6.000   2.558   0.481 -1.1263  0.7115  1.7626
  382TIP3    H222706   5.929   2.425   0.498 -1.0783  0.3026 -0.8323
  383TIP3   OH222707   3.979   1.328   2.415  0.2260  0.0911  0.0958
  383TIP3    H122708   4.067   1.333   2.378  0.1797  0.6534  0.0506
  383TIP3    H222709   3.980   1.393   2.486 -0.4844  0.8930 -0.6106
  384TIP3   OH222710   3.380   1.072   8.193  0.2076 -0.0412  0.0041
  384TIP3    H122711   3.315   1.004   8.212  1.6926 -1.6025 -0.3066
  384TIP3    H222712   3.414   1.098   8.279  1.9653 -2.1114  0.0123
  385TIP3   OH222713   5.056   6.476   8.561 -0.1012  0.1069 -0.6026
  385TIP3    H122714   5.032   6.448   8.473 -0.1355  1.7111 -1.1355
  385TIP3    H222715   5.059   6.571   8.556 -0.0082  0.2279  1.1151
  386TIP3   OH222716   3.685   5.652   7.599  0.4873 -0.2568  0.1882
  386TIP3    H122717   3.708   5.727   7.544  3.2486 -0.4553  0.9200
  386TIP3    H222718   3.591   5.641   7.586  0.1043  2.8493 -0.5215
  387TIP3   OH222719   6.506   2.995   1.469 -0.3118 -0.4405 -0.1478
  387TIP3    H122720   6.501   2.899   1.470 -1.2796 -0.4040 -0.2065
  387TIP3    H222721   6.563   3.016   1.542  1.0474 -1.1060 -0.9758
  388TIP3   OH222722   4.292   4.312   0.139 -0.0494  0.5007  0.0050
  388TIP3    H122723   4.219   4.319   0.078 -0.0095  1.8691  0.0812
  388TIP3    H222724   4.281   4.386   0.199  1.4679  0.8491 -0.0884
  389TIP3   OH222725   4.586   4.056   1.929 -0.4859  0.0539 -0.7216
  389TIP3    H122726   4.510   4.101   1.965  0.0598 -0.8627  1.7424
  389TIP3    H222727   4.561   3.963   1.927  0.9500 -0.4362  1.3507
  390TIP3   OH222728   3.276   2.467   0.328  0.1998  0.0745 -0.4331
  390TIP3    H122729   3.182   2.470   0.343  0.4140  0.1290  1.1139
  390TIP3    H222730   3.288   2.401   0.259 -1.1574  2.1237 -2.7788
  391TIP3   OH222731   2.112   1.704   0.392  0.5406 -0.3769  0.1917
  391TIP3    H122732   2.070   1.628   0.352  2.8131 -0.4692 -2.3231
  391TIP3    H222733   2.145   1.755   0.318  0.4899  2.2684  1.8625
  392TIP3   OH222734   2.466   3.830   1.130  0.3121  0.5903 -0.2981
  392TIP3    H122735   2.435   3.811   1.219  0.6300 -0.8837 -0.4598
  392TIP3    H222736   2.497   3.920   1.133  0.0035  0.6660  1.0057
  393TIP3   OH222737   3.712   5.054   7.290 -0.4670 -0.3202 -1.0809
  393TIP3    H122738   3.760   5.128   7.251  0.2176  0.1375  0.5233
  393TIP3    H222739   3.713   5.072   7.384  0.5517 -2.8465 -0.5240
  394TIP3   OH222740   4.227   5.009   8.447  0.1761  0.2053  0.2218
  394TIP3    H122741   4.168   5.081   8.424 -0.6657 -1.1108 -2.0779
  394TIP3    H222742   4.291   5.006   8.376  0.4137 -1.0812  0.4587
  395TIP3   OH222743   2.981   4.746   1.732 -0.7372  0.0919  0.6296
  395TIP3    H122744   2.895   4.709   1.751 -1.3539  0.9389 -0.3280
  395TIP3    H222745   3.024   4.754   1.817 -2.0147  0.6089  1.2553
  396TIP3   OH222746   3.462   0.425   2.394  0.0630 -0.1353  0.6966
  396TIP3    H122747   3.544   0.389   2.361  0.6667 -0.0897  2.0738
  396TIP3    H222748   3.474   0.520   2.393  0.7670 -0.1556  2.5707
  397TIP3   OH222749   6.100   5.424   2.890 -0.2686  0.0560  0.4338
  397TIP3    H122750   6.184   5.420   2.844 -0.4623 -2.0540  0.1675
  397TIP3    H222751   6.123   5.424   2.982  0.0376 -0.4709  0.3621
  398TIP3   OH222752   0.461   1.825   2.717 -0.3338  0.3166  0.6373
  398TIP3    H122753   0.418   1.910   2.711 -1.2211 -0.2175 -0.9871
  398TIP3    H222754   0.532   1.829   2.654 -0.2037 -0.0602  0.7562
  399TIP3   OH222755   1.420   5.081   0.770  0.3789 -0.7479  0.2272
  399TIP3    H122756   1.330   5.051   0.783  0.2426 -0.5690 -0.2740
  399TIP3    H222757   1.415   5.176   0.775  0.7349 -0.7844  1.3513
  400TIP3   OH222758   1.359   0.613   1.287 -0.5758 -0.7484  0.2149
  400TIP3    H122759   1.411   0.692   1.277  0.6196 -1.5022  0.3349
  400TIP3    H222760   1.273   0.636   1.252  0.2197  0.1212 -1.2426
  401TIP3   OH222761   0.581   3.568   0.812 -0.5763 -0.2709  0.2216
  401TIP3    H122762   0.553   3.648   0.856  1.9941  0.3311  0.9613
  401TIP3    H222763   0.508   3.508   0.821 -2.0101  1.4981  0.9442
  402TIP3   OH222764   0.771   6.423   0.827  0.0279 -0.3852 -0.4162
  402TIP3    H122765   0.736   6.451   0.742 -0.0413 -0.2779 -0.3522
  402TIP3    H222766   0.811   6.338   0.809 -1.4242 -1.1366 -0.2193
  403TIP3   OH222767   6.418   2.757   1.649  0.3085 -0.5108  0.1678
  403TIP3    H122768   6.371   2.701   1.587  0.7491  0.5427 -1.1595
  403TIP3    H222769   6.354   2.823   1.675 -0.0403 -1.2714  1.2895
  404TIP3   OH222770   1.553   5.275   1.952 -0.0636 -0.0936  0.4541
  404TIP3    H122771   1.484   5.330   1.914  0.3100  1.1378  1.5169
  404TIP3    H222772   1.511   5.232   2.027 -0.2455 -0.9924 -0.1446
  405TIP3   OH222773   5.924   2.230   0.311  0.4426 -0.3565  0.4525
  405TIP3    H122774   5.985   2.168   0.271  0.3177 -0.5062  0.4959
  405TIP3    H222775   5.876   2.268   0.238  0.9151  0.1125  0.3739
  406TIP3   OH222776   6.030   6.278   2.313 -0.5993  0.5271 -0.6285
  406TIP3    H122777   6.039   6.183   2.301  0.9061  0.7514 -1.5842
  406TIP3    H222778   5.993   6.288   2.400 -1.4221 -0.9568 -0.7738
  407TIP3   OH222779   5.087   5.658   8.300 -0.1953 -0.7606  0.1122
  407TIP3    H122780   5.124   5.742   8.327 -0.4621 -0.5215 -0.2582
  407TIP3    H222781   5.158   5.595   8.315 -0.5826 -0.7925  2.1564
  408TIP3   OH222782   5.946   4.246   0.242 -0.1725  0.5383  0.0868
  408TIP3    H122783   5.912   4.330   0.273  2.3886  1.8709 -0.4555
  408TIP3    H222784   6.016   4.224   0.304 -0.7952 -1.2453  0.2187
  409TIP3   OH222785   3.504   1.198   0.025 -0.4061  0.0914  0.3633
  409TIP3    H122786   3.444   1.123   0.028  0.7607 -0.9195 -0.4352
  409TIP3    H222787   3.488   1.244   0.108 -0.8743 -1.2698  1.0756
  410TIP3   OH222788   6.400   1.939   2.955  0.2260 -0.6281  0.5234
  410TIP3    H122789   6.338   1.885   3.005  0.9138 -2.0802 -0.1409
  410TIP3    H222790   6.444   1.993   3.021 -0.3323 -1.0192  1.2306
  411TIP3   OH222791   4.914   6.279   8.689 -0.3087  0.4222 -0.3644
  411TIP3    H122792   4.983   6.275   8.755  0.2205  2.9280 -0.7014
  411TIP3    H222793   4.938   6.351   8.632 -2.1850  0.0788 -1.6886
  412TIP3   OH222794   6.760   5.089   3.023 -0.3537  0.1563 -0.7046
  412TIP3    H122795   6.764   5.007   3.071 -2.0305  0.8299  0.7174
  412TIP3    H222796   6.814   5.075   2.945 -1.3682 -2.6139 -1.0050
  413TIP3   OH222797   2.025   5.794   7.761 -0.8652  0.9347  0.4547
  413TIP3    H122798   2.040   5.813   7.853  0.0734 -1.2749  0.8224
  413TIP3    H222799   2.112   5.779   7.725 -1.2675  1.1200 -0.6396
  414TIP3   OH222800   0.203   3.603   0.264 -0.5119  0.3595 -0.0380
  414TIP3    H122801   0.179   3.532   0.324  0.5542 -0.8128 -0.9370
  414TIP3    H222802   0.157   3.583   0.183 -0.3274  0.7857 -0.2482
  415TIP3   OH222803   5.328   1.153   8.080 -0.0901  0.7613 -0.6122
  415TIP3    H122804   5.408   1.145   8.133 -0.4117  0.3652 -0.1903
  415TIP3    H222805   5.305   1.246   8.086  0.3497  0.8843 -0.7572
  416TIP3   OH222806   0.520   4.663   0.723  0.4791  0.0869 -0.5456
  416TIP3    H122807   0.448   4.621   0.768  1.2561  0.9049  1.5773
  416TIP3    H222808   0.483   4.744   0.688 -0.4058 -1.0799 -2.5039
  417TIP3   OH222809   1.129   2.466   0.008 -0.1708 -0.1949 -0.0084
  417TIP3    H122810   1.222   2.489   0.013  0.0556 -0.0213 -3.1301
  417TIP3    H222811   1.083   2.546   0.033  0.5250  0.1729  0.1298
  418TIP3   OH222812   2.067   5.709   2.711 -0.0554 -0.4477  0.2065
  418TIP3    H122813   2.043   5.801   2.702 -1.2981 -0.3663  3.2398
  418TIP3    H222814   2.162   5.710   2.725 -0.0799  0.3938  0.3404
  419TIP3   OH222815   3.062   6.152   0.672 -0.0656 -0.0753 -0.3169
  419TIP3    H122816   3.071   6.229   0.615  0.2830 -1.0323 -1.5833
  419TIP3    H222817   2.982   6.109   0.641 -0.6195  0.1016  0.8130
  420TIP3   OH222818   2.017   0.988   1.345  0.0869 -0.2973  0.3405
  420TIP3    H122819   1.981   0.901   1.329 -0.1225 -0.5677  2.0679
  420TIP3    H222820   2.112   0.976   1.336  0.5214 -1.8107  4.5032
  421TIP3   OH222821   3.699   5.993   2.570 -0.2166 -0.2599  0.2729
  421TIP3    H122822   3.762   5.983   2.641 -2.4948 -0.7039  2.3873
  421TIP3    H222823   3.661   5.905   2.559  2.7850 -1.3471 -4.4411
  422TIP3   OH222824   1.494   5.899   1.940  0.3859  0.0133  0.1147
  422TIP3    H122825   1.484   5.814   1.983  1.8005  0.6870  1.8988
  422TIP3    H222826   1.501   5.877   1.847 -0.6278 -1.6940  0.3998
  423TIP3   OH222827   4.266   4.062   7.710  0.1096  0.5748  0.0847
  423TIP3    H122828   4.222   4.065   7.625 -0.5716  0.0723  0.4060
  423TIP3    H222829   4.198   4.032   7.771  0.8162  0.0796  0.6453
  424TIP3   OH222830   3.017   5.079   2.209 -0.1216  0.6482 -0.5908
  424TIP3    H122831   3.075   5.131   2.264  0.6525 -1.7838  1.0489
  424TIP3    H222832   2.950   5.141   2.180  1.0883  2.6695  0.6838
  425TIP3   OH222833   3.027   1.121   3.198  0.1265  0.4347  0.6714
  425TIP3    H122834   2.950   1.174   3.178  0.8708  1.1257 -0.4813
  425TIP3    H222835   3.098   1.185   3.206  0.7973 -0.2847  0.5723
  426TIP3   OH222836   0.333   2.455   1.557  0.3356 -0.9877  0.0902
  426TIP3    H122837   0.414   2.485   1.517 -0.4931  0.6909 -0.4037
  426TIP3    H222838   0.296   2.533   1.599 -1.9556 -1.2214 -1.3007
  427TIP3   OH222839   0.810   0.629   2.199  0.1744 -0.1547 -0.0426
  427TIP3    H122840   0.754   0.693   2.243  1.6334  1.0502  0.1059
  427TIP3    H222841   0.782   0.544   2.234 -2.3256  0.2584 -0.8144
  428TIP3   OH222842   6.339   6.404   8.022 -0.4442  0.2815  0.1238
  428TIP3    H122843   6.266   6.436   7.970  0.2832 -0.1590 -1.2323
  428TIP3    H222844   6.407   6.470   8.011 -0.2649  0.1582  0.4806
  429TIP3   OH222845   2.397   4.018   8.700  0.1732  0.0534 -0.3620
  429TIP3    H122846   2.488   4.016   8.730  0.0580  1.4293  0.1436
  429TIP3    H222847   2.346   3.986   8.775  0.0476  1.7154  0.3046
  430TIP3   OH222848   0.782   1.985   8.420 -0.0279  0.4746 -0.3129
  430TIP3    H122849   0.790   1.898   8.382 -0.4280 -0.1650  1.0090
  430TIP3    H222850   0.867   2.003   8.458 -0.0684  0.4926 -0.2309
  431TIP3   OH222851   2.165   1.962   2.244  0.6375 -0.4151  0.3425
  431TIP3    H122852   2.144   2.055   2.256 -0.9817 -0.7130  0.0253
  431TIP3    H222853   2.150   1.923   2.330 -1.1488 -0.7887 -0.0952
  432TIP3   OH222854   3.815   5.924   8.475  0.1768 -0.4268  0.0852
  432TIP3    H122855   3.814   6.012   8.514  0.2746 -0.6835  0.6729
  432TIP3    H222856   3.736   5.921   8.422 -0.7287 -0.5572  1.3851
  433TIP3   OH222857   4.700   1.096   8.206 -0.5543  0.5054 -0.8395
  433TIP3    H122858   4.624   1.082   8.262 -0.6880  2.3079 -0.5142
  433TIP3    H222859   4.667   1.085   8.117 -1.2600  1.5212 -0.7096
  434TIP3   OH222860   3.980   1.723   0.041 -0.0876 -0.2458 -0.6887
  434TIP3    H122861   4.069   1.688   0.037  0.5295  1.2258 -0.5279
  434TIP3    H222862   3.967   1.765  -0.045 -0.8137 -0.8699 -0.8930
  435TIP3   OH222863   2.152   0.914   3.243 -0.1536  0.1829  0.0645
  435TIP3    H122864   2.173   0.841   3.301  1.1030 -0.0496 -0.6263
  435TIP3    H222865   2.060   0.933   3.259 -0.1268 -0.6191  1.2856
  436TIP3   OH222866   1.437   6.594   7.949 -0.1443 -0.2671  0.0801
  436TIP3    H122867   1.364   6.655   7.959 -0.2658 -0.5754  1.1531
  436TIP3    H222868   1.512   6.640   7.988  0.2467  0.0451 -1.0089
  437TIP3   OH222869   4.402   6.703   0.493 -0.7411 -0.0771  0.1489
  437TIP3    H122870   4.374   6.645   0.422 -0.9205  1.9095 -1.5220
  437TIP3    H222871   4.496   6.688   0.501  0.0505  2.0471 -3.0548
  438TIP3   OH222872   1.414   1.171   8.574  0.1481  0.3819  0.7442
  438TIP3    H122873   1.402   1.244   8.634  0.0678  0.4710  0.6205
  438TIP3    H222874   1.332   1.166   8.526  0.1810  0.2570  0.7017
  439TIP3   OH222875   2.072   5.908   8.442  0.2375  0.3881 -0.4032
  439TIP3    H122876   2.074   5.818   8.477  2.7138  0.2682 -0.6363
  439TIP3    H222877   2.018   5.956   8.504  0.0278 -0.9688  0.5278
  440TIP3   OH222878   0.882   5.736   1.072 -0.5439  0.3290  0.6747
  440TIP3    H122879   0.955   5.742   1.009 -0.2004 -1.6534  0.8321
  440TIP3    H222880   0.877   5.824   1.110  1.3675  0.6974  0.2118
  441TIP3   OH222881   2.767   1.793   0.180 -0.1700  0.1446  0.5638
  441TIP3    H122882   2.747   1.815   0.089 -1.4017  0.1960  0.8369
  441TIP3    H222883   2.703   1.726   0.203  0.5132 -0.2968  1.2172
  442TIP3   OH222884   3.331   6.123   1.920  0.0465  0.2797 -0.3864
  442TIP3    H122885   3.288   6.038   1.913  2.2185 -1.0734  1.1711
  442TIP3    H222886   3.261   6.187   1.911 -1.9630 -1.7164  0.2333
  443TIP3   OH222887   3.542   4.012   0.857  0.1374  0.0941 -0.3353
  443TIP3    H122888   3.527   3.934   0.909  0.3693 -1.1320 -2.0131
  443TIP3    H222889   3.513   4.085   0.912  0.7580 -1.0819  1.6200
  444TIP3   OH222890   6.252   5.281   2.062 -0.2397  0.0102 -0.1473
  444TIP3    H122891   6.274   5.198   2.105 -0.6059 -0.4897 -0.9185
  444TIP3    H222892   6.304   5.280   1.982 -1.5493 -0.2638 -1.0043
  445TIP3   OH222893   2.038   4.604   1.141 -0.3413  0.0084  0.2639
  445TIP3    H122894   2.046   4.530   1.200 -0.0220  0.2322  0.5052
  445TIP3    H222895   2.029   4.564   1.054  0.8918 -0.3067  0.2673
  446TIP3   OH222896   1.820   0.894   1.849 -0.0889  0.1245 -0.2921
  446TIP3    H122897   1.733   0.900   1.809 -0.4348 -1.8158  0.0645
  446TIP3    H222898   1.880   0.906   1.776 -0.6467  0.9665 -0.6317
  447TIP3   OH222899   0.724   5.460   3.097  0.5131 -0.0957  0.1021
  447TIP3    H122900   0.791   5.528   3.089  0.7845 -0.0656  2.0188
  447TIP3    H222901   0.646   5.498   3.057  0.5966  1.4770  1.3266
  448TIP3   OH222902   1.717   5.404   1.542  0.4165  0.3579  0.2915
  448TIP3    H122903   1.655   5.450   1.484 -0.8545  0.2435  1.5127
  448TIP3    H222904   1.685   5.313   1.543  0.3040  0.3975  1.2927
  449TIP3   OH222905   3.710   6.551   7.524  0.5085 -0.1263 -0.0180
  449TIP3    H122906   3.754   6.531   7.441 -0.1805  1.2436 -0.7557
  449TIP3    H222907   3.748   6.490   7.587  2.5573  0.1590 -0.8831
  450TIP3   OH222908   2.478   3.205   2.716 -0.6771 -0.0581  0.3708
  450TIP3    H122909   2.564   3.193   2.756  0.4275  1.8719 -1.1923
  450TIP3    H222910   2.433   3.266   2.774 -0.3621  0.1624  0.3864
  451TIP3   OH222911   1.162   6.717   0.181 -0.3674  0.1565  0.5628
  451TIP3    H122912   1.247   6.761   0.179 -0.2564 -0.0714  0.1490
  451TIP3    H222913   1.155   6.675   0.095 -1.7796  1.8216 -0.1865
  452TIP3   OH222914   3.625   6.219   2.420  0.5792 -0.1134 -0.0468
  452TIP3    H122915   3.589   6.289   2.473 -0.5998 -0.6258 -0.1313
  452TIP3    H222916   3.665   6.159   2.483  2.8152  1.2529 -0.0620
  453TIP3   OH222917   5.697   0.897   8.689 -0.6068 -0.6433 -0.4366
  453TIP3    H122918   5.713   0.821   8.745  0.1517  0.4385  0.8997
  453TIP3    H222919   5.602   0.908   8.690 -0.8405 -2.2377 -1.6171
  454TIP3   OH222920   6.370   0.799   1.737  0.4578 -0.6135  0.3395
  454TIP3    H122921   6.297   0.857   1.717  2.5859  1.9245 -0.6604
  454TIP3    H222922   6.356   0.723   1.681 -2.4931 -1.2927  1.7739
  455TIP3   OH222923   5.907   5.385   2.466 -0.2152 -0.0528  0.0715
  455TIP3    H122924   5.831   5.328   2.458 -1.3336  1.5329 -1.3001
  455TIP3    H222925   5.951   5.379   2.382 -0.2240  0.8869 -0.0137
  456TIP3   OH222926   1.921   3.728   1.325  0.3103  0.9991  0.5042
  456TIP3    H122927   2.006   3.772   1.330  0.8628 -0.2250  2.8968
  456TIP3    H222928   1.863   3.782   1.379  0.1904  0.4990  0.8741
  457TIP3   OH222929   1.491   3.682   1.408  0.1521 -0.2270  0.1772
  457TIP3    H122930   1.554   3.641   1.466  0.6695  0.7087  0.2924
  457TIP3    H222931   1.472   3.767   1.449 -0.8725 -0.3271 -0.0641
  458TIP3   OH222932   5.240   0.415   0.600  0.2906 -0.2225  0.5515
  458TIP3    H122933   5.281   0.464   0.671 -1.1394  1.1705  0.4657
  458TIP3    H222934   5.255   0.469   0.522 -0.2881 -0.5033  0.2372
  459TIP3   OH222935   3.794   2.301   7.617  0.2926  0.3499 -0.4411
  459TIP3    H122936   3.712   2.327   7.575 -0.0606 -0.0915 -0.0388
  459TIP3    H222937   3.822   2.378   7.666 -1.4225 -0.3353  1.8134
  460TIP3   OH222938   4.471   1.713   2.378 -0.1141 -0.8385  0.1131
  460TIP3    H122939   4.406   1.777   2.407 -0.6549 -0.7412 -1.2569
  460TIP3    H222940   4.437   1.629   2.409 -0.8325 -0.7723 -0.4735
  461TIP3   OH222941   3.797   5.475   1.125  0.2002  0.0979 -0.4554
  461TIP3    H122942   3.791   5.566   1.154 -0.4886  0.3123 -1.2380
  461TIP3    H222943   3.757   5.475   1.038 -0.3298 -1.0619 -0.2304
  462TIP3   OH222944   4.062   5.054   8.202 -0.5261 -0.0605  0.0789
  462TIP3    H122945   4.151   5.061   8.168 -0.1394  1.5080  1.2919
  462TIP3    H222946   4.013   5.120   8.154  0.3061  3.0960  3.1475
  463TIP3   OH222947   2.097   5.646   8.547 -0.2062 -0.0788 -0.2491
  463TIP3    H122948   2.190   5.628   8.554 -0.0551  0.9699  0.9016
  463TIP3    H222949   2.061   5.625   8.634 -1.0212 -0.3582 -0.6392
  464TIP3   OH222950   3.281   6.768   2.178 -0.7186 -0.1403  0.2659
  464TIP3    H122951   3.329   6.687   2.197  1.1135  0.7173 -0.4611
  464TIP3    H222952   3.257   6.803   2.264 -0.7024 -0.9725  0.6144
  465TIP3   OH222953   0.123   1.111   0.784  0.7584  0.4704 -0.7131
  465TIP3    H122954   0.202   1.088   0.833  1.7021  1.3495 -1.7789
  465TIP3    H222955   0.075   1.168   0.843  0.2375 -1.1019  0.4586
  466TIP3   OH222956   4.341   0.221   7.573  0.1168  0.4143 -0.9681
  466TIP3    H122957   4.378   0.134   7.585  2.2214  1.2696 -0.7051
  466TIP3    H222958   4.417   0.280   7.579 -1.5329  2.4864  1.2633
  467TIP3   OH222959   5.109   1.164   0.575  0.1483 -0.3000 -0.4697
  467TIP3    H122960   5.109   1.220   0.498 -2.4487  1.3054  0.5822
  467TIP3    H222961   5.130   1.223   0.648 -1.8351 -0.7872  0.5651
  468TIP3   OH222962   0.503   1.898   0.170  0.4608  0.4327  0.3799
  468TIP3    H122963   0.514   1.832   0.239  0.7995 -0.3647 -0.4264
  468TIP3    H222964   0.587   1.898   0.124 -0.3199 -0.2740 -1.1048
  469TIP3   OH222965   6.731   6.224   2.293 -0.0312 -0.3217  0.2022
  469TIP3    H122966   6.672   6.286   2.337 -1.1557 -0.5811 -0.9011
  469TIP3    H222967   6.819   6.257   2.313 -0.5329  0.2723  1.5934
  470TIP3   OH222968   1.808   6.646   2.277  0.3414 -0.8219  0.3144
  470TIP3    H122969   1.882   6.585   2.275  1.8150  0.8941  0.6500
  470TIP3    H222970   1.824   6.701   2.353 -2.3897 -1.6521  1.6018
  471TIP3   OH222971   5.635   3.052   8.636  0.1282 -0.1485 -0.4150
  471TIP3    H122972   5.592   3.074   8.553 -1.8155 -1.5871  0.1435
  471TIP3    H222973   5.637   3.135   8.684 -1.2836  0.1281 -0.8027
  472TIP3   OH222974   6.515   1.756   0.506 -0.8697 -0.0276  0.4811
  472TIP3    H122975   6.454   1.734   0.436  0.5434 -0.0784 -0.8086
  472TIP3    H222976   6.486   1.842   0.537 -2.1342 -0.4701  0.5520
  473TIP3   OH222977   2.321   4.451   1.137  0.1998  0.4614 -0.0916
  473TIP3    H122978   2.413   4.429   1.126 -0.0792 -0.7346 -0.2043
  473TIP3    H222979   2.321   4.527   1.195  1.2427  0.1944  0.2798
  474TIP3   OH222980   0.848   0.919   7.837  0.2183  0.4052  0.1850
  474TIP3    H122981   0.763   0.938   7.799  0.2916  0.2360 -0.0618
  474TIP3    H222982   0.835   0.837   7.886  0.3810  0.0701 -0.3256
  475TIP3   OH222983   4.355   6.522   0.302 -0.0244  0.1093 -0.5161
  475TIP3    H122984   4.426   6.465   0.272 -0.8690 -1.2489 -0.0344
  475TIP3    H222985   4.286   6.462   0.331 -0.6190  1.3608  0.8322
  476TIP3   OH222986   5.029   3.934   2.876  0.6139 -0.2367 -0.4408
  476TIP3    H122987   5.096   3.911   2.940  0.2876  1.9389  0.8002
  476TIP3    H222988   4.960   3.869   2.890  0.2122  0.5987  2.0536
  477TIP3   OH222989   0.855   3.055   1.208  0.0239 -0.1671 -0.4816
  477TIP3    H122990   0.862   3.089   1.119 -0.9901  0.3475 -0.3744
  477TIP3    H222991   0.945   3.053   1.240  0.2733  0.7603 -1.1050
  478TIP3   OH222992   2.374   4.948   1.869 -0.1413 -0.4261 -0.4456
  478TIP3    H122993   2.469   4.958   1.865 -0.2450  1.5712  0.6390
  478TIP3    H222994   2.360   4.871   1.923  0.8792  0.2108  0.7716
  479TIP3   OH222995   2.893   5.179   7.726  0.3933 -0.1379 -0.5933
  479TIP3    H122996   2.924   5.248   7.785  4.0291 -0.0384 -2.3980
  479TIP3    H222997   2.856   5.226   7.651  0.4697 -0.1861 -0.6614
  480TIP3   OH222998   3.043   4.972   8.320 -0.3479 -0.0171 -0.1046
  480TIP3    H122999   3.036   4.943   8.411 -0.0844  0.5921  0.1106
  480TIP3    H223000   3.136   4.987   8.306 -0.4904  0.8688 -0.1637
  481TIP3   OH223001   5.383   1.787   0.284 -0.2900  0.3711 -0.0946
  481TIP3    H123002   5.442   1.830   0.223 -0.3250 -0.5965 -0.8190
  481TIP3    H223003   5.364   1.702   0.245  0.0192 -0.4524  1.4624
  482TIP3   OH223004   3.830   3.939   3.021 -0.1049  0.0741 -0.1901
  482TIP3    H123005   3.924   3.936   3.002 -0.4872 -1.4387 -2.1506
  482TIP3    H223006   3.822   3.897   3.107  0.9269 -0.9665 -0.5687
  483TIP3   OH223007   2.246   4.632   0.639 -0.2917 -0.5987 -0.0695
  483TIP3    H123008   2.226   4.725   0.648 -0.6966 -0.7628  0.8147
  483TIP3    H223009   2.285   4.607   0.723  0.2305 -1.1284 -0.4619
  484TIP3   OH223010   5.849   6.543   2.562 -0.0409 -0.0191  0.3077
  484TIP3    H123011   5.878   6.466   2.612 -0.5941 -0.4586 -0.0307
  484TIP3    H223012   5.869   6.617   2.618 -1.2294 -0.5437  1.4877
  485TIP3   OH223013   5.479   2.177   2.418 -0.6619 -0.0334  0.0277
  485TIP3    H123014   5.522   2.099   2.454 -0.2434  0.2945  0.2505
  485TIP3    H223015   5.546   2.245   2.422 -1.3850  0.6451  0.9434
  486TIP3   OH223016   3.825   4.909   0.352  0.1272 -0.1501  0.2871
  486TIP3    H123017   3.868   4.826   0.335 -2.3589 -1.3340 -0.7202
  486TIP3    H223018   3.836   4.960   0.271  1.2445  0.3568  0.7362
  487TIP3   OH223019   3.887   2.522   2.845 -0.5554 -0.3314 -0.5935
  487TIP3    H123020   3.846   2.549   2.762  1.4737 -0.1919 -1.6085
  487TIP3    H223021   3.965   2.474   2.818 -0.0863 -0.6729  1.2721
  488TIP3   OH223022   1.770   1.330   1.022 -0.8410 -0.0748 -0.2094
  488TIP3    H123023   1.811   1.294   1.101 -1.6029 -0.5197 -0.0065
  488TIP3    H223024   1.732   1.412   1.051 -2.1267 -0.7798  0.1961
  489TIP3   OH223025   5.802   4.796   2.662  0.1017  0.0702  0.2596
  489TIP3    H123026   5.770   4.832   2.580  1.4565 -2.1039 -1.3385
  489TIP3    H223027   5.897   4.791   2.652  0.4352  0.7390  2.4211
  490TIP3   OH223028   4.400   4.846   1.834  0.0889  0.1869  0.0393
  490TIP3    H123029   4.423   4.898   1.912 -1.1497 -1.3429  1.4982
  490TIP3    H223030   4.315   4.880   1.807 -0.2278 -0.3624  0.3437
  491TIP3   OH223031   0.437   2.980   0.093 -0.3584  0.3883  0.4669
  491TIP3    H123032   0.394   2.896   0.076 -0.6574  0.8205 -1.0829
  491TIP3    H223033   0.531   2.958   0.093 -0.4663 -0.1662  1.5509
  492TIP3   OH223034   3.240   1.397   1.756  0.4293  0.3467 -0.6158
  492TIP3    H123035   3.309   1.349   1.710  0.4782  0.4781 -0.6793
  492TIP3    H223036   3.242   1.484   1.718  1.3579  0.8546  0.5621
  493TIP3   OH223037   3.915   1.091   3.130 -0.2157 -0.1762  0.4192
  493TIP3    H123038   3.901   1.127   3.217  0.1913 -0.3552  0.5596
  493TIP3    H223039   3.852   1.019   3.124  0.7345 -1.0886  1.1176
  494TIP3   OH223040   4.582   0.667   0.119  0.2306  0.6045  0.6897
  494TIP3    H123041   4.615   0.702   0.036 -0.4659  0.4769  0.3441
  494TIP3    H223042   4.589   0.572   0.110 -1.4132  0.5020  0.0637
  495TIP3   OH223043   5.165   0.571   8.403 -0.0504 -0.1498 -0.3132
  495TIP3    H123044   5.102   0.612   8.343 -1.8070 -2.4675 -0.2074
  495TIP3    H223045   5.121   0.573   8.488  1.4013  0.9263  0.4682
  496TIP3   OH223046   2.541   6.678   2.623  0.1700 -0.0486 -0.3828
  496TIP3    H123047   2.602   6.612   2.591 -1.3885 -2.2473  0.8868
  496TIP3    H223048   2.535   6.662   2.718 -0.9718  1.2960 -0.1881
  497TIP3   OH223049   1.502   4.105   3.037  0.0769 -0.0928  0.7902
  497TIP3    H123050   1.495   4.016   3.072  0.5849 -0.1731  0.6943
  497TIP3    H223051   1.411   4.130   3.016  0.0105 -0.8930  0.0579
  498TIP3   OH223052   5.335   4.821   2.897  0.1253  0.3631  0.1206
  498TIP3    H123053   5.301   4.861   2.817 -0.9112  0.1270  0.4271
  498TIP3    H223054   5.430   4.828   2.889  0.0117  1.0292 -0.7742
  499TIP3   OH223055   6.478   4.535   1.109  0.0116  0.4370 -0.0746
  499TIP3    H123056   6.516   4.618   1.138 -0.1689  0.3701  0.3706
  499TIP3    H223057   6.520   4.517   1.025  0.4812  0.6868  0.1029
  500TIP3   OH223058   1.435   3.777   2.441  0.1434  0.2026 -0.6650
  500TIP3    H123059   1.495   3.794   2.513 -1.2865  3.0680  0.0006
  500TIP3    H223060   1.427   3.861   2.395 -2.4195 -0.3185 -1.3706
  501TIP3   OH223061   1.763   2.075   0.614  0.3998  0.1682  0.6245
  501TIP3    H123062   1.815   2.029   0.548 -1.8415  1.2617 -2.1435
  501TIP3    H223063   1.786   2.167   0.602 -0.1995  0.4023  1.2275
  502TIP3   OH223064   0.812   2.288   7.618 -0.1236 -0.5845 -0.3813
  502TIP3    H123065   0.880   2.226   7.644 -0.1970 -0.2832  0.5234
  502TIP3    H223066   0.768   2.244   7.544  2.4178  0.1548 -2.4749
  503TIP3   OH223067   0.865   0.416   3.253 -0.3962  0.1838 -0.0503
  503TIP3    H123068   0.876   0.327   3.285  0.3109  0.3356  0.1407
  503TIP3    H223069   0.797   0.454   3.309  1.2184  0.6280  1.7020
  504TIP3   OH223070   5.640   3.268   0.099 -0.2409  0.4150 -0.6416
  504TIP3    H123071   5.586   3.332   0.052 -1.0262 -1.1865 -2.0562
  504TIP3    H223072   5.725   3.272   0.056  0.1678  1.4724  0.2181
  505TIP3   OH223073   2.643   2.145   1.445 -0.0076  0.1125  0.4809
  505TIP3    H123074   2.637   2.123   1.352  1.4784  0.9316  0.1627
  505TIP3    H223075   2.638   2.240   1.448  2.1258  0.2527  0.9975
  506TIP3   OH223076   6.801   5.164   2.571 -0.2401  0.0973  0.0502
  506TIP3    H123077   6.847   5.115   2.639 -1.4021 -1.6545 -0.3373
  506TIP3    H223078   6.848   5.142   2.490  1.0201  2.0179  0.2122
  507TIP3   OH223079   5.566   5.277   0.209  0.2732 -1.1395 -0.2846
  507TIP3    H123080   5.514   5.274   0.290  1.3442  0.0602  0.4817
  507TIP3    H223081   5.538   5.199   0.160 -2.6704 -0.2735 -0.1896
  508TIP3   OH223082   6.400   1.183   0.751 -0.2271  0.0758 -0.3006
  508TIP3    H123083   6.316   1.182   0.706 -0.1343 -1.1266 -0.4901
  508TIP3    H223084   6.413   1.274   0.777 -0.7805  0.5970 -1.7771
  509TIP3   OH223085   5.379   4.017   2.519 -0.5194 -0.1219  0.0317
  509TIP3    H123086   5.425   4.093   2.484 -1.2639  0.4205  0.2244
  509TIP3    H223087   5.286   4.039   2.513 -0.7003 -0.2979  1.6954
  510TIP3   OH223088   5.468   2.791   2.335  0.3379  0.2681  0.0953
  510TIP3    H123089   5.434   2.875   2.304  1.4165  1.6357  2.3125
  510TIP3    H223090   5.555   2.785   2.295  0.2358  0.1721 -0.1134
  511TIP3   OH223091   1.491   5.506   0.611  0.6550 -0.4797 -0.0287
  511TIP3    H123092   1.432   5.467   0.546  0.5728 -2.1897  1.0257
  511TIP3    H223093   1.469   5.461   0.693  1.1475  1.2295  1.0807
  512TIP3   OH223094   1.917   0.898   0.542 -0.4615  0.0142  0.3235
  512TIP3    H123095   1.997   0.951   0.539 -1.0726  0.9559  0.0528
  512TIP3    H223096   1.932   0.836   0.613  1.3391 -1.2201 -1.0536
  513TIP3   OH223097   5.376   0.220   1.132  0.0590 -0.2942  0.4593
  513TIP3    H123098   5.363   0.143   1.188  0.1361 -0.3802  0.3595
  513TIP3    H223099   5.399   0.290   1.192 -1.1697 -0.0658  0.6758
  514TIP3   OH223100   2.562   0.533   1.159  0.1700 -0.4933 -0.1792
  514TIP3    H123101   2.637   0.483   1.126  0.7792  0.3052 -0.0476
  514TIP3    H223102   2.585   0.624   1.142 -0.1815 -0.1545  1.0262
  515TIP3   OH223103   1.275   1.343   2.287  0.0975 -0.4550 -0.1059
  515TIP3    H123104   1.200   1.402   2.278 -0.6457 -1.3582  0.0609
  515TIP3    H223105   1.285   1.331   2.381 -0.6476 -1.7000 -0.1679
  516TIP3   OH223106   3.742   5.364   2.138 -0.0431  0.1171 -0.2008
  516TIP3    H123107   3.826   5.368   2.093 -0.2658 -2.5769 -1.0019
  516TIP3    H223108   3.760   5.318   2.220 -0.6822 -0.2517 -0.2591
  517TIP3   OH223109   5.431   0.736   2.187 -0.6913  0.4654  0.1131
  517TIP3    H123110   5.360   0.689   2.231 -0.7949  0.1135 -0.4191
  517TIP3    H223111   5.424   0.826   2.219 -1.2577  0.3909  0.2120
  518TIP3   OH223112   2.546   1.168   0.866  0.4190 -0.3975  0.7842
  518TIP3    H123113   2.590   1.092   0.829  0.4185 -1.3982  2.7231
  518TIP3    H223114   2.560   1.161   0.961 -0.0560  1.7224  1.0704
  519TIP3   OH223115   6.639   0.251   7.476 -0.6694 -0.0402  0.0324
  519TIP3    H123116   6.693   0.272   7.552 -3.3414  0.6063  1.8948
  519TIP3    H223117   6.550   0.247   7.510 -1.9198 -0.5006 -2.9609
  520TIP3   OH223118   6.371   3.595   0.283 -0.2087 -0.2312  0.0509
  520TIP3    H123119   6.351   3.685   0.308  1.0281  0.0651  0.0504
  520TIP3    H223120   6.289   3.547   0.298 -1.0326  0.9737 -0.4219
  521TIP3   OH223121   2.680   0.293   3.317  0.6179  0.2375 -0.0552
  521TIP3    H123122   2.664   0.200   3.334 -0.6133  0.5505  0.7026
  521TIP3    H223123   2.740   0.294   3.243 -2.4538 -1.1807 -2.8375
  522TIP3   OH223124   1.643   4.460   7.554  0.1411  0.8501  0.0233
  522TIP3    H123125   1.635   4.431   7.645  1.5656 -0.1286 -0.1385
  522TIP3    H223126   1.556   4.492   7.532 -0.4235  0.4268  1.4962
  523TIP3   OH223127   3.932   1.068   3.421  0.1523 -0.0106  0.3251
  523TIP3    H123128   3.969   1.032   3.501  0.1551  0.0833  0.3663
  523TIP3    H223129   3.966   1.157   3.416 -0.0051  0.0505  0.3224
  524TIP3   OH223130   0.835   0.249   0.852 -0.0870 -0.4622 -0.0157
  524TIP3    H123131   0.750   0.293   0.858  0.3064  0.5623 -1.4445
  524TIP3    H223132   0.814   0.156   0.857 -1.2999 -0.2243 -0.2751
  525TIP3   OH223133   4.454   1.972   1.762  0.3977  0.0036  0.9032
  525TIP3    H123134   4.415   1.901   1.813 -0.9840  0.4542  0.5171
  525TIP3    H223135   4.546   1.974   1.790  0.2837 -1.4257  1.4749
  526TIP3   OH223136   4.009   3.527   1.832 -0.3873  0.2750 -0.2301
  526TIP3    H123137   4.042   3.611   1.864  1.5640 -1.7474  3.8637
  526TIP3    H223138   4.057   3.512   1.750  3.6635  0.8121  1.7863
  527TIP3   OH223139   3.064   4.171   7.944  0.0115 -0.6194  0.4166
  527TIP3    H123140   2.982   4.129   7.915  0.1342 -1.7070  1.5598
  527TIP3    H223141   3.114   4.182   7.864 -1.1326 -0.1959 -0.2728
  528TIP3   OH223142   4.281   2.417   1.887 -0.4808  0.6134  0.1065
  528TIP3    H123143   4.325   2.342   1.847  0.0518  0.9904 -0.0266
  528TIP3    H223144   4.302   2.411   1.980 -1.1444  0.1260  0.2312
  529TIP3   OH223145   3.289   4.382   2.131 -0.0193 -0.2635 -0.1976
  529TIP3    H123146   3.276   4.297   2.174  1.1262 -0.5084 -0.3098
  529TIP3    H223147   3.202   4.421   2.130 -0.1478 -0.3658  2.0915
  530TIP3   OH223148   2.696   6.449   1.900 -0.1385 -0.0267 -0.5240
  530TIP3    H123149   2.716   6.542   1.905 -0.5582  0.0225  0.6259
  530TIP3    H223150   2.734   6.412   1.980 -0.2495 -0.7832 -0.8141
  531TIP3   OH223151   1.630   5.661   8.225  0.3667  0.1601 -0.3009
  531TIP3    H123152   1.630   5.740   8.279 -0.6217  0.3108 -0.5101
  531TIP3    H223153   1.700   5.676   8.161  1.6481 -0.0733  0.9770
  532TIP3   OH223154   5.601   2.723   3.157  0.0313  0.0314  0.2374
  532TIP3    H123155   5.621   2.695   3.247 -1.9745 -2.5564  0.0222
  532TIP3    H223156   5.520   2.773   3.165 -1.5151 -2.2331 -0.2442
  533TIP3   OH223157   6.383   0.312   8.454 -0.2400  0.0365 -0.3769
  533TIP3    H123158   6.389   0.280   8.365 -1.3990 -1.1880 -0.0342
  533TIP3    H223159   6.370   0.407   8.445 -2.3942 -0.3245 -1.5762
  534TIP3   OH223160   4.593   2.765   2.813  0.0937  0.2570  0.3197
  534TIP3    H123161   4.587   2.676   2.847  0.1261 -1.3921 -3.4680
  534TIP3    H223162   4.686   2.788   2.821 -0.0683  0.3759  2.1509
  535TIP3   OH223163   0.167   1.259   1.234 -0.2094 -0.4854 -0.5005
  535TIP3    H123164   0.247   1.311   1.244  0.7048 -1.7901 -0.7586
  535TIP3    H223165   0.096   1.324   1.237  0.8991  0.8277 -1.3203
  536TIP3   OH223166   0.134   2.223   1.398 -0.5691  0.5338  0.0389
  536TIP3    H123167   0.065   2.210   1.333  0.3212  0.2850 -0.8810
  536TIP3    H223168   0.120   2.311   1.432 -1.9811  0.0993  0.6646
  537TIP3   OH223169   0.885   4.453   1.511 -0.5112  0.0664  0.6658
  537TIP3    H123170   0.924   4.452   1.599  0.6085  3.1037  0.3223
  537TIP3    H223171   0.961   4.461   1.453 -1.3816  1.0184 -0.3630
  538TIP3   OH223172   1.606   2.630   1.268  0.2682 -0.3498  0.1207
  538TIP3    H123173   1.513   2.634   1.245 -0.8386 -1.1238  3.8763
  538TIP3    H223174   1.637   2.549   1.227 -1.2719 -1.1721  0.5190
  539TIP3   OH223175   2.383   3.922   0.853  0.2884 -0.2660 -0.1686
  539TIP3    H123176   2.441   3.892   0.922 -1.2147  1.1236  1.8303
  539TIP3    H223177   2.433   3.910   0.772  2.4819 -1.1049  1.2235
  540TIP3   OH223178   1.616   4.387   0.668  0.1188  0.2429  0.3355
  540TIP3    H123179   1.662   4.419   0.591  0.5503 -1.0385  0.0421
  540TIP3    H223180   1.676   4.406   0.741  1.7130 -2.3934 -0.1577
  541TIP3   OH223181   2.008   6.796   8.613 -0.2402 -0.5198 -0.0048
  541TIP3    H123182   2.081   6.823   8.669  0.2416  0.0700 -0.8766
  541TIP3    H223183   1.999   6.702   8.628 -1.0868 -0.1570  2.1233
  542TIP3   OH223184   0.370   4.983   2.741 -0.0045  0.2291  0.3699
  542TIP3    H123185   0.380   5.021   2.653  1.5039  1.6494  1.1055
  542TIP3    H223186   0.406   4.895   2.733 -0.0914  0.2616 -0.4989
  543TIP3   OH223187   0.288   1.747   1.150 -0.9174 -0.3350  0.3779
  543TIP3    H123188   0.280   1.839   1.177  0.2619  0.7376 -2.5937
  543TIP3    H223189   0.353   1.710   1.210  0.1281  1.3470  0.3361
  544TIP3   OH223190   2.708   1.042   1.626  0.2298  0.0454  0.2903
  544TIP3    H123191   2.695   0.969   1.686  2.0555  0.2453  1.0110
  544TIP3    H223192   2.734   1.115   1.682  2.4526  0.1139 -0.6918
  545TIP3   OH223193   0.496   6.349   2.584 -0.3094 -0.4526  0.2648
  545TIP3    H123194   0.563   6.281   2.589  0.4105  0.1635 -0.7835
  545TIP3    H223195   0.415   6.304   2.608  0.1127 -1.7402 -0.6372
  546TIP3   OH223196   4.949   4.198   8.411  0.9103  0.4942 -0.0748
  546TIP3    H123197   4.962   4.191   8.506  0.3055 -0.6838 -0.0632
  546TIP3    H223198   4.858   4.171   8.397  0.1519  3.1121 -0.7401
  547TIP3   OH223199   1.527   2.544   0.680 -0.2405  0.3183 -0.3268
  547TIP3    H123200   1.521   2.635   0.650 -2.2024  0.5046  0.4517
  547TIP3    H223201   1.455   2.499   0.635 -2.0516  0.1770  2.4602
  548TIP3   OH223202   0.822   1.285   2.975  0.3914 -0.2358 -0.2878
  548TIP3    H123203   0.732   1.295   3.006 -0.6429 -1.3781 -2.6316
  548TIP3    H223204   0.860   1.373   2.983  0.1754 -0.3288  3.5960
  549TIP3   OH223205   1.471   2.993   2.598  0.1914  0.1027  0.1966
  549TIP3    H123206   1.547   2.937   2.579  0.6440  0.1622  1.6799
  549TIP3    H223207   1.467   2.995   2.693 -0.7197  1.4098  0.1497
  550TIP3   OH223208   3.661   3.191   2.458 -0.4470 -0.1384 -0.1334
  550TIP3    H123209   3.746   3.223   2.427 -1.3498  0.9545 -1.5784
  550TIP3    H223210   3.671   3.186   2.554  0.5994  1.9136 -0.0789
  551TIP3   OH223211   4.770   5.289   0.489  0.0604 -0.2338  0.5068
  551TIP3    H123212   4.844   5.273   0.430  0.6274 -0.7402  1.3440
  551TIP3    H223213   4.708   5.220   0.468 -0.1665  0.1517 -0.1490
  552TIP3   OH223214   5.964   3.164   8.192 -0.6121  0.2735 -0.6984
  552TIP3    H123215   5.904   3.140   8.262 -0.8919 -2.7415 -1.8101
  552TIP3    H223216   6.050   3.168   8.234 -0.9174 -0.4073  0.0074
  553TIP3   OH223217   6.593   0.067   1.602 -0.0476 -0.1848 -0.2217
  553TIP3    H123218   6.667   0.055   1.662  0.3873  0.1839 -0.6752
  553TIP3    H223219   6.631   0.110   1.526 -0.9003  0.8283 -0.0936
  554TIP3   OH223220   3.538   3.229   1.628  0.3101 -0.1617  0.6997
  554TIP3    H123221   3.469   3.289   1.598 -1.9162 -2.6871  0.4127
  554TIP3    H223222   3.508   3.198   1.713  1.3196 -1.0267  0.7585
  555TIP3   OH223223   0.656   5.158   1.318 -0.2185  0.0861  0.5999
  555TIP3    H123224   0.681   5.114   1.237 -1.1872 -0.3265  0.5188
  555TIP3    H223225   0.624   5.244   1.289 -2.6809 -0.8703  0.2902
  556TIP3   OH223226   5.838   6.768   0.480  0.5427 -0.1534 -0.5938
  556TIP3    H123227   5.912   6.755   0.421  0.5339  0.8672 -0.8346
  556TIP3    H223228   5.814   6.679   0.507  1.6425 -0.5244 -0.7617
  557TIP3   OH223229   0.267   0.085   3.169  0.0033 -0.7315 -0.2617
  557TIP3    H123230   0.234   0.125   3.249 -1.3705 -2.7214  0.2673
  557TIP3    H223231   0.362   0.079   3.181 -0.1803 -0.9472  1.2067
  558TIP3   OH223232   4.060   3.139   7.591  0.3902  0.3190  0.3157
  558TIP3    H123233   4.108   3.186   7.659 -0.3136  1.9411 -0.2391
  558TIP3    H223234   4.077   3.190   7.511 -2.1437  0.9160  0.0826
  559TIP3   OH223235   2.402   4.438   0.437 -0.0025 -0.3201 -0.3497
  559TIP3    H123236   2.470   4.462   0.374  1.9380 -2.0377  0.9568
  559TIP3    H223237   2.380   4.521   0.481  3.4627 -0.0273  1.1896
  560TIP3   OH223238   6.816   1.813   0.173 -0.5872  0.1919 -0.5456
  560TIP3    H123239   6.888   1.875   0.185  0.2413 -0.7525 -0.5491
  560TIP3    H223240   6.739   1.860   0.205  0.0083  1.2445 -0.6020
  561TIP3   OH223241   2.548   4.465   1.469  0.3006 -0.1777 -0.1406
  561TIP3    H123242   2.567   4.485   1.560 -2.2609 -2.3461  0.9958
  561TIP3    H223243   2.476   4.525   1.445  1.3936  0.8397 -1.0123
  562TIP3   OH223244   6.278   6.448   2.431 -0.0208  0.0741 -0.0400
  562TIP3    H123245   6.245   6.490   2.351  1.8396  1.3265 -0.2068
  562TIP3    H223246   6.237   6.497   2.502 -0.5974 -0.1479 -0.2097
  563TIP3   OH223247   2.681   1.513   7.941  0.3452  0.1108  0.5179
  563TIP3    H123248   2.685   1.522   7.846  0.0893 -1.9444  0.2825
  563TIP3    H223249   2.616   1.578   7.968 -2.3174 -1.6610 -1.1385
  564TIP3   OH223250   5.249   0.320   8.268  0.0639 -0.0169  0.5635
  564TIP3    H123251   5.254   0.354   8.179  1.9041  0.2780  0.7442
  564TIP3    H223252   5.250   0.398   8.324  4.5887 -0.0910  0.9931
  565TIP3   OH223253   6.515   6.648   2.146  0.2103  0.0920 -0.3916
  565TIP3    H123254   6.539   6.740   2.153  3.4264 -0.6867  0.5621
  565TIP3    H223255   6.463   6.642   2.067  1.3628  2.4969 -1.4079
  566TIP3   OH223256   6.610   4.467   0.133 -0.0354 -0.4376 -0.1700
  566TIP3    H123257   6.648   4.384   0.162 -0.5404 -0.3972  0.6267
  566TIP3    H223258   6.603   4.519   0.213 -2.4454 -0.6981 -0.1511
  567TIP3   OH223259   0.117   1.555   0.311 -0.5441 -0.2516  0.8504
  567TIP3    H123260   0.064   1.540   0.389  1.9658 -1.5566  2.4279
  567TIP3    H223261   0.081   1.636   0.273 -3.7383 -1.1639  1.6215
  568TIP3   OH223262   4.338   4.869   8.109 -0.1666  0.1442  0.5316
  568TIP3    H123263   4.385   4.927   8.169  1.3313  0.4045 -0.8279
  568TIP3    H223264   4.388   4.874   8.027 -0.8929 -1.8750 -0.0835
  569TIP3   OH223265   3.520   3.239   2.233 -0.1072  0.7294 -0.2783
  569TIP3    H123266   3.584   3.241   2.304 -0.8178  0.1339  0.4023
  569TIP3    H223267   3.549   3.166   2.178 -0.2377  0.3878  0.0897
  570TIP3   OH223268   1.888   1.243   7.962 -0.3416  0.6369  0.0861
  570TIP3    H123269   1.898   1.328   8.005  0.8369  0.5042  0.1071
  570TIP3    H223270   1.831   1.261   7.887 -1.2484  1.1503  0.8786
  571TIP3   OH223271   2.300   5.169   8.093 -0.3323 -0.1423 -0.2642
  571TIP3    H123272   2.296   5.137   8.003 -1.0773  0.1608 -0.3488
  571TIP3    H223273   2.276   5.262   8.087 -0.5745 -0.1615  0.2605
  572TIP3   OH223274   2.311   4.928   8.261 -0.4304  0.2118 -0.6457
  572TIP3    H123275   2.299   5.021   8.242  1.0707  0.8135  1.0273
  572TIP3    H223276   2.258   4.913   8.339  0.0400 -0.0940 -0.3781
  573TIP3   OH223277   6.779   2.697   8.184  0.1377 -0.3990  0.1618
  573TIP3    H123278   6.797   2.652   8.267  1.6798  0.4624  0.3318
  573TIP3    H223279   6.711   2.761   8.206 -0.4440 -1.0901  0.4285
  574TIP3   OH223280   1.558   3.756   8.624 -0.9057  0.0984  0.6459
  574TIP3    H123281   1.468   3.779   8.600  0.2366  3.6847 -0.7483
  574TIP3    H223282   1.588   3.828   8.679  1.9470  0.5029 -1.2120
  575TIP3   OH223283   6.103   4.872   8.708  0.3212  0.1096  0.0006
  575TIP3    H123284   6.023   4.834   8.671  0.4444  1.5780 -1.8882
  575TIP3    H223285   6.105   4.961   8.675  0.7128  1.4498  3.2287
  576TIP3   OH223286   1.742   6.029   2.299 -0.5870  0.0677  0.1779
  576TIP3    H123287   1.663   5.975   2.309 -0.6174  0.3046  1.5064
  576TIP3    H223288   1.803   5.973   2.251 -1.5284 -0.1530 -0.7851
  577TIP3   OH223289   3.273   5.345   0.980  0.3411 -0.3036  0.1854
  577TIP3    H123290   3.305   5.384   1.062  0.2614  0.1020  0.0276
  577TIP3    H223291   3.352   5.334   0.927  0.3843 -0.5058  0.2890
  578TIP3   OH223292   5.903   0.731   2.168  0.3082  0.0878  0.1866
  578TIP3    H123293   5.943   0.675   2.101 -0.6647  1.0934 -1.3146
  578TIP3    H223294   5.853   0.672   2.223  1.7419 -0.8665  0.5098
  579TIP3   OH223295   4.632   3.671   7.725 -0.6350  0.2844  0.3431
  579TIP3    H123296   4.692   3.722   7.670  0.0033 -0.4953  0.2926
  579TIP3    H223297   4.614   3.592   7.674 -1.0329  0.1289  0.7219
  580TIP3   OH223298   4.365   4.780   1.503 -0.1199  0.1531  0.1201
  580TIP3    H123299   4.312   4.858   1.488 -0.0880  0.1411 -0.0515
  580TIP3    H223300   4.311   4.724   1.559  0.1008  0.5618  0.7496
  581TIP3   OH223301   3.108   1.211   0.718 -0.1172  0.8649  0.4613
  581TIP3    H123302   3.029   1.265   0.705 -0.4763  0.1114 -0.7027
  581TIP3    H223303   3.146   1.203   0.630  1.0193  0.8464  0.9403
  582TIP3   OH223304   0.533   1.486   1.522  0.1212 -0.6811 -0.2864
  582TIP3    H123305   0.540   1.531   1.606 -0.3371 -2.5060  0.7994
  582TIP3    H223306   0.442   1.459   1.516  0.2548 -0.9864 -1.1558
  583TIP3   OH223307   2.209   2.686   7.419 -0.7862  0.4857  0.2848
  583TIP3    H123308   2.139   2.655   7.478 -1.3747  0.0624 -0.6241
  583TIP3    H223309   2.285   2.634   7.444 -1.3765 -0.6706 -0.2104
  584TIP3   OH223310   2.704   3.470   0.520  0.0517  0.3942  0.1287
  584TIP3    H123311   2.676   3.516   0.599  0.7940  0.9611  0.0796
  584TIP3    H223312   2.623   3.438   0.480 -0.4112  0.9517  0.6012
  585TIP3   OH223313   2.053   2.098   0.827 -0.1330  0.5034 -0.3367
  585TIP3    H123314   1.969   2.114   0.870  0.0193  0.5340 -0.0502
  585TIP3    H223315   2.043   2.013   0.785  0.0206  0.0623  0.5061
  586TIP3   OH223316   4.808   1.129   1.399 -0.3142 -0.0236 -0.1368
  586TIP3    H123317   4.880   1.191   1.406 -0.2612 -0.0381 -0.5432
  586TIP3    H223318   4.817   1.072   1.475  0.7816 -0.7527 -0.7962
  587TIP3   OH223319   5.102   4.033   1.341 -0.1724 -0.5269 -0.3214
  587TIP3    H123320   5.071   3.948   1.371 -0.5703  0.2812  1.7017
  587TIP3    H223321   5.044   4.096   1.385  0.8175  0.8258 -0.9009
  588TIP3   OH223322   3.795   4.375   3.188  0.4385  0.0936  0.0433
  588TIP3    H123323   3.719   4.429   3.167  0.2421  0.1220  0.8059
  588TIP3    H223324   3.828   4.410   3.271  2.6661  1.5713 -1.3297
  589TIP3   OH223325   5.411   5.868   1.833  0.4886 -0.3306  0.6526
  589TIP3    H123326   5.351   5.894   1.763  1.3619 -1.2290 -0.4717
  589TIP3    H223327   5.355   5.825   1.898 -0.1056 -1.1743 -0.3798
  590TIP3   OH223328   1.863   0.856   0.276  0.4405  0.2139  0.4168
  590TIP3    H123329   1.800   0.849   0.348  0.7823 -1.5536  0.5797
  590TIP3    H223330   1.948   0.854   0.319  0.6433  0.9763  0.0695
  591TIP3   OH223331   3.632   2.672   7.746  0.0513  0.5184  0.4217
  591TIP3    H123332   3.577   2.706   7.675  0.4999  1.0243  0.3104
  591TIP3    H223333   3.574   2.614   7.796 -0.5226  0.8753  0.1773
  592TIP3   OH223334   6.424   6.288   8.268  0.1042  0.0771 -0.1599
  592TIP3    H123335   6.463   6.369   8.300  0.9456  0.1254 -1.2211
  592TIP3    H223336   6.361   6.316   8.201  0.1521 -0.1205 -0.2919
  593TIP3   OH223337   2.886   4.696   1.043  0.3957 -0.2781  0.5276
  593TIP3    H123338   2.865   4.788   1.061 -0.5921 -0.1719 -0.9773
  593TIP3    H223339   2.968   4.699   0.993  0.7126 -0.2637  1.0463
  594TIP3   OH223340   3.547   2.117   0.395  0.5388 -0.2047  0.6597
  594TIP3    H123341   3.623   2.162   0.359 -2.2935  2.6934 -2.4133
  594TIP3    H223342   3.548   2.031   0.355  1.1448  0.5230 -0.9624
  595TIP3   OH223343   2.689   2.601   0.444  0.0183 -0.2924 -0.7954
  595TIP3    H123344   2.611   2.551   0.468  0.8275 -1.2491 -0.0600
  595TIP3    H223345   2.710   2.652   0.523  0.7405 -0.8484 -0.6256
  596TIP3   OH223346   4.713   2.090   3.378  0.0042  0.0606 -0.5258
  596TIP3    H123347   4.741   2.042   3.456 -1.3817  0.8148  0.4859
  596TIP3    H223348   4.755   2.176   3.388  1.5693 -0.5207 -1.7528
  597TIP3   OH223349   2.567   0.920   2.762  0.0198  0.1978 -0.3435
  597TIP3    H123350   2.515   0.999   2.773  1.3487  0.7278  3.3084
  597TIP3    H223351   2.510   0.849   2.794  0.7253  0.5338  1.8373
  598TIP3   OH223352   6.277   1.208   7.320  0.0532  0.1334  0.1410
  598TIP3    H123353   6.274   1.301   7.298  0.5928 -0.0279 -0.6919
  598TIP3    H223354   6.189   1.188   7.351 -0.4825  0.6228 -0.9887
  599TIP3   OH223355   3.930   5.203   0.580  0.5656  0.5144  0.0023
  599TIP3    H123356   3.916   5.110   0.563 -2.1124  0.1331  3.0578
  599TIP3    H223357   3.867   5.248   0.523 -0.3297  0.1348  0.6516
  600TIP3   OH223358   6.818   1.279   0.966 -0.0778  0.0558 -0.1479
  600TIP3    H123359   6.752   1.349   0.965 -0.2957 -0.1353 -1.7067
  600TIP3    H223360   6.773   1.205   1.006 -0.4597  0.2609 -0.1893
  601TIP3   OH223361   5.263   2.261   2.956 -0.0472  0.1460 -0.3008
  601TIP3    H123362   5.326   2.319   2.913 -0.9884  0.7775 -0.8591
  601TIP3    H223363   5.210   2.319   3.010  0.2110 -0.4624  0.6219
  602TIP3   OH223364   1.897   3.919   2.509  0.3555  0.6547 -0.0749
  602TIP3    H123365   1.803   3.931   2.523  0.5778  0.8434  1.4172
  602TIP3    H223366   1.935   3.918   2.597  1.5651 -1.1881 -0.5628
  603TIP3   OH223367   3.971   0.255   1.653 -0.0082  0.0326 -0.0049
  603TIP3    H123368   3.894   0.264   1.596 -0.0208 -0.3004 -0.0411
  603TIP3    H223369   3.954   0.175   1.703  0.8763 -0.7116 -0.8709
  604TIP3   OH223370   4.804   1.233   7.903  0.0686 -0.2559 -0.1762
  604TIP3    H123371   4.822   1.275   7.819 -1.4718  0.3783 -0.2192
  604TIP3    H223372   4.770   1.146   7.880 -1.3638  0.3017 -0.2885
  605TIP3   OH223373   1.865   2.095   1.644  0.1394 -0.3421 -0.0952
  605TIP3    H123374   1.944   2.042   1.645  0.9334  0.8209 -0.2212
  605TIP3    H223375   1.872   2.152   1.720  0.8427  1.7530 -1.6237
  606TIP3   OH223376   1.886   5.710   1.920  0.9342 -0.1084  0.2691
  606TIP3    H123377   1.959   5.655   1.893  0.0506 -0.1026 -2.3360
  606TIP3    H223378   1.808   5.664   1.888 -0.0036  1.3584  0.3772
  607TIP3   OH223379   6.183   3.896   0.640  0.1701 -0.1903  0.1920
  607TIP3    H123380   6.260   3.895   0.584 -0.5235 -0.0427 -0.7881
  607TIP3    H223381   6.195   3.822   0.700  0.6881 -0.6558 -0.4861
  608TIP3   OH223382   6.170   1.029   2.752  0.4705 -0.4334 -0.3348
  608TIP3    H123383   6.135   1.073   2.829  0.2767 -0.9321 -0.1302
  608TIP3    H223384   6.097   1.025   2.690  1.1016  1.5460 -1.2681
  609TIP3   OH223385   3.949   5.257   1.654  1.3645  0.4249  0.6019
  609TIP3    H123386   3.916   5.227   1.739  0.4092  1.4401  0.6241
  609TIP3    H223387   3.957   5.352   1.664  0.9797  0.5944 -0.5240
  610TIP3   OH223388   5.092   5.129   2.418  0.3911 -0.0634 -0.0021
  610TIP3    H123389   5.054   5.045   2.446  1.2362 -0.3082  0.4689
  610TIP3    H223390   5.034   5.195   2.455 -0.0167 -0.4355  0.0342
  611TIP3   OH223391   6.377   4.257   0.711  0.9115 -0.3903  0.2353
  611TIP3    H123392   6.432   4.202   0.656 -0.7270 -1.3519 -0.5244
  611TIP3    H223393   6.383   4.344   0.670  1.7472 -0.5042  0.1005
  612TIP3   OH223394   6.577   0.302   0.170 -0.2994  0.0325  0.1210
  612TIP3    H123395   6.645   0.240   0.145  0.3200  0.8691 -0.3113
  612TIP3    H223396   6.559   0.351   0.090 -1.7368 -0.4639  0.1129
  613TIP3   OH223397   2.314   2.211   1.433  0.1580  0.1993  0.1124
  613TIP3    H123398   2.266   2.293   1.439  0.9404  0.7472 -0.7711
  613TIP3    H223399   2.330   2.199   1.339  1.0139 -0.3882  0.3196
  614TIP3   OH223400   3.011   4.814   2.307 -0.0735  0.4301  0.2407
  614TIP3    H123401   2.943   4.813   2.240 -0.4314 -1.2576  0.5763
  614TIP3    H223402   3.063   4.892   2.288  0.4840 -0.5440 -2.6188
  615TIP3   OH223403   3.523   2.112   1.178  0.2253 -0.2397 -0.2091
  615TIP3    H123404   3.445   2.119   1.123  0.3814 -1.3705 -0.5997
  615TIP3    H223405   3.504   2.168   1.253 -0.4630  0.4391 -0.8763
  616TIP3   OH223406   2.399   5.905   7.192 -0.3778 -0.3318  0.8884
  616TIP3    H123407   2.438   5.942   7.271 -1.0049 -0.7428  1.3989
  616TIP3    H223408   2.441   5.820   7.181  0.3786  0.1131  0.2481
  617TIP3   OH223409   3.095   6.095   0.927 -0.4016  0.4470  0.2693
  617TIP3    H123410   3.173   6.151   0.929  0.0085 -0.1496  1.0695
  617TIP3    H223411   3.070   6.094   0.834  0.3419  0.9153  0.0516
  618TIP3   OH223412   2.945   4.532   1.382 -0.4712  0.1505  0.0261
  618TIP3    H123413   2.933   4.487   1.465  1.8125 -1.4745 -0.4427
  618TIP3    H223414   3.013   4.598   1.400 -0.1221 -0.0629 -0.4950
  619TIP3   OH223415   3.767   6.174   2.183 -0.4829  0.8483  0.7058
  619TIP3    H123416   3.752   6.186   2.277 -1.2477 -0.6512  0.7937
  619TIP3    H223417   3.684   6.198   2.143 -0.7512 -0.2522  0.5761
  620TIP3   OH223418   4.466   5.569   2.576 -0.0545 -0.5404 -0.4213
  620TIP3    H123419   4.439   5.562   2.485 -1.9833 -0.2446  0.0661
  620TIP3    H223420   4.451   5.661   2.598 -2.0832 -1.0951  0.8341
  621TIP3   OH223421   5.525   2.724   1.710 -0.0717  0.0774 -0.1125
  621TIP3    H123422   5.537   2.781   1.786 -1.0756 -0.2445  0.3004
  621TIP3    H223423   5.542   2.781   1.635  0.0090  0.6410  0.3206
  622TIP3   OH223424   2.051   2.963   2.578 -0.0081 -0.4614  0.1211
  622TIP3    H123425   2.112   3.004   2.639  0.4396 -1.9083  0.6972
  622TIP3    H223426   2.065   2.869   2.590 -0.3078 -0.7902 -1.8320
  623TIP3   OH223427   4.464   4.224   8.383 -0.2366  0.3508 -0.8114
  623TIP3    H123428   4.379   4.201   8.421  0.6330 -1.3043  0.2600
  623TIP3    H223429   4.508   4.274   8.452 -0.3049  1.2082 -1.3654
  624TIP3   OH223430   3.305   1.643   7.330  0.0074 -0.5420  0.3001
  624TIP3    H123431   3.274   1.672   7.244  0.0961  1.0491  0.7682
  624TIP3    H223432   3.389   1.687   7.341 -0.2265 -0.3418  1.3913
  625TIP3   OH223433   5.334   3.911   7.047 -0.0415 -0.2317  0.0919
  625TIP3    H123434   5.331   3.828   7.094 -0.3148  0.6575  1.7104
  625TIP3    H223435   5.252   3.955   7.069  0.0737  0.4618 -0.7739
  626TIP3   OH223436   3.179   4.571   7.637 -0.0709 -0.1598 -0.0205
  626TIP3    H123437   3.108   4.511   7.660 -0.2774 -0.4447 -1.3713
  626TIP3    H223438   3.256   4.515   7.627 -0.3434 -0.2759 -1.6507
  627TIP3   OH223439   4.877   0.491   7.842 -0.3427 -0.4628  0.3860
  627TIP3    H123440   4.936   0.511   7.914 -0.5165  0.1133  0.3735
  627TIP3    H223441   4.798   0.542   7.861 -1.0771 -1.6708  0.7146
  628TIP3   OH223442   2.226   5.787   1.802  0.7206 -0.5997  0.0608
  628TIP3    H123443   2.252   5.699   1.829 -0.2561 -0.8671  0.1857
  628TIP3    H223444   2.226   5.838   1.883  1.1110 -0.5302  0.0174
  629TIP3   OH223445   4.541   4.210   1.445  0.5104 -0.2345 -0.0440
  629TIP3    H123446   4.605   4.271   1.407  0.7734 -0.2857  0.3173
  629TIP3    H223447   4.570   4.124   1.417  0.7605 -0.2803  0.3544
  630TIP3   OH223448   5.268   1.390   0.616  0.0762 -0.3203 -0.5883
  630TIP3    H123449   5.266   1.399   0.711 -1.7277  0.2360 -0.6315
  630TIP3    H223450   5.220   1.466   0.583  0.5732 -0.5538 -1.9415
  631TIP3   OH223451   6.195   3.441   7.782 -0.3265  0.3951  0.5313
  631TIP3    H123452   6.117   3.405   7.739 -0.7632 -1.5149  2.7193
  631TIP3    H223453   6.161   3.511   7.837 -0.2127  0.8100  0.0773
  632TIP3   OH223454   1.562   1.430   1.179 -0.0921  0.2030 -0.4511
  632TIP3    H123455   1.580   1.379   1.258  0.9425  1.0999 -0.0801
  632TIP3    H223456   1.565   1.521   1.209  2.3907  0.6778 -1.8823
  633TIP3   OH223457   6.709   1.640   1.839  0.4030 -0.1909  0.0869
  633TIP3    H123458   6.631   1.586   1.855  0.9492 -0.8689  0.5186
  633TIP3    H223459   6.737   1.667   1.927  0.4013  0.4192 -0.0990
  634TIP3   OH223460   4.230   2.570   8.317  0.2490  0.7837 -0.0241
  634TIP3    H123461   4.170   2.614   8.257 -1.3614 -0.2112  0.7993
  634TIP3    H223462   4.177   2.548   8.394  1.6534 -0.1700  0.7337
  635TIP3   OH223463   2.372   2.904   1.502 -0.1147 -0.2644 -0.4268
  635TIP3    H123464   2.380   2.975   1.438 -0.0785  0.6338  0.5379
  635TIP3    H223465   2.288   2.921   1.545  1.0426  0.7727  1.5940
  636TIP3   OH223466   4.880   1.836   8.191  0.0456 -0.3583 -0.0850
  636TIP3    H123467   4.870   1.932   8.196  1.7634 -0.0720 -1.3099
  636TIP3    H223468   4.840   1.813   8.108 -0.2173 -0.6972  0.1331
  637TIP3   OH223469   3.423   1.843   8.305 -0.3556 -0.2430  0.3068
  637TIP3    H123470   3.402   1.913   8.243  1.7715  0.2639  0.0774
  637TIP3    H223471   3.463   1.775   8.251  1.3155  0.1083  1.0639
  638TIP3   OH223472   1.610   3.870   2.637  0.0948 -0.3606 -0.1367
  638TIP3    H123473   1.655   3.842   2.717  1.0268  1.8847  0.1966
  638TIP3    H223474   1.537   3.924   2.668 -0.8182 -1.1950 -0.7791
  639TIP3   OH223475   2.618   3.654   7.611 -1.1789 -0.1964  0.2504
  639TIP3    H123476   2.546   3.654   7.548 -0.4265  1.5509 -0.6756
  639TIP3    H223477   2.649   3.744   7.613  0.6855 -0.7967  0.9805
  640TIP3   OH223478   4.218   3.310   7.755  0.1641 -0.0056  0.0971
  640TIP3    H123479   4.260   3.315   7.841  1.1551 -3.2756 -0.0832
  640TIP3    H223480   4.291   3.315   7.693 -0.5891  3.0244 -0.7270
  641TIP3   OH223481   1.834   0.212   2.369  0.1681  0.2488  0.1050
  641TIP3    H123482   1.926   0.216   2.343 -0.0721 -1.6599 -1.2092
  641TIP3    H223483   1.822   0.121   2.398 -1.7915 -0.2004 -1.8678
  642TIP3   OH223484   2.983   2.035   2.238 -0.8619 -0.0016 -0.3684
  642TIP3    H123485   2.987   1.945   2.270 -1.1202 -0.1441 -0.7272
  642TIP3    H223486   3.074   2.064   2.238 -0.6574 -0.5936 -1.1613
  643TIP3   OH223487   1.542   5.623   7.493 -0.2276 -0.3391  0.1705
  643TIP3    H123488   1.456   5.665   7.493 -1.6944 -2.8398 -3.1521
  643TIP3    H223489   1.532   5.549   7.553  0.5476  0.8401  1.8069
  644TIP3   OH223490   3.935   1.497   1.648  0.0563 -0.2165 -0.4831
  644TIP3    H123491   3.850   1.478   1.609 -0.9861  0.0819  1.5156
  644TIP3    H223492   3.931   1.458   1.735  1.6135  0.6437  0.0161
  645TIP3   OH223493   3.326   1.059   2.257  0.2756 -0.1673  0.1578
  645TIP3    H123494   3.237   1.036   2.284  0.2809  0.0765  0.3876
  645TIP3    H223495   3.315   1.128   2.192  0.3109  0.1552  0.4918
  646TIP3   OH223496   4.033   3.445   8.474 -0.6882  0.5121  0.8147
  646TIP3    H123497   3.949   3.468   8.514 -0.8674  1.8519 -0.2324
  646TIP3    H223498   4.017   3.362   8.429 -1.3178  0.5152  1.0209
  647TIP3   OH223499   3.739   0.648   8.560  0.2496 -0.4635  0.2373
  647TIP3    H123500   3.830   0.678   8.547 -0.2553  1.0963  0.0692
  647TIP3    H223501   3.729   0.644   8.655  0.1694  0.5202  0.2862
  648TIP3   OH223502   0.505   4.994   2.175  0.6137  0.0619 -0.2778
  648TIP3    H123503   0.568   5.053   2.135  0.0218 -0.2280 -1.6711
  648TIP3    H223504   0.534   4.906   2.150 -1.0995 -0.0348 -2.1945
  649TIP3   OH223505   2.695   5.943   0.736  0.0399 -0.1651 -0.6860
  649TIP3    H123506   2.701   5.861   0.786 -0.0486  0.4665  0.3874
  649TIP3    H223507   2.631   5.995   0.783  0.9639  0.9903 -0.6787
  650TIP3   OH223508   4.908   5.416   8.363  0.0026  0.0994  0.3882
  650TIP3    H123509   4.913   5.394   8.270  1.1004  0.2695  0.3963
  650TIP3    H223510   4.958   5.497   8.372  0.8088 -0.4770  1.2873
  651TIP3   OH223511   1.151   1.604   1.681 -0.2150 -0.2736 -0.3501
  651TIP3    H123512   1.090   1.671   1.648  0.3062  1.7746  2.4894
  651TIP3    H223513   1.237   1.643   1.668  0.1416 -0.7084  0.6366
  652TIP3   OH223514   0.234   5.208   0.857  0.5347 -0.1025  0.4260
  652TIP3    H123515   0.222   5.219   0.951  1.4334  0.7711  0.4470
  652TIP3    H223516   0.328   5.207   0.844  0.4364  1.1792 -0.6108
  653TIP3   OH223517   0.030   0.828   0.847  0.0059  0.3389  0.7821
  653TIP3    H123518   0.103   0.821   0.908 -0.2404 -0.9734  0.9406
  653TIP3    H223519   0.059   0.783   0.768 -0.9879 -1.0997  1.2063
  654TIP3   OH223520   4.550   4.752   0.080  0.3087 -0.2511  0.1960
  654TIP3    H123521   4.487   4.822   0.095 -1.6206 -1.9887  0.6603
  654TIP3    H223522   4.616   4.764   0.149 -2.1088 -1.1330  2.8942
  655TIP3   OH223523   6.211   2.369   2.640 -0.5351  0.3020 -0.4957
  655TIP3    H123524   6.139   2.306   2.629 -0.1519 -0.4167  0.8247
  655TIP3    H223525   6.277   2.321   2.690  0.5152  1.2245 -0.9558
  656TIP3   OH223526   5.767   2.094   3.122 -0.1392  0.4005  0.2765
  656TIP3    H123527   5.713   2.055   3.054 -0.0395  1.3673 -0.3848
  656TIP3    H223528   5.732   2.060   3.204 -0.9082  0.0042 -0.2090
  657TIP3   OH223529   5.100   6.217   0.747 -0.1032 -0.1431  0.5655
  657TIP3    H123530   5.076   6.302   0.782 -0.7801 -0.1873  0.2248
  657TIP3    H223531   5.031   6.157   0.777 -0.5738 -0.2259 -0.5950
  658TIP3   OH223532   4.773   5.015   8.262  0.0365  0.2796  0.2085
  658TIP3    H123533   4.780   5.052   8.175 -0.0041 -0.2078 -0.0079
  658TIP3    H223534   4.808   4.926   8.253  0.3518  0.3389  0.7611
  659TIP3   OH223535   6.300   5.028   1.705 -0.1183  0.1108  0.2215
  659TIP3    H123536   6.372   5.014   1.644 -0.9710  0.1468 -0.8106
  659TIP3    H223537   6.291   4.945   1.752  0.7433  0.1842  0.5334
  660TIP3   OH223538   5.671   3.032   7.867  0.2608  0.3458  0.4198
  660TIP3    H123539   5.740   3.032   7.932  0.6913  1.2365 -0.0228
  660TIP3    H223540   5.671   2.943   7.832 -0.4343 -0.3591  2.0804
  661TIP3   OH223541   2.555   2.872   1.069 -0.0644 -0.0029  0.0430
  661TIP3    H123542   2.639   2.900   1.032 -0.4244  0.1385 -0.6950
  661TIP3    H223543   2.561   2.777   1.072 -0.1211 -0.0386 -0.6487
  662TIP3   OH223544   5.866   6.030   2.335 -0.5008 -0.0563 -0.1585
  662TIP3    H123545   5.819   6.086   2.396 -0.1407 -0.4503  0.4933
  662TIP3    H223546   5.799   5.995   2.277 -0.7156  1.1327 -0.6498
  663TIP3   OH223547   4.434   1.204   2.549 -0.2338  0.0568  0.3056
  663TIP3    H123548   4.346   1.168   2.566 -0.1253 -0.1069  0.5255
  663TIP3    H223549   4.494   1.137   2.582 -0.0230  1.0015  1.9584
  664TIP3   OH223550   2.928   3.465   2.353  0.0697  0.5318 -0.4010
  664TIP3    H123551   2.870   3.522   2.404 -0.8213  0.6796 -1.5587
  664TIP3    H223552   3.009   3.515   2.344  0.0773  0.6924  0.4574
  665TIP3   OH223553   5.268   1.880   8.555  0.0930  0.3327 -0.0640
  665TIP3    H123554   5.216   1.943   8.504  0.6615  1.0609  0.2605
  665TIP3    H223555   5.341   1.857   8.497  0.4276  0.7272  0.1998
  666TIP3   OH223556   1.363   6.481   2.409  0.0464 -0.6256 -0.9615
  666TIP3    H123557   1.415   6.462   2.332  0.4217 -0.6258 -0.7094
  666TIP3    H223558   1.398   6.422   2.477  0.4804  0.1818 -0.4761
  667TIP3   OH223559   2.130   0.107   2.995 -0.4760 -0.3965  0.6605
  667TIP3    H123560   2.050   0.058   2.974 -0.6319  0.5975 -1.2745
  667TIP3    H223561   2.100   0.196   3.009  0.0270 -0.4674  2.4137
  668TIP3   OH223562   6.287   2.731   0.261  0.4849  0.0392 -0.0636
  668TIP3    H123563   6.263   2.727   0.354  3.4378  1.4496  0.8971
  668TIP3    H223564   6.342   2.653   0.248 -1.3295 -1.1104 -1.1692
  669TIP3   OH223565   4.178   2.681   0.607  0.0876 -0.9984 -0.2685
  669TIP3    H123566   4.132   2.664   0.524 -0.6695 -2.2758  0.3853
  669TIP3    H223567   4.112   2.719   0.664  0.0362 -2.0468  0.4001
  670TIP3   OH223568   2.029   5.960   8.166  0.3624  0.0162  0.7297
  670TIP3    H123569   2.037   5.949   8.260  0.3843  0.1887  0.7481
  670TIP3    H223570   1.939   5.932   8.146  0.0856  0.7440  0.9183
  671TIP3   OH223571   4.541   4.319   0.640 -0.2619 -0.1035  0.5092
  671TIP3    H123572   4.519   4.237   0.683  1.0313 -1.5296 -1.3986
  671TIP3    H223573   4.636   4.319   0.634 -0.2843  1.0769 -0.3806
  672TIP3   OH223574   5.256   5.904   3.330 -0.1349 -0.5039 -0.5235
  672TIP3    H123575   5.286   5.885   3.418 -0.1119 -0.0742 -0.4401
  672TIP3    H223576   5.229   5.818   3.295 -2.1487 -0.4194  0.6378
  673TIP3   OH223577   0.076   4.306   2.624  0.2659  0.0353 -0.0993
  673TIP3    H123578   0.054   4.399   2.626  1.5760  0.3451  1.6903
  673TIP3    H223579   0.044   4.271   2.707  2.3737 -0.4487  0.5528
  674TIP3   OH223580   2.293   3.199   7.124  0.5282 -0.0891  0.3747
  674TIP3    H123581   2.291   3.278   7.071 -0.4397  0.0255  0.5609
  674TIP3    H223582   2.252   3.132   7.069 -1.0713  0.1859  1.1903
  675TIP3   OH223583   0.020   3.519   0.078 -0.0931 -0.4638 -0.2896
  675TIP3    H123584  -0.067   3.515   0.116  0.2053  1.6461  0.7563
  675TIP3    H223585   0.006   3.548  -0.012 -0.4993 -0.3183 -0.1804
  676TIP3   OH223586   3.573   3.241   7.625  0.0325 -0.5774  0.0502
  676TIP3    H123587   3.495   3.233   7.570  0.0665  0.3904 -0.1594
  676TIP3    H223588   3.548   3.305   7.692  0.9528  0.4729 -0.5894
  677TIP3   OH223589   3.108   3.836   3.470  0.3826  0.3039 -0.2290
  677TIP3    H123590   3.143   3.889   3.398 -0.9063  1.0002 -0.3907
  677TIP3    H223591   3.059   3.766   3.426  0.4704  0.1096 -0.0198
  678TIP3   OH223592   3.602   1.400   1.815 -0.4416 -0.2531  0.1098
  678TIP3    H123593   3.689   1.360   1.820 -0.1892  0.4191  1.2608
  678TIP3    H223594   3.620   1.492   1.799 -0.7670  0.5581  3.6925
  679TIP3   OH223595   0.239   0.967   7.508  0.2342 -0.0021  0.3293
  679TIP3    H123596   0.289   1.031   7.558 -1.0498  1.5044 -0.2233
  679TIP3    H223597   0.162   0.950   7.561  0.1912 -0.4886  0.1128
  680TIP3   OH223598   1.817   4.895   8.616  0.9047  0.0828  0.1531
  680TIP3    H123599   1.778   4.827   8.671  0.0423  0.4805  0.0397
  680TIP3    H223600   1.824   4.854   8.530  1.2104 -0.1543  0.2849
  681TIP3   OH223601   6.549   3.103   0.643  0.2782 -0.2088  0.4913
  681TIP3    H123602   6.474   3.155   0.672  0.1777  1.0561 -1.7989
  681TIP3    H223603   6.523   3.069   0.557  2.9441  1.8392 -1.2810
  682TIP3   OH223604   3.649   0.132   8.192 -0.5235  0.1356  0.2569
  682TIP3    H123605   3.575   0.157   8.248  0.4725  3.4263  0.3203
  682TIP3    H223606   3.725   0.138   8.248  0.0667 -1.0332 -0.3718
  683TIP3   OH223607   3.008   0.804   1.306  0.2822 -0.0704 -0.3440
  683TIP3    H123608   3.081   0.830   1.249 -0.8386 -0.1465 -1.8650
  683TIP3    H223609   2.986   0.883   1.355  1.4425 -0.0802  0.2586
  684TIP3   OH223610   2.700   0.611   2.604 -0.2039 -0.4958 -0.2556
  684TIP3    H123611   2.701   0.705   2.622  0.4300 -0.7281  0.9976
  684TIP3    H223612   2.751   0.572   2.674  0.4193 -1.6912 -1.3266
  685TIP3   OH223613   1.867   1.250   1.262  0.2797 -0.1813 -0.3684
  685TIP3    H123614   1.925   1.315   1.303 -0.6685 -0.2626  1.2147
  685TIP3    H223615   1.888   1.168   1.306  0.8556 -0.8032 -1.7433
  686TIP3   OH223616   5.317   0.660   1.062 -0.0816  1.2572 -0.3819
  686TIP3    H123617   5.296   0.696   1.149  2.2538  1.4206  0.1754
  686TIP3    H223618   5.406   0.626   1.071 -0.8567 -1.4661 -1.9075
  687TIP3   OH223619   1.232   0.740   3.119 -0.2070  0.0446 -0.4637
  687TIP3    H123620   1.205   0.829   3.142 -0.0950 -0.3247  1.3039
  687TIP3    H223621   1.158   0.704   3.071 -0.6404  0.8016 -0.3856
  688TIP3   OH223622   2.673   5.367   0.166  0.3226  0.2212  0.1977
  688TIP3    H123623   2.750   5.398   0.213 -0.3269  1.6331  0.3676
  688TIP3    H223624   2.602   5.425   0.195 -1.0524 -1.6824  0.8556
  689TIP3   OH223625   3.602   0.673   0.068  0.0536  0.6424 -0.5992
  689TIP3    H123626   3.542   0.599   0.079 -1.8620  1.7733 -2.6306
  689TIP3    H223627   3.576   0.736   0.135  0.6450  0.1559  0.1064
  690TIP3   OH223628   3.314   2.839   1.286 -0.6123  0.2776 -0.2107
  690TIP3    H123629   3.358   2.888   1.355  1.0445 -0.4079 -0.7217
  690TIP3    H223630   3.329   2.889   1.206 -1.4662  0.4409 -0.2799
  691TIP3   OH223631   2.735   5.901   2.455  0.0047  0.3255  0.1628
  691TIP3    H123632   2.753   5.969   2.520 -0.2730 -0.3683  0.9924
  691TIP3    H223633   2.644   5.877   2.470  0.6280 -1.6397  1.3150
  692TIP3   OH223634   2.830   1.340   0.350 -0.3918  0.8532 -0.0043
  692TIP3    H123635   2.778   1.316   0.427 -1.0157  0.7609 -0.4466
  692TIP3    H223636   2.912   1.374   0.386 -0.1308 -0.4451  0.6754
  693TIP3   OH223637   4.614   4.087   2.758  0.5365  0.0685  0.0261
  693TIP3    H123638   4.576   4.065   2.843 -0.7106  1.6917 -0.0633
  693TIP3    H223639   4.605   4.007   2.706 -2.2143  0.1320  0.2344
  694TIP3   OH223640   0.913   1.036   2.183  0.5452  0.3351 -0.3464
  694TIP3    H123641   0.853   0.965   2.206  1.3213 -0.3566 -0.4126
  694TIP3    H223642   0.982   1.032   2.249  1.3243  0.1223 -1.1409
  695TIP3   OH223643   0.073   1.889   1.293  0.0931 -1.2432  0.1289
  695TIP3    H123644   0.146   1.853   1.344 -0.5577 -0.0286  2.0266
  695TIP3    H223645   0.002   1.899   1.356 -0.6240  0.7343 -0.9047
  696TIP3   OH223646   0.967   3.050   1.797 -0.0422  0.0718 -0.4802
  696TIP3    H123647   1.048   3.004   1.820  0.7942  0.4592 -2.4289
  696TIP3    H223648   0.994   3.142   1.790 -0.2535  0.0168 -2.6073
  697TIP3   OH223649   1.495   1.178   1.025 -0.3272  0.1641 -0.3567
  697TIP3    H123650   1.553   1.105   1.046 -0.2128 -0.0940 -1.5282
  697TIP3    H223651   1.520   1.246   1.088  0.8841 -0.1252 -0.4958
  698TIP3   OH223652   2.425   0.524   2.183 -0.0471 -0.2154 -0.5403
  698TIP3    H123653   2.339   0.504   2.146 -1.4864 -2.1620  3.3064
  698TIP3    H223654   2.473   0.442   2.180  1.4783  0.6523 -1.8745
  699TIP3   OH223655   5.699   5.523   0.746 -0.2076  0.2598  0.6777
  699TIP3    H123656   5.789   5.554   0.735 -0.3459  0.6059  0.4974
  699TIP3    H223657   5.649   5.570   0.679 -0.6149  0.4676  1.1255
  700TIP3   OH223658   2.404   3.492   0.186  0.0620  1.0874 -0.7287
  700TIP3    H123659   2.432   3.583   0.178  1.5774  0.7300  0.1686
  700TIP3    H223660   2.429   3.466   0.274 -0.8563 -0.0497 -0.7688
  701TIP3   OH223661   0.052   5.957   2.609 -0.3387  0.2682  0.5473
  701TIP3    H123662   0.111   5.942   2.683 -0.6364 -1.8825  0.4084
  701TIP3    H223663   0.028   6.050   2.616  0.5745  0.4142  2.4145
  702TIP3   OH223664   1.182   4.520   0.507  0.5965 -0.0175 -0.1435
  702TIP3    H123665   1.155   4.439   0.463 -1.8596 -0.9114  2.6595
  702TIP3    H223666   1.235   4.491   0.581 -0.0513  0.9025  0.7164
  703TIP3   OH223667   6.177   2.089   0.256 -0.3038 -0.0818 -0.1852
  703TIP3    H123668   6.245   2.098   0.323  0.4348 -1.4340 -0.7300
  703TIP3    H223669   6.201   2.152   0.189  0.4994 -0.6453 -0.4348
  704TIP3   OH223670   1.805   2.873   2.710 -0.1404  0.0643  0.0718
  704TIP3    H123671   1.871   2.925   2.665  1.0361 -0.2533  1.3454
  704TIP3    H223672   1.812   2.899   2.802 -1.0253 -0.7828  0.4047
  705TIP3   OH223673   2.024   5.005   2.747 -0.2161  0.3454 -0.4401
  705TIP3    H123674   2.008   4.968   2.660  0.3441  0.1519 -0.4642
  705TIP3    H223675   2.008   5.099   2.736 -2.0328  0.0918 -0.2867
  706TIP3   OH223676   2.069   6.539   0.297  0.0063  0.0675  0.1476
  706TIP3    H123677   2.064   6.562   0.205 -1.4204  2.0244  0.6453
  706TIP3    H223678   2.162   6.522   0.313  0.1830 -0.9955 -1.7561
  707TIP3   OH223679   0.864   2.290   1.326 -0.1679 -0.5886 -0.2186
  707TIP3    H123680   0.792   2.230   1.306  1.5685 -2.2450 -1.9157
  707TIP3    H223681   0.856   2.360   1.261 -1.5438  0.5223  1.0692
  708TIP3   OH223682   5.121   3.999   7.210  0.0277 -0.0451  0.0171
  708TIP3    H123683   5.158   3.987   7.297 -0.5221  2.2432  0.6493
  708TIP3    H223684   5.033   3.961   7.216  0.4003 -0.9330  0.0672
  709TIP3   OH223685   5.365   2.102   7.707  0.1423  0.3373 -0.2989
  709TIP3    H123686   5.386   2.015   7.741  1.0625  1.3900  2.0489
  709TIP3    H223687   5.340   2.087   7.616 -1.1307 -2.5369  0.4054
  710TIP3   OH223688   6.779   5.188   0.967 -1.0122 -0.9720  0.1023
  710TIP3    H123689   6.867   5.158   0.990 -0.1265  0.6804 -0.9355
  710TIP3    H223690   6.753   5.246   1.038 -0.3926  0.1073 -0.5143
  711TIP3   OH223691   0.654   3.080   2.359  0.6093 -0.4898  0.0793
  711TIP3    H123692   0.655   2.984   2.362 -0.3749 -0.4836  1.9934
  711TIP3    H223693   0.711   3.107   2.431  0.7228  0.3771 -0.3255
  712TIP3   OH223694   5.244   3.466   2.053  0.4030  0.3007 -0.3313
  712TIP3    H123695   5.163   3.416   2.064  0.3405 -0.2701 -2.9249
  712TIP3    H223696   5.214   3.552   2.022  0.7094  0.8030  0.7184
  713TIP3   OH223697   3.579   4.558   8.222  0.0157 -0.1734 -0.7866
  713TIP3    H123698   3.628   4.591   8.146 -2.0797  2.1699 -1.2654
  713TIP3    H223699   3.493   4.534   8.186 -1.3613  1.8628  0.8885
  714TIP3   OH223700   2.600   4.960   1.384  0.2068  0.6632  0.3313
  714TIP3    H123701   2.622   4.879   1.337 -1.5944 -0.2715  0.9925
  714TIP3    H223702   2.597   5.027   1.316  0.7181 -0.0404 -0.3982
  715TIP3   OH223703   3.456   3.091   8.221  0.2518 -0.2095  0.6172
  715TIP3    H123704   3.518   3.020   8.200  0.6804  0.4212 -0.3140
  715TIP3    H223705   3.378   3.046   8.252  1.5410 -1.0302  2.9920
  716TIP3   OH223706   4.965   5.509   7.928 -0.2266 -0.4738 -0.3110
  716TIP3    H123707   4.885   5.552   7.957  0.2199 -0.0516  0.3289
  716TIP3    H223708   4.978   5.438   7.991  0.1800 -0.2111 -0.0915
  717TIP3   OH223709   1.209   1.597   1.949 -0.7551  0.0742 -0.4789
  717TIP3    H123710   1.190   1.575   1.858  0.3527 -0.9851 -0.4777
  717TIP3    H223711   1.128   1.636   1.982 -0.9221  1.2025 -2.1264
  718TIP3   OH223712   3.456   3.800   3.318 -0.3938  0.6769  0.3889
  718TIP3    H123713   3.381   3.819   3.262  0.2301  2.6018  0.1327
  718TIP3    H223714   3.427   3.729   3.375 -2.6785  1.8428  0.7904
  719TIP3   OH223715   6.821   3.345   1.582 -0.2402 -0.4000 -0.0425
  719TIP3    H123716   6.859   3.429   1.555 -0.2682  0.0321  1.2282
  719TIP3    H223717   6.765   3.319   1.509  1.6896 -0.5617 -1.5601
  720TIP3   OH223718   5.323   1.964   1.178  0.2602  0.0628 -0.2169
  720TIP3    H123719   5.268   1.966   1.100  0.3851 -0.3126 -0.3173
  720TIP3    H223720   5.273   2.012   1.245 -1.3744 -2.4240  0.4702
  721TIP3   OH223721   5.083   0.204   7.868 -0.3460  0.2100 -0.1862
  721TIP3    H123722   5.045   0.117   7.876  0.2297  0.1071  2.4580
  721TIP3    H223723   5.153   0.194   7.805 -0.6804 -1.0967 -0.3813
  722TIP3   OH223724   6.601   3.513   0.165  0.0797 -0.3337  0.4723
  722TIP3    H123725   6.582   3.462   0.086  0.4303 -1.1410  0.8901
  722TIP3    H223726   6.515   3.541   0.197 -0.1049 -0.4974  0.1210
  723TIP3   OH223727   2.642   0.179   8.646 -0.0029 -0.5379 -0.3407
  723TIP3    H123728   2.590   0.099   8.656  0.1647 -0.8463 -1.7096
  723TIP3    H223729   2.657   0.186   8.552  1.3967  0.2151 -0.0874
  724TIP3   OH223730   1.147   3.855   0.440 -0.5326  0.2393 -0.9872
  724TIP3    H123731   1.114   3.782   0.492  2.2725 -0.1909  0.3749
  724TIP3    H223732   1.189   3.813   0.364 -1.2974  0.6248 -1.6293
  725TIP3   OH223733   4.764   2.502   7.254 -0.0342 -0.0305  0.7701
  725TIP3    H123734   4.681   2.471   7.216 -0.4659  1.3284  0.5651
  725TIP3    H223735   4.830   2.442   7.219 -0.9011 -1.0694  0.8449
  726TIP3   OH223736   3.759   2.846   8.656  0.0807 -0.2206 -0.2963
  726TIP3    H123737   3.680   2.839   8.709 -2.2077  3.1781 -2.8214
  726TIP3    H223738   3.749   2.779   8.589 -0.4284 -0.0866 -0.3557
  727TIP3   OH223739   5.627   1.362   2.210  0.3857 -0.1897  0.3261
  727TIP3    H123740   5.591   1.444   2.241 -0.8421 -0.2420 -0.8653
  727TIP3    H223741   5.722   1.372   2.219  0.3314  1.8219 -0.8670
  728TIP3   OH223742   0.802   6.139   7.131  0.4697  0.0422 -0.4149
  728TIP3    H123743   0.741   6.204   7.097  3.6063  2.3432 -2.2028
  728TIP3    H223744   0.829   6.089   7.054  1.2225 -0.5728  0.2351
  729TIP3   OH223745   1.713   2.450   2.324  0.3609 -0.2772  0.4937
  729TIP3    H123746   1.714   2.412   2.236  1.4970 -1.0222  0.8068
  729TIP3    H223747   1.713   2.374   2.383  0.6156  0.2153  1.1365
  730TIP3   OH223748   5.295   0.848   1.274 -0.0336 -0.0239 -0.7493
  730TIP3    H123749   5.353   0.891   1.337  0.5205 -1.5621 -0.1713
  730TIP3    H223750   5.207   0.874   1.301  0.3109  2.4233 -1.6964
  731TIP3   OH223751   0.248   6.782   1.944 -0.2000  0.4986 -0.2431
  731TIP3    H123752   0.208   6.700   1.916 -1.0146  0.2586  1.5135
  731TIP3    H223753   0.295   6.813   1.866 -0.7756 -1.0595 -1.2661
  732TIP3   OH223754   4.209   3.283   1.825 -0.3017 -0.0164  0.0850
  732TIP3    H123755   4.132   3.291   1.881 -1.1716  0.3821 -1.1193
  732TIP3    H223756   4.173   3.258   1.739  1.0212 -1.0602 -0.2032
  733TIP3   OH223757   0.671   3.932   0.028 -0.2828  0.0883  0.0545
  733TIP3    H123758   0.585   3.912   0.063  0.6739 -1.4098  1.7092
  733TIP3    H223759   0.691   4.019   0.062 -2.0991  1.6067 -2.4225
  734TIP3   OH223760   3.998   5.521   1.743 -0.2868  0.1537  0.2234
  734TIP3    H123761   3.941   5.597   1.737  1.8789  2.0049  1.6630
  734TIP3    H223762   4.048   5.534   1.823  2.2266 -1.3021 -0.9763
  735TIP3   OH223763   2.380   0.565   8.736  0.6270  0.3990 -0.1561
  735TIP3    H123764   2.443   0.630   8.766 -0.6089  1.0242  1.1688
  735TIP3    H223765   2.372   0.504   8.809 -0.1367  0.1955 -0.4037
  736TIP3   OH223766   5.990   2.351   3.279  0.3625  0.0898  0.1473
  736TIP3    H123767   6.034   2.371   3.362 -0.0944  0.8902  0.2136
  736TIP3    H223768   6.037   2.276   3.244 -0.2494 -1.1213  1.7696
  737TIP3   OH223769   2.887   5.912   0.991  0.9003  0.0881  0.3689
  737TIP3    H123770   2.967   5.958   0.967  1.9630 -1.7819  0.1913
  737TIP3    H223771   2.899   5.823   0.959 -1.9030  0.0981 -1.0535
  738TIP3   OH223772   2.923   5.118   0.234 -0.7362  0.4811 -0.1122
  738TIP3    H123773   2.888   5.112   0.146 -1.0324 -0.1329  0.0459
  738TIP3    H223774   2.893   5.203   0.266  1.3119  1.7862 -1.4290
  739TIP3   OH223775   0.227   0.932   6.946 -0.3032  0.0428 -0.1988
  739TIP3    H123776   0.315   0.945   6.981 -0.5641 -1.1936  0.9870
  739TIP3    H223777   0.210   1.011   6.894  0.7024  1.2537  1.2273
  740TIP3   OH223778   1.881   2.072   8.363 -0.5422  0.1494  0.3346
  740TIP3    H123779   1.791   2.094   8.390  0.0262  0.2700  2.2867
  740TIP3    H223780   1.925   2.157   8.355 -0.7040  0.1262 -1.1757
  741TIP3   OH223781   5.272   4.832   1.237 -0.2517 -0.0887 -0.7513
  741TIP3    H123782   5.243   4.829   1.146  0.0691  3.2783 -1.1150
  741TIP3    H223783   5.363   4.862   1.232 -0.0236 -0.4803  0.6587
  742TIP3   OH223784   1.862   1.365   0.064 -0.3543  0.2703  0.5995
  742TIP3    H123785   1.879   1.282   0.107 -2.6655 -0.4615  0.2438
  742TIP3    H223786   1.802   1.344  -0.008  0.5824  1.9706 -0.7652
  743TIP3   OH223787   1.348   0.531   1.648 -0.0914  0.4464 -0.7057
  743TIP3    H123788   1.423   0.499   1.597 -2.5680 -1.0520 -3.7135
  743TIP3    H223789   1.369   0.508   1.739  2.8334 -0.3319 -1.4791
  744TIP3   OH223790   1.409   4.956   0.017 -1.3180  0.1636  0.1123
  744TIP3    H123791   1.317   4.936   0.004 -0.8097 -2.9900  0.6902
  744TIP3    H223792   1.456   4.887  -0.028  0.7191  0.3735  1.7414
  745TIP3   OH223793   6.463   1.516   6.898 -0.7044 -0.0850  0.2101
  745TIP3    H123794   6.519   1.455   6.852 -2.7948 -0.0926 -2.5465
  745TIP3    H223795   6.409   1.461   6.955  0.9206 -0.1973  1.7544
  746TIP3   OH223796   3.037   6.120   2.179 -0.1926  0.1334 -0.0243
  746TIP3    H123797   3.018   6.107   2.272 -2.7513  0.0915 -0.5031
  746TIP3    H223798   3.082   6.039   2.153 -0.5796 -0.3921  0.8743
  747TIP3   OH223799   4.983   1.152   8.150 -0.1080 -0.1132 -0.0517
  747TIP3    H123800   5.015   1.203   8.225  2.3480 -1.4204 -0.0984
  747TIP3    H223801   4.888   1.159   8.156  0.0586  2.2434  1.4511
  748TIP3   OH223802   5.952   4.499   2.616  0.2125 -0.0845 -0.4610
  748TIP3    H123803   5.995   4.572   2.660  0.8702 -1.4110  1.1961
  748TIP3    H223804   5.860   4.527   2.607  0.4394  0.9078  0.1799
  749TIP3   OH223805   0.036   4.867   0.844  0.2778  0.2821  0.4578
  749TIP3    H123806   0.065   4.821   0.922 -1.8840  0.5467  1.4994
  749TIP3    H223807   0.010   4.798   0.783  1.7161  0.0805  0.0527
  750TIP3   OH223808   5.348   6.190   1.004 -0.5172 -0.1626 -0.6656
  750TIP3    H123809   5.428   6.241   1.001 -1.0712  0.8639  0.8306
  750TIP3    H223810   5.278   6.255   1.011 -1.2858 -1.0703  0.5351
  751TIP3   OH223811   4.206   2.100   2.152  0.6781 -0.1472 -0.1646
  751TIP3    H123812   4.218   2.007   2.176  1.6598  0.0609  0.2194
  751TIP3    H223813   4.157   2.098   2.071  1.6396 -1.0585 -0.7515
  752TIP3   OH223814   6.109   6.567   0.178  0.1914  0.0544 -0.1518
  752TIP3    H123815   6.058   6.485   0.176 -0.0285  0.1621  0.5194
  752TIP3    H223816   6.086   6.611   0.097 -1.2740  0.3703  0.3870
  753TIP3   OH223817   3.809   0.028   2.525  0.3714 -0.1204  0.5464
  753TIP3    H123818   3.817  -0.020   2.442  0.2168 -2.2694  1.7075
  753TIP3    H223819   3.729  -0.006   2.565 -0.8208  2.5116  0.6423
  754TIP3   OH223820   2.842   2.757   1.348  0.4833 -0.1541 -0.1052
  754TIP3    H123821   2.782   2.824   1.379  0.1534  0.0444 -1.1513
  754TIP3    H223822   2.925   2.776   1.392  0.0816  0.2338  0.4893
  755TIP3   OH223823   6.247   2.283   2.112  0.1644  0.1791 -0.3435
  755TIP3    H123824   6.266   2.373   2.136 -0.1538 -0.3314  2.0403
  755TIP3    H223825   6.330   2.249   2.079  0.4938  1.0945 -0.5000
  756TIP3   OH223826   3.057   5.352   7.886 -0.5370  1.0676  0.3746
  756TIP3    H123827   3.097   5.265   7.882 -2.9443 -0.1021 -0.0078
  756TIP3    H223828   3.091   5.398   7.810 -0.7145 -0.2563 -0.5254
  757TIP3   OH223829   5.798   4.602   0.988 -0.4941 -0.0456  0.6986
  757TIP3    H123830   5.835   4.609   1.076 -0.7429  0.2372  0.7834
  757TIP3    H223831   5.733   4.673   0.984 -0.7982 -0.3383  0.4419
  758TIP3   OH223832   1.932   5.554   1.606 -0.1881 -0.0109  0.2107
  758TIP3    H123833   1.922   5.546   1.701 -0.3651  0.0117  0.1941
  758TIP3    H223834   1.857   5.508   1.570 -0.0103 -0.1966  0.0766
  759TIP3   OH223835   6.607   1.684   7.992  0.0969 -0.0603 -0.0356
  759TIP3    H123836   6.625   1.638   7.910  0.0860  0.5380 -0.3817
  759TIP3    H223837   6.621   1.776   7.971  0.6037  0.0604  0.7753
  760TIP3   OH223838   3.944   0.246   2.599  0.3772  0.0349  0.0325
  760TIP3    H123839   3.884   0.177   2.571  1.0067 -0.4131 -0.2481
  760TIP3    H223840   4.021   0.235   2.542  0.8838  0.3432  0.6446
  761TIP3   OH223841   3.406   4.215   2.994 -0.5496  0.0406  0.0244
  761TIP3    H123842   3.494   4.214   2.958 -1.3789  1.0584 -2.2124
  761TIP3    H223843   3.413   4.167   3.077  1.9713 -0.3041 -0.3215
  762TIP3   OH223844   1.883   6.151   0.508  0.1093 -0.6600  0.1732
  762TIP3    H123845   1.971   6.182   0.529 -0.1078 -0.4942  0.8632
  762TIP3    H223846   1.827   6.191   0.574 -0.5783 -0.2686 -0.6306
  763TIP3   OH223847   0.707   3.101   0.328 -0.3146 -0.8544 -0.2301
  763TIP3    H123848   0.699   3.057   0.244 -2.3565  1.4004 -1.3300
  763TIP3    H223849   0.762   3.177   0.310 -1.7505  0.3108  0.1219
  764TIP3   OH223850   1.821   1.186   2.319 -0.5927  0.2671 -0.6650
  764TIP3    H123851   1.855   1.109   2.364 -2.6431 -0.1489  0.2620
  764TIP3    H223852   1.868   1.188   2.235 -0.5844 -2.0712 -0.7685
  765TIP3   OH223853   3.928   0.834   8.571 -1.0460  0.1487  0.1853
  765TIP3    H123854   3.946   0.893   8.498 -0.7083 -0.4012 -0.1838
  765TIP3    H223855   4.015   0.807   8.602 -1.1912 -0.8516 -0.2332
  766TIP3   OH223856   3.237   1.879   2.322  0.2998  0.1860  0.0116
  766TIP3    H123857   3.204   1.814   2.383  0.0778  0.2376 -0.0539
  766TIP3    H223858   3.223   1.840   2.235  1.2062 -0.1679  0.0144
  767TIP3   OH223859   5.242   2.815   1.909  0.2978  0.2840 -0.1733
  767TIP3    H123860   5.331   2.845   1.927  0.2182  0.6275 -0.3499
  767TIP3    H223861   5.195   2.894   1.883  0.0502  0.0277 -0.5074
  768TIP3   OH223862   4.000   5.050   7.429 -0.3252  0.2136 -0.0332
  768TIP3    H123863   3.970   5.118   7.368 -0.2117 -0.1758 -0.5281
  768TIP3    H223864   3.979   4.968   7.385  1.3324 -0.0756 -0.3104
  769TIP3   OH223865   4.670   0.106   7.591  0.2531  0.1954 -0.2576
  769TIP3    H123866   4.628   0.192   7.580 -0.5132 -0.2795 -1.2740
  769TIP3    H223867   4.673   0.070   7.503  1.1388 -0.5679  0.0755
  770TIP3   OH223868   4.264   3.043   8.206 -0.2009 -0.6176  0.0820
  770TIP3    H123869   4.300   2.957   8.184 -1.6531 -1.8656  2.2755
  770TIP3    H223870   4.208   3.065   8.132  1.4742 -0.7118 -1.2897
  771TIP3   OH223871   3.769   2.599   3.243 -0.0502 -0.2503  0.2810
  771TIP3    H123872   3.757   2.603   3.337 -4.2155 -1.9632  0.0541
  771TIP3    H223873   3.836   2.532   3.230  1.0518  0.4644  1.9806
  772TIP3   OH223874   6.639   2.788   2.034 -0.5414  0.0682 -0.2122
  772TIP3    H123875   6.673   2.809   1.947  1.0904 -1.7249 -0.0825
  772TIP3    H223876   6.554   2.830   2.037  0.7121  2.9733 -1.4212
  773TIP3   OH223877   3.532   0.088   1.168 -0.3560 -0.2271 -0.1289
  773TIP3    H123878   3.550   0.011   1.114 -0.3140 -0.5465  0.3302
  773TIP3    H223879   3.618   0.128   1.182 -0.6107  1.2523 -2.2976
  774TIP3   OH223880   1.695   3.845   2.081  0.1212  0.0060  0.3715
  774TIP3    H123881   1.737   3.870   2.163 -1.6230 -0.6165  1.5012
  774TIP3    H223882   1.643   3.922   2.056 -0.7049 -0.4040  0.7884
  775TIP3   OH223883   3.201   5.716   0.005  0.0808 -0.4846  0.0355
  775TIP3    H123884   3.154   5.674  -0.067  0.0177 -0.1762 -0.1059
  775TIP3    H223885   3.176   5.665   0.083 -1.5342  0.4467  0.1856
  776TIP3   OH223886   3.680   5.709   0.195  0.2987  0.6323  0.4161
  776TIP3    H123887   3.764   5.741   0.229  0.9224  1.0525 -1.4146
  776TIP3    H223888   3.689   5.714   0.100 -1.4324 -0.3206  0.1613
  777TIP3   OH223889   4.100   1.154   0.090 -0.5841 -0.0648  0.4346
  777TIP3    H123890   4.078   1.158  -0.003 -1.0831  0.3210  0.5649
  777TIP3    H223891   4.038   1.092   0.127 -1.8596  1.4251  0.9013
  778TIP3   OH223892   5.562   3.701   3.693  0.3337 -0.3382  0.2557
  778TIP3    H123893   5.644   3.654   3.709  1.4195  1.1896 -0.5131
  778TIP3    H223894   5.548   3.692   3.598 -0.0476 -0.0615  0.2841
  779TIP3   OH223895   2.482   1.906   0.110  0.0709 -0.2873 -0.2052
  779TIP3    H123896   2.506   1.898   0.202 -0.0796 -1.1343 -0.2310
  779TIP3    H223897   2.514   1.993   0.084  0.4929 -0.2154  0.5269
  780TIP3   OH223898   1.511   0.522   7.424  0.4333 -0.0943  0.2452
  780TIP3    H123899   1.496   0.448   7.365 -0.1724 -0.3529  0.7114
  780TIP3    H223900   1.469   0.596   7.380  0.4568 -0.1717  0.0923
  781TIP3   OH223901   5.374   6.219   0.235  0.1604 -0.2902  0.4320
  781TIP3    H123902   5.338   6.273   0.306  1.2337  1.9391 -0.6014
  781TIP3    H223903   5.417   6.147   0.280  1.4945  1.4708  2.1610
  782TIP3   OH223904   4.695   5.927   7.889 -0.4976 -0.4064 -0.3656
  782TIP3    H123905   4.706   5.847   7.838  0.5191 -0.6080  0.1374
  782TIP3    H223906   4.650   5.897   7.969 -2.8049  0.0369 -1.4285
  783TIP3   OH223907   3.018   1.282   1.200 -0.4260  0.3792  0.8250
  783TIP3    H123908   3.034   1.279   1.294 -0.4509 -0.2613  0.8165
  783TIP3    H223909   3.021   1.375   1.178  3.3879  0.3942  0.8047
  784TIP3   OH223910   6.264   5.466   0.127  0.2200  0.5170 -0.3076
  784TIP3    H123911   6.217   5.505   0.201 -1.2669  1.0756 -1.4818
  784TIP3    H223912   6.343   5.519   0.118  0.7556  0.0361  1.2612
  785TIP3   OH223913   6.067   3.281   2.358  0.6682 -0.4826  0.1764
  785TIP3    H123914   6.112   3.360   2.386 -0.5602  0.3200 -0.0505
  785TIP3    H223915   5.993   3.273   2.418 -0.5225 -0.1652 -1.1907
  786TIP3   OH223916   1.448   2.837   0.602  0.4680  0.2088 -0.2823
  786TIP3    H123917   1.363   2.816   0.641  0.7994  0.8686  0.8279
  786TIP3    H223918   1.428   2.905   0.537  0.0613 -0.1292 -0.5171
  787TIP3   OH223919   5.669   2.323   2.589 -0.1187  0.4301  0.3969
  787TIP3    H123920   5.694   2.327   2.497  0.4284  0.6226  0.5480
  787TIP3    H223921   5.744   2.360   2.636 -0.7122  1.0785  0.8670
  788TIP3   OH223922   1.869   5.877   1.644 -0.0229 -0.3802  0.4757
  788TIP3    H123923   1.862   5.841   1.556  0.1181 -1.7878  1.0180
  788TIP3    H223924   1.862   5.801   1.702 -0.4164  0.5461  1.6956
  789TIP3   OH223925   6.771   0.535   0.850  0.4042  0.1896  0.4999
  789TIP3    H123926   6.846   0.483   0.880  1.6825  1.8471  0.3518
  789TIP3    H223927   6.795   0.626   0.871 -0.4589  1.0242 -1.7693
  790TIP3   OH223928   4.230   4.051   1.507 -0.2102  0.3158  0.2996
  790TIP3    H123929   4.280   3.975   1.538  1.1872  1.3594  0.6977
  790TIP3    H223930   4.269   4.126   1.552 -1.6718  1.2728  0.0512
  791TIP3   OH223931   1.976   3.849   0.761  0.2550 -0.0373 -0.3307
  791TIP3    H123932   1.932   3.773   0.797  0.7811  1.0240  2.9077
  791TIP3    H223933   2.051   3.864   0.819  2.1803  1.0058 -2.8444
  792TIP3   OH223934   0.566   4.134   0.913  0.0759 -0.3191 -0.2757
  792TIP3    H123935   0.656   4.103   0.914  0.0768 -0.3112 -0.0955
  792TIP3    H223936   0.513   4.054   0.905  0.1185 -0.2793 -1.0181
  793TIP3   OH223937   6.291   3.992   8.650 -0.8152 -0.1891 -0.2167
  793TIP3    H123938   6.205   3.966   8.618 -0.9950  1.1528 -0.8779
  793TIP3    H223939   6.277   4.078   8.689  0.5096  0.8142 -1.8156
  794TIP3   OH223940   1.960   5.190   1.045  0.2031 -0.2779 -0.2013
  794TIP3    H123941   1.925   5.152   0.965 -1.2280  1.3285 -0.4004
  794TIP3    H223942   1.908   5.148   1.115  0.4025 -0.5557 -0.2163
  795TIP3   OH223943   5.563   5.077   2.263  0.1000 -0.0249 -0.5569
  795TIP3    H123944   5.521   5.017   2.201 -1.5210 -0.9850  1.3357
  795TIP3    H223945   5.502   5.150   2.270 -0.1944 -0.3344  0.4764
  796TIP3   OH223946   2.662   5.924   8.465 -0.1823  0.2962 -0.2232
  796TIP3    H123947   2.748   5.961   8.488  0.2589 -0.0406 -1.2773
  796TIP3    H223948   2.603   6.000   8.465  0.4092  0.7764 -0.8812
  797TIP3   OH223949   4.484   5.918   8.181 -0.0938  0.1895 -0.2787
  797TIP3    H123950   4.505   5.847   8.242  0.0338 -0.1174 -0.6747
  797TIP3    H223951   4.436   5.982   8.234 -2.2080 -1.2123 -0.4146
  798TIP3   OH223952   2.323   1.906   8.179 -0.0470  0.2442  0.2398
  798TIP3    H123953   2.277   1.980   8.220  1.0302  2.0552 -1.6130
  798TIP3    H223954   2.254   1.855   8.138 -0.7253  0.9477  0.4677
  799TIP3   OH223955   5.993   5.867   1.493  0.6196 -0.6966  0.2282
  799TIP3    H123956   5.965   5.957   1.509 -0.4147 -0.6054 -1.8389
  799TIP3    H223957   5.912   5.818   1.478  1.2541 -1.6301 -0.2951
  800TIP3   OH223958   0.514   2.951   8.514  0.2638  0.1367 -0.1406
  800TIP3    H123959   0.565   3.030   8.499  0.0475  0.4742  0.8190
  800TIP3    H223960   0.555   2.910   8.590 -1.6687  1.1286  1.5195
  801TIP3   OH223961   0.635   0.621   8.586  0.2697  0.2653  0.0374
  801TIP3    H123962   0.558   0.663   8.547  0.3666  1.9031  1.5005
  801TIP3    H223963   0.599   0.556   8.647  0.0382  0.8572  0.5395
  802TIP3   OH223964   6.093   0.974   1.801  0.4107  0.2634 -0.1794
  802TIP3    H123965   6.026   0.905   1.799 -1.0972  1.4439  2.9290
  802TIP3    H223966   6.053   1.048   1.755  1.9610 -0.6861 -3.3587
  803TIP3   OH223967   5.455   3.623   1.136  0.7651 -0.4891  0.4077
  803TIP3    H123968   5.528   3.594   1.081 -0.6132  1.2574 -2.5654
  803TIP3    H223969   5.477   3.713   1.159 -0.6877  0.3002 -1.1059
  804TIP3   OH223970   3.312   3.177   2.435  0.4840 -0.2671  0.2031
  804TIP3    H123971   3.389   3.184   2.378  0.2322  0.3441 -0.0688
  804TIP3    H223972   3.322   3.249   2.497 -0.2048  0.2135 -0.2421
  805TIP3   OH223973   3.066   3.874   2.094 -0.0847 -0.2161 -0.0427
  805TIP3    H123974   2.985   3.872   2.145  0.9358  0.4487  1.7122
  805TIP3    H223975   3.041   3.915   2.011 -1.9073 -1.7712 -0.3318
  806TIP3   OH223976   4.065   2.715   8.102 -0.3308  0.0559  0.0444
  806TIP3    H123977   3.992   2.718   8.040 -2.1296  1.2969  2.0662
  806TIP3    H223978   4.079   2.806   8.126  0.9529 -0.3143  0.7577
  807TIP3   OH223979   1.772   4.089   7.541 -0.4012  0.9251 -0.0787
  807TIP3    H123980   1.735   4.130   7.463  0.6726 -0.4370 -1.3633
  807TIP3    H223981   1.808   4.162   7.591 -0.0496  1.7385 -1.4585
  808TIP3   OH223982   5.531   5.333   2.702 -0.3678 -0.1733 -0.8054
  808TIP3    H123983   5.506   5.243   2.681  1.2371 -0.6213 -0.9149
  808TIP3    H223984   5.483   5.353   2.782 -0.6745 -1.1576 -0.7286
  809TIP3   OH223985   3.988   6.768   1.696  0.4450 -0.1972  0.6303
  809TIP3    H123986   4.083   6.761   1.693  0.4813  0.2466  0.6577
  809TIP3    H223987   3.965   6.751   1.787  0.6850  1.7397  1.1037
  810TIP3   OH223988   5.928   1.034   8.568  0.1086  0.4008 -0.4601
  810TIP3    H123989   5.873   0.979   8.624 -0.0364  0.7612 -0.2464
  810TIP3    H223990   5.990   0.973   8.528  1.7914  0.4280  1.9211
  811TIP3   OH223991   4.322   2.709   1.441  0.5431  0.1710 -0.1288
  811TIP3    H123992   4.400   2.762   1.455 -0.5631  2.0821 -0.7721
  811TIP3    H223993   4.256   2.771   1.408 -2.0453 -0.7436  2.7831
  812TIP3   OH223994   4.444   5.215   1.705 -0.0686  0.0187 -0.1705
  812TIP3    H123995   4.507   5.280   1.673 -0.5808 -0.3644 -2.0503
  812TIP3    H223996   4.358   5.256   1.692 -0.3353 -0.5126 -0.1090
  813TIP3   OH223997   4.765   2.880   0.545 -0.5772  1.0670  0.0740
  813TIP3    H123998   4.675   2.904   0.564 -1.0670  0.8434 -1.7622
  813TIP3    H223999   4.803   2.957   0.503 -0.0724  0.9666  0.3291
  814TIP3   OH224000   2.002   4.981   1.765  0.5408  0.4612  0.6268
  814TIP3    H124001   2.026   5.004   1.855  1.7116  0.9119  0.2162
  814TIP3    H224002   1.930   5.040   1.743  1.1188  1.2586  0.8356
  815TIP3   OH224003   0.812   3.579   0.285 -0.5407 -0.2753  0.1478
  815TIP3    H124004   0.896   3.553   0.324 -0.3676  0.1139  0.0494
  815TIP3    H224005   0.834   3.602   0.195 -0.9650 -1.3232 -0.2391
  816TIP3   OH224006   0.175   5.265   1.711  0.1809 -0.3403  0.8074
  816TIP3    H124007   0.161   5.344   1.659  0.6371 -0.0660  1.0935
  816TIP3    H224008   0.199   5.198   1.648  0.6329 -0.0327  0.6471
  817TIP3   OH224009   1.144   6.673   2.235 -0.1934  0.2867 -0.2371
  817TIP3    H124010   1.110   6.650   2.321 -0.2256  1.2556  0.0218
  817TIP3    H224011   1.074   6.649   2.174 -0.0727 -0.6293 -0.0328
  818TIP3   OH224012   0.309   3.180   0.227  0.0680 -0.0290  0.5073
  818TIP3    H124013   0.309   3.125   0.305  1.7088 -1.0744 -0.1750
  818TIP3    H224014   0.365   3.134   0.165  0.1578  1.6067 -0.7032
  819TIP3   OH224015   1.066   5.814   0.872  0.0715 -0.5036 -0.8710
  819TIP3    H124016   1.124   5.881   0.837  0.4913 -0.9116 -0.9714
  819TIP3    H224017   1.105   5.731   0.844 -0.3609 -0.7948 -0.6316
  820TIP3   OH224018   4.763   0.133   1.793 -0.2642 -0.5523 -0.3271
  820TIP3    H124019   4.761   0.194   1.720 -0.4123 -0.7104 -0.4558
  820TIP3    H224020   4.705   0.172   1.859 -0.9345 -0.9121 -0.6962
  821TIP3   OH224021   1.633   6.605   7.693 -0.2435 -0.1402  0.4338
  821TIP3    H124022   1.598   6.598   7.605  1.8654 -2.2902 -0.3289
  821TIP3    H224023   1.556   6.604   7.750 -1.6798  1.9412 -1.3242
  822TIP3   OH224024   4.514   6.666   2.281 -0.4431 -0.3709  0.6155
  822TIP3    H124025   4.498   6.746   2.332  1.4673  0.5578 -0.1640
  822TIP3    H224026   4.568   6.695   2.207 -1.1729 -2.1062 -0.6475
  823TIP3   OH224027   3.415   2.644   1.078 -1.0074  0.0762  0.1034
  823TIP3    H124028   3.377   2.702   1.144 -2.2387 -0.7893  0.2002
  823TIP3    H224029   3.340   2.614   1.027 -0.2009 -0.1889 -0.9473
  824TIP3   OH224030   6.271   2.727   1.406 -0.6858 -0.1608 -0.7639
  824TIP3    H124031   6.243   2.812   1.439 -2.6954 -0.8117 -0.6715
  824TIP3    H224032   6.192   2.672   1.410  0.6657 -2.1958 -0.2894
  825TIP3   OH224033   5.640   2.067   1.261 -0.0901 -0.6808  0.4571
  825TIP3    H124034   5.731   2.072   1.230 -0.1210  0.1794  0.4780
  825TIP3    H224035   5.612   2.159   1.268 -1.7619 -0.9128 -1.9437
  826TIP3   OH224036   3.335   1.163   2.838  0.5826  0.2834  0.1387
  826TIP3    H124037   3.350   1.161   2.743  0.7163 -1.3466  0.1734
  826TIP3    H224038   3.423   1.163   2.876  0.5232 -0.4407  0.2754
  827TIP3   OH224039   2.142   3.092   8.453 -0.0519 -0.5564 -0.1215
  827TIP3    H124040   2.083   3.032   8.407 -0.6344  0.4231 -0.6981
  827TIP3    H224041   2.084   3.143   8.510 -0.6094  3.4114 -3.7728
  828TIP3   OH224042   0.172   4.130   8.698  0.0069  0.1602 -0.6121
  828TIP3    H124043   0.180   4.166   8.609  2.6154  0.7336 -0.2222
  828TIP3    H224044   0.211   4.043   8.692  0.2220  0.2152 -0.0239
  829TIP3   OH224045   1.675   0.190   7.965  0.0665 -0.2039 -0.1939
  829TIP3    H124046   1.707   0.226   7.882  0.5280 -0.0602  0.0407
  829TIP3    H224047   1.594   0.145   7.942  0.9799 -1.4923 -0.9829
  830TIP3   OH224048   1.950   6.825   2.045 -0.7075  0.1419 -0.2873
  830TIP3    H124049   1.968   6.900   1.988  0.4748 -0.4592 -0.7516
  830TIP3    H224050   1.927   6.864   2.129 -0.1894  1.0378 -0.5428
  831TIP3   OH224051   6.525   3.706   1.240  0.3342 -0.0270 -0.4441
  831TIP3    H124052   6.484   3.676   1.159  0.5870  0.4406 -0.7524
  831TIP3    H224053   6.521   3.631   1.299 -0.1994 -0.2507 -0.7596
  832TIP3   OH224054   6.174   4.397   7.445 -0.0633  0.2518 -0.0338
  832TIP3    H124055   6.136   4.439   7.522 -0.9150 -0.1268 -0.2473
  832TIP3    H224056   6.162   4.304   7.459 -0.3546  0.1850 -0.6965
  833TIP3   OH224057   4.083   0.737   0.962  0.3396 -0.8180  0.0118
  833TIP3    H124058   3.989   0.752   0.976  0.4245 -0.5561  0.3146
  833TIP3    H224059   4.087   0.661   0.905 -0.1270  0.4228 -1.7588
  834TIP3   OH224060   4.568   1.162   0.094  0.3598 -0.1730 -0.3299
  834TIP3    H124061   4.640   1.101   0.111  0.4307  0.5889  2.6491
  834TIP3    H224062   4.489   1.113   0.119  0.2972  0.4755  0.7839
  835TIP3   OH224063   4.216   0.482   2.354 -0.0997  0.0556  0.3782
  835TIP3    H124064   4.198   0.572   2.382  0.7705  0.1979  0.5051
  835TIP3    H224065   4.166   0.427   2.414 -1.4764  0.4641 -0.3335
  836TIP3   OH224066   3.902   2.419   7.983 -0.1803  0.1886  0.4184
  836TIP3    H124067   3.913   2.438   8.076 -2.2068  0.5843  0.6108
  836TIP3    H224068   3.807   2.419   7.968  0.0530 -0.7251 -1.4767
  837TIP3   OH224069   3.204   1.626   7.592  0.2905 -0.7188 -0.2517
  837TIP3    H124070   3.233   1.632   7.501  0.1242  2.2186 -0.1894
  837TIP3    H224071   3.118   1.583   7.586 -1.1039  2.0558 -1.8941
  838TIP3   OH224072   0.562   5.624   7.844  0.7516  0.6335 -0.0349
  838TIP3    H124073   0.531   5.534   7.840 -1.0764  1.1756  0.9105
  838TIP3    H224074   0.537   5.661   7.760  2.1080  0.1185 -0.6985
  839TIP3   OH224075   4.785   2.345   3.156  0.2608  0.0817 -0.1330
  839TIP3    H124076   4.828   2.421   3.116 -0.5212  0.4061 -0.3720
  839TIP3    H224077   4.723   2.383   3.217  0.6155 -0.3978  0.5350
  840TIP3   OH224078   6.018   6.802   7.739 -0.4731  0.4909  0.9857
  840TIP3    H124079   6.028   6.897   7.743  0.5974  0.4188  0.5193
  840TIP3    H224080   5.927   6.788   7.713 -0.5302  1.3941  0.6600
  841TIP3   OH224081   2.972   1.679   8.564 -0.0722 -1.0229  0.2850
  841TIP3    H124082   3.060   1.658   8.534 -0.3142 -2.8992  0.7427
  841TIP3    H224083   2.914   1.630   8.504 -0.8130  0.0794  0.0643
  842TIP3   OH224084   2.740   2.779   8.124 -0.0473  0.0857 -0.4349
  842TIP3    H124085   2.667   2.819   8.076  0.8098 -0.2562 -2.0983
  842TIP3    H224086   2.787   2.728   8.058  0.3975 -1.5731  1.0795
  843TIP3   OH224087   4.096   2.633   0.331  0.1004  0.0162 -0.3060
  843TIP3    H124088   4.021   2.589   0.371  0.8250 -0.5770  0.4333
  843TIP3    H224089   4.061   2.717   0.300 -0.4361  0.6332  1.8096
  844TIP3   OH224090   6.791   3.739   1.264  0.1266  0.0652  0.0033
  844TIP3    H124091   6.827   3.715   1.179  0.4907 -1.5072  0.5682
  844TIP3    H224092   6.696   3.738   1.251  0.0961 -2.0463  0.0304
  845TIP3   OH224093   6.298   4.255   2.422  0.6508 -0.1345  0.0556
  845TIP3    H124094   6.238   4.273   2.350  0.2826 -1.9303 -0.1365
  845TIP3    H224095   6.278   4.322   2.487  0.6704  1.2331 -1.2870
  846TIP3   OH224096   6.003   2.402   1.967  0.6799  0.2365  0.9016
  846TIP3    H124097   6.026   2.365   2.052  0.1423 -0.3347  0.8055
  846TIP3    H224098   6.067   2.364   1.906  0.9479  0.4985  1.0216
  847TIP3   OH224099   5.917   0.521   8.552 -0.2313  0.0579 -0.0648
  847TIP3    H124100   6.005   0.484   8.545  0.6030  1.9948 -0.5210
  847TIP3    H224101   5.860   0.452   8.519  0.9911 -1.6071  1.1119
  848TIP3   OH224102   5.023   4.205   3.005  0.6250 -0.1554  0.1377
  848TIP3    H124103   4.995   4.114   2.989 -0.9376  0.6739 -2.4236
  848TIP3    H224104   4.942   4.252   3.022  1.0837  1.2658 -1.4148
  849TIP3   OH224105   3.150   0.090   8.311 -0.2860  0.0128 -0.0791
  849TIP3    H124106   3.122   0.179   8.332  2.0682  0.5363  1.1634
  849TIP3    H224107   3.184   0.095   8.222  1.6026  0.8783  0.6361
  850TIP3   OH224108   0.437   1.665   2.029 -0.5837 -0.1386  0.4535
  850TIP3    H124109   0.478   1.748   2.052  1.4190 -0.5492 -1.3911
  850TIP3    H224110   0.345   1.676   2.054 -0.4631  2.7478 -0.1038
  851TIP3   OH224111   3.947   1.787   2.693  0.1170  0.3688 -0.1005
  851TIP3    H124112   3.856   1.777   2.722  0.5646  0.3231  1.3659
  851TIP3    H224113   3.941   1.842   2.615 -1.0877  1.1451  0.5057
  852TIP3   OH224114   3.986   0.033   0.183 -0.0808  0.1146 -0.2863
  852TIP3    H124115   4.006  -0.057   0.211 -0.3355 -0.5394 -2.0243
  852TIP3    H224116   4.070   0.070   0.160  0.1900  0.8244  1.6771
  853TIP3   OH224117   2.505   0.564   8.079 -0.4591 -0.4907  0.2004
  853TIP3    H124118   2.444   0.587   8.010  0.2995  0.9875 -0.0248
  853TIP3    H224119   2.580   0.526   8.034 -0.0399  0.3084  0.1977
  854TIP3   OH224120   5.767   3.530   3.645  0.0593  0.0815 -0.1395
  854TIP3    H124121   5.838   3.526   3.581  0.5872  0.0776  0.4395
  854TIP3    H224122   5.711   3.455   3.623  1.2110 -1.0212  0.5121
  855TIP3   OH224123   1.096   1.394   7.860  0.4141 -0.0292 -0.2998
  855TIP3    H124124   1.066   1.461   7.798 -2.8964 -1.1958 -0.1653
  855TIP3    H224125   1.127   1.444   7.936  2.4233  1.3743 -1.9394
  856TIP3   OH224126   3.812   0.238   8.590  0.5409  0.1588 -0.1422
  856TIP3    H124127   3.763   0.158   8.610  0.8686 -0.1917 -0.7134
  856TIP3    H224128   3.813   0.286   8.672 -1.6692  0.6879 -0.3576
  857TIP3   OH224129   6.184   3.082   2.557  0.2232  0.3791 -0.1745
  857TIP3    H124130   6.230   3.001   2.577 -1.2349 -0.3695  0.3053
  857TIP3    H224131   6.097   3.070   2.595  0.5650  2.9745  1.7424
  858TIP3   OH224132   6.485   0.951   8.627  0.3884  0.4754  0.0415
  858TIP3    H124133   6.491   0.856   8.625  0.5490  0.4647  0.7191
  858TIP3    H224134   6.411   0.971   8.570  0.2345 -0.0701  0.0401
  859TIP3   OH224135   2.131   0.391   1.712 -0.1884 -0.5522 -0.2789
  859TIP3    H124136   2.194   0.455   1.679 -0.2166 -0.3520  0.0541
  859TIP3    H224137   2.076   0.370   1.636 -2.0686  2.0158  0.2417
  860TIP3   OH224138   0.153   5.740   0.571  0.5999 -0.2725  0.5210
  860TIP3    H124139   0.220   5.804   0.549 -1.3123  1.9018  0.6403
  860TIP3    H224140   0.196   5.682   0.635  1.9809  1.8778  1.6863
  861TIP3   OH224141   5.854   2.018   1.926 -0.0276 -0.5687  1.2267
  861TIP3    H124142   5.941   2.041   1.959  0.1953  1.6929 -0.6884
  861TIP3    H224143   5.843   1.925   1.950  2.9070 -0.9406  1.4933
  862TIP3   OH224144   3.492   3.477   0.712  0.5644  0.4418 -0.3371
  862TIP3    H124145   3.458   3.477   0.801 -0.2628 -0.6493 -0.6338
  862TIP3    H224146   3.580   3.440   0.719 -0.4853 -2.2728 -0.2741
  863TIP3   OH224147   6.777   0.782   0.055 -0.4385 -0.2886 -0.5623
  863TIP3    H124148   6.723   0.850   0.093  0.5375  0.0687  0.2339
  863TIP3    H224149   6.860   0.825   0.036  0.3812 -1.3563  0.4335
  864TIP3   OH224150   1.897   0.699   0.007  0.2466 -0.3205  0.2060
  864TIP3    H124151   1.826   0.708   0.070 -0.0319  0.5549 -0.2146
  864TIP3    H224152   1.977   0.709   0.059  0.1197 -1.9315  0.7900
  865TIP3   OH224153   0.497   5.583   2.107  0.0303  0.3910  0.1144
  865TIP3    H124154   0.536   5.535   2.180  0.7301  0.6354 -0.0928
  865TIP3    H224155   0.408   5.548   2.101  0.6477 -1.2316 -0.3122
  866TIP3   OH224156   6.606   3.403   8.650  1.0502 -0.2861 -0.0005
  866TIP3    H124157   6.692   3.362   8.645  2.0897  1.6278  1.0205
  866TIP3    H224158   6.611   3.477   8.590 -1.0239 -1.8758 -2.3373
  867TIP3   OH224159   6.664   1.881   2.595  0.1019 -0.1556 -0.4545
  867TIP3    H124160   6.733   1.889   2.662  0.0054 -0.1616 -0.3535
  867TIP3    H224161   6.711   1.862   2.514  0.3133  1.0106 -0.6243
  868TIP3   OH224162   2.057   1.267   0.406  0.0550 -0.2422 -0.0127
  868TIP3    H124163   2.020   1.353   0.424 -0.2489 -0.5478  0.8507
  868TIP3    H224164   2.141   1.285   0.363 -0.7294  0.4573 -1.2825
  869TIP3   OH224165   5.302   3.751   2.758 -0.0714  0.1350 -0.5566
  869TIP3    H124166   5.224   3.696   2.753  0.2850 -0.8396  2.5820
  869TIP3    H224167   5.285   3.822   2.696 -2.2294 -1.4661 -1.9307
  870TIP3   OH224168   3.382   2.222   2.555  0.2587  0.0439 -0.3964
  870TIP3    H124169   3.346   2.182   2.634 -0.4022 -0.0451 -0.7399
  870TIP3    H224170   3.422   2.149   2.508 -0.3430 -0.0975 -0.6907
  871TIP3   OH224171   4.670   5.049   1.111  0.2063  0.2156  0.2601
  871TIP3    H124172   4.664   5.127   1.056  1.7001  1.1386  1.3269
  871TIP3    H224173   4.646   5.079   1.199 -0.8196 -0.9224  0.3933
  872TIP3   OH224174   4.812   4.289   7.777 -0.1631  0.5868 -0.0078
  872TIP3    H124175   4.887   4.335   7.738  0.5327  0.9652  1.7064
  872TIP3    H224176   4.806   4.208   7.727  1.0048  0.8297 -0.5988
  873TIP3   OH224177   2.794   3.488   1.469  0.0258  0.2133  0.6031
  873TIP3    H124178   2.812   3.465   1.560 -1.6517 -2.0291  0.4449
  873TIP3    H224179   2.704   3.460   1.454  0.9657 -1.7218 -2.3861
  874TIP3   OH224180   5.471   6.106   7.929  0.2771 -0.0553  0.0708
  874TIP3    H124181   5.396   6.147   7.886 -1.0569  0.7502  2.9209
  874TIP3    H224182   5.440   6.017   7.950  0.2935  0.1033  0.7864
  875TIP3   OH224183   4.786   1.854   1.045  0.4070 -0.3096  0.6467
  875TIP3    H124184   4.692   1.833   1.049  0.6264 -1.4223  0.3307
  875TIP3    H224185   4.794   1.912   0.969  0.0930 -0.9069  0.1533
  876TIP3   OH224186   5.502   2.486   8.646  0.3700  0.3515  0.4636
  876TIP3    H124187   5.502   2.517   8.736 -1.5434 -0.1585  0.6902
  876TIP3    H224188   5.414   2.449   8.634 -1.1614  4.3519 -2.9684
  877TIP3   OH224189   5.179   4.216   0.020 -0.7179 -0.2230  0.3029
  877TIP3    H124190   5.234   4.292   0.001 -1.1654 -0.6775 -3.5662
  877TIP3    H224191   5.225   4.143  -0.022 -2.3939 -1.3012  0.2729
  878TIP3   OH224192   2.326   0.340   8.010  0.2177 -0.4069 -0.1031
  878TIP3    H124193   2.412   0.368   8.041  0.0622  0.0766 -0.1002
  878TIP3    H224194   2.322   0.371   7.920  0.5425 -1.5312 -0.5320
  879TIP3   OH224195   6.701   4.333   2.282  0.2770  0.3990 -0.0466
  879TIP3    H124196   6.631   4.310   2.221 -0.5563  1.0227  0.6324
  879TIP3    H224197   6.707   4.429   2.275 -1.7991  0.8777  2.8055
  880TIP3   OH224198   3.055   4.024   2.545 -0.5844 -0.7683 -0.4298
  880TIP3    H124199   2.971   4.046   2.585  0.2888  0.2309  0.9548
  880TIP3    H224200   3.120   4.070   2.598  0.7791 -0.6159 -2.1107
  881TIP3   OH224201   4.646   0.908   1.782 -0.0633 -0.0263  0.6900
  881TIP3    H124202   4.589   0.911   1.705 -0.7173 -0.5105  1.1511
  881TIP3    H224203   4.704   0.983   1.771 -0.6744  0.3768  0.1237
  882TIP3   OH224204   1.336   4.428   0.704 -0.1087 -0.1668  0.4610
  882TIP3    H124205   1.321   4.420   0.798  1.5385 -0.7778  0.7105
  882TIP3    H224206   1.430   4.415   0.694  0.1021  2.0348 -1.0660
  883TIP3   OH224207   5.890   1.737   1.945 -0.1139 -0.0304  0.0631
  883TIP3    H124208   5.938   1.692   2.015 -1.9351 -0.6608  0.9583
  883TIP3    H224209   5.891   1.675   1.872  0.0501 -0.2279  0.2314
  884TIP3   OH224210   6.822   2.646   7.074  0.2407 -0.4431 -0.4944
  884TIP3    H124211   6.822   2.623   7.166 -0.6994 -0.0952 -0.4015
  884TIP3    H224212   6.812   2.741   7.072  1.7840 -0.2519 -0.9308
  885TIP3   OH224213   1.593   0.708   7.046  0.3041 -0.6081  0.5807
  885TIP3    H124214   1.670   0.668   7.087  0.7851  1.5758  1.9145
  885TIP3    H224215   1.546   0.750   7.118 -1.1883 -0.3694 -0.4867
  886TIP3   OH224216   0.016   4.849   2.705  0.0060 -0.2301  0.4874
  886TIP3    H124217   0.073   4.772   2.705  0.7004  0.2606 -0.2718
  886TIP3    H224218   0.074   4.921   2.728 -0.7531  0.0091  1.7534
  887TIP3   OH224219   5.697   3.933   8.174 -0.4023 -0.3212 -0.0886
  887TIP3    H124220   5.672   3.972   8.258 -2.5282 -1.6323 -0.0435
  887TIP3    H224221   5.698   4.006   8.112  1.1385  0.6559  1.0170
  888TIP3   OH224222   2.976   2.488   0.800  0.0798 -0.2668 -0.0299
  888TIP3    H124223   3.048   2.517   0.743  0.6944  0.6524  1.1595
  888TIP3    H224224   2.939   2.569   0.835 -1.5994 -0.7279 -0.6473
  889TIP3   OH224225   0.583   2.804   1.021 -0.1691 -0.5025  1.1125
  889TIP3    H124226   0.530   2.729   0.995 -0.6348 -0.1988  1.1698
  889TIP3    H224227   0.555   2.874   0.962  0.2778 -0.3788  1.0439
  890TIP3   OH224228   3.210   0.082   1.973 -0.5080  0.0823  0.1545
  890TIP3    H124229   3.274   0.148   2.000 -0.7771  0.5086 -0.2191
  890TIP3    H224230   3.199   0.026   2.049 -0.3535  0.5390  0.5181
  891TIP3   OH224231   5.890   2.029   1.158  0.1910  0.1371 -0.4014
  891TIP3    H124232   5.957   2.097   1.151 -0.8809  1.1194 -1.6663
  891TIP3    H224233   5.932   1.959   1.208  1.8407  1.0913 -0.3762
  892TIP3   OH224234   3.255   3.500   0.889 -0.1950 -0.0298 -0.2182
  892TIP3    H124235   3.262   3.562   0.817 -0.5447 -0.0130 -0.2389
  892TIP3    H224236   3.189   3.538   0.947  0.9951  0.6145  0.7767
  893TIP3   OH224237   5.904   5.287   7.671  0.2280 -0.6596 -0.3985
  893TIP3    H124238   5.813   5.317   7.674  0.5069  0.2502 -0.6233
  893TIP3    H224239   5.938   5.321   7.589  1.0450 -0.1482  0.1287
  894TIP3   OH224240   3.608   4.509   1.060 -0.1580 -0.1131  0.2836
  894TIP3    H124241   3.654   4.560   1.126  0.3701 -2.1292  1.5434
  894TIP3    H224242   3.669   4.506   0.986 -0.4271  1.4818 -0.0499
  895TIP3   OH224243   4.022   3.961   0.584 -0.1983 -0.0248  0.1821
  895TIP3    H124244   4.032   3.870   0.558 -1.2568  0.5019 -2.3849
  895TIP3    H224245   3.938   3.964   0.630  0.4943 -0.5534  1.5130
  896TIP3   OH224246   0.438   0.071   2.628 -0.5178  0.2411  0.0916
  896TIP3    H124247   0.478  -0.015   2.633 -2.1612 -0.5421  0.4742
  896TIP3    H224248   0.407   0.088   2.717 -0.1914  1.2415  0.0273
  897TIP3   OH224249   4.738   2.427   2.651  0.5907  0.8696 -0.0035
  897TIP3    H124250   4.804   2.481   2.694  1.1303 -0.1715  0.5093
  897TIP3    H224251   4.788   2.369   2.594  0.0339  0.7614 -0.3921
  898TIP3   OH224252   5.579   6.605   0.970  0.3818  0.5746 -0.1287
  898TIP3    H124253   5.530   6.600   1.052 -1.0342  0.8347 -0.9289
  898TIP3    H224254   5.543   6.681   0.925  1.9444  1.1366 -0.5123
  899TIP3   OH224255   1.932   1.683   0.074 -0.7325 -0.5201 -0.3067
  899TIP3    H124256   1.949   1.639   0.157 -1.1346  2.1863  1.2867
  899TIP3    H224257   1.943   1.776   0.092 -2.2995  0.2847 -2.9174
  900TIP3   OH224258   6.131   1.435   2.598 -0.4630 -0.1032 -0.1556
  900TIP3    H124259   6.141   1.418   2.692  1.0659 -0.2713 -0.3245
  900TIP3    H224260   6.197   1.379   2.556 -1.9145 -0.9475 -1.4403
  901TIP3   OH224261   6.186   6.662   7.374  0.7180  0.0181 -0.0275
  901TIP3    H124262   6.237   6.727   7.327 -0.4432  0.7969 -0.2262
  901TIP3    H224263   6.218   6.578   7.340  0.9227  0.5251 -1.1324
  902TIP3   OH224264   3.914   6.718   1.943 -0.3371 -0.3232 -0.2561
  902TIP3    H124265   3.967   6.670   2.007  0.1058  0.3285 -0.1247
  902TIP3    H224266   3.823   6.695   1.965 -0.1477 -0.8184  0.0249
  903TIP3   OH224267   4.249   4.020   0.122  0.0947  0.7703 -0.3445
  903TIP3    H124268   4.231   3.944   0.066 -0.7709 -0.4761  1.5195
  903TIP3    H224269   4.200   4.092   0.082 -0.0774  0.0622 -1.4537
  904TIP3   OH224270   1.985   6.373   2.268  0.2478 -0.2420  0.4657
  904TIP3    H124271   1.978   6.304   2.202 -0.9211 -0.8752  1.2153
  904TIP3    H224272   1.956   6.331   2.349  1.7674  0.4890  1.4197
  905TIP3   OH224273   6.144   6.716   0.418  0.6891 -0.0705  0.4274
  905TIP3    H124274   6.213   6.778   0.394 -1.3240  1.7835 -0.9065
  905TIP3    H224275   6.123   6.669   0.337  0.0335 -0.2375  0.6813
  906TIP3   OH224276   2.171   1.296   2.538 -0.3346  0.2754  0.3443
  906TIP3    H124277   2.240   1.282   2.473  0.0172  0.5445  0.6573
  906TIP3    H224278   2.188   1.231   2.606  2.0989  2.8934  2.4657
  907TIP3   OH224279   6.756   1.183   1.607 -0.1144 -0.1267  0.3302
  907TIP3    H124280   6.829   1.198   1.667  0.9476  1.4929 -1.2336
  907TIP3    H224281   6.791   1.122   1.542  0.7836  2.3723 -1.7254
  908TIP3   OH224282   5.864   2.809   7.814 -0.2890  0.3052  0.1115
  908TIP3    H124283   5.931   2.812   7.882  0.9622  0.0707 -1.0719
  908TIP3    H224284   5.913   2.805   7.732 -1.7491 -1.1137 -0.7453
  909TIP3   OH224285   5.788   1.764   0.340 -0.2732 -0.5141 -0.3531
  909TIP3    H124286   5.870   1.809   0.362 -0.1915 -1.7915  2.4910
  909TIP3    H224287   5.804   1.724   0.255  1.8311 -0.1368 -0.1861
  910TIP3   OH224288   5.696   4.093   7.956 -0.4358  0.0805 -0.1566
  910TIP3    H124289   5.696   4.189   7.950 -2.6462  0.1237 -0.1967
  910TIP3    H224290   5.727   4.064   7.871 -2.7154  0.8024 -1.3189
  911TIP3   OH224291   2.070   2.684   2.277 -0.2040  0.7956 -0.2785
  911TIP3    H124292   2.101   2.772   2.255 -0.5996  0.8140 -0.7502
  911TIP3    H224293   2.031   2.650   2.197  1.4598 -0.4789 -0.6114
  912TIP3   OH224294   1.846   2.724   6.937 -0.4878 -0.2319 -0.3232
  912TIP3    H124295   1.857   2.702   7.029  1.1544  0.8892 -0.2029
  912TIP3    H224296   1.777   2.791   6.937  0.2900  0.6052  0.2595
  913TIP3   OH224297   2.576   6.221   8.397 -0.9507 -0.0482  0.0920
  913TIP3    H124298   2.553   6.233   8.304 -2.2287 -1.3302  0.2093
  913TIP3    H224299   2.666   6.253   8.403 -1.3272  1.4288 -1.2755
  914TIP3   OH224300   5.650   0.701   0.156 -0.0802  0.0363 -0.1445
  914TIP3    H124301   5.569   0.732   0.198  0.0202 -0.0423  0.1117
  914TIP3    H224302   5.638   0.607   0.148  1.3547 -0.5544  3.0401
  915TIP3   OH224303   3.441   6.795   8.088  0.3671 -0.0324  0.7354
  915TIP3    H124304   3.511   6.838   8.138  1.2488 -2.3177  1.6240
  915TIP3    H224305   3.487   6.742   8.023 -0.7045  0.9287 -0.8778
  916TIP3   OH224306   4.213   0.380   0.653  0.2134 -0.4568 -0.0233
  916TIP3    H124307   4.276   0.400   0.722 -0.4916  1.5972  0.1064
  916TIP3    H224308   4.254   0.415   0.573 -0.4404  0.2846 -0.0460
  917TIP3   OH224309   2.601   0.988   1.364  0.1816 -0.1632 -0.2957
  917TIP3    H124310   2.621   1.030   1.448  0.2656 -1.1962  0.2128
  917TIP3    H224311   2.658   0.911   1.361  0.0723 -0.2254 -1.2397
  918TIP3   OH224312   5.998   6.370   1.236 -0.1810 -0.0228 -0.4596
  918TIP3    H124313   6.048   6.449   1.255  0.3886 -0.8185  1.7064
  918TIP3    H224314   5.909   6.401   1.217  0.2991  1.1781 -0.8330
  919TIP3   OH224315   5.248   4.892   2.640  0.3805 -0.1524 -0.2041
  919TIP3    H124316   5.157   4.864   2.628  0.4814 -0.7078  0.2624
  919TIP3    H224317   5.292   4.868   2.559  0.3013 -0.6779 -0.0921
  920TIP3   OH224318   1.525   1.232   2.379  0.0590  0.1817 -0.2543
  920TIP3    H124319   1.464   1.243   2.306 -0.0224 -2.2917 -0.6450
  920TIP3    H224320   1.612   1.232   2.339  0.0161 -1.1358 -0.4045
  921TIP3   OH224321   4.686   6.777   2.506  0.2472 -0.6663 -0.5193
  921TIP3    H124322   4.646   6.847   2.557 -2.2032 -2.5281  0.3709
  921TIP3    H224323   4.705   6.817   2.421 -0.8456  1.1391  0.0232
  922TIP3   OH224324   6.602   5.402   2.097 -0.1758 -0.0158 -0.3106
  922TIP3    H124325   6.547   5.472   2.061 -0.3360  0.7153  1.2795
  922TIP3    H224326   6.540   5.341   2.138  0.0360 -0.5754 -0.8025
  923TIP3   OH224327   2.292   4.220   0.517 -0.6528  0.2124  0.0876
  923TIP3    H124328   2.336   4.293   0.473 -1.0960  0.1751 -0.4338
  923TIP3    H224329   2.302   4.238   0.610  1.1094 -0.1900  0.0011
  924TIP3   OH224330   3.442   6.219   7.445  1.1543 -0.0992 -0.4354
  924TIP3    H124331   3.443   6.123   7.452  0.4005 -0.0332  0.9200
  924TIP3    H224332   3.444   6.236   7.351 -3.1901 -1.5719 -1.0476
  925TIP3   OH224333   1.160   4.659   1.056 -0.1582 -0.5345  0.0623
  925TIP3    H124334   1.120   4.606   0.988  0.9551  0.6774 -1.6105
  925TIP3    H224335   1.253   4.637   1.054  1.3551  4.2117 -3.7896
  926TIP3   OH224336   5.650   0.702   1.845  0.8693 -0.1011  0.6742
  926TIP3    H124337   5.613   0.776   1.894 -0.4669  1.2400 -2.1276
  926TIP3    H224338   5.738   0.732   1.821  0.7544  0.0922  0.4973
  927TIP3   OH224339   5.995   0.296   7.720  0.3601 -0.1022  0.1697
  927TIP3    H124340   6.087   0.298   7.748 -0.3377  0.2919  2.7897
  927TIP3    H224341   5.964   0.385   7.739 -1.4607 -1.2271  3.1387
  928TIP3   OH224342   2.120   0.798   0.859  0.2693 -0.4245  0.4584
  928TIP3    H124343   2.075   0.853   0.923 -0.2811 -1.0713  0.6508
  928TIP3    H224344   2.050   0.748   0.817  0.5280  0.5762 -1.2625
  929TIP3   OH224345   0.435   2.344   8.397 -0.4704 -0.0024  0.0563
  929TIP3    H124346   0.488   2.410   8.353 -0.0343  0.9823  1.9442
  929TIP3    H224347   0.490   2.266   8.401 -0.3785  0.0172 -0.7731
  930TIP3   OH224348   1.487   4.174   0.181 -0.1780 -0.0236 -0.4881
  930TIP3    H124349   1.417   4.166   0.117 -0.8486 -0.8727  0.3244
  930TIP3    H224350   1.445   4.213   0.258  0.2680 -0.4228 -0.0331
  931TIP3   OH224351   2.601   1.910   8.278 -0.1867 -0.0688 -0.0121
  931TIP3    H124352   2.519   1.881   8.238  0.0192 -0.5902 -0.0647
  931TIP3    H224353   2.619   1.995   8.237  0.3738 -0.9039 -1.5727
  932TIP3   OH224354   1.788   5.549   0.206  0.0023  0.2996 -0.1810
  932TIP3    H124355   1.815   5.493   0.279 -0.0004  0.6270  0.0708
  932TIP3    H224356   1.692   5.545   0.207  0.0200 -0.5031 -0.7969
  933TIP3   OH224357   5.516   6.198   8.389  0.0326 -0.3299 -0.4049
  933TIP3    H124358   5.544   6.186   8.298  0.1903  0.9179 -0.5387
  933TIP3    H224359   5.537   6.115   8.431  0.3704 -0.7732 -1.4065
  934TIP3   OH224360   3.264   2.738   1.932 -0.3439 -0.1124  0.2740
  934TIP3    H124361   3.317   2.728   1.853 -0.3786  1.2520  0.0537
  934TIP3    H224362   3.174   2.733   1.901 -0.3576  0.4321  0.2148
  935TIP3   OH224363   4.333   2.457   0.506  0.0059  0.0523  0.0100
  935TIP3    H124364   4.421   2.491   0.493 -0.3072  0.5617 -0.8916
  935TIP3    H224365   4.282   2.532   0.538 -0.4086  0.1355 -0.8148
  936TIP3   OH224366   1.381   4.039   2.706  0.2468  0.3435 -0.5101
  936TIP3    H124367   1.325   4.034   2.629 -0.4483  0.2136 -0.0032
  936TIP3    H224368   1.391   4.132   2.724 -0.7907  0.3471  0.0983
  937TIP3   OH224369   0.251   1.089   1.449 -0.4657  0.1758  0.1313
  937TIP3    H124370   0.264   1.162   1.388 -2.1196 -0.1697 -0.6851
  937TIP3    H224371   0.305   1.019   1.414  1.6448  1.1185  1.2688
  938TIP3   OH224372   5.034   6.632   0.543  0.4534 -0.2304 -0.3502
  938TIP3    H124373   4.964   6.652   0.606 -1.3571 -0.8677 -2.0367
  938TIP3    H224374   5.107   6.603   0.598 -1.2125 -1.3171  1.4615
  939TIP3   OH224375   3.249   3.845   2.471 -0.6499  0.0570  0.3627
  939TIP3    H124376   3.186   3.917   2.474 -0.2434  0.4027  0.6555
  939TIP3    H224377   3.289   3.844   2.558  1.6838  1.5867 -0.5918
  940TIP3   OH224378   4.224   1.576   3.070 -0.5028  0.1516 -0.2832
  940TIP3    H124379   4.183   1.585   3.155 -0.2514  1.0354 -0.2450
  940TIP3    H224380   4.171   1.631   3.012 -1.1451 -1.0660 -0.8724
  941TIP3   OH224381   0.841   1.022   8.181  0.2987 -0.2682  0.1497
  941TIP3    H124382   0.900   0.948   8.197  0.8929  0.2574  0.4469
  941TIP3    H224383   0.898   1.091   8.149 -0.3479 -0.1330 -0.7647
  942TIP3   OH224384   0.755   0.827   7.256 -0.5629  0.0427 -0.5275
  942TIP3    H124385   0.815   0.849   7.185  0.5648  1.5991  0.8297
  942TIP3    H224386   0.691   0.768   7.217  2.5247 -2.7511 -1.7672
  943TIP3   OH224387   5.680   1.167   7.435 -0.0130 -0.3583  0.1634
  943TIP3    H124388   5.727   1.095   7.476  0.7932  0.8029  1.3529
  943TIP3    H224389   5.588   1.151   7.455  0.2087 -0.7820  0.8554
  944TIP3   OH224390   4.427   0.112   3.119 -0.1701 -0.0461 -0.4903
  944TIP3    H124391   4.501   0.107   3.180 -1.7709  1.4350  1.7904
  944TIP3    H224392   4.382   0.028   3.129 -0.0086 -0.0958 -0.1500
  945TIP3   OH224393   1.734   0.454   8.340 -0.2776  0.1246  0.3369
  945TIP3    H124394   1.789   0.407   8.403  1.9983  1.1692 -0.7437
  945TIP3    H224395   1.706   0.533   8.385  0.0248  0.1037  0.5616
  946TIP3   OH224396   1.709   4.747   8.108 -0.0107  0.1978 -0.7570
  946TIP3    H124397   1.636   4.726   8.050 -0.7458  1.0134 -0.1558
  946TIP3    H224398   1.688   4.834   8.143  2.1124  1.2649 -1.9203
  947TIP3   OH224399   6.807   2.458   2.539 -0.2116  0.8520  0.1553
  947TIP3    H124400   6.779   2.460   2.448  0.9995  1.1555 -0.2328
  947TIP3    H224401   6.862   2.535   2.549  0.1255  0.5208  0.9870
  948TIP3   OH224402   2.914   1.832   1.002 -0.0400  0.0609  0.4542
  948TIP3    H124403   2.952   1.904   1.052  0.1510 -0.1626  0.6300
  948TIP3    H224404   2.867   1.780   1.068 -0.5188  0.2437  0.2680
  949TIP3   OH224405   1.115   5.015   0.268 -0.2666  0.2026 -0.4270
  949TIP3    H124406   1.058   4.979   0.337 -0.0893 -0.5715 -0.6732
  949TIP3    H224407   1.130   4.942   0.209 -1.2918  1.1330 -1.9017
  950TIP3   OH224408   6.109   2.941   8.450 -0.1639 -0.4892  0.2276
  950TIP3    H124409   6.202   2.958   8.464 -0.4876  0.8629  0.9308
  950TIP3    H224410   6.101   2.926   8.355  0.8179 -1.1038  0.2249
  951TIP3   OH224411   6.667   4.831   0.233  0.0134  0.3747 -0.0858
  951TIP3    H124412   6.725   4.782   0.176  0.3026  0.8618 -0.2184
  951TIP3    H224413   6.616   4.886   0.174 -0.3925  0.1460  0.0508
  952TIP3   OH224414   1.214   4.349   3.093  0.0614 -0.6411  0.4392
  952TIP3    H124415   1.174   4.347   3.180 -1.0838  0.5563 -0.0150
  952TIP3    H224416   1.276   4.422   3.097  0.7168 -1.1962  0.5287
  953TIP3   OH224417   1.411   5.860   0.851 -0.4830 -0.5259  0.8301
  953TIP3    H124418   1.367   5.898   0.927 -2.1026 -0.0013 -0.3191
  953TIP3    H224419   1.350   5.874   0.778  1.2068 -0.5964 -0.6694
  954TIP3   OH224420   2.047   3.674   8.728  0.4838  0.0546 -0.0538
  954TIP3    H124421   2.082   3.585   8.721  1.1375  0.3234 -0.2609
  954TIP3    H224422   2.108   3.728   8.678 -0.9398  0.3656 -1.5156
  955TIP3   OH224423   1.854   5.378   0.416  0.2459 -0.4171 -0.4752
  955TIP3    H124424   1.842   5.416   0.503 -1.6921  0.5906 -1.1330
  955TIP3    H224425   1.805   5.296   0.418 -0.1017 -0.2191 -0.7087
  956TIP3   OH224426   6.426   2.353   2.894 -0.3568  0.2535  0.3102
  956TIP3    H124427   6.374   2.276   2.870 -1.1141  0.7754  0.2399
  956TIP3    H224428   6.501   2.351   2.835  0.2002 -1.0175  1.0239
  957TIP3   OH224429   2.200   1.000   7.569  0.3908  0.1450 -0.0976
  957TIP3    H124430   2.241   1.042   7.645 -0.0663 -0.5992  0.5823
  957TIP3    H224431   2.112   1.036   7.568  0.4528  0.2878 -0.3914
  958TIP3   OH224432   4.908   5.124   8.486 -0.0629 -0.3721  0.5079
  958TIP3    H124433   4.839   5.079   8.437 -0.3927 -1.8178  2.1841
  958TIP3    H224434   4.934   5.197   8.430 -1.4667 -1.0430 -1.1011
  959TIP3   OH224435   3.310   4.526   1.048 -0.6337 -0.6884  0.0773
  959TIP3    H124436   3.402   4.543   1.028  0.0722 -0.0084  3.3579
  959TIP3    H224437   3.300   4.553   1.139 -3.4012 -3.3132  0.7138
  960TIP3   OH224438   5.826   6.016   8.617 -0.1518  0.6155 -0.4134
  960TIP3    H124439   5.860   6.104   8.604 -1.2355  1.1253  0.0934
  960TIP3    H224440   5.857   5.967   8.541  3.2312  0.5287  0.8837
  961TIP3   OH224441   3.724   2.906   0.970 -0.6147  0.2002 -0.2789
  961TIP3    H124442   3.666   2.913   1.046 -1.6962  2.0398 -1.2008
  961TIP3    H224443   3.785   2.979   0.979  0.1170 -0.3689 -0.5075
  962TIP3   OH224444   4.255   3.501   7.228  0.1421  0.0897  0.6089
  962TIP3    H124445   4.350   3.500   7.236  0.3994 -0.2286 -1.7977
  962TIP3    H224446   4.234   3.421   7.181 -1.2872  0.3881  0.6896
  963TIP3   OH224447   0.005   6.374   1.614 -0.2192  0.0568  0.1157
  963TIP3    H124448   0.091   6.332   1.608  1.0928  2.3951  1.2755
  963TIP3    H224449  -0.032   6.339   1.696 -0.3134 -0.7950 -0.2771
  964TIP3   OH224450   0.690   4.964   0.641  0.4867  0.3187 -0.7544
  964TIP3    H124451   0.771   4.986   0.687  1.0195 -2.4536 -0.2185
  964TIP3    H224452   0.718   4.950   0.550  0.1380  1.6762 -1.1047
  965TIP3   OH224453   2.265   6.670   1.920  0.5351 -0.3396 -0.3680
  965TIP3    H124454   2.341   6.612   1.927 -0.1577 -1.2047  0.1661
  965TIP3    H224455   2.211   6.647   1.996 -0.2554  0.2753 -0.7368
  966TIP3   OH224456   0.659   5.185   2.061  0.0934  0.2152 -0.5295
  966TIP3    H124457   0.657   5.247   1.988  1.7542 -0.2824 -1.0391
  966TIP3    H224458   0.671   5.239   2.139  1.9164  0.5370 -1.0068
  967TIP3   OH224459   1.618   2.320   0.277  0.3934 -0.8735  0.0444
  967TIP3    H124460   1.581   2.232   0.274  1.9180 -1.6030  1.0662
  967TIP3    H224461   1.623   2.340   0.371 -0.9151  0.7724 -0.1837
  968TIP3   OH224462   5.098   1.595   1.391 -0.4571 -0.4054  0.4177
  968TIP3    H124463   5.175   1.652   1.395  0.2430 -1.2525 -0.4656
  968TIP3    H224464   5.051   1.612   1.473  0.6879  0.0999  0.9916
  969TIP3   OH224465   2.390   6.027   8.116 -0.4106 -0.0933 -0.3444
  969TIP3    H124466   2.339   6.051   8.193  0.2594  0.6297 -0.1117
  969TIP3    H224467   2.415   5.936   8.131  2.5369  0.9228  1.9691
  970TIP3   OH224468   0.146   3.535   1.761 -0.1468  0.4945 -0.1564
  970TIP3    H124469   0.057   3.549   1.790  0.6563  0.8561  2.3319
  970TIP3    H224470   0.143   3.547   1.666 -2.7591  0.1931 -0.1646
  971TIP3   OH224471   4.659   5.908   2.436  0.2983  0.4586 -0.2834
  971TIP3    H124472   4.626   5.835   2.383 -1.2464 -0.8625  2.2522
  971TIP3    H224473   4.601   5.981   2.414  0.0865  0.1274 -0.8585
  972TIP3   OH224474   2.579   0.324   2.463  0.5102  0.5561  0.3298
  972TIP3    H124475   2.558   0.386   2.533 -1.7659  2.0178 -1.4707
  972TIP3    H224476   2.670   0.343   2.441  0.5906  1.5883  1.4222
  973TIP3   OH224477   6.284   4.325   8.472  0.0934  0.3004  0.1619
  973TIP3    H124478   6.235   4.245   8.451 -1.1243  1.2813 -0.8727
  973TIP3    H224479   6.335   4.302   8.549 -1.5435 -0.9679  0.9264
  974TIP3   OH224480   1.476   6.577   7.449  1.3109  0.0796  0.4380
  974TIP3    H124481   1.473   6.482   7.446 -2.0661  0.0528  0.3247
  974TIP3    H224482   1.444   6.604   7.363 -1.9501  1.1199  1.8160
  975TIP3   OH224483   0.561   0.622   0.198  0.7574  0.1589  0.5542
  975TIP3    H124484   0.531   0.661   0.280  1.7740 -0.3825  1.2194
  975TIP3    H224485   0.542   0.688   0.131 -0.4230  0.4579  1.1630
  976TIP3   OH224486   2.030   1.257   7.608 -0.2898 -0.6252  0.0657
  976TIP3    H124487   1.983   1.183   7.646 -1.7781 -0.4811 -1.3541
  976TIP3    H224488   1.963   1.303   7.556  0.9796  0.7695 -0.3912
  977TIP3   OH224489   3.778   4.979   1.251 -0.2488 -0.0102 -0.2183
  977TIP3    H124490   3.832   4.991   1.329  0.3052  0.2457 -0.6266
  977TIP3    H224491   3.714   4.913   1.276 -1.1415  1.2523  0.9870
  978TIP3   OH224492   1.885   4.311   7.689  0.1126  0.1335 -0.2580
  978TIP3    H124493   1.886   4.391   7.742 -1.4828  0.2369 -0.3257
  978TIP3    H224494   1.900   4.342   7.600  1.6349  0.0879 -0.0474
  979TIP3   OH224495   4.123   5.719   1.029  0.5754  0.0317 -0.5865
  979TIP3    H124496   4.185   5.663   1.077  0.5933 -1.2371 -2.0072
  979TIP3    H224497   4.081   5.771   1.097  2.5195  0.2665  0.5365
  980TIP3   OH224498   2.385   5.788   0.256 -0.2655  0.3257 -0.0018
  980TIP3    H124499   2.334   5.790   0.337 -2.3625 -2.9649 -1.0468
  980TIP3    H224500   2.322   5.811   0.187  1.1493  1.8086 -0.8544
  981TIP3   OH224501   0.156   4.660   1.048  0.3624  0.1182  0.0203
  981TIP3    H124502   0.112   4.610   1.117 -2.0009  0.9029 -0.7871
  981TIP3    H224503   0.108   4.636   0.968 -0.1499  2.7528 -0.5671
  982TIP3   OH224504   2.131   0.173   1.029 -0.2794 -0.3912 -0.3969
  982TIP3    H124505   2.197   0.242   1.042 -0.8038 -0.2060  1.6221
  982TIP3    H224506   2.176   0.093   1.055 -0.2768 -0.5350 -0.8448
  983TIP3   OH224507   3.557   4.699   8.580 -0.7216 -0.3068 -0.1264
  983TIP3    H124508   3.551   4.618   8.530  1.4300 -0.4856 -0.1968
  983TIP3    H224509   3.636   4.688   8.634 -0.0803  1.9247 -0.5125
  984TIP3   OH224510   5.826   3.719   0.643 -0.0630 -0.1323  0.0769
  984TIP3    H124511   5.756   3.677   0.594  0.3987  0.5844 -1.2410
  984TIP3    H224512   5.810   3.813   0.631  0.6157  0.0398  0.4915
  985TIP3   OH224513   2.752   3.639   2.463 -0.1678  0.8474 -1.2290
  985TIP3    H124514   2.668   3.596   2.481  0.5195  0.2133  0.7620
  985TIP3    H224515   2.749   3.721   2.513  1.3163 -0.3674  1.0552
  986TIP3   OH224516   4.209   1.215   8.353  0.3617  0.2991 -0.2317
  986TIP3    H124517   4.280   1.158   8.322  0.3630  0.2563 -0.1514
  986TIP3    H224518   4.244   1.257   8.431  0.1799  0.0190  0.0045
  987TIP3   OH224519   0.191   6.790   0.545 -0.4516  0.5060  0.0248
  987TIP3    H124520   0.237   6.837   0.476  3.1428 -1.4892  0.8395
  987TIP3    H224521   0.183   6.700   0.513 -0.8454  0.0773  1.2523
  988TIP3   OH224522   4.578   6.434   2.095 -0.1862 -0.2283  0.0302
  988TIP3    H124523   4.640   6.478   2.036  2.4255 -1.7054  1.4574
  988TIP3    H224524   4.532   6.506   2.139 -0.3095  0.9223 -1.8785
  989TIP3   OH224525   0.255   5.236   7.424 -0.4466 -0.7808  0.0166
  989TIP3    H124526   0.328   5.296   7.434 -0.9445 -0.3417  1.0912
  989TIP3    H224527   0.267   5.199   7.336  1.6496 -1.5184  0.5444
  990TIP3   OH224528   0.525   1.666   1.740 -0.1307  0.1824 -0.2822
  990TIP3    H124529   0.452   1.643   1.799 -1.7984  2.3861 -1.3391
  990TIP3    H224530   0.517   1.761   1.728  1.4873  0.1277 -2.3384
  991TIP3   OH224531   0.273   0.353   0.521 -0.3685 -0.5746 -0.0773
  991TIP3    H124532   0.316   0.349   0.436 -2.7779 -2.4871 -1.3461
  991TIP3    H224533   0.184   0.321   0.504 -1.2374 -0.1011  2.9940
  992TIP3   OH224534   2.166   3.477   0.812 -0.3400 -0.1715  0.0748
  992TIP3    H124535   2.110   3.526   0.752 -1.6394 -0.0002  1.3634
  992TIP3    H224536   2.243   3.532   0.822 -0.6583  0.3961 -0.4599
  993TIP3   OH224537   1.662   0.795   8.182  0.0157  0.3343 -0.5844
  993TIP3    H124538   1.732   0.858   8.192  1.3568 -1.1978  0.2339
  993TIP3    H224539   1.582   0.843   8.203  0.8279  2.0724 -1.3648
  994TIP3   OH224540   1.739   3.239   2.427  0.1025  0.2596  0.0643
  994TIP3    H124541   1.705   3.285   2.350  0.2074  1.2130  0.5709
  994TIP3    H224542   1.680   3.264   2.497 -0.4048 -1.1490  0.1821
  995TIP3   OH224543   5.907   6.561   8.159  0.0992  0.0885  0.4395
  995TIP3    H124544   5.899   6.623   8.232  0.1379  1.6623 -0.8371
  995TIP3    H224545   5.836   6.498   8.173 -1.9269  2.1696  0.2066
  996TIP3   OH224546   2.592   2.831   7.598 -0.3543  0.0617  0.0965
  996TIP3    H124547   2.563   2.740   7.597 -2.2589  0.6183  0.3067
  996TIP3    H224548   2.674   2.830   7.648 -0.1964 -1.5655 -0.1644
  997TIP3   OH224549   6.254   3.102   8.247 -0.3816 -0.0797  0.2526
  997TIP3    H124550   6.295   3.186   8.224 -2.3946  0.7286 -0.7211
  997TIP3    H224551   6.310   3.036   8.207  1.5246  0.7247  1.4392
  998TIP3   OH224552   5.403   5.041   0.056  0.2400 -0.2775 -0.3594
  998TIP3    H124553   5.495   5.014   0.066 -0.0514 -0.8226  1.0451
  998TIP3    H224554   5.356   4.960   0.036 -0.3653 -0.6049  2.0633
  999TIP3   OH224555   6.816   2.009   7.473  0.2500  0.1504  0.1235
  999TIP3    H124556   6.805   2.082   7.411  1.0592  0.3322  0.1743
  999TIP3    H224557   6.894   1.963   7.441  1.1493  0.7054  1.4268
 1000TIP3   OH224558   1.529   3.611   2.835 -0.2335 -0.4549  0.6538
 1000TIP3    H124559   1.498   3.583   2.920 -0.1965  0.5254  1.0012
 1000TIP3    H224560   1.594   3.679   2.854  1.7133 -2.0184 -0.0566
 1001TIP3   OH224561   5.504   0.355   1.310  0.0620  0.4545  0.4225
 1001TIP3    H124562   5.547   0.369   1.394 -1.0770  4.0121  0.5662
 1001TIP3    H224563   5.545   0.418   1.251 -3.0172  2.1142 -0.1204
 1002TIP3   OH224564   6.664   2.404   8.042 -0.6926 -0.8234 -0.3979
 1002TIP3    H124565   6.709   2.350   8.108 -1.0932 -2.4712 -1.4308
 1002TIP3    H224566   6.733   2.429   7.981 -0.7457 -1.2816 -0.6439
 1003TIP3   OH224567   6.735   0.579   7.522 -0.4895  0.0548 -0.2340
 1003TIP3    H124568   6.733   0.527   7.441  0.0883 -0.2379 -0.0664
 1003TIP3    H224569   6.680   0.654   7.503  0.3449  0.4417 -1.2300
 1004TIP3   OH224570   6.539   3.244   7.650 -0.4101  0.7261  0.2092
 1004TIP3    H124571   6.594   3.167   7.641  2.4477  2.7408 -1.2554
 1004TIP3    H224572   6.505   3.239   7.740  1.6480 -1.0056  0.9790
 1005TIP3   OH224573   0.681   5.040   8.546  0.1282 -0.1692  0.3723
 1005TIP3    H124574   0.612   5.101   8.572  0.7197 -0.0354  1.7429
 1005TIP3    H224575   0.761   5.094   8.547  0.8791 -1.1699  2.9144
 1006TIP3   OH224576   2.953   6.582   7.716 -0.2245 -0.2366 -0.4274
 1006TIP3    H124577   3.040   6.542   7.726  0.7766  1.9575  0.2484
 1006TIP3    H224578   2.960   6.636   7.637 -0.8521  0.2309 -0.1723
 1007TIP3   OH224579   0.622   5.215   0.482  0.1206 -0.5913  0.1782
 1007TIP3    H124580   0.544   5.217   0.427  0.8607  4.3463 -1.1696
 1007TIP3    H224581   0.589   5.215   0.572 -1.3904 -0.1488 -0.3574
 1008TIP3   OH224582   3.369   2.696   8.442 -0.5660  0.5013 -0.0352
 1008TIP3    H124583   3.288   2.727   8.483 -0.3563 -1.1071  1.7724
 1008TIP3    H224584   3.387   2.613   8.486  0.3291 -0.8226 -2.6880
 1009TIP3   OH224585   4.836   5.676   1.715 -0.1133  0.3198  0.4211
 1009TIP3    H124586   4.896   5.751   1.714 -0.6842  0.7927  0.5984
 1009TIP3    H224587   4.768   5.701   1.779  0.5273 -1.0293  1.6836
 1010TIP3   OH224588   5.935   6.401   2.078  0.4315  0.4290 -0.0203
 1010TIP3    H124589   5.890   6.477   2.115 -0.3263 -0.5066  1.0700
 1010TIP3    H224590   5.987   6.367   2.152  1.0413  0.0997 -0.5943
 1011TIP3   OH224591   0.999   6.151   7.980  0.6769  0.1442  0.1975
 1011TIP3    H124592   1.080   6.201   7.986  1.6078 -1.3941  1.0345
 1011TIP3    H224593   0.937   6.198   8.035  1.0062  1.2678 -0.3603
 1012TIP3   OH224594   2.598   1.932   2.672  0.2935  0.5444  0.3321
 1012TIP3    H124595   2.547   1.971   2.601 -0.0532  1.1290  0.9028
 1012TIP3    H224596   2.676   1.987   2.678 -0.6949  1.8399  1.8573
 1013TIP3   OH224597   3.223   3.909   0.501  0.5314  0.3302  0.0329
 1013TIP3    H124598   3.288   3.880   0.565 -1.4946  0.1853  2.1808
 1013TIP3    H224599   3.210   3.834   0.444  0.5713 -0.4835  1.0635
 1014TIP3   OH224600   5.047   1.511   3.497  0.1218 -0.2109  0.2411
 1014TIP3    H124601   4.991   1.461   3.556  0.2198  0.4514  0.9137
 1014TIP3    H224602   4.997   1.592   3.481  0.9943  0.5147  1.0767
 1015TIP3   OH224603   4.628   0.592   7.879  0.4202 -0.0467  0.0885
 1015TIP3    H124604   4.608   0.608   7.787  0.7442  0.9695  0.1787
 1015TIP3    H224605   4.556   0.537   7.910 -0.2126  0.4111 -0.5308
 1016TIP3   OH224606   5.006   2.062   3.217  0.1856  0.5422 -0.0129
 1016TIP3    H124607   4.983   2.108   3.298  0.1962 -3.1062  2.2791
 1016TIP3    H224608   5.089   2.101   3.189 -0.5971  2.9360  0.7864
 1017TIP3   OH224609   6.050   3.354   2.713  0.1867  0.2848  0.5212
 1017TIP3    H124610   6.044   3.346   2.808  0.2011 -0.9018  0.4356
 1017TIP3    H224611   6.000   3.279   2.680 -0.0328  0.8302 -0.4108
 1018TIP3   OH224612   3.045   5.769   1.800 -0.0580  0.1593  0.5202
 1018TIP3    H124613   2.977   5.728   1.746  0.9235 -0.3004 -0.4222
 1018TIP3    H224614   3.103   5.697   1.823 -1.2468  0.0506  3.5514
 1019TIP3   OH224615   2.727   1.035   8.157  0.3186 -0.0163  0.4171
 1019TIP3    H124616   2.796   1.078   8.207 -1.1104  0.9200  1.6608
 1019TIP3    H224617   2.765   0.950   8.133  0.7000 -1.1457  4.2643
 1020TIP3   OH224618   6.485   5.836   2.493  0.1402  0.1522 -0.4054
 1020TIP3    H124619   6.538   5.869   2.420  3.1206 -1.6482  0.7761
 1020TIP3    H224620   6.442   5.759   2.457  1.7319 -0.8274 -0.2953
 1021TIP3   OH224621   3.609   4.060   8.541  0.5552  0.0696 -0.3063
 1021TIP3    H124622   3.550   4.101   8.477  0.3106 -1.0428 -0.8348
 1021TIP3    H224623   3.582   3.968   8.541  3.7715 -1.0394 -2.3569
 1022TIP3   OH224624   0.345   2.775   8.361  0.5643 -0.5919 -0.2718
 1022TIP3    H124625   0.385   2.847   8.409 -0.0986  0.6747 -1.5356
 1022TIP3    H224626   0.416   2.713   8.347  1.1484 -0.2064  0.8602
 1023TIP3   OH224627   5.300   2.820   0.179 -0.0606  0.0001 -0.1377
 1023TIP3    H124628   5.393   2.842   0.176 -0.1400  0.2845 -0.8246
 1023TIP3    H224629   5.280   2.807   0.272  0.2059  1.9036  0.2313
 1024TIP3   OH224630   5.775   3.877   0.988  0.1613 -0.3573 -0.6470
 1024TIP3    H124631   5.751   3.916   0.903 -1.5336 -0.5738 -0.3003
 1024TIP3    H224632   5.729   3.793   0.989 -0.6911  0.0981  0.9074
 1025TIP3   OH224633   2.986   2.537   0.376 -0.3632 -0.1132  0.0544
 1025TIP3    H124634   3.003   2.617   0.327 -0.8047 -0.6945 -1.0813
 1025TIP3    H224635   2.914   2.560   0.435  1.3817  1.1227  1.8466
 1026TIP3   OH224636   5.613   1.971   7.921  0.7710 -0.2888  0.2785
 1026TIP3    H124637   5.664   1.904   7.875  1.6866  0.7364 -0.2516
 1026TIP3    H224638   5.547   1.999   7.857 -1.0772 -2.1911  1.2333
 1027TIP3   OH224639   6.253   0.191   0.700  0.1381 -0.1150 -0.8200
 1027TIP3    H124640   6.343   0.163   0.681  0.0606 -0.7633 -0.2769
 1027TIP3    H224641   6.235   0.154   0.787  0.1535  1.9509  0.1203
 1028TIP3   OH224642   2.515   3.279   7.894 -0.4422 -0.1373 -0.1135
 1028TIP3    H124643   2.495   3.324   7.812 -1.1011  0.7804  0.5352
 1028TIP3    H224644   2.493   3.187   7.876 -0.0718 -0.0483 -1.1193
 1029TIP3   OH224645   6.256   2.231   0.023  0.2638  0.3446 -0.5583
 1029TIP3    H124646   6.333   2.287   0.013  0.0366  0.5825 -1.0089
 1029TIP3    H224647   6.186   2.278  -0.024  0.7011 -1.5653 -3.3627
 1030TIP3   OH224648   2.201   3.804   2.196  0.4056 -0.7868 -0.3057
 1030TIP3    H124649   2.174   3.863   2.266  0.1795  0.0105 -1.0401
 1030TIP3    H224650   2.260   3.742   2.237 -1.2190 -1.5468  1.0035
 1031TIP3   OH224651   5.248   2.087   7.463  0.1608 -0.0638 -0.4136
 1031TIP3    H124652   5.310   2.084   7.389  0.2661 -0.7320 -0.3018
 1031TIP3    H224653   5.208   2.001   7.464  0.2735 -0.1100  0.4125
 1032TIP3   OH224654   6.512   5.789   0.718 -0.4261  0.1260 -0.1554
 1032TIP3    H124655   6.489   5.707   0.762 -2.2846  1.0675  0.7440
 1032TIP3    H224656   6.604   5.804   0.742  0.3499 -2.2484 -1.3304
 1033TIP3   OH224657   5.974   4.765   3.015 -0.4775 -0.3625 -0.0946
 1033TIP3    H124658   6.039   4.703   3.047 -0.3276  1.0700  2.6031
 1033TIP3    H224659   5.896   4.711   2.999  0.1143 -1.4875  0.6565
 1034TIP3   OH224660   6.565   4.073   2.769  0.2081  1.0581 -0.3186
 1034TIP3    H124661   6.565   4.129   2.691  0.9610  2.6133  0.7474
 1034TIP3    H224662   6.604   4.127   2.837 -0.4380 -0.2592  1.1570
 1035TIP3   OH224663   1.325   0.594   2.226 -0.1079 -0.4049 -0.0473
 1035TIP3    H124664   1.377   0.670   2.256  0.9453 -1.1826  0.1619
 1035TIP3    H224665   1.234   0.624   2.230  0.3045  0.9679 -0.3123
 1036TIP3   OH224666   6.494   0.853   1.428 -0.3994  0.3268  0.2141
 1036TIP3    H124667   6.403   0.834   1.404 -0.5251 -0.3925  1.1998
 1036TIP3    H224668   6.489   0.933   1.480 -0.6668 -0.4657  1.4566
 1037TIP3   OH224669   6.480   0.228   1.268  0.4020 -0.2009 -0.3288
 1037TIP3    H124670   6.506   0.315   1.238 -0.1797  0.0560 -0.1019
 1037TIP3    H224671   6.557   0.173   1.252  0.8218  0.3819 -0.3471
 1038TIP3   OH224672   2.818   6.054   2.662 -0.1748  0.1371  0.5420
 1038TIP3    H124673   2.767   6.107   2.724  1.4810  2.0839  0.3590
 1038TIP3    H224674   2.875   6.001   2.718 -2.0186 -1.7919  0.7356
 1039TIP3   OH224675   2.482   5.422   1.582  0.0525  0.1256  0.3383
 1039TIP3    H124676   2.560   5.383   1.542 -0.9280 -0.2137 -1.3664
 1039TIP3    H224677   2.516   5.478   1.651  1.7163 -1.0771  0.5691
 1040TIP3   OH224678   3.277   4.614   0.138  0.2502 -0.5435 -0.3281
 1040TIP3    H124679   3.275   4.707   0.162  0.5367 -0.2581 -1.3445
 1040TIP3    H224680   3.193   4.598   0.096  0.7901 -0.3207 -1.5600
 1041TIP3   OH224681   2.796   2.909   2.345 -0.3784  0.5831 -0.2516
 1041TIP3    H124682   2.766   2.996   2.370 -1.4414  0.9292 -2.4736
 1041TIP3    H224683   2.891   2.918   2.336 -0.2118  0.9340  1.4965
 1042TIP3   OH224684   2.840   1.921   0.739  0.4839  0.3368  0.3989
 1042TIP3    H124685   2.926   1.961   0.746  1.3195 -1.2304 -0.2940
 1042TIP3    H224686   2.850   1.834   0.779 -0.9449  0.3532  0.8717
 1043TIP3   OH224687   6.408   0.480   1.698  0.1412  0.2773  0.1450
 1043TIP3    H124688   6.474   0.505   1.763  1.3208 -1.3445 -0.3509
 1043TIP3    H224689   6.445   0.511   1.615  0.5513 -1.0385 -0.1927
 1044TIP3   OH224690   1.659   2.400   8.704  0.3230  0.1328  0.1499
 1044TIP3    H124691   1.645   2.315   8.747 -0.4405  0.8127  1.3292
 1044TIP3    H224692   1.663   2.380   8.611  0.6462 -1.2537  0.4380
 1045TIP3   OH224693   6.514   5.946   1.205  0.2181 -0.0452  0.3867
 1045TIP3    H124694   6.501   5.866   1.153 -1.0662  0.5434 -0.2332
 1045TIP3    H224695   6.427   5.966   1.240  0.4675  1.2498  0.2917
 1046TIP3   OH224696   5.606   4.787   1.000  1.0202  0.4753  0.0431
 1046TIP3    H124697   5.584   4.879   1.013  0.3775  0.2334  0.7628
 1046TIP3    H224698   5.532   4.752   0.949  2.0115  0.6945 -1.6284
 1047TIP3   OH224699   3.169   2.058   8.517 -0.7191 -0.1224 -0.0915
 1047TIP3    H124700   3.144   2.012   8.437 -0.7944  1.6859 -1.1447
 1047TIP3    H224701   3.188   2.148   8.489  0.8657  0.1568  1.6519
 1048TIP3   OH224702   6.281   1.713   1.182  0.0141 -0.0658  0.8974
 1048TIP3    H124703   6.300   1.627   1.219  0.1869 -0.2883  0.2934
 1048TIP3    H224704   6.342   1.772   1.226 -0.4676 -0.1520  1.7101
 1049TIP3   OH224705   4.867   4.187   1.150  0.0781 -0.9338 -0.0186
 1049TIP3    H124706   4.881   4.277   1.179 -0.5381  0.1264 -2.7008
 1049TIP3    H224707   4.948   4.163   1.105 -0.7550 -0.6025 -1.7867
 1050TIP3   OH224708   5.312   1.757   1.431  0.5436  0.0236  0.4608
 1050TIP3    H124709   5.395   1.741   1.386  1.0719  0.7135  1.1591
 1050TIP3    H224710   5.292   1.849   1.412 -0.3107 -0.2747 -0.0970
 1051TIP3   OH224711   0.989   5.515   7.459  0.1320  0.4505 -0.6779
 1051TIP3    H124712   0.966   5.606   7.441  0.5792  0.5712 -0.6529
 1051TIP3    H224713   1.083   5.517   7.477  0.0589  0.0514 -0.2210
 1052TIP3   OH224714   5.934   0.986   2.567  0.3061 -0.3386  0.1924
 1052TIP3    H124715   5.934   0.894   2.594 -0.9258 -0.8290 -1.3300
 1052TIP3    H224716   5.888   0.986   2.483  1.1161  1.5508 -0.2909
 1053TIP3   OH224717   5.284   1.826   3.036 -0.6531  0.2424  0.2296
 1053TIP3    H124718   5.359   1.789   3.083  0.9312  1.5627 -1.1141
 1053TIP3    H224719   5.282   1.779   2.952  0.4462  2.0406 -0.8703
 1054TIP3   OH224720   2.136   0.364   8.697 -0.1745 -0.4232 -0.4844
 1054TIP3    H124721   2.168   0.450   8.673 -1.2593  0.0499 -0.2832
 1054TIP3    H224722   2.157   0.308   8.622  2.1281 -0.4372  0.0781
 1055TIP3   OH224723   4.704   1.790   2.622 -0.0817 -0.0017  0.1917
 1055TIP3    H124724   4.635   1.766   2.683 -0.6260  0.3812 -0.2541
 1055TIP3    H224725   4.668   1.865   2.573  0.3737 -0.2311 -0.5183
 1056TIP3   OH224726   0.275   2.901   8.126 -0.3943 -0.1784 -0.2003
 1056TIP3    H124727   0.266   2.832   8.191 -0.4080 -0.6483 -0.6957
 1056TIP3    H224728   0.349   2.953   8.156 -0.5492 -0.2538  0.3149
 1057TIP3   OH224729   6.010   1.024   1.372  0.2003 -0.2220  0.5488
 1057TIP3    H124730   5.975   1.044   1.459 -1.1539 -1.5772  0.3634
 1057TIP3    H224731   5.963   0.945   1.345  0.6067  0.1453 -1.4077
 1058TIP3   OH224732   4.556   6.746   1.776 -0.1566 -0.1965 -0.5609
 1058TIP3    H124733   4.482   6.757   1.715  0.4378 -1.0503 -1.4780
 1058TIP3    H224734   4.608   6.825   1.765 -1.0978  0.5580  0.3317
 1059TIP3   OH224735   4.163   1.588   0.610 -0.2788  0.4683 -0.4365
 1059TIP3    H124736   4.077   1.600   0.651  0.3110  0.3821  0.8937
 1059TIP3    H224737   4.183   1.674   0.572 -0.5485  0.7694  0.0784
 1060TIP3   OH224738   6.567   6.094   1.625 -0.9811  0.0607  0.0457
 1060TIP3    H124739   6.637   6.040   1.662 -1.4450 -1.2841 -0.9335
 1060TIP3    H224740   6.509   6.111   1.699 -1.0914 -1.2452  0.2869
 1061TIP3   OH224741   1.003   0.397   2.409 -0.2862 -0.0945  0.1919
 1061TIP3    H124742   1.034   0.414   2.320 -0.7171 -0.1973  0.0200
 1061TIP3    H224743   0.964   0.310   2.405  2.4593 -1.4716  1.2202
 1062TIP3   OH224744   3.106   5.142   1.706 -0.0503  0.1718 -0.7404
 1062TIP3    H124745   3.084   5.235   1.703 -0.2505  0.1103 -1.3119
 1062TIP3    H224746   3.112   5.121   1.799 -1.1660  0.4823 -0.5891
 1063TIP3   OH224747   1.764   0.395   0.586  0.4874  0.2440 -0.0439
 1063TIP3    H124748   1.731   0.460   0.524  0.4819 -0.3374 -0.6644
 1063TIP3    H224749   1.852   0.374   0.554  0.9759  0.8389  0.8600
 1064TIP3   OH224750   5.536   5.297   0.829  1.0928  0.0933 -0.1506
 1064TIP3    H124751   5.624   5.334   0.825  0.8487  0.5750 -2.1928
 1064TIP3    H224752   5.479   5.369   0.802  0.3508 -0.9635 -1.5565
 1065TIP3   OH224753   3.805   2.060   0.864 -0.0274  0.1163  0.5747
 1065TIP3    H124754   3.755   1.986   0.830  1.0746 -0.5568  0.3670
 1065TIP3    H224755   3.811   2.045   0.958  0.6626 -0.3706  0.4622
 1066TIP3   OH224756   3.525   5.524   2.128  0.2948 -0.1931  0.3048
 1066TIP3    H124757   3.542   5.562   2.042 -1.8815 -1.8767 -0.9769
 1066TIP3    H224758   3.595   5.461   2.141  0.4049 -0.2335 -0.4404
 1067TIP3   OH224759   5.085   1.366   7.946 -0.1127  0.3375  0.7929
 1067TIP3    H124760   5.111   1.327   7.862 -0.9862 -0.2067  0.7572
 1067TIP3    H224761   5.035   1.297   7.989 -0.9557  1.1261  1.1046
 1068TIP3   OH224762   2.889   0.363   3.156 -0.0058 -0.1110 -0.1094
 1068TIP3    H124763   2.965   0.330   3.108  2.1208  0.1825  2.8090
 1068TIP3    H224764   2.886   0.456   3.135  0.6847 -0.0479  0.0427
 1069TIP3   OH224765   5.604   1.065   8.141 -0.2207 -0.6026  0.1804
 1069TIP3    H124766   5.649   1.148   8.128 -0.3360 -0.8206 -1.8736
 1069TIP3    H224767   5.643   1.029   8.221 -0.6848  1.7143  1.5569
 1070TIP3   OH224768   5.397   4.849   2.410  0.2055 -0.0025 -0.5892
 1070TIP3    H124769   5.425   4.767   2.368 -1.3400 -2.8035  3.3397
 1070TIP3    H224770   5.329   4.884   2.352  0.3956 -1.8491 -2.0121
 1071TIP3   OH224771   5.128   2.490   2.344 -0.2758 -0.5487  0.3772
 1071TIP3    H124772   5.169   2.556   2.288 -1.5119  0.0015  0.0790
 1071TIP3    H224773   5.185   2.414   2.338  0.0474 -0.2183 -0.9928
 1072TIP3   OH224774   0.271   5.775   7.762  0.7362  0.6212 -0.4195
 1072TIP3    H124775   0.219   5.695   7.773  0.5234  0.6645 -1.0580
 1072TIP3    H224776   0.339   5.751   7.699  1.9356  0.3696  0.9141
 1073TIP3   OH224777   1.099   0.966   3.206 -0.4601 -0.3535 -0.8472
 1073TIP3    H124778   1.027   1.020   3.173  0.3685  1.1892 -0.2357
 1073TIP3    H224779   1.061   0.917   3.279 -0.5519  1.7765  0.6475
 1074TIP3   OH224780   4.105   4.355   1.380  0.5470 -0.3995  0.1183
 1074TIP3    H124781   4.140   4.444   1.381  1.2766 -0.6690 -0.2577
 1074TIP3    H224782   4.023   4.361   1.428 -1.0684  1.1276 -2.5922
 1075TIP3   OH224783   0.400   2.316   1.231 -0.1445  0.2053 -0.5179
 1075TIP3    H124784   0.328   2.356   1.183 -1.3487  0.5695  1.4921
 1075TIP3    H224785   0.432   2.385   1.289  0.5147 -0.5363  0.0297
 1076TIP3   OH224786   0.959   2.131   1.100 -0.0979  0.8056  0.2503
 1076TIP3    H124787   0.896   2.201   1.115 -3.2205 -1.7774  0.2191
 1076TIP3    H224788   0.982   2.101   1.188 -0.6055  0.3351  0.2205
 1077TIP3   OH224789   5.325   1.410   1.564  0.4748  0.4252 -0.2018
 1077TIP3    H124790   5.356   1.481   1.507  0.2301  2.2440  1.7924
 1077TIP3    H224791   5.380   1.417   1.642 -1.1905  0.0270  1.0580
 1078TIP3   OH224792   2.600   1.361   0.635  0.2854  0.2057  0.5881
 1078TIP3    H124793   2.548   1.319   0.566 -0.6472  1.8314  0.2606
 1078TIP3    H224794   2.574   1.316   0.715 -0.4972 -0.0317  0.2110
 1079TIP3   OH224795   1.049   2.110   8.063  0.5912  0.0253  0.1162
 1079TIP3    H124796   1.006   2.152   8.138  0.3441 -0.5134  0.2799
 1079TIP3    H224797   0.988   2.121   7.990  0.7663  0.4198  0.0268
 1080TIP3   OH224798   5.444   0.837   8.155  0.2352 -0.6859  0.3481
 1080TIP3    H124799   5.454   0.802   8.243 -0.1005 -0.4067  0.5008
 1080TIP3    H224800   5.519   0.896   8.144  0.4339 -0.9398  0.3394
 1081TIP3   OH224801   6.366   2.556   2.167 -0.1124 -0.4272 -0.1246
 1081TIP3    H124802   6.347   2.562   2.260 -0.5382 -1.3169 -0.1471
 1081TIP3    H224803   6.461   2.568   2.161 -0.1652  0.3281  0.3438
 1082TIP3   OH224804   5.967   6.152   1.427  0.0502  0.4200  0.3099
 1082TIP3    H124805   5.996   6.208   1.354 -0.3432  0.4561  0.1791
 1082TIP3    H224806   5.920   6.212   1.485 -0.9095  0.1214 -0.1310
 1083TIP3   OH224807   3.075   4.379   8.121  0.2600  0.3712 -0.1992
 1083TIP3    H124808   3.078   4.341   8.033  0.6001 -1.7235  0.6540
 1083TIP3    H224809   3.025   4.460   8.110 -3.1673 -1.7282 -1.6815
 1084TIP3   OH224810   3.449   0.754   0.927  0.5647  0.0007  0.0701
 1084TIP3    H124811   3.480   0.666   0.906  0.8762  0.8137 -3.4828
 1084TIP3    H224812   3.527   0.809   0.924  0.1261  0.6650  0.5054
 1085TIP3   OH224813   5.182   1.642   8.681  0.1094 -0.6170  0.3482
 1085TIP3    H124814   5.246   1.576   8.656 -1.1210 -2.0800  0.8103
 1085TIP3    H224815   5.201   1.718   8.627  1.3120 -1.5126 -0.5260
 1086TIP3   OH224816   0.703   0.820   1.301  0.5767 -0.4729  0.1960
 1086TIP3    H124817   0.767   0.817   1.372  1.0511 -1.2007 -0.2441
 1086TIP3    H224818   0.753   0.852   1.225  0.2006 -0.1982  0.0581
 1087TIP3   OH224819   0.390   3.916   0.101 -0.5052 -0.0312 -0.6570
 1087TIP3    H124820   0.352   3.966   0.173 -0.9147 -0.6382 -0.4422
 1087TIP3    H224821   0.400   3.827   0.135  1.4158  0.1664 -0.6167
 1088TIP3   OH224822   6.646   4.721   2.552 -0.2014  0.3682 -0.2995
 1088TIP3    H124823   6.607   4.677   2.627 -1.3239  1.6752 -0.0595
 1088TIP3    H224824   6.716   4.775   2.589 -0.3451  0.5336 -0.2641
 1089TIP3   OH224825   1.402   1.429   2.071  0.7365 -0.2224  0.0596
 1089TIP3    H124826   1.369   1.402   2.157 -1.3313 -2.2120 -1.2469
 1089TIP3    H224827   1.350   1.506   2.048  1.7625  0.7308  0.8179
 1090TIP3   OH224828   0.013   5.745   8.142  0.5121 -0.0846 -0.6191
 1090TIP3    H124829   0.075   5.794   8.087  1.2321  1.0417  1.0992
 1090TIP3    H224830   0.026   5.654   8.116  1.1252  0.3644 -2.0048
 1091TIP3   OH224831   3.488   2.806   2.437  1.0186 -0.1778  0.4392
 1091TIP3    H124832   3.467   2.739   2.372  1.3097 -0.9161  1.0944
 1091TIP3    H224833   3.436   2.882   2.411  2.7659  0.3139 -1.9482
 1092TIP3   OH224834   2.196   0.094   0.052  0.1544  0.2709  0.0975
 1092TIP3    H124835   2.168   0.185   0.061  0.0084  0.3165 -0.7027
 1092TIP3    H224836   2.272   0.099  -0.006 -0.3398 -0.1893 -0.6048
 1093TIP3   OH224837   2.130   6.339   7.969  0.2626 -0.5771 -0.3430
 1093TIP3    H124838   2.221   6.352   7.997 -0.2201  1.8104  0.3820
 1093TIP3    H224839   2.134   6.341   7.873  1.0751 -1.4159 -0.3360
 1094TIP3   OH224840   5.822   6.539   7.046 -0.0660  0.0754  0.3663
 1094TIP3    H124841   5.788   6.617   7.089  0.4956  0.5433 -0.0339
 1094TIP3    H224842   5.893   6.509   7.103 -0.8606 -0.6690  0.9901
 1095TIP3   OH224843   2.481   5.673   2.238  0.7954  0.0231 -0.2184
 1095TIP3    H124844   2.479   5.725   2.318  1.6105 -1.5832  0.9011
 1095TIP3    H224845   2.424   5.598   2.256  1.4872 -0.6896 -0.9026
 1096TIP3   OH224846   5.236   0.260   2.150 -0.5787  0.3670 -0.3775
 1096TIP3    H124847   5.297   0.203   2.102 -1.6353 -0.0634 -1.2414
 1096TIP3    H224848   5.161   0.270   2.091 -0.6274  2.2932 -0.0648
 1097TIP3   OH224849   0.000   6.474   2.745  0.2975  0.1572  0.6336
 1097TIP3    H124850   0.019   6.535   2.673  0.0940 -0.6080 -0.0836
 1097TIP3    H224851  -0.095   6.466   2.745  0.2867  0.2637  1.0874
 1098TIP3   OH224852   4.187   5.053   1.157  0.5552 -0.0777 -0.2538
 1098TIP3    H124853   4.154   5.143   1.165  1.8748  0.3524  0.5440
 1098TIP3    H224854   4.113   5.004   1.121 -0.5975  1.0698  0.4637
 1099TIP3   OH224855   0.690   6.015   1.035  0.4721  0.0684 -0.2938
 1099TIP3    H124856   0.742   6.072   0.978 -1.5493  0.7515 -1.5994
 1099TIP3    H224857   0.674   5.937   0.982  2.1170 -1.1984  0.9990
 1100TIP3   OH224858   0.369   2.126   0.255  0.1334 -0.3172 -0.1309
 1100TIP3    H124859   0.417   2.196   0.211 -1.2771 -0.1084 -1.4379
 1100TIP3    H224860   0.399   2.046   0.212  0.2259 -0.3068 -0.0853
 1101TIP3   OH224861   4.443   1.075   8.357  0.0381  0.1872 -0.5203
 1101TIP3    H124862   4.504   1.112   8.421 -0.2383  1.1249 -0.7776
 1101TIP3    H224863   4.424   0.987   8.389  3.1088 -0.9684 -1.5103
 1102TIP3   OH224864   6.084   5.744   0.876  0.4091  0.2373  0.3096
 1102TIP3    H124865   5.993   5.750   0.905 -0.0366 -1.7991 -0.5127
 1102TIP3    H224866   6.088   5.795   0.795 -0.3245 -0.6143 -0.2838
 1103TIP3   OH224867   4.750   5.430   2.966  0.4759  0.5807  0.0400
 1103TIP3    H124868   4.660   5.434   2.935 -0.2422 -0.7516  1.7443
 1103TIP3    H224869   4.758   5.342   3.005  2.6938  0.4435 -0.5902
 1104TIP3   OH224870   4.542   2.537   0.151  0.5135  0.0944  0.5729
 1104TIP3    H124871   4.463   2.484   0.165  0.3158  0.5359  1.1587
 1104TIP3    H224872   4.520   2.594   0.077  0.7261 -0.6210 -0.0610
 1105TIP3   OH224873   6.265   3.486   1.594 -0.0068 -0.3924  0.2273
 1105TIP3    H124874   6.227   3.542   1.662 -1.1359  0.1607 -0.8062
 1105TIP3    H224875   6.300   3.411   1.641  2.3506  1.5370  1.7593
 1106TIP3   OH224876   0.985   1.436   8.183 -0.7954  0.0593  0.0091
 1106TIP3    H124877   0.965   1.364   8.123  0.2983 -0.3333  0.0966
 1106TIP3    H224878   0.954   1.406   8.268 -2.6000  0.7270 -0.3758
 1107TIP3   OH224879   4.061   0.893   1.678  0.2381  0.3120 -0.5279
 1107TIP3    H124880   4.047   0.829   1.747 -1.7252 -1.3785 -2.3606
 1107TIP3    H224881   3.976   0.936   1.667 -0.0354 -0.6626 -2.9516
 1108TIP3   OH224882   1.540   1.901   2.385 -0.5565 -0.6057 -0.5394
 1108TIP3    H124883   1.488   1.857   2.318 -0.0321  1.1234 -2.1843
 1108TIP3    H224884   1.510   1.992   2.383  2.0513  0.3383 -1.1400
 1109TIP3   OH224885   6.466   6.381   1.690 -0.0270  0.3329  0.6274
 1109TIP3    H124886   6.550   6.422   1.711 -0.3021  0.5687  1.2924
 1109TIP3    H224887   6.402   6.427   1.745 -0.5012 -0.2748  0.5960
 1110TIP3   OH224888   3.658   3.870   1.942 -0.6719  0.4107 -1.6149
 1110TIP3    H124889   3.565   3.875   1.967 -0.5065 -1.2260 -0.5744
 1110TIP3    H224890   3.684   3.962   1.931 -1.7104  1.0596  0.7482
 1111TIP3   OH224891   6.185   4.105   8.374 -0.7396  0.0017  0.1098
 1111TIP3    H124892   6.132   4.097   8.295  1.0473 -0.2540 -1.1290
 1111TIP3    H224893   6.220   4.017   8.389 -0.5715  0.1821  0.8330
 1112TIP3   OH224894   2.964   1.325   2.683  0.2098  0.4632  0.8664
 1112TIP3    H124895   2.993   1.278   2.762 -2.0804 -0.7945  1.0474
 1112TIP3    H224896   2.888   1.375   2.712  0.1942  1.1028 -0.2531
 1113TIP3   OH224897   6.509   6.817   8.148 -0.0845 -0.1527 -0.1725
 1113TIP3    H124898   6.565   6.825   8.071  0.8957 -3.4325  0.0240
 1113TIP3    H224899   6.420   6.824   8.114  0.3583 -0.7361 -1.5046
 1114TIP3   OH224900   4.932   4.934   1.095 -0.1104  0.2689 -0.2447
 1114TIP3    H124901   4.988   4.980   1.158  0.8220  0.3263 -1.0902
 1114TIP3    H224902   4.853   4.988   1.091  0.3429  0.9690 -0.0710
 1115TIP3   OH224903   3.783   6.262   0.094 -0.3908  0.0815 -0.1746
 1115TIP3    H124904   3.825   6.194   0.146 -1.5390 -0.6380 -0.1700
 1115TIP3    H224905   3.800   6.236   0.003  1.8896  1.5051 -0.2427
 1116TIP3   OH224906   2.144   2.359   2.042 -0.4626 -0.2303  0.1827
 1116TIP3    H124907   2.162   2.266   2.027  1.5590 -0.0819  1.2584
 1116TIP3    H224908   2.172   2.403   1.962  4.1919 -0.0707  1.5813
 1117TIP3   OH224909   5.971   0.945   1.025 -0.1222 -0.3547  0.1992
 1117TIP3    H124910   6.018   1.025   1.049 -0.7982  0.2318 -0.3876
 1117TIP3    H224911   6.041   0.881   1.011  0.4234  0.0890  0.8148
 1118TIP3   OH224912   5.089   3.476   2.928 -0.9742 -0.3337  0.3547
 1118TIP3    H124913   5.089   3.505   2.837 -1.9312 -0.1280  0.4120
 1118TIP3    H224914   5.090   3.557   2.979 -0.0304 -0.4489  0.5425
 1119TIP3   OH224915   1.818   5.392   8.523 -0.3085 -0.1829  0.1255
 1119TIP3    H124916   1.750   5.436   8.473  0.8406  0.5961 -0.8081
 1119TIP3    H224917   1.770   5.338   8.586 -1.7752  1.2059  0.2718
 1120TIP3   OH224918   0.814   1.314   1.693 -0.2503 -0.2582 -0.2555
 1120TIP3    H124919   0.831   1.402   1.725 -1.6222 -0.8924  2.4841
 1120TIP3    H224920   0.900   1.281   1.667  0.8139  0.7833  1.7454
 1121TIP3   OH224921   4.063   6.303   1.542  0.9539  0.7086 -0.1285
 1121TIP3    H124922   4.004   6.345   1.605  1.3214 -0.2909  0.9287
 1121TIP3    H224923   4.141   6.281   1.593  1.0051 -0.6946 -0.7681
 1122TIP3   OH224924   5.621   5.713   1.785 -0.2587  0.1581  0.2585
 1122TIP3    H124925   5.537   5.754   1.802  0.0132  0.5379  0.7014
 1122TIP3    H224926   5.669   5.775   1.730 -0.1757  0.0425  0.1968
 1123TIP3   OH224927   0.589   1.183   8.562 -0.7229 -0.1196 -0.0312
 1123TIP3    H124928   0.518   1.123   8.540 -0.7228 -0.1267 -0.0126
 1123TIP3    H224929   0.666   1.145   8.520 -1.1607  1.1981 -2.1905
 1124TIP3   OH224930   3.856   4.268   0.288 -0.3302 -0.2576  0.1888
 1124TIP3    H124931   3.790   4.229   0.231 -1.6952  0.8812  0.9228
 1124TIP3    H224932   3.848   4.362   0.273  0.4803 -0.0427  1.0003
 1125TIP3   OH224933   2.365   0.724   2.841  0.2157 -0.1627 -0.0435
 1125TIP3    H124934   2.361   0.754   2.932  2.0696  0.5580 -0.1452
 1125TIP3    H224935   2.301   0.653   2.836 -0.1576  0.0017  1.7367
 1126TIP3   OH224936   1.932   2.371   1.425  0.0421 -0.2697  0.1558
 1126TIP3    H124937   1.842   2.341   1.437 -0.0488 -0.5224 -1.0419
 1126TIP3    H224938   1.934   2.457   1.468  0.0681 -1.4887  2.8300
 1127TIP3   OH224939   2.180   4.072   0.983 -0.0278  0.4193  0.2489
 1127TIP3    H124940   2.225   3.990   0.960  0.5665  0.7222  0.3002
 1127TIP3    H224941   2.102   4.044   1.030 -1.1774 -0.2204 -1.8987
 1128TIP3   OH224942   1.639   5.317   2.542  0.3896  0.1358  0.1909
 1128TIP3    H124943   1.726   5.316   2.503 -0.4035  0.2436 -1.6766
 1128TIP3    H224944   1.623   5.226   2.569  0.6520 -0.1224 -0.4991
 1129TIP3   OH224945   1.126   6.547   0.810 -0.2531 -0.3964 -0.0768
 1129TIP3    H124946   1.068   6.515   0.880 -0.1712 -0.3610  0.0082
 1129TIP3    H224947   1.084   6.518   0.729 -0.7860  0.2738 -0.0471
 1130TIP3   OH224948   5.923   3.090   2.674 -0.0115 -0.0606 -0.2841
 1130TIP3    H124949   5.941   3.016   2.732 -1.6628 -0.5259 -0.3103
 1130TIP3    H224950   5.871   3.053   2.603  0.4434  0.8441 -1.1138
 1131TIP3   OH224951   4.239   5.612   1.591  0.0943 -0.1839  0.0426
 1131TIP3    H124952   4.182   5.570   1.655  1.2353 -2.4180 -0.2917
 1131TIP3    H224953   4.320   5.630   1.639 -0.2143  1.2647  0.0509
 1132TIP3   OH224954   6.711   4.543   2.947 -0.0769 -0.3184  0.4730
 1132TIP3    H124955   6.652   4.536   2.872  0.5598 -0.8090  0.0081
 1132TIP3    H224956   6.793   4.574   2.910  0.5049 -1.3773  0.8158
 1133TIP3   OH224957   6.168   6.428   0.904 -0.5362 -0.1503 -0.0867
 1133TIP3    H124958   6.146   6.450   0.995 -0.0416  2.6890 -0.5695
 1133TIP3    H224959   6.263   6.413   0.905 -0.5418 -0.1892 -0.1289
 1134TIP3   OH224960   3.726   3.020   8.232 -0.1258 -0.4352 -0.0664
 1134TIP3    H124961   3.756   3.075   8.304  3.4783 -2.4598  0.1763
 1134TIP3    H224962   3.675   2.951   8.274  0.3474 -0.5560  0.3096
 1135TIP3   OH224963   2.229   1.489   0.589 -0.0634 -0.0997 -0.2504
 1135TIP3    H124964   2.279   1.560   0.628  1.3355 -1.5762  0.7808
 1135TIP3    H224965   2.187   1.445   0.664 -1.8947  0.3069 -0.9750
 1136TIP3   OH224966   3.871   0.515   2.208 -0.0921  0.1633  0.4958
 1136TIP3    H124967   3.931   0.536   2.137  1.1831 -2.4311  0.6945
 1136TIP3    H224968   3.799   0.578   2.199  0.3306  0.3355 -2.6634
 1137TIP3   OH224969   6.420   4.687   7.927 -0.1973 -0.3456  0.3793
 1137TIP3    H124970   6.483   4.756   7.910  1.0245 -1.3514  0.6544
 1137TIP3    H224971   6.346   4.707   7.870  0.4336  0.7804 -0.0662
 1138TIP3   OH224972   0.989   5.880   2.484  0.2720 -0.2081 -0.0442
 1138TIP3    H124973   0.938   5.922   2.553 -2.6322  1.6421 -3.0435
 1138TIP3    H224974   1.072   5.928   2.482  0.1597  0.1221  1.6069
 1139TIP3   OH224975   2.848   6.116   1.631 -0.1176 -0.5095 -0.6704
 1139TIP3    H124976   2.907   6.090   1.702 -0.5474  1.2537  0.4071
 1139TIP3    H224977   2.901   6.174   1.576 -0.2140 -0.6961 -0.9627
 1140TIP3   OH224978   5.319   2.717   0.425  0.2843  0.2811  0.1930
 1140TIP3    H124979   5.260   2.685   0.494  2.6071 -1.7014  1.4199
 1140TIP3    H224980   5.403   2.730   0.470  0.8781  3.0332 -1.4650
 1141TIP3   OH224981   6.565   5.105   7.822 -0.1218 -0.4978  0.0888
 1141TIP3    H124982   6.597   5.019   7.794  0.4881  0.2243 -1.5379
 1141TIP3    H224983   6.634   5.139   7.880  0.5136 -0.3492 -0.7399
 1142TIP3   OH224984   0.718   6.494   0.531  0.1869  0.0166 -0.5100
 1142TIP3    H124985   0.678   6.407   0.532 -1.4222  0.6687  1.8255
 1142TIP3    H224986   0.751   6.504   0.442 -2.8226 -1.5779 -1.9770
 1143TIP3   OH224987   3.880   0.775   2.417 -0.8451 -0.0565  0.1879
 1143TIP3    H124988   3.800   0.768   2.365  1.0280 -1.6409 -2.7943
 1143TIP3    H224989   3.882   0.695   2.469 -0.5768 -0.6796 -0.7602
 1144TIP3   OH224990   4.793   1.962   1.307  0.2307  0.0937 -0.0707
 1144TIP3    H124991   4.725   1.925   1.363  2.4138 -0.4851  2.4087
 1144TIP3    H224992   4.776   1.924   1.221 -2.4301 -0.1455  0.4704
 1145TIP3   OH224993   5.224   1.132   2.103 -0.1218  0.2141 -0.0937
 1145TIP3    H124994   5.294   1.169   2.155 -2.0840  1.6792  1.6671
 1145TIP3    H224995   5.209   1.045   2.140  1.5484 -0.6764 -1.3529
 1146TIP3   OH224996   5.749   0.391   8.345  0.3635 -0.1047  0.2206
 1146TIP3    H124997   5.730   0.482   8.323  1.8926 -0.1297 -1.4498
 1146TIP3    H224998   5.835   0.374   8.305  1.1340 -1.6388  2.3426
 1147TIP3   OH224999   5.985   4.702   2.207  0.1957  0.0838 -0.0788
 1147TIP3    H125000   6.059   4.743   2.251  0.6491 -0.6869 -0.1151
 1147TIP3    H225001   5.975   4.752   2.126 -0.6985  1.5751  0.8799
 1148TIP3   OH225002   3.615   6.626   0.723  0.4990  0.0398 -0.8165
 1148TIP3    H125003   3.634   6.689   0.654 -0.5706  3.4675  1.7642
 1148TIP3    H225004   3.701   6.608   0.762  0.7329  0.4959 -1.1057
 1149TIP3   OH225005   5.091   1.346   1.707 -0.2175  0.5626  0.1308
 1149TIP3    H125006   5.177   1.369   1.670 -0.1110  1.2418  0.7761
 1149TIP3    H225007   5.108   1.266   1.757 -0.2112  0.0515 -0.6529
 1150TIP3   OH225008   2.725   0.748   1.448  0.4979  0.3253  0.2382
 1150TIP3    H125009   2.801   0.800   1.418  0.4583  0.2914  0.0797
 1150TIP3    H225010   2.762   0.663   1.471  0.6676  0.6316  1.1259
 1151TIP3   OH225011   2.289   5.083   7.824  0.2037  0.2059 -0.3774
 1151TIP3    H125012   2.202   5.113   7.799 -0.6150 -0.8592  0.9851
 1151TIP3    H225013   2.325   5.044   7.744 -1.2928 -0.8841 -0.5687
 1152TIP3   OH225014   1.915   0.815   1.594  0.4622 -0.0662 -0.1935
 1152TIP3    H125015   1.978   0.749   1.623 -0.5991  0.6830  4.6702
 1152TIP3    H225016   1.881   0.781   1.512  2.0998 -4.0741  0.5510
 1153TIP3   OH225017   5.714   4.954   1.412  0.5481 -0.2477  0.6016
 1153TIP3    H125018   5.746   5.011   1.342 -1.6516 -0.6911 -0.8535
 1153TIP3    H225019   5.623   4.981   1.425  0.1555 -1.9001  1.4679
 1154TIP3   OH225020   0.033   2.030   6.921  0.0822 -0.0096  0.1097
 1154TIP3    H125021  -0.037   2.053   6.861  0.1506 -0.2205 -0.0527
 1154TIP3    H225022   0.034   1.934   6.921  0.2703 -0.0087  0.2270
 1155TIP3   OH225023   6.266   1.390   7.631 -0.7034  0.6215  0.0409
 1155TIP3    H125024   6.250   1.482   7.613 -0.5169  1.0358  1.7819
 1155TIP3    H225025   6.195   1.364   7.689 -0.6869 -0.3060 -0.3362
 1156TIP3   OH225026   5.793   0.653   0.773  0.0212 -0.1488 -0.5890
 1156TIP3    H125027   5.844   0.641   0.693 -0.5433 -0.0441 -0.9717
 1156TIP3    H225028   5.729   0.721   0.751 -0.1301 -0.1077 -0.0426
 1157TIP3   OH225029   6.371   6.744   2.390  0.0744 -0.7882  0.4706
 1157TIP3    H125030   6.278   6.722   2.399 -0.5471  0.9644 -0.8549
 1157TIP3    H225031   6.397   6.703   2.308 -0.1739  0.4576 -0.2714
 1158TIP3   OH225032   5.326   3.334   0.109  0.3677  0.4314  0.0477
 1158TIP3    H125033   5.343   3.373   0.194  2.6071  2.8019 -1.3565
 1158TIP3    H225034   5.312   3.408   0.050 -0.3118 -1.0950 -1.8295
 1159TIP3   OH225035   0.450   0.136   6.997 -0.2676  0.3446  0.5768
 1159TIP3    H125036   0.417   0.064   7.051  0.0108 -0.9796 -0.9325
 1159TIP3    H225037   0.546   0.127   7.003 -0.2222  1.0386  0.9348
 1160TIP3   OH225038   3.815   3.328   7.306  0.1133 -0.0691  0.3887
 1160TIP3    H125039   3.742   3.374   7.264  1.1913  0.5471 -0.8707
 1160TIP3    H225040   3.806   3.350   7.399 -2.1202 -1.1784  0.5209
 1161TIP3   OH225041   1.654   6.238   8.160  0.0234 -0.0015  0.0627
 1161TIP3    H125042   1.610   6.153   8.159  0.6226 -0.3390 -2.0636
 1161TIP3    H225043   1.747   6.217   8.165  0.1274  0.5764  0.6302
 1162TIP3   OH225044   0.867   5.208   7.551 -0.7532  0.1490  0.2065
 1162TIP3    H125045   0.886   5.118   7.580 -0.9069  1.0943  3.6126
 1162TIP3    H225046   0.941   5.259   7.582 -0.9441  1.3265 -1.2005
 1163TIP3   OH225047   5.264   2.297   1.230  0.6334  0.0335 -0.3493
 1163TIP3    H125048   5.258   2.378   1.281 -2.3617 -0.0703 -0.3494
 1163TIP3    H225049   5.246   2.228   1.294 -0.6920 -0.2923 -1.0522
 1164TIP3   OH225050   5.366   1.205   1.404  0.2548 -0.0783 -0.1855
 1164TIP3    H125051   5.348   1.282   1.458 -2.4209  0.4309 -1.6068
 1164TIP3    H225052   5.413   1.145   1.462 -0.4555  1.3305  1.9694
 1165TIP3   OH225053   6.295   6.399   7.312 -0.8017  0.2642 -0.1945
 1165TIP3    H125054   6.335   6.423   7.395 -2.4771  0.9490  0.4487
 1165TIP3    H225055   6.336   6.315   7.289  0.0835  0.3396  1.0282
 1166TIP3   OH225056   0.325   6.793   2.352 -0.2778 -0.2144 -0.3934
 1166TIP3    H125057   0.376   6.756   2.280  1.4095 -0.7903  1.0275
 1166TIP3    H225058   0.366   6.759   2.431 -0.8723  1.9039  0.9220
 1167TIP3   OH225059   5.640   6.126   8.167  0.4860 -0.3869 -0.1734
 1167TIP3    H125060   5.732   6.151   8.162  0.8907 -1.7179  0.2454
 1167TIP3    H225061   5.616   6.107   8.076  0.8342 -0.7338 -0.1959
 1168TIP3   OH225062   5.660   3.455   8.318  0.4483  0.8014 -0.3420
 1168TIP3    H125063   5.670   3.519   8.388  0.5874 -0.8915  1.2687
 1168TIP3    H225064   5.567   3.458   8.296  0.3173  1.0571  0.2276
 1169TIP3   OH225065   0.428   5.107   0.346  0.1073  0.3225 -0.0690
 1169TIP3    H125066   0.362   5.129   0.281 -0.1323 -0.4735 -0.1107
 1169TIP3    H225067   0.401   5.021   0.380  1.5986 -0.4461 -0.7310
 1170TIP3   OH225068   0.527   4.324   2.761 -0.9005  0.0742 -0.0481
 1170TIP3    H125069   0.478   4.380   2.822  1.1845  0.4932  1.3469
 1170TIP3    H225070   0.616   4.358   2.765  0.0492 -2.2414 -0.5483
 1171TIP3   OH225071   2.748   3.711   1.751 -0.2968  0.0633 -0.6524
 1171TIP3    H125072   2.787   3.770   1.686  0.0051  0.1107 -0.4322
 1171TIP3    H225073   2.693   3.652   1.701  1.9557 -1.6252 -1.3094
 1172TIP3   OH225074   3.758   2.322   2.463  0.1938  0.4505  0.2086
 1172TIP3    H125075   3.707   2.271   2.401  0.7042 -0.8463  0.8021
 1172TIP3    H225076   3.848   2.317   2.430  0.3325  0.4795  0.5707
 1173TIP3   OH225077   3.114   1.204   7.626 -0.4932  0.2649  0.2289
 1173TIP3    H125078   3.202   1.167   7.631 -0.0812  1.1574 -0.2820
 1173TIP3    H225079   3.058   1.131   7.598  0.5339  0.3492 -2.2490
 1174TIP3   OH225080   3.988   3.446   0.231 -0.5803 -0.2376  0.1057
 1174TIP3    H125081   4.014   3.506   0.161 -1.2220  0.7612  0.6967
 1174TIP3    H225082   4.070   3.424   0.276 -0.1126 -1.1996 -1.1777
 1175TIP3   OH225083   4.218   2.862   8.541 -0.0720  0.4688 -0.1228
 1175TIP3    H125084   4.189   2.786   8.592  0.6789 -0.7583 -1.4711
 1175TIP3    H225085   4.150   2.875   8.475 -0.3558  1.1903  0.2983
 1176TIP3   OH225086   2.613   2.612   8.292 -0.2306 -0.4704 -0.0964
 1176TIP3    H125087   2.532   2.655   8.320 -0.5746 -0.7374 -0.6900
 1176TIP3    H225088   2.659   2.679   8.241 -0.9904 -0.9442 -1.4370
 1177TIP3   OH225089   4.692   4.746   8.443 -0.3026  0.2328  0.5035
 1177TIP3    H125090   4.777   4.713   8.471 -0.0779 -0.9914 -1.4189
 1177TIP3    H225091   4.663   4.804   8.514  1.7037 -0.0377  1.5941
 1178TIP3   OH225092   1.852   1.271   0.771  0.2142 -0.2800  0.4319
 1178TIP3    H125093   1.814   1.315   0.847 -0.9710 -0.0449 -0.2599
 1178TIP3    H225094   1.777   1.227   0.730  0.2906  1.5430 -1.9083
 1179TIP3   OH225095   2.361   3.670   8.307 -0.3984  0.2414  0.7567
 1179TIP3    H125096   2.456   3.670   8.319 -0.6083  2.5109  3.4304
 1179TIP3    H225097   2.331   3.592   8.354  0.1250 -1.0812 -0.9842
 1180TIP3   OH225098   2.619   5.703   8.661  0.6055 -0.0764 -0.5840
 1180TIP3    H125099   2.617   5.778   8.601  1.5161 -0.2653 -0.8538
 1180TIP3    H225100   2.671   5.733   8.735  1.4294 -0.6256 -0.9381
 1181TIP3   OH225101   3.189   0.879   0.377 -0.2858 -0.4439  0.0054
 1181TIP3    H125102   3.101   0.885   0.414 -0.2555  0.8000 -0.0616
 1181TIP3    H225103   3.246   0.906   0.449  0.0802 -1.6208  0.1666
 1182TIP3   OH225104   6.694   2.862   1.071  0.1663 -0.6457 -0.0082
 1182TIP3    H125105   6.603   2.832   1.075 -0.7301  1.8437  0.2275
 1182TIP3    H225106   6.694   2.927   1.001  1.4217  0.3866  0.9126
 1183TIP3   OH225107   2.087   6.632   1.744  0.0959 -0.4911  0.1260
 1183TIP3    H125108   1.995   6.646   1.763 -0.0572  1.3447 -1.5960
 1183TIP3    H225109   2.131   6.644   1.828 -1.0914  0.3295  0.6500
 1184TIP3   OH225110   4.662   6.172   8.174 -0.0305  0.6976  0.0455
 1184TIP3    H125111   4.589   6.118   8.204  0.1161  0.0264 -0.7730
 1184TIP3    H225112   4.631   6.262   8.184  0.8620  0.7595  4.5660
 1185TIP3   OH225113   4.937   1.764   0.339  0.1971  0.2754  0.0202
 1185TIP3    H125114   4.947   1.712   0.259 -0.3933 -1.2261  0.8826
 1185TIP3    H225115   4.859   1.817   0.323 -0.5185 -0.7661 -0.0363
 1186TIP3   OH225116   0.434   2.967   7.861 -0.6443  0.0574  0.2176
 1186TIP3    H125117   0.418   2.891   7.805  1.7761 -0.0554 -0.4163
 1186TIP3    H225118   0.362   2.966   7.924 -1.4754 -1.8944 -0.6912
 1187TIP3   OH225119   5.968   3.530   0.186 -0.1742 -0.0448  0.5361
 1187TIP3    H125120   5.901   3.471   0.221 -0.8854  1.3907  1.7172
 1187TIP3    H225121   5.950   3.532   0.092  0.6062 -2.5494  0.2562
 1188TIP3   OH225122   3.910   4.996   8.423 -0.3257 -0.4915 -0.9698
 1188TIP3    H125123   3.949   5.019   8.339  0.4022 -0.0184 -0.5062
 1188TIP3    H225124   3.827   5.045   8.426  0.3042  0.5892 -0.8139
 1189TIP3   OH225125   1.425   3.536   1.941  0.6572  0.1432  0.0704
 1189TIP3    H125126   1.438   3.618   1.989  0.4163 -0.4257  1.1418
 1189TIP3    H225127   1.351   3.494   1.985 -2.8064  1.6769 -3.6267
 1190TIP3   OH225128   5.741   4.670   1.723  0.6678  0.1283  0.0680
 1190TIP3    H125129   5.776   4.699   1.639  1.1442 -0.2176  0.1410
 1190TIP3    H225130   5.730   4.751   1.774 -0.6628  0.4631 -0.6942
 1191TIP3   OH225131   3.798   5.029   2.654  0.0393  0.5674  0.1138
 1191TIP3    H125132   3.744   4.981   2.591  0.5309 -1.2352  0.9992
 1191TIP3    H225133   3.737   5.057   2.722 -0.1008  0.2798  0.1085
 1192TIP3   OH225134   3.553   2.074   8.082 -0.3906 -0.0975 -0.0252
 1192TIP3    H125135   3.601   2.155   8.067  0.4067 -0.6497 -0.5014
 1192TIP3    H225136   3.555   2.029   7.998 -1.1716 -0.4382  0.1333
 1193TIP3   OH225137   5.879   6.052   7.544 -0.0899 -0.5867 -0.5440
 1193TIP3    H125138   5.869   5.984   7.611  2.6523 -3.1770 -2.4868
 1193TIP3    H225139   5.792   6.058   7.503 -0.9474 -1.3220  1.0653
 1194TIP3   OH225140   4.807   0.112   8.492  0.0713 -0.2571 -0.3201
 1194TIP3    H125141   4.856   0.164   8.428  0.6442 -1.0659 -0.5535
 1194TIP3    H225142   4.716   0.118   8.463  0.4769 -1.8179 -2.1289
 1195TIP3   OH225143   5.252   2.729   1.044 -0.3710  0.7122  0.6093
 1195TIP3    H125144   5.313   2.798   1.018  2.2413 -1.0216  1.7672
 1195TIP3    H225145   5.256   2.665   0.974  0.3196 -0.1120  1.3852
 1196TIP3   OH225146   5.855   6.733   2.775 -0.8831  0.1191  0.1116
 1196TIP3    H125147   5.830   6.712   2.866 -1.7328 -0.2580 -0.1910
 1196TIP3    H225148   5.910   6.810   2.783 -0.1197 -0.4949  1.0313
 1197TIP3   OH225149   4.824   2.037   0.576  0.1589  0.6001 -0.2564
 1197TIP3    H125150   4.739   2.035   0.531  1.0161  1.2201 -1.9933
 1197TIP3    H225151   4.843   1.946   0.597 -0.6611  0.3981 -0.3643
 1198TIP3   OH225152   1.686   4.400   1.316  0.2479 -0.0874  0.0487
 1198TIP3    H125153   1.778   4.407   1.343  0.8243 -0.5162 -1.7315
 1198TIP3    H225154   1.660   4.490   1.295  0.4072 -0.0345  0.0780
 1199TIP3   OH225155   4.381   1.448   2.453  0.6037 -0.3645 -0.0636
 1199TIP3    H125156   4.314   1.420   2.390 -0.5417 -1.3287  1.5178
 1199TIP3    H225157   4.421   1.366   2.483 -0.7938 -0.1935  2.5092
 1200TIP3   OH225158   5.522   1.039   0.331  0.2487 -0.2767  0.0547
 1200TIP3    H125159   5.486   1.121   0.366 -0.5409 -0.0697 -1.1708
 1200TIP3    H225160   5.616   1.046   0.345  0.1138  0.5110  0.6437
 1201TIP3   OH225161   0.259   4.444   0.694  0.0669 -0.2087 -0.1242
 1201TIP3    H125162   0.298   4.428   0.780  1.3883 -0.8232 -0.8091
 1201TIP3    H225163   0.239   4.357   0.659  0.0435  0.0006 -0.6502
 1202TIP3   OH225164   3.777   0.220   1.197  0.6819  0.1534  0.3706
 1202TIP3    H125165   3.774   0.284   1.267 -0.6517  1.1580 -0.5600
 1202TIP3    H225166   3.849   0.250   1.140  0.7030  0.2622  0.4553
 1203TIP3   OH225167   4.064   6.596   0.789 -0.5200 -0.1901  0.1083
 1203TIP3    H125168   4.002   6.610   0.717 -0.4593 -1.3016 -0.1831
 1203TIP3    H225169   4.124   6.669   0.783 -0.1948 -0.5426 -1.3316
 1204TIP3   OH225170   4.885   0.792   0.671 -1.1122 -0.4655 -0.2370
 1204TIP3    H125171   4.971   0.827   0.692 -1.6456 -0.4525  2.3753
 1204TIP3    H225172   4.901   0.720   0.610  0.7284 -0.4243  0.1518
 1205TIP3   OH225173   0.203   4.430   3.099 -0.5287  0.6857  0.1971
 1205TIP3    H125174   0.123   4.466   3.137 -3.2767 -3.2995 -1.0764
 1205TIP3    H225175   0.239   4.374   3.167  0.1674  1.0505  0.1395
 1206TIP3   OH225176   5.434   1.315   0.379 -0.2227  0.0599 -0.0956
 1206TIP3    H125177   5.388   1.332   0.461 -0.8337 -0.4169 -0.3338
 1206TIP3    H225178   5.480   1.397   0.359  0.4139 -0.0088  1.0229
 1207TIP3   OH225179   4.774   3.188   0.937  0.1878 -0.2044 -0.2369
 1207TIP3    H125180   4.689   3.183   0.980 -0.7930 -1.0091 -2.1567
 1207TIP3    H225181   4.779   3.107   0.886  2.1546 -0.1972 -0.1193
 1208TIP3   OH225182   4.838   3.318   2.431 -0.5654  0.2277  0.4319
 1208TIP3    H125183   4.833   3.381   2.360  2.3476  0.7391  0.5835
 1208TIP3    H225184   4.771   3.347   2.493  1.0905  3.6797  0.8154
 1209TIP3   OH225185   4.197   5.351   8.195 -0.7764 -0.3190  0.2862
 1209TIP3    H125186   4.286   5.327   8.221 -0.1816  0.8427 -0.5498
 1209TIP3    H225187   4.210   5.419   8.128 -2.2917  0.4057  0.6878
 1210TIP3   OH225188   5.369   2.280   1.578  0.1525 -0.4507 -0.4648
 1210TIP3    H125189   5.348   2.269   1.485 -1.0867  0.0104 -0.2559
 1210TIP3    H225190   5.328   2.363   1.602 -0.0626 -0.8655  0.6473
 1211TIP3   OH225191   3.700   2.721   1.313  0.8004 -0.0313 -0.1711
 1211TIP3    H125192   3.634   2.712   1.382 -0.3204  0.6732 -1.1129
 1211TIP3    H225193   3.680   2.650   1.251  0.5252  0.5433 -0.7560
 1212TIP3   OH225194   3.094   1.869   7.579  0.3067  0.6596  0.1967
 1212TIP3    H125195   3.146   1.946   7.555 -0.1423  0.3197 -2.0358
 1212TIP3    H225196   3.158   1.798   7.583  0.1527  0.3654 -1.9167
 1213TIP3   OH225197   4.968   0.489   2.512  0.4100 -0.9331  0.1278
 1213TIP3    H125198   4.971   0.499   2.607  1.3416 -1.4059  0.1550
 1213TIP3    H225199   4.874   0.485   2.491  0.2066 -1.8603  1.1363
 1214TIP3   OH225200   4.923   4.541   2.347  0.1661 -0.0285  0.2400
 1214TIP3    H125201   4.895   4.627   2.316  1.1459 -0.0489 -0.7759
 1214TIP3    H225202   5.017   4.551   2.363  0.9824 -1.6500 -2.8280
 1215TIP3   OH225203   1.190   5.168   1.710 -0.2065 -0.3794 -0.1609
 1215TIP3    H125204   1.171   5.216   1.630  0.9750  1.4100  0.5667
 1215TIP3    H225205   1.110   5.175   1.762 -0.5694 -0.5426 -0.6890
 1216TIP3   OH225206   2.312   2.988   0.737  0.4184  0.1117 -0.0462
 1216TIP3    H125207   2.250   2.923   0.702 -0.3595  0.7224  0.1631
 1216TIP3    H225208   2.256   3.061   0.763  1.2904  0.8650 -0.2844
 1217TIP3   OH225209   1.438   4.839   0.404  0.0646  0.0379  0.3012
 1217TIP3    H125210   1.391   4.769   0.359 -2.6252  1.4437  0.6925
 1217TIP3    H225211   1.514   4.856   0.349 -0.0152 -2.1527 -0.5821
 1218TIP3   OH225212   2.420   5.270   8.414  0.1026  0.5965 -0.0629
 1218TIP3    H125213   2.462   5.246   8.496  2.4570  2.4680 -0.6070
 1218TIP3    H225214   2.467   5.219   8.348 -0.9305  0.0432 -0.3914
 1219TIP3   OH225215   0.762   4.618   8.259  0.0686 -0.6483 -0.4189
 1219TIP3    H125216   0.681   4.571   8.281 -0.2551  0.0920  0.0196
 1219TIP3    H225217   0.742   4.710   8.277  1.4298 -0.5809  0.9836
 1220TIP3   OH225218   0.424   6.315   8.262  0.1148  0.3050  0.0577
 1220TIP3    H125219   0.467   6.308   8.177  2.5494  0.6891  1.1827
 1220TIP3    H225220   0.435   6.229   8.302 -0.4723  0.3129  0.2504
 1221TIP3   OH225221   3.522   6.307   2.928 -0.2179 -0.4439 -0.0576
 1221TIP3    H125222   3.533   6.212   2.925 -1.5803 -0.6214  0.0860
 1221TIP3    H225223   3.543   6.331   3.019  1.0762 -0.4593 -0.3345
 1222TIP3   OH225224   0.553   1.696   8.209  0.8821 -0.0251 -0.1046
 1222TIP3    H125225   0.524   1.715   8.299 -0.7886  1.5239 -0.8987
 1222TIP3    H225226   0.506   1.760   8.155  2.2934 -0.5341 -2.0391
 1223TIP3   OH225227   0.067   6.799   2.258  0.1712  0.3338  0.6438
 1223TIP3    H125228   0.137   6.820   2.321  1.8122  0.0251 -0.9981
 1223TIP3    H225229   0.033   6.884   2.232  0.0225  0.4979  1.3385
 1224TIP3   OH225230   1.550   6.704   2.442 -0.0718 -0.2195 -0.3333
 1224TIP3    H125231   1.638   6.699   2.478 -0.1149  1.2423  0.0194
 1224TIP3    H225232   1.498   6.644   2.496  0.5837 -0.6773 -0.2034
 1225TIP3   OH225233   2.026   4.831   0.936 -0.2995 -0.6195 -0.6478
 1225TIP3    H125234   2.011   4.771   1.008 -0.4025  2.3716  2.0390
 1225TIP3    H225235   1.938   4.860   0.910 -0.2151  1.7837  1.3590
 1226TIP3   OH225236   5.879   5.755   1.064 -0.1601 -0.0732 -0.4506
 1226TIP3    H125237   5.819   5.806   1.117 -1.1022 -0.5559 -1.0127
 1226TIP3    H225238   5.908   5.684   1.122 -2.9168 -1.9367 -1.1033
 1227TIP3   OH225239   2.762   0.504   8.722 -0.3628 -0.2308  0.4053
 1227TIP3    H125240   2.692   0.452   8.685 -1.3613  0.5158  1.1923
 1227TIP3    H225241   2.747   0.503   8.816  0.6488 -0.0090  0.5877
 1228TIP3   OH225242   1.433   4.380   1.856  0.0351 -0.5023  0.1188
 1228TIP3    H125243   1.409   4.456   1.909  3.0307 -0.9719  2.3826
 1228TIP3    H225244   1.520   4.356   1.886  0.8762 -2.4293 -3.3357
 1229TIP3   OH225245   3.662   5.481   1.825  0.0965 -0.2724  0.6444
 1229TIP3    H125246   3.680   5.549   1.760 -1.2294 -1.4623 -1.0943
 1229TIP3    H225247   3.695   5.516   1.907  0.7418  1.8436 -0.4440
 1230TIP3   OH225248   0.739   3.555   2.879  0.1981 -0.3496 -0.3641
 1230TIP3    H125249   0.701   3.490   2.938 -1.7416  1.0838  0.0598
 1230TIP3    H225250   0.690   3.635   2.897  1.6705  0.9356 -1.7463
 1231TIP3   OH225251   6.610   0.077   8.405 -0.2327  0.3026  0.3335
 1231TIP3    H125252   6.646   0.157   8.365 -0.5041 -0.9100 -2.6272
 1231TIP3    H225253   6.559   0.037   8.335  0.3394 -2.7620  1.5179
 1232TIP3   OH225254   5.263   5.829   1.600  0.0541 -0.7373  0.0155
 1232TIP3    H125255   5.256   5.751   1.546 -0.1542 -1.9198  1.6908
 1232TIP3    H225256   5.172   5.854   1.618  0.0894 -1.4241  1.2666
 1233TIP3   OH225257   6.255   4.915   2.766  0.0399  0.3971 -0.4060
 1233TIP3    H125258   6.281   4.834   2.810 -0.1544 -0.6020 -2.0217
 1233TIP3    H225259   6.278   4.985   2.827  0.2678 -0.8730  1.0060
 1234TIP3   OH225260   6.316   5.499   2.724 -0.2943  0.0623  0.0470
 1234TIP3    H125261   6.245   5.523   2.665 -0.0244  0.4260 -0.1381
 1234TIP3    H225262   6.396   5.524   2.677 -0.1203  1.9685  1.2542
 1235TIP3   OH225263   5.904   3.915   1.512  0.2930  0.1965  0.3743
 1235TIP3    H125264   5.911   3.822   1.490  1.8030 -0.1698  2.1496
 1235TIP3    H225265   5.816   3.924   1.548  0.3368 -0.7000  0.7399
 1236TIP3   OH225266   1.016   2.188   0.335 -0.2834 -0.3253  0.0308
 1236TIP3    H125267   1.023   2.282   0.315 -0.8874 -0.3207 -0.1718
 1236TIP3    H225268   0.932   2.162   0.298 -0.4216 -0.8041  0.6666
 1237TIP3   OH225269   0.461   0.025   1.084  0.0806 -0.3838  1.0056
 1237TIP3    H125270   0.417   0.043   1.167  0.1012  0.4960  0.8361
 1237TIP3    H225271   0.406  -0.041   1.041 -0.6942  0.1760  1.1120
 1238TIP3   OH225272   5.987   4.101   0.651 -0.4243 -0.3484 -0.4741
 1238TIP3    H125273   6.031   4.016   0.647  1.0934  0.2309  1.7381
 1238TIP3    H225274   6.025   4.151   0.580  0.1923 -0.8874 -0.5383
 1239TIP3   OH225275   0.431   0.672   1.776 -0.2784 -0.4039  0.5772
 1239TIP3    H125276   0.394   0.756   1.749 -0.0773 -0.2988  0.6245
 1239TIP3    H225277   0.470   0.689   1.862 -0.1126 -0.5114  0.5236
 1240TIP3   OH225278   2.493   4.344   8.593  0.3090  0.3919  0.3578
 1240TIP3    H125279   2.515   4.269   8.537 -0.3387  1.9071 -2.0768
 1240TIP3    H225280   2.398   4.337   8.606  0.6065 -0.6795  2.5404
 1241TIP3   OH225281   5.115   4.503   0.371 -0.1801  0.9886 -0.0166
 1241TIP3    H125282   5.079   4.520   0.284 -1.4425  0.3243  0.3486
 1241TIP3    H225283   5.074   4.420   0.398  0.4679  0.9988  1.0633
 1242TIP3   OH225284   1.205   6.218   8.667 -0.0143 -0.3072 -0.4063
 1242TIP3    H125285   1.201   6.145   8.729  0.5471  0.8032  1.0091
 1242TIP3    H225286   1.199   6.177   8.581 -2.1952 -1.8272  0.3636
 1243TIP3   OH225287   1.665   4.703   1.723  0.6575 -0.4173 -0.0369
 1243TIP3    H125288   1.616   4.722   1.803 -0.1216 -0.4699 -0.4902
 1243TIP3    H225289   1.756   4.722   1.745  0.6315 -1.6483  1.2503
 1244TIP3   OH225290   4.316   6.207   2.091 -0.7436 -0.4137  0.5288
 1244TIP3    H125291   4.236   6.155   2.099 -1.0740  0.2418  1.6948
 1244TIP3    H225292   4.299   6.286   2.143  0.0572  0.4856 -0.5278
 1245TIP3   OH225293   5.336   5.246   2.323  0.3188 -0.0520  0.5841
 1245TIP3    H125294   5.269   5.202   2.377  0.6705  0.8525  1.8015
 1245TIP3    H225295   5.285   5.293   2.257 -0.5276  2.4289  2.7850
 1246TIP3   OH225296   6.069   6.481   8.483  0.0516 -0.1473 -0.1574
 1246TIP3    H125297   6.139   6.501   8.421 -0.0898 -0.8336 -0.5371
 1246TIP3    H225298   6.065   6.559   8.539  0.2328  0.4417 -0.9517
 1247TIP3   OH225299   4.820   6.249   0.427 -0.1269 -0.4782  0.1529
 1247TIP3    H125300   4.771   6.301   0.491  0.3731  0.0105  0.1468
 1247TIP3    H225301   4.882   6.311   0.388  2.1014 -1.5285  1.7775
 1248TIP3   OH225302   1.082   6.195   1.246 -0.1613  0.0293  0.4165
 1248TIP3    H125303   1.076   6.194   1.342 -0.0213 -3.4896  0.5472
 1248TIP3    H225304   1.176   6.197   1.228 -0.1383 -0.4874  0.4429
 1249TIP3   OH225305   6.536   3.513   1.424  0.2478 -0.5826 -0.0424
 1249TIP3    H125306   6.564   3.424   1.405  1.7061 -0.2706  0.5314
 1249TIP3    H225307   6.466   3.503   1.489 -1.4928 -1.4010 -1.9237
 1250TIP3   OH225308   2.430   2.101   1.160  0.0786  0.2497 -0.6055
 1250TIP3    H125309   2.508   2.147   1.191  2.1422 -2.9454 -0.5645
 1250TIP3    H225310   2.403   2.048   1.235 -0.2031 -0.9965 -1.5517
 1251TIP3   OH225311   4.259   1.497   1.745 -0.1454 -0.3038  0.2485
 1251TIP3    H125312   4.233   1.461   1.829  0.7704 -0.1015  0.6349
 1251TIP3    H225313   4.266   1.421   1.687 -4.1141 -0.1870 -0.6684
 1252TIP3   OH225314   2.959   1.934   8.660 -0.2773 -0.1412 -0.3513
 1252TIP3    H125315   2.967   1.847   8.623  0.8600 -0.8404  1.4124
 1252TIP3    H225316   3.028   1.985   8.617 -1.2020  0.0409 -1.6755
 1253TIP3   OH225317   4.060   2.232   2.442 -0.0606 -0.5347 -0.2313
 1253TIP3    H125318   4.140   2.275   2.474 -0.1599 -1.1464  0.8998
 1253TIP3    H225319   4.029   2.289   2.372  0.7880  0.2820  0.0295
 1254TIP3   OH225320   4.658   0.727   8.616 -0.2207  0.9416  0.3482
 1254TIP3    H125321   4.646   0.682   8.532  1.6180 -0.8948  0.9824
 1254TIP3    H225322   4.745   0.766   8.610 -0.9386  2.6910  0.6337
 1255TIP3   OH225323   3.771   1.132   8.178 -0.2854 -0.0758  0.4045
 1255TIP3    H125324   3.726   1.213   8.203 -1.0925 -0.4768  0.2871
 1255TIP3    H225325   3.864   1.153   8.186 -0.3695  1.6547 -1.9635
 1256TIP3   OH225326   2.396   4.778   3.548 -1.0600  0.3851  0.1284
 1256TIP3    H125327   2.476   4.754   3.595 -1.2695 -0.1047  0.2475
 1256TIP3    H225328   2.376   4.701   3.494  0.3070  1.6446 -2.3554
 1257TIP3   OH225329   0.262   4.775   0.193 -0.3375 -0.6073  0.0175
 1257TIP3    H125330   0.261   4.839   0.121 -0.5689 -0.6417 -0.0081
 1257TIP3    H225331   0.190   4.803   0.250 -0.3491 -0.7641  0.0776
 1258TIP3   OH225332   4.085   3.208   1.601  0.0078 -0.1825 -0.6564
 1258TIP3    H125333   4.113   3.189   1.512 -1.6571  1.0801 -1.5154
 1258TIP3    H225334   4.002   3.255   1.591  1.0921  2.5107  1.4301
 1259TIP3   OH225335   5.034   1.919   2.147  0.5936 -0.7777  0.5853
 1259TIP3    H125336   5.129   1.922   2.153  0.7209 -1.2523 -0.8688
 1259TIP3    H225337   5.015   1.917   2.053 -0.9470  1.6647  0.7641
 1260TIP3   OH225338   5.982   5.735   2.818  0.8084 -0.3268  0.2502
 1260TIP3    H125339   6.036   5.677   2.764 -0.0088 -1.4712  0.6280
 1260TIP3    H225340   5.913   5.678   2.853  0.7416  0.5975  1.7035
 1261TIP3   OH225341   2.949   1.250   2.230  0.2837  0.1892  0.6358
 1261TIP3    H125342   2.944   1.161   2.264  0.4802  0.7340  2.1658
 1261TIP3    H225343   2.969   1.304   2.307  1.6642  1.3812 -0.4933
 1262TIP3   OH225344   2.152   3.999   2.404 -0.1520  0.1735 -0.0307
 1262TIP3    H125345   2.144   4.094   2.411  0.0357  0.1863  0.0101
 1262TIP3    H225346   2.062   3.967   2.405 -0.2029  0.3282  0.2902
 1263TIP3   OH225347   1.393   4.990   2.414 -0.0817  0.0763  0.6240
 1263TIP3    H125348   1.399   4.895   2.422 -0.7102  0.1393  2.1835
 1263TIP3    H225349   1.436   5.024   2.493 -1.4875  1.0092  1.0319
 1264TIP3   OH225350   0.298   2.373   8.647  0.2436 -0.8378  0.3536
 1264TIP3    H125351   0.372   2.374   8.707  1.7111 -2.4993 -1.2978
 1264TIP3    H225352   0.337   2.361   8.560 -1.8865 -0.4897 -0.7320
 1265TIP3   OH225353   5.446   6.053   1.547 -0.4314  0.2101 -0.4840
 1265TIP3    H125354   5.442   6.089   1.458 -1.3734 -2.1808 -1.5085
 1265TIP3    H225355   5.395   5.972   1.542  1.3871 -1.1797  1.6852
 1266TIP3   OH225356   6.245   3.102   0.461  0.3992  0.2734  0.0145
 1266TIP3    H125357   6.183   3.158   0.508 -0.8113 -1.5479  0.6763
 1266TIP3    H225358   6.194   3.065   0.390  0.8850 -0.7873  0.2036
 1267TIP3   OH225359   2.152   5.932   7.388  0.2793  0.7259  0.0814
 1267TIP3    H125360   2.065   5.900   7.412 -0.3984  2.0203 -0.5540
 1267TIP3    H225361   2.149   5.941   7.293  1.3886  0.0507 -0.0390
 1268TIP3   OH225362   5.479   6.529   8.006 -0.3503 -0.1116 -0.0614
 1268TIP3    H125363   5.416   6.528   8.077 -1.2046 -0.1585 -0.7984
 1268TIP3    H225364   5.534   6.452   8.021 -0.7024 -0.2779  0.3876
 1269TIP3   OH225365   0.961   6.132   0.623 -0.0156 -0.2337 -0.7836
 1269TIP3    H125366   0.947   6.039   0.606  1.0749 -0.6434  0.4249
 1269TIP3    H225367   0.883   6.175   0.587 -0.4664 -1.5911 -1.4827
 1270TIP3   OH225368   0.449   6.790   0.027  0.5636  0.4627 -0.5151
 1270TIP3    H125369   0.466   6.706  -0.015 -0.6219 -0.7634  1.3304
 1270TIP3    H225370   0.536   6.829   0.039  1.1202 -0.4714 -1.3749
 1271TIP3   OH225371   3.496   4.828   3.162  0.6417 -0.3145 -0.2681
 1271TIP3    H125372   3.517   4.754   3.106  0.2078 -0.3616 -0.3757
 1271TIP3    H225373   3.407   4.809   3.194  0.7923 -0.1704  0.2391
 1272TIP3   OH225374   1.712   2.249   2.497 -0.1357  0.2904 -0.1485
 1272TIP3    H125375   1.783   2.197   2.537 -0.0842  1.1356  0.9171
 1272TIP3    H225376   1.641   2.244   2.561  0.3056  2.5350  0.6250
 1273TIP3   OH225377   5.505   2.061   0.969  0.0621  0.2306 -0.5937
 1273TIP3    H125378   5.497   2.153   0.994  1.4148  0.7177 -1.7832
 1273TIP3    H225379   5.557   2.063   0.888  0.9994 -1.6316 -0.0963
 1274TIP3   OH225380   6.080   5.447   7.489  0.2936 -0.0768 -0.1205
 1274TIP3    H125381   6.035   5.531   7.492 -0.4242 -0.4491 -0.3037
 1274TIP3    H225382   6.161   5.461   7.538 -0.9597  0.0327  2.0129
 1275TIP3   OH225383   3.043   6.421   1.219 -0.0164  0.1728 -0.2913
 1275TIP3    H125384   2.989   6.352   1.180 -1.1014 -0.0236  1.4132
 1275TIP3    H225385   2.982   6.494   1.232  1.2214  1.7417 -2.5448
 1276TIP3   OH225386   3.590   3.124   2.737 -0.5969 -0.2706  0.1560
 1276TIP3    H125387   3.616   3.049   2.791  1.3135 -2.3833 -3.2733
 1276TIP3    H225388   3.636   3.198   2.775  0.3703 -1.5445  1.6269
 1277TIP3   OH225389   3.700   0.414   8.389 -0.4044 -0.0517 -0.0306
 1277TIP3    H125390   3.732   0.341   8.442  0.3604  0.2174 -0.1052
 1277TIP3    H225391   3.661   0.475   8.451  0.1846  0.1042  0.1958
 1278TIP3   OH225392   4.891   2.456   8.054 -0.4291  0.1760  0.3079
 1278TIP3    H125393   4.900   2.528   7.991  1.3821 -0.5915 -0.3782
 1278TIP3    H225394   4.981   2.429   8.072 -1.0508 -1.4966  1.0468
 1279TIP3   OH225395   0.844   0.571   2.584 -0.3625  0.1746  0.2204
 1279TIP3    H125396   0.880   0.536   2.666 -1.2178 -0.7726  0.1937
 1279TIP3    H225397   0.862   0.504   2.519 -1.0917  0.2264 -0.0420
 1280TIP3   OH225398   2.265   5.462   0.140 -0.5823 -0.0555  0.1654
 1280TIP3    H125399   2.312   5.433   0.218 -0.3436  1.2046  0.5162
 1280TIP3    H225400   2.249   5.382   0.090  1.7620 -0.5746  0.1271
 1281TIP3   OH225401   0.002   6.095   1.477  0.3919  0.3412  0.0616
 1281TIP3    H125402  -0.066   6.160   1.489  1.4947  1.7441 -0.9379
 1281TIP3    H225403   0.083   6.146   1.469  1.8081 -1.2913  2.5348
 1282TIP3   OH225404   4.635   3.321   7.769 -0.1713 -0.4983 -0.4797
 1282TIP3    H125405   4.631   3.405   7.723 -2.5211 -1.3693 -2.0142
 1282TIP3    H225406   4.720   3.323   7.814 -0.7256  3.2601  0.7310
 1283TIP3   OH225407   4.741   0.725   1.486 -0.6600  0.2154  0.4020
 1283TIP3    H125408   4.704   0.668   1.554 -1.4726  0.9120  0.5530
 1283TIP3    H225409   4.699   0.810   1.500 -1.6910  0.0994 -1.6594
 1284TIP3   OH225410   5.816   6.381   8.448 -0.0685 -0.3784  0.2593
 1284TIP3    H125411   5.884   6.447   8.463  0.2263 -1.2769  3.6267
 1284TIP3    H225412   5.735   6.424   8.478 -0.4048 -0.5235 -0.4218
 1285TIP3   OH225413   5.045   6.141   2.351 -0.1284  0.5039 -0.0292
 1285TIP3    H125414   5.075   6.115   2.438  2.1293  1.3432 -0.4806
 1285TIP3    H225415   5.014   6.230   2.361  1.4492  1.1144 -0.2934
 1286TIP3   OH225416   4.090   0.366   2.782 -0.4585  0.3357 -0.0187
 1286TIP3    H125417   4.055   0.317   2.707  0.3168  0.5089 -0.4994
 1286TIP3    H225418   4.082   0.306   2.856 -0.6815 -0.0526 -0.3530
 1287TIP3   OH225419   0.338   2.543   8.094  0.1862  0.5441  0.4663
 1287TIP3    H125420   0.315   2.463   8.046 -0.1898  0.1612  1.2811
 1287TIP3    H225421   0.254   2.585   8.112  0.2048 -0.0763  2.1005
 1288TIP3   OH225422   6.387   3.261   7.888  0.0109 -0.1441 -0.0491
 1288TIP3    H125423   6.325   3.315   7.839 -0.3984 -0.2761  0.3176
 1288TIP3    H225424   6.339   3.180   7.906  0.1462 -0.0897  0.5820
 1289TIP3   OH225425   1.752   6.125   1.557  0.9655  0.2294  0.0904
 1289TIP3    H125426   1.817   6.066   1.594  1.0074  0.9681  1.2515
 1289TIP3    H225427   1.699   6.070   1.499  1.3585 -0.8063  0.6958
 1290TIP3   OH225428   2.971   0.975   7.513 -0.0100 -0.2319 -0.2516
 1290TIP3    H125429   2.964   0.964   7.418 -0.7636 -0.4247 -0.1760
 1290TIP3    H225430   2.934   0.894   7.549  2.0758 -1.0568  0.1976
 1291TIP3   OH225431   5.216   0.945   0.441 -0.7969 -0.0657  0.2775
 1291TIP3    H125432   5.197   1.019   0.499  2.3379  0.9400  0.1931
 1291TIP3    H225433   5.307   0.957   0.416 -0.6835 -3.0600 -1.1561
 1292TIP3   OH225434   4.664   4.587   3.104  0.1701  0.3512  0.2331
 1292TIP3    H125435   4.573   4.580   3.075 -0.1336 -0.7874  1.3890
 1292TIP3    H225436   4.701   4.501   3.084  1.7925  1.5893 -2.6873
 1293TIP3   OH225437   5.067   1.184   2.598  0.1942 -0.0364  0.0421
 1293TIP3    H125438   5.158   1.175   2.570  0.2566 -1.0927  0.5304
 1293TIP3    H225439   5.017   1.128   2.538 -0.2870  1.2872 -0.8451
 1294TIP3   OH225440   6.072   3.507   1.372  0.3856 -0.6843  0.5946
 1294TIP3    H125441   6.089   3.589   1.325  0.8877 -0.6205  0.8803
 1294TIP3    H225442   6.142   3.502   1.437  1.1645 -2.0262 -0.3111
 1295TIP3   OH225443   4.093   4.816   8.021  0.1883 -0.2368  0.0611
 1295TIP3    H125444   4.178   4.807   8.064 -0.2492  0.5902  1.1570
 1295TIP3    H225445   4.037   4.854   8.089 -1.8949 -3.6000  0.4499
 1296TIP3   OH225446   1.829   0.391   2.125  0.0061 -0.4732  0.1431
 1296TIP3    H125447   1.879   0.310   2.116  1.4647  0.3270  0.6829
 1296TIP3    H225448   1.796   0.410   2.037 -1.6857 -2.4353  0.2914
 1297TIP3   OH225449   1.089   1.853   1.790 -0.2067  0.1709 -0.0492
 1297TIP3    H125450   1.078   1.814   1.877  0.7978  0.9423  0.4492
 1297TIP3    H225451   1.178   1.889   1.791 -0.1324  0.0720 -1.4551
 1298TIP3   OH225452   0.834   4.937   7.610  0.1976 -0.1510  0.5906
 1298TIP3    H125453   0.822   4.899   7.523  0.3578 -1.6220  1.1689
 1298TIP3    H225454   0.750   4.924   7.654  0.6118 -0.9835  1.1892
 1299TIP3   OH225455   1.125   2.093   2.439 -0.1106 -0.2478  0.3897
 1299TIP3    H125456   1.112   2.006   2.478 -0.7722 -0.1474  0.4057
 1299TIP3    H225457   1.207   2.125   2.477 -0.7533 -0.1363  1.7270
 1300TIP3   OH225458   1.768   4.206   8.111  0.1306 -0.6362 -0.0963
 1300TIP3    H125459   1.770   4.139   8.178 -0.9120 -0.8509 -0.2621
 1300TIP3    H225460   1.704   4.270   8.143  0.5683 -0.0940 -0.2869
 1301TIP3   OH225461   2.084   2.050   7.092  0.3132  0.5329 -0.0297
 1301TIP3    H125462   2.013   2.047   7.027 -0.0784  2.1544  0.2680
 1301TIP3    H225463   2.066   1.977   7.151 -0.6187  0.4058 -0.4500
 1302TIP3   OH225464   5.256   5.687   1.973  0.3272 -0.1403  0.5744
 1302TIP3    H125465   5.208   5.678   2.056 -0.5088  0.8829  0.2150
 1302TIP3    H225466   5.251   5.600   1.934 -0.1800 -0.3662  1.1134
 1303TIP3   OH225467   6.177   5.142   7.667 -0.1013 -0.3491 -0.1908
 1303TIP3    H125468   6.094   5.153   7.619 -0.6292 -1.2000  0.4925
 1303TIP3    H225469   6.244   5.139   7.599 -0.4447  1.7461 -0.7049
 1304TIP3   OH225470   4.263   3.436   0.388 -0.1021 -0.5356  0.0775
 1304TIP3    H125471   4.254   3.364   0.451 -0.7487  0.1216  0.7643
 1304TIP3    H225472   4.354   3.432   0.361  0.9683  0.7298  3.0585
 1305TIP3   OH225473   3.722   4.329   0.559  0.4252  0.2267  0.0762
 1305TIP3    H125474   3.763   4.329   0.473 -0.8395  0.3100 -0.5528
 1305TIP3    H225475   3.700   4.421   0.575 -0.0540  0.1098  0.1194
 1306TIP3   OH225476   4.739   1.861   1.701 -0.3851  0.0235  0.4029
 1306TIP3    H125477   4.714   1.846   1.609  2.6584  0.2740 -0.5741
 1306TIP3    H225478   4.712   1.781   1.746 -0.3714 -0.8575 -1.0760
 1307TIP3   OH225479   4.313   6.798   1.026  0.1159 -0.2996 -0.6425
 1307TIP3    H125480   4.304   6.777   1.119  1.1154 -0.5647 -0.5903
 1307TIP3    H225481   4.408   6.799   1.011 -0.0446 -1.4896 -1.9329
 1308TIP3   OH225482   5.452   1.547   8.545 -0.2484  0.4362 -0.6211
 1308TIP3    H125483   5.519   1.508   8.490 -1.9267 -2.7930 -0.5723
 1308TIP3    H225484   5.385   1.578   8.484 -0.9546 -0.8619 -0.5246
 1309TIP3   OH225485   4.952   2.568   1.433 -0.2122  0.1943 -0.0020
 1309TIP3    H125486   5.046   2.554   1.419 -0.1868  0.0437  0.3125
 1309TIP3    H225487   4.912   2.543   1.349 -0.0414 -0.5172  0.1179
 1310TIP3   OH225488   3.526   6.352   0.128  0.5627 -0.2297  0.6421
 1310TIP3    H125489   3.526   6.415   0.056  2.6227  0.2723  1.0245
 1310TIP3    H225490   3.616   6.319   0.132  0.6818  0.1786  3.3361
 1311TIP3   OH225491   4.218   1.322   2.279  0.0099  0.4077  0.0992
 1311TIP3    H125492   4.306   1.334   2.242  0.9436 -2.5187  1.0214
 1311TIP3    H225493   4.175   1.263   2.218 -1.0776  1.2286  0.0519
 1312TIP3   OH225494   0.267   1.459   8.277  0.5333 -0.1492 -0.2142
 1312TIP3    H125495   0.322   1.423   8.208  0.8495 -1.2954  0.6160
 1312TIP3    H225496   0.263   1.553   8.258  1.0986 -0.3588 -1.4385
 1313TIP3   OH225497   1.982   0.446   7.583 -0.1216  0.4636  0.4156
 1313TIP3    H125498   2.048   0.515   7.596  1.0510 -0.0434 -2.1730
 1313TIP3    H225499   1.900   0.487   7.610  0.9592  1.7471  2.0097
 1314TIP3   OH225500   1.705   4.166   1.457  0.8947  0.3969 -0.3997
 1314TIP3    H125501   1.726   4.193   1.547  0.1618  0.3029 -0.1890
 1314TIP3    H225502   1.699   4.248   1.408  0.5628  0.5009 -0.1901
 1315TIP3   OH225503   2.882   4.596   8.085 -0.0314 -0.1076 -0.2793
 1315TIP3    H125504   2.851   4.556   8.004 -2.0023 -1.2504  0.9406
 1315TIP3    H225505   2.849   4.538   8.154  1.2168  1.0483  1.3798
 1316TIP3   OH225506   1.356   1.791   0.172 -0.2101 -0.2820 -0.2367
 1316TIP3    H125507   1.395   1.795   0.259 -1.2865  0.3389  0.2401
 1316TIP3    H225508   1.343   1.882   0.147 -2.4701 -0.4111  0.1891
 1317TIP3   OH225509   4.076   3.993   7.920  0.5110  0.4401 -0.3225
 1317TIP3    H125510   4.087   3.947   8.003 -1.4571  0.6961  0.1319
 1317TIP3    H225511   4.051   4.082   7.945 -2.2308 -0.0250 -1.1065
 1318TIP3   OH225512   5.162   0.619   2.158 -0.6281  0.0057 -0.6598
 1318TIP3    H125513   5.173   0.597   2.066 -0.2265  0.2605 -0.6731
 1318TIP3    H225514   5.108   0.698   2.158  1.9267  1.8675 -0.8339
 1319TIP3   OH225515   5.081   5.652   2.591 -0.2244  0.2918  0.0251
 1319TIP3    H125516   5.153   5.609   2.636  0.4111  1.5344  0.2504
 1319TIP3    H225517   5.044   5.585   2.533  0.0399 -0.8353  1.1342
 1320TIP3   OH225518   6.433   4.562   8.410  0.0922 -0.2999  0.0284
 1320TIP3    H125519   6.355   4.582   8.462 -0.0591  1.0757 -0.6633
 1320TIP3    H225520   6.498   4.532   8.474 -0.1892  1.0529  0.9894
 1321TIP3   OH225521   3.055   0.039   1.751  0.2394  0.3512  0.0878
 1321TIP3    H125522   3.105   0.058   1.831  0.7167 -1.3737  0.2472
 1321TIP3    H225523   3.085  -0.048   1.724 -0.7674  0.4026 -1.3281
 1322TIP3   OH225524   3.266   4.794   2.012 -0.3304 -0.3585  0.0258
 1322TIP3    H125525   3.308   4.825   2.093  2.5159 -0.3103 -1.3425
 1322TIP3    H225526   3.177   4.828   2.017 -0.2868 -0.3544  3.1142
 1323TIP3   OH225527   6.450   3.005   1.198  0.2125 -0.4730  0.0688
 1323TIP3    H125528   6.389   2.934   1.176 -1.1393  1.0969 -1.4530
 1323TIP3    H225529   6.473   2.988   1.290 -0.8410 -2.2978  0.0549
 1324TIP3   OH225530   2.115   3.187   0.344  0.2881 -0.5775  0.1170
 1324TIP3    H125531   2.033   3.214   0.302  0.2833 -0.3538  0.2686
 1324TIP3    H225532   2.148   3.267   0.386  0.3760 -0.7602  0.3999
 1325TIP3   OH225533   1.502   5.749   1.651 -0.2849 -0.0110  0.0570
 1325TIP3    H125534   1.411   5.720   1.646 -0.6725  0.6392  2.3844
 1325TIP3    H225535   1.550   5.672   1.681 -0.3207  0.0839  0.3556
 1326TIP3   OH225536   0.644   1.474   1.048  0.3837  0.3356  0.2194
 1326TIP3    H125537   0.585   1.549   1.056  0.7251  0.7374 -0.8661
 1326TIP3    H225538   0.604   1.419   0.981  0.8680  0.2604 -0.0140
 1327TIP3   OH225539   6.111   2.627   8.193  0.0621 -0.3728 -0.2084
 1327TIP3    H125540   6.154   2.647   8.276 -0.3603  0.4595 -0.1792
 1327TIP3    H225541   6.088   2.534   8.199 -2.2204  0.2236  1.6822
 1328TIP3   OH225542   4.864   4.913   1.501  0.1674 -0.0468  0.1957
 1328TIP3    H125543   4.819   4.964   1.434 -2.2807  1.0050  2.4500
 1328TIP3    H225544   4.933   4.971   1.534 -0.8459  0.8100  0.8726
 1329TIP3   OH225545   4.147   3.527   0.007  0.0385  0.7895 -0.3281
 1329TIP3    H125546   4.217   3.464   0.022 -0.2920  0.6172  0.5497
 1329TIP3    H225547   4.120   3.512  -0.083  0.4230  0.1348 -0.3390
 1330TIP3   OH225548   4.750   3.088   2.289 -0.7026 -0.6525 -0.4517
 1330TIP3    H125549   4.796   3.169   2.314  0.8751 -1.5148 -0.4448
 1330TIP3    H225550   4.730   3.100   2.196 -0.4694 -0.2597 -0.4573
 1331TIP3   OH225551   5.986   4.261   0.903 -0.1863  0.8318 -0.4021
 1331TIP3    H125552   5.951   4.219   0.824 -1.4998  0.3715  0.3952
 1331TIP3    H225553   5.970   4.197   0.973 -1.4612  2.2800  0.6956
 1332TIP3   OH225554   1.419   4.621   1.159 -0.1682 -0.3486  0.2330
 1332TIP3    H125555   1.461   4.692   1.207 -1.0229  0.9419 -0.8291
 1332TIP3    H225556   1.384   4.564   1.226 -0.1704  0.6784  1.1350
 1333TIP3   OH225557   4.835   1.268   2.715  0.3550  0.3221  0.2599
 1333TIP3    H125558   4.923   1.245   2.684  0.5314  0.1031  0.9184
 1333TIP3    H225559   4.831   1.363   2.706  0.6357  0.3263  0.1591
 1334TIP3   OH225560   6.814   4.310   1.121  0.4404 -0.1837 -0.3258
 1334TIP3    H125561   6.908   4.327   1.128  0.3956  0.3963 -1.0358
 1334TIP3    H225562   6.772   4.395   1.137  0.0179 -0.4969  0.2767
 1335TIP3   OH225563   2.296   3.596   1.050 -0.1717 -0.4243 -0.4099
 1335TIP3    H125564   2.332   3.673   1.005  0.7400  0.0596  1.0826
 1335TIP3    H225565   2.204   3.619   1.067  0.3228  0.7594  0.8394
 1336TIP3   OH225566   3.884   3.834   0.203  0.2670 -0.3560 -0.5528
 1336TIP3    H125567   3.975   3.841   0.234  0.0506  1.9844 -0.2924
 1336TIP3    H225568   3.831   3.852   0.280 -0.3299  1.9736 -1.4231
 1337TIP3   OH225569   2.266   3.342   1.606  0.0857 -0.3902  0.1106
 1337TIP3    H125570   2.268   3.271   1.670  3.4156  0.3196  1.0340
 1337TIP3    H225571   2.259   3.421   1.659 -1.5630  0.0809 -0.7664
 1338TIP3   OH225572   3.229   0.569   1.123 -0.4853 -0.2771 -0.0359
 1338TIP3    H125573   3.323   0.556   1.140 -0.2262  1.1984 -0.1681
 1338TIP3    H225574   3.226   0.627   1.047 -1.5454 -1.2328 -0.7522
 1339TIP3   OH225575   2.551   0.804   8.443 -0.8752  0.0679 -0.6249
 1339TIP3    H125576   2.531   0.898   8.436 -0.8527  0.1480  0.2496
 1339TIP3    H225577   2.629   0.801   8.500 -2.2054 -0.5854  1.2653
 1340TIP3   OH225578   1.490   6.135   0.903 -0.0780  0.1864 -0.6944
 1340TIP3    H125579   1.543   6.058   0.884  0.0148 -0.4284  1.7790
 1340TIP3    H225580   1.525   6.203   0.846  0.8953 -1.1628 -1.7683
 1341TIP3   OH225581   5.413   6.505   2.148 -0.0469 -0.0003 -0.1775
 1341TIP3    H125582   5.491   6.510   2.091 -0.8213 -0.8653 -1.3675
 1341TIP3    H225583   5.417   6.584   2.201  1.5558  0.0592 -0.3392
 1342TIP3   OH225584   3.225   5.647   2.194  0.2595 -0.0050 -0.0620
 1342TIP3    H125585   3.253   5.584   2.127  2.0072  0.5396  0.1100
 1342TIP3    H225586   3.293   5.643   2.261 -2.6599 -2.4081  3.0969
 1343TIP3   OH225587   3.287   5.078   0.468 -0.3499  0.2172 -0.2687
 1343TIP3    H125588   3.278   5.156   0.412 -0.2301 -1.4713 -2.8425
 1343TIP3    H225589   3.201   5.036   0.464 -0.0284 -0.4724 -0.0558
 1344TIP3   OH225590   6.095   4.531   0.202 -0.1719  0.2946  0.3071
 1344TIP3    H125591   6.172   4.529   0.146 -0.6167  0.7911 -0.3498
 1344TIP3    H225592   6.110   4.606   0.260  0.6316 -0.6747  1.3766
 1345TIP3   OH225593   2.421   0.079   7.934 -0.0534 -0.2885 -0.3453
 1345TIP3    H125594   2.493   0.110   7.880  0.6885 -1.4564 -0.0678
 1345TIP3    H225595   2.383   0.158   7.971  2.0554  0.3118  0.7058
 1346TIP3   OH225596   0.446   0.884   1.379  0.0177  0.0722 -0.1272
 1346TIP3    H125597   0.429   0.874   1.286  0.8899 -2.3344 -0.0948
 1346TIP3    H225598   0.541   0.886   1.386 -0.0311 -0.0733  0.7213
 1347TIP3   OH225599   3.950   0.168   1.962  0.2475  0.2217  0.1041
 1347TIP3    H125600   4.002   0.189   2.039  0.0533  0.9804  0.0340
 1347TIP3    H225601   3.969   0.076   1.944  1.7073  0.5278 -0.0191
 1348TIP3   OH225602   2.574   6.195   7.274 -0.5534 -0.1996  0.1272
 1348TIP3    H125603   2.611   6.113   7.242  1.0065  0.2737  0.6254
 1348TIP3    H225604   2.600   6.261   7.209  0.7815  0.3933  1.2168
 1349TIP3   OH225605   0.849   1.239   1.174 -0.1378  0.9020 -0.2959
 1349TIP3    H125606   0.901   1.218   1.252  1.8440  0.1816 -1.7136
 1349TIP3    H225607   0.762   1.259   1.207  0.3978 -0.2996  2.0073
 1350TIP3   OH225608   2.350   1.157   3.084  0.0340 -0.6150  0.5703
 1350TIP3    H125609   2.367   1.127   2.995 -0.1848  0.3354  0.1958
 1350TIP3    H225610   2.346   1.252   3.077  2.4759 -0.3249  2.0115
 1351TIP3   OH225611   3.441   5.297   7.018  0.3004 -0.1244 -0.3709
 1351TIP3    H125612   3.478   5.209   7.022  0.5189 -0.0872 -1.3755
 1351TIP3    H225613   3.442   5.320   6.925  0.8724  1.2015 -0.0644
 1352TIP3   OH225614   5.568   1.643   2.740 -0.5742 -0.4049 -0.0175
 1352TIP3    H125615   5.494   1.702   2.723 -1.9249 -2.6073 -2.9592
 1352TIP3    H225616   5.527   1.564   2.777  0.4565 -1.1341 -0.3815
 1353TIP3   OH225617   5.590   6.321   1.007 -0.0575  0.0332  0.0555
 1353TIP3    H125618   5.601   6.414   1.027 -0.6848 -0.0928  1.0392
 1353TIP3    H225619   5.677   6.293   0.978  0.1685  0.8919 -0.1361
 1354TIP3   OH225620   6.530   2.867   7.327  0.0534  0.7000  0.1468
 1354TIP3    H125621   6.624   2.871   7.306 -0.1203  0.4950 -0.7030
 1354TIP3    H225622   6.505   2.958   7.342  0.5325  0.6944  1.0832
 1355TIP3   OH225623   1.280   1.250   1.818 -0.1221  0.3643 -0.2463
 1355TIP3    H125624   1.223   1.191   1.868  1.9059 -2.0708 -0.5907
 1355TIP3    H225625   1.331   1.296   1.884 -0.7587  0.7149  0.0068
 1356TIP3   OH225626   5.912   6.498   7.576 -0.3130  0.2298  0.6872
 1356TIP3    H125627   5.913   6.475   7.484 -0.0522  1.3501  0.3972
 1356TIP3    H225628   5.876   6.586   7.579  2.6030  1.5464  1.2959
 1357TIP3   OH225629   3.778   2.833   7.504  0.4658 -0.0463 -0.7529
 1357TIP3    H125630   3.812   2.911   7.459  0.1597 -0.1965 -1.2510
 1357TIP3    H225631   3.830   2.827   7.584  0.4252  0.7331 -0.6552
 1358TIP3   OH225632   5.087   2.354   1.025 -0.3853  0.1926  0.5128
 1358TIP3    H125633   5.045   2.269   1.042 -0.3809  0.5132  2.2028
 1358TIP3    H225634   5.159   2.358   1.087  0.9732  0.5234 -1.0193
 1359TIP3   OH225635   5.241   1.599   2.410  0.4120  0.8848  0.2193
 1359TIP3    H125636   5.173   1.657   2.445 -0.9668 -0.3049 -0.3970
 1359TIP3    H225637   5.197   1.548   2.343  1.6732 -0.6137  0.4792
 1360TIP3   OH225638   5.594   4.563   2.749 -0.2034  0.7946 -0.2942
 1360TIP3    H125639   5.559   4.648   2.775 -0.4417  0.3559  0.9185
 1360TIP3    H225640   5.642   4.533   2.826 -0.5474 -0.3781 -0.5151
 1361TIP3   OH225641   2.454   6.063   0.508  0.0614 -0.0084  0.2129
 1361TIP3    H125642   2.405   6.039   0.430  0.6506  3.8605 -1.5534
 1361TIP3    H225643   2.523   6.122   0.477 -0.3840  2.7282  3.7106
 1362TIP3   OH225644   5.116   1.968   0.987  0.3010 -0.0917  0.2181
 1362TIP3    H125645   5.090   2.058   1.006  2.2405  0.6338 -0.3162
 1362TIP3    H225646   5.070   1.945   0.907  0.6951  0.8579 -0.2899
 1363TIP3   OH225647   2.993   2.797   0.618 -0.5198 -0.0501  0.4131
 1363TIP3    H125648   3.082   2.790   0.585 -0.3766 -0.1175  0.8078
 1363TIP3    H225649   2.947   2.852   0.554 -0.3162 -0.3937 -0.0328
 1364TIP3   OH225650   3.485   6.267   1.338  0.1318 -0.0887  0.1360
 1364TIP3    H125651   3.576   6.262   1.368 -0.2977  0.0554  1.5711
 1364TIP3    H225652   3.435   6.284   1.418 -1.2242 -0.7258 -0.5436
 1365TIP3   OH225653   5.522   6.739   0.276  0.1697 -0.2081 -0.3224
 1365TIP3    H125654   5.522   6.644   0.261  0.5541 -0.5313  1.5248
 1365TIP3    H225655   5.469   6.774   0.204 -1.2627 -1.9693 -0.2134
 1366TIP3   OH225656   3.195   6.223   7.317 -0.1607 -0.2850 -0.0852
 1366TIP3    H125657   3.241   6.173   7.249 -3.3135 -1.8701 -1.2511
 1366TIP3    H225658   3.193   6.313   7.284 -1.3848 -0.9734 -2.0528
 1367TIP3   OH225659   1.254   1.566   8.085 -0.1483 -0.1591  0.8163
 1367TIP3    H125660   1.312   1.555   8.161  0.1412 -1.6579  0.4101
 1367TIP3    H225661   1.192   1.634   8.112  0.4998 -0.0234  2.0509
 1368TIP3   OH225662   4.791   3.451   0.831 -0.3529  0.2123  0.2229
 1368TIP3    H125663   4.708   3.497   0.848 -0.4599  0.4677 -0.8777
 1368TIP3    H225664   4.767   3.359   0.826 -0.0861 -0.0739  2.7837
 1369TIP3   OH225665   2.199   5.139   1.962  0.1935 -0.3123 -0.1038
 1369TIP3    H125666   2.158   5.176   1.885  1.2226 -2.0651 -1.5876
 1369TIP3    H225667   2.253   5.067   1.928  2.4813  0.2805  1.9758
 1370TIP3   OH225668   2.325   1.623   8.397 -0.3628 -0.2626  0.1827
 1370TIP3    H125669   2.357   1.695   8.451  2.0565 -0.1617 -1.2061
 1370TIP3    H225670   2.280   1.665   8.324 -1.6980 -0.3229  0.9403
 1371TIP3   OH225671   6.414   1.101   1.511 -0.1151  0.1741 -0.3408
 1371TIP3    H125672   6.385   1.102   1.602  2.6440 -0.6383  0.6378
 1371TIP3    H225673   6.334   1.115   1.460 -1.9590 -0.7508  2.1243
 1372TIP3   OH225674   3.943   4.707   8.445 -0.8086 -0.0683  0.0411
 1372TIP3    H125675   3.987   4.691   8.361 -3.5826 -0.9636 -1.3493
 1372TIP3    H225676   3.901   4.792   8.434  0.9933  1.1250  1.6285
 1373TIP3   OH225677   0.316   5.330   0.580  0.1140  0.1543 -0.1321
 1373TIP3    H125678   0.318   5.235   0.569  0.6185  0.2284 -0.7074
 1373TIP3    H225679   0.284   5.343   0.669  0.0092 -0.5554 -0.0616
 1374TIP3   OH225680   4.330   2.163   7.466  0.3968 -0.0696 -0.7050
 1374TIP3    H125681   4.376   2.206   7.394  0.9942 -1.4074 -1.1504
 1374TIP3    H225682   4.303   2.079   7.431  1.9274 -1.3611  1.0118
 1375TIP3   OH225683   2.256   2.523   0.313  0.2859 -0.3431  0.0485
 1375TIP3    H125684   2.213   2.584   0.373  0.2497 -0.4546  0.1359
 1375TIP3    H225685   2.293   2.578   0.245  0.4875 -0.1965  0.2718
 1376TIP3   OH225686   5.678   3.200   1.225 -0.2304  0.7753  0.6768
 1376TIP3    H125687   5.744   3.154   1.172 -1.2093 -0.8802  0.8440
 1376TIP3    H225688   5.602   3.209   1.167  0.0368  2.5785  0.5212
 1377TIP3   OH225689   6.480   5.682   1.664  0.1542 -1.1187 -0.1279
 1377TIP3    H125690   6.553   5.717   1.613  1.7028 -2.1539  1.2334
 1377TIP3    H225691   6.408   5.743   1.649  0.8187 -0.8316 -2.6771
 1378TIP3   OH225692   1.394   5.164   8.529 -0.9951 -0.6387  0.0799
 1378TIP3    H125693   1.419   5.111   8.605 -0.2996  0.0492  0.3415
 1378TIP3    H225694   1.461   5.146   8.464 -0.2764  0.5140  0.4597
 1379TIP3   OH225695   1.622   1.631   0.874 -0.3041 -0.5418 -0.0140
 1379TIP3    H125696   1.671   1.637   0.957 -2.6174 -0.1495  1.4204
 1379TIP3    H225697   1.639   1.714   0.830  1.2097 -0.8815 -0.1403
 1380TIP3   OH225698   6.027   4.480   1.520 -0.2660  0.2698 -0.1393
 1380TIP3    H125699   6.000   4.438   1.438 -2.7091 -0.2183  0.8130
 1380TIP3    H225700   5.989   4.568   1.515 -1.1410 -0.0317  0.7477
 1381TIP3   OH225701   2.290   0.974   0.200  0.1898 -0.1836  0.4143
 1381TIP3    H125702   2.230   0.995   0.128  0.2696 -1.0633  0.0779
 1381TIP3    H225703   2.243   0.999   0.279 -0.0809  0.3756  0.0798
 1382TIP3   OH225704   3.852   3.745   8.575 -0.1942  0.1371 -0.6088
 1382TIP3    H125705   3.881   3.667   8.623  1.1609 -0.6178 -2.5034
 1382TIP3    H225706   3.760   3.754   8.598 -0.0102 -1.1561  0.8144
 1383TIP3   OH225707   1.850   5.700   7.470  0.2880  0.1079  0.2740
 1383TIP3    H125708   1.756   5.681   7.470 -0.3032  2.6156 -1.3322
 1383TIP3    H225709   1.885   5.645   7.400 -0.1061 -0.3335  0.4194
 1384TIP3   OH225710   2.835   3.429   8.524  0.2648 -0.0025 -0.0854
 1384TIP3    H125711   2.920   3.448   8.563  1.0324  0.4251 -1.8754
 1384TIP3    H225712   2.852   3.360   8.461 -0.9264 -0.6570  0.2825
 1385TIP3   OH225713   1.209   3.215   2.743 -0.2586  0.5450 -0.1203
 1385TIP3    H125714   1.114   3.216   2.740 -0.2555  0.0305 -0.7290
 1385TIP3    H225715   1.231   3.227   2.835 -0.8934  1.2773 -0.0586
 1386TIP3   OH225716   2.960   1.594   2.080  0.7482  0.0261 -0.7338
 1386TIP3    H125717   2.967   1.646   2.000 -2.1636  2.0180  0.1190
 1386TIP3    H225718   2.967   1.658   2.151 -0.0523 -1.1561  0.4659
 1387TIP3   OH225719   2.742   2.047   2.962 -0.6313  0.0900  0.3006
 1387TIP3    H125720   2.793   2.121   2.995 -2.7431  1.2726  1.1064
 1387TIP3    H225721   2.747   2.054   2.867 -0.7700  1.2615  0.3680
 1388TIP3   OH225722   0.320   0.148   7.545 -0.1701  0.4044 -0.6462
 1388TIP3    H125723   0.268   0.069   7.537  0.0100  0.4165 -2.0959
 1388TIP3    H225724   0.395   0.134   7.488  0.6561  0.9990  0.2671
 1389TIP3   OH225725   3.092   1.313   8.690  0.3880  0.3011 -0.2926
 1389TIP3    H125726   3.143   1.337   8.612  1.2772  1.8937  0.7261
 1389TIP3    H225727   3.085   1.394   8.740 -1.5672 -0.3285  0.5256
 1390TIP3   OH225728   3.958   4.973   0.967  0.3350 -1.0185  0.7392
 1390TIP3    H125729   3.995   4.928   0.892 -0.5191 -0.6307  0.0670
 1390TIP3    H225730   3.913   5.049   0.930 -0.4759 -1.0577  1.5919
 1391TIP3   OH225731   3.393   4.409   2.779  0.0570 -0.7322  0.2259
 1391TIP3    H125732   3.387   4.339   2.843  2.1098  0.5114  1.8803
 1391TIP3    H225733   3.305   4.413   2.740 -0.4730 -3.3237  0.9637
 1392TIP3   OH225734   5.599   6.443   6.915 -0.5012  0.1712  0.2197
 1392TIP3    H125735   5.686   6.485   6.920 -0.3159 -0.1176 -0.5140
 1392TIP3    H225736   5.607   6.366   6.971 -0.1713 -0.0474 -0.1251
 1393TIP3   OH225737   5.388   3.074   7.762 -0.2571 -0.2143 -0.2630
 1393TIP3    H125738   5.375   3.014   7.689 -1.7358  0.7883 -0.8765
 1393TIP3    H225739   5.481   3.069   7.781 -0.0157 -1.2274 -1.5785
 1394TIP3   OH225740   2.656   2.312   0.185 -0.4202  0.3785  0.2430
 1394TIP3    H125741   2.586   2.272   0.133 -0.9231 -0.6278  1.6338
 1394TIP3    H225742   2.687   2.242   0.242 -0.0389  1.4938  1.4635
 1395TIP3   OH225743   6.489   2.518   0.647  0.1954 -0.3427 -0.0503
 1395TIP3    H125744   6.553   2.453   0.618  0.2487  0.2267 -1.2553
 1395TIP3    H225745   6.541   2.594   0.671  0.0276 -0.1915 -0.1629
 1396TIP3   OH225746   2.839   2.923   1.054  0.0856  0.1209 -0.1937
 1396TIP3    H125747   2.886   2.924   1.138 -1.0179  0.0164  0.4552
 1396TIP3    H225748   2.859   3.007   1.013 -0.9127  1.0329  1.0944
 1397TIP3   OH225749   3.669   3.540   6.814 -0.1056 -0.0844 -0.0385
 1397TIP3    H125750   3.680   3.450   6.846  0.8761 -0.1926 -0.6530
 1397TIP3    H225751   3.630   3.587   6.888  0.7312 -0.6738  0.8004
 1398TIP3   OH225752   4.480   1.663   3.117 -0.1426  0.0181  0.4328
 1398TIP3    H125753   4.401   1.611   3.101 -0.2299  0.7349 -1.8699
 1398TIP3    H225754   4.449   1.747   3.147 -0.2891  0.2480 -0.3265
 1399TIP3   OH225755   5.363   2.425   1.957  0.0414 -0.0949 -0.4007
 1399TIP3    H125756   5.390   2.365   2.026  1.1997 -0.2801 -0.9891
 1399TIP3    H225757   5.319   2.496   2.003 -0.7166 -1.0363  0.3698
 1400TIP3   OH225758   1.662   1.498   2.518 -0.2001 -0.1663 -0.1880
 1400TIP3    H125759   1.623   1.563   2.577  1.0817  0.8193 -0.3729
 1400TIP3    H225760   1.735   1.461   2.568  0.8427  0.6122 -1.0684
 1401TIP3   OH225761   3.710   5.257   8.589 -0.1191 -0.4955  0.2246
 1401TIP3    H125762   3.804   5.257   8.603 -0.3329 -1.2702  1.9788
 1401TIP3    H225763   3.692   5.170   8.553 -0.1395 -0.2283 -0.4243
 1402TIP3   OH225764   3.439   3.447   1.839 -0.0683  0.6701 -0.0847
 1402TIP3    H125765   3.345   3.447   1.820 -0.1097 -2.1197 -0.2552
 1402TIP3    H225766   3.470   3.532   1.808 -2.4378  1.4328 -0.5040
 1403TIP3   OH225767   1.524   2.970   8.718 -0.5338 -0.3641  0.0907
 1403TIP3    H125768   1.521   2.966   8.814  0.8476  1.2372  0.2462
 1403TIP3    H225769   1.524   3.064   8.698 -0.1057 -0.6666 -1.4396
 1404TIP3   OH225770   5.741   5.791   0.839  0.3530  0.2474 -0.0592
 1404TIP3    H125771   5.687   5.712   0.834  2.0604 -0.9791  0.0738
 1404TIP3    H225772   5.780   5.788   0.927  0.1040  1.5043  0.1248
 1405TIP3   OH225773   3.178   2.598   8.216  0.2712 -0.8861  0.3818
 1405TIP3    H125774   3.269   2.608   8.245 -0.2917  1.0820  1.6707
 1405TIP3    H225775   3.184   2.593   8.121  1.7244 -0.6529  0.4259
 1406TIP3   OH225776   0.498   2.404   7.748 -0.4805 -0.3753  0.2112
 1406TIP3    H125777   0.476   2.360   7.665  0.8024 -2.4479  0.9008
 1406TIP3    H225778   0.430   2.376   7.809 -0.4006 -0.3204  0.3257
 1407TIP3   OH225779   0.828   0.626   0.841 -0.0790 -0.5191  0.3976
 1407TIP3    H125780   0.903   0.566   0.837  1.2507  0.6435  3.8356
 1407TIP3    H225781   0.764   0.580   0.895 -2.1446 -1.6280 -2.7692
 1408TIP3   OH225782   2.236   5.567   0.468  0.4786 -0.1857  0.0960
 1408TIP3    H125783   2.240   5.662   0.478 -2.0441 -0.1936  2.6748
 1408TIP3    H225784   2.257   5.533   0.554 -0.6909 -1.8202 -0.2093
 1409TIP3   OH225785   5.770   4.904   0.390 -0.0036  0.3260 -0.1803
 1409TIP3    H125786   5.815   4.988   0.394  1.6322 -0.1539 -4.1849
 1409TIP3    H225787   5.677   4.926   0.387  0.3778  1.9496 -0.5548
 1410TIP3   OH225788   6.267   0.350   2.084 -0.0149 -0.0337 -0.2204
 1410TIP3    H125789   6.227   0.354   1.997 -2.1172  1.4342  0.7286
 1410TIP3    H225790   6.274   0.441   2.112  1.1179 -0.4495  0.9561
 1411TIP3   OH225791   5.074   1.768   1.840 -0.0727 -0.3143  0.0144
 1411TIP3    H125792   5.161   1.790   1.874  0.1593  0.6816 -1.1334
 1411TIP3    H225793   5.023   1.848   1.853  0.6198  0.9709 -3.7182
 1412TIP3   OH225794   6.181   3.036   1.106 -0.9062  0.1342  0.0506
 1412TIP3    H125795   6.170   3.131   1.096 -1.9376 -0.0012 -0.2259
 1412TIP3    H225796   6.167   3.020   1.199 -0.6631  0.2554  0.1102
 1413TIP3   OH225797   6.536   0.884   8.338  0.2798  0.0805  0.9257
 1413TIP3    H125798   6.522   0.974   8.308 -0.6931 -0.7677 -1.3597
 1413TIP3    H225799   6.453   0.858   8.377  0.1261 -0.2446  0.3906
 1414TIP3   OH225800   5.645   0.357   0.376  0.4920 -0.2869 -0.1731
 1414TIP3    H125801   5.594   0.280   0.398  2.6289 -1.5318  0.7082
 1414TIP3    H225802   5.655   0.352   0.281 -1.4379  0.3194 -0.4565
 1415TIP3   OH225803   0.824   3.363   2.023  0.0761 -0.4781  0.5643
 1415TIP3    H125804   0.905   3.372   1.973  0.9160 -3.1017  1.2537
 1415TIP3    H225805   0.776   3.294   1.977 -1.0034 -0.0973  1.1066
 1416TIP3   OH225806   6.529   6.312   0.378 -0.6109 -0.0949  0.5830
 1416TIP3    H125807   6.485   6.356   0.305 -0.8127 -1.0431  0.1115
 1416TIP3    H225808   6.535   6.220   0.351  2.6102  0.1384  0.1819
 1417TIP3   OH225809   4.251   6.048   2.579  0.1073  0.3988 -0.5206
 1417TIP3    H125810   4.230   6.030   2.670 -1.5264 -1.5158 -1.2122
 1417TIP3    H225811   4.193   6.121   2.554 -0.2292  0.1942 -0.3348
 1418TIP3   OH225812   1.805   5.063   0.873 -0.2039  0.9667  0.5663
 1418TIP3    H125813   1.724   5.012   0.878  0.6069 -0.4418  0.0872
 1418TIP3    H225814   1.811   5.091   0.782  0.9284 -0.8946  0.0034
 1419TIP3   OH225815   6.304   1.380   7.048 -0.0611  0.1771 -0.6171
 1419TIP3    H125816   6.325   1.290   7.021 -3.1400 -0.6268 -0.6702
 1419TIP3    H225817   6.228   1.371   7.105 -2.0971  2.9149 -2.6609
 1420TIP3   OH225818   5.310   2.539   1.703 -0.2073 -0.6207  0.4416
 1420TIP3    H125819   5.302   2.500   1.789  1.1621  0.0962  0.9308
 1420TIP3    H225820   5.386   2.597   1.710 -1.5550  1.4052 -0.4983
 1421TIP3   OH225821   5.435   4.238   8.409  0.1981 -0.0570 -0.0627
 1421TIP3    H125822   5.367   4.172   8.393  0.9202 -0.6355 -0.8675
 1421TIP3    H225823   5.391   4.307   8.458 -0.4770 -1.3398  1.2307
 1422TIP3   OH225824   3.361   0.872   2.493  0.3143  0.1609 -0.2714
 1422TIP3    H125825   3.306   0.840   2.564  0.2169 -0.4040 -0.5937
 1422TIP3    H225826   3.345   0.811   2.421  0.1384  0.9249 -0.8961
 1423TIP3   OH225827   2.658   3.048   7.428 -0.4435 -0.0733 -0.3606
 1423TIP3    H125828   2.614   3.075   7.348  0.0837  0.3765 -0.5067
 1423TIP3    H225829   2.658   2.952   7.425 -0.6968 -0.0628 -0.7477
 1424TIP3   OH225830   2.219   3.322   2.495  0.5073 -0.5970 -0.1767
 1424TIP3    H125831   2.138   3.363   2.468  0.0899 -1.3535 -0.1153
 1424TIP3    H225832   2.254   3.379   2.564  0.6393  0.3517 -1.0121
 1425TIP3   OH225833   6.499   5.226   8.143  0.4520  0.5555  0.2128
 1425TIP3    H125834   6.592   5.201   8.141  0.8466  1.6637  2.3999
 1425TIP3    H225835   6.483   5.263   8.056  2.4915  1.7082  0.2514
 1426TIP3   OH225836   0.437   4.532   1.013  0.1856 -0.3819 -0.2637
 1426TIP3    H125837   0.434   4.512   1.106 -0.0140 -1.2430 -0.4440
 1426TIP3    H225838   0.375   4.604   1.001  0.2421 -0.2444  0.2709
 1427TIP3   OH225839   1.860   1.953   0.386  0.6208 -0.0412  0.3446
 1427TIP3    H125840   1.897   1.958   0.298  0.7227  2.0357  0.4481
 1427TIP3    H225841   1.824   1.865   0.392 -1.0260  0.3185 -2.4528
 1428TIP3   OH225842   5.236   5.868   8.331  0.2459  0.1298 -0.5670
 1428TIP3    H125843   5.330   5.885   8.339  0.6467 -1.6036 -1.0781
 1428TIP3    H225844   5.206   5.933   8.268  1.4291 -0.1957 -1.5231
 1429TIP3   OH225845   3.734   5.621   8.139 -0.7923  0.4897  0.3185
 1429TIP3    H125846   3.809   5.574   8.102 -1.1313 -0.3761  0.7050
 1429TIP3    H225847   3.689   5.656   8.062  0.7496  2.2445  0.1315
 1430TIP3   OH225848   1.489   3.497   0.044 -0.1088 -0.0253  0.1934
 1430TIP3    H125849   1.503   3.578   0.093  1.2567 -1.0757  1.6226
 1430TIP3    H225850   1.407   3.512  -0.003  0.6272  2.5668 -0.4260
 1431TIP3   OH225851   2.450   5.593   1.286  0.0180 -0.2866  0.0270
 1431TIP3    H125852   2.520   5.620   1.346 -0.5166  1.4247 -0.0819
 1431TIP3    H225853   2.456   5.654   1.213  0.2659 -1.9650 -1.4310
 1432TIP3   OH225854   5.263   4.252   8.007  0.0503  0.1346  0.1425
 1432TIP3    H125855   5.327   4.266   7.936  1.7560 -2.5788  1.0005
 1432TIP3    H225856   5.240   4.341   8.035  0.4583  1.2851 -2.7613
 1433TIP3   OH225857   4.116   6.126   7.350  0.1800  0.0652 -0.4012
 1433TIP3    H125858   4.199   6.090   7.382  0.3279 -0.1998 -1.0552
 1433TIP3    H225859   4.082   6.058   7.291  0.1012  0.6852 -1.0768
 1434TIP3   OH225860   1.957   6.572   7.949 -0.3247 -0.1842  0.5542
 1434TIP3    H125861   2.013   6.498   7.974  0.2639  0.0872  0.0823
 1434TIP3    H225862   1.868   6.539   7.958 -0.0852 -0.6445  1.2682
 1435TIP3   OH225863   6.440   0.912   7.723 -0.6120  0.3197  0.6619
 1435TIP3    H125864   6.422   0.983   7.661 -1.9937  0.9940  1.7613
 1435TIP3    H225865   6.357   0.864   7.729  0.3851 -1.6144 -0.2796
 1436TIP3   OH225866   4.958   3.480   0.057  0.3777  0.6926  0.1354
 1436TIP3    H125867   5.008   3.480   0.138  0.1511 -1.1023  0.3018
 1436TIP3    H225868   5.020   3.511  -0.009  1.5881 -0.9395  0.4424
 1437TIP3   OH225869   3.015   2.653   1.860  0.3118 -0.1180 -0.6752
 1437TIP3    H125870   2.948   2.692   1.915 -0.0693 -1.4297 -0.1802
 1437TIP3    H225871   2.969   2.590   1.804  0.8750  0.2638 -1.6112
 1438TIP3   OH225872   3.327   5.445   1.593 -0.8559 -0.0324 -0.4123
 1438TIP3    H125873   3.354   5.535   1.576  0.3113 -0.0204  1.1936
 1438TIP3    H225874   3.407   5.394   1.583 -1.2662 -0.7221 -0.2381
 1439TIP3   OH225875   2.582   0.500   0.535 -0.0871  0.2546 -0.0685
 1439TIP3    H125876   2.648   0.513   0.467  1.1753  0.7414  1.1961
 1439TIP3    H225877   2.632   0.467   0.611 -1.2372  0.8811  1.0003
 1440TIP3   OH225878   4.745   2.735   0.168  0.0829  0.3895 -0.5426
 1440TIP3    H125879   4.821   2.779   0.130  0.4286 -0.7156 -1.1730
 1440TIP3    H225880   4.684   2.726   0.095  0.3085 -0.7815 -0.6171
 1441TIP3   OH225881   1.594   6.453   8.403 -0.4903  0.2772  0.6145
 1441TIP3    H125882   1.628   6.367   8.377  1.7591  0.5051  2.4520
 1441TIP3    H225883   1.516   6.464   8.350  0.3947 -1.8972 -1.3654
 1442TIP3   OH225884   6.657   0.090   7.940 -0.4564  0.6115 -0.4386
 1442TIP3    H125885   6.743   0.110   7.903 -0.3202  0.3058 -0.2960
 1442TIP3    H225886   6.594   0.126   7.877 -0.2285  1.7197 -0.0606
 1443TIP3   OH225887   3.252   6.560   1.320  0.0964  0.4458  0.6381
 1443TIP3    H125888   3.279   6.501   1.390 -2.9791  0.9451  2.4201
 1443TIP3    H225889   3.190   6.508   1.268  0.3815  0.9121 -0.1960
 1444TIP3   OH225890   3.539   3.654   7.711 -0.0397 -0.0846  0.1911
 1444TIP3    H125891   3.546   3.705   7.792  0.5388 -1.4413  1.0404
 1444TIP3    H225892   3.585   3.707   7.646  0.9158  0.3014  1.1394
 1445TIP3   OH225893   4.972   5.320   8.109  0.1528 -0.0342  0.0958
 1445TIP3    H125894   5.045   5.260   8.098  0.6448  0.5552  0.0920
 1445TIP3    H225895   4.895   5.268   8.087  0.2881 -1.3983  2.5227
 1446TIP3   OH225896   4.931   6.258   7.784 -0.0606 -0.1194  0.2161
 1446TIP3    H125897   4.923   6.246   7.689  1.6668  3.2550 -0.4977
 1446TIP3    H225898   4.851   6.305   7.809 -0.1847 -0.3766  0.3071
 1447TIP3   OH225899   3.462   2.490   1.398 -0.3499 -0.4423 -0.1402
 1447TIP3    H125900   3.382   2.537   1.375  0.4648  0.4637 -1.2684
 1447TIP3    H225901   3.436   2.399   1.406 -1.6644 -0.0314  0.4768
 1448TIP3   OH225902   4.717   1.550   3.048 -0.2687  0.2400 -0.0089
 1448TIP3    H125903   4.776   1.615   3.084 -0.1535  0.5700 -0.7684
 1448TIP3    H225904   4.629   1.582   3.070 -0.2143  0.6897 -0.4230
 1449TIP3   OH225905   1.040   3.238   1.360 -0.3244 -0.4586  0.3686
 1449TIP3    H125906   1.090   3.160   1.384 -0.2572  0.2649  2.9163
 1449TIP3    H225907   1.088   3.275   1.285  3.8353  0.7475  3.2008
 1450TIP3   OH225908   0.886   6.033   2.977  0.1991 -0.1213  0.6292
 1450TIP3    H125909   0.920   5.944   2.966 -0.5658 -0.4289  0.6764
 1450TIP3    H225910   0.963   6.089   2.969  0.5987 -0.7418 -0.0586
 1451TIP3   OH225911   6.790   2.665   0.452  0.7484  0.4812 -0.7676
 1451TIP3    H125912   6.776   2.753   0.418  0.2503  0.7617  0.1223
 1451TIP3    H225913   6.878   2.641   0.423  1.6907  2.0445  0.5731
 1452TIP3   OH225914   2.566   3.353   1.540  0.0893  0.0916  0.2042
 1452TIP3    H125915   2.485   3.327   1.494 -0.9002 -0.1989  2.0147
 1452TIP3    H225916   2.542   3.351   1.633  1.8335  1.3005  0.7197
 1453TIP3   OH225917   2.332   3.767   7.697 -0.1587 -0.3699  0.1652
 1453TIP3    H125918   2.252   3.819   7.695 -1.1109 -1.8125 -0.3126
 1453TIP3    H225919   2.344   3.737   7.607  0.6438 -0.5874  0.3346
 1454TIP3   OH225920   1.791   2.164   0.901  0.3434 -0.5038 -0.2023
 1454TIP3    H125921   1.762   2.131   0.815 -0.2252 -0.1233 -0.1602
 1454TIP3    H225922   1.710   2.185   0.947  0.5878 -1.9772  0.9542
 1455TIP3   OH225923   4.017   0.465   1.903  0.1322 -0.4223 -0.6875
 1455TIP3    H125924   4.092   0.429   1.856  0.4967 -1.3391  0.5332
 1455TIP3    H225925   3.953   0.393   1.904 -0.0265 -0.2786 -0.1435
 1456TIP3   OH225926   6.350   5.259   7.914  0.0375  0.4792  0.1201
 1456TIP3    H125927   6.284   5.256   7.844  0.5233  1.1380 -0.3735
 1456TIP3    H225928   6.407   5.184   7.895 -1.3618 -1.0044  1.3885
 1457TIP3   OH225929   1.191   5.542   1.376 -0.1481 -0.0556 -0.2443
 1457TIP3    H125930   1.229   5.528   1.290 -0.8614 -1.0710 -0.4091
 1457TIP3    H225931   1.109   5.587   1.359 -0.3944 -0.4544 -0.1094
 1458TIP3   OH225932   2.148   1.020   0.480 -0.4559 -0.2316 -0.4335
 1458TIP3    H125933   2.092   1.091   0.448 -0.7082 -0.3032 -0.1604
 1458TIP3    H225934   2.214   1.064   0.533 -0.6299 -0.2022 -0.2398
 1459TIP3   OH225935   3.587   2.144   7.099 -0.2947 -0.1533 -0.0076
 1459TIP3    H125936   3.624   2.096   7.025 -0.4778 -0.1154 -0.1251
 1459TIP3    H225937   3.607   2.236   7.081  1.2615 -0.2942  0.9045
 1460TIP3   OH225938   0.840   1.890   7.991 -0.0833  0.1410 -0.3171
 1460TIP3    H125939   0.897   1.906   8.067  1.1039  0.9134 -1.3192
 1460TIP3    H225940   0.833   1.795   7.986  0.4996  0.0572  0.3003
 1461TIP3   OH225941   1.126   4.044   0.250 -0.2170  0.0651  0.3313
 1461TIP3    H125942   1.140   3.988   0.173 -0.3964 -0.3913  0.6262
 1461TIP3    H225943   1.120   3.983   0.323 -0.4065  0.4735  0.6619
 1462TIP3   OH225944   5.321   0.365   8.564  0.1215  0.0402  0.3285
 1462TIP3    H125945   5.403   0.364   8.612  0.1863  0.2728  0.2242
 1462TIP3    H225946   5.303   0.458   8.548  0.4009 -0.0487 -0.5995
 1463TIP3   OH225947   1.371   1.635   1.010 -0.2903 -0.2396  0.2684
 1463TIP3    H125948   1.451   1.603   0.967  0.6490  1.6802  0.4917
 1463TIP3    H225949   1.376   1.599   1.099  1.2906  1.2604  0.8455
 1464TIP3   OH225950   6.242   4.644   1.054  0.5412 -0.4676  0.4158
 1464TIP3    H125951   6.332   4.612   1.059  1.3534  1.4799 -0.7150
 1464TIP3    H225952   6.204   4.596   0.980  0.9307 -0.6640  0.3416
 1465TIP3   OH225953   4.368   5.877   0.652  0.6096 -0.9194  0.4866
 1465TIP3    H125954   4.407   5.885   0.565  0.4781  0.7168  0.5418
 1465TIP3    H225955   4.440   5.897   0.712  0.3431 -0.5393  0.6862
 1466TIP3   OH225956   6.101   1.004   7.453 -0.3438 -0.8889 -0.0530
 1466TIP3    H125957   6.044   0.968   7.385  0.5067 -1.1877 -0.6236
 1466TIP3    H225958   6.123   0.930   7.508  1.2307 -1.2499 -1.1015
 1467TIP3   OH225959   3.971   6.688   8.622 -0.4751 -0.0576 -0.1673
 1467TIP3    H125960   4.049   6.637   8.599  0.5129  0.6954  1.3571
 1467TIP3    H225961   4.005   6.772   8.652 -2.0813  1.6900 -2.8460
 1468TIP3   OH225962   5.143   0.892   0.737  0.6701 -0.0753  0.0737
 1468TIP3    H125963   5.221   0.844   0.709  0.3097  0.1674 -1.4215
 1468TIP3    H225964   5.169   0.984   0.733  0.5246 -0.0252  0.2756
 1469TIP3   OH225965   6.782   5.610   1.096  0.2059  0.0302 -0.0463
 1469TIP3    H125966   6.851   5.557   1.135  0.0797 -0.1618 -0.0776
 1469TIP3    H225967   6.790   5.696   1.136 -0.4684 -0.3975  1.0490
 1470TIP3   OH225968   0.178   6.126   1.191 -0.6003  0.5661  0.2613
 1470TIP3    H125969   0.223   6.208   1.209 -0.6651  0.3645  1.4618
 1470TIP3    H225970   0.245   6.069   1.153 -0.2706  0.8111  0.4751
 1471TIP3   OH225971   6.216   6.376   0.488 -0.5164  0.0706  0.0942
 1471TIP3    H125972   6.276   6.447   0.467 -0.0234 -0.7024 -1.2458
 1471TIP3    H225973   6.272   6.299   0.497 -1.1671 -0.3918  0.2501
 1472TIP3   OH225974   1.709   0.571   7.625 -0.3863 -0.1103  0.3736
 1472TIP3    H125975   1.738   0.662   7.632 -0.1378  0.0066 -1.5745
 1472TIP3    H225976   1.647   0.572   7.552  0.0586 -1.5941 -0.0489
 1473TIP3   OH225977   3.450   3.683   0.370 -0.0741 -0.2109 -0.0502
 1473TIP3    H125978   3.364   3.655   0.401 -0.8114  2.7777  0.9336
 1473TIP3    H225979   3.431   3.744   0.298  1.3443 -1.1227 -1.2592
 1474TIP3   OH225980   4.452   6.045   8.662  0.2385  0.2789  0.2463
 1474TIP3    H125981   4.415   6.079   8.743  1.4797 -1.2143  1.5113
 1474TIP3    H225982   4.544   6.071   8.665  1.3934 -3.3130  1.5324
 1475TIP3   OH225983   1.489   1.180   0.503 -0.0119 -0.0187 -0.5300
 1475TIP3    H125984   1.426   1.241   0.466  0.2248 -1.4026 -3.4567
 1475TIP3    H225985   1.563   1.181   0.443  1.6685 -0.4141  1.3963
 1476TIP3   OH225986   2.194   3.435   8.714 -0.5660  0.2349 -0.3809
 1476TIP3    H125987   2.216   3.345   8.687 -2.3097 -0.1947 -0.4475
 1476TIP3    H225988   2.260   3.456   8.780 -0.2728 -1.1957 -0.1745
 1477TIP3   OH225989   1.059   6.791   1.674  0.1360  0.2443  0.0376
 1477TIP3    H125990   1.147   6.763   1.651  0.5330  2.1717 -0.9722
 1477TIP3    H225991   1.030   6.843   1.599 -1.4384  0.5478  0.8170
 1478TIP3   OH225992   6.267   5.485   7.686  0.1446  0.0936  0.0075
 1478TIP3    H125993   6.317   5.559   7.651 -0.4902  0.1238 -0.8800
 1478TIP3    H225994   6.325   5.410   7.677  0.0225  0.1097 -1.1065
 1479TIP3   OH225995   4.168   6.530   1.073 -0.0084  0.3140 -0.1400
 1479TIP3    H125996   4.130   6.464   1.015  0.7383  1.9061 -2.6474
 1479TIP3    H225997   4.229   6.578   1.017 -0.6450  3.2441  1.4297
 1480TIP3   OH225998   2.131   1.526   0.005 -0.3103 -0.0919 -0.1941
 1480TIP3    H125999   2.054   1.575   0.035  1.3201  2.2027  0.5377
 1480TIP3    H226000   2.203   1.588   0.011  1.8209 -2.4070  0.0501
 1481TIP3   OH226001   1.316   2.000   2.097  0.3672 -0.1264  0.1622
 1481TIP3    H126002   1.361   1.932   2.147 -0.3718 -1.7231 -1.2828
 1481TIP3    H226003   1.234   2.016   2.145  0.2246 -0.7531  0.1247
 1482TIP3   OH226004   1.247   6.506   1.181 -0.0226  0.1068 -0.2857
 1482TIP3    H126005   1.281   6.582   1.134 -0.9683 -0.5754 -2.1735
 1482TIP3    H226006   1.303   6.433   1.153  0.4202 -0.0465  0.9422
 1483TIP3   OH226007   2.039   2.245   2.546  0.8260 -0.1299 -0.4641
 1483TIP3    H126008   2.069   2.331   2.518 -1.0535  1.5725  2.1855
 1483TIP3    H226009   2.103   2.217   2.611 -0.3458  1.0241  1.2792
 1484TIP3   OH226010   2.185   5.979   7.949 -0.5304 -0.2502  0.0055
 1484TIP3    H126011   2.268   5.993   7.993 -0.1109 -2.3959  0.0102
 1484TIP3    H226012   2.125   5.950   8.018 -0.1621 -2.5595 -0.5630
 1485TIP3   OH226013   0.568   0.191   2.420  0.4428  0.1679 -0.3703
 1485TIP3    H126014   0.519   0.158   2.495 -2.1090  1.8579 -1.1729
 1485TIP3    H226015   0.577   0.115   2.362  0.8004 -0.7114  0.8193
 1486TIP3   OH226016   6.790   3.210   0.629  0.5436  0.4087  0.0999
 1486TIP3    H126017   6.800   3.289   0.576  1.0608  0.9587  0.9760
 1486TIP3    H226018   6.697   3.206   0.648  0.4711  0.6453 -0.1930
 1487TIP3   OH226019   0.417   5.392   7.762  0.0403  0.1778 -0.1299
 1487TIP3    H126020   0.334   5.429   7.791 -0.8688 -2.0962  0.3480
 1487TIP3    H226021   0.403   5.298   7.761  1.8706 -0.1748 -2.3930
 1488TIP3   OH226022   0.245   0.615   1.118 -0.3237  0.5982  0.1288
 1488TIP3    H126023   0.316   0.654   1.169 -0.3605  1.2035 -0.2760
 1488TIP3    H226024   0.277   0.616   1.028  0.0768 -1.2025  0.2117
 1489TIP3   OH226025   2.921   1.860   1.371  0.0046  0.0340  0.0706
 1489TIP3    H126026   2.975   1.937   1.385  0.7911 -0.4864 -0.0559
 1489TIP3    H226027   2.980   1.786   1.387 -0.5690 -0.5427 -0.4369
 1490TIP3   OH226028   3.371   3.268   2.713  0.2765  0.6482  0.4325
 1490TIP3    H126029   3.338   3.249   2.801 -3.2698 -0.0365 -0.8729
 1490TIP3    H226030   3.445   3.208   2.702  1.0210  0.9602  2.9924
 1491TIP3   OH226031   1.880   4.123   2.009  0.3476 -0.0127 -0.3493
 1491TIP3    H126032   1.879   4.151   2.101  0.4569  0.5132 -0.5085
 1491TIP3    H226033   1.953   4.170   1.970  1.5654 -1.7135 -0.2558
 1492TIP3   OH226034   6.457   6.726   1.135 -0.3223 -0.2519  0.5030
 1492TIP3    H126035   6.497   6.723   1.048 -1.0138 -2.8085  0.1873
 1492TIP3    H226036   6.531   6.737   1.195  0.2871  0.3305 -0.3328
 1493TIP3   OH226037   3.553   3.631   2.488  0.2397  0.4941  0.7514
 1493TIP3    H126038   3.523   3.670   2.406 -0.4195  0.0850  0.7903
 1493TIP3    H226039   3.481   3.573   2.515  1.0261 -0.4442  0.8956
 1494TIP3   OH226040   3.030   2.987   1.221 -0.2368 -0.3168 -0.5723
 1494TIP3    H126041   3.071   3.023   1.300 -0.8078 -1.7721  0.4320
 1494TIP3    H226042   3.102   2.947   1.172  0.3668  1.8756 -1.5863
 1495TIP3   OH226043   6.716   4.279   7.978 -0.3726  0.4876 -0.3722
 1495TIP3    H126044   6.773   4.347   8.012 -0.1011 -0.5923  1.5025
 1495TIP3    H226045   6.629   4.320   7.974 -0.1987  0.9789  0.6307
 1496TIP3   OH226046   3.882   3.786   7.785 -0.3237 -0.5062  0.2910
 1496TIP3    H126047   3.953   3.818   7.729 -0.1575  0.8118  1.2201
 1496TIP3    H226048   3.908   3.696   7.807  0.6175 -0.3450 -0.1022
 1497TIP3   OH226049   4.280   1.012   0.956  0.1010 -0.2312 -0.2051
 1497TIP3    H126050   4.208   0.973   0.907  1.2434 -1.4227 -1.0294
 1497TIP3    H226051   4.286   0.959   1.035  0.7743 -0.8887 -0.6786
 1498TIP3   OH226052   6.525   1.221   1.004 -0.0861  0.1974 -0.1143
 1498TIP3    H126053   6.560   1.132   1.007  2.3491  1.0533 -0.9491
 1498TIP3    H226054   6.439   1.211   0.964 -0.8820 -2.0037  1.8579
 1499TIP3   OH226055   2.097   4.267   1.887 -0.2325 -0.3367  0.3314
 1499TIP3    H126056   2.118   4.338   1.827 -1.5245  0.1230  0.3852
 1499TIP3    H226057   2.106   4.188   1.833 -1.3499  0.0638 -0.4977
 1500TIP3   OH226058   6.714   5.480   0.111 -0.2710 -0.2466  0.8284
 1500TIP3    H126059   6.798   5.442   0.085  0.4782  1.4625  0.6238
 1500TIP3    H226060   6.724   5.574   0.096 -1.8922  0.1129  1.7241
 1501TIP3   OH226061   4.721   3.335   0.074  0.1758 -0.0999 -0.3588
 1501TIP3    H126062   4.792   3.399   0.065 -0.8085  0.9959 -0.5592
 1501TIP3    H226063   4.709   3.299  -0.014  0.1787  0.0472 -0.4189
 1502TIP3   OH226064   4.415   2.100   0.020  0.0664 -0.0714  0.1485
 1502TIP3    H126065   4.426   2.152   0.100 -2.4015  1.1470 -0.2090
 1502TIP3    H226066   4.410   2.165  -0.050 -1.4349 -0.8530 -0.5230
 1503TIP3   OH226067   4.365   5.492   0.272 -0.3852 -0.0143  0.2706
 1503TIP3    H126068   4.438   5.434   0.296 -0.0205  0.2178 -0.2674
 1503TIP3    H226069   4.314   5.501   0.353  0.5613  0.3731  0.8355
 1504TIP3   OH226070   3.748   4.694   8.035  0.1976 -0.3164 -0.7026
 1504TIP3    H126071   3.676   4.676   7.975 -0.2996 -2.3195  0.4202
 1504TIP3    H226072   3.759   4.789   8.031 -0.4408 -0.2916 -3.1991
 1505TIP3   OH226073   0.517   2.535   1.359  0.7370  0.5360 -0.3705
 1505TIP3    H126074   0.478   2.619   1.337  0.3166  0.2030 -0.8950
 1505TIP3    H226075   0.610   2.545   1.338  0.3659  0.2459 -2.2786
 1506TIP3   OH226076   6.757   5.718   2.603  0.1606 -0.4139 -0.1770
 1506TIP3    H126077   6.747   5.810   2.627 -2.1276 -0.7556  0.4809
 1506TIP3    H226078   6.842   5.713   2.560  1.4008  1.5658  1.8000
 1507TIP3   OH226079   3.501   5.084   3.043  0.2896  0.6922  0.4342
 1507TIP3    H126080   3.519   5.003   3.091  1.0927 -0.6095 -1.8920
 1507TIP3    H226081   3.406   5.090   3.041  0.2349  0.5845  1.8190
 1508TIP3   OH226082   3.501   5.920   0.220  0.1657  0.2074 -0.4082
 1508TIP3    H126083   3.580   5.973   0.230 -1.0784  2.1317 -0.3142
 1508TIP3    H226084   3.534   5.831   0.205  2.3450  1.0806 -1.2470
 1509TIP3   OH226085   5.330   0.853   1.581  0.6898  0.6047  0.3187
 1509TIP3    H126086   5.263   0.870   1.647  1.6599  0.4226  1.3666
 1509TIP3    H226087   5.388   0.929   1.587  1.3720  0.0759  0.4109
 1510TIP3   OH226088   0.913   2.428   1.573 -0.0383 -0.3113 -0.1149
 1510TIP3    H126089   0.895   2.359   1.509 -0.1756 -1.1694  0.8312
 1510TIP3    H226090   0.991   2.398   1.619  0.3732  0.5595 -0.2377
 1511TIP3   OH226091   0.211   0.624   8.679 -0.2244  0.6352  0.4545
 1511TIP3    H126092   0.151   0.674   8.623  0.9233 -0.1274 -1.5506
 1511TIP3    H226093   0.294   0.670   8.672  1.3705 -2.2631 -2.8810
 1512TIP3   OH226094   6.486   5.037   1.947  0.0217  0.2058  0.0299
 1512TIP3    H126095   6.524   4.989   1.874 -0.9863  0.0381 -0.4124
 1512TIP3    H226096   6.488   5.129   1.919 -0.1887  0.1622 -0.1284
 1513TIP3   OH226097   2.315   1.713   0.130  0.1025  0.3101 -0.0326
 1513TIP3    H126098   2.326   1.807   0.118  1.4928 -0.1426 -3.0511
 1513TIP3    H226099   2.403   1.681   0.153  0.2373 -0.5286 -1.5988
 1514TIP3   OH226100   5.622   0.485   0.902  0.1199 -0.2581 -0.4710
 1514TIP3    H126101   5.695   0.543   0.880 -0.3709  0.3161 -0.6151
 1514TIP3    H226102   5.587   0.458   0.817 -0.5943  0.4520 -0.4181
 1515TIP3   OH226103   5.058   4.138   7.882  0.2558 -0.4203 -0.3733
 1515TIP3    H126104   5.136   4.145   7.937 -0.6089  0.6182  0.7794
 1515TIP3    H226105   4.987   4.117   7.943 -0.3874 -1.2872 -1.3907
 1516TIP3   OH226106   2.496   3.996   1.556 -0.2004 -0.2687  0.0859
 1516TIP3    H126107   2.559   4.068   1.559 -1.3463  0.7997 -0.5119
 1516TIP3    H226108   2.521   3.946   1.478 -0.5501  0.6040 -0.6028
 1517TIP3   OH226109   5.460   4.451   8.636 -0.2319 -0.0901 -0.0394
 1517TIP3    H126110   5.510   4.458   8.717  1.8235  0.5931 -1.2988
 1517TIP3    H226111   5.518   4.406   8.576 -1.2128  0.5413 -1.5062
 1518TIP3   OH226112   5.545   3.059   0.273 -0.2213  0.8926  0.2579
 1518TIP3    H126113   5.488   3.106   0.334  1.0194  1.5269  0.9643
 1518TIP3    H226114   5.561   3.121   0.202 -1.4607  0.2437 -0.6095
 1519TIP3   OH226115   3.362   2.199   8.221  0.0466 -0.0966  0.2196
 1519TIP3    H126116   3.414   2.131   8.179 -0.0718  0.4201 -0.7758
 1519TIP3    H226117   3.426   2.262   8.254  0.2156 -1.1054  1.9572
 1520TIP3   OH226118   4.844   4.781   0.232  0.0453 -0.0003 -0.5543
 1520TIP3    H126119   4.871   4.768   0.323 -0.9549  0.6875 -0.1398
 1520TIP3    H226120   4.917   4.830   0.192  0.3516 -0.0353 -0.0466
 1521TIP3   OH226121   0.126   0.249   7.051  0.0279  0.0452 -0.2764
 1521TIP3    H126122   0.192   0.180   7.054 -0.7591 -0.8544 -2.2089
 1521TIP3    H226123   0.067   0.229   7.124  0.6417 -0.4358  0.0991
 1522TIP3   OH226124   0.259   5.971   7.245 -0.2046  0.2091 -0.0786
 1522TIP3    H126125   0.303   5.947   7.326 -1.0009 -0.8541  0.0688
 1522TIP3    H226126   0.202   6.044   7.269 -0.1522  0.1467  0.2366
 1523TIP3   OH226127   3.805   3.402   7.564 -1.2766  0.0762 -0.5282
 1523TIP3    H126128   3.861   3.366   7.633 -1.1365  1.2205 -0.0244
 1523TIP3    H226129   3.719   3.363   7.581 -1.2655  0.4180  0.3707
 1524TIP3   OH226130   2.384   3.937   2.594  0.0632 -0.3715 -0.4533
 1524TIP3    H126131   2.290   3.957   2.598  0.1335 -0.1952  0.3811
 1524TIP3    H226132   2.420   4.004   2.536 -0.2812 -0.2674 -0.5503
 1525TIP3   OH226133   5.550   3.353   1.673  0.0441 -0.4705 -0.2306
 1525TIP3    H126134   5.567   3.390   1.587 -0.4415 -1.8614 -0.9489
 1525TIP3    H226135   5.613   3.396   1.731  0.5577  0.2782 -1.3280
 1526TIP3   OH226136   6.501   5.680   1.098  0.4823 -0.2453 -0.3671
 1526TIP3    H126137   6.593   5.659   1.083  1.0786  1.8208 -0.0490
 1526TIP3    H226138   6.466   5.605   1.146  2.2716 -0.6744  0.3464
 1527TIP3   OH226139   1.041   0.515   2.829 -0.1798  0.0892 -0.1672
 1527TIP3    H126140   1.002   0.600   2.848  3.1323  1.5831  0.5297
 1527TIP3    H226141   1.078   0.486   2.912 -0.8759 -1.9314 -0.4870
 1528TIP3   OH226142   1.029   6.503   1.451 -1.0580 -0.2675  0.2371
 1528TIP3    H126143   0.961   6.540   1.507 -0.5801  1.6963 -0.4132
 1528TIP3    H226144   1.082   6.449   1.511 -1.2154  0.8731  1.4579
 1529TIP3   OH226145   2.829   4.056   2.304 -0.1777  0.1936  0.2257
 1529TIP3    H126146   2.806   3.964   2.322  1.2844 -0.5708 -1.5178
 1529TIP3    H226147   2.815   4.100   2.388 -1.1495 -1.5642  1.0560
 1530TIP3   OH226148   4.468   3.675   1.263 -0.7835  0.3629 -0.4279
 1530TIP3    H126149   4.462   3.587   1.299 -1.5110  1.2531  1.7891
 1530TIP3    H226150   4.385   3.688   1.217 -1.6974  0.6542  1.2239
 1531TIP3   OH226151   6.010   5.379   0.230  0.1664  0.6954 -0.5623
 1531TIP3    H126152   6.100   5.347   0.224  0.3604  1.3893 -1.7559
 1531TIP3    H226153   6.019   5.469   0.263 -0.2350  0.2110  0.9597
 1532TIP3   OH226154   4.654   0.865   2.069  0.0079  0.1052 -0.3218
 1532TIP3    H126155   4.645   0.889   1.977 -2.2743 -0.4054 -0.2952
 1532TIP3    H226156   4.612   0.779   2.076  1.5682 -0.6070  0.9150
 1533TIP3   OH226157   0.493   4.337   0.026  0.2361 -0.1801  0.5220
 1533TIP3    H126158   0.537   4.321  -0.057  0.6991 -0.0513  0.7365
 1533TIP3    H226159   0.434   4.411   0.009  1.7310  1.1207  0.7731
 1534TIP3   OH226160   2.065   2.342   8.666  0.8586 -0.1672 -0.5109
 1534TIP3    H126161   1.984   2.385   8.694 -1.7344 -3.2663 -2.5205
 1534TIP3    H226162   2.074   2.267   8.726  0.0002 -2.0054 -2.5680
 1535TIP3   OH226163   2.487   2.880   8.054 -0.0588 -0.2251 -0.1597
 1535TIP3    H126164   2.454   2.940   7.988 -0.6707  2.3171  2.2643
 1535TIP3    H226165   2.423   2.809   8.056 -1.3754  0.8986 -0.6564
 1536TIP3   OH226166   4.070   2.104   7.835 -0.4076 -0.8733 -0.1910
 1536TIP3    H126167   4.153   2.093   7.881 -0.5638 -0.7429  0.1251
 1536TIP3    H226168   4.091   2.161   7.761 -0.0413 -1.5413 -0.6074
 1537TIP3   OH226169   6.107   0.590   0.737  0.5685  0.3018 -0.3585
 1537TIP3    H126170   6.133   0.654   0.803  0.2132  0.1529 -0.0672
 1537TIP3    H226171   6.078   0.514   0.787  0.1271  0.2533 -0.6791
 1538TIP3   OH226172   5.916   0.582   1.017  0.1537  0.3001  0.4209
 1538TIP3    H126173   5.958   0.509   0.972  0.4472 -0.0339  1.2141
 1538TIP3    H226174   5.879   0.636   0.947  1.0755  0.0922 -0.2373
 1539TIP3   OH226175   2.389   6.828   7.083  1.4091  0.9135 -0.1632
 1539TIP3    H126176   2.427   6.846   6.997  1.2870  0.2744 -0.3543
 1539TIP3    H226177   2.349   6.742   7.074  0.1775  1.4249  0.1237
 1540TIP3   OH226178   4.509   5.418   2.821  0.5332 -0.6140 -0.0265
 1540TIP3    H126179   4.424   5.379   2.840 -0.6449  1.0975 -1.4702
 1540TIP3    H226180   4.497   5.462   2.737  2.6448  0.2956  0.0856
 1541TIP3   OH226181   2.871   4.230   8.395 -0.3130 -0.5091 -0.2704
 1541TIP3    H126182   2.899   4.179   8.471 -1.0731 -1.7861 -0.8058
 1541TIP3    H226183   2.924   4.196   8.323  0.4321  0.7212 -0.3261
 1542TIP3   OH226184   3.385   1.605   7.998 -0.0426 -0.0815  0.0189
 1542TIP3    H126185   3.462   1.606   8.054 -0.0574 -0.8864  0.0686
 1542TIP3    H226186   3.351   1.516   8.005 -0.8327  0.1899 -0.2028
 1543TIP3   OH226187   1.095   6.427   0.247 -0.3930 -0.0403  0.0898
 1543TIP3    H126188   1.140   6.396   0.168  1.5461  1.5577  0.4693
 1543TIP3    H226189   1.109   6.522   0.246 -1.5116  0.1767  1.6582
 1544TIP3   OH226190   4.267   1.534   7.505  0.5048  0.6270  0.2795
 1544TIP3    H126191   4.234   1.446   7.486 -0.1237  0.4929  1.8847
 1544TIP3    H226192   4.235   1.588   7.433  0.6960 -0.4026 -0.5965
 1545TIP3   OH226193   2.018   2.020   7.569  0.3417  0.1841  0.0692
 1545TIP3    H126194   1.924   2.036   7.581  0.3330  1.1213 -1.0876
 1545TIP3    H226195   2.049   2.095   7.517  1.2807 -1.2415 -1.5288
 1546TIP3   OH226196   2.744   4.596   7.575 -0.4910  0.2026  0.0073
 1546TIP3    H126197   2.820   4.635   7.533  0.8828  0.5557  2.6373
 1546TIP3    H226198   2.684   4.669   7.588  0.3194  0.6824  1.2108
 1547TIP3   OH226199   6.514   3.580   3.175 -0.3221  0.3812  0.1337
 1547TIP3    H126200   6.552   3.511   3.229 -2.1285 -0.5337  0.3184
 1547TIP3    H226201   6.505   3.655   3.234  1.1198  0.6299  0.0784
 1548TIP3   OH226202   6.337   6.404   2.010  0.1201  0.1932  0.3395
 1548TIP3    H126203   6.270   6.452   1.960  0.3164  2.4282  2.1031
 1548TIP3    H226204   6.329   6.437   2.099  0.0313 -3.3929  1.8409
 1549TIP3   OH226205   1.763   1.931   1.086 -0.6235  0.4296 -0.1106
 1549TIP3    H126206   1.797   2.014   1.054  0.0589  0.9589  1.8662
 1549TIP3    H226207   1.672   1.930   1.056  0.1311  0.5068 -2.6389
 1550TIP3   OH226208   0.419   4.505   2.323 -0.0757  0.0017 -0.7932
 1550TIP3    H126209   0.413   4.595   2.356  0.7740  0.1658 -1.0784
 1550TIP3    H226210   0.373   4.453   2.389  0.0247  0.5544 -0.2756
 1551TIP3   OH226211   5.886   1.513   1.759 -0.0762 -0.0927  0.3787
 1551TIP3    H126212   5.870   1.422   1.736  0.0898 -0.0566  0.1084
 1551TIP3    H226213   5.805   1.558   1.739  0.7518  0.3563 -2.3844
 1552TIP3   OH226214   0.051   4.136   2.389 -0.0806  0.6671 -0.2135
 1552TIP3    H126215   0.081   4.188   2.463 -3.6253 -0.2097  2.0783
 1552TIP3    H226216  -0.012   4.192   2.344 -0.7770 -0.1173 -0.2498
 1553TIP3   OH226217   1.981   6.808   0.335 -0.3664  0.2757 -0.8074
 1553TIP3    H126218   2.049   6.871   0.360  0.4490  0.3013 -2.8352
 1553TIP3    H226219   2.022   6.722   0.348 -1.7766  0.0106  2.7869
 1554TIP3   OH226220   3.294   1.596   1.961 -0.4202  0.3966  0.5292
 1554TIP3    H126221   3.310   1.565   2.051  0.1915 -0.5870  0.1047
 1554TIP3    H226222   3.301   1.517   1.908 -0.2642  1.0552 -0.4469
 1555TIP3   OH226223   6.660   2.156   1.806  0.0914 -0.3666 -0.1525
 1555TIP3    H126224   6.658   2.239   1.758  0.2775  0.1400  0.6922
 1555TIP3    H226225   6.582   2.109   1.777 -0.0206  0.1077 -0.6290
 1556TIP3   OH226226   3.587   5.739   7.920 -0.0651  0.4059  0.2103
 1556TIP3    H126227   3.541   5.758   7.838 -1.9106  2.5393  1.5906
 1556TIP3    H226228   3.590   5.824   7.965  3.4821 -0.0956  1.1581
 1557TIP3   OH226229   0.214   5.535   0.735 -0.5548  0.3041 -0.0773
 1557TIP3    H126230   0.153   5.482   0.786  0.9912 -0.8838  0.6533
 1557TIP3    H226231   0.269   5.578   0.801  1.0796 -0.7609 -0.6783
 1558TIP3   OH226232   4.878   0.486   3.477  0.3834  0.2606  0.2921
 1558TIP3    H126233   4.810   0.549   3.500 -0.0503  0.2355 -0.8222
 1558TIP3    H226234   4.960   0.527   3.503  0.0543  0.9893  0.1981
 1559TIP3   OH226235   4.606   2.384   2.242  0.0580  0.5009 -0.0297
 1559TIP3    H126236   4.636   2.298   2.273 -1.4441  0.2865  0.9118
 1559TIP3    H226237   4.655   2.398   2.161  1.5681 -0.4818  0.6619
 1560TIP3   OH226238   3.098   0.668   0.251  0.5993 -0.0887  0.1008
 1560TIP3    H126239   3.143   0.746   0.283  0.1319  0.3927 -0.4043
 1560TIP3    H226240   3.153   0.636   0.180  0.0547  0.6151 -0.6496
 1561TIP3   OH226241   2.439   3.948   7.870  0.5619 -0.8630  0.7282
 1561TIP3    H126242   2.391   3.887   7.813  0.9264 -1.8450  1.4371
 1561TIP3    H226243   2.407   3.927   7.958 -0.3320  0.9363  0.8743
 1562TIP3   OH226244   0.887   3.369   8.230 -0.1419 -0.0833 -0.4776
 1562TIP3    H126245   0.855   3.451   8.194 -0.7997  0.5053  1.3768
 1562TIP3    H226246   0.967   3.393   8.278 -0.1876 -0.5684 -0.1501
 1563TIP3   OH226247   1.512   1.762   8.695 -0.1224 -0.0882 -0.4302
 1563TIP3    H126248   1.454   1.786   8.768  0.8488  2.2927 -0.3622
 1563TIP3    H226249   1.561   1.686   8.727 -0.5028  0.2206  0.9538
 1564TIP3   OH226250   6.665   2.495   2.096  0.0697 -0.4946 -0.3257
 1564TIP3    H126251   6.722   2.504   2.173 -0.4806 -0.7284  0.1187
 1564TIP3    H226252   6.700   2.558   2.033 -0.7793  1.2889  0.9189
 1565TIP3   OH226253   0.152   4.946   0.367  0.1736  0.1718 -0.3262
 1565TIP3    H126254   0.097   5.010   0.322  0.1431 -0.4081 -1.1280
 1565TIP3    H226255   0.149   4.973   0.459 -0.1628  1.0780 -0.5903
 1566TIP3   OH226256   2.898   3.614   1.967 -0.2191 -0.3494 -0.2019
 1566TIP3    H126257   2.992   3.626   1.979 -0.7024  2.1130  2.3687
 1566TIP3    H226258   2.882   3.635   1.875  1.7405 -1.1715 -0.7720
 1567TIP3   OH226259   1.073   5.445   2.437  0.3279  0.1667 -0.0828
 1567TIP3    H126260   1.020   5.474   2.363 -1.0366  0.2238  0.8762
 1567TIP3    H226261   1.131   5.379   2.401 -3.1122 -2.9077 -0.5285
 1568TIP3   OH226262   0.501   3.047   8.183 -0.3317  0.0075  0.6754
 1568TIP3    H126263   0.531   3.046   8.274 -0.3149  1.5028  0.7102
 1568TIP3    H226264   0.551   3.118   8.142  0.4366 -1.3079 -0.7970
 1569TIP3   OH226265   1.765   4.563   7.200  0.0166  0.0285 -0.4643
 1569TIP3    H126266   1.779   4.635   7.139 -0.9011 -0.7959 -1.6872
 1569TIP3    H226267   1.853   4.528   7.215  0.2892  0.4230 -1.0922
 1570TIP3   OH226268   2.251   5.670   7.974  0.4340 -0.5538  0.1544
 1570TIP3    H126269   2.258   5.705   7.885  1.4190 -0.0385  0.4150
 1570TIP3    H226270   2.316   5.719   8.024  0.5123 -1.4478  0.9648
 1571TIP3   OH226271   0.966   1.708   2.006 -0.5579  0.3671 -0.6538
 1571TIP3    H126272   0.930   1.621   2.024 -0.1601 -0.2213 -2.4376
 1571TIP3    H226273   0.895   1.768   2.028 -0.4433 -0.2723  1.7313
 1572TIP3   OH226274   4.825   1.128   1.805  0.2915  0.1192 -0.1127
 1572TIP3    H126275   4.774   1.187   1.861 -0.6313 -2.5001  2.0121
 1572TIP3    H226276   4.916   1.143   1.832 -0.0092 -0.0240  1.0224
 1573TIP3   OH226277   1.303   2.798   0.994 -0.2561 -0.1925  0.3841
 1573TIP3    H126278   1.391   2.777   0.964 -0.4675 -0.8212  0.1741
 1573TIP3    H226279   1.297   2.758   1.081  0.3025  1.4942  1.2389
 1574TIP3   OH226280   2.583   0.296   8.063 -0.1097  0.5747 -0.0365
 1574TIP3    H126281   2.663   0.348   8.071  0.2219 -0.1242  1.7271
 1574TIP3    H226282   2.610   0.216   8.020  0.2047  0.2614  0.7228
 1575TIP3   OH226283   3.465   5.950   7.441  0.0755  0.3711  0.9866
 1575TIP3    H126284   3.555   5.941   7.409  0.3037 -0.5315  1.8493
 1575TIP3    H226285   3.411   5.913   7.371  0.6309 -2.5124  1.9449
 1576TIP3   OH226286   1.909   2.102   1.282  0.2581 -0.2397  0.2727
 1576TIP3    H126287   1.855   2.045   1.226  1.6225 -1.9685  0.6178
 1576TIP3    H226288   1.870   2.094   1.369  0.3731 -0.5699  0.2963
 1577TIP3   OH226289   0.461   3.267   1.904  0.2165  0.7221 -0.6188
 1577TIP3    H126290   0.552   3.254   1.876  0.5716  0.4491  0.5926
 1577TIP3    H226291   0.468   3.318   1.985 -0.6097 -0.5351  0.2852
 1578TIP3   OH226292   2.519   1.766   1.575 -0.0154  0.1628  0.4231
 1578TIP3    H126293   2.596   1.815   1.605 -0.1869  1.2705 -0.8425
 1578TIP3    H226294   2.468   1.750   1.654  1.8781 -1.3239  1.4362
 1579TIP3   OH226295   1.667   3.601   8.312 -0.6887  0.1034  0.1861
 1579TIP3    H126296   1.657   3.621   8.405 -1.7812  1.0675 -0.1180
 1579TIP3    H226297   1.747   3.548   8.308 -0.0152  0.9381  1.5427
 1580TIP3   OH226298   2.265   1.427   0.312 -0.1930 -0.6075  0.6936
 1580TIP3    H126299   2.260   1.509   0.263 -1.8554 -0.3874  1.1959
 1580TIP3    H226300   2.261   1.453   0.404  0.5789 -1.1749  0.8955
 1581TIP3   OH226301   2.420   5.563   8.383  0.1746 -0.1876 -0.3033
 1581TIP3    H126302   2.446   5.471   8.375  0.0398 -0.1443 -1.4145
 1581TIP3    H226303   2.403   5.575   8.476  3.8079 -0.3077  0.5299
 1582TIP3   OH226304   2.899   3.556   0.338 -0.7772  0.5166  0.1912
 1582TIP3    H126305   2.835   3.525   0.403 -1.0970  0.8654  0.0435
 1582TIP3    H226306   2.853   3.551   0.255 -0.1225 -0.6520 -0.1301
 1583TIP3   OH226307   3.024   5.858   7.872  0.4258 -0.0615 -0.5056
 1583TIP3    H126308   3.109   5.897   7.890  0.5251  0.3072 -1.7099
 1583TIP3    H226309   3.039   5.798   7.799 -0.3795  0.1751 -0.8836
 1584TIP3   OH226310   0.858   0.801   8.541  0.1541 -0.2602  0.3340
 1584TIP3    H126311   0.786   0.739   8.549 -0.1176 -0.1768 -1.0779
 1584TIP3    H226312   0.930   0.749   8.503 -0.2039  0.3338 -1.2325
 1585TIP3   OH226313   5.520   4.192   1.671  0.4073  0.1528 -0.0949
 1585TIP3    H126314   5.435   4.231   1.651 -0.7820 -2.2004 -0.0566
 1585TIP3    H226315   5.566   4.191   1.587 -0.1818  0.1695 -0.4254
 1586TIP3   OH226316   4.215   4.538   0.246  0.2380  0.5691 -0.2951
 1586TIP3    H126317   4.187   4.591   0.171 -2.5057  0.0066  0.2441
 1586TIP3    H226318   4.225   4.600   0.318  1.0293  0.8468 -0.6276
 1587TIP3   OH226319   2.613   6.330   0.159 -0.6435  0.0666 -0.3816
 1587TIP3    H126320   2.558   6.333   0.080 -2.0192 -1.9815  0.4201
 1587TIP3    H226321   2.691   6.380   0.136 -1.4023  0.2772 -2.7292
 1588TIP3   OH226322   0.272   5.699   1.278  0.1183 -0.0290  0.2987
 1588TIP3    H126323   0.367   5.708   1.280  0.3310 -1.6252 -0.6210
 1588TIP3    H226324   0.240   5.784   1.248  1.0496  1.3080  2.7548
 1589TIP3   OH226325   1.082   5.359   0.884  0.1297 -0.1949  0.5526
 1589TIP3    H126326   1.003   5.385   0.931  0.0067 -0.6581  0.6091
 1589TIP3    H226327   1.095   5.267   0.908 -0.6273 -0.8239 -1.2436
 1590TIP3   OH226328   4.605   0.810   8.329  0.0118  0.0635 -0.1807
 1590TIP3    H126329   4.664   0.813   8.254  0.1515 -1.8083 -0.2032
 1590TIP3    H226330   4.656   0.844   8.402  0.2042  0.9777 -0.7273
 1591TIP3   OH226331   2.538   1.619   0.241  0.3983  0.1208 -0.6680
 1591TIP3    H126332   2.564   1.538   0.198  4.3350  0.7588  0.1166
 1591TIP3    H226333   2.558   1.605   0.334 -3.6944  0.3244  0.4018
 1592TIP3   OH226334   1.510   0.073   7.739  0.5000 -0.1399 -0.4444
 1592TIP3    H126335   1.487   0.024   7.661  0.0994 -1.2677  0.3608
 1592TIP3    H226336   1.561   0.147   7.707  0.3635 -0.6003 -1.7613
 1593TIP3   OH226337   2.250   2.661   1.362 -0.3913  0.4238 -0.2274
 1593TIP3    H126338   2.271   2.633   1.272 -2.0483  1.4050 -0.9638
 1593TIP3    H226339   2.326   2.711   1.390  0.4625 -0.5195 -0.7840
 1594TIP3   OH226340   4.315   1.913   2.471  0.3227 -0.0933 -0.1013
 1594TIP3    H126341   4.225   1.923   2.440  0.6996  2.2985 -0.5960
 1594TIP3    H226342   4.306   1.904   2.566 -0.4199  0.6852 -0.0840
 1595TIP3   OH226343   3.577   6.302   0.392 -0.0597  0.0084 -0.0253
 1595TIP3    H126344   3.515   6.298   0.320 -0.1775  0.2124  0.0654
 1595TIP3    H226345   3.629   6.222   0.383  0.7603  0.6195 -1.0964
 1596TIP3   OH226346   0.114   3.543   7.607 -0.1501 -0.2071 -0.0515
 1596TIP3    H126347   0.077   3.458   7.630 -1.7904  0.4547 -0.0809
 1596TIP3    H226348   0.155   3.574   7.687 -0.1594 -0.7220  0.1549
 1597TIP3   OH226349   6.802   4.746   1.452 -0.2571  0.6533  0.5429
 1597TIP3    H126350   6.716   4.704   1.441 -0.0560  0.7790 -2.2051
 1597TIP3    H226351   6.853   4.683   1.502 -1.2199 -0.5511  0.0601
 1598TIP3   OH226352   2.998   0.613   0.658 -0.4530 -0.0068  0.0283
 1598TIP3    H126353   3.022   0.669   0.732 -2.4502  1.3255 -0.2577
 1598TIP3    H226354   3.069   0.549   0.653  0.6342  0.9407  1.9719
 1599TIP3   OH226355   0.433   1.006   0.052 -0.3060  0.0073 -0.2229
 1599TIP3    H126356   0.480   0.974   0.129  2.3873 -1.2401 -2.2199
 1599TIP3    H226357   0.460   1.098   0.045 -0.1519 -0.0150  0.0515
 1600TIP3   OH226358   2.021   1.455   8.486  0.2796  0.1318  0.2705
 1600TIP3    H126359   1.986   1.366   8.488  1.7553 -0.4857 -0.0237
 1600TIP3    H226360   2.082   1.458   8.560  2.6658 -0.1995 -1.5782
 1601TIP3   OH226361   5.480   2.157   8.437 -0.1399 -0.2847  0.1232
 1601TIP3    H126362   5.463   2.174   8.345  0.1070  3.2491  0.6088
 1601TIP3    H226363   5.394   2.168   8.479  0.0804 -0.0674  0.5190
 1602TIP3   OH226364   4.118   4.142   0.394 -0.0100  0.1559 -0.3524
 1602TIP3    H126365   4.048   4.149   0.329  0.0885 -0.7866 -0.5721
 1602TIP3    H226366   4.080   4.091   0.465  0.4950 -0.4927 -0.5411
 1603TIP3   OH226367   3.910   3.511   6.999 -0.2132  0.0120 -0.1093
 1603TIP3    H126368   3.855   3.433   7.002  0.0804 -0.1737  0.6907
 1603TIP3    H226369   3.896   3.547   6.911  0.9870 -1.8981 -1.1510
 1604TIP3   OH226370   6.551   0.426   3.257 -0.3134 -0.2753  0.0937
 1604TIP3    H126371   6.464   0.448   3.289 -0.0493 -0.8097  1.2414
 1604TIP3    H226372   6.541   0.415   3.163 -1.3555  0.2620  0.1331
 1605TIP3   OH226373   3.651   6.555   0.258  0.0489 -0.4909 -0.0637
 1605TIP3    H126374   3.634   6.466   0.289  2.0040 -0.7393  0.4522
 1605TIP3    H226375   3.729   6.547   0.203  2.6075  1.3065  2.9300
 1606TIP3   OH226376   2.147   3.349   8.100  0.2665  0.5453  0.0397
 1606TIP3    H126377   2.209   3.281   8.127  2.6960  2.3999 -0.5097
 1606TIP3    H226378   2.086   3.304   8.041  1.0601 -1.3694  0.6049
 1607TIP3   OH226379   1.425   6.062   8.527 -0.8805 -0.1438  0.5079
 1607TIP3    H126380   1.340   6.018   8.536 -1.2142  0.6559  1.2972
 1607TIP3    H226381   1.444   6.098   8.613  0.5081 -0.7152  0.4784
 1608TIP3   OH226382   2.884   0.102   0.092  0.0778  0.4107  0.3240
 1608TIP3    H126383   2.821   0.167   0.121  0.4887  0.8664  0.2002
 1608TIP3    H226384   2.845   0.062   0.014 -0.2477  0.3895  0.4988
 1609TIP3   OH226385   0.548   5.701   1.274 -0.0867  0.4653  0.2539
 1609TIP3    H126386   0.602   5.664   1.344 -0.9428 -0.0246  0.6703
 1609TIP3    H226387   0.584   5.663   1.193  0.1447  0.0929  0.5272
 1610TIP3   OH226388   2.550   6.774   2.096  0.5381 -0.3383  0.0833
 1610TIP3    H126389   2.539   6.844   2.031 -1.3775 -1.5237 -0.9624
 1610TIP3    H226390   2.576   6.820   2.176 -1.8734  1.7723 -0.2289
 1611TIP3   OH226391   5.398   1.447   8.175  0.4666 -0.2830 -0.1863
 1611TIP3    H126392   5.366   1.537   8.185  2.5129  0.4450  0.3244
 1611TIP3    H226393   5.468   1.439   8.240  0.4815 -2.1909 -0.3785
 1612TIP3   OH226394   3.747   3.797   3.253  0.3083  0.7584 -0.0531
 1612TIP3    H126395   3.760   3.703   3.262 -0.5041  0.5112 -1.2881
 1612TIP3    H226396   3.661   3.813   3.292  0.3520  0.9587 -0.0376
 1613TIP3   OH226397   1.412   2.053   0.802 -0.5639 -0.0147 -0.4188
 1613TIP3    H126398   1.436   2.141   0.829  0.6537 -0.0798 -1.1974
 1613TIP3    H226399   1.421   2.000   0.881 -2.0387  0.6528  0.2438
 1614TIP3   OH226400   3.615   2.329   0.039  0.5051 -0.0883  0.1535
 1614TIP3    H126401   3.636   2.237   0.058  1.0258  0.2040  1.0827
 1614TIP3    H226402   3.695   2.377   0.062  0.5070  0.5272 -1.0633
 1615TIP3   OH226403   1.473   1.887   1.017 -0.3754 -0.4353 -0.3481
 1615TIP3    H126404   1.421   1.809   0.999  0.8181 -1.5504  0.8844
 1615TIP3    H226405   1.466   1.900   1.112 -1.7238  1.8471 -0.6693
 1616TIP3   OH226406   3.205   4.640   2.424 -0.3276  0.4097  0.5455
 1616TIP3    H126407   3.143   4.688   2.367 -1.3638 -1.9159 -0.4354
 1616TIP3    H226408   3.154   4.620   2.502 -1.6172 -2.9910 -0.9428
 1617TIP3   OH226409   6.249   1.746   8.222 -0.0985 -0.3167  0.2227
 1617TIP3    H126410   6.326   1.692   8.240  0.7317  1.0278  0.8372
 1617TIP3    H226411   6.270   1.793   8.142 -0.5231 -0.3761  0.0721
 1618TIP3   OH226412   0.561   0.299   0.740  0.0673  0.3266 -0.3736
 1618TIP3    H126413   0.514   0.221   0.770  0.9398  0.0404  0.2764
 1618TIP3    H226414   0.581   0.280   0.648  0.2716 -0.2120 -0.2209
 1619TIP3   OH226415   6.360   3.906   1.097 -0.3382 -0.0305 -0.3158
 1619TIP3    H126416   6.387   3.825   1.053 -2.0650  0.2193 -1.9956
 1619TIP3    H226417   6.281   3.933   1.049 -0.3435  2.1395  0.8251
 1620TIP3   OH226418   4.213   5.320   1.564  0.0567  0.5238 -0.7058
 1620TIP3    H126419   4.123   5.296   1.584 -0.4923  1.3549 -2.0179
 1620TIP3    H226420   4.208   5.412   1.537  1.0979  0.2571 -1.9221
 1621TIP3   OH226421   5.021   6.046   0.440 -0.0051 -0.2513 -0.1680
 1621TIP3    H126422   5.023   6.129   0.488 -0.4175 -1.0300  1.2667
 1621TIP3    H226423   4.929   6.034   0.416  0.1874  0.0935 -1.1099
 1622TIP3   OH226424   5.605   1.923   8.381  0.9660  0.0635  0.2544
 1622TIP3    H126425   5.561   2.003   8.410  0.8140 -0.1582  0.6334
 1622TIP3    H226426   5.698   1.947   8.379  0.8292  0.5789 -0.6999
 1623TIP3   OH226427   4.585   1.209   8.549 -0.2164 -0.4043 -0.0267
 1623TIP3    H126428   4.506   1.261   8.532  0.7510  0.8646 -0.8723
 1623TIP3    H226429   4.591   1.206   8.644 -1.3476 -0.6433  0.0575
 1624TIP3   OH226430   3.391   6.459   7.237  0.6138 -0.2315 -0.2426
 1624TIP3    H126431   3.410   6.497   7.323  1.3433  0.5004 -0.7150
 1624TIP3    H226432   3.326   6.518   7.199 -1.5444 -1.8574  0.7291
 1625TIP3   OH226433   4.665   1.073   7.511 -0.2167 -0.0259  0.7814
 1625TIP3    H126434   4.700   1.160   7.489 -1.2160  0.2558  0.2492
 1625TIP3    H226435   4.678   1.066   7.605  0.1054  0.5946  0.7942
 1626TIP3   OH226436   4.782   6.496   0.915  0.0956  0.0653  0.9519
 1626TIP3    H126437   4.858   6.519   0.968  0.0511 -2.2830  2.1435
 1626TIP3    H226438   4.795   6.404   0.893  0.0316  0.8361 -3.0760
 1627TIP3   OH226439   3.247   1.624   8.363 -0.1555 -0.3110 -0.1040
 1627TIP3    H126440   3.253   1.612   8.458  0.6478  0.5705 -0.0327
 1627TIP3    H226441   3.294   1.705   8.346  0.9697 -1.1960 -1.4303
 1628TIP3   OH226442   0.317   3.360   0.020  0.3300 -0.1986 -0.0790
 1628TIP3    H126443   0.386   3.326  -0.037 -0.1033 -1.1625 -0.0465
 1628TIP3    H226444   0.296   3.287   0.078  0.1348  0.4802  0.7350
 1629TIP3   OH226445   2.891   5.569   2.805 -0.2897  0.2614 -0.5751
 1629TIP3    H126446   2.975   5.525   2.800  0.0078  0.7777 -0.2078
 1629TIP3    H226447   2.879   5.609   2.719 -0.1547  0.1934 -0.6252
 1630TIP3   OH226448   4.117   1.997   8.491 -0.5674  0.2821 -0.2789
 1630TIP3    H126449   4.201   1.959   8.464  1.1024  2.3730  1.5574
 1630TIP3    H226450   4.094   2.056   8.418  0.8165  1.4256  0.1535
 1631TIP3   OH226451   5.710   3.295   0.617 -0.2128 -0.2747  0.3051
 1631TIP3    H126452   5.672   3.213   0.585  0.4740  0.1003 -1.6042
 1631TIP3    H226453   5.795   3.271   0.653 -0.6589 -0.5853  1.1963
 1632TIP3   OH226454   0.995   3.743   0.661  0.6015  0.1073 -0.1802
 1632TIP3    H126455   0.949   3.772   0.739  2.0810  2.8616 -0.2133
 1632TIP3    H226456   1.084   3.724   0.691  0.4764 -1.5465 -0.7547
 1633TIP3   OH226457   2.023   5.511   2.470 -0.4445 -0.5116  0.3311
 1633TIP3    H126458   2.105   5.529   2.423 -0.9540 -0.3443 -0.5187
 1633TIP3    H226459   2.014   5.584   2.532  0.3692 -0.8721  0.8919
 1634TIP3   OH226460   5.828   2.667   1.209 -0.0046 -0.1236 -0.0195
 1634TIP3    H126461   5.823   2.751   1.256 -0.1250  0.4004 -0.9544
 1634TIP3    H226462   5.913   2.668   1.167 -0.2333 -0.2267 -0.4861
 1635TIP3   OH226463   6.042   3.632   7.940  0.5689 -0.0418 -0.5017
 1635TIP3    H126464   6.084   3.718   7.934 -0.2320  0.4584  0.6197
 1635TIP3    H226465   5.949   3.649   7.925  0.4728 -0.8106 -0.8489
 1636TIP3   OH226466   0.757   3.829   0.779 -0.3721 -0.4705  0.5323
 1636TIP3    H126467   0.684   3.848   0.838 -0.3547  0.7721  0.1849
 1636TIP3    H226468   0.716   3.825   0.692 -0.3816 -2.1629  0.5897
 1637TIP3   OH226469   1.835   4.325   1.645 -0.2620  0.3477  0.1536
 1637TIP3    H126470   1.924   4.358   1.638 -0.3911  0.7324  0.2897
 1637TIP3    H226471   1.793   4.382   1.710 -0.4842 -0.0938  0.4050
 1638TIP3   OH226472   4.056   1.329   3.326  0.7836 -0.4161 -0.3410
 1638TIP3    H126473   4.142   1.296   3.354  0.4541 -0.3487  0.7913
 1638TIP3    H226474   4.063   1.424   3.333 -0.1196 -0.4679  2.1286
 1639TIP3   OH226475   5.295   1.648   0.802  0.1687 -0.7428  0.3241
 1639TIP3    H126476   5.332   1.686   0.722 -0.0471 -0.4127  0.3774
 1639TIP3    H226477   5.202   1.668   0.796  0.4939  1.5436  1.8751
 1640TIP3   OH226478   2.687   1.794   1.993  0.4635  0.3432  0.2438
 1640TIP3    H126479   2.658   1.882   1.969  0.8411  0.7476  1.2108
 1640TIP3    H226480   2.780   1.792   1.969  0.1457 -0.2711 -1.0221
 1641TIP3   OH226481   3.609   1.876   0.695  0.4130  0.0537 -0.3081
 1641TIP3    H126482   3.619   1.940   0.625  1.2014 -0.9868 -1.1929
 1641TIP3    H226483   3.656   1.799   0.663 -0.5657 -0.9924  0.6773
 1642TIP3   OH226484   6.719   5.539   2.336  0.0626  0.7224  0.2219
 1642TIP3    H126485   6.707   5.491   2.254 -0.6338  0.3697  0.5203
 1642TIP3    H226486   6.802   5.507   2.370  0.4275  0.9776 -0.4152
 1643TIP3   OH226487   4.551   4.118   0.177 -0.0320 -0.2584 -0.0357
 1643TIP3    H126488   4.629   4.154   0.219 -0.7121  0.6173  0.5204
 1643TIP3    H226489   4.548   4.162   0.092 -2.1757  3.0689  1.5365
 1644TIP3   OH226490   1.595   4.073   1.987  0.5696 -0.5434 -0.2441
 1644TIP3    H126491   1.588   4.153   2.041  1.2502 -1.0990  0.6926
 1644TIP3    H226492   1.687   4.068   1.964  0.3752 -0.6112 -1.0270
 1645TIP3   OH226493   4.689   0.777   3.284  0.2754  0.3386  0.7233
 1645TIP3    H126494   4.752   0.829   3.334  2.8138 -1.4694 -0.4377
 1645TIP3    H226495   4.648   0.720   3.349  0.3190  1.0500  1.3876
 1646TIP3   OH226496   4.899   0.177   1.380  0.0656  0.1906  0.1595
 1646TIP3    H126497   4.838   0.104   1.383 -0.0133  0.2894  1.6149
 1646TIP3    H226498   4.958   0.162   1.454  0.0560  1.5818  0.4763
 1647TIP3   OH226499   4.273   5.307   7.165 -0.3369  0.2102  0.0817
 1647TIP3    H126500   4.212   5.380   7.174 -0.5468 -0.1317  1.8042
 1647TIP3    H226501   4.275   5.267   7.252  3.5370  1.1669  0.6127
 1648TIP3   OH226502   0.040   3.541   7.942 -0.3157  0.0933  0.1748
 1648TIP3    H126503   0.045   3.530   8.037  0.2637  0.1230  0.1506
 1648TIP3    H226504   0.122   3.584   7.919  0.4282 -1.6647 -0.5808
 1649TIP3   OH226505   0.491   5.111   0.749  0.1257 -0.3056  0.1719
 1649TIP3    H126506   0.555   5.057   0.703  0.0526  0.7042 -1.1540
 1649TIP3    H226507   0.447   5.050   0.809 -0.2208 -1.8115 -1.5400
 1650TIP3   OH226508   6.117   4.280   0.470 -0.6247 -0.4807 -0.3557
 1650TIP3    H126509   6.120   4.371   0.502  0.2195 -0.6091 -0.0491
 1650TIP3    H226510   6.204   4.264   0.435 -0.0332 -1.8673  1.5514
 1651TIP3   OH226511   2.232   4.848   8.524  0.1096  0.3000 -0.6506
 1651TIP3    H126512   2.322   4.876   8.537  0.4502 -0.2136 -1.7887
 1651TIP3    H226513   2.236   4.752   8.524 -0.6056  0.2572  0.3669
 1652TIP3   OH226514   5.532   3.415   0.913  0.4863  0.4367 -0.6619
 1652TIP3    H126515   5.468   3.430   0.844 -0.7484  0.7615  0.5103
 1652TIP3    H226516   5.524   3.322   0.934  0.7194  0.3817 -0.8083
 1653TIP3   OH226517   1.217   4.228   8.274 -0.2939  0.4572 -0.5981
 1653TIP3    H126518   1.141   4.225   8.217 -1.0080  0.5937  0.3187
 1653TIP3    H226519   1.185   4.270   8.355  1.0434  1.6759 -0.6516
 1654TIP3   OH226520   2.198   4.399   8.000 -0.0639 -0.0989 -0.1369
 1654TIP3    H126521   2.198   4.461   8.074  0.2312  1.1266 -1.1195
 1654TIP3    H226522   2.290   4.376   7.989 -0.2755 -1.6441  0.9216
 1655TIP3   OH226523   6.029   5.226   1.419 -0.4170  0.1073 -0.3613
 1655TIP3    H126524   5.949   5.206   1.371  0.1305  0.8757 -1.6513
 1655TIP3    H226525   6.094   5.242   1.350  0.7846 -0.2644  0.6536
 1656TIP3   OH226526   4.448   0.910   7.896 -0.3355 -0.0106 -0.4588
 1656TIP3    H126527   4.427   0.835   7.951 -0.7434 -0.9623 -1.8581
 1656TIP3    H226528   4.414   0.986   7.944  0.2533 -0.6886  1.0627
 1657TIP3   OH226529   0.264   6.109   7.626 -0.1507  0.2772  0.3406
 1657TIP3    H126530   0.255   6.177   7.559  0.9865 -0.3414 -0.4755
 1657TIP3    H226531   0.299   6.033   7.579 -0.2414 -0.4889  1.4650
 1658TIP3   OH226532   1.099   3.672   1.296  0.5048 -0.2783 -0.3589
 1658TIP3    H126533   1.071   3.727   1.369 -3.5798 -1.9695 -0.3772
 1658TIP3    H226534   1.153   3.604   1.336 -3.4436 -2.4827  1.7576
 1659TIP3   OH226535   3.008   4.978   7.582 -0.1100  0.2871 -0.0491
 1659TIP3    H126536   3.040   4.977   7.492 -1.2450 -1.8122 -0.4934
 1659TIP3    H226537   2.990   5.071   7.600 -0.1524  0.7247 -2.0919
 1660TIP3   OH226538   4.622   2.736   2.235  0.4662 -0.3694  0.7139
 1660TIP3    H126539   4.704   2.691   2.256  1.3971  0.2465 -1.3044
 1660TIP3    H226540   4.619   2.811   2.294  0.2176 -1.5890  2.3115
 1661TIP3   OH226541   4.122   4.117   0.969  0.3838 -0.0106 -0.0558
 1661TIP3    H126542   4.190   4.179   0.942 -0.5968  0.5111 -1.4467
 1661TIP3    H226543   4.148   4.090   1.057  1.1074  1.9874  0.3915
 1662TIP3   OH226544   6.055   2.946   0.314 -0.3627 -0.0381  0.2772
 1662TIP3    H126545   5.991   2.936   0.243  0.2573 -1.5559 -0.1169
 1662TIP3    H226546   6.095   2.859   0.323 -0.5275  0.0641  2.6114
 1663TIP3   OH226547   5.262   2.090   3.162 -0.0830  0.6549  0.8307
 1663TIP3    H126548   5.288   2.139   3.085 -0.3015 -0.2341  0.1721
 1663TIP3    H226549   5.255   1.999   3.132 -1.0576  0.4250  1.6759
 1664TIP3   OH226550   1.352   6.198   1.128 -0.5475  0.1453  0.0239
 1664TIP3    H126551   1.399   6.179   1.047 -1.2048 -1.8656  0.0467
 1664TIP3    H226552   1.292   6.123   1.139 -1.0839  0.7895  1.9090
 1665TIP3   OH226553   0.658   0.556   0.510 -0.9772  0.1957  0.3781
 1665TIP3    H126554   0.566   0.533   0.522 -0.5707 -0.7333  1.9882
 1665TIP3    H226555   0.667   0.641   0.554 -1.1662  0.5119 -0.1938
 1666TIP3   OH226556   1.807   6.466   0.424 -0.5369 -0.2395  0.4474
 1666TIP3    H126557   1.758   6.384   0.419 -0.5308 -0.2712  0.8917
 1666TIP3    H226558   1.891   6.446   0.384  0.5193 -1.2454  3.0032
 1667TIP3   OH226559   0.701   0.528   1.068  0.3389  0.3295  0.2029
 1667TIP3    H126560   0.782   0.518   1.118 -1.1580 -1.6664  2.4345
 1667TIP3    H226561   0.664   0.440   1.063 -2.7321  1.4225  1.1989
 1668TIP3   OH226562   4.694   2.135   2.808 -0.2880 -0.0469  0.3799
 1668TIP3    H126563   4.728   2.169   2.726 -1.4599  0.0847 -0.0652
 1668TIP3    H226564   4.601   2.159   2.808 -0.5094 -0.8293  1.3269
 1669TIP3   OH226565   4.559   4.665   7.310  0.3560  0.2743  0.0157
 1669TIP3    H126566   4.647   4.641   7.282 -0.5215 -0.8475 -2.0114
 1669TIP3    H226567   4.540   4.748   7.267  0.3274  0.3946  0.2558
 1670TIP3   OH226568   5.097   3.534   7.503 -0.0998  0.2270 -0.2856
 1670TIP3    H126569   5.157   3.460   7.511  0.2032  0.5858  1.2244
 1670TIP3    H226570   5.011   3.497   7.526 -0.1763  0.0658 -0.8263
 1671TIP3   OH226571   4.327   5.637   7.620  0.3430  0.2998 -0.6162
 1671TIP3    H126572   4.371   5.721   7.634  0.1057  0.6101 -1.6682
 1671TIP3    H226573   4.372   5.577   7.680 -0.0946  1.3597  0.8311
 1672TIP3   OH226574   5.208   2.102   7.943 -0.1361  0.0581  0.2482
 1672TIP3    H126575   5.231   2.010   7.960 -0.2363 -0.3433 -1.5354
 1672TIP3    H226576   5.282   2.136   7.894 -0.8061  0.4502 -0.5145
 1673TIP3   OH226577   3.168   0.757   0.924  0.0233  0.2861  0.3159
 1673TIP3    H126578   3.159   0.822   0.995  2.0928  0.8699  0.1155
 1673TIP3    H226579   3.258   0.767   0.895 -0.6323 -0.3080 -2.0872
 1674TIP3   OH226580   2.789   2.740   1.738  0.4481  0.1015  0.3744
 1674TIP3    H126581   2.828   2.814   1.692 -2.0561  0.3257 -1.6414
 1674TIP3    H226582   2.717   2.778   1.789 -0.2296 -0.8051  0.1233
 1675TIP3   OH226583   4.157   5.550   1.954  0.3453 -0.9826 -0.2890
 1675TIP3    H126584   4.180   5.642   1.966 -1.2726 -0.3119 -1.8528
 1675TIP3    H226585   4.238   5.502   1.971  1.5582  0.8274 -0.7125
 1676TIP3   OH226586   1.096   0.671   1.230  0.3870 -0.2558  0.4479
 1676TIP3    H126587   1.037   0.635   1.163  0.6323  1.4576 -0.7663
 1676TIP3    H226588   1.072   0.764   1.235  1.3062 -0.0660  1.7667
 1677TIP3   OH226589   2.866   4.401   1.613  0.2805 -0.0311 -0.2920
 1677TIP3    H126590   2.947   4.361   1.644 -0.7499 -0.8688  1.4799
 1677TIP3    H226591   2.834   4.451   1.688 -0.7764  0.3867 -0.9992
 1678TIP3   OH226592   3.416   1.943   8.583  0.2960  0.5022  0.3487
 1678TIP3    H126593   3.427   1.878   8.514  2.1254  2.5806 -1.4509
 1678TIP3    H226594   3.332   1.985   8.564  0.6669  0.8820 -0.4900
 1679TIP3   OH226595   0.760   6.031   6.873 -0.6623 -0.3316 -0.3480
 1679TIP3    H126596   0.670   6.058   6.890 -0.5027  0.4956 -0.7865
 1679TIP3    H226597   0.755   5.977   6.794 -1.0636 -2.1518  0.8521
 1680TIP3   OH226598   5.461   3.865   1.959  0.4508  0.4413  0.2748
 1680TIP3    H126599   5.476   3.771   1.967  0.3859  0.2458 -1.6266
 1680TIP3    H226600   5.518   3.903   2.026  1.7806 -0.8626 -0.0558
 1681TIP3   OH226601   5.949   6.637   1.865 -0.5541 -0.2541  0.1131
 1681TIP3    H126602   5.962   6.689   1.786  0.3804  1.0473  1.0789
 1681TIP3    H226603   5.984   6.551   1.844  1.6353  0.6789 -0.2363
 1682TIP3   OH226604   5.259   4.414   2.706 -0.0554  0.1049  0.2221
 1682TIP3    H126605   5.173   4.399   2.668  0.0383  0.9187 -0.3403
 1682TIP3    H226606   5.260   4.507   2.727  0.7886  0.1666 -0.0469
 1683TIP3   OH226607   2.327   5.820   0.533  0.2052 -0.2061 -0.0506
 1683TIP3    H126608   2.369   5.810   0.618  0.5546  1.3118 -0.0039
 1683TIP3    H226609   2.353   5.908   0.504  1.7129 -1.3777 -2.6263
 1684TIP3   OH226610   0.532   4.010   1.186 -0.1589 -0.7317 -0.5074
 1684TIP3    H126611   0.544   4.081   1.123 -1.1249  0.4394  0.5721
 1684TIP3    H226612   0.476   3.947   1.141 -0.1511 -0.3102 -1.1148
 1685TIP3   OH226613   0.008   5.339   7.384 -0.5695  0.4474  0.5084
 1685TIP3    H126614   0.022   5.393   7.306 -1.6259  0.4408  0.3103
 1685TIP3    H226615   0.094   5.301   7.402 -0.8227 -1.6973 -2.2479
 1686TIP3   OH226616   3.558   0.293   7.733 -0.3683 -0.1720 -0.0741
 1686TIP3    H126617   3.474   0.329   7.705  0.5089  1.0957 -1.2249
 1686TIP3    H226618   3.571   0.328   7.821 -1.9646 -2.1029  1.0311
 1687TIP3   OH226619   3.246   6.181   1.214 -0.4095 -0.1166 -0.1203
 1687TIP3    H126620   3.320   6.236   1.240  1.5469 -2.0528 -1.2619
 1687TIP3    H226621   3.208   6.226   1.139 -1.1497  1.4632  1.1459
 1688TIP3   OH226622   5.929   5.182   2.055  0.0436 -0.1113  0.1251
 1688TIP3    H126623   5.940   5.269   2.094 -0.6964 -0.5132  1.2624
 1688TIP3    H226624   5.988   5.183   1.979  0.7060  1.0649  0.6213
 1689TIP3   OH226625   5.393   5.848   7.983 -0.1997 -0.4566 -0.4211
 1689TIP3    H126626   5.330   5.776   7.975  0.8048 -1.5567  1.0620
 1689TIP3    H226627   5.473   5.806   8.015  0.8388  1.1353 -0.8330
 1690TIP3   OH226628   0.874   4.184   2.960  0.4004  0.1996  0.1351
 1690TIP3    H126629   0.850   4.225   2.877 -0.9235 -0.5552  0.1250
 1690TIP3    H226630   0.836   4.096   2.956  0.3668  0.1243  1.5169
 1691TIP3   OH226631   6.831   1.107   2.430 -0.0745  0.0522 -0.0728
 1691TIP3    H126632   6.823   1.025   2.382 -0.2353 -0.5371  0.9344
 1691TIP3    H226633   6.874   1.083   2.511 -0.4108  0.9132  0.3745
 1692TIP3   OH226634   6.158   4.882   1.214 -0.3688 -0.1829 -0.6242
 1692TIP3    H126635   6.195   4.970   1.209  1.5577 -0.6791  2.2951
 1692TIP3    H226636   6.189   4.839   1.134 -0.9162  1.5972 -1.8543
 1693TIP3   OH226637   5.366   5.242   8.506 -0.1498 -0.1179  0.4732
 1693TIP3    H126638   5.306   5.317   8.500 -1.3288 -1.0956 -0.4243
 1693TIP3    H226639   5.326   5.174   8.452  1.5760 -0.9635  0.1718
 1694TIP3   OH226640   5.485   3.637   2.916  0.0105  0.0315  0.3411
 1694TIP3    H126641   5.440   3.702   2.863 -0.0437  0.1481  0.5263
 1694TIP3    H226642   5.447   3.647   3.004 -0.0313 -0.2794  0.3615
 1695TIP3   OH226643   0.800   4.990   1.727  0.5594  0.3828  0.2120
 1695TIP3    H126644   0.775   4.911   1.776  0.5866  1.0681  1.3686
 1695TIP3    H226645   0.722   5.011   1.675  0.8454 -0.8690 -0.7573
 1696TIP3   OH226646   0.439   1.822   7.302  0.1096  0.1970  0.1088
 1696TIP3    H126647   0.466   1.868   7.222  2.4601  0.2920  0.8853
 1696TIP3    H226648   0.483   1.737   7.297 -1.5845 -0.7348  0.2477
 1697TIP3   OH226649   5.600   4.530   0.124  0.4299  0.2537 -0.2625
 1697TIP3    H126650   5.679   4.481   0.145 -0.9576 -2.4978 -0.9540
 1697TIP3    H226651   5.549   4.529   0.206 -0.3721 -1.1550 -0.7351
 1698TIP3   OH226652   3.123   1.614   0.930 -0.1648  0.1520 -0.3255
 1698TIP3    H126653   3.205   1.569   0.912 -0.0736  0.0354  0.3390
 1698TIP3    H226654   3.148   1.706   0.940 -0.3631  0.3706 -1.7628
 1699TIP3   OH226655   3.675   3.331   1.950  0.0690  0.0275  0.7363
 1699TIP3    H126656   3.613   3.375   1.892  1.2370  0.4615 -0.2241
 1699TIP3    H226657   3.621   3.274   2.005 -1.0685 -0.3867 -0.7660
 1700TIP3   OH226658   3.581   4.293   2.391  0.7827  0.3591 -0.0597
 1700TIP3    H126659   3.584   4.224   2.325 -0.9391 -0.9764  1.1577
 1700TIP3    H226660   3.488   4.311   2.402  1.1750  2.5434  0.0407
 1701TIP3   OH226661   6.575   6.197   1.374 -0.2723 -0.0623  0.7402
 1701TIP3    H126662   6.534   6.128   1.322 -0.5240 -0.5543  1.5692
 1701TIP3    H226663   6.583   6.160   1.462 -2.2800  1.6692  1.7399
 1702TIP3   OH226664   6.706   4.847   8.583 -0.2720 -0.5462  0.7851
 1702TIP3    H126665   6.659   4.857   8.501  0.5077 -1.6105  0.1847
 1702TIP3    H226666   6.771   4.917   8.583 -0.1386 -0.6680  0.3923
 1703TIP3   OH226667   1.349   1.952   1.818  0.3379 -0.4749 -0.6986
 1703TIP3    H126668   1.424   1.893   1.827  0.2320 -0.4626  0.2975
 1703TIP3    H226669   1.333   1.985   1.906  0.8663  1.6512 -1.3247
 1704TIP3   OH226670   5.007   4.205   0.525  0.2839 -0.2832  0.0462
 1704TIP3    H126671   5.049   4.182   0.442  1.8333 -1.6792  1.1649
 1704TIP3    H226672   5.021   4.129   0.581 -0.5492  0.7082  1.6688
 1705TIP3   OH226673   4.131   5.645   3.171  0.4102 -0.0385  0.0254
 1705TIP3    H126674   4.037   5.661   3.171  0.4902  0.4459  0.2048
 1705TIP3    H226675   4.140   5.557   3.208  0.0292 -0.0684  0.0536
 1706TIP3   OH226676   2.164   3.215   0.855  0.1504  0.6532 -0.4046
 1706TIP3    H126677   2.115   3.207   0.937 -1.1937  0.6764 -1.1903
 1706TIP3    H226678   2.168   3.309   0.839 -1.3769  0.5742 -1.3975
 1707TIP3   OH226679   0.452   4.975   2.453 -0.2293 -0.1587 -0.2646
 1707TIP3    H126680   0.438   4.991   2.360 -1.4099 -0.9524 -0.2491
 1707TIP3    H226681   0.541   5.005   2.470  0.6767 -1.6667 -2.0451
 1708TIP3   OH226682   4.496   4.326   8.706 -0.7317  0.7340 -0.1161
 1708TIP3    H126683   4.470   4.407   8.661 -2.1217  0.4629  0.1422
 1708TIP3    H226684   4.429   4.313   8.773 -0.6900 -0.7551 -0.3125
 1709TIP3   OH226685   1.160   3.367   1.170  0.1811  0.1876 -0.0449
 1709TIP3    H126686   1.245   3.373   1.214  0.3114 -0.2043 -0.2422
 1709TIP3    H226687   1.175   3.404   1.083  0.3003 -0.4361 -0.2911
 1710TIP3   OH226688   4.480   1.755   8.688  0.8514 -0.2541  0.1343
 1710TIP3    H126689   4.534   1.678   8.672 -0.0729 -0.6569 -1.2232
 1710TIP3    H226690   4.531   1.808   8.750  1.7993 -1.6283  0.5778
 1711TIP3   OH226691   5.520   4.569   0.532 -0.0130  0.5120  0.3224
 1711TIP3    H126692   5.603   4.617   0.530  0.4374  0.0741  3.7465
 1711TIP3    H226693   5.458   4.630   0.570 -0.6576  0.0240  0.0677
 1712TIP3   OH226694   0.514   6.652   8.186 -0.3677 -0.5758 -0.2844
 1712TIP3    H126695   0.570   6.722   8.219 -0.5409 -1.3706  1.8279
 1712TIP3    H226696   0.431   6.695   8.165  0.5031  0.3617 -2.1163
 1713TIP3   OH226697   0.241   3.426   0.473  0.1234  0.0637  0.6598
 1713TIP3    H126698   0.239   3.350   0.531  3.0266 -0.6180  0.0353
 1713TIP3    H226699   0.316   3.410   0.415 -0.8769  2.0982 -1.3557
 1714TIP3   OH226700   5.285   1.034   1.088  0.4447  0.2284  0.8413
 1714TIP3    H126701   5.216   1.093   1.118 -0.5343  0.0017 -0.8301
 1714TIP3    H226702   5.284   0.961   1.150 -1.0781  0.0622  0.6552
 1715TIP3   OH226703   6.769   3.945   0.516 -0.1918  0.6338 -0.6068
 1715TIP3    H126704   6.759   3.889   0.439  0.4354  1.9637 -1.6953
 1715TIP3    H226705   6.863   3.946   0.533 -0.3634 -0.0268  0.4980
 1716TIP3   OH226706   3.407   2.349   3.219 -0.0954  0.3951 -0.2752
 1716TIP3    H126707   3.403   2.445   3.219 -1.1367  0.3721  0.9379
 1716TIP3    H226708   3.352   2.323   3.145 -0.5463  0.7179 -0.0569
 1717TIP3   OH226709   4.386   4.212   1.645 -0.5216  0.1952 -0.5362
 1717TIP3    H126710   4.443   4.227   1.569  0.1399  0.9650  0.0850
 1717TIP3    H226711   4.445   4.174   1.711 -1.0617 -0.3474 -0.3631
 1718TIP3   OH226712   2.227   3.547   7.948 -0.3950 -0.2195 -0.8540
 1718TIP3    H126713   2.204   3.481   8.014 -0.1161 -1.4370 -1.9513
 1718TIP3    H226714   2.168   3.530   7.875  1.1817 -0.7200 -2.0561
 1719TIP3   OH226715   4.293   2.363   2.640 -0.3574 -0.1915 -0.1754
 1719TIP3    H126716   4.329   2.377   2.552  0.6412 -2.5551 -0.2308
 1719TIP3    H226717   4.359   2.400   2.699 -0.0240 -0.4241 -0.3956
 1720TIP3   OH226718   4.416   0.246   0.284  0.5279  0.5269 -0.2616
 1720TIP3    H126719   4.483   0.290   0.336 -0.2723  0.7931  0.5796
 1720TIP3    H226720   4.370   0.189   0.347 -2.3306  2.9573  0.0784
 1721TIP3   OH226721   4.471   0.822   2.740 -0.2940 -0.3485  0.2415
 1721TIP3    H126722   4.503   0.735   2.763 -0.5326 -0.2008  1.1669
 1721TIP3    H226723   4.444   0.861   2.823  0.7825  1.0145 -0.0008
 1722TIP3   OH226724   2.945   5.840   1.361  0.0998 -0.1489 -0.4241
 1722TIP3    H126725   2.910   5.927   1.342  0.0771 -0.7324 -3.6624
 1722TIP3    H226726   3.029   5.858   1.404  0.1823  1.5006 -1.1686
 1723TIP3   OH226727   1.885   1.628   1.045 -0.0880  0.5477  0.2299
 1723TIP3    H126728   1.926   1.542   1.046 -2.0424 -0.5774  3.8593
 1723TIP3    H226729   1.924   1.675   1.119 -0.8530  1.8079 -0.1270
 1724TIP3   OH226730   1.044   6.442   0.569 -0.2851 -0.0974 -0.0808
 1724TIP3    H126731   1.072   6.360   0.609 -0.2274 -0.8753 -1.6379
 1724TIP3    H226732   0.965   6.420   0.520 -1.7879  1.3643  1.5533
 1725TIP3   OH226733   6.325   3.368   8.453 -0.2121  0.0148  0.2416
 1725TIP3    H126734   6.302   3.370   8.360  1.1137  0.8613 -0.0992
 1725TIP3    H226735   6.349   3.459   8.473  0.1483 -0.2898  1.2340
 1726TIP3   OH226736   0.829   1.629   0.819 -0.1769 -0.4059 -0.3965
 1726TIP3    H126737   0.866   1.542   0.809  0.6253 -0.4145  2.0431
 1726TIP3    H226738   0.886   1.673   0.883  0.0013  2.2540 -2.2051
 1727TIP3   OH226739   2.595   6.494   1.359 -0.4505 -0.4314  0.0340
 1727TIP3    H126740   2.677   6.527   1.397 -0.2718 -1.9569  1.0469
 1727TIP3    H226741   2.527   6.544   1.405 -0.1229  0.2098 -0.1646
 1728TIP3   OH226742   4.328   5.773   0.275 -0.0603 -0.0046  0.0338
 1728TIP3    H126743   4.404   5.802   0.326  0.7168 -0.2273 -0.9735
 1728TIP3    H226744   4.346   5.681   0.255 -0.2008  0.1566 -0.8834
 1729TIP3   OH226745   2.364   1.698   0.672  0.2953  0.1890  0.1417
 1729TIP3    H126746   2.376   1.739   0.758  2.9076 -0.4854  0.1807
 1729TIP3    H226747   2.422   1.748   0.614  0.2728 -0.7811 -0.7377
 1730TIP3   OH226748   0.003   5.068   8.533 -0.4314  0.4972  0.3910
 1730TIP3    H126749  -0.054   5.143   8.511  0.5310  0.5996 -2.0670
 1730TIP3    H226750   0.086   5.088   8.490  0.2056 -1.5047  0.6081
 1731TIP3   OH226751   4.420   6.083   2.362  0.4595  0.2368  0.1635
 1731TIP3    H126752   4.361   6.073   2.436  0.0262  0.5954 -0.1277
 1731TIP3    H226753   4.363   6.083   2.285  0.7995  0.9671 -0.0983
 1732TIP3   OH226754   5.561   1.762   1.316 -0.3147 -0.2615 -0.1083
 1732TIP3    H126755   5.644   1.791   1.354 -0.6336  1.7908 -0.8757
 1732TIP3    H226756   5.569   1.667   1.312  2.2084 -0.0958 -0.5892
 1733TIP3   OH226757   1.710   1.488   2.229 -0.4016 -0.5943 -0.2111
 1733TIP3    H126758   1.703   1.456   2.319 -0.6469  0.1344  0.0411
 1733TIP3    H226759   1.683   1.580   2.235  2.9608  0.5573 -0.3752
 1734TIP3   OH226760   2.234   4.944   3.390  0.0442  0.0309 -0.2868
 1734TIP3    H126761   2.279   4.895   3.458 -0.7943 -0.3226  0.0250
 1734TIP3    H226762   2.259   4.901   3.308  0.5329  0.0459 -0.1441
 1735TIP3   OH226763   0.875   5.158   0.134  0.2864 -0.3928  0.4655
 1735TIP3    H126764   0.871   5.082   0.192  1.4742 -0.4184  0.5352
 1735TIP3    H226765   0.788   5.161   0.093 -0.1950 -1.0250  1.4061
 1736TIP3   OH226766   4.390   6.277   1.611 -0.7241 -0.5480  0.0117
 1736TIP3    H126767   4.357   6.354   1.657  0.4195 -0.5733  0.9346
 1736TIP3    H226768   4.377   6.205   1.672  1.9211 -0.3856  0.9079
 1737TIP3   OH226769   4.424   1.813   0.682  0.0549 -0.4739  0.0241
 1737TIP3    H126770   4.340   1.830   0.641  0.0676  2.1093  0.8996
 1737TIP3    H226771   4.406   1.746   0.748 -0.6307 -2.1690 -1.7983
 1738TIP3   OH226772   4.163   5.990   8.568  0.1058 -0.4901 -0.4263
 1738TIP3    H126773   4.253   6.022   8.573  0.1370 -0.6393  0.0478
 1738TIP3    H226774   4.110   6.069   8.568  0.2363 -0.3954 -0.8474
 1739TIP3   OH226775   2.726   1.072   2.288 -0.3641  0.0744  0.2546
 1739TIP3    H126776   2.685   1.145   2.335 -1.4148 -0.1808 -0.2381
 1739TIP3    H226777   2.740   1.107   2.200  1.1597  0.3933  0.5940
 1740TIP3   OH226778   0.445   4.545   8.327 -0.4464 -0.5336 -0.7617
 1740TIP3    H126779   0.403   4.613   8.274 -0.6289 -1.2171 -1.5255
 1740TIP3    H226780   0.475   4.590   8.405 -0.2350  0.4942 -1.4173
 1741TIP3   OH226781   5.959   6.264   8.059  0.0370 -0.1800 -0.2848
 1741TIP3    H126782   5.953   6.242   8.152 -1.1502  1.1021 -0.0179
 1741TIP3    H226783   5.959   6.360   8.057  1.2861 -0.1706 -1.5540
 1742TIP3   OH226784   0.954   1.073   2.557  0.2977 -0.3388 -0.7444
 1742TIP3    H126785   0.889   1.132   2.596 -0.5422 -1.2324 -0.7551
 1742TIP3    H226786   1.033   1.127   2.547 -0.3645  0.7010 -0.5028
 1743TIP3   OH226787   4.646   1.631   1.768  0.0705  0.3113  0.0130
 1743TIP3    H126788   4.563   1.622   1.813 -0.1577  1.4858 -0.1246
 1743TIP3    H226789   4.635   1.582   1.687 -0.0740 -0.4964  0.5189
 1744TIP3   OH226790   3.190   1.116   7.898 -0.0832  0.0195  0.5791
 1744TIP3    H126791   3.183   1.103   7.803  1.7745 -0.4122  0.4683
 1744TIP3    H226792   3.284   1.122   7.915 -0.4298  3.8850  1.9482
 1745TIP3   OH226793   1.733   3.779   7.474 -0.2869  0.6298  0.2547
 1745TIP3    H126794   1.782   3.708   7.516  1.0262  0.2963 -1.6936
 1745TIP3    H226795   1.733   3.850   7.538  2.8254  0.6544  0.3749
 1746TIP3   OH226796   6.174   0.553   8.304  0.3649  0.6788 -0.2339
 1746TIP3    H126797   6.264   0.568   8.334  0.4789 -0.4395  0.0566
 1746TIP3    H226798   6.180   0.554   8.208  0.9619 -0.6840 -0.2409
 1747TIP3   OH226799   3.804   2.003   1.707 -0.0188 -0.1662 -0.1004
 1747TIP3    H126800   3.793   1.927   1.650  1.3383 -0.7311  0.3573
 1747TIP3    H226801   3.797   2.078   1.648  0.5326 -0.7141 -0.8853
 1748TIP3   OH226802   4.974   3.755   2.545  0.0268 -0.5421 -0.5602
 1748TIP3    H126803   4.887   3.793   2.533 -0.9152 -2.6788 -0.8175
 1748TIP3    H226804   5.010   3.750   2.456 -0.2576 -1.1398 -0.6472
 1749TIP3   OH226805   1.579   5.599   0.902 -0.2724 -0.2704 -0.0982
 1749TIP3    H126806   1.663   5.641   0.882 -1.2856  1.7831 -0.2708
 1749TIP3    H226807   1.513   5.661   0.870 -1.9390 -3.2371 -3.0922
 1750TIP3   OH226808   0.120   2.536   0.812 -0.1977  0.7626 -0.6636
 1750TIP3    H126809   0.174   2.464   0.778 -0.8603  0.9567 -2.1992
 1750TIP3    H226810   0.179   2.611   0.814 -0.3459  0.9353 -2.1791
 1751TIP3   OH226811   0.967   0.103   2.319 -0.1639 -0.1263  0.1609
 1751TIP3    H126812   0.877   0.108   2.290 -0.7564 -0.1566  1.8630
 1751TIP3    H226813   1.004   0.029   2.271 -0.8568  0.2396 -0.9726
 1752TIP3   OH226814   4.630   2.121   2.222 -0.3577 -0.5595 -0.4126
 1752TIP3    H126815   4.726   2.125   2.224 -0.3185 -1.6323  0.7677
 1752TIP3    H226816   4.610   2.088   2.134  0.3870 -1.0148 -0.4247
 1753TIP3   OH226817   6.112   2.418   3.512  0.5600 -0.0934 -0.0553
 1753TIP3    H126818   6.066   2.362   3.576  1.2187 -1.0289 -0.3701
 1753TIP3    H226819   6.117   2.503   3.554  2.4503 -1.0686  1.9329
 1754TIP3   OH226820   3.166   5.383   0.184  0.0292  0.1751 -0.0743
 1754TIP3    H126821   3.261   5.399   0.188  0.3723 -1.8379  2.4115
 1754TIP3    H226822   3.159   5.295   0.149 -1.0490  0.7318 -1.3273
 1755TIP3   OH226823   2.684   3.906   2.579  0.1724  0.0266  0.1757
 1755TIP3    H126824   2.606   3.938   2.623 -0.1511 -0.8589  0.2585
 1755TIP3    H226825   2.746   3.978   2.584 -0.2063  0.2842  1.2130
 1756TIP3   OH226826   1.870   2.315   1.826  0.2964  0.4948  0.1324
 1756TIP3    H126827   1.916   2.394   1.799  0.7964  0.1385 -0.0826
 1756TIP3    H226828   1.778   2.334   1.810  0.3582  1.2460  0.6315
 1757TIP3   OH226829   2.314   5.831   2.066  0.3579 -0.5017  0.9510
 1757TIP3    H126830   2.342   5.740   2.061  0.5877 -0.7043  4.1407
 1757TIP3    H226831   2.374   5.871   2.129 -1.1645  1.2789  1.3335
 1758TIP3   OH226832   0.395   0.401   7.551  0.0360  0.0032  0.4139
 1758TIP3    H126833   0.379   0.307   7.563  0.3476 -0.0070  0.8177
 1758TIP3    H226834   0.321   0.443   7.595 -0.9949 -0.0500 -1.2115
 1759TIP3   OH226835   0.026   0.442   2.267 -0.6236 -0.9437  0.2105
 1759TIP3    H126836   0.089   0.471   2.333 -0.5324  0.9962 -0.6597
 1759TIP3    H226837   0.078   0.402   2.198 -0.4088 -0.1190 -0.1136
 1760TIP3   OH226838   2.554   3.548   2.252  1.3074  0.3304 -0.3309
 1760TIP3    H126839   2.534   3.642   2.253 -1.8252 -0.2315 -0.5853
 1760TIP3    H226840   2.523   3.516   2.337  1.4353 -0.6273 -0.6380
 1761TIP3   OH226841   0.349   1.126   0.988  0.0259  0.1229  0.5246
 1761TIP3    H126842   0.399   1.207   0.988  0.2056  0.0141  0.2495
 1761TIP3    H226843   0.274   1.144   1.045  0.7901  0.0273  1.6026
 1762TIP3   OH226844   1.555   0.520   1.451  0.0534  0.4698  0.4819
 1762TIP3    H126845   1.589   0.447   1.399 -0.4314  0.2161  0.5162
 1762TIP3    H226846   1.487   0.559   1.395  1.6468  2.1626 -0.4089
 1763TIP3   OH226847   1.946   2.945   8.277  0.9137  0.2257 -0.4017
 1763TIP3    H126848   1.881   2.901   8.333  2.2823 -0.6104  0.6246
 1763TIP3    H226849   1.992   2.873   8.233  2.2043  0.6782  0.1463
 1764TIP3   OH226850   6.336   2.752   1.148  0.3338 -0.4664  1.0643
 1764TIP3    H126851   6.325   2.754   1.243 -0.5949 -0.5525  0.9674
 1764TIP3    H226852   6.301   2.667   1.122 -1.1101  0.2914  0.4585
 1765TIP3   OH226853   5.310   6.740   2.261 -0.2304 -0.8087 -0.1132
 1765TIP3    H126854   5.396   6.779   2.277 -0.5064  0.3901 -1.3336
 1765TIP3    H226855   5.280   6.781   2.180 -2.5297 -0.2108  0.9680
 1766TIP3   OH226856   4.868   6.744   1.893  0.6813  0.2970 -0.1604
 1766TIP3    H126857   4.961   6.755   1.909  0.3211  1.0965  1.5478
 1766TIP3    H226858   4.843   6.822   1.844  1.3437 -1.1072 -2.9534
 1767TIP3   OH226859   3.303   1.417   0.808 -0.0714 -0.1071 -0.1320
 1767TIP3    H126860   3.260   1.334   0.789  1.6001 -0.8342 -0.9031
 1767TIP3    H226861   3.380   1.393   0.859 -0.6705  1.1913  1.4653
 1768TIP3   OH226862   6.782   2.835   7.922  0.0763 -0.4262  0.3945
 1768TIP3    H126863   6.788   2.789   8.006 -1.1472 -1.6727 -0.1568
 1768TIP3    H226864   6.862   2.810   7.876  1.2805  1.1244  1.5566
 1769TIP3   OH226865   1.867   3.759   7.931  0.0477  0.5461 -0.0254
 1769TIP3    H126866   1.814   3.816   7.988  0.5364  1.1523 -0.1622
 1769TIP3    H226867   1.830   3.672   7.943 -0.0978  0.7290  0.9369
 1770TIP3   OH226868   3.145   3.890   8.342  0.0003 -0.5505 -0.5894
 1770TIP3    H126869   3.125   3.971   8.296  2.2526  0.4700  0.0966
 1770TIP3    H226870   3.086   3.825   8.303 -1.7028  1.3230 -1.3164
 1771TIP3   OH226871   3.055   3.164   1.833 -0.7249  0.1784 -0.5037
 1771TIP3    H126872   2.974   3.190   1.789 -0.5889 -0.3310 -1.0562
 1771TIP3    H226873   3.124   3.179   1.769 -0.6016 -1.1886 -0.7140
 1772TIP3   OH226874   1.985   4.772   2.342  0.0821  0.2520  0.1028
 1772TIP3    H126875   1.955   4.808   2.259  2.4452  1.5166 -0.2981
 1772TIP3    H226876   1.954   4.835   2.408  2.6825  2.2876 -0.4320
 1773TIP3   OH226877   6.332   4.595   7.385 -0.1186 -0.3576 -0.1993
 1773TIP3    H126878   6.262   4.655   7.360  0.1521  0.8506  1.7088
 1773TIP3    H226879   6.288   4.512   7.402 -1.1902  0.4551  1.2378
 1774TIP3   OH226880   1.204   0.262   1.514 -0.5451  0.4616  0.0999
 1774TIP3    H126881   1.183   0.315   1.591 -1.2519  0.0611  0.1888
 1774TIP3    H226882   1.276   0.205   1.543  0.2951  1.4302 -0.0297
 1775TIP3   OH226883   1.186   0.555   3.341  0.2060 -0.3540  0.7985
 1775TIP3    H126884   1.218   0.603   3.265  1.5958 -0.7468  1.0953
 1775TIP3    H226885   1.162   0.623   3.404 -0.9322 -0.0298  0.0424
 1776TIP3   OH226886   3.598   1.292   2.055 -0.4413  0.3537 -0.2065
 1776TIP3    H126887   3.688   1.290   2.089 -0.8140  0.6665  0.8602
 1776TIP3    H226888   3.605   1.337   1.971  0.4344  0.1256 -0.2683
 1777TIP3   OH226889   6.790   6.549   8.217  0.5096  0.1316  0.0919
 1777TIP3    H126890   6.842   6.601   8.279  0.8068  0.4109 -0.3867
 1777TIP3    H226891   6.854   6.494   8.171  0.3466  0.2522 -0.2830
 1778TIP3   OH226892   3.951   2.923   7.715 -0.7501  0.2627 -0.8134
 1778TIP3    H126893   3.874   2.959   7.759  0.6295 -0.6370  2.6070
 1778TIP3    H226894   3.992   2.998   7.673 -1.9720  1.2723 -0.2552
 1779TIP3   OH226895   1.830   3.351   1.491 -0.1463 -0.1542 -0.1086
 1779TIP3    H126896   1.790   3.407   1.557  0.2094 -0.5477  0.4504
 1779TIP3    H226897   1.817   3.262   1.525 -2.0182 -0.5519 -1.6844
 1780TIP3   OH226898   4.262   3.081   2.115 -0.1045  0.0908  0.4504
 1780TIP3    H126899   4.247   3.175   2.121 -0.8667 -0.1012  1.9521
 1780TIP3    H226900   4.281   3.053   2.204  0.6656 -1.1024 -0.0596
 1781TIP3   OH226901   1.166   1.389   0.535 -0.0577  0.1000 -0.1283
 1781TIP3    H126902   1.181   1.448   0.609 -1.5351  1.3769 -0.7751
 1781TIP3    H226903   1.113   1.318   0.572 -0.5493  0.5845  0.1172
 1782TIP3   OH226904   0.984   0.593   8.311 -0.2104  0.4891  0.4963
 1782TIP3    H126905   0.960   0.516   8.258  2.0661  0.3381 -0.4657
 1782TIP3    H226906   0.999   0.557   8.399  0.3140 -0.1161  0.1774
 1783TIP3   OH226907   6.556   1.131   7.275 -0.0663 -0.5347  0.1283
 1783TIP3    H126908   6.598   1.216   7.271  2.3847 -1.5595  1.8282
 1783TIP3    H226909   6.511   1.130   7.359  1.9014 -1.6762  1.2406
 1784TIP3   OH226910   0.624   5.515   8.712  0.4035  0.0371  0.0462
 1784TIP3    H126911   0.715   5.488   8.698  0.4207  0.0379  0.1553
 1784TIP3    H226912   0.624   5.609   8.692  0.3705 -0.0174 -0.2096
 1785TIP3   OH226913   6.046   3.027   2.187 -0.4331  0.4830 -0.3018
 1785TIP3    H126914   6.065   3.113   2.224 -0.6637  0.3501  0.1361
 1785TIP3    H226915   5.961   3.003   2.225  0.6496 -0.9382  1.3974
 1786TIP3   OH226916   6.039   5.003   1.604  0.4921 -0.3098 -0.0011
 1786TIP3    H126917   6.039   5.071   1.537  0.9054 -0.2090  0.0941
 1786TIP3    H226918   6.119   5.020   1.655 -1.0107  1.1631  2.0557
 1787TIP3   OH226919   2.926   2.625   8.314 -0.0722 -0.0321  0.1284
 1787TIP3    H126920   2.918   2.720   8.322  0.6116  0.0344  0.0920
 1787TIP3    H226921   3.009   2.611   8.269  1.1297 -0.7044  2.4022
 1788TIP3   OH226922   6.063   4.743   2.615 -0.3995  0.1968 -0.2797
 1788TIP3    H126923   6.106   4.794   2.684 -1.2130  0.4497  0.0606
 1788TIP3    H226924   6.094   4.782   2.534  0.8986 -0.3733 -0.0763
 1789TIP3   OH226925   0.529   5.202   8.225  0.1654  0.1257  0.1260
 1789TIP3    H126926   0.438   5.198   8.252  0.5191  0.0621  1.3786
 1789TIP3    H226927   0.549   5.296   8.219 -0.1795  0.1454 -0.9086
 1790TIP3   OH226928   4.032   5.664   0.295 -0.2238  0.1325 -0.3306
 1790TIP3    H126929   4.056   5.655   0.203  0.1973 -3.2221 -0.0255
 1790TIP3    H226930   4.088   5.601   0.340 -1.5535  0.5229  2.0275
 1791TIP3   OH226931   5.648   6.337   2.130  0.0612  0.4878  0.1443
 1791TIP3    H126932   5.718   6.319   2.067  0.8823 -1.0430  1.4040
 1791TIP3    H226933   5.691   6.380   2.203 -0.7872  1.7658 -0.0728
 1792TIP3   OH226934   5.000   1.517   0.768  0.1133 -0.3297 -0.0897
 1792TIP3    H126935   4.968   1.548   0.854 -1.0068  1.0165 -0.9394
 1792TIP3    H226936   4.965   1.429   0.760 -0.9026  0.0258  0.2819
 1793TIP3   OH226937   4.442   2.642   1.777 -0.1880  0.3157  0.5037
 1793TIP3    H126938   4.370   2.580   1.791  0.1343  0.2084  1.7819
 1793TIP3    H226939   4.427   2.711   1.843  0.8530  0.3061  0.7713
 1794TIP3   OH226940   5.718   0.818   0.416 -0.1503 -0.7691  0.2047
 1794TIP3    H126941   5.696   0.776   0.333 -1.4594 -1.8782  1.0632
 1794TIP3    H226942   5.791   0.767   0.450  0.1181 -0.5731 -0.0788
 1795TIP3   OH226943   6.238   4.980   0.901  0.2299 -0.1762 -0.0415
 1795TIP3    H126944   6.180   4.954   0.829  0.0757 -1.5120  0.5526
 1795TIP3    H226945   6.226   5.075   0.908 -1.1636 -0.3024 -0.5480
 1796TIP3   OH226946   1.437   2.469   0.120  0.1884 -0.0156 -0.2265
 1796TIP3    H126947   1.494   2.417   0.176  0.5783  2.3570  1.7515
 1796TIP3    H226948   1.482   2.472   0.035  0.3522 -2.4201 -0.2903
 1797TIP3   OH226949   1.713   0.551   1.809 -0.5122  0.0811  0.3982
 1797TIP3    H126950   1.698   0.633   1.856 -0.1790  0.6573 -0.4825
 1797TIP3    H226951   1.626   0.524   1.781 -0.8822 -0.8607  2.2472
 1798TIP3   OH226952   5.395   1.960   7.241  0.2883 -0.4282  0.2951
 1798TIP3    H126953   5.454   1.961   7.165 -0.9585  1.3691 -0.7312
 1798TIP3    H226954   5.335   1.888   7.224 -1.1941  1.1230 -1.4939
 1799TIP3   OH226955   2.453   3.112   1.324  0.0589 -0.1256 -0.2131
 1799TIP3    H126956   2.402   3.193   1.328  0.4429  0.1864 -1.3044
 1799TIP3    H226957   2.490   3.112   1.236 -0.1957 -1.6548 -0.3412
 1800TIP3   OH226958   5.218   3.572   3.504 -0.0409  0.2860  0.2892
 1800TIP3    H126959   5.267   3.542   3.580  0.9967  0.3864 -0.3251
 1800TIP3    H226960   5.240   3.665   3.496 -0.2316  0.3033 -0.0756
 1801TIP3   OH226961   0.624   3.183   0.603  0.0890 -0.3741  0.1694
 1801TIP3    H126962   0.696   3.196   0.664  0.2571  0.9368 -0.2659
 1801TIP3    H226963   0.665   3.154   0.521  0.5652  2.9865 -0.9743
 1802TIP3   OH226964   4.687   4.990   8.611  0.1832  0.8672  0.3089
 1802TIP3    H126965   4.624   4.964   8.679  0.6090  0.6047  0.6056
 1802TIP3    H226966   4.678   5.085   8.605  0.8931  1.0212  1.4868
 1803TIP3   OH226967   1.424   2.471   2.352  0.0292 -0.2783  0.0420
 1803TIP3    H126968   1.516   2.495   2.358 -0.1236  0.5229 -0.7932
 1803TIP3    H226969   1.415   2.429   2.267 -0.5742  0.5398 -0.3107
 1804TIP3   OH226970   1.594   0.597   0.025  0.3092  0.3506  0.2484
 1804TIP3    H126971   1.530   0.669   0.027  0.4948  0.5102  1.2978
 1804TIP3    H226972   1.552   0.527   0.074  0.5143  0.0764  0.0309
 1805TIP3   OH226973   3.899   5.308   8.039 -0.1120  0.0749 -0.2537
 1805TIP3    H126974   3.932   5.397   8.028  0.8135 -0.0998  0.9657
 1805TIP3    H226975   3.909   5.268   7.953  1.5396  0.4693 -0.2692
 1806TIP3   OH226976   6.819   3.846   2.617 -0.0399 -0.2352 -0.0195
 1806TIP3    H126977   6.906   3.883   2.601  1.0472 -2.1650  1.0396
 1806TIP3    H226978   6.765   3.878   2.545  1.9974 -0.3788 -1.6825
 1807TIP3   OH226979   6.159   3.098   7.666 -0.0087 -0.0226 -0.6625
 1807TIP3    H126980   6.075   3.122   7.703  0.2897  1.1849 -0.7412
 1807TIP3    H226981   6.210   3.068   7.741  0.4145  1.9106 -0.1191
 1808TIP3   OH226982   5.380   1.259   2.962  0.0860  0.5368  0.0518
 1808TIP3    H126983   5.432   1.268   3.042 -0.1422  0.0810  0.2512
 1808TIP3    H226984   5.360   1.166   2.955 -0.8778  0.7256  0.0892
 1809TIP3   OH226985   5.096   4.496   3.001  0.0949  0.6038  0.1091
 1809TIP3    H126986   5.054   4.536   2.926  0.8692  0.9338 -0.1607
 1809TIP3    H226987   5.065   4.405   3.001 -3.1244  1.5385  1.7745
 1810TIP3   OH226988   2.201   2.838   7.680  0.0157 -0.8030  0.5722
 1810TIP3    H126989   2.111   2.807   7.678  0.0764 -1.0041 -1.9617
 1810TIP3    H226990   2.253   2.758   7.691 -0.0589 -0.7834  1.1117
 1811TIP3   OH226991   6.721   3.376   8.161  0.0195 -0.0909 -0.1413
 1811TIP3    H126992   6.769   3.454   8.189  0.9999 -1.1556  1.2751
 1811TIP3    H226993   6.696   3.332   8.243  0.9722 -2.1376 -0.8807
 1812TIP3   OH226994   6.064   5.198   7.374 -0.3727 -0.0836 -0.2103
 1812TIP3    H126995   6.158   5.183   7.364 -0.5432 -1.1409 -0.3309
 1812TIP3    H226996   6.056   5.294   7.378  0.7579  0.0163  0.3375
 1813TIP3   OH226997   4.886   1.694   0.044 -0.0737  0.0929 -0.6322
 1813TIP3    H126998   4.965   1.644   0.025  0.3223 -0.0849  1.2551
 1813TIP3    H226999   4.871   1.746  -0.034  0.6255 -1.5178 -1.9011
 1814TIP3   OH227000   4.407   0.205   8.628 -0.0008 -0.2467 -0.3263
 1814TIP3    H127001   4.322   0.216   8.671 -0.7336 -1.9721 -1.2495
 1814TIP3    H227002   4.454   0.145   8.686  0.8270  1.0803  0.4376
 1815TIP3   OH227003   2.117   1.342   8.239 -0.2787  0.3150  0.4265
 1815TIP3    H127004   2.115   1.384   8.325  0.7207  0.3804  0.4214
 1815TIP3    H227005   2.208   1.346   8.212 -0.4575 -0.3903 -0.3098
 1816TIP3   OH227006   0.688   0.399   7.576 -0.1510 -0.0690 -0.2530
 1816TIP3    H127007   0.597   0.428   7.569 -0.3181 -0.6805 -0.7580
 1816TIP3    H227008   0.705   0.355   7.493  0.0335 -1.5417  0.5258
 1817TIP3   OH227009   1.997   2.983   1.127  0.0345  0.1171 -1.1405
 1817TIP3    H127010   2.007   2.889   1.108  2.6403 -0.0051  0.3234
 1817TIP3    H227011   2.085   3.018   1.121  0.0636  1.3984  3.2517
 1818TIP3   OH227012   5.478   2.270   8.195  0.2390  0.1884  0.4415
 1818TIP3    H127013   5.482   2.316   8.110 -1.7526 -0.4169 -0.0256
 1818TIP3    H227014   5.418   2.323   8.248  1.4571  0.5502  1.5160
 1819TIP3   OH227015   5.632   2.649   7.892 -0.4214  0.4711 -0.0413
 1819TIP3    H127016   5.721   2.643   7.926 -1.4106  2.0331  3.2912
 1819TIP3    H227017   5.637   2.713   7.821  1.0673  0.7715  0.3120
 1820TIP3   OH227018   3.908   6.451   2.496 -0.5739  0.2531  0.6571
 1820TIP3    H127019   3.834   6.468   2.554 -1.1670 -1.3940  0.4288
 1820TIP3    H227020   3.922   6.534   2.450 -2.0536  0.6976  0.9620
 1821TIP3   OH227021   5.657   2.557   2.947 -0.4388 -0.1519  0.2969
 1821TIP3    H127022   5.736   2.506   2.966  0.9930  1.8524  0.0650
 1821TIP3    H227023   5.646   2.613   3.024 -2.0946 -0.8968  0.6408
 1822TIP3   OH227024   4.577   0.381   0.071 -0.1719 -0.8211  0.1915
 1822TIP3    H127025   4.575   0.379  -0.024  0.2348  0.0577  0.1544
 1822TIP3    H227026   4.499   0.331   0.098 -0.6894 -0.4652 -0.6119
 1823TIP3   OH227027   2.072   3.650   0.295 -0.3126 -0.0754 -0.0040
 1823TIP3    H127028   2.149   3.593   0.298 -0.5897 -0.5921 -1.7264
 1823TIP3    H227029   2.041   3.645   0.204 -0.9089  2.0998  0.0164
 1824TIP3   OH227030   5.415   1.170   7.511 -0.0146 -0.7791 -1.0950
 1824TIP3    H127031   5.360   1.114   7.565  1.4156 -0.5398  0.7074
 1824TIP3    H227032   5.355   1.209   7.447 -1.9445 -0.4313  0.8463
 1825TIP3   OH227033   3.662   0.658   8.071 -0.2164 -0.2490  0.1880
 1825TIP3    H127034   3.673   0.740   8.118 -0.8966 -0.2319  0.3206
 1825TIP3    H227035   3.735   0.603   8.101  0.8469  0.6501 -0.6768
 1826TIP3   OH227036   1.666   4.722   0.055  0.1393  0.1306 -0.3073
 1826TIP3    H127037   1.644   4.630   0.040 -1.1053  0.4349 -0.4204
 1826TIP3    H227038   1.699   4.724   0.145 -0.8424 -0.2578  0.0737
 1827TIP3   OH227039   3.600   1.234   3.136  0.1513 -0.4827 -0.0305
 1827TIP3    H127040   3.532   1.292   3.101  0.6738 -0.6583 -1.4194
 1827TIP3    H227041   3.597   1.247   3.231 -1.1235  0.2679 -0.1551
 1828TIP3   OH227042   6.685   1.832   8.261 -0.3531 -0.4213  0.2048
 1828TIP3    H127043   6.760   1.843   8.202 -0.2213 -1.6423  0.1254
 1828TIP3    H227044   6.611   1.818   8.202 -0.8007  1.4835  0.2589
 1829TIP3   OH227045   6.757   1.394   8.580 -0.7474 -0.1913  0.1835
 1829TIP3    H127046   6.819   1.334   8.619  1.1844  0.2484 -1.9727
 1829TIP3    H227047   6.738   1.458   8.649 -1.7172 -2.3192  2.0328
 1830TIP3   OH227048   5.902   1.587   2.489 -0.2547  0.4023  0.1052
 1830TIP3    H127049   5.985   1.566   2.531 -1.0911 -1.6028  0.8774
 1830TIP3    H227050   5.927   1.628   2.406  1.4701  0.4022  0.5842
 1831TIP3   OH227051   4.143   1.292   0.942 -0.2333  0.2335 -0.2579
 1831TIP3    H127052   4.132   1.205   0.905 -0.0795 -0.1100  0.4895
 1831TIP3    H227053   4.061   1.310   0.988 -0.2107  0.4195 -0.2881
 1832TIP3   OH227054   4.719   0.042   0.217  0.4098  0.3874 -0.0315
 1832TIP3    H127055   4.808   0.007   0.227  0.1616  0.0142  1.0092
 1832TIP3    H227056   4.670   0.003   0.289 -0.9178 -0.3534 -1.2919
 1833TIP3   OH227057   2.979   0.530   1.573  0.5688  1.2748  0.0926
 1833TIP3    H127058   2.910   0.495   1.517  0.0580 -0.2459  1.5993
 1833TIP3    H227059   3.027   0.453   1.603 -0.4433  1.7591  3.3599
 1834TIP3   OH227060   4.103   0.068   0.875 -0.2222  0.9107  0.0239
 1834TIP3    H127061   4.076   0.046   0.964  1.1340 -0.1810  0.2020
 1834TIP3    H227062   4.193   0.035   0.868 -1.1275 -1.4106 -2.5639
 1835TIP3   OH227063   1.500   4.020   2.288  0.1943  0.0332 -0.1394
 1835TIP3    H127064   1.462   4.095   2.334 -0.2358  2.0780 -3.5581
 1835TIP3    H227065   1.594   4.029   2.301  0.3613  2.6448 -2.3284
 1836TIP3   OH227066   6.706   6.449   2.091 -0.1062  0.6211  0.5282
 1836TIP3    H127067   6.689   6.360   2.123 -3.2962  0.1530 -1.9528
 1836TIP3    H227068   6.648   6.504   2.142 -0.5228  0.7871 -0.1180
 1837TIP3   OH227069   2.385   0.672   0.303  0.1732 -0.3139  0.0285
 1837TIP3    H127070   2.353   0.692   0.391 -1.5432 -1.8930 -0.1751
 1837TIP3    H227071   2.432   0.589   0.313  1.5890  0.4173 -0.2582
 1838TIP3   OH227072   6.274   5.129   0.548 -0.2462  0.0882  0.1304
 1838TIP3    H127073   6.279   5.150   0.641 -0.5975  0.6436  0.0274
 1838TIP3    H227074   6.302   5.209   0.503  1.5683 -0.6779 -0.2370
 1839TIP3   OH227075   6.093   0.601   8.011 -0.3599 -0.1722  0.1505
 1839TIP3    H127076   6.047   0.579   7.929 -1.5071 -1.9533  1.1955
 1839TIP3    H227077   6.099   0.696   8.010 -1.5740 -0.0600 -1.3641
 1840TIP3   OH227078   2.525   4.095   8.460 -0.4365 -0.2654 -0.2705
 1840TIP3    H127079   2.492   4.054   8.541 -1.0170  0.8051  0.0468
 1840TIP3    H227080   2.561   4.022   8.410  0.2866 -0.9050  1.1203
 1841TIP3   OH227081   0.513   6.638   2.212  0.2723  0.1325 -0.5411
 1841TIP3    H127082   0.514   6.599   2.125 -0.4601  0.9536 -0.9285
 1841TIP3    H227083   0.600   6.619   2.248  0.6834  0.0402 -1.5590
 1842TIP3   OH227084   4.150   2.925   1.415  0.0228 -0.2868 -0.2478
 1842TIP3    H127085   4.091   2.937   1.489  0.7188  1.4924  0.0530
 1842TIP3    H227086   4.096   2.883   1.348 -1.5931  1.2234  0.0395
 1843TIP3   OH227087   2.166   0.842   2.550 -0.0276 -0.4213  0.2695
 1843TIP3    H127088   2.250   0.797   2.561  0.5110  0.8900  1.9480
 1843TIP3    H227089   2.161   0.902   2.624 -1.8412  0.5230 -0.5545
 1844TIP3   OH227090   3.306   3.304   1.102  0.1715  0.2542  0.5817
 1844TIP3    H127091   3.281   3.374   1.041  0.0852  0.5363  0.9393
 1844TIP3    H227092   3.232   3.296   1.161  1.5112  2.2205  2.6828
 1845TIP3   OH227093   2.483   1.044   1.126  0.3677 -0.2055  0.0172
 1845TIP3    H127094   2.541   1.033   1.202  1.5792 -2.3197 -1.0953
 1845TIP3    H227095   2.471   0.955   1.093 -0.7037  0.5812 -1.8521
 1846TIP3   OH227096   2.633   5.236   3.027 -0.3230  0.5060 -0.6335
 1846TIP3    H127097   2.660   5.327   3.041  2.0533 -0.5014  2.5142
 1846TIP3    H227098   2.711   5.193   2.991 -0.0175 -1.0120  1.6411
 1847TIP3   OH227099   0.644   2.751   8.697 -0.3416 -0.2559  0.2736
 1847TIP3    H127100   0.695   2.687   8.648  1.7915 -0.3137  2.3851
 1847TIP3    H227101   0.597   2.699   8.762  1.6077  0.2044  2.1758
 1848TIP3   OH227102   0.393   3.323   0.746 -0.3749  0.1696 -0.6088
 1848TIP3    H127103   0.477   3.309   0.702 -0.3311 -2.2671  0.0748
 1848TIP3    H227104   0.336   3.255   0.710 -0.9198 -0.6022  1.5724
 1849TIP3   OH227105   1.244   5.610   1.687 -0.1738 -0.0492  0.3265
 1849TIP3    H127106   1.153   5.612   1.716 -0.4035 -0.0089 -0.3885
 1849TIP3    H227107   1.239   5.606   1.591  0.5371 -1.7944  0.3250
 1850TIP3   OH227108   1.860   4.580   2.067  0.2169 -0.6032  0.0219
 1850TIP3    H127109   1.832   4.641   2.136  0.2685  2.3824 -2.3581
 1850TIP3    H227110   1.952   4.600   2.052 -0.2665  0.3507 -2.1886
 1851TIP3   OH227111   0.958   1.378   0.782 -0.4899 -0.0620  0.1878
 1851TIP3    H127112   1.045   1.415   0.793 -1.0566  1.0464  1.2439
 1851TIP3    H227113   0.953   1.307   0.847 -0.3049 -0.2476 -0.0030
 1852TIP3   OH227114   6.378   1.487   1.640  0.0884 -0.1498  0.2925
 1852TIP3    H127115   6.327   1.442   1.574  0.4315 -0.7703  0.4481
 1852TIP3    H227116   6.426   1.555   1.592 -2.5985  2.0246  0.4379
 1853TIP3   OH227117   1.005   4.058   1.837  0.2249  0.1449 -0.4689
 1853TIP3    H127118   0.991   4.137   1.888  0.6855 -0.1368  0.1052
 1853TIP3    H227119   0.917   4.021   1.824 -0.1315  1.3547 -1.7569
 1854TIP3   OH227120   1.120   4.998   8.048  0.2321  0.0483 -0.5390
 1854TIP3    H127121   1.077   5.052   7.982  2.4113 -0.0114 -2.0987
 1854TIP3    H227122   1.198   4.965   8.005  1.7199 -0.0539  2.0561
 1855TIP3   OH227123   5.335   5.305   2.015  0.0865  0.2305 -0.3587
 1855TIP3    H127124   5.429   5.322   2.024 -0.0782  0.6756  0.6397
 1855TIP3    H227125   5.294   5.388   2.039 -0.5557  0.1145 -1.0535
 1856TIP3   OH227126   2.483   2.113   1.678 -0.2844  0.3106 -0.1483
 1856TIP3    H127127   2.536   2.114   1.599 -2.2687  1.2263 -1.5525
 1856TIP3    H227128   2.478   2.205   1.705 -0.5576  0.1432  0.3939
 1857TIP3   OH227129   2.942   4.715   8.355 -0.1892  0.6757  0.3558
 1857TIP3    H127130   3.021   4.680   8.397 -0.9270 -0.2365  1.0338
 1857TIP3    H227131   2.891   4.637   8.331 -0.8542  1.2503 -0.1357
 1858TIP3   OH227132   0.477   4.114   2.428  0.2951 -0.0192 -0.5546
 1858TIP3    H127133   0.564   4.123   2.466 -0.3421  0.7526  0.8056
 1858TIP3    H227134   0.427   4.187   2.464 -1.6335 -1.8618  0.7595
 1859TIP3   OH227135   0.632   6.515   1.955 -0.0814  0.4803  0.5222
 1859TIP3    H127136   0.609   6.552   1.870  0.8869 -1.8926 -0.8776
 1859TIP3    H227137   0.580   6.435   1.961  0.1786  0.4002  1.9969
 1860TIP3   OH227138   3.120   3.682   1.576 -0.0210  0.6786 -0.6998
 1860TIP3    H127139   3.185   3.680   1.647 -0.7546 -1.0009 -0.0519
 1860TIP3    H227140   3.170   3.659   1.498  0.2269 -0.3573 -0.2454
 1861TIP3   OH227141   4.481   5.635   1.772 -0.1434  0.3380  0.2394
 1861TIP3    H127142   4.530   5.716   1.761 -0.8119  1.2043  2.8501
 1861TIP3    H227143   4.529   5.587   1.840  0.1639 -1.4621 -1.1516
 1862TIP3   OH227144   2.420   2.492   0.793 -0.0503  0.0520  0.6349
 1862TIP3    H127145   2.454   2.417   0.841  0.6204  0.8215  1.3943
 1862TIP3    H227146   2.496   2.549   0.781 -0.4670  0.4339 -0.2777
 1863TIP3   OH227147   1.194   3.761   8.003 -0.2328  0.3758  0.2988
 1863TIP3    H127148   1.183   3.677   8.049  0.4977  0.5742  0.8426
 1863TIP3    H227149   1.281   3.756   7.965  0.0896  1.1661  0.9116
 1864TIP3   OH227150   3.405   6.130   0.764  0.1856  0.3939  0.5308
 1864TIP3    H127151   3.321   6.107   0.724 -0.2077  1.6390  0.6010
 1864TIP3    H227152   3.428   6.214   0.724  3.2314 -1.4938 -2.3225
 1865TIP3   OH227153   6.627   4.003   7.437  0.2578  0.1523 -0.3096
 1865TIP3    H127154   6.675   4.048   7.507 -0.7803 -1.9585  1.9276
 1865TIP3    H227155   6.687   4.005   7.362  1.5800  2.2057  0.6836
 1866TIP3   OH227156   3.998   6.294   8.215 -0.1899  0.1204  0.1384
 1866TIP3    H127157   3.966   6.252   8.136 -0.7600  2.2566 -0.8293
 1866TIP3    H227158   3.965   6.383   8.211  0.3166  0.4920  2.4763
 1867TIP3   OH227159   5.020   3.008   2.873  0.6162 -0.0352  0.1265
 1867TIP3    H127160   5.095   3.035   2.926  1.2345  0.4800 -0.9779
 1867TIP3    H227161   5.020   2.912   2.880  1.5146 -0.0562 -0.0378
 1868TIP3   OH227162   4.978   1.397   3.046 -0.4540 -0.0780 -0.0058
 1868TIP3    H127163   5.050   1.396   2.982 -0.0722 -0.6718  0.4259
 1868TIP3    H227164   4.900   1.416   2.993 -0.3453 -1.9072 -0.8867
 1869TIP3   OH227165   4.671   6.059   1.263 -0.7381  0.3675  0.4725
 1869TIP3    H127166   4.612   6.118   1.311  0.5061  2.0380  0.0535
 1869TIP3    H227167   4.734   6.118   1.222  0.7647 -1.3116  0.2775
 1870TIP3   OH227168   1.787   6.014   1.947 -0.0789 -0.4406 -0.2137
 1870TIP3    H127169   1.856   5.965   1.903  0.5429  0.0133  0.2362
 1870TIP3    H227170   1.706   5.970   1.921  0.4231 -1.4066 -0.1857
 1871TIP3   OH227171   6.257   4.622   2.070  0.1418 -0.1196 -0.3584
 1871TIP3    H127172   6.216   4.536   2.074 -0.3133  0.1223  0.6695
 1871TIP3    H227173   6.203   4.677   2.128 -0.4116  1.2186 -2.0701
 1872TIP3   OH227174   1.049   4.484   0.871 -0.7929 -0.6109  0.0414
 1872TIP3    H127175   1.007   4.402   0.844  1.3955 -1.4155 -1.1377
 1872TIP3    H227176   1.136   4.458   0.903 -0.1709  1.2144 -0.0187
 1873TIP3   OH227177   2.038   5.482   1.848 -0.4002 -0.1423 -0.1529
 1873TIP3    H127178   2.051   5.440   1.934  1.7694  1.7748  0.5750
 1873TIP3    H227179   2.106   5.443   1.793  2.0730  2.5382  0.7025
 1874TIP3   OH227180   0.781   0.133   8.057 -0.6268 -0.1449 -0.0099
 1874TIP3    H127181   0.851   0.079   8.019 -1.1505 -2.2178  1.7497
 1874TIP3    H227182   0.711   0.129   7.992 -0.7132 -1.8220  0.1301
 1875TIP3   OH227183   1.205   5.660   2.231  0.6918 -0.2415 -0.0859
 1875TIP3    H127184   1.197   5.731   2.167  1.5584 -0.5236 -0.5321
 1875TIP3    H227185   1.126   5.607   2.218  0.4480  0.1718 -0.3335
 1876TIP3   OH227186   1.281   4.406   7.910 -0.2463 -0.0937  0.3596
 1876TIP3    H127187   1.277   4.411   7.815 -1.8247  1.5601  0.4511
 1876TIP3    H227188   1.266   4.314   7.930 -1.9820 -0.1519 -0.9572
 1877TIP3   OH227189   5.023   5.759   0.221 -0.6603  0.2816 -0.3556
 1877TIP3    H127190   5.072   5.748   0.139 -0.9812  0.5777 -0.5914
 1877TIP3    H227191   5.000   5.670   0.247  0.7440  0.0651  0.2193
 1878TIP3   OH227192   6.400   1.381   3.404  0.2133 -0.1329  1.0110
 1878TIP3    H127193   6.429   1.333   3.326 -1.0697 -1.2700  1.2020
 1878TIP3    H227194   6.341   1.321   3.449 -0.4692  1.1675  1.9264
 1879TIP3   OH227195   6.648   6.042   0.442  0.2233  0.2793 -0.0834
 1879TIP3    H127196   6.714   6.089   0.390  0.5928 -1.0651 -0.8626
 1879TIP3    H227197   6.621   5.969   0.386 -1.1214  0.1601  0.6783
 1880TIP3   OH227198   6.776   6.060   7.664  0.3530 -0.0072 -0.3451
 1880TIP3    H127199   6.826   6.007   7.602  1.4097  0.5090  0.0275
 1880TIP3    H227200   6.697   6.010   7.681  0.5690 -0.6831 -1.2461
 1881TIP3   OH227201   2.147   5.554   1.235 -0.3650  0.1496  0.0095
 1881TIP3    H127202   2.136   5.460   1.221  1.2821 -0.0370 -0.2221
 1881TIP3    H227203   2.242   5.567   1.242 -0.4984  1.9056 -0.7779
 1882TIP3   OH227204   5.829   1.226   1.935 -0.1197 -0.1052  0.7046
 1882TIP3    H127205   5.750   1.274   1.911 -0.5899 -1.2330 -0.0871
 1882TIP3    H227206   5.872   1.207   1.851  0.0389 -1.0878  1.0005
 1883TIP3   OH227207   0.966   3.615   2.160 -0.2600  0.1326  0.1575
 1883TIP3    H127208   0.895   3.607   2.096 -0.5157 -0.3735  0.4984
 1883TIP3    H227209   0.926   3.589   2.243  0.1963  0.3273  0.4413
 1884TIP3   OH227210   0.788   0.263   2.590 -0.2133  0.0213 -0.2781
 1884TIP3    H127211   0.840   0.218   2.656  0.7511  1.4517 -0.0203
 1884TIP3    H227212   0.793   0.207   2.513 -0.9388 -1.4254  0.6710
 1885TIP3   OH227213   6.303   2.637   0.856 -0.7037 -0.1990  0.0525
 1885TIP3    H127214   6.257   2.569   0.905  0.9377 -0.6685  1.0202
 1885TIP3    H227215   6.330   2.594   0.775 -0.1067 -0.5551  0.4390
 1886TIP3   OH227216   3.387   3.753   0.677 -0.7750 -0.4270  0.4320
 1886TIP3    H127217   3.461   3.788   0.727 -0.2459  1.5329 -1.5852
 1886TIP3    H227218   3.406   3.660   0.666  1.9885  0.2186 -0.9343
 1887TIP3   OH227219   5.639   2.995   8.196  0.2951 -0.3847 -0.3467
 1887TIP3    H127220   5.565   2.988   8.136 -1.8739 -1.8798  2.2636
 1887TIP3    H227221   5.675   2.906   8.200 -1.0593 -0.9087  2.1237
 1888TIP3   OH227222   1.357   4.910   1.516  0.1004  0.1064 -0.1877
 1888TIP3    H127223   1.393   4.959   1.590  2.7056 -1.1241 -0.5464
 1888TIP3    H227224   1.311   4.836   1.555  1.8844 -0.8154  0.2846
 1889TIP3   OH227225   1.306   1.764   3.001  0.4212 -0.3401 -0.4922
 1889TIP3    H127226   1.288   1.827   2.931  0.0210 -0.7584 -0.7760
 1889TIP3    H227227   1.281   1.809   3.082  1.7301  0.4720 -0.5187
 1890TIP3   OH227228   5.558   3.523   2.243  0.5401 -0.2848  0.1058
 1890TIP3    H127229   5.626   3.547   2.306  1.3305  0.8967 -1.1161
 1890TIP3    H227230   5.523   3.607   2.213 -0.6431 -0.8608 -0.1549
 1891TIP3   OH227231   5.845   0.151   1.234 -0.0943 -0.1498 -0.5131
 1891TIP3    H127232   5.882   0.223   1.285 -1.5303 -0.8306  1.6033
 1891TIP3    H227233   5.774   0.191   1.183 -0.2364  0.1041 -0.1128
 1892TIP3   OH227234   4.825   4.060   8.737  0.2652  0.0100 -0.1073
 1892TIP3    H127235   4.833   3.973   8.697  0.4661 -1.5807  3.0824
 1892TIP3    H227236   4.887   4.058   8.809 -1.0264  2.1615  1.1380
 1893TIP3   OH227237   4.419   2.143   2.766  0.4054 -0.0788  0.0024
 1893TIP3    H127238   4.327   2.139   2.790  0.2944  1.9454  0.0296
 1893TIP3    H227239   4.423   2.206   2.694  1.8119  0.1127  0.2191
 1894TIP3   OH227240   3.008   2.190   2.520  0.0013  0.3167  0.5087
 1894TIP3    H127241   3.053   2.159   2.441 -0.5138 -1.6704  0.9320
 1894TIP3    H227242   3.015   2.285   2.516  0.6800  0.2332 -1.5180
 1895TIP3   OH227243   2.803   2.615   8.642 -0.1620  0.4460  0.2549
 1895TIP3    H127244   2.740   2.640   8.710  0.1346 -0.9065  1.0570
 1895TIP3    H227245   2.841   2.533   8.673  2.5994  1.6000  0.1976
 1896TIP3   OH227246   2.167   4.276   2.400  0.4347  0.2994  0.3269
 1896TIP3    H127247   2.111   4.330   2.456 -1.2922 -0.0643 -0.9649
 1896TIP3    H227248   2.255   4.314   2.409 -0.3332  1.9641  1.0951
 1897TIP3   OH227249   3.576   3.260   8.429 -0.3278  0.0832 -0.4699
 1897TIP3    H127250   3.615   3.194   8.486 -0.9018  0.5138  0.4607
 1897TIP3    H227251   3.535   3.210   8.358 -1.4552 -0.6490  0.6523
 1898TIP3   OH227252   0.944   1.786   1.543  0.4818  0.1072  0.0326
 1898TIP3    H127253   0.899   1.853   1.491 -0.4397  0.1962  0.9123
 1898TIP3    H227254   0.981   1.834   1.617 -0.9824 -0.4393  1.1744
 1899TIP3   OH227255   1.916   3.051   2.364 -0.0652 -0.1466 -0.1304
 1899TIP3    H127256   1.968   3.028   2.441 -1.1644 -0.5466  0.5206
 1899TIP3    H227257   1.857   3.120   2.396 -0.9689 -0.7655 -0.4324
 1900TIP3   OH227258   6.284   6.611   1.749  0.8720  0.6200  0.0438
 1900TIP3    H127259   6.196   6.622   1.714  0.3100 -1.3288  0.7296
 1900TIP3    H227260   6.342   6.639   1.678 -0.2146 -2.5249 -2.3068
 1901TIP3   OH227261   1.586   0.577   8.079 -0.3992  0.2034 -0.2190
 1901TIP3    H127262   1.620   0.663   8.101 -1.4803  0.3838  0.8752
 1901TIP3    H227263   1.638   0.516   8.132 -0.5123  0.3049  0.0086
 1902TIP3   OH227264   5.187   4.335   1.131 -0.1823  0.0562 -1.2531
 1902TIP3    H127265   5.195   4.393   1.206 -0.5834  0.0032 -1.1664
 1902TIP3    H227266   5.251   4.266   1.146 -0.7588 -0.3467 -0.5977
 1903TIP3   OH227267   0.786   2.546   0.150 -1.0830 -0.2231  0.0959
 1903TIP3    H127268   0.805   2.558   0.057 -1.3923 -0.2738  0.0234
 1903TIP3    H227269   0.696   2.512   0.152 -0.2565 -2.5609  0.2845
 1904TIP3   OH227270   6.530   2.221   8.444 -0.2463 -0.1448  0.6737
 1904TIP3    H127271   6.492   2.294   8.493  0.7187  0.1335  1.0261
 1904TIP3    H227272   6.512   2.241   8.352 -3.1149 -1.2478  0.8801
 1905TIP3   OH227273   1.183   4.969   1.286  0.5802  0.0940 -0.7811
 1905TIP3    H127274   1.214   4.939   1.371  0.4856 -0.5146 -0.9549
 1905TIP3    H227275   1.238   4.923   1.223  1.4221  1.3961 -1.0443
 1906TIP3   OH227276   4.365   4.545   2.781  0.2257 -0.0138  0.9063
 1906TIP3    H127277   4.360   4.516   2.872  1.5879 -0.0647  0.9876
 1906TIP3    H227278   4.456   4.572   2.769 -0.1297  0.7690 -0.2177
 1907TIP3   OH227279   2.858   0.655   8.356 -0.4783 -0.3860 -0.0735
 1907TIP3    H127280   2.909   0.705   8.419 -0.8546 -1.0562  0.7807
 1907TIP3    H227281   2.768   0.661   8.387 -0.9866  0.9957 -1.7076
 1908TIP3   OH227282   2.979   1.808   8.021 -0.0524 -0.4135  0.2508
 1908TIP3    H127283   2.937   1.775   7.942 -1.8462 -1.3421  1.5370
 1908TIP3    H227284   2.906   1.829   8.080  1.2097  1.0238  1.3828
 1909TIP3   OH227285   0.064   2.270   1.887  0.0588 -0.3768  0.3479
 1909TIP3    H127286  -0.016   2.239   1.844  1.1902 -1.7552 -0.8780
 1909TIP3    H227287   0.076   2.210   1.961 -0.2842  0.1167  0.8045
 1910TIP3   OH227288   0.764   4.090   0.415 -0.2972  0.1024 -0.3811
 1910TIP3    H127289   0.814   4.010   0.425 -1.6971 -0.6626  1.0385
 1910TIP3    H227290   0.737   4.091   0.323  0.9705 -0.2571 -0.7740
 1911TIP3   OH227291   5.352   6.356   0.455  0.1588 -0.3696 -0.1008
 1911TIP3    H127292   5.367   6.300   0.532  1.7835  1.1426  0.7712
 1911TIP3    H227293   5.387   6.441   0.481 -1.3950  0.8211 -1.7148
 1912TIP3   OH227294   1.928   2.756   1.918  0.2208 -0.2812 -0.2495
 1912TIP3    H127295   1.899   2.704   1.843  1.1077  0.6932 -1.3218
 1912TIP3    H227296   2.016   2.723   1.936  0.4809  0.3070 -0.4318
 1913TIP3   OH227297   3.259   1.669   1.695  0.2093  0.0748  0.0391
 1913TIP3    H127298   3.278   1.685   1.787  0.8852 -0.6647  0.0483
 1913TIP3    H227299   3.305   1.739   1.648 -1.0558  1.1175  0.2959
 1914TIP3   OH227300   3.971   5.455   0.735  0.0571  0.0076  0.3801
 1914TIP3    H127301   4.046   5.398   0.754 -0.1206  0.1660  1.6029
 1914TIP3    H227302   3.924   5.410   0.665 -0.9429 -2.1751  2.3329
 1915TIP3   OH227303   0.083   3.306   3.235  0.1634 -0.2487 -0.1557
 1915TIP3    H127304   0.052   3.236   3.293 -0.7731  0.5223  0.2968
 1915TIP3    H227305   0.088   3.265   3.149 -1.7959 -0.5149 -0.1857
 1916TIP3   OH227306   6.581   6.731   2.621  0.7256  0.0077  0.1349
 1916TIP3    H127307   6.539   6.663   2.673  2.2397 -2.1029 -1.2506
 1916TIP3    H227308   6.515   6.756   2.556  0.5871 -1.1050 -0.1639
 1917TIP3   OH227309   0.999   0.914   1.376 -0.5448 -0.3523 -0.0216
 1917TIP3    H127310   1.037   0.876   1.456 -0.7676  0.8958  0.7065
 1917TIP3    H227311   1.003   1.008   1.391 -1.4927 -0.1299 -1.0811
 1918TIP3   OH227312   1.783   2.799   7.927  0.1071  0.7345  0.6492
 1918TIP3    H127313   1.859   2.783   7.870  1.2184  0.9559  2.0101
 1918TIP3    H227314   1.770   2.894   7.923  0.2243  0.7578  0.7996
 1919TIP3   OH227315   1.099   1.318   1.619  0.5212  0.4041 -0.2450
 1919TIP3    H127316   1.145   1.273   1.689 -0.5032 -0.4371 -0.0797
 1919TIP3    H227317   1.115   1.411   1.636  1.3567  0.1687  0.3369
 1920TIP3   OH227318   5.707   5.907   1.580  0.1484 -0.0355 -0.2373
 1920TIP3    H127319   5.634   5.967   1.569 -0.2045 -0.3040  0.5295
 1920TIP3    H227320   5.693   5.839   1.514 -0.3879 -0.1705  0.0080
 1921TIP3   OH227321   2.652   3.471   7.281 -0.3311  0.3325 -0.0889
 1921TIP3    H127322   2.738   3.433   7.298 -0.6717 -0.2671  0.3245
 1921TIP3    H227323   2.668   3.566   7.278  0.4967  0.1744 -0.9906
 1922TIP3   OH227324   6.175   0.734   7.560  0.3671  0.3376 -0.3216
 1922TIP3    H127325   6.083   0.708   7.561  0.0066  1.3783 -2.1724
 1922TIP3    H227326   6.214   0.689   7.635 -1.2761 -1.4465 -0.4780
 1923TIP3   OH227327   4.805   2.429   0.203  0.5941  0.0581 -0.4929
 1923TIP3    H127328   4.877   2.467   0.152  0.5792  0.7406 -0.0241
 1923TIP3    H227329   4.726   2.464   0.161  0.5422 -0.4633 -0.8321
 1924TIP3   OH227330   3.158   3.216   0.784 -0.0394  0.4237 -0.2964
 1924TIP3    H127331   3.218   3.148   0.755  0.8475  0.3292  1.5921
 1924TIP3    H227332   3.215   3.285   0.819 -0.9105  2.1012 -1.9480
 1925TIP3   OH227333   1.363   0.292   7.117 -0.0069 -0.0263  0.5628
 1925TIP3    H127334   1.322   0.355   7.177  0.5360 -0.1970  1.1164
 1925TIP3    H227335   1.429   0.248   7.170  0.0253 -0.6441  0.0107
 1926TIP3   OH227336   1.534   6.209   1.733  0.1555  0.2171  0.5613
 1926TIP3    H127337   1.602   6.213   1.666 -0.8466  0.4374 -0.4813
 1926TIP3    H227338   1.569   6.262   1.805  1.5562 -0.6104  0.5336
 1927TIP3   OH227339   4.808   4.324   0.655 -0.3612  0.9131 -0.4134
 1927TIP3    H127340   4.873   4.291   0.594 -1.6897  0.6945 -1.7830
 1927TIP3    H227341   4.848   4.402   0.693  0.8060  0.6140 -0.9800
 1928TIP3   OH227342   2.330   4.681   7.752 -0.4834  0.4849  0.0880
 1928TIP3    H127343   2.303   4.656   7.663 -2.1380  1.3697  0.3026
 1928TIP3    H227344   2.425   4.682   7.749 -0.3795 -2.6381 -0.7937
 1929TIP3   OH227345   2.428   1.805   8.579 -0.6785  0.2895  0.0730
 1929TIP3    H127346   2.402   1.866   8.648 -0.9045  1.2526 -0.8373
 1929TIP3    H227347   2.504   1.759   8.615 -2.5211 -1.4093  2.1512
 1930TIP3   OH227348   0.282   5.748   0.879  0.0393  0.0474  0.2730
 1930TIP3    H127349   0.372   5.778   0.889  0.4381 -1.4332  1.3890
 1930TIP3    H227350   0.231   5.805   0.937  0.0416  1.5638 -1.1119
 1931TIP3   OH227351   0.503   2.731   0.653  0.0331  0.7459  0.1220
 1931TIP3    H127352   0.558   2.792   0.604  1.7322  2.0946  3.3952
 1931TIP3    H227353   0.414   2.764   0.640  0.8330  3.6488  1.2582
 1932TIP3   OH227354   0.830   2.711   8.030 -0.0040  0.4495 -0.2535
 1932TIP3    H127355   0.739   2.731   8.051  0.2574 -0.2911  1.8093
 1932TIP3    H227356   0.881   2.781   8.072  0.5371 -1.0914  1.8687
 1933TIP3   OH227357   5.261   6.740   8.365  0.6174 -0.0021 -0.5987
 1933TIP3    H127358   5.172   6.742   8.399 -0.0245  1.8371 -2.1830
 1933TIP3    H227359   5.301   6.821   8.397  0.9430  0.3171 -1.7468
 1934TIP3   OH227360   3.398   2.622   2.237 -0.1636  0.2833  0.6838
 1934TIP3    H127361   3.459   2.556   2.204 -0.1858  0.2312  0.7495
 1934TIP3    H227362   3.313   2.595   2.203  0.0981  1.3437 -0.9664
 1935TIP3   OH227363   2.645   1.573   0.841  0.1071 -0.1821 -0.5104
 1935TIP3    H127364   2.580   1.519   0.796  0.3828 -1.0097  0.0735
 1935TIP3    H227365   2.603   1.600   0.922  0.7661 -1.4562  0.2983
 1936TIP3   OH227366   3.598   4.970   1.751  0.0915 -0.3700 -0.2183
 1936TIP3    H127367   3.532   4.942   1.814 -1.7417  1.0581 -1.3815
 1936TIP3    H227368   3.624   5.058   1.780  0.7245 -0.5073 -0.3504
 1937TIP3   OH227369   2.260   4.243   2.100 -0.3812  0.0837 -0.1054
 1937TIP3    H127370   2.284   4.158   2.137  0.4830  0.6010  0.5623
 1937TIP3    H227371   2.176   4.228   2.057  0.7291 -1.6325 -1.8560
 1938TIP3   OH227372   5.254   4.863   1.771  0.0504 -0.3385  0.2304
 1938TIP3    H127373   5.201   4.911   1.707  0.6770  1.3797  0.9522
 1938TIP3    H227374   5.282   4.784   1.724 -0.3282  0.3899 -1.2862
 1939TIP3   OH227375   2.078   6.304   0.666  0.0423 -0.4924 -0.3384
 1939TIP3    H127376   2.089   6.391   0.629 -1.6468  0.4603  1.2318
 1939TIP3    H227377   2.148   6.295   0.731  1.5710 -1.2425 -2.0097
 1940TIP3   OH227378   0.351   6.286   0.571 -0.6203 -0.4165 -0.2399
 1940TIP3    H127379   0.344   6.249   0.483 -0.5376 -1.4345  0.1712
 1940TIP3    H227380   0.444   6.286   0.590 -0.5617  0.5809 -0.4613
 1941TIP3   OH227381   5.587   3.793   2.506  0.4094 -0.1073 -0.1727
 1941TIP3    H127382   5.663   3.761   2.458  1.0973 -1.5755  1.7461
 1941TIP3    H227383   5.623   3.853   2.572 -0.1489 -0.3296  0.3483
 1942TIP3   OH227384   6.418   6.660   1.525  0.9528  0.1668 -0.1476
 1942TIP3    H127385   6.476   6.593   1.488 -0.2066 -1.5746  1.0448
 1942TIP3    H227386   6.477   6.730   1.552  2.7805 -2.0573  2.2093
 1943TIP3   OH227387   6.594   3.369   2.030  0.1327  0.1802 -0.1828
 1943TIP3    H127388   6.546   3.451   2.039  0.1280 -0.0046  2.5469
 1943TIP3    H227389   6.529   3.306   2.002 -0.0409  0.9324 -1.5307
 1944TIP3   OH227390   0.863   2.957   8.150  0.8805 -0.2501  0.6337
 1944TIP3    H127391   0.879   2.925   8.239  0.8964  1.1555  1.1642
 1944TIP3    H227392   0.891   3.048   8.153  0.1021  0.0394 -0.5973
 1945TIP3   OH227393   5.979   4.624   0.778  0.0798  0.0494 -0.0248
 1945TIP3    H127394   5.905   4.627   0.838  0.4816  2.1761  0.4325
 1945TIP3    H227395   6.041   4.563   0.820 -0.1540  0.5780  1.1199
 1946TIP3   OH227396   4.419   3.113   3.513 -0.3934 -0.0109 -0.5592
 1946TIP3    H127397   4.377   3.032   3.483 -0.0140 -0.2165 -0.5454
 1946TIP3    H227398   4.512   3.090   3.522 -0.2068  0.5537 -0.9921
 1947TIP3   OH227399   5.067   2.267   2.046  0.2373  0.0626 -0.2580
 1947TIP3    H127400   5.141   2.249   2.103 -0.3030 -0.2086  0.3769
 1947TIP3    H227401   5.074   2.361   2.027  1.5289 -0.2341 -1.3701
 1948TIP3   OH227402   3.319   1.646   0.623 -0.5579  0.2381 -0.4080
 1948TIP3    H127403   3.295   1.596   0.701 -0.9121  1.9043  0.6124
 1948TIP3    H227404   3.409   1.620   0.605  0.1510  1.0571  1.6290
 1949TIP3   OH227405   6.357   4.211   0.295  0.0511 -0.0273  0.2704
 1949TIP3    H127406   6.324   4.159   0.222 -1.4057  1.8473 -0.4715
 1949TIP3    H227407   6.444   4.239   0.266 -0.3556  0.3770 -0.5919
 1950TIP3   OH227408   4.460   3.366   1.869  0.1770 -0.0475 -0.0911
 1950TIP3    H127409   4.370   3.351   1.839  1.0035 -0.7119 -2.4553
 1950TIP3    H227410   4.458   3.344   1.963 -1.6188 -2.4075 -0.5794
 1951TIP3   OH227411   0.551   2.737   6.917 -0.0214  0.2892  0.5609
 1951TIP3    H127412   0.542   2.750   7.011 -2.8753 -0.1392  0.4410
 1951TIP3    H227413   0.564   2.825   6.882  2.0036  0.3622  1.3686
 1952TIP3   OH227414   3.167   5.167   1.255 -0.0818 -0.0557  0.3786
 1952TIP3    H127415   3.263   5.173   1.255  0.1766 -2.6197 -0.6124
 1952TIP3    H227416   3.146   5.126   1.171 -2.0240  0.0741  0.7574
 1953TIP3   OH227417   3.527   6.288   2.083 -0.3638 -0.3028  0.0452
 1953TIP3    H127418   3.487   6.363   2.038  1.0142 -0.2667 -1.1892
 1953TIP3    H227419   3.493   6.211   2.038  0.2616 -0.3014 -0.4490
 1954TIP3   OH227420   1.823   5.090   1.331 -0.0624 -0.0882 -0.2960
 1954TIP3    H127421   1.805   5.036   1.408  1.2454  1.1527  0.9613
 1954TIP3    H227422   1.904   5.055   1.296 -0.4180 -0.3629 -0.8511
 1955TIP3   OH227423   2.920   6.193   1.133  0.1217  0.5056  0.0633
 1955TIP3    H127424   2.841   6.211   1.081  1.0199  0.4735 -1.3745
 1955TIP3    H227425   2.982   6.157   1.070  1.4686  0.9960  1.0692
 1956TIP3   OH227426   1.947   1.148   2.866 -0.4271 -0.9705 -0.7809
 1956TIP3    H127427   1.888   1.130   2.940  0.9003 -1.8078  0.1194
 1956TIP3    H227428   1.977   1.237   2.880  1.6325 -1.8574  1.0906
 1957TIP3   OH227429   4.133   2.743   0.900  0.2691  0.0527 -0.2307
 1957TIP3    H127430   4.186   2.663   0.905 -0.0803 -0.2367 -0.9790
 1957TIP3    H227431   4.056   2.724   0.953 -0.1218 -0.3663 -0.9263
 1958TIP3   OH227432   4.169   3.837   2.381  0.0073 -0.1466 -0.0206
 1958TIP3    H127433   4.145   3.838   2.289 -0.5057  1.0521  0.1083
 1958TIP3    H227434   4.211   3.922   2.397 -0.8427  0.1033  1.0613
 1959TIP3   OH227435   5.827   3.627   1.514  0.0723 -0.1611 -0.4952
 1959TIP3    H127436   5.875   3.577   1.449 -0.7264 -0.4426 -0.8837
 1959TIP3    H227437   5.741   3.642   1.474 -0.0187  0.7183 -0.0047
 1960TIP3   OH227438   4.704   4.760   7.885  0.6961 -0.6282  0.4242
 1960TIP3    H127439   4.732   4.682   7.933  0.1779 -1.4139 -0.5229
 1960TIP3    H227440   4.761   4.765   7.809  0.4989 -0.2759  0.2927
 1961TIP3   OH227441   4.523   3.366   3.373 -0.7296 -0.0218 -0.2256
 1961TIP3    H127442   4.455   3.344   3.310 -0.2071 -0.0781 -0.7751
 1961TIP3    H227443   4.581   3.290   3.374 -1.1312 -0.3398  0.8793
 1962TIP3   OH227444   4.227   1.632   0.013  0.6496  0.3202  0.0151
 1962TIP3    H127445   4.263   1.572   0.079 -0.3100 -2.0929 -1.4993
 1962TIP3    H227446   4.300   1.689  -0.011  2.2003 -1.4973  0.1993
 1963TIP3   OH227447   6.233   6.086   1.495  0.5891 -0.2542 -0.1896
 1963TIP3    H127448   6.141   6.075   1.471 -0.0901  1.0427  1.5489
 1963TIP3    H227449   6.257   6.002   1.535 -0.1057 -0.3239  0.1050
 1964TIP3   OH227450   3.398   6.622   0.415  0.0896 -0.0759  0.1561
 1964TIP3    H127451   3.469   6.662   0.467 -2.1627  2.6164  1.4396
 1964TIP3    H227452   3.408   6.661   0.328  0.4306 -0.0345  0.2125
 1965TIP3   OH227453   5.150   4.585   0.636 -0.1878 -0.1380 -0.3133
 1965TIP3    H127454   5.143   4.529   0.559  2.6212 -0.0415 -0.7353
 1965TIP3    H227455   5.208   4.656   0.608 -1.4575  1.5164  1.0433
 1966TIP3   OH227456   5.717   5.060   8.661 -0.0527 -0.0262 -0.1440
 1966TIP3    H127457   5.747   4.977   8.699  0.4286 -0.7885 -2.0543
 1966TIP3    H227458   5.767   5.127   8.708 -1.4030 -0.6286  2.3718
 1967TIP3   OH227459   3.528   0.140   0.532  0.4365 -0.5799 -0.2290
 1967TIP3    H127460   3.522   0.167   0.623  1.5038  1.1261 -0.6344
 1967TIP3    H227461   3.452   0.181   0.489  1.8394  1.5980 -0.7636
 1968TIP3   OH227462   2.153   0.723   0.123 -0.1542  0.0405  0.4791
 1968TIP3    H127463   2.183   0.733   0.214 -0.9777 -2.3891  1.0818
 1968TIP3    H227464   2.227   0.683   0.078  0.1048  0.8663  0.1534
 1969TIP3   OH227465   3.714   5.868   0.896 -0.1134  0.1830  0.8398
 1969TIP3    H127466   3.788   5.810   0.881 -0.2900  0.3931 -1.0784
 1969TIP3    H227467   3.754   5.954   0.913  0.0913  0.1617  0.4605
 1970TIP3   OH227468   5.301   2.704   2.593 -0.5063 -0.2571  0.3986
 1970TIP3    H127469   5.282   2.663   2.677 -0.4314 -0.0726  0.5080
 1970TIP3    H227470   5.396   2.699   2.585 -0.4164  0.5686  0.7717
 1971TIP3   OH227471   3.150   0.861   8.185  0.4397  0.7547  0.6828
 1971TIP3    H127472   3.203   0.844   8.263  0.7315 -1.8845  0.0235
 1971TIP3    H227473   3.188   0.803   8.118 -3.3159 -1.4725  0.2161
 1972TIP3   OH227474   3.319   0.516   8.468  0.2047  0.5480  0.1983
 1972TIP3    H127475   3.395   0.494   8.521  1.3489  0.5512 -1.3825
 1972TIP3    H227476   3.352   0.574   8.400 -1.3267  1.0153 -0.1905
 1973TIP3   OH227477   5.107   0.606   0.842  0.0416  0.1790  0.0284
 1973TIP3    H127478   5.184   0.646   0.801 -0.2244  1.8343  1.0654
 1973TIP3    H227479   5.133   0.594   0.933  0.0016 -1.8374 -0.1717
 1974TIP3   OH227480   0.388   6.340   1.195  0.1554  0.4388 -0.6932
 1974TIP3    H127481   0.416   6.427   1.223 -3.9249  0.7497  3.4813
 1974TIP3    H227482   0.421   6.281   1.263 -0.3026 -0.7469 -1.4642
 1975TIP3   OH227483   1.465   2.898   0.257 -0.0279  0.0943 -0.0909
 1975TIP3    H127484   1.441   2.817   0.301  0.6836  0.3396  0.7794
 1975TIP3    H227485   1.428   2.967   0.312 -0.0057  0.3904 -0.4386
 1976TIP3   OH227486   1.837   0.902   2.130 -0.6268 -0.1124  0.6857
 1976TIP3    H127487   1.846   0.810   2.153  1.8841 -0.2274 -0.4338
 1976TIP3    H227488   1.812   0.901   2.038  2.7387  0.1735 -0.3769
 1977TIP3   OH227489   5.935   5.416   1.882 -0.1848 -0.3553 -0.0459
 1977TIP3    H127490   5.972   5.416   1.794 -1.1327 -0.9977 -0.4530
 1977TIP3    H227491   6.011   5.427   1.939  0.2033  3.9669 -0.9826
 1978TIP3   OH227492   2.267   1.324   3.417 -0.0937  0.1299 -0.0379
 1978TIP3    H127493   2.207   1.335   3.491 -0.8628 -2.6560 -0.1217
 1978TIP3    H227494   2.317   1.405   3.415 -1.8112  1.3563  1.9091
 1979TIP3   OH227495   2.761   3.530   8.197 -0.2337 -0.1038  0.5609
 1979TIP3    H127496   2.818   3.469   8.150 -0.5818 -1.2083  1.5225
 1979TIP3    H227497   2.680   3.482   8.210 -1.3490  1.3690 -0.6004
 1980TIP3   OH227498   0.259   2.217   1.711 -0.3313 -0.0447 -0.0424
 1980TIP3    H127499   0.188   2.249   1.767 -1.7688 -1.0236 -1.2224
 1980TIP3    H227500   0.230   2.237   1.622  2.8612  3.4718 -0.5783
 1981TIP3   OH227501   0.036   3.701   0.667  0.0967 -0.3180 -0.5407
 1981TIP3    H127502   0.093   3.777   0.669  0.5596 -0.6187 -1.6292
 1981TIP3    H227503   0.039   3.671   0.576 -0.4050 -1.3884 -0.2219
 1982TIP3   OH227504   3.092   0.891   2.315 -0.0983  0.4164  0.1205
 1982TIP3    H127505   3.019   0.872   2.257  0.5258  1.4689 -1.0631
 1982TIP3    H227506   3.051   0.914   2.398 -1.0002 -1.2332  0.1685
 1983TIP3   OH227507   4.624   5.869   1.778  0.7092 -0.3344  0.5977
 1983TIP3    H127508   4.559   5.887   1.847  0.3245  0.6919 -0.0029
 1983TIP3    H227509   4.652   5.956   1.750  0.5350 -0.7298 -0.8446
 1984TIP3   OH227510   6.513   2.100   2.525  0.1503  0.6017 -0.1366
 1984TIP3    H127511   6.571   2.031   2.558  1.5178  1.5338 -0.4906
 1984TIP3    H227512   6.455   2.055   2.463  1.4372 -0.1477 -0.8457
 1985TIP3   OH227513   0.401   2.468   0.722  0.0537 -0.1216  0.2911
 1985TIP3    H127514   0.460   2.396   0.743 -0.4113 -0.6353 -0.1327
 1985TIP3    H227515   0.457   2.535   0.684  0.4352 -0.4061  0.3514
 1986TIP3   OH227516   5.609   4.853   2.830 -0.0608 -0.0995 -0.0790
 1986TIP3    H127517   5.677   4.830   2.767 -0.8876 -0.5539 -0.8405
 1986TIP3    H227518   5.651   4.913   2.891  1.0983 -0.6096 -0.3503
 1987TIP3   OH227519   4.717   4.412   1.383 -0.4613  0.2495  0.4624
 1987TIP3    H127520   4.653   4.479   1.404  0.3426  0.3033  3.0874
 1987TIP3    H227521   4.785   4.458   1.335 -0.2652  1.2102  1.6158
 1988TIP3   OH227522   1.356   5.020   7.376 -0.0423 -0.2732  0.4463
 1988TIP3    H127523   1.312   4.943   7.411  0.8105 -0.9459  0.0717
 1988TIP3    H227524   1.310   5.094   7.416 -3.0759 -0.8176 -1.7203
 1989TIP3   OH227525   6.447   2.332   8.197  0.2398 -0.0466 -0.6115
 1989TIP3    H127526   6.425   2.270   8.128  2.0081  1.2447 -2.4824
 1989TIP3    H227527   6.516   2.387   8.158 -1.0646  2.9421  0.9709
 1990TIP3   OH227528   4.157   6.601   7.904 -0.0953 -0.5792  0.2883
 1990TIP3    H127529   4.198   6.580   7.988 -2.1680  0.0292  1.5218
 1990TIP3    H227530   4.192   6.687   7.881 -1.3030  0.3608  1.7973
 1991TIP3   OH227531   2.965   0.966   0.733  0.8633 -0.2917 -0.0103
 1991TIP3    H127532   2.942   0.928   0.818 -0.6242  0.0989 -0.2030
 1991TIP3    H227533   3.034   1.029   0.753  0.2306  0.1109  0.9963
 1992TIP3   OH227534   2.304   3.399   8.379 -0.7135  0.4813 -0.3534
 1992TIP3    H127535   2.229   3.341   8.366  0.0133 -0.3664 -0.8660
 1992TIP3    H227536   2.370   3.367   8.318  0.9154 -0.2903  1.7114
 1993TIP3   OH227537   0.278   4.545   1.484 -0.1636  0.1881  0.2599
 1993TIP3    H127538   0.275   4.596   1.565  0.3915  1.4009 -0.4502
 1993TIP3    H227539   0.236   4.462   1.506  1.3454 -0.1259  2.2190
 1994TIP3   OH227540   2.942   1.713   0.453  0.3255  0.0890 -0.1361
 1994TIP3    H127541   2.911   1.800   0.431  1.2450  0.3702 -0.3703
 1994TIP3    H227542   2.866   1.668   0.489  0.4218  1.8164  2.4752
 1995TIP3   OH227543   5.054   0.971   8.597  0.5259 -0.0925  0.0818
 1995TIP3    H127544   5.131   0.982   8.542 -1.0456 -0.8635 -2.4366
 1995TIP3    H227545   5.008   1.055   8.592 -0.8723 -0.8884 -1.9744
 1996TIP3   OH227546   5.171   6.172   8.453 -0.3171  0.1273  0.5379
 1996TIP3    H127547   5.194   6.237   8.520 -1.1771 -1.1305  2.1442
 1996TIP3    H227548   5.156   6.091   8.503 -0.6558 -0.9555 -1.2370
 1997TIP3   OH227549   3.541   1.391   8.567 -0.6330 -0.3258 -0.1196
 1997TIP3    H127550   3.546   1.347   8.652  1.2685 -0.1994 -0.1327
 1997TIP3    H227551   3.544   1.484   8.588  1.4671 -0.2964 -0.3468
 1998TIP3   OH227552   6.334   3.152   2.304 -0.1195 -0.1430 -0.5534
 1998TIP3    H127553   6.290   3.125   2.385 -3.7029  0.4733 -2.0819
 1998TIP3    H227554   6.341   3.247   2.311 -1.3717  0.0245 -1.3235
 1999TIP3   OH227555   6.366   5.286   1.804  0.1474  0.1778  0.1153
 1999TIP3    H127556   6.297   5.344   1.771  0.8035  0.3467 -0.9963
 1999TIP3    H227557   6.351   5.203   1.761  0.3429  0.0684  0.2576
 2000TIP3   OH227558   4.599   1.872   1.459 -0.3906  0.5002 -0.1358
 2000TIP3    H127559   4.549   1.951   1.477  0.5489  0.8755  0.9238
 2000TIP3    H227560   4.539   1.800   1.482 -2.0032  0.7542 -3.0073
 2001TIP3   OH227561   0.888   3.761   2.554 -0.7572 -0.1814 -0.1813
 2001TIP3    H127562   0.905   3.673   2.588  1.4217  0.3661  0.3471
 2001TIP3    H227563   0.822   3.749   2.486 -1.4716 -2.0258  0.7753
 2002TIP3   OH227564   2.054   6.738   7.738  0.0847 -0.0091 -0.0226
 2002TIP3    H127565   2.145   6.712   7.743  0.4063  1.0486  0.0118
 2002TIP3    H227566   2.010   6.689   7.808  0.5060 -0.9614 -0.4219
 2003TIP3   OH227567   5.577   0.578   1.150  0.1696  0.3863 -0.5525
 2003TIP3    H127568   5.591   0.529   1.069  0.0368 -0.0315 -0.3248
 2003TIP3    H227569   5.628   0.658   1.138  0.5381  0.1120 -0.8565
 2004TIP3   OH227570   1.260   4.033   3.251 -0.5982 -0.1044 -0.4810
 2004TIP3    H127571   1.246   3.941   3.272 -0.7698  0.2088  0.8375
 2004TIP3    H227572   1.355   4.042   3.243 -0.4004  0.0092  1.4998
 2005TIP3   OH227573   5.937   4.668   1.222 -0.4378  0.1714  0.0532
 2005TIP3    H127574   5.995   4.592   1.220 -0.5799  0.0722 -0.8316
 2005TIP3    H227575   5.994   4.744   1.212 -0.4977  0.0293 -1.8565
 2006TIP3   OH227576   4.012   5.333   0.193  0.1771  0.2620  0.3904
 2006TIP3    H127577   4.105   5.312   0.205  0.9226  2.0842 -1.4796
 2006TIP3    H227578   4.012   5.425   0.167 -1.9507 -0.2740 -1.8863
 2007TIP3   OH227579   4.138   2.364   3.047  0.2512  0.4941 -0.3056
 2007TIP3    H127580   4.094   2.343   3.129 -2.1645  1.6532 -1.2017
 2007TIP3    H227581   4.231   2.369   3.070 -0.1402 -1.1465  1.9061
 2008TIP3   OH227582   6.614   0.763   7.216 -0.0754 -0.0212  0.2501
 2008TIP3    H127583   6.593   0.790   7.305 -0.1371 -0.3934  0.3494
 2008TIP3    H227584   6.543   0.703   7.191  0.3415 -0.5113  0.2282
 2009TIP3   OH227585   4.375   3.400   0.029  0.0667  0.2258  0.3145
 2009TIP3    H127586   4.443   3.407  -0.039 -0.2601  0.3012 -0.0052
 2009TIP3    H227587   4.387   3.312   0.065  1.8556  1.0341  1.8862
 2010TIP3   OH227588   1.438   5.981   2.964 -0.2754  0.2670 -0.0781
 2010TIP3    H127589   1.416   6.073   2.977  2.3223  1.0619 -0.7735
 2010TIP3    H227590   1.393   5.956   2.883  0.8411  1.6360 -1.1606
 2011TIP3   OH227591   2.601   3.744   0.151 -0.6443  0.2512  0.0282
 2011TIP3    H127592   2.669   3.678   0.141 -0.9843 -0.2006  0.6497
 2011TIP3    H227593   2.634   3.820   0.102 -0.2939 -0.3982 -0.7699
 2012TIP3   OH227594   0.438   0.914   2.137 -0.3128  0.0515  0.8362
 2012TIP3    H127595   0.485   0.997   2.135 -1.2139  0.5631 -0.5152
 2012TIP3    H227596   0.471   0.870   2.215  2.5558  0.2835 -0.1050
 2013TIP3   OH227597   1.103   4.972   8.329  0.3690 -0.6547  0.3396
 2013TIP3    H127598   1.016   5.002   8.357 -0.4120 -1.3086 -1.2586
 2013TIP3    H227599   1.096   4.965   8.234  1.8447 -1.7647  0.2805
 2014TIP3   OH227600   6.176   2.846   1.692  0.1732 -0.5111  0.2528
 2014TIP3    H127601   6.149   2.770   1.744 -0.6437 -0.7489 -0.4834
 2014TIP3    H227602   6.149   2.921   1.744  2.0221 -0.6602  1.5358
 2015TIP3   OH227603   4.530   5.211   2.024 -0.0909  0.2485 -0.0121
 2015TIP3    H127604   4.613   5.248   1.993  1.0406 -2.3115 -0.2728
 2015TIP3    H227605   4.552   5.169   2.107 -1.2531 -0.0370  0.1653
 2016TIP3   OH227606   3.206   1.267   0.477  0.0856  0.3295 -0.1479
 2016TIP3    H127607   3.185   1.359   0.463  0.1688  0.1985 -1.1882
 2016TIP3    H227608   3.202   1.228   0.390  0.4149 -0.5769  0.2340
 2017TIP3   OH227609   2.281   2.923   1.032 -0.4072  0.3233 -0.4520
 2017TIP3    H127610   2.289   2.965   0.946 -0.3657 -0.3235 -0.7723
 2017TIP3    H227611   2.371   2.900   1.055 -0.5931 -1.1937 -1.1125
 2018TIP3   OH227612   4.216   6.397   2.299 -0.0998 -0.2227 -0.3061
 2018TIP3    H127613   4.176   6.336   2.361  0.9394  1.1097  1.8129
 2018TIP3    H227614   4.254   6.465   2.355 -0.1284  1.7003 -2.5020
 2019TIP3   OH227615   1.731   6.769   1.062  0.0288 -0.0363  0.5094
 2019TIP3    H127616   1.731   6.680   1.097 -1.6967 -0.0464  0.5687
 2019TIP3    H227617   1.668   6.767   0.990  0.4432  0.9969  0.0907
 2020TIP3   OH227618   5.551   4.191   0.893 -0.2558  0.3877 -0.0137
 2020TIP3    H127619   5.633   4.221   0.930 -1.0387 -0.5673  2.8014
 2020TIP3    H227620   5.492   4.266   0.899 -0.0272  0.6285 -0.6490
 2021TIP3   OH227621   5.929   0.669   0.521 -0.9644  0.8354 -0.8958
 2021TIP3    H127622   6.008   0.672   0.575 -1.6390  0.7089  0.1161
 2021TIP3    H227623   5.925   0.578   0.490 -1.6392  0.3862  0.4708
 2022TIP3   OH227624   0.884   4.986   2.084 -0.1941  0.3560  0.6808
 2022TIP3    H127625   0.831   5.035   2.021  0.3889 -0.5107 -0.5135
 2022TIP3    H227626   0.912   4.908   2.036  1.3245  0.2939  1.6132
 2023TIP3   OH227627   0.568   4.900   7.753  0.0617 -0.0030  0.0475
 2023TIP3    H127628   0.527   4.971   7.802  0.3663 -0.5981  1.1939
 2023TIP3    H227629   0.496   4.842   7.729 -0.2435  0.8615 -1.2342
 2024TIP3   OH227630   1.425   2.146   2.434 -0.3866  0.3731 -0.0542
 2024TIP3    H127631   1.480   2.186   2.502 -0.4486  0.8017 -0.2519
 2024TIP3    H227632   1.448   2.193   2.354  0.6073 -0.9904 -0.5920
 2025TIP3   OH227633   0.514   2.254   2.998 -0.0905  0.0853  0.0695
 2025TIP3    H127634   0.595   2.298   3.026  0.4105 -1.1526  0.6507
 2025TIP3    H227635   0.460   2.324   2.961  0.5771  1.2256  1.1725
 2026TIP3   OH227636   3.563   2.824   0.769 -0.1454 -0.0436  0.0926
 2026TIP3    H127637   3.481   2.804   0.813 -0.0233  0.3235  0.5032
 2026TIP3    H227638   3.621   2.853   0.840  0.6577 -1.2545 -0.0335
 2027TIP3   OH227639   3.019   6.349   1.508 -0.4582 -0.0415  0.1630
 2027TIP3    H127640   3.034   6.389   1.423  0.2151 -0.2854  0.1594
 2027TIP3    H227641   3.101   6.364   1.556 -0.7727 -0.0438  0.7127
 2028TIP3   OH227642   6.393   1.985   8.359 -0.2528  0.3068 -0.2738
 2028TIP3    H127643   6.448   2.039   8.415 -1.0673  1.4128 -0.5074
 2028TIP3    H227644   6.454   1.926   8.316  0.5936  0.6365  0.4349
 2029TIP3   OH227645   6.444   5.541   7.921  0.6349 -0.2330  0.1104
 2029TIP3    H127646   6.505   5.547   7.848  0.7657 -0.4274  0.2062
 2029TIP3    H227647   6.404   5.455   7.912 -0.9003  0.5408 -0.9733
 2030TIP3   OH227648   1.101   0.857   2.623  0.6528  0.0227 -0.0535
 2030TIP3    H127649   1.063   0.771   2.637  0.2099  0.1975 -0.1475
 2030TIP3    H227650   1.028   0.911   2.593  0.7283  0.6477  0.8373
 2031TIP3   OH227651   2.951   0.280   0.843 -0.0753 -0.4056 -0.3466
 2031TIP3    H127652   3.026   0.282   0.902 -1.1161 -2.0318  1.1389
 2031TIP3    H227653   2.950   0.192   0.806 -0.2127  0.1753 -1.8156
 2032TIP3   OH227654   1.852   1.523   0.614 -1.2547 -0.1209  0.4591
 2032TIP3    H127655   1.836   1.506   0.707 -0.4191 -1.7726  0.3469
 2032TIP3    H227656   1.912   1.597   0.612  0.6122 -1.5211  1.3987
 2033TIP3   OH227657   4.697   5.443   8.556  1.0980 -0.3091  0.1441
 2033TIP3    H127658   4.713   5.537   8.565  0.9671 -0.4224  1.7249
 2033TIP3    H227659   4.756   5.416   8.485  1.5576  0.8482  0.0642
 2034TIP3   OH227660   4.731   2.073   0.868 -0.3570 -0.6181  0.5937
 2034TIP3    H127661   4.756   2.069   0.776 -1.2536 -1.8375  0.3789
 2034TIP3    H227662   4.638   2.095   0.868 -0.4938 -1.1444  1.1733
 2035TIP3   OH227663   3.420   3.185   3.159  0.1568  0.0338 -0.2772
 2035TIP3    H127664   3.376   3.200   3.243 -0.1480 -0.3647 -0.3597
 2035TIP3    H227665   3.513   3.189   3.179  0.2087 -3.3132  0.7636
 2036TIP3   OH227666   2.380   4.715   0.328 -0.2112  0.0291  0.0076
 2036TIP3    H127667   2.346   4.692   0.241 -1.3660 -0.8810  0.6704
 2036TIP3    H227668   2.424   4.799   0.315 -0.2777 -0.1321 -1.4704
 2037TIP3   OH227669   0.916   5.726   0.623 -0.2785  0.1220 -0.2996
 2037TIP3    H127670   0.851   5.792   0.599  0.2785  0.8174  0.0705
 2037TIP3    H227671   0.917   5.727   0.719  0.4695  0.3035 -0.3079
 2038TIP3   OH227672   6.665   4.273   1.377  0.1366  0.1057  0.2884
 2038TIP3    H127673   6.756   4.255   1.400  0.1626  1.5712  1.5162
 2038TIP3    H227674   6.662   4.265   1.281  1.6372  0.4039  0.1934
 2039TIP3   OH227675   0.618   6.334   2.270 -0.3637  0.5196 -0.5373
 2039TIP3    H127676   0.692   6.291   2.229 -1.3967 -0.3442 -1.5627
 2039TIP3    H227677   0.642   6.342   2.362  1.1511  0.6510 -0.9297
 2040TIP3   OH227678   0.396   3.609   1.829 -0.0857 -0.7785 -0.5121
 2040TIP3    H127679   0.316   3.561   1.807 -0.3903 -0.7508  0.4727
 2040TIP3    H227680   0.365   3.685   1.879  0.6681 -2.7549  3.3798
 2041TIP3   OH227681   6.614   6.508   8.007  0.1232 -0.0346  0.0262
 2041TIP3    H127682   6.655   6.521   8.093  1.7493 -2.5677 -0.2669
 2041TIP3    H227683   6.624   6.415   7.989 -1.6615  0.1054 -2.2326
 2042TIP3   OH227684   5.459   2.330   1.052 -0.4686  0.0157 -0.3523
 2042TIP3    H127685   5.380   2.315   1.103 -0.5407  0.1556 -0.4230
 2042TIP3    H227686   5.525   2.354   1.117  0.3102 -2.9796  0.0858
 2043TIP3   OH227687   2.917   0.166   1.409  0.0243  0.4645 -0.6587
 2043TIP3    H127688   2.969   0.086   1.399  1.9341  1.0936  2.7912
 2043TIP3    H227689   2.978   0.237   1.386 -1.2208  1.0742 -2.2886
 2044TIP3   OH227690   6.527   1.180   8.248  0.7371  0.0044  0.5485
 2044TIP3    H127691   6.571   1.240   8.309 -0.5582  0.6309  0.9010
 2044TIP3    H227692   6.570   1.195   8.164  1.2468  0.5541  0.8971
 2045TIP3   OH227693   4.143   4.920   7.770 -0.2276  0.1114  0.2782
 2045TIP3    H127694   4.050   4.942   7.758 -0.4751 -0.7527  0.5146
 2045TIP3    H227695   4.147   4.887   7.860  0.5758  1.4317  0.7503
 2046TIP3   OH227696   0.654   4.774   1.845 -0.3286  0.0807  0.5535
 2046TIP3    H127697   0.561   4.780   1.870 -0.7845  1.6581 -1.2689
 2046TIP3    H227698   0.658   4.699   1.786 -0.4642  0.0981  0.5210
 2047TIP3   OH227699   3.856   1.496   0.118 -0.3299  0.2199  0.3225
 2047TIP3    H127700   3.878   1.434   0.049  0.8525 -1.3561  2.0233
 2047TIP3    H227701   3.909   1.573   0.099  0.9849 -0.6954  0.2018
 2048TIP3   OH227702   2.868   0.150   8.191 -0.5731  0.0546 -0.3327
 2048TIP3    H127703   2.942   0.090   8.177 -0.9740 -0.5050 -0.1124
 2048TIP3    H227704   2.815   0.142   8.112 -0.3256  0.5661 -0.5525
 2049TIP3   OH227705   6.656   5.516   8.552 -0.1378  0.1168  0.0515
 2049TIP3    H127706   6.735   5.463   8.545 -0.2284  0.1554 -1.8550
 2049TIP3    H227707   6.590   5.468   8.502 -0.8119  0.9758  0.0905
 2050TIP3   OH227708   3.864   4.377   2.547  0.5334  0.1644 -0.2918
 2050TIP3    H127709   3.864   4.472   2.560  2.3529  0.4757 -1.9894
 2050TIP3    H227710   3.899   4.342   2.629 -0.2879  0.9372  0.4110
 2051TIP3   OH227711   4.518   0.275   2.901  0.8248  0.5214 -0.0646
 2051TIP3    H127712   4.471   0.221   2.964 -0.3408  1.3925 -0.1487
 2051TIP3    H227713   4.501   0.365   2.929  1.6885  0.8711 -0.6422
 2052TIP3   OH227714   0.087   4.348   2.020  0.0255  0.6388 -0.0078
 2052TIP3    H127715   0.051   4.308   2.100  2.2570 -0.3381  0.5830
 2052TIP3    H227716   0.016   4.403   1.987 -2.3198 -1.8160  0.5602
 2053TIP3   OH227717   3.277   5.839   8.133  0.1562 -0.0943 -0.3909
 2053TIP3    H127718   3.367   5.824   8.164  0.9947  3.9810 -0.3515
 2053TIP3    H227719   3.230   5.869   8.211 -0.8764 -0.6948 -0.7624
 2054TIP3   OH227720   2.943   2.400   2.836  0.0682 -0.1132 -0.3166
 2054TIP3    H127721   2.943   2.412   2.931 -1.2071 -0.7221 -0.2158
 2054TIP3    H227722   2.850   2.393   2.813  0.3787 -0.4027 -1.5483
 2055TIP3   OH227723   4.894   5.472   7.523  0.0110  0.2920  0.7222
 2055TIP3    H127724   4.965   5.521   7.482  0.7141 -1.6587 -0.5572
 2055TIP3    H227725   4.814   5.512   7.489  0.5523  0.5643 -0.2736
 2056TIP3   OH227726   0.988   0.016   8.539  0.2649 -0.2144  0.0741
 2056TIP3    H127727   1.035   0.037   8.458 -0.4891 -0.0739 -0.3344
 2056TIP3    H227728   1.051   0.035   8.608  0.8383 -0.1012 -0.4666
 2057TIP3   OH227729   2.886   5.293   1.075  0.1058  0.2863 -0.2796
 2057TIP3    H127730   2.981   5.298   1.085  0.0365  0.3986  0.3518
 2057TIP3    H227731   2.852   5.350   1.144 -0.4853 -2.3322  1.7376
 2058TIP3   OH227732   2.470   4.925   7.952 -0.4165  0.3262  0.5236
 2058TIP3    H127733   2.402   4.981   7.914  0.8391  2.3226  1.0590
 2058TIP3    H227734   2.552   4.964   7.922  0.6333  1.3526  4.1911
 2059TIP3   OH227735   0.547   4.367   0.546 -0.4180 -0.5446 -0.0990
 2059TIP3    H127736   0.561   4.309   0.472 -2.7297  0.4323 -1.4027
 2059TIP3    H227737   0.480   4.324   0.599  0.8934 -1.0194  1.2628
 2060TIP3   OH227738   5.083   5.806   7.683 -0.2777  0.2111 -0.2764
 2060TIP3    H127739   5.127   5.742   7.627  1.0173 -0.0403  0.9557
 2060TIP3    H227740   5.013   5.842   7.629  0.5332 -0.4526 -1.8233
 2061TIP3   OH227741   5.659   3.489   2.645  0.3022  0.0398 -0.1454
 2061TIP3    H127742   5.570   3.461   2.670  0.7185  0.0747  1.5007
 2061TIP3    H227743   5.660   3.583   2.662  0.5181  0.1274 -0.6287
 2062TIP3   OH227744   6.413   6.217   0.153  0.8154  0.1463  0.0113
 2062TIP3    H127745   6.386   6.158   0.082 -0.5748  0.1715  0.4853
 2062TIP3    H227746   6.410   6.304   0.115 -1.4828  0.3306  0.4651
 2063TIP3   OH227747   5.035   3.304   0.321  0.3216 -0.5069 -0.1322
 2063TIP3    H127748   5.025   3.397   0.303 -1.3638 -0.7350 -0.5520
 2063TIP3    H227749   5.100   3.300   0.391 -0.0872  1.0208  0.3776
 2064TIP3   OH227750   4.080   1.755   1.343 -0.4158  0.2020  0.3589
 2064TIP3    H127751   4.070   1.765   1.438  1.5049  2.0744  0.4516
 2064TIP3    H227752   4.175   1.747   1.330 -0.4437  2.0159 -1.5036
 2065TIP3   OH227753   0.190   0.780   1.386 -0.4355 -0.6575 -0.1569
 2065TIP3    H127754   0.135   0.853   1.411 -1.3799 -0.8368 -1.5762
 2065TIP3    H227755   0.279   0.809   1.405 -0.8491  0.5728 -0.0304
 2066TIP3   OH227756   0.144   0.742   2.302 -0.0540  0.1690 -0.3226
 2066TIP3    H127757   0.057   0.780   2.296  0.2148  0.7430 -0.7371
 2066TIP3    H227758   0.183   0.784   2.379 -0.6997 -1.2909  0.8443
 2067TIP3   OH227759   5.399   1.398   2.531  0.1587 -0.4536  0.8968
 2067TIP3    H127760   5.357   1.475   2.495  0.9495  0.4233  1.8003
 2067TIP3    H227761   5.484   1.429   2.563  0.3097 -1.5954  1.6730
 2068TIP3   OH227762   0.468   0.432   8.119 -0.0037 -1.2156  0.0090
 2068TIP3    H127763   0.498   0.394   8.201  0.9670 -0.3225  0.1007
 2068TIP3    H227764   0.528   0.506   8.104 -0.9407 -0.6029 -0.8594
 2069TIP3   OH227765   2.754   1.938   1.617 -0.1336  0.5641 -0.1992
 2069TIP3    H127766   2.797   1.863   1.577 -1.6090 -1.1827  1.3026
 2069TIP3    H227767   2.736   1.997   1.544  0.3491 -0.8978 -1.5558
 2070TIP3   OH227768   6.016   4.003   2.887 -0.0351 -0.0846 -0.1110
 2070TIP3    H127769   6.047   3.923   2.928 -0.7951 -0.1817  0.3014
 2070TIP3    H227770   5.981   3.974   2.802 -1.2630 -0.3770  0.4646
 2071TIP3   OH227771   3.201   6.632   8.255 -0.1541  0.3507  0.1359
 2071TIP3    H127772   3.215   6.583   8.174  1.1550 -0.7563  0.9791
 2071TIP3    H227773   3.153   6.711   8.228  0.8096  0.3257 -1.7936
 2072TIP3   OH227774   1.928   0.059   3.288  0.1716  0.4168  0.0531
 2072TIP3    H127775   2.021   0.049   3.265  0.3039  0.8905  0.3589
 2072TIP3    H227776   1.890   0.108   3.215 -0.0021 -0.4190 -0.4214
 2073TIP3   OH227777   4.760   6.595   6.983 -0.6262 -0.4349  0.0712
 2073TIP3    H127778   4.774   6.606   7.077 -0.6410 -0.5288  0.0842
 2073TIP3    H227779   4.843   6.560   6.951 -0.0383  1.1597 -0.2180
 2074TIP3   OH227780   1.072   0.699   2.264 -0.7043  0.0506 -0.1719
 2074TIP3    H127781   0.980   0.688   2.241 -0.5021 -1.6888 -0.2725
 2074TIP3    H227782   1.071   0.746   2.347 -1.8219 -2.2478  1.1995
 2075TIP3   OH227783   4.139   3.378   1.050  0.2601 -0.0790 -0.1126
 2075TIP3    H127784   4.177   3.466   1.042 -1.7121  1.0098  1.5603
 2075TIP3    H227785   4.133   3.346   0.960 -0.0251  1.9738 -0.8873
 2076TIP3   OH227786   0.062   5.170   7.698 -0.3665  0.1182  0.3564
 2076TIP3    H127787   0.153   5.181   7.672 -0.6384  0.8126 -0.3331
 2076TIP3    H227788   0.047   5.076   7.696 -0.8407  0.1120 -3.7073
 2077TIP3   OH227789   2.567   5.154   8.216  0.0519  0.7475  0.3207
 2077TIP3    H127790   2.653   5.125   8.184 -0.7511 -0.6098 -0.7582
 2077TIP3    H227791   2.509   5.139   8.141 -1.4102  0.0641  1.5535
 2078TIP3   OH227792   3.004   4.732   1.999 -0.1785 -0.2392  0.5465
 2078TIP3    H127793   3.028   4.657   2.055 -0.9963 -0.9915 -0.0813
 2078TIP3    H227794   2.927   4.769   2.041  0.8836  1.0021  1.4991
 2079TIP3   OH227795   6.676   6.686   8.568  0.7859  0.9530  0.0946
 2079TIP3    H127796   6.659   6.767   8.520  2.1492  1.0317 -0.2954
 2079TIP3    H227797   6.757   6.652   8.531 -0.7711 -1.6950 -1.1569
 2080TIP3   OH227798   5.427   6.269   7.185 -0.3652 -0.4884 -0.3389
 2080TIP3    H127799   5.398   6.359   7.166 -1.4302 -0.7940 -0.1771
 2080TIP3    H227800   5.515   6.281   7.221 -1.0984  0.6261  1.1896
 2081TIP3   OH227801   3.809   0.679   0.951 -0.2680 -0.3132 -0.0791
 2081TIP3    H127802   3.814   0.631   0.868  1.7122 -0.2809 -0.0279
 2081TIP3    H227803   3.810   0.611   1.018  0.6134 -0.2998 -0.0567
 2082TIP3   OH227804   3.500   5.232   1.592  0.8938  0.4152  0.4752
 2082TIP3    H127805   3.431   5.169   1.573 -0.0395  1.8420 -1.1271
 2082TIP3    H227806   3.527   5.212   1.682 -0.6178 -1.0692  0.6410
 2083TIP3   OH227807   2.955   4.417   2.435  0.3344 -0.4079 -0.0861
 2083TIP3    H127808   2.916   4.504   2.438  0.4281 -0.3603 -0.2430
 2083TIP3    H227809   2.891   4.361   2.478 -0.1009 -0.4063 -0.7158
 2084TIP3   OH227810   5.650   5.264   8.027 -0.2872 -0.1322  0.0637
 2084TIP3    H127811   5.686   5.211   7.956  0.2914  0.0378  0.2297
 2084TIP3    H227812   5.631   5.349   7.987  1.0225  0.3108  0.3414
 2085TIP3   OH227813   1.860   4.311   2.237 -0.2169 -0.2978  0.1623
 2085TIP3    H127814   1.846   4.401   2.207  1.0879 -0.1423 -0.0174
 2085TIP3    H227815   1.873   4.318   2.332 -0.5022 -0.3499  0.2073
 2086TIP3   OH227816   0.830   0.314   1.354 -0.5313  0.2533 -0.0546
 2086TIP3    H127817   0.841   0.406   1.332 -0.6238 -0.1128 -1.8230
 2086TIP3    H227818   0.786   0.314   1.439 -2.0139  1.8521 -0.7677
 2087TIP3   OH227819   0.711   1.180   0.297 -0.2612 -0.2549 -0.3351
 2087TIP3    H127820   0.760   1.099   0.304 -1.7697 -1.2005 -0.1987
 2087TIP3    H227821   0.730   1.227   0.378  0.5969 -0.4775 -0.3992
 2088TIP3   OH227822   0.634   6.082   1.732  0.2336 -0.7438  0.4383
 2088TIP3    H127823   0.693   6.007   1.738  0.7444 -0.2315  2.9632
 2088TIP3    H227824   0.548   6.047   1.756  0.2395 -0.7778  0.4091
 2089TIP3   OH227825   5.923   5.751   2.361 -0.5228  0.1289 -0.7913
 2089TIP3    H127826   5.926   5.847   2.353  0.0943  0.0775 -1.2705
 2089TIP3    H227827   5.903   5.736   2.453  2.4210  0.7396  0.0516
 2090TIP3   OH227828   1.158   2.991   1.197  0.0703 -0.1320  0.5552
 2090TIP3    H127829   1.177   2.953   1.111 -0.3273  0.9489 -0.0238
 2090TIP3    H227830   1.243   3.023   1.229 -0.4012  3.8569 -1.6238
 2091TIP3   OH227831   0.139   6.258   2.403 -0.1519 -0.1968  0.5384
 2091TIP3    H127832   0.166   6.250   2.494 -0.5350  0.4079  0.7141
 2091TIP3    H227833   0.219   6.239   2.352  0.0024 -0.7667  0.9856
 2092TIP3   OH227834   4.029   4.764   1.131 -0.0343 -0.1244 -0.7590
 2092TIP3    H127835   3.988   4.825   1.070  1.1109 -0.4019 -1.8516
 2092TIP3    H227836   3.962   4.749   1.198 -1.4857 -0.0802 -2.1190
 2093TIP3   OH227837   1.897   5.024   7.930 -0.4652 -0.4532  0.0624
 2093TIP3    H127838   1.938   5.101   7.889  0.2647  0.4561  2.3290
 2093TIP3    H227839   1.968   4.961   7.938 -0.2917 -0.1421  1.0298
 2094TIP3   OH227840   4.436   2.736   1.140 -0.3121 -0.2642  0.5554
 2094TIP3    H127841   4.424   2.739   1.045 -1.3945  2.9980  0.6687
 2094TIP3    H227842   4.424   2.644   1.163  1.0769 -1.3489 -2.5418
 2095TIP3   OH227843   2.460   5.038   0.618 -0.2189  0.6564  0.1167
 2095TIP3    H127844   2.511   4.976   0.669 -1.7915 -0.2365  0.6889
 2095TIP3    H227845   2.447   5.113   0.676 -1.4342 -0.0725  0.8156
 2096TIP3   OH227846   1.250   4.138   2.942 -0.0686 -0.3546 -0.2599
 2096TIP3    H127847   1.229   4.224   2.977 -1.1950 -1.4230  1.9212
 2096TIP3    H227848   1.239   4.147   2.848  1.0677  2.1672 -0.2344
 2097TIP3   OH227849   2.569   4.820   7.596  0.0144 -0.0872 -0.9365
 2097TIP3    H127850   2.612   4.905   7.587  0.3179 -0.0889  0.2658
 2097TIP3    H227851   2.477   4.838   7.577  0.1919  0.3489 -1.4263
 2098TIP3   OH227852   5.267   2.225   8.675  0.2370  0.0690 -0.5805
 2098TIP3    H127853   5.338   2.238   8.737  1.6640 -2.1159 -1.5918
 2098TIP3    H227854   5.222   2.146   8.706  0.3891 -0.5007 -1.7155
 2099TIP3   OH227855   1.251   4.685   1.675  0.1931  0.0189  0.3375
 2099TIP3    H127856   1.314   4.618   1.649 -0.6446 -1.2768  1.4796
 2099TIP3    H227857   1.170   4.637   1.689  0.0387  0.9296  3.1299
 2100TIP3   OH227858   6.746   3.632   8.535  0.2984  0.1504 -0.2280
 2100TIP3    H127859   6.703   3.706   8.492  0.0879 -0.0895 -0.4327
 2100TIP3    H227860   6.834   3.664   8.555 -0.2353  0.9349  0.9705
 2101TIP3   OH227861   2.733   1.672   2.643  0.3383  0.4533  0.4051
 2101TIP3    H127862   2.827   1.688   2.647  0.2147  1.0129  2.2827
 2101TIP3    H227863   2.694   1.757   2.663 -0.4626 -0.4260  3.0727
 2102TIP3   OH227864   1.522   0.123   1.625 -0.1030  0.6352 -0.0601
 2102TIP3    H127865   1.589   0.135   1.692 -0.6035 -2.0642  1.0141
 2102TIP3    H227866   1.571   0.102   1.546  0.3626 -0.6075  0.5445
 2103TIP3   OH227867   6.385   1.712   7.661  0.0449 -0.1803  0.0330
 2103TIP3    H127868   6.469   1.743   7.627 -0.3260  0.6654 -0.1123
 2103TIP3    H227869   6.320   1.744   7.600 -0.2923 -2.1650 -0.7462
 2104TIP3   OH227870   2.449   5.430   3.118 -0.1047 -0.1864  1.0575
 2104TIP3    H127871   2.516   5.474   3.065 -2.3134 -0.0797 -1.9011
 2104TIP3    H227872   2.401   5.502   3.159  0.3721 -0.1942  1.6545
 2105TIP3   OH227873   4.308   6.192   0.751  0.3890 -0.0446  0.5260
 2105TIP3    H127874   4.293   6.283   0.727  0.1564 -0.2907 -0.3085
 2105TIP3    H227875   4.400   6.176   0.730  0.2771 -0.1589  0.0984
 2106TIP3   OH227876   0.253   0.552   1.532 -0.4799  1.1633  0.0788
 2106TIP3    H127877   0.307   0.597   1.597 -0.1751  1.4231 -0.3534
 2106TIP3    H227878   0.212   0.622   1.482  0.0318  0.9663 -0.6240
 2107TIP3   OH227879   3.117   0.733   2.623 -0.1461 -0.5011  0.3699
 2107TIP3    H127880   3.096   0.669   2.555 -1.2460 -1.0199  1.1676
 2107TIP3    H227881   3.168   0.684   2.688 -1.4322 -0.7381  1.2352
 2108TIP3   OH227882   1.736   4.730   8.401 -0.0244 -0.1543 -0.2171
 2108TIP3    H127883   1.818   4.687   8.425  1.2220  1.3878 -1.4478
 2108TIP3    H227884   1.727   4.714   8.307 -1.0214 -0.1101 -0.1385
 2109TIP3   OH227885   1.999   0.056   8.335  0.3211 -0.2555  0.3616
 2109TIP3    H127886   2.001   0.043   8.429  1.9410  0.0869  0.4057
 2109TIP3    H227887   2.071   0.002   8.302  0.1392  0.0794 -0.6157
 2110TIP3   OH227888   2.814   3.625   7.828  0.1554 -0.1353 -0.2050
 2110TIP3    H127889   2.817   3.571   7.749 -0.7767 -0.2611 -0.1656
 2110TIP3    H227890   2.727   3.666   7.826 -1.1160 -2.3906  2.2120
 2111TIP3   OH227891   6.707   2.039   8.557 -0.6338 -0.2273 -0.4358
 2111TIP3    H127892   6.660   2.110   8.512 -2.8345 -1.6328 -0.4806
 2111TIP3    H227893   6.749   1.990   8.486 -1.6604 -0.7357 -0.7039
 2112TIP3   OH227894   2.876   0.879   0.975  0.0070  0.2607 -0.1475
 2112TIP3    H127895   2.936   0.819   1.018  1.7865  0.9333 -1.5443
 2112TIP3    H227896   2.826   0.920   1.046  0.2603 -1.2859  0.9464
 2113TIP3   OH227897   5.278   6.615   1.425  0.0694  0.0054  0.0661
 2113TIP3    H127898   5.316   6.624   1.512 -0.5551  0.7039  0.2773
 2113TIP3    H227899   5.264   6.705   1.395 -1.7441 -0.2062  0.1558
 2114TIP3   OH227900   1.338   0.180   1.052  0.0925  0.2091 -0.3056
 2114TIP3    H127901   1.395   0.248   1.016  1.0953  0.4547  1.6008
 2114TIP3    H227902   1.289   0.225   1.121  0.2588 -0.8154  0.5082
 2115TIP3   OH227903   1.126   1.652   8.486  0.1342  0.4720  0.4207
 2115TIP3    H127904   1.192   1.586   8.504 -0.2022 -1.0233 -2.9827
 2115TIP3    H227905   1.168   1.713   8.425 -1.2310 -0.0055 -1.0914
 2116TIP3   OH227906   2.345   6.781   0.247  0.1804 -0.5552 -0.0626
 2116TIP3    H127907   2.282   6.804   0.179 -0.5519 -1.9914  0.0893
 2116TIP3    H227908   2.403   6.716   0.206  1.3249  0.4174 -0.0638
 2117TIP3   OH227909   3.574   3.562   8.207 -0.3695  0.3062  0.1311
 2117TIP3    H127910   3.568   3.565   8.111 -0.8061 -0.6074  0.1145
 2117TIP3    H227911   3.556   3.652   8.235  1.2026  0.9181 -0.7041
 2118TIP3   OH227912   6.308   6.657   0.788  0.5154 -0.0220 -0.0182
 2118TIP3    H127913   6.269   6.604   0.857  0.0557 -0.5302 -0.6555
 2118TIP3    H227914   6.283   6.747   0.810 -1.2835 -0.3593 -0.5674
 2119TIP3   OH227915   6.563   6.181   1.907  0.3893 -0.6056  0.0784
 2119TIP3    H127916   6.621   6.246   1.868  0.1258 -0.7863 -0.6294
 2119TIP3    H227917   6.475   6.218   1.896  0.4259  0.3080  2.3462
 2120TIP3   OH227918   4.192   4.730   0.436 -0.3236  0.6315 -1.0007
 2120TIP3    H127919   4.230   4.732   0.524  1.5647  1.1507 -1.7655
 2120TIP3    H227920   4.105   4.694   0.449  0.7506 -1.6569  0.8048
 2121TIP3   OH227921   4.561   4.241   7.844  0.3986  0.0047 -0.1550
 2121TIP3    H127922   4.541   4.294   7.921  0.0787  0.6830 -0.6926
 2121TIP3    H227923   4.654   4.258   7.826  1.1739 -2.0486  1.5015
 2122TIP3   OH227924   0.501   0.553   0.807 -0.1838  1.1425  0.1126
 2122TIP3    H127925   0.526   0.463   0.785  0.6412  1.1746  0.8728
 2122TIP3    H227926   0.540   0.606   0.738 -2.4944  0.7661 -1.5847
 2123TIP3   OH227927   4.742   4.877   0.694  0.5130 -0.4804 -0.3459
 2123TIP3    H127928   4.744   4.829   0.611  0.0513 -0.3768 -0.4202
 2123TIP3    H227929   4.753   4.809   0.761  2.4750 -0.3929 -0.5253
 2124TIP3   OH227930   3.933   4.687   2.208 -0.3693  0.3788  0.1936
 2124TIP3    H127931   3.955   4.595   2.195 -0.7655  0.4385 -1.0225
 2124TIP3    H227932   3.841   4.686   2.235 -0.0632  0.3728  1.3121
 2125TIP3   OH227933   2.693   2.969   8.430  0.0425 -0.0363  0.3430
 2125TIP3    H127934   2.603   2.949   8.455  0.2373 -3.2447 -1.1119
 2125TIP3    H227935   2.685   3.012   8.345 -0.1433  2.4127  1.4970
 2126TIP3   OH227936   3.826   0.564   2.583  0.3308  0.1641 -0.1931
 2126TIP3    H127937   3.864   0.581   2.669 -1.5492 -0.6493  0.8780
 2126TIP3    H227938   3.788   0.476   2.590 -0.2560  0.2547 -1.7030
 2127TIP3   OH227939   6.621   1.799   7.548 -0.3816  0.5126 -0.1938
 2127TIP3    H127940   6.650   1.711   7.526  0.9095  0.7137  0.6493
 2127TIP3    H227941   6.682   1.857   7.502 -2.0282  1.0406 -1.8733
 2128TIP3   OH227942   0.470   4.001   1.856  0.3028  0.4086 -0.8842
 2128TIP3    H127943   0.547   4.013   1.912 -1.0524  0.6670  1.0199
 2128TIP3    H227944   0.406   3.958   1.913 -0.4230 -1.3876 -2.9057
 2129TIP3   OH227945   2.801   5.711   1.964 -0.1843 -0.0780  0.3234
 2129TIP3    H127946   2.787   5.780   1.899  0.1901 -0.2454  0.0650
 2129TIP3    H227947   2.800   5.757   2.048 -0.6227  0.1451  0.1980
 2130TIP3   OH227948   3.237   6.133   0.427 -0.1232  0.1321  0.2207
 2130TIP3    H127949   3.313   6.078   0.449  0.5479  0.5081 -1.0597
 2130TIP3    H227950   3.218   6.111   0.336 -1.3964  0.2526  0.4464
 2131TIP3   OH227951   4.176   6.448   3.178  0.3017 -0.3644  0.6433
 2131TIP3    H127952   4.116   6.456   3.252  0.2742 -1.5584  0.7690
 2131TIP3    H227953   4.251   6.399   3.212  1.5627  1.3826  0.5860
 2132TIP3   OH227954   0.883   6.264   0.042  0.7948 -0.0869 -0.1788
 2132TIP3    H127955   0.928   6.213  -0.025  2.2736  0.9217 -0.0163
 2132TIP3    H227956   0.871   6.350   0.002 -0.9910 -0.3040 -0.1862
 2133TIP3   OH227957   0.072   5.276   0.343 -0.0548  0.3997  0.6665
 2133TIP3    H127958  -0.004   5.245   0.393  1.8843 -1.1915  2.7999
 2133TIP3    H227959   0.121   5.331   0.404  0.5066  1.4902 -0.7085
 2134TIP3   OH227960   5.220   1.296   7.320  0.0038 -0.1115 -0.0428
 2134TIP3    H127961   5.156   1.318   7.388  1.1194 -1.2621  1.4487
 2134TIP3    H227962   5.170   1.245   7.257 -1.1380  1.2647 -0.3094
 2135TIP3   OH227963   1.729   4.746   0.319 -0.1922 -0.3823 -1.1625
 2135TIP3    H127964   1.819   4.778   0.307 -0.8999  1.5301 -1.7286
 2135TIP3    H227965   1.723   4.726   0.412  0.5935  0.2294 -0.9720
 2136TIP3   OH227966   3.528   1.658   8.718 -0.1761 -0.4118 -0.3296
 2136TIP3    H127967   3.543   1.623   8.806 -1.1105  1.5361  0.6604
 2136TIP3    H227968   3.586   1.734   8.712  1.7284 -1.8755 -2.3964
 2137TIP3   OH227969   5.804   2.882   1.717  0.0568  0.2571 -0.2472
 2137TIP3    H127970   5.810   2.940   1.793 -1.0017  0.6549 -0.4531
 2137TIP3    H227971   5.817   2.940   1.642  0.9334 -0.1091 -0.3974
 2138TIP3   OH227972   6.664   5.194   1.635 -0.4114 -0.5174 -0.3429
 2138TIP3    H127973   6.713   5.129   1.586  0.6378 -0.1907  0.2386
 2138TIP3    H227974   6.691   5.180   1.726  0.2558  1.0528 -0.2647
 2139TIP3   OH227975   5.438   2.446   2.825  0.2776  0.1359 -0.1768
 2139TIP3    H127976   5.457   2.422   2.734  0.0085 -1.2121  0.1012
 2139TIP3    H227977   5.521   2.480   2.859  0.2841  1.0063 -1.0179
 2140TIP3   OH227978   0.585   2.606   8.295  0.1914  0.3263  0.0337
 2140TIP3    H127979   0.679   2.588   8.294 -0.0706 -1.2146 -1.2775
 2140TIP3    H227980   0.562   2.618   8.203 -0.7603  1.5563  0.4118
 2141TIP3   OH227981   5.309   5.157   0.664  0.1505 -0.2045 -1.1297
 2141TIP3    H127982   5.352   5.075   0.686  1.6058  0.4672 -1.3646
 2141TIP3    H227983   5.371   5.225   0.692 -1.3049  0.8437 -0.3149
 2142TIP3   OH227984   3.179   6.649   1.689 -0.6044 -0.3488  0.4448
 2142TIP3    H127985   3.163   6.571   1.636 -0.5962  0.0307 -0.1309
 2142TIP3    H227986   3.273   6.662   1.685 -0.4374 -1.0427  1.6175
 2143TIP3   OH227987   5.115   2.104   2.519 -0.1350  0.1771  0.3946
 2143TIP3    H127988   5.066   2.186   2.517 -0.5739 -0.0858 -1.5270
 2143TIP3    H227989   5.057   2.043   2.565 -0.2617  0.6609  0.8927
 2144TIP3   OH227990   2.444   4.397   0.109 -1.0862  0.1522 -0.5960
 2144TIP3    H127991   2.519   4.428   0.160 -1.4872  0.2644 -0.0683
 2144TIP3    H227992   2.479   4.384   0.021 -1.4662  4.8558 -1.6986
 2145TIP3   OH227993   4.712   3.871   2.523  0.0934 -0.7387 -0.5221
 2145TIP3    H127994   4.712   3.942   2.459 -0.1154  0.0479  0.3352
 2145TIP3    H227995   4.626   3.829   2.513  0.4413 -1.2700 -1.4392
 2146TIP3   OH227996   4.115   5.222   2.175  0.6206  0.0593  0.0579
 2146TIP3    H127997   4.146   5.277   2.247 -0.1310  2.7743 -1.5585
 2146TIP3    H227998   4.168   5.248   2.100 -0.8256 -0.2843 -1.1318
 2147TIP3   OH227999   5.774   3.934   8.567 -0.1604 -0.1970  0.2114
 2147TIP3    H128000   5.744   3.986   8.492 -3.7539  0.4810  1.9241
 2147TIP3    H228001   5.821   3.996   8.622  0.7920 -0.2436 -0.5287
 2148TIP3   OH228002   3.375   2.535   8.687  0.6253  0.6011  0.7344
 2148TIP3    H128003   3.317   2.473   8.732 -0.1873  1.1400  0.4710
 2148TIP3    H228004   3.463   2.505   8.706  0.2494 -1.4019 -0.4932
 2149TIP3   OH228005   6.393   3.157   1.994  0.2247 -0.0480  0.3397
 2149TIP3    H128006   6.349   3.195   2.070 -0.7538  0.5555 -0.5029
 2149TIP3    H228007   6.361   3.066   1.990  0.2441 -0.0661  0.6298
 2150TIP3   OH228008   3.722   6.466   7.263  0.2467  0.0585  0.3578
 2150TIP3    H128009   3.720   6.414   7.183  1.1669  0.6794 -0.0724
 2150TIP3    H228010   3.647   6.525   7.255  0.4370  0.2385 -0.1306
 2151TIP3   OH228011   5.630   1.527   0.333  0.4971  0.1585  0.1118
 2151TIP3    H128012   5.635   1.622   0.345  0.9285  0.1058  0.3764
 2151TIP3    H228013   5.704   1.506   0.277  0.3016 -0.0005 -0.0874
 2152TIP3   OH228014   1.180   2.955   7.658 -0.1772 -0.1396 -0.1870
 2152TIP3    H128015   1.269   2.927   7.637  0.2592  0.4479  0.8263
 2152TIP3    H228016   1.143   2.983   7.575 -0.5517 -3.4043 -1.2606
 2153TIP3   OH228017   3.909   0.788   7.246  0.6704  0.3063  0.5813
 2153TIP3    H128018   3.993   0.833   7.238  0.7266  0.0034 -0.7419
 2153TIP3    H228019   3.869   0.795   7.160 -0.7251  0.5334  1.2222
 2154TIP3   OH228020   2.809   3.558   0.083 -0.0482 -0.0111 -0.3336
 2154TIP3    H128021   2.773   3.470   0.091  1.6144 -0.5743  2.0174
 2154TIP3    H228022   2.872   3.553   0.011 -1.1621 -0.2620 -1.3132
 2155TIP3   OH228023   2.403   6.240   1.560 -0.0015 -0.2094 -0.1026
 2155TIP3    H128024   2.368   6.329   1.570  1.5083  0.5579 -1.2264
 2155TIP3    H228025   2.463   6.230   1.635  1.4084  0.5610 -1.0758
 2156TIP3   OH228026   6.158   1.894   2.562  0.1180 -0.0550  0.0708
 2156TIP3    H128027   6.153   1.927   2.472 -0.9317  2.3925  0.9533
 2156TIP3    H228028   6.249   1.867   2.572  0.3145 -0.1756 -1.6514
 2157TIP3   OH228029   2.918   0.199   0.483  0.4853  0.3817  0.0027
 2157TIP3    H128030   2.977   0.162   0.549  1.2854 -1.4193 -1.6195
 2157TIP3    H228031   2.969   0.268   0.441  0.1727  1.1478  0.8379
 2158TIP3   OH228032   2.803   5.685   0.635 -0.9704  0.4439  0.4285
 2158TIP3    H128033   2.803   5.704   0.729  0.6437 -2.5538  1.1728
 2158TIP3    H228034   2.711   5.678   0.612 -1.4996 -2.1934  2.7147
 2159TIP3   OH228035   5.367   3.371   2.373 -0.3347 -0.0697  0.0890
 2159TIP3    H128036   5.281   3.413   2.378  0.4234  1.3522  1.7837
 2159TIP3    H228037   5.418   3.427   2.315  0.3131  0.7342  1.4016
 2160TIP3   OH228038   4.098   0.459   3.110 -0.4269  0.0257 -0.3386
 2160TIP3    H128039   4.169   0.517   3.082 -0.4538 -0.3168 -1.1380
 2160TIP3    H228040   4.103   0.385   3.050 -0.1011 -1.0420  0.9516
 2161TIP3   OH228041   3.205   5.277   7.169 -0.4635  0.0332  0.3623
 2161TIP3    H128042   3.273   5.287   7.102 -0.2680 -2.1405  0.1749
 2161TIP3    H228043   3.218   5.352   7.228  1.8369 -0.1151  0.1170
 2162TIP3   OH228044   1.370   0.112   8.106 -0.2768  0.1736 -0.2822
 2162TIP3    H128045   1.416   0.143   8.185  1.6951 -2.7161 -0.1537
 2162TIP3    H228046   1.286   0.080   8.139 -0.0544  0.2806  0.4144
 2163TIP3   OH228047   2.646   4.250   8.189  0.1576  0.6120  1.0140
 2163TIP3    H128048   2.672   4.335   8.225 -1.0252  0.8897  1.2573
 2163TIP3    H228049   2.654   4.189   8.262  3.4551 -0.0698  0.2422
 2164TIP3   OH228050   6.659   2.584   1.832  0.0191  0.4128  0.0310
 2164TIP3    H128051   6.570   2.598   1.864  0.4961  0.4352  1.3776
 2164TIP3    H228052   6.669   2.648   1.761 -1.3716 -0.2782 -0.8389
 2165TIP3   OH228053   2.463   6.378   8.666  0.7215  0.0950 -0.4621
 2165TIP3    H128054   2.496   6.303   8.617 -1.6902  0.0186 -2.1427
 2165TIP3    H228055   2.423   6.435   8.600 -0.6489  1.1226  1.1491
 2166TIP3   OH228056   6.741   1.373   0.159  0.4531 -0.3375  0.3022
 2166TIP3    H128057   6.738   1.448   0.100  1.2642 -0.1210  0.5274
 2166TIP3    H228058   6.805   1.397   0.225  2.0655 -1.9161 -0.5841
 2167TIP3   OH228059   4.545   1.147   0.742  0.0348  0.1089 -0.3918
 2167TIP3    H128060   4.620   1.143   0.682  0.1007 -2.4824 -0.2412
 2167TIP3    H228061   4.579   1.115   0.826 -0.9975 -0.2103 -0.0785
 2168TIP3   OH228062   1.664   5.095   2.343  0.3468  0.2697  0.1725
 2168TIP3    H128063   1.642   5.078   2.435  0.5542 -1.0416  0.0014
 2168TIP3    H228064   1.757   5.120   2.346  0.1096  1.1658  0.4027
 2169TIP3   OH228065   4.867   6.225   0.911 -0.2324  0.0942 -0.5508
 2169TIP3    H128066   4.810   6.150   0.893  0.0815 -0.4018  0.4721
 2169TIP3    H228067   4.878   6.226   1.006  0.8762  0.6224 -0.6612
 2170TIP3   OH228068   2.201   4.965   2.333  0.0159 -0.0468 -0.3299
 2170TIP3    H128069   2.278   4.957   2.389 -0.1156 -1.8253 -0.3635
 2170TIP3    H228070   2.146   4.891   2.356 -2.2501  1.7513  0.4689
 2171TIP3   OH228071   4.190   1.231   1.947  0.0633  0.1584 -0.5201
 2171TIP3    H128072   4.109   1.185   1.967  0.1430  0.4547  0.5661
 2171TIP3    H228073   4.208   1.210   1.856 -0.8914 -0.4308 -0.5850
 2172TIP3   OH228074   6.169   5.790   8.566 -0.0956 -0.0675  0.0487
 2172TIP3    H128075   6.222   5.848   8.621  0.2863 -0.1643 -0.2078
 2172TIP3    H228076   6.177   5.827   8.478 -1.8835  0.9350  0.2728
 2173TIP3   OH228077   0.082   1.730   0.662  0.2107 -0.1150  0.6555
 2173TIP3    H128078   0.038   1.653   0.627 -0.6069  0.7921 -0.3941
 2173TIP3    H228079   0.037   1.804   0.621 -0.7151  1.0348  3.5434
 2174TIP3   OH228080   4.490   0.351   7.911  0.0022 -0.0843  0.2744
 2174TIP3    H128081   4.483   0.258   7.933  2.3350 -0.1251  1.1986
 2174TIP3    H228082   4.406   0.373   7.872 -0.7808 -2.4675  0.4385
 2175TIP3   OH228083   1.707   6.200   2.720  0.4782 -0.3113 -0.2444
 2175TIP3    H128084   1.682   6.234   2.806 -1.6730 -0.6741 -0.6536
 2175TIP3    H228085   1.689   6.107   2.725 -0.1531 -0.2627 -1.2122
 2176TIP3   OH228086   4.678   1.609   0.905 -0.0093 -0.1003  0.0874
 2176TIP3    H128087   4.611   1.568   0.850  0.4841 -0.0160 -0.5852
 2176TIP3    H228088   4.628   1.658   0.970 -0.6081  0.1329 -0.5312
 2177TIP3   OH228089   3.081   3.157   8.676 -0.3772 -0.3939 -0.6306
 2177TIP3    H128090   3.069   3.064   8.660 -0.8158 -0.2201 -1.3703
 2177TIP3    H228091   3.115   3.192   8.593 -1.7720  0.3732 -0.9020
 2178TIP3   OH228092   4.528   5.282   7.117  0.0838  0.1401  0.0279
 2178TIP3    H128093   4.433   5.279   7.127  0.1724  0.4501  1.0224
 2178TIP3    H228094   4.552   5.372   7.142  0.5300  0.4137 -1.2773
 2179TIP3   OH228095   4.685   3.528   1.818  0.5462 -0.3886 -0.5645
 2179TIP3    H128096   4.639   3.467   1.876  1.2922  0.0283  0.4919
 2179TIP3    H228097   4.618   3.555   1.754  0.0037 -1.6931 -0.5733
 2180TIP3   OH228098   0.649   1.939   1.771  0.1198  0.9706  0.7251
 2180TIP3    H128099   0.707   1.894   1.833  1.4113 -0.8789 -1.6762
 2180TIP3    H228100   0.687   1.922   1.685 -1.6784  3.3014 -0.6530
 2181TIP3   OH228101   0.093   0.244   3.005 -0.1764  0.1939 -0.4929
 2181TIP3    H128102   0.155   0.208   3.067 -1.5692 -2.2007 -0.3501
 2181TIP3    H228103   0.029   0.173   2.991 -2.0316  1.9889 -1.7318
 2182TIP3   OH228104   4.326   2.329   3.375 -0.4361  0.1622  0.3370
 2182TIP3    H128105   4.312   2.238   3.401  2.0966 -0.3337  0.2005
 2182TIP3    H228106   4.254   2.377   3.416  0.1987 -1.3969  3.5893
 2183TIP3   OH228107   1.056   0.863   8.242  0.1558 -0.0462  0.5593
 2183TIP3    H128108   1.031   0.773   8.222 -1.3586  0.5743 -0.5608
 2183TIP3    H228109   1.079   0.861   8.335 -0.5568 -1.4494  0.7361
 2184TIP3   OH228110   3.178   3.451   1.818 -0.0536  0.3238 -0.4761
 2184TIP3    H128111   3.187   3.383   1.885  3.3130  0.3986 -0.6869
 2184TIP3    H228112   3.167   3.532   1.867  1.8504  0.3085  0.0495
 2185TIP3   OH228113   0.645   3.848   8.361  0.1025 -0.1850 -0.3315
 2185TIP3    H128114   0.582   3.883   8.424  0.0260  0.2045 -0.6165
 2185TIP3    H228115   0.708   3.800   8.413 -0.4148 -0.5461 -0.0368
 2186TIP3   OH228116   2.890   2.809   2.067  0.2968 -0.1385  0.2382
 2186TIP3    H128117   2.811   2.827   2.117 -0.7098  0.6995 -1.5725
 2186TIP3    H228118   2.961   2.846   2.120 -0.6938  0.5185  1.1381
 2187TIP3   OH228119   1.167   6.313   2.273 -0.2442 -0.3187  0.3661
 2187TIP3    H128120   1.220   6.298   2.195 -0.4827 -2.4319  0.5563
 2187TIP3    H228121   1.219   6.375   2.325  1.6147 -1.5519  0.1026
 2188TIP3   OH228122   1.753   1.707   0.398 -0.0858  0.0921 -0.6973
 2188TIP3    H128123   1.766   1.636   0.461  0.9870 -0.2476 -1.2886
 2188TIP3    H228124   1.659   1.704   0.380 -0.4863  0.3736  1.0699
 2189TIP3   OH228125   0.148   6.346   0.732 -0.2410 -0.1573  0.1123
 2189TIP3    H128126   0.087   6.273   0.742 -1.3380  0.2664 -2.6091
 2189TIP3    H228127   0.213   6.314   0.670 -0.2680  0.8722 -0.4729
 2190TIP3   OH228128   4.297   5.608   8.586 -0.6117  0.7874  0.0994
 2190TIP3    H128129   4.363   5.668   8.620  0.2450 -0.8009  1.4192
 2190TIP3    H228130   4.298   5.622   8.492  0.9058  1.5083  0.1922
 2191TIP3   OH228131   2.486   2.232   2.276 -0.1445  0.0310  0.1766
 2191TIP3    H128132   2.558   2.176   2.245  1.7480  1.2489  2.1003
 2191TIP3    H228133   2.458   2.192   2.358  0.8019  1.4666  1.2491
 2192TIP3   OH228134   5.200   1.282   7.708 -0.4076  0.6012  0.4331
 2192TIP3    H128135   5.165   1.310   7.624  2.3170 -0.6804 -1.2947
 2192TIP3    H228136   5.233   1.193   7.692 -0.4884  0.0065  3.0837
 2193TIP3   OH228137   0.536   1.732   0.867 -0.3383  0.1060 -0.1463
 2193TIP3    H128138   0.549   1.644   0.830  0.6354  0.4683 -0.7075
 2193TIP3    H228139   0.441   1.746   0.862 -0.3462 -0.2309 -1.6827
 2194TIP3   OH228140   1.267   6.781   8.540  0.2206  0.3531 -0.2018
 2194TIP3    H128141   1.318   6.707   8.509  1.8050  0.8757  1.0227
 2194TIP3    H228142   1.246   6.831   8.460  1.0204 -0.2482 -0.8047
 2195TIP3   OH228143   2.967   6.019   7.194  0.5430 -0.0262 -0.4372
 2195TIP3    H128144   3.001   6.051   7.278  1.7547  0.7683 -1.2100
 2195TIP3    H228145   3.036   5.963   7.160 -1.0937 -2.7240  0.3691
 2196TIP3   OH228146   4.932   6.710   0.214 -0.2162  0.7132 -0.6530
 2196TIP3    H128147   4.943   6.628   0.262 -1.7448  0.8005 -0.0964
 2196TIP3    H228148   4.892   6.683   0.131 -2.9569  1.0315  0.4591
 2197TIP3   OH228149   6.455   1.932   2.242 -0.2357  0.6668  0.3005
 2197TIP3    H128150   6.455   1.854   2.185  0.1228 -0.2913  1.5782
 2197TIP3    H228151   6.541   1.971   2.227  0.1033  0.0686  0.6362
 2198TIP3   OH228152   6.033   5.414   2.180  0.5418 -0.1939  0.7913
 2198TIP3    H128153   6.121   5.382   2.159  0.6855 -0.0296  1.1307
 2198TIP3    H228154   6.037   5.508   2.162  0.1025 -0.3706 -0.2609
 2199TIP3   OH228155   1.432   6.076   2.264 -0.0997 -0.4506  0.5985
 2199TIP3    H128156   1.482   6.001   2.296  0.0585 -1.6520 -2.2472
 2199TIP3    H228157   1.488   6.151   2.283  0.9903 -1.3396  1.0106
 2200TIP3   OH228158   6.670   3.094   7.993 -0.3112  0.0727  0.2654
 2200TIP3    H128159   6.688   3.028   7.926  0.4094 -0.2842  0.8028
 2200TIP3    H228160   6.755   3.109   8.035 -1.1650 -1.5976  2.8239
 2201TIP3   OH228161   5.088   0.239   1.061 -0.0700  0.6488 -0.3409
 2201TIP3    H128162   5.076   0.304   1.130  2.5514 -0.3153  1.1659
 2201TIP3    H228163   5.180   0.248   1.035 -0.2787 -0.8464 -1.8196
 2202TIP3   OH228164   1.710   2.043   7.370 -0.2223 -0.0733  0.2486
 2202TIP3    H128165   1.633   2.090   7.338  1.1027  0.3614 -2.6118
 2202TIP3    H228166   1.779   2.109   7.372  0.7047 -1.0084  0.1013
 2203TIP3   OH228167   5.685   6.777   8.277  0.0718  0.1587  0.1859
 2203TIP3    H128168   5.704   6.779   8.183 -0.4151  0.4342  0.0902
 2203TIP3    H228169   5.623   6.849   8.291 -0.7840 -0.6195  0.5039
 2204TIP3   OH228170   3.051   3.183   2.520  0.2602 -0.1825  0.1255
 2204TIP3    H128171   3.041   3.276   2.540  1.8952  0.1215 -0.3338
 2204TIP3    H228172   3.143   3.173   2.494 -0.4635 -1.4563 -2.2695
 2205TIP3   OH228173   5.832   5.410   8.326  0.4829  0.0409 -0.3617
 2205TIP3    H128174   5.811   5.358   8.249  0.8842  2.5963 -2.3571
 2205TIP3    H228175   5.862   5.347   8.391 -0.3188 -2.2776 -2.1273
 2206TIP3   OH228176   5.631   2.003   2.913 -0.5542 -0.7093  0.0227
 2206TIP3    H128177   5.577   2.049   2.848  0.6331 -0.1887 -0.6271
 2206TIP3    H228178   5.708   1.975   2.864 -0.0310 -1.0735  1.0280
 2207TIP3   OH228179   0.886   2.412   0.781  0.1525  0.0654  0.1958
 2207TIP3    H128180   0.846   2.494   0.750  1.7627  1.5179  1.7561
 2207TIP3    H228181   0.869   2.411   0.875 -0.8609 -2.0560  0.0484
 2208TIP3   OH228182   3.605   4.406   0.131 -0.5464 -0.9491 -0.1747
 2208TIP3    H128183   3.627   4.496   0.156 -1.6661 -0.6242 -0.3089
 2208TIP3    H228184   3.515   4.394   0.162 -0.6683 -1.7707 -0.8133
 2209TIP3   OH228185   2.249   1.019   0.746  0.3395  0.2487 -0.0759
 2209TIP3    H128186   2.273   1.049   0.834  0.9762 -0.3669 -0.0337
 2209TIP3    H228187   2.200   0.938   0.761  2.3703 -1.1108 -0.3460
 2210TIP3   OH228188   1.653   0.782   1.452  0.2089 -0.2633 -0.3838
 2210TIP3    H128189   1.630   0.691   1.468  0.7277 -0.3616 -0.1891
 2210TIP3    H228190   1.647   0.824   1.538  1.9924 -0.5718 -0.0630
 2211TIP3   OH228191   6.310   5.905   7.943 -0.1487  0.1775  0.1275
 2211TIP3    H128192   6.242   5.925   7.879 -0.7115  0.2007  0.7345
 2211TIP3    H228193   6.355   5.988   7.958 -1.5091  0.7135  1.5005
 2212TIP3   OH228194   6.097   6.823   2.543  0.0175 -0.1758  0.0195
 2212TIP3    H128195   6.098   6.735   2.581  0.0235 -0.3601 -0.4052
 2212TIP3    H228196   6.086   6.881   2.618  0.2432 -0.5245  0.3271
 2213TIP3   OH228197   3.061   1.222   2.911 -0.0425  0.3031 -0.5094
 2213TIP3    H128198   3.103   1.291   2.962  0.3660 -0.0820 -0.3174
 2213TIP3    H228199   3.133   1.172   2.874 -0.3322 -0.0819 -0.5672
 2214TIP3   OH228200   2.842   5.089   0.540  0.0457  0.0332 -0.3374
 2214TIP3    H128201   2.817   5.181   0.544 -0.8742 -0.2499  1.7472
 2214TIP3    H228202   2.765   5.045   0.503 -0.0216 -0.0362 -0.1198
 2215TIP3   OH228203   4.794   5.887   0.092  0.1722  0.0928  0.6113
 2215TIP3    H128204   4.743   5.814   0.127 -1.3969  0.1252 -1.4211
 2215TIP3    H228205   4.880   5.877   0.133  0.1909 -3.2145  0.0995
 2216TIP3   OH228206   5.540   2.997   3.364 -0.2879  0.6712 -0.1056
 2216TIP3    H128207   5.457   3.006   3.410 -0.4218 -1.7456  0.2099
 2216TIP3    H228208   5.592   2.939   3.419  0.4392 -0.3805 -1.8226
 2217TIP3   OH228209   3.045   3.461   2.636 -0.3652  0.0445 -0.2616
 2217TIP3    H128210   3.057   3.411   2.716  0.2731 -0.1100 -0.4457
 2217TIP3    H228211   3.016   3.548   2.666  2.0415  0.7377  0.3184
 2218TIP3   OH228212   1.482   2.726   1.957 -0.2511  0.2813  0.1872
 2218TIP3    H128213   1.397   2.768   1.949 -0.2490  0.3074  0.3160
 2218TIP3    H228214   1.462   2.637   1.987 -0.3100 -0.0315 -0.7223
 2219TIP3   OH228215   0.091   5.641   1.815  0.3763 -0.3145 -0.1912
 2219TIP3    H128216   0.088   5.712   1.880  0.1919  0.3456 -0.8978
 2219TIP3    H228217   0.055   5.565   1.860  0.4808  0.0712  0.5546
 2220TIP3   OH228218   1.778   6.759   0.697  0.3330  0.1961  0.0030
 2220TIP3    H128219   1.748   6.671   0.675  2.9058 -0.1842 -2.7612
 2220TIP3    H228220   1.838   6.746   0.770 -0.7309 -0.0264  0.8610
 2221TIP3   OH228221   3.989   5.770   8.733  0.1547  0.4266 -1.0472
 2221TIP3    H128222   4.060   5.807   8.680 -1.0267  1.5416 -1.9156
 2221TIP3    H228223   3.918   5.756   8.671  0.3863 -3.0613 -0.6966
 2222TIP3   OH228224   5.165   5.100   2.026  0.0017 -0.2010 -0.3421
 2222TIP3    H128225   5.222   5.024   2.032  0.4035  0.2453  3.2060
 2222TIP3    H228226   5.224   5.175   2.032 -0.7062  0.3052  0.5072
 2223TIP3   OH228227   1.759   2.741   2.286  0.1417  0.4869 -0.2079
 2223TIP3    H128228   1.714   2.773   2.364  0.8834 -0.5824  0.6849
 2223TIP3    H228229   1.762   2.646   2.298 -0.9087  0.1526 -2.1795
 2224TIP3   OH228230   1.990   6.115   0.890 -0.3024  0.3222 -0.2187
 2224TIP3    H128231   2.009   6.045   0.828  1.5426 -0.2417  0.9026
 2224TIP3    H228232   2.039   6.191   0.857  0.9222 -0.0617  0.6665
 2225TIP3   OH228233   6.540   4.840   3.276 -0.0228 -0.3714  0.0418
 2225TIP3    H128234   6.590   4.790   3.340  1.1418  0.7689  0.0671
 2225TIP3    H228235   6.600   4.853   3.203 -0.7644 -0.1993 -0.5462
 2226TIP3   OH228236   4.745   6.444   7.864 -0.3460  0.0746  0.5172
 2226TIP3    H128237   4.770   6.527   7.825  1.0693  0.3213  1.8465
 2226TIP3    H228238   4.650   6.449   7.872 -0.4446  0.8756 -0.8915
 2227TIP3   OH228239   3.314   2.960   2.085 -0.5022 -0.7154  0.4143
 2227TIP3    H128240   3.391   2.950   2.141  0.8329  0.4996 -1.1262
 2227TIP3    H228241   3.308   2.876   2.039  0.8575 -0.3385 -0.5415
 2228TIP3   OH228242   2.402   5.971   7.508 -0.1058 -0.5538  0.6924
 2228TIP3    H128243   2.320   5.954   7.462 -0.3209  1.3799  0.2602
 2228TIP3    H228244   2.378   6.033   7.577  1.6250  4.3874 -2.6235
 2229TIP3   OH228245   3.124   2.761   8.528 -0.1557 -0.3230 -0.8484
 2229TIP3    H128246   3.076   2.695   8.477 -1.0911 -0.1959 -0.1520
 2229TIP3    H228247   3.056   2.819   8.561  0.4331 -0.4069  0.5489
 2230TIP3   OH228248   1.474   5.059   2.159 -0.1345  0.2882 -0.4266
 2230TIP3    H128249   1.418   5.025   2.228  2.0264  1.1961  1.9409
 2230TIP3    H228250   1.558   5.074   2.202  0.7604  2.8299 -2.7876
 2231TIP3   OH228251   0.129   5.736   7.283 -0.1871 -0.1778 -0.1612
 2231TIP3    H128252   0.063   5.799   7.311  0.8107  1.1558 -0.6850
 2231TIP3    H228253   0.204   5.789   7.258  0.8061 -1.6028 -0.3669
 2232TIP3   OH228254   3.802   1.622   2.024 -0.1711 -1.2235  0.0963
 2232TIP3    H128255   3.747   1.584   2.092 -1.2518  0.6973  0.3782
 2232TIP3    H228256   3.809   1.715   2.049  1.6149 -1.0224 -0.9933
 2233TIP3   OH228257   5.907   1.433   1.038 -0.7673  0.2229 -0.1479
 2233TIP3    H128258   5.853   1.488   0.982 -0.9399  0.4449  0.2364
 2233TIP3    H228259   5.846   1.375   1.083 -1.1597  2.6994  2.8802
 2234TIP3   OH228260   4.326   0.738   2.173 -0.2712 -0.7722 -0.1850
 2234TIP3    H128261   4.406   0.705   2.132  0.7487  1.3209 -0.0075
 2234TIP3    H228262   4.334   0.713   2.265  0.2526 -0.4291 -0.1382
 2235TIP3   OH228263   6.650   3.989   1.601 -0.0359  0.9269 -0.2463
 2235TIP3    H128264   6.610   3.964   1.518 -0.0781  0.9494 -0.2326
 2235TIP3    H228265   6.711   3.917   1.620 -0.7351  0.4340  0.1873
 2236TIP3   OH228266   5.253   4.027   8.335  0.1740 -0.3289 -0.1203
 2236TIP3    H128267   5.218   3.998   8.251 -0.5600  1.2749 -0.4153
 2236TIP3    H228268   5.183   4.008   8.398 -1.3986  2.8391 -0.7041
 2237TIP3   OH228269   4.774   5.386   7.743  0.1431 -0.7388  0.7040
 2237TIP3    H128270   4.824   5.433   7.810 -1.3949 -0.0629  1.4368
 2237TIP3    H228271   4.808   5.418   7.660 -0.6444  1.5078  1.1735
 2238TIP3   OH228272   4.187   2.129   0.725  0.8919  0.0600  0.1250
 2238TIP3    H128273   4.141   2.068   0.783  0.7574  0.2644  0.2352
 2238TIP3    H228274   4.168   2.216   0.761  2.3731  0.0932  0.8968
 2239TIP3   OH228275   3.262   2.259   2.997 -0.2683 -0.4833 -0.4787
 2239TIP3    H128276   3.343   2.209   2.982 -0.6235 -1.1908 -0.0818
 2239TIP3    H228277   3.227   2.274   2.909  0.5414  0.2572 -0.6866
 2240TIP3   OH228278   4.728   2.833   3.740 -0.3025  0.6416 -0.3805
 2240TIP3    H128279   4.704   2.923   3.763 -1.0257  0.4225 -0.2603
 2240TIP3    H228280   4.662   2.779   3.782  0.6845 -0.0203  0.3541
 2241TIP3   OH228281   2.719   4.290   7.853  0.1515 -1.1754 -0.7462
 2241TIP3    H128282   2.662   4.271   7.778 -0.8576 -0.3518 -0.2126
 2241TIP3    H228283   2.677   4.245   7.927 -1.6190  1.8746  0.2892
 2242TIP3   OH228284   2.898   0.840   2.792  0.2026  0.7496 -0.3574
 2242TIP3    H128285   2.953   0.773   2.754 -0.6302  0.8522 -1.8077
 2242TIP3    H228286   2.886   0.812   2.883  3.1171  1.0783  0.2181
 2243TIP3   OH228287   6.268   6.354   1.494 -0.0712 -0.1414  0.3233
 2243TIP3    H128288   6.332   6.369   1.564  0.2333  0.1762 -0.0252
 2243TIP3    H228289   6.275   6.260   1.476  0.2374 -0.1209  0.3372
 2244TIP3   OH228290   0.147   5.432   2.396 -0.2179 -0.0504 -0.5454
 2244TIP3    H128291   0.207   5.364   2.364 -1.5766 -0.7473 -1.7486
 2244TIP3    H228292   0.177   5.512   2.354  2.2282  0.4950  1.9081
 2245TIP3   OH228293   5.496   1.719   3.196 -0.1792  0.4920 -0.0097
 2245TIP3    H128294   5.504   1.749   3.287 -1.4679  1.3519 -0.1560
 2245TIP3    H228295   5.474   1.626   3.204 -0.1660  0.5301  0.5493
 2246TIP3   OH228296   3.688   2.914   2.910  0.0348  0.1658  0.5905
 2246TIP3    H128297   3.691   2.952   2.997  1.0190 -1.1190  1.1463
 2246TIP3    H228298   3.682   2.820   2.924 -1.9132  0.0150 -0.7473
 2247TIP3   OH228299   2.983   4.483   8.508 -0.2245 -0.3461  0.5349
 2247TIP3    H128300   3.077   4.475   8.523 -0.2117  0.0956  0.7040
 2247TIP3    H228301   2.956   4.397   8.477  0.0992 -0.6945  1.2125
 2248TIP3   OH228302   6.303   4.864   0.487  0.4201  0.6438  0.2304
 2248TIP3    H128303   6.302   4.849   0.392 -1.4292  0.6258  0.2164
 2248TIP3    H228304   6.306   4.959   0.496  1.4286  0.6285  0.1867
 2249TIP3   OH228305   6.303   4.120   7.496  0.0137  0.2259 -0.7247
 2249TIP3    H128306   6.382   4.078   7.463  0.5319 -0.7261  1.5582
 2249TIP3    H228307   6.267   4.058   7.559 -1.3560  1.5815 -0.1099
 2250TIP3   OH228308   0.453   3.664   2.765 -0.3727  0.2425  0.2108
 2250TIP3    H128309   0.506   3.698   2.693  0.2375 -1.8631 -0.3932
 2250TIP3    H228310   0.489   3.705   2.843  0.9956  0.2010 -0.3824
 2251TIP3   OH228311   2.021   5.562   0.049  0.0534  0.4935  0.1237
 2251TIP3    H128312   2.076   5.504   0.102  0.7891  2.0371  1.1123
 2251TIP3    H228313   1.942   5.574   0.102 -2.6806 -3.8030 -2.3687
 2252TIP3   OH228314   0.709   3.828   1.703  0.2002 -0.6523 -0.1151
 2252TIP3    H128315   0.614   3.831   1.697  0.2340  0.1777 -0.3133
 2252TIP3    H228316   0.737   3.798   1.616  0.1125 -1.2784  0.0646
 2253TIP3   OH228317   1.073   1.778   8.181 -0.1813 -0.1675 -0.1173
 2253TIP3    H128318   1.098   1.838   8.110 -1.2546  0.4734  0.0234
 2253TIP3    H228319   1.111   1.817   8.259  0.7539 -0.7185 -0.2797
 2254TIP3   OH228320   5.478   2.580   8.386  0.8409 -0.1044 -0.0373
 2254TIP3    H128321   5.494   2.571   8.479  0.0553  0.5965  0.1861
 2254TIP3    H228322   5.400   2.636   8.381 -0.5618 -2.0213 -1.0441
 2255TIP3   OH228323   5.252   3.272   8.142 -0.5450  0.3961 -0.3161
 2255TIP3    H128324   5.186   3.260   8.074  1.0134  1.5996 -2.1751
 2255TIP3    H228325   5.285   3.184   8.160 -1.2322  0.0205 -0.8767
 2256TIP3   OH228326   0.694   1.112   0.934 -0.0030  0.2234 -0.1715
 2256TIP3    H128327   0.695   1.036   0.992  3.0800 -0.1852 -0.5761
 2256TIP3    H228328   0.785   1.143   0.933 -0.5362  2.0481 -2.4370
 2257TIP3   OH228329   4.898   2.821   1.887  0.0597 -0.3891 -0.0210
 2257TIP3    H128330   4.851   2.740   1.904  0.9744 -0.7968  0.6539
 2257TIP3    H228331   4.940   2.843   1.971  1.9572 -0.6417 -0.8554
 2258TIP3   OH228332   6.559   2.314   2.340 -0.1349  0.2083 -0.6741
 2258TIP3    H128333   6.545   2.407   2.361 -1.4182 -0.4132  1.5788
 2258TIP3    H228334   6.517   2.267   2.413  1.7669 -2.1233 -0.9872
 2259TIP3   OH228335   1.390   5.551   1.121  0.2741  0.2461  0.2685
 2259TIP3    H128336   1.364   5.459   1.117  2.3679 -0.3548 -0.4942
 2259TIP3    H228337   1.454   5.562   1.051  0.1874  2.2661  0.4383
 2260TIP3   OH228338   1.721   1.563   7.279 -0.0230  0.2994 -0.0806
 2260TIP3    H128339   1.797   1.533   7.328 -0.8927 -1.1086  0.4665
 2260TIP3    H228340   1.650   1.506   7.308 -1.5090  2.1545  0.0966
 2261TIP3   OH228341   5.756   6.536   0.734 -0.3286 -0.4603  0.3810
 2261TIP3    H128342   5.847   6.508   0.729 -0.7469 -1.8546  0.0897
 2261TIP3    H228343   5.752   6.588   0.815  0.9470  0.5910 -0.1968
 2262TIP3   OH228344   5.674   1.687   8.616 -0.0901 -0.3416 -1.5323
 2262TIP3    H128345   5.642   1.777   8.625  0.2792 -0.4705  2.8225
 2262TIP3    H228346   5.595   1.633   8.619 -0.1449 -0.3145  2.3489
 2263TIP3   OH228347   4.869   3.283   7.931 -0.7555 -0.2476 -0.4023
 2263TIP3    H128348   4.945   3.281   7.873 -1.4283 -1.4386 -1.2910
 2263TIP3    H228349   4.901   3.322   8.012  1.2804 -2.3949 -0.0725
 2264TIP3   OH228350   1.833   5.713   0.886  0.0716 -0.3143  0.3544
 2264TIP3    H128351   1.868   5.629   0.857 -1.3694 -0.1436 -2.1473
 2264TIP3    H228352   1.905   5.752   0.936  1.5480 -2.1255 -0.2248
 2265TIP3   OH228353   6.128   6.559   2.661  0.5943  0.5523  0.0863
 2265TIP3    H128354   6.064   6.494   2.690 -1.0804  2.0919  0.0380
 2265TIP3    H228355   6.193   6.563   2.731 -0.5642  0.4943  1.1968
 2266TIP3   OH228356   3.998   1.976   1.925 -0.4493  0.2439  0.1417
 2266TIP3    H128357   4.069   1.966   1.863 -1.2911  0.4307 -0.8849
 2266TIP3    H228358   3.919   1.977   1.871 -1.3871 -1.7131  1.3664
 2267TIP3   OH228359   3.253   6.052   0.178 -0.1064  0.1600  0.1434
 2267TIP3    H128360   3.337   6.012   0.155 -0.2271  0.4972 -0.9108
 2267TIP3    H228361   3.243   6.126   0.118 -0.1198  1.5198  1.7229
 2268TIP3   OH228362   5.312   3.157   0.717  0.2587  0.1888 -0.0089
 2268TIP3    H128363   5.301   3.247   0.688 -0.6629 -0.0467 -0.4510
 2268TIP3    H228364   5.260   3.150   0.797 -0.2058 -0.1029 -0.3272
 2269TIP3   OH228365   4.349   4.390   7.664 -0.0175  0.0192  0.1274
 2269TIP3    H128366   4.351   4.430   7.751  0.6442 -2.3681  1.3048
 2269TIP3    H228367   4.258   4.361   7.653  0.1624 -0.7452  0.5797
 2270TIP3   OH228368   2.138   1.802   1.537 -0.0714 -0.1270 -0.5171
 2270TIP3    H128369   2.153   1.893   1.561  0.2885 -0.0001 -1.2246
 2270TIP3    H228370   2.119   1.804   1.443  0.8052 -0.8747 -0.7190
 2271TIP3   OH228371   0.650   0.062   0.213 -0.3280 -0.1525 -0.2066
 2271TIP3    H128372   0.652   0.156   0.230 -0.9060  0.1015 -1.4586
 2271TIP3    H228373   0.678   0.022   0.295 -0.3802  1.1000  0.4364
 2272TIP3   OH228374   5.416   5.479   0.068 -0.2335 -0.2691  0.5941
 2272TIP3    H128375   5.484   5.412   0.077  0.5031  0.1246 -1.3513
 2272TIP3    H228376   5.334   5.434   0.091  0.3091 -1.7260 -0.1807
 2273TIP3   OH228377   6.273   3.536   2.090  0.4355  0.0499  0.1106
 2273TIP3    H128378   6.250   3.616   2.139 -0.5183  0.4945 -1.0026
 2273TIP3    H228379   6.241   3.553   2.002  0.2080 -1.5887 -0.1418
 2274TIP3   OH228380   1.394   4.754   6.976  0.0427 -0.1336  0.9732
 2274TIP3    H128381   1.446   4.772   7.054  0.6508  1.7565  0.1947
 2274TIP3    H228382   1.425   4.817   6.911 -1.9475 -0.1631 -0.1050
 2275TIP3   OH228383   1.270   2.659   2.228  0.6081 -0.0605 -0.1253
 2275TIP3    H128384   1.320   2.593   2.276  1.0555 -0.0482 -0.5671
 2275TIP3    H228385   1.306   2.743   2.259  0.2426 -0.0247  0.2164
 2276TIP3   OH228386   0.887   1.304   8.431  0.2222  0.1088 -0.1215
 2276TIP3    H128387   0.852   1.346   8.509  1.7164 -0.7264  1.0471
 2276TIP3    H228388   0.828   1.230   8.415  1.4804 -1.4503  1.9860
 2277TIP3   OH228389   6.012   5.737   7.971 -0.8741 -0.0922 -0.4514
 2277TIP3    H128390   5.952   5.686   7.916 -0.0603 -0.2150 -1.2381
 2277TIP3    H228391   6.089   5.751   7.917  0.4739 -1.2822  1.0762
 2278TIP3   OH228392   2.138   2.955   7.975  0.3413  0.1215  0.4131
 2278TIP3    H128393   2.157   2.892   7.906  3.3342  0.7442  0.5325
 2278TIP3    H228394   2.052   2.991   7.952  0.1487 -1.4379 -1.5821
 2279TIP3   OH228395   3.605   1.669   8.151  0.0275  0.0001 -0.4341
 2279TIP3    H128396   3.686   1.717   8.134  0.7089 -0.9404 -0.0079
 2279TIP3    H228397   3.634   1.578   8.166 -1.3410 -0.9084 -2.8216
 2280TIP3   OH228398   0.086   1.781   8.129  0.3160  0.2036 -0.7546
 2280TIP3    H128399   0.158   1.775   8.192 -0.0339  0.2433 -0.3490
 2280TIP3    H228400   0.129   1.789   8.044  0.7926  0.3129 -0.5056
 2281TIP3   OH228401   1.733   4.699   1.229  0.0966 -0.0512  0.0997
 2281TIP3    H128402   1.810   4.689   1.285  0.8412  0.4978 -0.7911
 2281TIP3    H228403   1.686   4.773   1.267  0.9358  0.7403 -0.3338
 2282TIP3   OH228404   1.921   3.228   8.571  0.2192 -0.1236  0.0371
 2282TIP3    H128405   1.829   3.250   8.584  0.0796 -0.3788 -0.5228
 2282TIP3    H228406   1.952   3.289   8.504  0.7512  0.6876  0.9763
 2283TIP3   OH228407   5.343   6.056   2.387  0.2456  0.3563  0.0953
 2283TIP3    H128408   5.405   6.085   2.453  1.5187  0.8437 -1.2538
 2283TIP3    H228409   5.273   6.014   2.436  0.9965  0.9717  1.7522
 2284TIP3   OH228410   1.137   4.868   8.612  0.0716  0.0107 -0.0752
 2284TIP3    H128411   1.191   4.791   8.635 -1.5325 -0.6050  1.9132
 2284TIP3    H228412   1.143   4.873   8.517 -1.3915 -3.9109 -0.5595
 2285TIP3   OH228413   4.152   0.109   8.298  0.7848  0.0231  0.6467
 2285TIP3    H128414   4.241   0.094   8.267  1.1422 -1.6481  2.2988
 2285TIP3    H228415   4.143   0.204   8.300  2.8335  0.2533  1.1881
 2286TIP3   OH228416   5.430   3.175   2.031 -0.2450  0.3139 -0.2579
 2286TIP3    H128417   5.498   3.242   2.029 -0.1334  0.3393  1.8729
 2286TIP3    H228418   5.350   3.221   2.003 -0.5537  1.9396  2.8156
 2287TIP3   OH228419   6.668   2.167   2.938 -0.0706 -0.3983 -0.6685
 2287TIP3    H128420   6.762   2.161   2.926  0.4105  1.0904  1.6440
 2287TIP3    H228421   6.649   2.104   3.008 -1.2321 -2.3398 -2.6151
 2288TIP3   OH228422   1.113   0.851   0.016  0.2931 -0.5690 -0.1920
 2288TIP3    H128423   1.124   0.940   0.051  0.3387 -1.7218  3.0232
 2288TIP3    H228424   1.024   0.827   0.039  0.2177 -1.2969 -1.2058
 2289TIP3   OH228425   2.286   4.481   2.224 -0.4604 -0.5309 -0.5731
 2289TIP3    H128426   2.281   4.397   2.179 -1.1995 -0.9726  0.3094
 2289TIP3    H228427   2.368   4.478   2.272 -0.3005 -0.5856 -0.8475
 2290TIP3   OH228428   3.811   4.741   8.703 -0.4021  0.5255 -0.0370
 2290TIP3    H128429   3.845   4.826   8.731  1.8370 -0.4253  0.3502
 2290TIP3    H228430   3.849   4.728   8.616 -1.3850  0.2638 -0.4370
 2291TIP3   OH228431   2.192   1.684   0.974  0.5059 -0.1224  0.2131
 2291TIP3    H128432   2.151   1.601   1.000 -0.7734  0.2544 -0.5472
 2291TIP3    H228433   2.286   1.665   0.975  0.3783 -0.9366  2.2532
 2292TIP3   OH228434   4.864   3.706   0.862 -0.2270  0.0051 -0.3407
 2292TIP3    H128435   4.849   3.623   0.817 -1.4075  1.4127 -2.7473
 2292TIP3    H228436   4.786   3.719   0.916 -0.7098  0.1580 -1.0529
 2293TIP3   OH228437   3.506   0.292   0.168 -0.0037  0.3373 -0.4887
 2293TIP3    H128438   3.511   0.214   0.224  1.7222  1.5429  1.1496
 2293TIP3    H228439   3.593   0.297   0.128 -0.5232  0.7246 -1.5879
 2294TIP3   OH228440   0.981   5.213   2.577 -0.1945  0.0466 -0.5528
 2294TIP3    H128441   0.956   5.305   2.570 -1.5273 -0.3429 -1.2846
 2294TIP3    H228442   1.023   5.193   2.493  0.7230  0.1487 -0.1311
 2295TIP3   OH228443   2.560   5.779   1.458 -0.6944  0.1529  0.2363
 2295TIP3    H128444   2.586   5.748   1.545  2.2122  0.5333 -0.4002
 2295TIP3    H228445   2.536   5.870   1.471  0.6194  0.4724  0.5312
 2296TIP3   OH228446   0.266   3.823   8.167 -0.1092  0.5116  0.1045
 2296TIP3    H128447   0.289   3.852   8.079  3.3977 -1.6067  0.1104
 2296TIP3    H228448   0.305   3.736   8.175 -0.8028  0.3523  3.5276
 2297TIP3   OH228449   0.704   0.369   2.275  0.2337 -0.2775 -1.0658
 2297TIP3    H128450   0.755   0.314   2.216  2.4924 -1.2001  1.5383
 2297TIP3    H228451   0.648   0.308   2.323  0.7274  0.0347 -0.0746
 2298TIP3   OH228452   0.864   6.000   2.696  0.0245  0.2844  0.0661
 2298TIP3    H128453   0.775   5.964   2.700  0.7811 -1.9141 -1.0567
 2298TIP3    H228454   0.890   6.010   2.787 -0.9216 -0.2821  0.4135
 2299TIP3   OH228455   0.849   2.540   8.618 -0.4418  0.1921 -0.1246
 2299TIP3    H128456   0.937   2.520   8.585 -0.1023  1.6586 -0.1667
 2299TIP3    H228457   0.815   2.455   8.647  1.3326 -0.2734  0.7644
 2300TIP3   OH228458   2.843   0.681   1.791 -0.4779 -0.0803  0.1009
 2300TIP3    H128459   2.893   0.644   1.718  0.3604  0.1865  0.5215
 2300TIP3    H228460   2.829   0.607   1.850 -1.0662 -0.2743 -0.2790
 2301TIP3   OH228461   4.588   6.827   0.942  0.5002 -0.4455  0.1173
 2301TIP3    H128462   4.648   6.897   0.966  0.4537  0.0660 -1.1571
 2301TIP3    H228463   4.572   6.840   0.848 -0.1048 -1.7119  0.0190
 2302TIP3   OH228464   4.536   3.933   8.449  0.2350 -0.2140  0.0386
 2302TIP3    H128465   4.561   3.921   8.541  0.1069  0.6836  0.1939
 2302TIP3    H228466   4.574   3.857   8.405  3.0851  0.9205  0.2892
 2303TIP3   OH228467   5.243   5.501   1.037 -0.0663  0.4099 -0.1496
 2303TIP3    H128468   5.175   5.524   0.974 -0.7432 -0.0698  0.3860
 2303TIP3    H228469   5.230   5.561   1.110  0.6609  0.9077 -0.4237
 2304TIP3   OH228470   1.337   5.282   1.085 -0.5555  0.2899  0.3484
 2304TIP3    H128471   1.269   5.215   1.088  0.3630 -0.7621 -0.9517
 2304TIP3    H228472   1.409   5.245   1.136 -1.5652  2.2356  3.4373
 2305TIP3   OH228473   4.592   4.317   7.476  0.3966 -0.0527 -0.5402
 2305TIP3    H128474   4.678   4.281   7.494  0.9154  0.0709 -2.4946
 2305TIP3    H228475   4.580   4.303   7.382 -1.1397  1.1482 -0.5651
 2306TIP3   OH228476   5.474   2.489   2.368 -0.2490 -0.0349  1.2565
 2306TIP3    H128477   5.414   2.559   2.342 -1.2633 -1.2743  0.0929
 2306TIP3    H228478   5.434   2.450   2.446  0.9531  1.3997  2.6676
 2307TIP3   OH228479   5.081   4.424   8.331  0.4208 -0.4328 -0.3979
 2307TIP3    H128480   5.023   4.477   8.275 -1.7331 -0.8997  1.2314
 2307TIP3    H228481   5.060   4.334   8.309  0.8618 -0.6101 -0.1077
 2308TIP3   OH228482   4.044   1.597   7.817 -0.3769  0.2873  0.2015
 2308TIP3    H128483   4.133   1.572   7.842  0.6105  2.2249 -1.1210
 2308TIP3    H228484   4.033   1.685   7.853 -2.2440 -0.3903  1.3768
 2309TIP3   OH228485   6.148   3.813   1.629  0.2060  0.2773 -0.8341
 2309TIP3    H128486   6.076   3.876   1.624  0.4075  0.8089  1.6636
 2309TIP3    H228487   6.227   3.867   1.641  0.4503 -0.3707  0.7600
 2310TIP3   OH228488   3.117   4.155   2.202 -0.1065  0.5588 -0.2847
 2310TIP3    H128489   3.108   4.062   2.180 -0.3612  0.9028 -1.7600
 2310TIP3    H228490   3.074   4.164   2.287 -1.2595 -0.4362 -0.7375
 2311TIP3   OH228491   5.448   3.042   1.635 -0.0463 -0.2067 -0.4407
 2311TIP3    H128492   5.426   3.133   1.617 -0.7607 -0.0595  1.0050
 2311TIP3    H228493   5.451   3.036   1.730 -0.1649 -1.7294 -0.4958
 2312TIP3   OH228494   3.688   3.823   2.286 -0.4648 -0.2692  0.4598
 2312TIP3    H128495   3.660   3.765   2.215 -1.4792 -0.5675  1.0758
 2312TIP3    H228496   3.746   3.769   2.340 -1.1306 -0.6272  0.8378
 2313TIP3   OH228497   2.185   2.798   3.110  0.4294 -0.5363  0.2732
 2313TIP3    H128498   2.167   2.873   3.053 -0.6270 -0.9026  0.0966
 2313TIP3    H228499   2.203   2.726   3.049  1.8441 -0.3622  0.4417
 2314TIP3   OH228500   3.588   1.936   7.771 -0.3194 -0.0304  0.1448
 2314TIP3    H128501   3.647   1.879   7.820  1.1303  1.4232  0.2002
 2314TIP3    H228502   3.509   1.884   7.757  1.0941 -2.1947 -0.2399
 2315TIP3   OH228503   5.443   6.197   2.607  0.3113  0.3005  0.0438
 2315TIP3    H128504   5.485   6.282   2.595 -0.8150  0.6295 -1.9391
 2315TIP3    H228505   5.387   6.208   2.684  2.3567  0.4157  1.5901
 2316TIP3   OH228506   5.355   5.963   7.669  0.8654  0.0059  0.6486
 2316TIP3    H128507   5.262   5.969   7.647  1.3268  0.3852 -1.3607
 2316TIP3    H228508   5.367   5.872   7.696  0.3019 -0.6714 -1.2109
 2317TIP3   OH228509   5.076   6.140   0.137 -0.3174  0.4753 -0.0567
 2317TIP3    H128510   5.169   6.119   0.146 -0.4623 -1.0362 -1.5096
 2317TIP3    H228511   5.040   6.127   0.225  0.2532 -2.4251 -0.1486
 2318TIP3   OH228512   4.554   3.595   8.123 -0.3874  0.3694  0.0866
 2318TIP3    H128513   4.530   3.685   8.103  0.1931  0.2160 -1.4671
 2318TIP3    H228514   4.534   3.547   8.042 -0.4650 -0.8513  0.8072
 2319TIP3   OH228515   1.956   6.632   0.872 -0.0573 -0.1464  0.2299
 2319TIP3    H128516   2.006   6.643   0.952 -0.2120  1.3902  0.1396
 2319TIP3    H228517   1.890   6.565   0.893 -1.1483  1.3840  1.9192
 2320TIP3   OH228518   0.276   1.754   0.853  0.2192  0.0162 -0.0435
 2320TIP3    H128519   0.201   1.752   0.793  0.8503  1.2424 -0.9394
 2320TIP3    H228520   0.237   1.754   0.940 -0.9933  2.5905 -0.4757
 2321TIP3   OH228521   3.481   4.837   8.216 -0.0640 -0.2613  0.2057
 2321TIP3    H128522   3.421   4.839   8.141 -1.1693  0.9395  1.0832
 2321TIP3    H228523   3.524   4.751   8.210 -2.3012 -1.4354 -0.1493
 2322TIP3   OH228524   1.969   4.639   8.461  0.3314  0.2009  0.5565
 2322TIP3    H128525   1.973   4.671   8.551  4.0169 -0.3576  0.7190
 2322TIP3    H228526   1.942   4.548   8.468 -2.6603  0.9727  0.6863
 2323TIP3   OH228527   3.057   2.979   2.230  0.0687  0.3522  0.2764
 2323TIP3    H128528   3.139   2.961   2.185 -0.2033 -0.6089  0.1591
 2323TIP3    H228529   3.043   3.073   2.217  0.8121  0.3952 -0.2577
 2324TIP3   OH228530   5.056   2.926   8.578 -0.2688 -0.6704  0.3529
 2324TIP3    H128531   4.976   2.968   8.546  0.6242  0.3046 -0.6442
 2324TIP3    H228532   5.070   2.853   8.518 -0.2038 -0.6296  0.3193
 2325TIP3   OH228533   5.947   2.669   0.322  0.1056  0.5255 -0.7095
 2325TIP3    H128534   5.993   2.654   0.240  0.3284  0.9911 -0.6774
 2325TIP3    H228535   5.859   2.697   0.296  0.5835  2.0054 -0.8360
 2326TIP3   OH228536   5.601   0.061   0.826 -0.3335 -0.0977  0.0558
 2326TIP3    H128537   5.611   0.138   0.883  0.3344  0.3897 -0.7093
 2326TIP3    H228538   5.509   0.064   0.799 -0.7802 -0.5758  1.4262
 2327TIP3   OH228539   0.118   3.452   2.849  0.0459 -0.4216 -0.4024
 2327TIP3    H128540   0.098   3.366   2.886 -1.2595  0.0114 -0.0425
 2327TIP3    H228541   0.103   3.513   2.921 -0.8100  0.2674 -1.1443
 2328TIP3   OH228542   4.839   4.851   2.774 -0.0863 -0.0502 -0.0118
 2328TIP3    H128543   4.815   4.913   2.843  1.1342 -0.0627  0.4504
 2328TIP3    H228544   4.794   4.883   2.696 -1.6067 -0.1155  0.8035
 2329TIP3   OH228545   0.065   3.580   8.231 -1.0231  0.0118 -0.4687
 2329TIP3    H128546   0.061   3.655   8.290 -1.2305 -1.0036  0.8393
 2329TIP3    H228547   0.157   3.552   8.235 -0.8776  0.3678 -1.1909
 2330TIP3   OH228548   2.995   1.420   2.431  0.4548  0.3146 -0.1048
 2330TIP3    H128549   3.001   1.384   2.519 -1.3432 -1.3196 -0.5872
 2330TIP3    H228550   2.911   1.465   2.429  0.3554  0.1185 -1.0531
 2331TIP3   OH228551   3.480   5.619   1.139  0.2513  0.2238  0.2020
 2331TIP3    H128552   3.394   5.641   1.176  0.7858  0.7835  1.1276
 2331TIP3    H228553   3.477   5.654   1.050 -0.1230  1.1505  0.5617
 2332TIP3   OH228554   0.105   1.439   7.906  0.3492 -0.0969 -0.7827
 2332TIP3    H128555   0.196   1.416   7.926  0.0463 -2.1985 -1.6003
 2332TIP3    H228556   0.057   1.356   7.914 -1.3164  0.7611 -1.4206
 2333TIP3   OH228557   5.593   2.538   0.180  0.3276  0.8076 -0.3468
 2333TIP3    H128558   5.575   2.478   0.253 -2.1588  0.4049 -1.1995
 2333TIP3    H228559   5.598   2.625   0.221  1.1199  0.3737  0.5325
 2334TIP3   OH228560   4.087   3.592   3.075  0.1296  0.3344 -0.6258
 2334TIP3    H128561   4.154   3.607   3.142  0.8894 -0.7952 -1.1044
 2334TIP3    H228562   4.007   3.577   3.124  0.9028 -1.6745  0.1276
 2335TIP3   OH228563   3.197   3.639   2.023  0.5671  0.2773  1.0108
 2335TIP3    H128564   3.251   3.614   2.098 -0.7481  1.3187  2.3769
 2335TIP3    H228565   3.161   3.724   2.047  1.2734  1.3928 -1.4764
 2336TIP3   OH228566   4.013   2.130   7.356  0.4939 -0.3425 -0.2626
 2336TIP3    H128567   3.974   2.139   7.443 -0.2895 -1.2173 -0.5032
 2336TIP3    H228568   4.080   2.062   7.367  1.6154  0.7626  0.0226
 2337TIP3   OH228569   4.281   2.912   2.691  0.2557 -0.3279  0.3054
 2337TIP3    H128570   4.347   2.942   2.753  0.2718  0.3502 -0.0257
 2337TIP3    H228571   4.314   2.828   2.659  0.6320 -0.3035  0.6264
 2338TIP3   OH228572   3.817   4.651   1.296 -0.0767  0.6716  0.4109
 2338TIP3    H128573   3.731   4.694   1.302 -1.3556 -1.4346 -1.4658
 2338TIP3    H228574   3.839   4.629   1.386 -1.3470  1.5479  0.9615
 2339TIP3   OH228575   4.931   6.672   1.466  0.4470 -0.2196 -0.4150
 2339TIP3    H128576   4.962   6.750   1.513  0.2949 -0.3967 -0.0206
 2339TIP3    H228577   4.988   6.602   1.497  2.3876  0.1840 -2.7300
 2340TIP3   OH228578   6.008   4.017   1.041  0.4044  0.2868  0.3176
 2340TIP3    H128579   6.051   3.994   1.123 -1.5307  1.5140  1.7806
 2340TIP3    H228580   5.949   3.944   1.023  0.8607 -0.0024 -0.0123
 2341TIP3   OH228581   0.898   4.452   1.980 -0.0248 -0.3236 -0.1309
 2341TIP3    H128582   0.937   4.366   1.991 -0.4797 -0.6306 -0.8305
 2341TIP3    H228583   0.804   4.436   1.976 -0.1385  0.2476  0.1423
 2342TIP3   OH228584   1.308   3.898   1.310 -0.0201  0.3718  0.1593
 2342TIP3    H128585   1.356   3.844   1.248 -1.0417  0.9766 -1.2168
 2342TIP3    H228586   1.244   3.838   1.349  2.1379 -0.5875  2.4610
 2343TIP3   OH228587   1.806   0.186   3.077  0.5556 -0.3047  0.2393
 2343TIP3    H128588   1.745   0.238   3.025  1.4617 -0.3202 -0.8854
 2343TIP3    H228589   1.824   0.109   3.022 -0.0362 -1.3681  1.4706
 2344TIP3   OH228590   1.220   4.387   8.488  0.3808 -0.0938  0.4642
 2344TIP3    H128591   1.282   4.401   8.560  0.3430 -0.5892  0.5932
 2344TIP3    H228592   1.134   4.394   8.529  0.3203  1.6418  0.0976
 2345TIP3   OH228593   6.807   5.008   1.494  0.2327  0.1366 -0.1125
 2345TIP3    H128594   6.790   4.914   1.490  1.7282 -0.4998  3.8281
 2345TIP3    H228595   6.901   5.017   1.480 -0.2045  1.4400 -2.8559
 2346TIP3   OH228596   6.704   2.271   0.782  0.0723  0.0553  0.5160
 2346TIP3    H128597   6.700   2.365   0.799 -2.6928  0.6074 -2.1702
 2346TIP3    H228598   6.613   2.242   0.788  0.7079 -2.2380  0.1166
 2347TIP3   OH228599   4.126   3.600   1.259 -0.1177 -0.3010 -0.5526
 2347TIP3    H128600   4.070   3.526   1.237  1.8576 -1.8472 -0.7024
 2347TIP3    H228601   4.123   3.658   1.183 -2.8947  0.6299  0.1715
 2348TIP3   OH228602   0.825   4.646   2.430 -0.0734 -0.0387  0.2644
 2348TIP3    H128603   0.832   4.606   2.516  2.0713 -1.1728 -0.3744
 2348TIP3    H228604   0.824   4.740   2.448 -2.1203 -0.2346  1.6009
 2349TIP3   OH228605   0.447   2.709   7.739  0.4179  0.2651 -0.3599
 2349TIP3    H128606   0.471   2.617   7.724 -0.0199  0.3710 -1.8619
 2349TIP3    H228607   0.518   2.759   7.698  3.1535  0.7668  4.3189
 2350TIP3   OH228608   0.816   3.189   7.772  0.1540 -0.5703 -0.3211
 2350TIP3    H128609   0.775   3.135   7.839  1.5571 -0.8160  0.3582
 2350TIP3    H228610   0.789   3.279   7.793  2.5432 -0.3150  2.1280
 2351TIP3   OH228611   3.142   2.254   2.751 -0.4337 -0.5179 -0.1703
 2351TIP3    H128612   3.113   2.221   2.666 -2.4295 -3.8708  1.6200
 2351TIP3    H228613   3.072   2.314   2.778  0.5052  1.0457 -1.0600
 2352TIP3   OH228614   0.636   1.276   1.344 -0.2542  0.3660  0.5854
 2352TIP3    H128615   0.607   1.362   1.375 -1.6975 -0.0648  0.4864
 2352TIP3    H228616   0.634   1.220   1.421  0.3046  0.3118  0.5665
 2353TIP3   OH228617   5.808   0.986   2.321  0.3302 -0.0766 -0.5171
 2353TIP3    H128618   5.852   1.061   2.281  3.0532 -1.2341  0.1110
 2353TIP3    H228619   5.822   0.915   2.259  1.4487 -1.0192  0.7575
 2354TIP3   OH228620   0.487   0.415   6.996 -0.5239 -0.4071  0.4475
 2354TIP3    H128621   0.552   0.355   6.961  0.8824 -0.0100  2.1864
 2354TIP3    H228622   0.429   0.360   7.048  0.6973 -0.3814  1.9473
 2355TIP3   OH228623   6.649   3.809   0.761 -0.6074 -0.3306  0.5997
 2355TIP3    H128624   6.709   3.748   0.718 -0.5785  0.2832 -0.2594
 2355TIP3    H228625   6.608   3.857   0.689 -1.1709  0.1596  1.2314
 2356TIP3   OH228626   2.036   3.442   7.773  0.0667  0.0954 -0.1505
 2356TIP3    H128627   2.009   3.358   7.810 -2.9766  1.1539  0.3499
 2356TIP3    H228628   2.066   3.421   7.685  0.6615 -1.6350  0.4247
 2357TIP3   OH228629   0.008   4.643   0.129 -0.0943  0.0966 -0.1005
 2357TIP3    H128630  -0.041   4.571   0.089 -2.5442  1.8139 -0.4686
 2357TIP3    H228631   0.033   4.699   0.056  0.7378  0.2282  0.2740
 2358TIP3   OH228632   5.651   1.657   1.712 -0.4840 -0.5212 -0.4634
 2358TIP3    H128633   5.650   1.749   1.685  3.7348  0.0738  0.8274
 2358TIP3    H228634   5.604   1.655   1.795 -1.3327  0.2609 -0.9131
 2359TIP3   OH228635   2.216   6.820   1.566  0.6890  0.3811  0.3339
 2359TIP3    H128636   2.197   6.752   1.631  0.4086 -0.3055 -0.4532
 2359TIP3    H228637   2.217   6.901   1.616  0.0550 -0.0891  1.1251
 2360TIP3   OH228638   3.728   4.035   0.661 -0.3892 -0.0274  0.0533
 2360TIP3    H128639   3.686   4.018   0.745 -1.9695  0.8995 -0.5091
 2360TIP3    H228640   3.729   4.131   0.653  0.4605 -0.0747 -0.6375
 2361TIP3   OH228641   5.339   4.637   1.612  0.3240 -0.4700  0.0573
 2361TIP3    H128642   5.257   4.628   1.564 -1.2991  1.2792  2.2577
 2361TIP3    H228643   5.360   4.549   1.642 -1.5655 -0.7634  0.6173
 2362TIP3   OH228644   1.484   1.505   0.658 -0.4256  0.1818 -0.5153
 2362TIP3    H128645   1.451   1.428   0.704 -0.3778 -0.8539 -2.1438
 2362TIP3    H228646   1.550   1.542   0.718 -1.0563 -0.5352  0.6537
 2363TIP3   OH228647   3.306   4.625   1.301  0.0895 -0.1265 -0.3644
 2363TIP3    H128648   3.280   4.588   1.386  0.7785 -0.1461 -0.1531
 2363TIP3    H228649   3.251   4.702   1.290  0.3642  0.1831  0.3584
 2364TIP3   OH228650   3.861   4.422   7.924 -0.1757  0.6986 -0.2655
 2364TIP3    H128651   3.785   4.463   7.965 -0.2746  1.2478 -0.9733
 2364TIP3    H228652   3.909   4.495   7.885  1.5644  0.5491  1.5047
 2365TIP3   OH228653   6.204   2.013   2.323  0.1967 -0.5300 -0.2171
 2365TIP3    H128654   6.290   2.017   2.281 -0.2297  0.0243 -1.0592
 2365TIP3    H228655   6.153   2.083   2.282 -1.3508 -2.2032 -1.3528
 2366TIP3   OH228656   4.868   0.828   8.451 -0.2661 -0.3673  0.0815
 2366TIP3    H128657   4.911   0.793   8.373 -1.1771  0.3188 -0.7539
 2366TIP3    H228658   4.935   0.880   8.494 -0.2255  0.7357 -1.2335
 2367TIP3   OH228659   5.796   3.420   1.857 -0.0530  0.3261  0.3800
 2367TIP3    H128660   5.744   3.390   1.931 -0.3005 -0.4503 -0.1039
 2367TIP3    H228661   5.847   3.343   1.831  0.2872  0.6903 -0.0453
 2368TIP3   OH228662   6.138   2.014   1.567  0.2587  0.2078  0.5829
 2368TIP3    H128663   6.150   1.990   1.475  0.3422  1.3551  0.2707
 2368TIP3    H228664   6.121   1.932   1.612 -2.0350 -0.1630 -0.8148
 2369TIP3   OH228665   0.048   0.313   8.643 -0.2152  0.5233  0.6022
 2369TIP3    H128666   0.076   0.405   8.646 -1.7352  1.0118  3.2654
 2369TIP3    H228667  -0.046   0.317   8.627 -0.3008 -0.5621  0.7705
 2370TIP3   OH228668   2.281   2.448   8.023  0.2770 -0.3960  0.6398
 2370TIP3    H128669   2.343   2.412   7.960  0.4626  0.6156  0.2337
 2370TIP3    H228670   2.267   2.377   8.086  1.0642 -0.9740  0.1756
 2371TIP3   OH228671   2.341   5.992   2.371 -0.8255 -0.8938 -0.3995
 2371TIP3    H128672   2.400   6.063   2.396 -0.7884 -0.4361 -1.7045
 2371TIP3    H228673   2.384   5.912   2.403 -0.4747 -0.4014  0.3773
 2372TIP3   OH228674   5.219   4.570   2.344 -0.0769  0.0098  0.0270
 2372TIP3    H128675   5.243   4.507   2.276 -1.5588 -1.2908  0.6404
 2372TIP3    H228676   5.289   4.563   2.409  1.0474  0.8386 -1.0529
 2373TIP3   OH228677   2.117   2.308   0.253 -0.1150 -0.2632 -0.2095
 2373TIP3    H128678   2.100   2.271   0.340  0.2325 -0.2763 -0.1478
 2373TIP3    H228679   2.180   2.378   0.268  0.0182 -0.3285 -0.4643
 2374TIP3   OH228680   3.164   0.261   1.006 -0.0808 -0.4599 -0.6149
 2374TIP3    H128681   3.169   0.186   1.066  0.1109 -0.6472 -0.8606
 2374TIP3    H228682   3.182   0.337   1.061  1.8302 -0.7750 -0.7243
 2375TIP3   OH228683   3.702   3.901   0.418 -0.4054  0.1087  0.0838
 2375TIP3    H128684   3.698   3.806   0.429 -0.3924 -0.1734 -1.9762
 2375TIP3    H228685   3.708   3.935   0.507 -1.1088 -1.7785  0.9081
 2376TIP3   OH228686   3.204   4.161   7.703  0.8923 -0.2790  0.6252
 2376TIP3    H128687   3.116   4.146   7.670  0.2237 -0.7061  2.4742
 2376TIP3    H228688   3.244   4.219   7.639 -1.0783  0.7559  0.2457
 2377TIP3   OH228689   4.096   6.261   2.568  0.0798  0.3475  0.2704
 2377TIP3    H128690   4.072   6.247   2.660  0.4773  1.2860  0.5349
 2377TIP3    H228691   4.037   6.331   2.539 -0.2956 -0.2053 -0.2999
 2378TIP3   OH228692   3.456   3.554   1.204 -0.2967  0.1167 -0.2080
 2378TIP3    H128693   3.385   3.595   1.253  0.8893  1.2325  0.6571
 2378TIP3    H228694   3.536   3.588   1.245  0.7405 -0.5637 -1.5829
 2379TIP3   OH228695   5.764   1.777   1.100  0.0499 -0.4449 -0.3152
 2379TIP3    H128696   5.792   1.838   1.032  1.2102  2.5262  2.5569
 2379TIP3    H228697   5.845   1.751   1.144 -0.7587 -1.1881  0.7890
 2380TIP3   OH228698   5.302   5.835   2.748  0.2011 -0.1870 -0.1186
 2380TIP3    H128699   5.292   5.747   2.784 -1.1999  0.3035  0.7782
 2380TIP3    H228700   5.258   5.892   2.812 -1.2653  0.8640 -1.9552
 2381TIP3   OH228701   6.040   1.565   0.496  0.4192  0.2724  0.6343
 2381TIP3    H128702   6.053   1.494   0.434  0.6642 -1.2055  2.2895
 2381TIP3    H228703   6.013   1.639   0.443  0.4694 -0.9654 -1.1954
 2382TIP3   OH228704   1.338   1.026   0.655 -0.3559  0.4211  0.3851
 2382TIP3    H128705   1.344   0.931   0.644 -1.9906  0.4359 -1.1578
 2382TIP3    H228706   1.398   1.062   0.590 -2.4627  0.4022 -1.7222
 2383TIP3   OH228707   0.822   3.635   1.903 -0.1338  0.4158  0.4939
 2383TIP3    H128708   0.912   3.646   1.874 -0.0952  2.7316  1.2896
 2383TIP3    H228709   0.768   3.673   1.834 -0.5404 -0.7660  0.1183
 2384TIP3   OH228710   2.908   6.423   0.485 -0.5622  0.5548 -0.0032
 2384TIP3    H128711   3.001   6.431   0.461 -0.8113  1.2487 -0.7793
 2384TIP3    H228712   2.905   6.442   0.578  0.4432 -2.1638  0.6848
 2385TIP3   OH228713   6.299   0.766   8.191 -0.1326 -0.6729  0.2310
 2385TIP3    H128714   6.301   0.859   8.170  1.3120 -0.3054  1.7822
 2385TIP3    H228715   6.290   0.763   8.286  0.7027 -2.0866  0.2956
 2386TIP3   OH228716   4.082   6.294   0.939  0.1732  0.0370  0.5570
 2386TIP3    H128717   4.128   6.211   0.929 -0.3619 -0.4105  1.5722
 2386TIP3    H228718   4.033   6.305   0.858 -0.1948 -0.9364  0.6396
 2387TIP3   OH228719   0.783   5.263   7.960 -0.4390 -0.7718 -0.2013
 2387TIP3    H128720   0.824   5.347   7.979  2.1588 -2.2780  1.4503
 2387TIP3    H228721   0.843   5.219   7.900 -2.3092 -1.1003 -1.9460
 2388TIP3   OH228722   1.163   4.684   2.257  0.3430 -0.0021  0.2813
 2388TIP3    H128723   1.246   4.691   2.305  0.8402 -1.3727 -0.3045
 2388TIP3    H228724   1.100   4.655   2.323 -0.0412  2.4069  1.0473
 2389TIP3   OH228725   2.233   0.946   2.119  0.4816 -0.2598 -0.2320
 2389TIP3    H128726   2.176   0.888   2.069 -1.9690  0.7920  1.1848
 2389TIP3    H228727   2.277   0.889   2.182 -2.4776 -0.6527  1.6808
 2390TIP3   OH228728   1.961   5.985   8.674  0.2264  0.3612  0.1789
 2390TIP3    H128729   2.038   5.971   8.730  1.0166 -2.4157 -1.4207
 2390TIP3    H228730   1.889   5.943   8.720  0.2757  0.4511  0.3401
 2391TIP3   OH228731   0.465   3.137   1.226 -0.2356 -0.7406  0.0441
 2391TIP3    H128732   0.514   3.175   1.153 -0.7198  0.4216  0.2890
 2391TIP3    H228733   0.393   3.090   1.185  0.5075 -1.6107 -0.2799
 2392TIP3   OH228734   5.860   3.109   7.662 -0.7856 -0.4526  0.3847
 2392TIP3    H128735   5.853   3.051   7.586 -0.0947 -1.2649  0.9188
 2392TIP3    H228736   5.862   3.049   7.737 -2.0113  0.3458  1.0966
 2393TIP3   OH228737   5.241   2.936   1.218 -0.1538  0.0014  0.2310
 2393TIP3    H128738   5.237   2.856   1.166  1.0003  0.6073 -0.8464
 2393TIP3    H228739   5.251   2.906   1.308  0.4958 -1.0764 -0.1817
 2394TIP3   OH228740   0.752   2.606   0.423 -0.3855  0.5070 -0.4916
 2394TIP3    H128741   0.748   2.583   0.330 -1.0835  0.4885 -0.4641
 2394TIP3    H228742   0.711   2.532   0.467  2.3316 -0.7957  0.0960
 2395TIP3   OH228743   3.683   6.753   0.479  0.1893  0.1229 -0.2903
 2395TIP3    H128744   3.641   6.837   0.497  2.9251  1.5727 -0.1094
 2395TIP3    H228745   3.673   6.741   0.384  2.0859  2.1488 -0.8557
 2396TIP3   OH228746   0.600   0.175   0.489 -0.0994 -0.2978 -0.2853
 2396TIP3    H128747   0.681   0.132   0.463  0.2212 -0.1100  0.3832
 2396TIP3    H228748   0.536   0.103   0.492  0.0626 -0.4617 -0.7214
 2397TIP3   OH228749   0.545   5.137   7.930  0.0652  0.5083  0.5472
 2397TIP3    H128750   0.521   5.152   8.021 -0.5621  2.1115  0.1560
 2397TIP3    H228751   0.630   5.181   7.921 -0.1918  0.9423  0.2060
 2398TIP3   OH228752   2.134   0.413   8.227  0.1460 -0.8630 -0.6412
 2398TIP3    H128753   2.214   0.399   8.175 -0.0296  0.4862 -1.3270
 2398TIP3    H228754   2.074   0.345   8.197  1.1011 -2.0353  0.0451
 2399TIP3   OH228755   2.090   4.349   3.088  0.2029  0.2171 -0.0668
 2399TIP3    H128756   2.045   4.396   3.018 -2.3013  0.7136  1.7534
 2399TIP3    H228757   2.161   4.409   3.115 -0.8422  1.4859 -0.0318
 2400TIP3   OH228758   4.858   1.061   0.593 -0.2412 -0.2509 -0.1179
 2400TIP3    H128759   4.948   1.090   0.576  0.4898 -0.6824  2.5235
 2400TIP3    H228760   4.868   0.975   0.634 -1.7553  0.1190  1.1517
 2401TIP3   OH228761   1.917   0.109   1.304 -0.0216 -0.2499 -0.0584
 2401TIP3    H128762   1.933   0.163   1.226 -1.5997  1.0473  0.4473
 2401TIP3    H228763   1.825   0.084   1.297 -0.2010 -0.0881  1.3825
 2402TIP3   OH228764   3.032   5.554   8.596 -0.2500  0.0876 -0.1295
 2402TIP3    H128765   3.051   5.464   8.623  0.2785  0.6733  1.6145
 2402TIP3    H228766   2.939   5.554   8.575 -0.5239 -0.6198  0.9979
 2403TIP3   OH228767   3.107   1.475   8.143  0.2349 -0.7308  0.6808
 2403TIP3    H128768   3.078   1.535   8.211 -1.9726 -0.3934 -0.4395
 2403TIP3    H228769   3.054   1.498   8.067  0.9470 -2.6070 -0.4700
 2404TIP3   OH228770   2.607   2.066   1.932  0.2488  0.0818 -0.5112
 2404TIP3    H128771   2.595   2.159   1.954 -0.8445  0.0625 -0.9580
 2404TIP3    H228772   2.565   2.057   1.846 -1.5683 -1.2782  0.4754
 2405TIP3   OH228773   5.490   6.450   8.537  0.2508  0.0588 -0.1757
 2405TIP3    H128774   5.506   6.528   8.484 -1.6496 -0.0246 -0.9439
 2405TIP3    H228775   5.518   6.377   8.480 -0.2469  0.0607 -0.4289
 2406TIP3   OH228776   0.845   1.870   0.681  0.1474 -0.0134 -0.7040
 2406TIP3    H128777   0.932   1.881   0.643  0.4983  0.6139  0.2455
 2406TIP3    H228778   0.849   1.788   0.730  0.7220  0.8012  0.6612
 2407TIP3   OH228779   4.448   0.172   1.373  0.2831 -0.0108  0.2679
 2407TIP3    H128780   4.367   0.222   1.382  0.2103  0.2019 -1.1797
 2407TIP3    H228781   4.490   0.210   1.295  1.2546 -0.8116  0.3828
 2408TIP3   OH228782   4.107   3.191   2.462  0.5279  0.0338  0.3766
 2408TIP3    H128783   4.079   3.112   2.416  0.0787 -0.1907  1.0165
 2408TIP3    H228784   4.093   3.170   2.555 -0.3892  1.1768  0.5091
 2409TIP3   OH228785   4.543   0.936   2.307 -0.4179 -0.2804 -0.3143
 2409TIP3    H128786   4.588   0.912   2.226 -1.2255 -1.7560 -0.3615
 2409TIP3    H228787   4.545   1.031   2.309  1.0059 -0.2608 -1.2687
 2410TIP3   OH228788   4.568   6.354   2.485 -0.0495  1.1926  0.0555
 2410TIP3    H128789   4.621   6.319   2.557 -0.7161  1.3450  0.6403
 2410TIP3    H228790   4.507   6.284   2.463  0.2215  1.1098 -0.4378
 2411TIP3   OH228791   3.548   4.247   1.002  0.2802 -0.5582  0.1814
 2411TIP3    H128792   3.502   4.262   0.919  2.1191 -0.1649 -0.8285
 2411TIP3    H228793   3.573   4.335   1.032  1.9219 -0.8259 -0.2688
 2412TIP3   OH228794   6.040   0.224   2.979 -0.2395  0.2786  0.0056
 2412TIP3    H128795   6.085   0.142   2.960 -0.4498 -0.4379  2.2657
 2412TIP3    H228796   6.102   0.292   2.955  0.4532 -0.5709 -0.6734
 2413TIP3   OH228797   0.538   3.388   0.421  0.0037  0.6543  0.1437
 2413TIP3    H128798   0.575   3.302   0.440  0.2807  0.9919  1.2275
 2413TIP3    H228799   0.606   3.433   0.370  0.9363  1.0971  1.7122
 2414TIP3   OH228800   4.485   6.560   0.846  0.1850 -0.0741 -0.5494
 2414TIP3    H128801   4.538   6.639   0.857  0.4588 -0.2691 -0.4501
 2414TIP3    H228802   4.506   6.506   0.923 -2.5345  1.1735  1.2433
 2415TIP3   OH228803   2.190   0.668   1.662  0.1351 -0.5873 -0.5851
 2415TIP3    H128804   2.253   0.703   1.599  0.5587  2.1321  1.1961
 2415TIP3    H228805   2.243   0.650   1.740 -0.9670 -0.2709  0.2478
 2416TIP3   OH228806   3.741   3.410   0.741  0.2542  0.1518  0.5241
 2416TIP3    H128807   3.779   3.354   0.808 -0.2722  0.5224  1.1355
 2416TIP3    H228808   3.779   3.378   0.659  1.3202  0.0507  1.0466
 2417TIP3   OH228809   3.820   6.759   7.332  0.5752 -0.1393  0.1005
 2417TIP3    H128810   3.905   6.784   7.370  0.9424 -0.6722 -0.3501
 2417TIP3    H228811   3.843   6.720   7.248 -0.0533 -1.0267  0.3246
 2418TIP3   OH228812   3.884   6.402   0.449  0.3194 -0.0010 -0.4520
 2418TIP3    H128813   3.873   6.343   0.523  2.4488 -0.2398 -0.2800
 2418TIP3    H228814   3.874   6.346   0.372 -1.0524  0.0969 -0.3782
 2419TIP3   OH228815   5.279   3.618   8.075 -0.2077  0.0866 -0.6785
 2419TIP3    H128816   5.305   3.565   8.150 -1.2567 -1.3711 -1.3006
 2419TIP3    H228817   5.321   3.703   8.090  3.4185 -1.5043 -0.7283
 2420TIP3   OH228818   4.389   3.862   2.740  0.5287 -0.4156 -0.0641
 2420TIP3    H128819   4.380   3.888   2.832 -0.5533 -1.3048  0.1068
 2420TIP3    H228820   4.318   3.907   2.695 -1.2097 -2.6971  0.1949
 2421TIP3   OH228821   2.562   5.250   2.243 -0.2199  0.0580 -0.3547
 2421TIP3    H128822   2.492   5.315   2.236  0.2053  0.5402 -0.2304
 2421TIP3    H228823   2.591   5.236   2.153 -0.0788  0.3030 -0.3477
 2422TIP3   OH228824   5.547   5.813   2.320  0.3743 -0.6354 -0.3099
 2422TIP3    H128825   5.531   5.875   2.249 -1.7647 -0.4365  0.2867
 2422TIP3    H228826   5.589   5.738   2.278  1.0699  0.3292 -1.3958
 2423TIP3   OH228827   6.582   0.080   2.074 -0.5708  1.0238 -0.5388
 2423TIP3    H128828   6.654   0.019   2.059 -0.3838  0.9481  0.5798
 2423TIP3    H228829   6.535   0.083   1.991 -0.0670  0.0281 -0.8729
 2424TIP3   OH228830   3.478   0.198   2.013 -0.0118  0.6471  0.4878
 2424TIP3    H128831   3.565   0.238   2.015  0.5290 -0.4809  2.2661
 2424TIP3    H228832   3.429   0.243   2.082 -0.5015  0.5685  0.1956
 2425TIP3   OH228833   6.758   0.447   2.966  0.2583 -0.4493 -0.2670
 2425TIP3    H128834   6.673   0.423   3.002  1.0314 -0.2421  1.8626
 2425TIP3    H228835   6.817   0.377   2.994  2.1566  2.4830  4.3854
 2426TIP3   OH228836   0.303   4.072   1.414 -0.5868  0.1426  0.5040
 2426TIP3    H128837   0.227   4.031   1.373 -0.0680  0.5187 -0.8849
 2426TIP3    H228838   0.372   4.068   1.348  0.6842 -0.3702  1.7984
 2427TIP3   OH228839   5.841   2.085   8.370  0.6070 -0.2218  0.0400
 2427TIP3    H128840   5.876   2.168   8.402  1.5486 -0.2200 -0.9514
 2427TIP3    H228841   5.797   2.107   8.288 -2.5977 -0.0745  1.6544
 2428TIP3   OH228842   0.754   0.085   1.221 -0.4050 -0.1425  0.9355
 2428TIP3    H128843   0.789   0.171   1.242  2.4373 -0.7359 -0.8043
 2428TIP3    H228844   0.755   0.081   1.125 -1.2819 -1.7924  0.9613
 2429TIP3   OH228845   3.557   2.628   1.907  0.0018  0.5460  0.4791
 2429TIP3    H128846   3.475   2.599   1.948  0.7391  0.0394  1.6719
 2429TIP3    H228847   3.625   2.574   1.949  1.0273  1.4653  0.0593
 2430TIP3   OH228848   1.324   6.554   1.785  0.0776 -0.1519 -0.3947
 2430TIP3    H128849   1.273   6.576   1.863  0.8669  2.6288 -0.5426
 2430TIP3    H228850   1.407   6.521   1.819  0.0734  0.1689 -0.0711
 2431TIP3   OH228851   1.511   5.532   0.196  0.4214  0.1746  0.1068
 2431TIP3    H128852   1.484   5.489   0.115  1.7478  0.0729 -0.3043
 2431TIP3    H228853   1.451   5.497   0.263 -0.9297  0.5380 -0.8649
 2432TIP3   OH228854   5.977   4.222   2.617  0.4219  0.1243 -0.6500
 2432TIP3    H128855   5.910   4.204   2.683 -0.6601 -1.7774 -2.1670
 2432TIP3    H228856   5.968   4.316   2.599 -2.0351 -0.0920 -0.9365
 2433TIP3   OH228857   1.983   4.533   0.865  0.3711 -0.1537  0.5468
 2433TIP3    H128858   1.898   4.491   0.872  0.0837  0.5124  1.2741
 2433TIP3    H228859   2.022   4.497   0.786 -1.9387  1.9553 -1.7345
 2434TIP3   OH228860   2.497   5.236   0.793  0.2228  0.5126  0.3511
 2434TIP3    H128861   2.584   5.202   0.817  0.6780  0.8047 -0.8253
 2434TIP3    H228862   2.443   5.217   0.870  1.1832 -0.1846  0.8912
 2435TIP3   OH228863   2.291   5.808   7.723 -0.0101  0.3817 -0.1434
 2435TIP3    H128864   2.293   5.902   7.710 -0.0723  0.4109  0.0530
 2435TIP3    H228865   2.378   5.778   7.695 -0.4041  0.3323 -1.3639
 2436TIP3   OH228866   3.131   4.260   1.391  0.0760 -0.3740 -0.0107
 2436TIP3    H128867   3.141   4.268   1.296  0.5462 -1.0227 -0.0173
 2436TIP3    H228868   3.047   4.302   1.409  0.6583  1.0990 -0.5252
 2437TIP3   OH228869   5.596   0.840   0.699  0.5085 -0.2142  0.6723
 2437TIP3    H128870   5.565   0.930   0.708  2.1160  0.3324  1.1170
 2437TIP3    H228871   5.652   0.842   0.621  0.1484 -0.9684  0.3840
 2438TIP3   OH228872   6.752   1.582   0.497  0.1492 -0.4284  0.0719
 2438TIP3    H128873   6.680   1.644   0.507  0.7592  0.0438  1.8231
 2438TIP3    H228874   6.737   1.516   0.564  0.3191 -1.3881 -0.8087
 2439TIP3   OH228875   2.388   4.311   7.267  0.2519  0.2020  0.2809
 2439TIP3    H128876   2.349   4.375   7.207  0.4058 -0.0872 -0.1302
 2439TIP3    H228877   2.341   4.230   7.250  0.7098 -0.0330  0.1224
 2440TIP3   OH228878   0.507   1.720   0.367  0.6196  0.0059 -0.2441
 2440TIP3    H128879   0.580   1.680   0.415 -0.2708 -1.5109 -0.1116
 2440TIP3    H228880   0.462   1.773   0.433  2.3434  2.1231 -0.6299
 2441TIP3   OH228881   2.973   6.600   3.136  0.3880 -0.6894  0.5893
 2441TIP3    H128882   3.038   6.647   3.188  0.3534  2.4223 -1.8897
 2441TIP3    H228883   2.896   6.657   3.137 -0.4730 -1.7495 -0.8284
 2442TIP3   OH228884   4.741   4.491   7.999  0.1822 -0.7240 -0.2239
 2442TIP3    H128885   4.692   4.421   8.044 -0.8344  0.1219  0.0064
 2442TIP3    H228886   4.786   4.446   7.928  0.8056 -1.8879  0.8574
 2443TIP3   OH228887   0.169   5.606   7.520 -0.2885 -0.4168 -0.2486
 2443TIP3    H128888   0.248   5.551   7.521 -0.1459 -0.2357  1.7682
 2443TIP3    H228889   0.164   5.639   7.430  2.6481  0.5375 -0.1703
 2444TIP3   OH228890   3.122   4.107   2.790 -0.4809  0.1117  0.2574
 2444TIP3    H128891   3.130   4.200   2.770 -1.7562 -0.0888 -1.3933
 2444TIP3    H228892   3.031   4.096   2.816 -0.7730 -0.8905 -1.0499
 2445TIP3   OH228893   0.348   5.524   2.692  0.5046  0.3942 -0.5388
 2445TIP3    H128894   0.298   5.538   2.611  0.6352 -0.9882 -0.8812
 2445TIP3    H228895   0.326   5.600   2.746 -0.6433  0.6761 -1.3424
 2446TIP3   OH228896   6.181   2.096   7.380 -0.0136  0.0764  0.7500
 2446TIP3    H128897   6.163   2.002   7.382 -0.6567  0.1913  0.6464
 2446TIP3    H228898   6.277   2.103   7.382  0.0756 -0.6068 -0.5081
 2447TIP3   OH228899   4.521   0.881   1.165  0.0565  0.0364  0.0471
 2447TIP3    H128900   4.453   0.910   1.225  0.8651  0.1901  0.9115
 2447TIP3    H228901   4.601   0.925   1.195  0.5623 -0.1801 -0.9043
 2448TIP3   OH228902   0.768   1.046   8.443 -0.0297 -0.4644 -0.2687
 2448TIP3    H128903   0.778   1.045   8.347  1.0530 -0.0298 -0.1759
 2448TIP3    H228904   0.806   0.962   8.471  1.1057  0.0860 -0.1102
 2449TIP3   OH228905   3.989   0.344   1.052 -0.0175  0.3921 -0.8673
 2449TIP3    H128906   4.023   0.258   1.028 -0.2140  0.3589 -1.0281
 2449TIP3    H228907   3.990   0.394   0.970  0.9500  0.8301 -0.5930
 2450TIP3   OH228908   0.892   5.697   0.314  0.2416  0.1140  0.4752
 2450TIP3    H128909   0.833   5.764   0.280 -0.6822 -0.0795  1.6314
 2450TIP3    H228910   0.836   5.640   0.367  1.4870  0.0298  1.7595
 2451TIP3   OH228911   4.776   6.394   1.640  0.0164 -0.0640 -0.2458
 2451TIP3    H128912   4.746   6.424   1.726  1.2744  1.6188 -0.3347
 2451TIP3    H228913   4.715   6.436   1.579  0.2806  0.3076 -0.2564
 2452TIP3   OH228914   2.784   4.472   8.308 -0.3687 -0.0641 -0.4144
 2452TIP3    H128915   2.834   4.401   8.348 -0.1061  0.3890  0.0779
 2452TIP3    H228916   2.735   4.511   8.380  0.5882  1.1642 -0.3854
 2453TIP3   OH228917   5.540   3.346   8.592 -0.2113  0.1771  0.7777
 2453TIP3    H128918   5.446   3.351   8.607 -0.3982  0.2727 -0.3125
 2453TIP3    H228919   5.549   3.339   8.497  0.8215 -1.5572  0.9599
 2454TIP3   OH228920   3.921   3.899   1.093 -0.1645  0.0671 -0.1383
 2454TIP3    H128921   3.982   3.946   1.035  0.8267  0.1881  0.9654
 2454TIP3    H228922   3.967   3.894   1.177 -1.7199  0.2533  0.7686
 2455TIP3   OH228923   0.844   0.070   0.439  0.2253  0.3100 -0.1847
 2455TIP3    H128924   0.915   0.019   0.478  0.6941  0.3388 -0.9680
 2455TIP3    H228925   0.861   0.160   0.466  0.1999  0.2468  0.0418
 2456TIP3   OH228926   2.394   0.410   0.237  0.3122  0.3838 -0.0873
 2456TIP3    H128927   2.318   0.441   0.285 -0.7778  0.7167 -1.9138
 2456TIP3    H228928   2.397   0.316   0.255 -0.4486  0.3978  0.1534
 2457TIP3   OH228929   2.801   3.067   8.096 -0.2407 -0.0796  0.2037
 2457TIP3    H128930   2.846   3.062   8.012 -0.0030  0.1903  0.3152
 2457TIP3    H228931   2.714   3.101   8.074 -1.3868 -3.0806 -0.3808
 2458TIP3   OH228932   3.158   3.335   2.079  0.1488 -0.8274  0.0625
 2458TIP3    H128933   3.077   3.351   2.127  0.5117 -1.3137  0.8503
 2458TIP3    H228934   3.138   3.262   2.020 -0.0915 -0.6942 -0.0227
 2459TIP3   OH228935   1.557   0.075   8.473  0.4197 -1.1515 -0.2406
 2459TIP3    H128936   1.471   0.099   8.436  1.5306  0.7028 -1.8211
 2459TIP3    H228937   1.620   0.119   8.416  2.4299 -2.0630  1.1871
 2460TIP3   OH228938   1.793   6.380   1.610 -0.2711  0.1244  0.0393
 2460TIP3    H128939   1.869   6.395   1.666 -0.1752  1.1382 -0.3436
 2460TIP3    H228940   1.800   6.288   1.586 -0.1724 -0.2803  1.4707
 2461TIP3   OH228941   5.280   3.317   3.423  0.4664  0.7456  0.0313
 2461TIP3    H128942   5.267   3.409   3.445  0.1306  1.0462 -1.3168
 2461TIP3    H228943   5.318   3.318   3.335  1.7712 -0.3783  0.5396
 2462TIP3   OH228944   4.733   0.738   2.598  0.0828  0.0257 -0.2104
 2462TIP3    H128945   4.686   0.666   2.641  0.5928  0.8721  1.9046
 2462TIP3    H228946   4.813   0.748   2.651  1.1542  0.6230 -1.8845
 2463TIP3   OH228947   3.957   5.745   0.779 -0.9208 -0.0518 -0.2867
 2463TIP3    H128948   4.014   5.756   0.855 -1.9511 -0.3716  0.5424
 2463TIP3    H228949   3.979   5.658   0.745  0.8796  0.8185 -1.5198
 2464TIP3   OH228950   1.925   0.671   0.703  0.4297 -0.0595 -0.4968
 2464TIP3    H128951   1.962   0.602   0.648  0.4181  0.0464 -0.6383
 2464TIP3    H228952   1.845   0.632   0.740 -1.5550  0.9850 -3.3208
 2465TIP3   OH228953   6.340   6.437   1.193  0.1390  0.4799  0.2053
 2465TIP3    H128954   6.430   6.462   1.173  0.2331  0.7297  0.9157
 2465TIP3    H228955   6.345   6.392   1.277 -0.1369 -1.3058 -0.7013
 2466TIP3   OH228956   3.563   3.752   8.623  0.2274  0.0420 -0.2370
 2466TIP3    H128957   3.473   3.757   8.592 -0.2291 -2.8460  0.4008
 2466TIP3    H228958   3.556   3.733   8.716  1.4592 -0.9556 -0.3198
 2467TIP3   OH228959   2.466   3.415   7.647 -0.2519 -0.1054  0.4465
 2467TIP3    H128960   2.487   3.509   7.647  1.0531 -0.3616  1.2238
 2467TIP3    H228961   2.445   3.395   7.556  2.4465  0.3642 -0.3658
 2468TIP3   OH228962   0.345   0.991   8.414 -0.4839  0.2048 -0.3253
 2468TIP3    H128963   0.321   1.083   8.422 -1.7724 -0.0677 -0.8633
 2468TIP3    H228964   0.295   0.959   8.339 -0.4480 -1.0561  0.1575
 2469TIP3   OH228965   4.394   4.983   8.683 -0.3766  0.3560 -0.2314
 2469TIP3    H128966   4.332   4.964   8.612 -0.0325  1.4460 -0.8443
 2469TIP3    H228967   4.368   5.069   8.716 -0.7074 -0.2517  1.1765
 2470TIP3   OH228968   6.017   6.491   1.495 -0.3899 -0.5026 -0.4221
 2470TIP3    H128969   6.088   6.426   1.501 -0.3675 -0.5875 -1.4435
 2470TIP3    H228970   6.024   6.526   1.407  0.4083  1.8599  0.5214
 2471TIP3   OH228971   2.741   5.013   7.919 -0.1519  0.2078 -0.0821
 2471TIP3    H128972   2.786   5.058   7.990 -0.3355 -0.2502  0.3271
 2471TIP3    H228973   2.780   5.050   7.839  0.5525  0.2162  0.2588
 2472TIP3   OH228974   1.228   0.448   7.306 -0.4192 -0.8261 -0.1417
 2472TIP3    H128975   1.167   0.522   7.298  0.8471  0.3504  0.7786
 2472TIP3    H228976   1.171   0.372   7.314 -1.9527  0.4597  3.5364
 2473TIP3   OH228977   4.590   4.648   1.454 -0.2668  0.7976  0.1641
 2473TIP3    H128978   4.630   4.684   1.533 -0.1005  1.2810 -0.1366
 2473TIP3    H228979   4.503   4.689   1.450 -1.4373 -1.3298  1.6042
 2474TIP3   OH228980   4.179   5.824   1.950 -0.2519  0.0031 -0.1895
 2474TIP3    H128981   4.187   5.911   1.990 -0.2373 -0.5595  1.0846
 2474TIP3    H228982   4.155   5.842   1.859  0.2765  1.3488 -0.0890
 2475TIP3   OH228983   0.252   3.928   2.537  0.3617  0.2540  0.2107
 2475TIP3    H128984   0.331   3.875   2.536 -0.7778 -1.5990 -1.7577
 2475TIP3    H228985   0.265   3.992   2.467  1.4238  2.2352  2.0964
 2476TIP3   OH228986   2.103   0.528   0.538 -0.3917 -0.7027 -0.2065
 2476TIP3    H128987   2.190   0.503   0.569  0.4592  1.7316 -0.4009
 2476TIP3    H228988   2.097   0.491   0.450  0.3540 -1.0888 -0.0967
 2477TIP3   OH228989   0.527   1.615   7.532  0.1602 -0.3373  0.1690
 2477TIP3    H128990   0.620   1.627   7.549  0.3265 -0.9649 -0.2826
 2477TIP3    H228991   0.521   1.535   7.481 -0.8770 -1.8812  2.5486
 2478TIP3   OH228992   2.654   0.950   0.753 -0.0094 -0.4403 -0.6240
 2478TIP3    H128993   2.598   0.873   0.749  0.5459 -0.8006 -3.5908
 2478TIP3    H228994   2.743   0.915   0.760  0.3407 -0.2177 -3.0501
 2479TIP3   OH228995   3.309   1.267   2.058  0.3710 -0.5189  0.3084
 2479TIP3    H128996   3.277   1.335   2.118 -2.3763  0.0923 -1.6546
 2479TIP3    H228997   3.403   1.283   2.050  0.5947  0.2354  3.2663
 2480TIP3   OH228998   4.411   0.715   8.128  0.0765 -0.0422  0.5273
 2480TIP3    H128999   4.427   0.623   8.109 -1.7181 -0.4634  0.9440
 2480TIP3    H229000   4.477   0.738   8.193 -0.1426 -1.3347  1.2345
 2481TIP3   OH229001   5.640   6.321   7.973  0.1333  0.5262 -0.1659
 2481TIP3    H129002   5.691   6.343   7.895  1.6344 -1.2491  0.2673
 2481TIP3    H229003   5.584   6.249   7.946  1.4032 -0.8055  0.6062
 2482TIP3   OH229004   1.613   5.171   8.367 -0.0397 -0.2231 -0.0982
 2482TIP3    H129005   1.683   5.123   8.321 -0.3868 -0.4649 -0.3805
 2482TIP3    H229006   1.641   5.262   8.365  0.6582 -0.4116  0.4871
 2483TIP3   OH229007   0.280   3.635   7.842  0.2505  0.3375  0.0742
 2483TIP3    H129008   0.275   3.726   7.871 -0.0255  0.0035  1.1374
 2483TIP3    H229009   0.373   3.621   7.822  0.2171  0.9767 -0.5541
 2484TIP3   OH229010   5.117   2.833   2.440  0.2296 -0.3936  0.5368
 2484TIP3    H129011   5.170   2.777   2.496  1.2045 -0.2640 -0.2407
 2484TIP3    H229012   5.172   2.851   2.363 -1.2108 -0.9345 -0.6888
 2485TIP3   OH229013   3.670   5.585   2.372  0.2096 -0.1106  0.1943
 2485TIP3    H129014   3.641   5.652   2.310  0.1429  0.5429  0.9153
 2485TIP3    H229015   3.710   5.518   2.317 -0.3281  0.2003 -0.5987
 2486TIP3   OH229016   0.150   0.956   7.820  0.5508 -0.0419 -0.0405
 2486TIP3    H129017   0.114   1.039   7.851 -4.2703 -0.7478 -2.6885
 2486TIP3    H229018   0.156   0.902   7.898  0.6167  1.7570  1.2670
 2487TIP3   OH229019   0.153   0.146   2.487  0.1205  0.4776 -0.3096
 2487TIP3    H129020   0.213   0.100   2.428  0.4025 -0.6159  0.7697
 2487TIP3    H229021   0.180   0.118   2.575 -2.0548 -0.2173  0.2218
 2488TIP3   OH229022   1.436   0.584   2.989  0.4650  0.0263  0.9577
 2488TIP3    H129023   1.410   0.601   2.898  1.9319 -0.8364  0.3302
 2488TIP3    H229024   1.380   0.641   3.041 -0.5291  0.4251 -0.4769
 2489TIP3   OH229025   4.048   2.327   2.042  0.2193 -0.2825  0.0467
 2489TIP3    H129026   4.110   2.320   2.114 -0.1091  0.7926  0.4644
 2489TIP3    H229027   4.095   2.375   1.974  0.4804 -1.1675 -0.4040
 2490TIP3   OH229028   0.020   6.829   8.154 -0.1295  0.2010  0.0362
 2490TIP3    H129029   0.001   6.740   8.123  1.4042  0.0711 -0.6272
 2490TIP3    H229030  -0.037   6.840   8.231 -0.3521 -1.3510  0.1323
 2491TIP3   OH229031   5.895   0.429   2.116 -0.8370  0.0711 -0.2626
 2491TIP3    H129032   5.808   0.426   2.155 -1.5892  0.6941 -1.8109
 2491TIP3    H229033   5.940   0.352   2.151 -1.4254  0.5840  1.7960
 2492TIP3   OH229034   1.914   1.297   1.867 -0.0154 -0.2900  0.2576
 2492TIP3    H129035   1.822   1.324   1.876 -0.4988 -1.5111 -0.7134
 2492TIP3    H229036   1.927   1.236   1.940 -1.1307 -2.9544 -1.6209
 2493TIP3   OH229037   0.855   2.561   8.330 -0.0387 -0.1075 -0.0571
 2493TIP3    H129038   0.926   2.626   8.331  0.5501 -0.6067 -2.4496
 2493TIP3    H229039   0.898   2.478   8.346 -0.1288 -0.3548 -1.0301
 2494TIP3   OH229040   6.511   3.055   0.391  0.2238 -0.0722  0.3787
 2494TIP3    H129041   6.538   3.138   0.352  0.2738 -0.6033 -0.7801
 2494TIP3    H229042   6.419   3.068   0.413  0.4218  0.5196  0.8775
 2495TIP3   OH229043   3.262   1.401   2.635 -0.1826 -0.0567  0.0212
 2495TIP3    H129044   3.293   1.351   2.560 -2.5091  2.2903 -2.7356
 2495TIP3    H229045   3.182   1.357   2.663  0.6514 -0.8971  1.1863
 2496TIP3   OH229046   6.083   5.624   0.325 -0.2761 -0.9987 -0.1313
 2496TIP3    H129047   6.125   5.621   0.411 -1.8838 -0.8089  0.6984
 2496TIP3    H229048   6.074   5.717   0.305 -1.0967 -1.0136  0.1252
 2497TIP3   OH229049   5.499   5.452   8.190 -0.1421 -0.6039 -0.4434
 2497TIP3    H129050   5.510   5.510   8.115  1.3794 -0.3481 -0.0439
 2497TIP3    H229051   5.548   5.373   8.166  0.4901 -0.4569  0.3284
 2498TIP3   OH229052   0.187   3.722   1.000  0.1992 -0.3983 -0.6280
 2498TIP3    H129053   0.127   3.794   0.981  1.1043  1.3313  2.4371
 2498TIP3    H229054   0.274   3.761   0.991  0.8283 -1.9121 -1.5760
 2499TIP3   OH229055   2.778   4.723   0.404 -0.4305 -0.4233  0.1688
 2499TIP3    H129056   2.721   4.751   0.475 -0.2544 -0.9481  0.5254
 2499TIP3    H229057   2.746   4.771   0.327 -0.4514  0.3486  0.6501
 2500TIP3   OH229058   0.883   1.491   0.056 -0.0363  0.1366  0.0195
 2500TIP3    H129059   0.867   1.399   0.035 -1.0223  0.4977 -0.9190
 2500TIP3    H229060   0.883   1.535  -0.029  1.2376  0.8992  0.3947
 2501TIP3   OH229061   4.230   0.072   0.399 -0.0742  0.7547  0.0336
 2501TIP3    H129062   4.287   0.011   0.447 -0.0348 -0.2626 -1.2439
 2501TIP3    H229063   4.163   0.097   0.462  0.4759  0.1374  0.8823
 2502TIP3   OH229064   0.730   0.020   0.958 -0.5592  0.1576  0.7929
 2502TIP3    H129065   0.742  -0.038   0.883  1.1688 -2.1294  2.6532
 2502TIP3    H229066   0.637   0.042   0.957 -0.8866 -1.1048 -1.0965
 2503TIP3   OH229067   5.002   3.908   0.182  0.2416 -1.1018  0.4971
 2503TIP3    H129068   4.977   3.904   0.274 -0.4541  0.5554  0.4167
 2503TIP3    H229069   5.089   3.867   0.180 -0.1296 -2.0225  1.7088
 2504TIP3   OH229070   1.152   2.501   1.032  0.4713 -0.0183 -0.6431
 2504TIP3    H129071   1.143   2.578   0.976  1.9818 -0.4376 -1.4927
 2504TIP3    H229072   1.064   2.462   1.032 -0.3131  1.6347 -0.2413
 2505TIP3   OH229073   2.678   1.241   7.575 -0.1333 -0.3260  0.1680
 2505TIP3    H129074   2.687   1.329   7.611 -0.7098 -0.7141  1.2930
 2505TIP3    H229075   2.761   1.198   7.596 -0.3881 -0.4851  0.8564
 2506TIP3   OH229076   3.200   5.079   3.016  0.0823 -0.2191 -0.7171
 2506TIP3    H129077   3.132   5.013   3.030 -0.9808  1.1348  0.8098
 2506TIP3    H229078   3.163   5.138   2.951 -1.1059  1.6007  1.4923
 2507TIP3   OH229079   0.060   6.226   7.017  0.3261  0.2644  0.2954
 2507TIP3    H129080   0.145   6.268   7.008  1.1897 -1.7597 -2.2599
 2507TIP3    H229081   0.017   6.240   6.933 -0.9006 -0.7167  0.7181
 2508TIP3   OH229082   4.673   3.271   8.547  0.2119 -0.2600 -0.0736
 2508TIP3    H129083   4.742   3.265   8.480 -0.7145  0.7975 -1.1592
 2508TIP3    H229084   4.600   3.314   8.503 -0.5455  0.1914  1.5426
 2509TIP3   OH229085   2.994   5.769   8.399 -0.9895 -0.3585  0.0307
 2509TIP3    H129086   2.914   5.809   8.433 -1.3114  0.6550 -1.7850
 2509TIP3    H229087   3.026   5.715   8.471 -0.9711  2.5243  2.3788
 2510TIP3   OH229088   4.575   2.943   0.309 -0.4871 -0.3604  0.2519
 2510TIP3    H129089   4.497   2.892   0.285  0.9472 -2.8563  0.5415
 2510TIP3    H229090   4.648   2.895   0.270  0.9687  1.7685  0.1845
 2511TIP3   OH229091   0.309   5.554   7.142  0.1624  0.3582 -0.4179
 2511TIP3    H129092   0.262   5.602   7.211 -1.9761  1.0531 -2.2244
 2511TIP3    H229093   0.392   5.601   7.133  0.0612  0.8565  1.0031
 2512TIP3   OH229094   4.969   5.190   0.318  0.1124 -0.3246  0.5733
 2512TIP3    H129095   4.994   5.131   0.389 -0.1440 -2.4095 -0.9998
 2512TIP3    H229096   4.983   5.140   0.238 -0.5493  1.6073 -0.8368
 2513TIP3   OH229097   3.556   6.320   1.079  0.1582 -0.3104  0.1109
 2513TIP3    H129098   3.649   6.342   1.089  0.0910 -0.1936  0.5256
 2513TIP3    H229099   3.529   6.291   1.166 -0.1207 -0.6347 -0.0804
 2514TIP3   OH229100   3.478   3.919   1.288  0.1467 -0.0874  0.0843
 2514TIP3    H129101   3.403   3.933   1.231 -0.0534  1.6241  0.7278
 2514TIP3    H229102   3.545   3.979   1.255 -0.8482  2.9879  3.1326
 2515TIP3   OH229103   3.530   2.848   0.141 -0.1793 -0.2107  0.2709
 2515TIP3    H129104   3.500   2.921   0.088  0.9932  0.6860  0.7876
 2515TIP3    H229105   3.585   2.888   0.208  0.2734 -1.5449  0.7344
 2516TIP3   OH229106   5.236   1.410   0.943 -0.5507 -0.5165  0.4211
 2516TIP3    H129107   5.175   1.410   1.017  0.4956  2.8411  1.4540
 2516TIP3    H229108   5.215   1.490   0.895  1.0725 -0.8420 -0.9255
 2517TIP3   OH229109   0.750   2.959   0.105  0.2756  0.1340 -0.0345
 2517TIP3    H129110   0.843   2.960   0.129  0.6654  0.2445 -1.4758
 2517TIP3    H229111   0.739   2.878   0.056 -0.3093  0.2983 -0.1756
 2518TIP3   OH229112   6.293   5.318   1.358  0.5780 -0.2747  0.3823
 2518TIP3    H129113   6.382   5.351   1.372  0.5232  0.9243 -1.6902
 2518TIP3    H229114   6.298   5.269   1.276 -0.5272 -0.7807  0.5998
 2519TIP3   OH229115   5.107   5.737   2.210  0.2581 -0.6077 -0.4225
 2519TIP3    H129116   5.162   5.709   2.284  1.7728  0.3342 -1.1358
 2519TIP3    H229117   5.041   5.794   2.250 -0.5907 -2.1775  0.5285
 2520TIP3   OH229118   3.162   0.918   1.131 -0.2146  0.5045  0.1078
 2520TIP3    H129119   3.158   0.978   1.057  0.4865  0.2415 -0.1515
 2520TIP3    H229120   3.251   0.928   1.166 -0.5475  0.6607  0.9445
 2521TIP3   OH229121   2.070   1.412   1.020 -0.4300 -0.3795  0.1822
 2521TIP3    H129122   2.096   1.363   1.098 -0.5723 -1.1842 -0.2543
 2521TIP3    H229123   2.096   1.355   0.947  0.3119  0.6478 -0.3877
 2522TIP3   OH229124   3.423   0.978   1.280 -0.6535  0.0153  0.0492
 2522TIP3    H129125   3.411   0.913   1.349 -0.9312  0.4433  0.4133
 2522TIP3    H229126   3.394   1.060   1.320  1.8036  0.7945  0.3631
 2523TIP3   OH229127   2.521   0.695   0.748  0.1479  0.0604  0.0227
 2523TIP3    H129128   2.430   0.711   0.724  0.4404  0.8720 -0.5801
 2523TIP3    H229129   2.549   0.622   0.692  0.3721  0.9403 -1.0280
 2524TIP3   OH229130   4.094   6.670   8.333  0.3195  0.0632 -0.2288
 2524TIP3    H129131   4.165   6.629   8.284  0.1871  0.6126 -0.8927
 2524TIP3    H229132   4.115   6.764   8.332 -0.6085  0.2762 -0.7679
 2525TIP3   OH229133   4.261   5.100   1.959  0.3254 -0.3303 -0.3439
 2525TIP3    H129134   4.224   5.095   1.871 -2.4469  0.0989  0.6946
 2525TIP3    H229135   4.353   5.121   1.946  0.2007 -1.1767 -3.1403
 2526TIP3   OH229136   3.741   4.831   0.600  0.7150  0.1032  0.3107
 2526TIP3    H129137   3.770   4.851   0.512 -1.0717 -2.3272 -0.9502
 2526TIP3    H229138   3.651   4.864   0.604  1.0606  0.9558  1.5449
 2527TIP3   OH229139   1.949   4.575   8.132 -0.0456 -0.1886  0.3265
 2527TIP3    H129140   1.878   4.639   8.136 -0.4749 -0.6275 -0.1247
 2527TIP3    H229141   1.927   4.510   8.199 -0.7942 -1.0396 -0.7168
 2528TIP3   OH229142   0.789   3.385   1.300 -0.4385  0.6352  0.0753
 2528TIP3    H129143   0.877   3.351   1.313 -0.6652 -0.0357 -0.1274
 2528TIP3    H229144   0.736   3.344   1.369 -0.9289 -0.2523 -0.8106
 2529TIP3   OH229145   6.502   2.041   8.066 -0.5003  0.5628  0.3169
 2529TIP3    H129146   6.578   2.093   8.043  0.8056 -0.7881  1.4378
 2529TIP3    H229147   6.490   1.982   7.991  0.5155 -0.2370  0.7519
 2530TIP3   OH229148   4.311   1.533   7.856  0.4082  0.1141  0.0050
 2530TIP3    H129149   4.337   1.546   7.765 -0.1803 -0.9870 -0.3488
 2530TIP3    H229150   4.393   1.534   7.905  0.8531 -0.3979 -0.6993
 2531TIP3   OH229151   3.933   3.601   0.833  0.4486 -1.0199 -0.0685
 2531TIP3    H129152   3.994   3.594   0.759  0.6018 -2.4928  0.1654
 2531TIP3    H229153   3.862   3.540   0.812 -1.9360  1.8775 -1.1620
 2532TIP3   OH229154   1.843   4.844   2.130 -0.3366  0.1734 -0.2695
 2532TIP3    H129155   1.754   4.820   2.157  0.1196 -0.7495  0.4899
 2532TIP3    H229156   1.831   4.919   2.072 -1.6337 -0.1568 -0.4630
 2533TIP3   OH229157   2.500   1.074   1.916  0.3591  0.4482 -0.0281
 2533TIP3    H129158   2.410   1.101   1.898  0.1912 -0.9275 -1.5663
 2533TIP3    H229159   2.494   0.980   1.931  1.6773  0.0582 -1.6170
 2534TIP3   OH229160   0.407   2.772   2.179  0.0287 -0.0743  0.2888
 2534TIP3    H129161   0.412   2.699   2.117 -0.6401  0.3666 -0.2988
 2534TIP3    H229162   0.464   2.839   2.143  1.7056 -0.7681  1.5172
 2535TIP3   OH229163   3.712   2.184   2.697 -0.2309  0.2668 -0.3316
 2535TIP3    H129164   3.793   2.202   2.744 -0.2421 -1.5694  0.4555
 2535TIP3    H229165   3.712   2.247   2.625  1.2123  1.2059  0.4368
 2536TIP3   OH229166   0.958   2.670   2.325 -0.3396 -0.0476 -0.4626
 2536TIP3    H129167   1.047   2.636   2.318  0.3268  1.4655  0.3975
 2536TIP3    H229168   0.965   2.747   2.380 -2.2632 -0.1249 -0.0249
 2537TIP3   OH229169   1.219   0.366   1.223  0.1535  0.7751  0.1188
 2537TIP3    H129170   1.290   0.430   1.231 -0.0750  1.0585 -0.0877
 2537TIP3    H229171   1.198   0.342   1.314  1.2708 -0.1628  0.1453
 2538TIP3   OH229172   4.191   0.219   2.483  0.3873 -0.8607 -0.3420
 2538TIP3    H129173   4.231   0.170   2.555  2.1111  1.2288  0.2337
 2538TIP3    H229174   4.257   0.214   2.413  2.2290  3.0968  0.8003
 2539TIP3   OH229175   0.007   1.512   1.610 -0.8846  0.8456 -0.2837
 2539TIP3    H129176  -0.053   1.568   1.561  0.0504  2.2787  0.1519
 2539TIP3    H229177   0.003   1.546   1.699  0.5762  1.0008 -0.2525
 2540TIP3   OH229178   4.014   0.953   8.323 -0.3148  0.0833 -0.0679
 2540TIP3    H129179   4.099   0.991   8.342  1.1695 -3.8662  2.4777
 2540TIP3    H229180   4.029   0.894   8.249 -0.7474 -0.8088  0.5361
 2541TIP3   OH229181   5.843   0.714   2.562  0.6450  0.0533  0.6195
 2541TIP3    H129182   5.820   0.665   2.641 -1.6342 -1.0325 -0.6265
 2541TIP3    H229183   5.759   0.744   2.527  1.7529  2.2899 -0.3209
 2542TIP3   OH229184   3.199   6.384   7.712  0.1993  1.0055  0.4218
 2542TIP3    H129185   3.290   6.410   7.698  1.0282 -1.4240  0.7530
 2542TIP3    H229186   3.169   6.356   7.625  0.0856  0.9031  0.4938
 2543TIP3   OH229187   5.307   1.566   0.167 -0.3622 -0.6657  0.3913
 2543TIP3    H129188   5.242   1.619   0.121  1.7752  0.5513 -1.3876
 2543TIP3    H229189   5.315   1.486   0.115  0.7727 -0.0612 -0.3924
 2544TIP3   OH229190   6.699   5.877   8.368  0.0107 -0.0912  0.1033
 2544TIP3    H129191   6.684   5.959   8.320  0.0423 -0.0338  0.1903
 2544TIP3    H229192   6.732   5.816   8.303 -1.2029 -0.4184 -0.2275
 2545TIP3   OH229193   4.358   6.440   2.964 -0.3772 -0.2707 -0.2004
 2545TIP3    H129194   4.297   6.444   3.038  2.3105 -0.3882  2.2184
 2545TIP3    H229195   4.398   6.353   2.971  1.4375  0.5006 -0.4384
 2546TIP3   OH229196   3.888   2.115   8.042  0.7097 -0.7394  0.4192
 2546TIP3    H129197   3.924   2.174   8.108 -0.1234  1.5653 -1.0379
 2546TIP3    H229198   3.936   2.137   7.962 -0.5345 -1.0783 -0.4512
 2547TIP3   OH229199   2.280   6.368   2.277  0.6728  0.0643  0.4384
 2547TIP3    H129200   2.210   6.402   2.221 -0.5378 -0.7523  1.3961
 2547TIP3    H229201   2.339   6.324   2.216  0.8350  1.4630 -0.4924
 2548TIP3   OH229202   3.029   3.559   1.028 -0.1811 -0.0678  0.4812
 2548TIP3    H129203   3.028   3.594   1.117 -0.8209 -1.0293  0.8616
 2548TIP3    H229204   2.964   3.612   0.981 -0.5518 -0.1887  0.8459
 2549TIP3   OH229205   2.469   2.583   1.785 -0.0331  0.1553 -0.1168
 2549TIP3    H129206   2.491   2.644   1.855 -2.1592  0.8074  0.0336
 2549TIP3    H229207   2.480   2.633   1.704  1.3255 -0.2653 -0.2230
 2550TIP3   OH229208   4.351   6.334   8.491 -0.6765 -0.0618 -0.0280
 2550TIP3    H129209   4.392   6.364   8.573  1.0235 -0.2673 -0.7685
 2550TIP3    H229210   4.381   6.396   8.425 -0.6007 -0.9107 -0.8147
 2551TIP3   OH229211   2.911   3.215   2.261  0.1847  0.1737 -0.3803
 2551TIP3    H129212   2.889   3.303   2.293  1.9435  1.0973 -1.5461
 2551TIP3    H229213   2.955   3.173   2.335  0.6859  0.8511 -0.2770
 2552TIP3   OH229214   5.938   6.631   8.649 -0.1341  0.1584 -0.1884
 2552TIP3    H129215   5.982   6.708   8.614  0.9486  0.1564  1.0725
 2552TIP3    H229216   5.878   6.666   8.716 -0.4017 -0.0156 -0.3356
 2553TIP3   OH229217   4.129   6.219   1.854 -0.4527 -0.8206  0.0273
 2553TIP3    H129218   4.083   6.195   1.934 -2.1359  0.0300 -0.6380
 2553TIP3    H229219   4.221   6.199   1.873 -0.7843 -0.5867  2.1827
 2554TIP3   OH229220   5.289   5.294   1.410  0.0149  0.1602 -1.0125
 2554TIP3    H129221   5.345   5.251   1.475 -0.7047  0.0115 -0.4848
 2554TIP3    H229222   5.350   5.319   1.340  0.6884 -0.3085 -0.6129
 2555TIP3   OH229223   2.058   0.659   8.387 -0.0940  0.3006  1.1700
 2555TIP3    H129224   2.133   0.665   8.447  0.0885  3.4866  0.7586
 2555TIP3    H229225   2.088   0.600   8.318  1.8024  0.9262  1.3881
 2556TIP3   OH229226   6.448   1.883   1.297  0.0703  0.2571 -0.2781
 2556TIP3    H129227   6.420   1.969   1.329 -3.6477 -0.7322 -0.4267
 2556TIP3    H229228   6.486   1.901   1.211 -0.0424  1.7737 -0.0484
 2557TIP3   OH229229   6.627   6.467   1.406 -0.4263  0.3913  0.2177
 2557TIP3    H129230   6.613   6.375   1.385  1.8904  0.2153 -0.7907
 2557TIP3    H229231   6.687   6.467   1.479 -0.6102  1.1172  0.3823
 2558TIP3   OH229232   6.797   6.722   1.999  0.2346  0.4222 -0.3931
 2558TIP3    H129233   6.773   6.637   2.036  1.5716 -0.2243 -0.9485
 2558TIP3    H229234   6.864   6.756   2.059  0.5845  0.5177 -0.8332
 2559TIP3   OH229235   4.199   1.381   0.415  0.4908 -0.3432  0.3734
 2559TIP3    H129236   4.184   1.435   0.493  0.0728 -0.3066  0.2666
 2559TIP3    H229237   4.250   1.306   0.448 -0.5555 -0.8503  0.8808
 2560TIP3   OH229238   2.510   0.173   1.364  0.0012 -0.7461 -0.4946
 2560TIP3    H129239   2.461   0.254   1.348 -1.7486 -1.9086 -1.3314
 2560TIP3    H229240   2.578   0.173   1.298 -1.2124 -0.8741 -1.7809
 2561TIP3   OH229241   6.596   6.406   0.628  0.4222  0.4846  0.5264
 2561TIP3    H129242   6.596   6.332   0.567  1.2465  0.9439 -0.0473
 2561TIP3    H229243   6.522   6.460   0.598 -1.0339 -0.7240  1.7622
 2562TIP3   OH229244   4.779   6.184   8.434  0.4724 -0.2493 -0.1222
 2562TIP3    H129245   4.737   6.119   8.490  0.5937 -0.1156  0.1247
 2562TIP3    H229246   4.733   6.177   8.350 -1.4501  1.3109  0.7216
 2563TIP3   OH229247   2.411   6.346   8.009 -0.7863 -0.1978  0.0147
 2563TIP3    H129248   2.470   6.409   7.967  0.5911 -1.2565  0.2802
 2563TIP3    H229249   2.439   6.261   7.974 -1.3474 -0.8462  1.1041
 2564TIP3   OH229250   3.961   6.393   7.394  0.1985  0.2066 -0.2442
 2564TIP3    H129251   3.888   6.421   7.339  0.3545 -0.7185 -0.9496
 2564TIP3    H229252   4.022   6.467   7.393 -0.2786  0.6021 -0.4631
 2565TIP3   OH229253   0.845   2.494   1.952 -0.5096  0.4981 -0.4020
 2565TIP3    H129254   0.816   2.453   1.870 -3.8765 -0.3216  1.0379
 2565TIP3    H229255   0.874   2.420   2.006  1.2048  0.9837 -0.6015
 2566TIP3   OH229256   1.216   6.379   1.591 -0.5783  0.2862  0.0058
 2566TIP3    H129257   1.238   6.440   1.662 -0.1391 -2.1079  2.0720
 2566TIP3    H229258   1.278   6.307   1.601 -1.2962 -0.6967 -2.1032
 2567TIP3   OH229259   3.282   3.008   1.034  0.5016 -0.0474 -0.3056
 2567TIP3    H129260   3.258   3.098   1.055  1.9479  0.0331  1.2047
 2567TIP3    H229261   3.324   3.015   0.948  0.8492  0.7809 -0.0850
 2568TIP3   OH229262   4.296   6.152   7.691  0.6324 -0.2117  0.4668
 2568TIP3    H129263   4.391   6.148   7.691  0.6358 -1.8641 -1.6005
 2568TIP3    H229264   4.269   6.112   7.773  1.7074  0.0211  0.9384
 2569TIP3   OH229265   3.136   6.062   1.462  0.3321 -0.4817 -0.5675
 2569TIP3    H129266   3.143   6.151   1.499 -0.8221 -0.2218 -0.9225
 2569TIP3    H229267   3.149   6.074   1.368  1.1465 -0.8424 -0.5101
 2570TIP3   OH229268   2.685   4.554   7.838  0.0292  0.5187 -0.4651
 2570TIP3    H129269   2.697   4.459   7.838  0.6715  0.5770  0.8706
 2570TIP3    H229270   2.692   4.579   7.746 -1.9955 -0.9322 -1.0719
 2571TIP3   OH229271   1.753   6.198   0.774 -0.0716 -0.0579  0.5769
 2571TIP3    H129272   1.708   6.114   0.762 -1.1198  0.6719 -0.9863
 2571TIP3    H229273   1.820   6.180   0.840 -1.5088 -1.6236  1.6767
 2572TIP3   OH229274   5.594   2.908   1.448  0.4046 -0.3074 -0.2401
 2572TIP3    H129275   5.533   2.905   1.375 -0.2421 -0.2864  0.2851
 2572TIP3    H229276   5.565   2.982   1.502 -0.9671 -2.0364  1.5624
 2573TIP3   OH229277   6.785   6.717   7.728 -0.5890  0.2386 -0.6478
 2573TIP3    H129278   6.767   6.694   7.819 -0.2094  0.3304 -0.5489
 2573TIP3    H229279   6.710   6.681   7.680 -0.7721  0.1539 -0.3074
 2574TIP3   OH229280   0.685   6.331   1.663 -0.5971 -0.0998  0.5270
 2574TIP3    H129281   0.770   6.365   1.688 -1.0953  2.4061 -0.8457
 2574TIP3    H229282   0.678   6.247   1.709  1.7307  0.5534  2.2540
 2575TIP3   OH229283   1.439   6.576   8.661  0.0275  0.4163 -0.2122
 2575TIP3    H129284   1.487   6.526   8.727 -0.2891 -0.7982 -0.8669
 2575TIP3    H229285   1.355   6.531   8.652 -0.5798  1.5232 -0.2897
 2576TIP3   OH229286   3.330   4.223   1.590 -0.6213  0.0885  0.4517
 2576TIP3    H129287   3.337   4.128   1.604 -2.1157 -0.0127  0.6677
 2576TIP3    H229288   3.294   4.232   1.502  1.6710  0.5501 -0.5063
 2577TIP3   OH229289   2.803   5.520   8.430  0.2521  0.4433 -0.1025
 2577TIP3    H129290   2.720   5.523   8.477  0.1238  2.8515 -0.3657
 2577TIP3    H229291   2.788   5.570   8.349  1.6520 -0.0031 -0.6855
 2578TIP3   OH229292   6.471   1.500   1.907  0.3843 -0.3010 -0.3181
 2578TIP3    H129293   6.500   1.419   1.949  0.1748 -0.6343 -0.8089
 2578TIP3    H229294   6.440   1.473   1.820  1.0101  0.4068 -0.7745
 2579TIP3   OH229295   4.636   3.154   2.047  0.0043 -0.3225 -0.3730
 2579TIP3    H129296   4.602   3.243   2.053  1.3273  0.1470  1.1716
 2579TIP3    H229297   4.560   3.100   2.028 -0.8548  1.1071 -1.2022
 2580TIP3   OH229298   1.769   5.452   0.660  0.5834  0.3119  0.0993
 2580TIP3    H129299   1.676   5.473   0.650  0.8553  1.2278 -0.6805
 2580TIP3    H229300   1.770   5.358   0.678 -0.6540  0.7237  3.0171
 2581TIP3   OH229301   3.899   0.943   0.536 -0.4548  0.5553 -0.2734
 2581TIP3    H129302   3.850   0.993   0.471 -0.7856  0.9149  0.2403
 2581TIP3    H229303   3.833   0.893   0.583 -0.3941  1.3076  0.6522
 2582TIP3   OH229304   3.115   5.868   2.043 -0.4213  0.5924  0.2594
 2582TIP3    H129305   3.107   5.852   1.949 -0.3404  4.0133 -0.4339
 2582TIP3    H229306   3.126   5.780   2.081  1.3507 -0.7947 -3.0437
 2583TIP3   OH229307   2.596   4.366   1.220 -0.1262 -0.3457 -0.3595
 2583TIP3    H129308   2.569   4.395   1.307  0.5139  0.1350 -0.3117
 2583TIP3    H229309   2.691   4.381   1.218  0.5008 -3.5047  0.1077
 2584TIP3   OH229310   2.621   0.743   0.998  0.2289  0.2926  0.3332
 2584TIP3    H129311   2.715   0.758   0.983  0.1421 -0.5405 -1.2688
 2584TIP3    H229312   2.587   0.720   0.911 -1.3940  0.2522  0.9641
 2585TIP3   OH229313   5.743   3.159   2.256  0.3666  0.2308  0.5156
 2585TIP3    H129314   5.767   3.186   2.345 -0.7249 -0.7531  1.1433
 2585TIP3    H229315   5.754   3.064   2.256 -0.1319  0.1622 -0.2442
 2586TIP3   OH229316   4.971   6.336   7.471 -0.1259 -0.5997  0.0955
 2586TIP3    H129317   5.033   6.357   7.401  1.3228 -2.4215  0.7522
 2586TIP3    H229318   4.891   6.311   7.425  1.2451 -3.2119 -1.0714
 2587TIP3   OH229319   5.641   1.140   2.467 -0.0889 -0.5177 -0.6327
 2587TIP3    H129320   5.703   1.205   2.499 -0.2288 -0.7998  0.2163
 2587TIP3    H229321   5.690   1.093   2.399  0.2554 -0.0223 -0.7416
 2588TIP3   OH229322   1.844   4.855   2.567 -0.1536  0.3152 -0.0659
 2588TIP3    H129323   1.797   4.934   2.596  3.6512  1.5030  3.9416
 2588TIP3    H229324   1.828   4.792   2.637  1.1948 -0.5296 -0.4922
 2589TIP3   OH229325   6.219   1.030   8.127 -0.3149  0.1890 -0.4388
 2589TIP3    H129326   6.185   1.073   8.049 -1.5182  0.2750  0.1244
 2589TIP3    H229327   6.217   1.097   8.195  1.0219  0.2084 -0.3797
 2590TIP3   OH229328   0.564   0.786   6.962 -0.2362 -0.0403 -0.4855
 2590TIP3    H129329   0.478   0.743   6.958  0.2724 -1.2857  0.8978
 2590TIP3    H229330   0.617   0.728   7.017  0.8720  1.7448  0.4291
 2591TIP3   OH229331   5.452   1.928   0.064 -0.1735  0.1422 -0.0089
 2591TIP3    H129332   5.376   1.885   0.025  0.0797 -0.0648 -0.2767
 2591TIP3    H229333   5.509   1.948  -0.011  0.2949 -0.2108  0.2509
 2592TIP3   OH229334   4.366   5.246   0.038  0.0215  0.1767 -0.3204
 2592TIP3    H129335   4.389   5.338   0.049  1.5603 -0.1969 -0.2072
 2592TIP3    H229336   4.358   5.213   0.127 -2.2568  0.5522 -0.3141
 2593TIP3   OH229337   1.119   3.443   0.652 -0.3075 -0.1294 -0.0303
 2593TIP3    H129338   1.136   3.480   0.739 -0.3941  0.3283 -0.2045
 2593TIP3    H229339   1.085   3.355   0.670 -2.3619  0.7062  0.5058
 2594TIP3   OH229340   1.102   3.098   0.362 -0.2376  0.5208  0.2021
 2594TIP3    H129341   1.041   3.024   0.367  0.3649  0.0589  0.8813
 2594TIP3    H229342   1.053   3.166   0.316 -1.8650  0.7474  2.1284
 2595TIP3   OH229343   2.195   3.855   3.002  0.1066  0.2637  0.1694
 2595TIP3    H129344   2.101   3.843   2.988 -0.2188  1.0690  1.5732
 2595TIP3    H229345   2.203   3.935   3.053  1.4319 -0.6926  1.5587
 2596TIP3   OH229346   4.667   4.432   8.373 -0.1431 -0.0642 -0.5547
 2596TIP3    H129347   4.659   4.527   8.382 -1.4298 -0.1893 -0.3136
 2596TIP3    H229348   4.711   4.405   8.454  1.3225  0.4385 -1.1469
 2597TIP3   OH229349   2.679   2.011   0.342 -0.1389 -0.5640 -0.2915
 2597TIP3    H129350   2.708   1.932   0.296 -0.9297 -2.7956  2.7014
 2597TIP3    H229351   2.760   2.054   0.370  0.3445  0.6632 -3.2278
 2598TIP3   OH229352   3.593   5.395   0.344  0.1000  0.5616 -0.3912
 2598TIP3    H129353   3.645   5.374   0.266 -0.2396  0.4294 -0.5862
 2598TIP3    H229354   3.509   5.423   0.309 -0.2459 -0.0303 -0.0559
 2599TIP3   OH229355   6.148   5.391   1.684 -0.3395  0.3670 -0.3266
 2599TIP3    H129356   6.181   5.470   1.641 -2.5894  0.8687 -1.2504
 2599TIP3    H229357   6.149   5.324   1.616  0.5422 -0.1607  0.1730
 2600TIP3   OH229358   0.027   0.538   7.099  0.2286  0.0984  0.1157
 2600TIP3    H129359   0.084   0.474   7.057 -0.9611 -0.0888 -1.3040
 2600TIP3    H229360  -0.043   0.486   7.139  0.6796  0.3678  1.3230
 2601TIP3   OH229361   6.608   5.974   2.278  0.2941  0.4279  0.0657
 2601TIP3    H129362   6.669   6.043   2.306 -0.4958  0.4128  2.0038
 2601TIP3    H229363   6.611   5.977   2.182  2.2654  1.3555  0.1067
 2602TIP3   OH229364   2.309   4.085   1.740 -0.2910 -0.0923  0.1331
 2602TIP3    H129365   2.316   4.016   1.806 -0.5558  0.5214  0.8155
 2602TIP3    H229366   2.345   4.046   1.660 -0.9567 -1.2091  0.3591
 2603TIP3   OH229367   0.421   0.482   2.311  0.1524  0.1804 -0.0622
 2603TIP3    H129368   0.344   0.458   2.362 -0.4511 -0.3980 -1.2047
 2603TIP3    H229369   0.495   0.451   2.363 -0.4431 -0.2933  0.5093
 2604TIP3   OH229370   4.958   0.575   0.475  0.6006  0.1719 -0.1145
 2604TIP3    H129371   4.921   0.531   0.398  0.4719 -1.9458  1.0687
 2604TIP3    H229372   5.052   0.577   0.459  0.4611  0.9344 -0.8853
 2605TIP3   OH229373   4.835   2.309   8.388 -0.3282 -0.6675 -0.0291
 2605TIP3    H129374   4.928   2.296   8.403  0.5070  2.6112 -1.6264
 2605TIP3    H229375   4.803   2.348   8.469 -0.5260 -2.4495  0.7861
 2606TIP3   OH229376   3.195   4.268   8.353 -0.2107  0.0065  0.7903
 2606TIP3    H129377   3.287   4.292   8.341 -0.4255  2.6225  3.2159
 2606TIP3    H229378   3.153   4.286   8.269  1.4933 -1.7330 -0.5188
 2607TIP3   OH229379   5.689   5.425   2.010  0.2681 -0.0045 -0.0186
 2607TIP3    H129380   5.762   5.438   1.949 -0.4833  0.1117 -0.9290
 2607TIP3    H229381   5.718   5.466   2.091  2.5120 -2.6934  0.7001
 2608TIP3   OH229382   2.299   1.863   2.008  0.2657 -0.1476 -0.1247
 2608TIP3    H129383   2.249   1.932   2.051  0.1274  0.1151 -0.6960
 2608TIP3    H229384   2.269   1.782   2.050 -0.1151  0.0737  0.0335
 2609TIP3   OH229385   0.619   4.882   0.123 -0.0178 -0.3774  0.0537
 2609TIP3    H129386   0.616   4.786   0.123 -3.2676 -0.3754  1.2789
 2609TIP3    H229387   0.683   4.903   0.054  1.8231 -3.3696  0.6523
 2610TIP3   OH229388   0.667   2.660   7.484  0.5017  0.2485 -0.4556
 2610TIP3    H129389   0.705   2.629   7.566 -1.1576  4.1187  2.0453
 2610TIP3    H229390   0.739   2.655   7.421  1.9557 -2.4888  1.2117
 2611TIP3   OH229391   6.210   2.776   8.719  0.6233 -0.4819 -0.1387
 2611TIP3    H129392   6.180   2.867   8.728 -0.2568 -0.7533 -0.2359
 2611TIP3    H229393   6.242   2.753   8.806 -0.9005 -0.6735  0.3995
 2612TIP3   OH229394   4.368   6.711   2.871  0.0869 -0.4356  0.4366
 2612TIP3    H129395   4.451   6.756   2.887  0.3683 -0.7894 -0.0060
 2612TIP3    H229396   4.390   6.618   2.874 -0.2553 -0.5294  0.0973
 2613TIP3   OH229397   5.101   4.022   2.556  0.2455  0.1959 -0.4492
 2613TIP3    H129398   5.032   4.072   2.601 -0.5327 -0.3131 -1.0442
 2613TIP3    H229399   5.065   3.933   2.550  0.7083  0.0562 -1.2911
 2614TIP3   OH229400   6.486   0.960   1.953  0.6549  0.5165 -0.7109
 2614TIP3    H129401   6.478   1.033   1.890  0.3289 -0.9759 -2.4804
 2614TIP3    H229402   6.458   0.883   1.904  0.9381 -0.8208  1.1334
 2615TIP3   OH229403   4.745   4.336   3.009 -0.2881 -0.2382 -0.3731
 2615TIP3    H129404   4.690   4.335   2.931  0.1924  0.9272 -0.7497
 2615TIP3    H229405   4.729   4.251   3.051 -3.3347  0.5147  0.2348
 2616TIP3   OH229406   0.627   2.264   2.114 -0.2460 -0.1802 -0.3235
 2616TIP3    H129407   0.559   2.206   2.150  1.0218 -0.6761  1.4278
 2616TIP3    H229408   0.628   2.245   2.021 -1.1073 -1.6729 -0.0650
 2617TIP3   OH229409   2.651   1.456   2.093  0.1429  0.3573 -0.4316
 2617TIP3    H129410   2.646   1.551   2.100 -1.5619  0.2373  0.5771
 2617TIP3    H229411   2.584   1.434   2.027  1.0352 -0.1174 -1.2089
 2618TIP3   OH229412   2.904   2.910   8.600  0.5412  0.0244 -0.1417
 2618TIP3    H129413   2.824   2.945   8.560  0.4014  0.6542  0.6712
 2618TIP3    H229414   2.878   2.889   8.690  0.4810 -2.6433 -0.7074
 2619TIP3   OH229415   4.182   4.337   1.764 -0.0288 -0.3434  0.5559
 2619TIP3    H129416   4.136   4.253   1.770  0.2336 -0.6745 -1.4003
 2619TIP3    H229417   4.256   4.320   1.705 -0.4644  1.4586 -0.5854
 2620TIP3   OH229418   5.638   5.326   7.626 -0.1301  0.4967  0.3100
 2620TIP3    H129419   5.561   5.270   7.614  0.4325 -0.1923 -0.1526
 2620TIP3    H229420   5.627   5.397   7.563 -1.0697  1.1695  1.2018
 2621TIP3   OH229421   5.727   1.590   8.132 -0.6679 -0.1841 -0.2504
 2621TIP3    H129422   5.792   1.660   8.141 -2.0973  0.9014  3.4309
 2621TIP3    H229423   5.770   1.525   8.077  2.0373  2.0832 -1.0710
 2622TIP3   OH229424   5.085   4.162   1.715  0.3458  0.3268 -0.6630
 2622TIP3    H129425   5.113   4.095   1.777  0.4339  0.2629 -0.7708
 2622TIP3    H229426   4.993   4.177   1.735 -0.3291 -1.4610 -2.1197
 2623TIP3   OH229427   1.604   6.775   8.128 -0.3292  0.2809  0.4013
 2623TIP3    H129428   1.680   6.763   8.184  1.8694  0.9425 -2.2171
 2623TIP3    H229429   1.627   6.849   8.072 -1.4992 -1.4182 -2.5879
 2624TIP3   OH229430   4.677   1.233   1.005 -0.7475  0.4883 -0.2655
 2624TIP3    H129431   4.586   1.259   0.991 -1.3782 -1.5323 -0.2662
 2624TIP3    H229432   4.707   1.288   1.078 -2.8402 -0.5618  1.5150
 2625TIP3   OH229433   3.853   2.569   7.652 -0.0198 -0.0768 -0.2158
 2625TIP3    H129434   3.843   2.615   7.569 -1.0544 -1.8170 -1.0929
 2625TIP3    H229435   3.782   2.602   7.706  1.0801  1.5994  0.3016
 2626TIP3   OH229436   0.591   0.452   2.558  0.0267 -0.4906  0.3278
 2626TIP3    H129437   0.649   0.527   2.547 -0.2846  0.1185  2.4401
 2626TIP3    H229438   0.647   0.376   2.540  1.3211  0.1114  1.5949
 2627TIP3   OH229439   4.082   0.847   2.588  0.2928 -0.5497  0.3017
 2627TIP3    H129440   3.999   0.827   2.543 -0.5859 -0.2033  1.7108
 2627TIP3    H229441   4.146   0.855   2.517 -0.6480 -1.8828 -0.7554
 2628TIP3   OH229442   0.881   0.348   0.480  0.5957 -0.1899 -0.2254
 2628TIP3    H129443   0.883   0.380   0.390  1.4430  3.1387  0.8619
 2628TIP3    H229444   0.821   0.406   0.526 -0.2871 -2.1772  1.2945
 2629TIP3   OH229445   6.545   0.248   0.903 -0.5204 -0.0595 -0.1096
 2629TIP3    H129446   6.581   0.335   0.915 -1.6541  0.5289 -0.7703
 2629TIP3    H229447   6.568   0.225   0.812  1.5947 -1.3665  0.6775
 2630TIP3   OH229448   5.013   1.311   1.428  0.5157  0.1444 -0.4107
 2630TIP3    H129449   4.997   1.404   1.418  1.1849  0.2165 -0.8739
 2630TIP3    H229450   5.050   1.301   1.515  0.5418  0.3212 -0.4031
 2631TIP3   OH229451   0.130   4.551   8.441 -0.2383  0.2921  0.3692
 2631TIP3    H129452   0.060   4.541   8.377  0.9427  0.4139 -0.9675
 2631TIP3    H229453   0.173   4.465   8.443 -0.9216 -0.0572  1.8334
 2632TIP3   OH229454   0.296   3.529   2.499 -0.3757  0.3757  0.0194
 2632TIP3    H129455   0.252   3.604   2.459 -1.5917 -0.4426 -0.2292
 2632TIP3    H229456   0.334   3.565   2.580 -1.7521  1.0735  0.4014
 2633TIP3   OH229457   0.482   0.438   0.001  0.2521 -0.2578  0.1726
 2633TIP3    H129458   0.407   0.380   0.015 -1.1271  1.1743 -0.8596
 2633TIP3    H229459   0.490   0.487   0.083  0.6679 -1.0643  0.6204
 2634TIP3   OH229460   5.440   0.074   7.888 -0.1083 -0.3005  0.2855
 2634TIP3    H129461   5.425  -0.018   7.866  1.5558 -0.4035 -0.6685
 2634TIP3    H229462   5.429   0.120   7.804 -0.5022  0.3049  0.6677
 2635TIP3   OH229463   3.683   2.645   2.988  0.0094 -0.4734 -0.3888
 2635TIP3    H129464   3.748   2.597   2.935  0.9789 -1.1388  1.3142
 2635TIP3    H229465   3.714   2.635   3.078 -1.4177  0.8805  0.2943
 2636TIP3   OH229466   5.058   6.823   8.166 -0.6129 -0.1906  0.6659
 2636TIP3    H129467   5.145   6.793   8.191 -0.1365  0.5655 -0.0494
 2636TIP3    H229468   5.040   6.778   8.084  0.7388  2.4895 -1.2251
 2637TIP3   OH229469   2.988   3.688   8.255  0.1686 -0.0161  0.1287
 2637TIP3    H129470   2.933   3.616   8.284  0.8733 -0.8274 -0.5024
 2637TIP3    H229471   2.968   3.698   8.162 -0.3676  1.0183  0.3346
 2638TIP3   OH229472   6.184   1.605   2.920 -0.0101  0.3631 -0.1738
 2638TIP3    H129473   6.186   1.509   2.924 -0.2947  0.3740  0.4058
 2638TIP3    H229474   6.247   1.633   2.986  0.8604  0.5807 -1.0773
 2639TIP3   OH229475   3.314   4.541   1.911 -0.4165  0.8564  0.2419
 2639TIP3    H129476   3.321   4.518   2.004 -3.0239  1.1552  0.5925
 2639TIP3    H229477   3.291   4.634   1.912 -1.9014  0.5183 -0.6260
 2640TIP3   OH229478   6.343   2.142   1.104  0.0116 -0.2074 -0.0313
 2640TIP3    H129479   6.373   2.052   1.101  1.3622  0.2463 -0.7972
 2640TIP3    H229480   6.415   2.193   1.068 -1.7682  0.9305 -2.1883
 2641TIP3   OH229481   6.819   4.584   1.694 -0.5183  0.6242 -0.1613
 2641TIP3    H129482   6.765   4.526   1.749 -0.1133  1.5256  1.2270
 2641TIP3    H229483   6.779   4.670   1.703  0.4312  1.0727 -0.0772
 2642TIP3   OH229484   3.929   6.267   0.698  0.2644  0.0838  0.2192
 2642TIP3    H129485   3.853   6.239   0.750 -1.0884 -0.6804 -2.0296
 2642TIP3    H229486   3.964   6.185   0.662  0.6607  0.6533 -0.7154
 2643TIP3   OH229487   3.133   5.693   0.786  0.2099  0.2108  0.1007
 2643TIP3    H129488   3.180   5.748   0.848 -0.2194  1.8954 -1.0093
 2643TIP3    H229489   3.166   5.721   0.700 -1.1927 -0.1351 -0.5695
 2644TIP3   OH229490   4.066   2.508   8.540 -0.5161  0.0907  0.0930
 2644TIP3    H129491   4.033   2.434   8.591 -2.5755  1.4207  0.7657
 2644TIP3    H229492   3.989   2.557   8.514  0.7882  2.0885 -0.2647
 2645TIP3   OH229493   2.095   4.443   1.640  0.5597 -0.1347 -0.7918
 2645TIP3    H129494   2.177   4.434   1.591  2.1930  0.2119  1.7039
 2645TIP3    H229495   2.102   4.528   1.683 -0.2546 -0.8959  0.9206
 2646TIP3   OH229496   1.520   4.812   1.941  0.4342 -0.3323  0.2420
 2646TIP3    H129497   1.495   4.872   2.011 -0.4049  0.5356 -0.7600
 2646TIP3    H229498   1.474   4.731   1.961 -0.2921  0.1081  0.3865
 2647TIP3   OH229499   3.065   1.128   8.136  0.3450  0.0756 -0.3016
 2647TIP3    H129500   3.122   1.146   8.061  1.6534 -2.2361  0.0141
 2647TIP3    H229501   3.078   1.035   8.154 -2.9756 -0.3978  0.3301
 2648TIP3   OH229502   0.117   6.744   0.834 -0.5372 -0.2468 -0.0326
 2648TIP3    H129503   0.042   6.704   0.790 -2.8434  3.4798  0.0792
 2648TIP3    H229504   0.177   6.765   0.762 -0.5541 -1.3302 -0.3870
 2649TIP3   OH229505   2.171   5.220   0.045 -0.2499  0.1855 -0.0592
 2649TIP3    H129506   2.118   5.148   0.012 -2.3734  1.4365  0.4019
 2649TIP3    H229507   2.210   5.186   0.126 -0.2544 -0.8076 -0.4616
 2650TIP3   OH229508   6.345   2.839   2.013 -0.5423 -0.4446  0.6398
 2650TIP3    H129509   6.277   2.825   2.079  1.4885 -0.5081  2.8538
 2650TIP3    H229510   6.340   2.762   1.956 -3.9547  0.7621 -0.9655
 2651TIP3   OH229511   5.334   5.881   0.603 -0.4052 -0.0070  0.4736
 2651TIP3    H129512   5.293   5.890   0.516  1.4403  0.0684 -0.4317
 2651TIP3    H229513   5.396   5.953   0.608 -0.1245 -0.3141  1.6769
 2652TIP3   OH229514   3.948   1.090   1.939  0.2560  0.0487  0.7388
 2652TIP3    H129515   3.887   1.146   1.988  1.3429  1.5557  0.4332
 2652TIP3    H229516   3.952   1.009   1.991 -2.2485 -0.2643  0.5785
 2653TIP3   OH229517   4.377   3.073   1.685 -0.2041  0.1535 -0.1742
 2653TIP3    H129518   4.471   3.053   1.679 -0.5602 -1.4317 -1.1445
 2653TIP3    H229519   4.350   3.035   1.769  0.2737  1.8736  0.7907
 2654TIP3   OH229520   1.486   1.810   0.404  0.3063 -0.1221 -0.1148
 2654TIP3    H129521   1.444   1.879   0.456 -0.0677  2.1826 -3.1780
 2654TIP3    H229522   1.439   1.730   0.428 -0.8757  1.0822  1.8594
 2655TIP3   OH229523   2.406   6.785   8.395 -0.2658 -0.1037 -0.5359
 2655TIP3    H129524   2.455   6.860   8.362 -0.7308  0.4514  0.0121
 2655TIP3    H229525   2.333   6.774   8.335 -0.6364  0.3783 -0.1808
 2656TIP3   OH229526   0.744   3.363   0.057 -0.6114 -0.1356  0.1721
 2656TIP3    H129527   0.702   3.333  -0.023 -0.4742  0.9722 -0.3327
 2656TIP3    H229528   0.674   3.406   0.106 -0.5865 -0.3807  0.4277
 2657TIP3   OH229529   1.170   2.422   7.573 -0.0458 -0.0782  0.4764
 2657TIP3    H129530   1.248   2.472   7.598 -0.5623  1.6892 -1.1610
 2657TIP3    H229531   1.203   2.335   7.550  1.5782  0.8323 -0.8393
 2658TIP3   OH229532   0.190   0.448   0.820  0.1644 -0.6126 -0.1397
 2658TIP3    H129533   0.282   0.430   0.838  0.0698 -2.0378 -0.9680
 2658TIP3    H229534   0.189   0.483   0.731 -0.1683 -1.4996 -0.4973
 2659TIP3   OH229535   0.226   5.358   1.355 -0.4960  0.2414  0.2190
 2659TIP3    H129536   0.301   5.307   1.386  0.9598  1.9598 -0.2808
 2659TIP3    H229537   0.196   5.406   1.431 -0.4652  0.2882  0.2017
 2660TIP3   OH229538   3.062   4.191   8.597  0.0457 -0.5283  0.1648
 2660TIP3    H129539   3.135   4.211   8.656  0.5630 -1.4476 -0.1343
 2660TIP3    H229540   3.099   4.200   8.509 -0.7217  0.8443 -0.0342
 2661TIP3   OH229541   2.204   2.707   1.965  0.1123  0.0697  0.5789
 2661TIP3    H129542   2.268   2.638   1.948  0.3668  0.1433  1.2235
 2661TIP3    H229543   2.230   2.779   1.907  1.6657  0.7525  2.0645
 2662TIP3   OH229544   1.200   2.438   1.865 -0.1498  0.2605 -0.1618
 2662TIP3    H129545   1.173   2.529   1.852 -2.1563 -0.3798 -0.9533
 2662TIP3    H229546   1.117   2.389   1.867  0.8833 -1.5643  0.1563
 2663TIP3   OH229547   3.551   2.888   1.827  0.0180  0.4571  0.4581
 2663TIP3    H129548   3.559   2.793   1.831  1.7709  0.6103  1.8934
 2663TIP3    H229549   3.641   2.920   1.835  0.1228  2.2252 -4.2879
 2664TIP3   OH229550   0.698   0.852   1.028 -0.0457  0.2441  0.0799
 2664TIP3    H129551   0.604   0.835   1.026  0.0470 -0.7178  1.9280
 2664TIP3    H229552   0.738   0.769   1.004  0.3447  0.2120  0.8338
 2665TIP3   OH229553   6.529   5.559   2.892  0.0464 -0.3504  0.1683
 2665TIP3    H129554   6.540   5.507   2.972 -0.2292  0.8186  1.0010
 2665TIP3    H229555   6.469   5.508   2.838  2.8412 -2.8440 -0.8587
 2666TIP3   OH229556   1.617   2.684   1.726 -0.6184 -0.0499  0.0677
 2666TIP3    H129557   1.580   2.712   1.810 -0.0822 -0.7762  0.5672
 2666TIP3    H229558   1.615   2.762   1.671  0.9419  1.0422  1.4442
 2667TIP3   OH229559   5.884   3.129   0.427  0.5819  0.2666 -0.1163
 2667TIP3    H129560   5.947   3.171   0.485  1.4536 -0.6668 -0.3548
 2667TIP3    H229561   5.931   3.054   0.392 -0.9232 -0.9180  0.3052
 2668TIP3   OH229562   6.261   6.599   8.327 -0.0210 -0.2099 -0.0387
 2668TIP3    H129563   6.346   6.616   8.367 -0.7313  1.5519  0.7966
 2668TIP3    H229564   6.277   6.603   8.233  0.8520 -0.0823  0.1116
 2669TIP3   OH229565   1.074   4.180   2.700  0.1065 -0.5114 -0.2787
 2669TIP3    H129566   1.040   4.250   2.756 -1.1760 -1.9184  0.7881
 2669TIP3    H229567   1.090   4.222   2.616 -3.6108  0.4478 -0.6604
 2670TIP3   OH229568   3.335   0.502   0.293  0.7823 -0.0692  1.0257
 2670TIP3    H129569   3.270   0.480   0.226  0.9992 -0.0052  0.7919
 2670TIP3    H229570   3.407   0.441   0.277  2.2767  2.0431 -0.9166
 2671TIP3   OH229571   4.984   1.162   0.308  0.3078  0.2692  0.4919
 2671TIP3    H129572   5.061   1.190   0.259  0.2274  1.0964  0.8294
 2671TIP3    H229573   4.915   1.222   0.282 -0.4819 -1.0005 -0.4729
 2672TIP3   OH229574   3.267   3.738   8.542 -0.2308  0.0671  0.4775
 2672TIP3    H129575   3.225   3.806   8.596  1.1072  0.8061  0.6298
 2672TIP3    H229576   3.237   3.757   8.453  0.5010  1.1863  0.4469
 2673TIP3   OH229577   4.798   4.101   1.790 -0.1475 -0.2708  0.0908
 2673TIP3    H129578   4.814   4.016   1.748  0.7607  0.4452 -1.0569
 2673TIP3    H229579   4.722   4.085   1.846  1.4228 -2.4597  1.7592
 2674TIP3   OH229580   4.618   5.676   2.287 -0.1269  0.0091  0.0442
 2674TIP3    H129581   4.660   5.591   2.303 -1.0528 -0.0368  2.6180
 2674TIP3    H229582   4.640   5.696   2.196  0.4011 -2.8259 -0.5570
 2675TIP3   OH229583   4.083   3.969   8.228  0.4317  0.2099  0.5777
 2675TIP3    H129584   4.112   4.040   8.285 -0.6387  0.3662  0.9492
 2675TIP3    H229585   4.107   3.889   8.275  1.1540  0.3229  0.4085
 2676TIP3   OH229586   2.477   1.736   2.847 -0.2864 -0.4019  0.2077
 2676TIP3    H129587   2.384   1.714   2.843  0.2554 -2.8265 -0.3195
 2676TIP3    H229588   2.496   1.777   2.763 -0.8360  0.0127  0.2799
 2677TIP3   OH229589   5.141   6.473   3.307  0.3241  0.0657  0.7715
 2677TIP3    H129590   5.052   6.490   3.275  0.6383  0.6491  0.1937
 2677TIP3    H229591   5.127   6.428   3.391 -0.5126 -0.1704  0.5197
 2678TIP3   OH229592   5.730   0.941   8.359 -0.3567 -0.0042  0.0671
 2678TIP3    H129593   5.799   0.890   8.317 -0.6799 -0.0542 -0.4077
 2678TIP3    H229594   5.710   0.892   8.439 -1.1874 -1.0396 -0.7455
 2679TIP3   OH229595   1.299   2.351   8.421 -0.0229 -0.0014  0.4024
 2679TIP3    H129596   1.315   2.441   8.449  0.6381 -0.2821  0.9609
 2679TIP3    H229597   1.328   2.348   8.330  0.6391  0.1751  0.6014
 2680TIP3   OH229598   6.136   5.520   1.241  0.3549 -0.4782  0.3232
 2680TIP3    H129599   6.187   5.601   1.243  0.7543 -0.7515  1.9646
 2680TIP3    H229600   6.171   5.467   1.312 -0.3596 -1.8342 -0.2928
 2681TIP3   OH229601   5.659   3.645   0.292 -0.3987  0.1030  0.0100
 2681TIP3    H129602   5.670   3.625   0.385  0.4917  1.7059  0.2908
 2681TIP3    H229603   5.716   3.583   0.247  0.5279  0.4509  0.6725
 2682TIP3   OH229604   0.502   0.151   1.410 -0.2246  0.1867 -0.1532
 2682TIP3    H129605   0.535   0.222   1.355  0.3244  0.1767  0.1472
 2682TIP3    H229606   0.477   0.194   1.492 -1.7709  0.3166 -0.6674
 2683TIP3   OH229607   3.851   6.199   8.546 -0.2729  0.4947  0.2871
 2683TIP3    H129608   3.924   6.257   8.524  0.6047 -0.5507  0.3906
 2683TIP3    H229609   3.785   6.218   8.480  1.0968 -0.3564 -1.3810
 2684TIP3   OH229610   0.876   1.653   8.567  0.3564  0.3844  0.1324
 2684TIP3    H129611   0.848   1.629   8.479 -1.2291  1.2427  0.3703
 2684TIP3    H229612   0.971   1.663   8.560  0.0467  2.7039 -2.0386
 2685TIP3   OH229613   1.890   6.592   7.566 -0.0870 -0.2610  0.4574
 2685TIP3    H129614   1.956   6.649   7.605 -0.6112  0.9133 -0.3228
 2685TIP3    H229615   1.817   6.596   7.628 -1.2079  2.1908 -0.8788
 2686TIP3   OH229616   2.425   1.459   8.204 -0.6766  0.1745  0.2177
 2686TIP3    H129617   2.373   1.482   8.281  0.9524  0.7336  1.2038
 2686TIP3    H229618   2.513   1.491   8.225  0.0132 -0.5335 -1.4829
 2687TIP3   OH229619   3.716   2.316   0.868 -0.4714  0.2855  0.2668
 2687TIP3    H129620   3.769   2.382   0.823 -0.0628  1.0822  1.8727
 2687TIP3    H229621   3.774   2.240   0.875  0.2839  0.9438  1.4579
 2688TIP3   OH229622   2.909   2.278   1.176 -0.2878 -0.9417 -0.4173
 2688TIP3    H129623   2.869   2.319   1.100  0.7431 -0.7696 -0.8933
 2688TIP3    H229624   2.999   2.312   1.176  0.0225 -1.7358  0.2830
 2689TIP3   OH229625   0.908   4.748   0.304  0.3741  0.0029 -0.4197
 2689TIP3    H129626   0.861   4.830   0.320  0.6183 -0.1153  0.9625
 2689TIP3    H229627   0.939   4.755   0.213 -0.1924  1.1386 -0.5313
 2690TIP3   OH229628   3.263   6.430   1.901 -0.3303 -0.1273 -0.1676
 2690TIP3    H129629   3.180   6.388   1.921 -0.7064  0.4378 -0.5253
 2690TIP3    H229630   3.279   6.409   1.809 -0.4856  0.4359 -0.3303
 2691TIP3   OH229631   6.523   4.727   8.192  0.8182  0.2028 -0.4843
 2691TIP3    H129632   6.473   4.667   8.247  1.0513  0.7838  0.3679
 2691TIP3    H229633   6.472   4.732   8.111  0.2214 -0.2895 -0.1499
 2692TIP3   OH229634   2.406   5.102   1.008 -0.4030  0.0419  0.2079
 2692TIP3    H129635   2.346   5.034   1.038 -0.1836 -0.3308 -0.1892
 2692TIP3    H229636   2.469   5.111   1.079 -0.2143 -0.4363  0.1014
 2693TIP3   OH229637   1.580   6.445   2.961 -0.2555 -0.1873 -0.0491
 2693TIP3    H129638   1.503   6.450   3.018 -0.6484  1.9793 -0.6680
 2693TIP3    H229639   1.649   6.491   3.010 -0.1648  0.3475 -0.6755
 2694TIP3   OH229640   3.276   0.830   7.848  0.1021  0.5433  0.2232
 2694TIP3    H129641   3.247   0.884   7.773  1.7262 -0.8314 -1.4997
 2694TIP3    H229642   3.299   0.894   7.915 -1.1208  1.8551 -0.5409
 2695TIP3   OH229643   6.423   2.424   8.587 -0.3376  0.1120  0.4381
 2695TIP3    H129644   6.368   2.447   8.512  0.3892  0.3056 -0.0398
 2695TIP3    H229645   6.476   2.501   8.603  0.0446 -0.1955  0.6796
 2696TIP3   OH229646   4.603   6.520   1.444  0.1117 -0.3581 -0.1278
 2696TIP3    H129647   4.547   6.597   1.446 -1.6067 -1.4963 -1.2664
 2696TIP3    H229648   4.642   6.520   1.356 -0.7693 -1.3000 -0.5551
 2697TIP3   OH229649   1.113   4.790   0.511  0.0390 -0.0181 -0.1119
 2697TIP3    H129650   1.159   4.706   0.507  0.6066  0.3248 -1.6133
 2697TIP3    H229651   1.022   4.769   0.489  0.1818 -0.2529 -0.4946
 2698TIP3   OH229652   5.547   5.277   1.555  0.3977  0.4017 -0.3591
 2698TIP3    H129653   5.574   5.339   1.622 -0.4564  1.0036 -0.5568
 2698TIP3    H229654   5.554   5.191   1.597 -0.2399  0.7785  0.5373
 2699TIP3   OH229655   0.810   4.360   2.737 -0.2716  0.3912  0.9629
 2699TIP3    H129656   0.865   4.405   2.801  0.5051  1.1420 -0.1797
 2699TIP3    H229657   0.758   4.431   2.698  0.5851  0.2705 -0.4904
 2700TIP3   OH229658   2.748   2.632   1.122  0.0121  0.0497  0.1543
 2700TIP3    H129659   2.802   2.680   1.060 -1.2633  1.4631  0.0660
 2700TIP3    H229660   2.770   2.669   1.208 -0.2528  0.0783  0.2110
 2701TIP3   OH229661   3.709   5.683   1.611  0.1116  0.6109  0.0535
 2701TIP3    H129662   3.738   5.756   1.556 -0.2361  1.3744  0.8555
 2701TIP3    H229663   3.642   5.639   1.559  1.4817 -0.1851 -1.1414
 2702TIP3   OH229664   5.463   4.507   1.004  0.7885  0.2268 -0.3782
 2702TIP3    H129665   5.387   4.469   1.048  1.1999 -2.5238 -1.8106
 2702TIP3    H229666   5.426   4.567   0.940  0.1047  2.4157  1.8919
 2703TIP3   OH229667   5.735   0.560   2.325  0.0745  0.1979  0.3551
 2703TIP3    H129668   5.721   0.592   2.414  0.7982  1.9968 -0.1292
 2703TIP3    H229669   5.648   0.536   2.293 -0.3707  0.8191  1.0822
 2704TIP3   OH229670   2.600   1.239   7.975  0.1237 -0.1558 -0.6491
 2704TIP3    H129671   2.675   1.181   7.980 -0.8203 -1.4426 -0.7866
 2704TIP3    H229672   2.637   1.328   7.978  1.4615 -0.6800  2.4831
 2705TIP3   OH229673   1.712   6.784   3.429 -0.1704 -0.4250  1.0377
 2705TIP3    H129674   1.673   6.870   3.416 -0.3498 -0.4612  1.3262
 2705TIP3    H229675   1.787   6.782   3.369 -0.2673 -0.1346  0.9070
 2706TIP3   OH229676   4.509   0.074   7.873 -0.0956 -0.4588 -0.3704
 2706TIP3    H129677   4.547   0.032   7.950 -0.1729  0.5713  0.2515
 2706TIP3    H229678   4.582   0.115   7.829 -0.3960  1.3512  0.7167
 2707TIP3   OH229679   0.845   3.304   1.040  0.4465 -0.0918  0.4170
 2707TIP3    H129680   0.931   3.338   1.063 -0.2924  1.6396  0.7892
 2707TIP3    H229681   0.833   3.329   0.949  0.0800  0.2726  0.5608
 2708TIP3   OH229682   1.823   3.118   1.599  0.6927  0.3711  0.1348
 2708TIP3    H129683   1.806   3.047   1.661 -0.2039  0.6863  0.2615
 2708TIP3    H229684   1.876   3.078   1.531  2.0169  0.1046  1.2792
 2709TIP3   OH229685   4.464   5.784   8.702 -0.0780 -0.3131  0.0661
 2709TIP3    H129686   4.558   5.781   8.688  0.1498  0.7714  1.2289
 2709TIP3    H229687   4.442   5.877   8.706 -0.7859 -0.4978  2.1638
 2710TIP3   OH229688   5.817   1.258   8.167  0.3997  0.1542 -0.2246
 2710TIP3    H129689   5.877   1.283   8.097 -1.1942  0.7303 -1.4342
 2710TIP3    H229690   5.870   1.264   8.247  1.8082  1.1193 -1.1783
 2711TIP3   OH229691   3.909   2.362   3.236  0.1094 -0.3826 -0.5250
 2711TIP3    H129692   3.939   2.341   3.324 -0.9711  2.5923  0.7141
 2711TIP3    H229693   3.823   2.319   3.229  0.2032 -0.6390 -0.1290
 2712TIP3   OH229694   3.230   0.636   2.030 -0.4201 -0.6118 -0.1767
 2712TIP3    H129695   3.323   0.621   2.015  0.0306 -0.1941  1.8284
 2712TIP3    H229696   3.205   0.702   1.966  1.7065  2.3143  1.8092
 2713TIP3   OH229697   3.554   5.073   2.755 -0.6087 -0.3805 -0.9662
 2713TIP3    H129698   3.525   5.077   2.846  0.6953 -0.2541 -0.5351
 2713TIP3    H229699   3.485   5.118   2.706 -0.7493  0.5993  0.1001
 2714TIP3   OH229700   6.391   6.824   0.334 -0.5011 -0.0499 -0.2530
 2714TIP3    H129701   6.454   6.820   0.263 -0.6641 -0.1676 -0.3912
 2714TIP3    H229702   6.400   6.913   0.370  1.1507 -0.6745  1.0191
 2715TIP3   OH229703   4.813   3.398   8.295  0.3363 -0.0074  0.2540
 2715TIP3    H129704   4.866   3.451   8.355 -0.4744 -0.3896  1.3426
 2715TIP3    H229705   4.855   3.409   8.210  2.3874 -0.6085  1.1385
 2716TIP3   OH229706   6.052   4.889   0.675  0.1433  0.1806 -0.5039
 2716TIP3    H129707   6.113   4.876   0.603 -0.2753 -0.0038 -0.8274
 2716TIP3    H229708   6.019   4.802   0.696 -0.6332  0.3744 -0.8838
 2717TIP3   OH229709   5.334   4.035   1.541  0.3966  0.0128 -0.3484
 2717TIP3    H129710   5.256   4.017   1.489 -0.1473 -0.5196  0.6113
 2717TIP3    H229711   5.376   4.109   1.498 -2.1092  2.1489  0.6320
 2718TIP3   OH229712   0.335   0.149   0.716 -0.5936 -0.8812 -0.2276
 2718TIP3    H129713   0.313   0.226   0.663 -0.2644 -0.6908 -0.0876
 2718TIP3    H229714   0.287   0.078   0.674  2.1037 -1.3866 -2.7359
 2719TIP3   OH229715   4.594   0.113   2.701  0.5654  0.3095  0.4392
 2719TIP3    H129716   4.604   0.048   2.770  1.6951  0.3639  0.3545
 2719TIP3    H229717   4.550   0.187   2.743 -0.8696 -0.5525  0.4961
 2720TIP3   OH229718   4.136   5.922   0.187  0.1080  0.1331 -0.0539
 2720TIP3    H129719   4.100   5.853   0.131  1.7975 -1.8062  1.1220
 2720TIP3    H229720   4.199   5.877   0.243 -0.0607  2.3378  2.0490
 2721TIP3   OH229721   3.841   2.958   1.964 -0.3612  0.6340 -0.0624
 2721TIP3    H129722   3.908   3.008   1.918 -0.7961  1.4294  0.1535
 2721TIP3    H229723   3.888   2.886   2.006  0.2555  0.8037 -0.4677
 2722TIP3   OH229724   0.313   4.564   0.021  0.0535 -0.6123 -0.7937
 2722TIP3    H129725   0.307   4.646   0.070  1.7441 -1.2128  0.5079
 2722TIP3    H229726   0.222   4.532   0.016 -0.7113  1.5110 -1.7356
 2723TIP3   OH229727   1.587   2.424   1.592 -0.5218 -0.3354 -0.4590
 2723TIP3    H129728   1.515   2.416   1.655  1.0710 -0.8693  1.3616
 2723TIP3    H229729   1.628   2.508   1.612 -0.8793  0.1876 -1.8014
 2724TIP3   OH229730   5.926   2.589   0.841  0.4018  0.5831  0.0175
 2724TIP3    H129731   5.854   2.644   0.871  1.0083  0.9090  0.9354
 2724TIP3    H229732   5.977   2.647   0.783  1.1268  1.0731  1.1068
 2725TIP3   OH229733   0.242   1.281   0.496 -0.4165 -0.2172  0.0357
 2725TIP3    H129734   0.301   1.328   0.438 -1.9887  0.8755 -0.7724
 2725TIP3    H229735   0.196   1.219   0.440  0.5801 -1.7323  0.8285
 2726TIP3   OH229736   0.212   2.738   0.642  0.4170  0.2078  0.1423
 2726TIP3    H129737   0.175   2.651   0.627 -0.3337  0.6300 -0.5335
 2726TIP3    H229738   0.140   2.799   0.624  0.6869  0.9405  1.4252
 2727TIP3   OH229739   3.668   3.723   1.325  0.2446 -0.9180  0.0636
 2727TIP3    H129740   3.726   3.763   1.391 -0.8220 -1.3996  1.3335
 2727TIP3    H229741   3.604   3.791   1.306  1.1460 -0.4121 -1.2880
 2728TIP3   OH229742   5.938   1.432   7.603 -0.0397 -0.0149 -0.4024
 2728TIP3    H129743   5.931   1.387   7.518  1.0670 -1.5354  0.2636
 2728TIP3    H229744   5.976   1.517   7.582 -0.7457  0.0391 -1.5419
 2729TIP3   OH229745   2.455   1.671   8.016  0.7783 -0.2698  0.5251
 2729TIP3    H129746   2.378   1.726   8.031  1.2433  0.8738 -0.9894
 2729TIP3    H229747   2.440   1.593   8.070 -1.5002 -0.1662  0.1438
 2730TIP3   OH229748   0.696   6.796   1.517 -0.1779  0.6497 -0.0106
 2730TIP3    H129749   0.638   6.854   1.468 -0.1978  0.8497  0.2497
 2730TIP3    H229750   0.751   6.755   1.450 -1.0675 -0.0576 -0.3292
 2731TIP3   OH229751   0.033   0.615   7.892 -0.0713  0.7070  0.3550
 2731TIP3    H129752   0.026   0.614   7.987  0.0086 -0.1270  0.3615
 2731TIP3    H229753  -0.053   0.646   7.862 -0.8626 -1.0340  0.6687
 2732TIP3   OH229754   5.874   3.514   8.666  0.9899 -0.7572 -0.0859
 2732TIP3    H129755   5.800   3.565   8.633  1.8729  0.3796 -0.3674
 2732TIP3    H229756   5.849   3.423   8.652  0.0857 -0.3619 -1.1234
 2733TIP3   OH229757   1.775   1.764   2.369  0.8203  0.4838  0.4132
 2733TIP3    H129758   1.763   1.705   2.444 -3.0844 -1.4264 -1.4242
 2733TIP3    H229759   1.702   1.826   2.375  0.4052  0.2741 -1.7409
 2734TIP3   OH229760   2.764   5.019   1.632  0.6708  0.1779  0.4647
 2734TIP3    H129761   2.691   5.002   1.573  0.8342  0.0029  0.3136
 2734TIP3    H229762   2.831   4.954   1.608  1.1088  0.7148  0.2113
 2735TIP3   OH229763   5.379   1.263   2.286  0.7306  0.7524 -0.5377
 2735TIP3    H129764   5.392   1.285   2.378 -0.3897  0.0336 -0.1761
 2735TIP3    H229765   5.464   1.277   2.245  1.5000  0.1659  0.8018
 2736TIP3   OH229766   2.678   1.411   0.141  0.8637 -0.1721  0.1666
 2736TIP3    H129767   2.733   1.386   0.215  1.5643  1.2525  0.1559
 2736TIP3    H229768   2.596   1.364   0.156  1.7349 -1.6263  0.6630
 2737TIP3   OH229769   0.558   1.158   2.147 -0.0485  0.2681  0.2866
 2737TIP3    H129770   0.626   1.198   2.093  0.4650 -0.9041  0.0227
 2737TIP3    H229771   0.495   1.228   2.163 -0.2706  0.6346 -1.9106
 2738TIP3   OH229772   0.069   5.932   7.916 -0.1370  0.0208 -0.1057
 2738TIP3    H129773   0.133   5.889   7.858 -0.3120 -0.6455  0.1838
 2738TIP3    H229774   0.048   6.014   7.871  2.0863  1.0233  0.5495
 2739TIP3   OH229775   5.705   1.969   8.676 -0.2141  0.2298 -0.6194
 2739TIP3    H129776   5.798   1.947   8.667  0.1518  2.0673 -1.9202
 2739TIP3    H229777   5.703   2.064   8.683 -1.8467  0.1032  2.5009
 2740TIP3   OH229778   6.821   0.014   1.765  0.2045 -0.1083  0.0593
 2740TIP3    H129779   6.837  -0.062   1.710 -1.5206 -1.3645  1.1849
 2740TIP3    H229780   6.823  -0.020   1.855 -0.1975  1.2375  0.6053
 2741TIP3   OH229781   4.475   2.463   1.157 -0.4434  0.2786 -0.6867
 2741TIP3    H129782   4.454   2.413   1.079 -0.9633 -0.0363 -0.3485
 2741TIP3    H229783   4.479   2.398   1.227  0.0622  0.5511 -0.4534
 2742TIP3   OH229784   3.273   3.922   1.121  0.4202 -0.0868 -0.2972
 2742TIP3    H129785   3.194   3.970   1.095  0.4354 -0.7190 -1.5507
 2742TIP3    H229786   3.310   3.890   1.039  2.1257  0.3960  0.2501
 2743TIP3   OH229787   6.123   1.436   7.250 -0.3483  0.7499 -0.5007
 2743TIP3    H129788   6.034   1.406   7.268 -0.3323  1.4048  0.7935
 2743TIP3    H229789   6.116   1.532   7.248  0.8118  1.0679  3.0044
 2744TIP3   OH229790   5.253   4.799   0.219 -0.0875 -0.1698 -0.1462
 2744TIP3    H129791   5.296   4.750   0.149  0.6343 -0.3798  0.4276
 2744TIP3    H229792   5.260   4.742   0.295  0.6462  0.7461  0.4994
 2745TIP3   OH229793   0.160   1.890   2.601  0.4171  0.6616 -0.0727
 2745TIP3    H129794   0.102   1.877   2.676 -0.8963  0.0263 -1.1493
 2745TIP3    H229795   0.216   1.812   2.600 -0.7417 -0.1877 -0.7369
 2746TIP3   OH229796   1.834   5.360   8.196 -0.1420 -0.0822 -0.0737
 2746TIP3    H129797   1.900   5.420   8.232 -0.7487  0.6805 -0.2052
 2746TIP3    H229798   1.862   5.273   8.224 -0.1313  0.4106  1.4907
 2747TIP3   OH229799   4.112   5.876   1.697  0.5256 -0.4986  0.6814
 2747TIP3    H129800   4.118   5.817   1.622  2.5946  0.3525  0.0956
 2747TIP3    H229801   4.035   5.929   1.679 -0.1759 -1.6331  0.1923
 2748TIP3   OH229802   6.250   3.540   3.065  0.8000  0.4538  0.5516
 2748TIP3    H129803   6.258   3.445   3.055 -1.2077  0.1306  1.4263
 2748TIP3    H229804   6.340   3.571   3.073  1.4436 -1.6239  2.3064
 2749TIP3   OH229805   4.543   6.835   8.725  0.2439  0.2991  0.0019
 2749TIP3    H129806   4.555   6.773   8.653  1.5252  0.2077  0.2703
 2749TIP3    H229807   4.609   6.809   8.790  0.1775  1.3705  0.5129
 2750TIP3   OH229808   0.756   5.460   0.398 -0.3440 -0.0237  0.0267
 2750TIP3    H129809   0.688   5.399   0.427  0.1825 -0.1285  1.0647
 2750TIP3    H229810   0.819   5.405   0.352 -1.5510  0.2451 -2.0879
 2751TIP3   OH229811   0.672   1.509   2.707  1.4799 -0.4840 -0.5433
 2751TIP3    H129812   0.719   1.584   2.743  2.4413 -0.9144 -0.8729
 2751TIP3    H229813   0.602   1.493   2.770  0.8860  1.0549 -0.7878
 2752TIP3   OH229814   5.722   2.132   8.120 -0.0554 -0.3650 -0.4129
 2752TIP3    H129815   5.652   2.186   8.156 -0.3390 -0.9658 -0.0478
 2752TIP3    H229816   5.677   2.063   8.070  0.2746 -0.6929 -0.2639
 2753TIP3   OH229817   0.556   0.067   7.368 -0.5996  0.4374  0.6733
 2753TIP3    H129818   0.572   0.028   7.282 -2.1790 -0.3729  0.7042
 2753TIP3    H229819   0.614   0.143   7.371 -0.5393  0.5166 -1.1296
 2754TIP3   OH229820   3.900   4.429   1.544 -0.0191  0.2736  0.3107
 2754TIP3    H129821   3.873   4.517   1.571  2.4090  0.7381  1.5804
 2754TIP3    H229822   3.865   4.370   1.611 -1.6473  0.2333 -0.5390
 2755TIP3   OH229823   2.507   3.333   8.175 -0.2332 -0.1711 -0.0092
 2755TIP3    H129824   2.491   3.343   8.081  1.3201 -1.4446 -0.4447
 2755TIP3    H229825   2.528   3.241   8.186  0.9543  0.2364  1.3844
 2756TIP3   OH229826   1.636   0.177   0.738  0.1349  0.1950  0.3866
 2756TIP3    H129827   1.683   0.246   0.690  0.1738  0.2738  0.5352
 2756TIP3    H229828   1.688   0.098   0.725  0.5558  0.3762  0.9182
 2757TIP3   OH229829   3.955   4.404   2.142  0.0929  0.1106  0.1463
 2757TIP3    H129830   3.871   4.359   2.140  0.1620 -0.0516  0.7436
 2757TIP3    H229831   4.006   4.358   2.209  0.7473  0.0502 -0.3755
 2758TIP3   OH229832   5.058   5.884   1.902  0.4952 -0.3595 -0.1846
 2758TIP3    H129833   5.038   5.943   1.975  2.3885  1.7085 -1.2189
 2758TIP3    H229834   5.108   5.812   1.942  0.6444  0.2210  0.7025
 2759TIP3   OH229835   2.080   3.468   1.866 -0.1576 -0.3241  0.4012
 2759TIP3    H129836   2.159   3.519   1.846  0.7932 -1.7416  0.4005
 2759TIP3    H229837   2.045   3.508   1.945 -0.0078  0.9491 -0.1531
 2760TIP3   OH229838   2.844   5.683   7.660 -0.7940 -0.3881 -0.0372
 2760TIP3    H129839   2.803   5.670   7.745  1.2424 -0.7944  0.9583
 2760TIP3    H229840   2.841   5.598   7.617 -0.5432 -0.5461  0.2549
 2761TIP3   OH229841   2.696   2.267   8.386  0.2832  0.2153 -0.2097
 2761TIP3    H129842   2.756   2.238   8.317 -1.7897 -0.1838 -1.9523
 2761TIP3    H229843   2.695   2.195   8.449  2.0845  0.5166  0.2141
 2762TIP3   OH229844   3.877   2.324   1.233 -0.3615 -0.0715 -0.2610
 2762TIP3    H129845   3.830   2.374   1.300  0.6947  0.4591  0.1000
 2762TIP3    H229846   3.919   2.390   1.178 -1.4182 -0.4856 -1.6401
 2763TIP3   OH229847   4.060   0.156   0.568 -0.2334 -0.3509  0.0542
 2763TIP3    H129848   4.091   0.245   0.583 -1.2570 -0.0842  0.6659
 2763TIP3    H229849   4.053   0.118   0.655  0.9067 -1.3025 -0.2378
 2764TIP3   OH229850   5.413   4.478   2.495  0.2422 -0.0836  0.3982
 2764TIP3    H129851   5.492   4.520   2.528 -0.0845  0.8579  0.0099
 2764TIP3    H229852   5.373   4.438   2.573  0.4586  0.4928  0.8135
 2765TIP3   OH229853   3.857   4.262   0.885 -0.0580 -0.1174 -0.5073
 2765TIP3    H129854   3.899   4.309   0.957  1.0789 -0.6224 -0.8123
 2765TIP3    H229855   3.776   4.228   0.922 -0.6233  1.5721 -0.1230
 2766TIP3   OH229856   4.957   0.954   1.589 -0.6805 -0.2141 -0.5291
 2766TIP3    H129857   4.915   1.022   1.642 -0.0744  0.5373 -0.9906
 2766TIP3    H229858   5.009   0.903   1.651  2.4202  2.4403 -0.6696
 2767TIP3   OH229859   3.026   6.046   1.862  0.6417 -0.2132  0.1650
 2767TIP3    H129860   3.042   5.970   1.806  0.7575 -0.1830  0.1567
 2767TIP3    H229861   2.981   6.011   1.938 -3.9969  0.3225 -1.9946
 2768TIP3   OH229862   1.870   1.210   1.608 -0.4743  0.5625 -0.2276
 2768TIP3    H129863   1.894   1.248   1.693 -0.0265 -0.4495  0.1183
 2768TIP3    H229864   1.948   1.162   1.581 -0.9456  0.0778 -0.7478
 2769TIP3   OH229865   1.853   1.021   8.104  0.5093 -0.4825 -0.1898
 2769TIP3    H129866   1.888   1.104   8.072  3.7478 -1.7680 -0.3682
 2769TIP3    H229867   1.773   1.007   8.054  0.3410  2.0751 -0.7544
 2770TIP3   OH229868   1.773   2.620   2.920 -0.0531  0.2061 -0.8407
 2770TIP3    H129869   1.778   2.705   2.876 -1.2801 -0.7381 -2.9644
 2770TIP3    H229870   1.808   2.558   2.857  1.2513 -0.8707  0.8557
 2771TIP3   OH229871   5.230   2.077   1.424 -0.3518  0.2471 -0.5655
 2771TIP3    H129872   5.157   2.016   1.435 -0.9633  1.0593 -0.0439
 2771TIP3    H229873   5.267   2.086   1.511  1.4629 -1.4369 -1.0748
 2772TIP3   OH229874   4.958   4.783   0.487  0.7437  0.3702  0.0631
 2772TIP3    H129875   4.989   4.716   0.549  0.5583 -1.6167 -1.8758
 2772TIP3    H229876   5.037   4.826   0.456  0.9736  0.2088  0.4180
 2773TIP3   OH229877   3.667   4.144   1.977 -0.3479 -0.0829  0.3399
 2773TIP3    H129878   3.612   4.207   1.930 -0.8898 -1.1215 -0.4561
 2773TIP3    H229879   3.633   4.145   2.067 -0.9221  0.1188  0.1249
 2774TIP3   OH229880   5.706   6.652   1.970 -0.0711 -0.6494  0.3834
 2774TIP3    H129881   5.708   6.648   2.065  0.8109  0.2445  0.4116
 2774TIP3    H229882   5.798   6.654   1.943 -0.2107 -3.3363 -0.6428
 2775TIP3   OH229883   3.280   0.696   2.305  0.2627  0.1553  0.3075
 2775TIP3    H129884   3.276   0.650   2.221  0.7101 -0.5524  0.6712
 2775TIP3    H229885   3.224   0.773   2.292  0.5695  0.2234 -0.7423
 2776TIP3   OH229886   5.185   6.356   3.024  0.3607 -0.1349 -0.3625
 2776TIP3    H129887   5.173   6.386   3.114  0.1096  0.4031 -0.5685
 2776TIP3    H229888   5.101   6.316   3.001  0.4766 -0.4107 -0.3068
 2777TIP3   OH229889   0.354   2.077   1.363  0.5698  0.1341  0.0398
 2777TIP3    H129890   0.270   2.117   1.388  0.0318 -0.7515 -0.2836
 2777TIP3    H229891   0.391   2.138   1.300  0.9652  1.3590  1.4060
 2778TIP3   OH229892   2.811   5.845   2.211 -0.1657  0.9332  0.1110
 2778TIP3    H129893   2.762   5.861   2.292  0.1720 -2.4799  1.1519
 2778TIP3    H229894   2.897   5.884   2.227 -0.3681  1.0179  1.0791
 2779TIP3   OH229895   0.674   2.989   1.405  0.2157  0.7501  0.4244
 2779TIP3    H129896   0.723   3.015   1.326 -1.9110  0.2370 -1.1534
 2779TIP3    H229897   0.584   2.981   1.375 -0.4932 -0.5253  2.7007
 2780TIP3   OH229898   1.205   1.893   2.779 -0.0419 -0.2319  0.2019
 2780TIP3    H129899   1.235   1.983   2.763  1.0958 -0.6186  0.0463
 2780TIP3    H229900   1.140   1.877   2.712 -2.5990  1.5127  2.0688
 2781TIP3   OH229901   4.090   6.325   0.004 -0.0140  0.0878 -0.3591
 2781TIP3    H129902   4.045   6.406   0.028 -0.5704 -0.3157 -0.0062
 2781TIP3    H229903   4.059   6.305  -0.085  1.4392  1.1604 -1.1436
 2782TIP3   OH229904   2.634   6.589   8.482 -0.6932 -1.0317 -0.5641
 2782TIP3    H129905   2.552   6.633   8.455 -0.0247 -0.5897 -2.0167
 2782TIP3    H229906   2.663   6.544   8.403  0.1393 -1.7346  0.1289
 2783TIP3   OH229907   6.546   3.794   8.384  0.0156  0.2275  0.4402
 2783TIP3    H129908   6.542   3.866   8.320  0.3191  2.5546  2.8605
 2783TIP3    H229909   6.455   3.773   8.402 -0.1560  1.6115  1.3267
 2784TIP3   OH229910   0.850   2.597   7.288 -0.1658  0.2166 -0.1122
 2784TIP3    H129911   0.828   2.655   7.214  0.7713  1.4230  0.5172
 2784TIP3    H229912   0.850   2.509   7.250  1.8290  0.9319 -1.9474
 2785TIP3   OH229913   5.500   5.049   3.323 -0.8558 -0.1296  0.1874
 2785TIP3    H129914   5.558   5.104   3.270 -1.2207  0.0372 -0.0396
 2785TIP3    H229915   5.537   5.054   3.411 -0.2109 -0.4575 -0.0599
 2786TIP3   OH229916   5.720   4.595   2.217 -0.2674  0.5465  0.1349
 2786TIP3    H129917   5.683   4.611   2.304 -0.9179 -1.1495  0.2012
 2786TIP3    H229918   5.809   4.629   2.222 -0.1394  0.0280  1.6112
 2787TIP3   OH229919   4.001   0.535   1.618 -0.4669  0.5847  0.4834
 2787TIP3    H129920   3.983   0.451   1.661  1.7434  0.2281  0.8083
 2787TIP3    H229921   3.916   0.579   1.617 -1.2974 -0.8267  2.0972
 2788TIP3   OH229922   0.839   0.910   0.341 -0.1234 -0.2153  0.2216
 2788TIP3    H129923   0.844   0.873   0.252 -3.1542 -1.2011  0.3571
 2788TIP3    H229924   0.889   0.849   0.395 -0.3613 -1.0136 -0.4381
 2789TIP3   OH229925   5.653   2.215   1.718 -0.7045  0.2817  0.6292
 2789TIP3    H129926   5.570   2.248   1.684 -0.3636  0.4850 -0.0162
 2789TIP3    H229927   5.705   2.293   1.735  0.2594  0.1113 -1.2977
 2790TIP3   OH229928   3.041   5.664   1.130 -0.4433 -0.1784 -0.2154
 2790TIP3    H129929   3.007   5.724   1.197 -0.1902  1.1140 -1.1915
 2790TIP3    H229930   3.103   5.717   1.080 -0.2840 -1.2468 -1.1933
 2791TIP3   OH229931   0.536   4.719   2.123 -0.3371 -0.0031  0.1973
 2791TIP3    H129932   0.516   4.631   2.153 -0.4334 -0.3844 -0.9268
 2791TIP3    H229933   0.579   4.706   2.038  3.5356  0.8175  1.8173
 2792TIP3   OH229934   0.256   5.055   1.529  0.3607 -0.5663 -0.1925
 2792TIP3    H129935   0.316   5.124   1.503  0.8949 -0.9146  0.0979
 2792TIP3    H229936   0.312   4.985   1.563 -0.2553 -0.3308  1.4188
 2793TIP3   OH229937   1.854   4.948   0.538  0.0604 -0.0105  0.3927
 2793TIP3    H129938   1.759   4.948   0.551 -0.1159  1.0291 -0.6853
 2793TIP3    H229939   1.886   4.878   0.594 -1.2306  0.2998  1.5614
 2794TIP3   OH229940   1.658   0.190   8.692  0.0805 -0.4696 -0.1255
 2794TIP3    H129941   1.629   0.134   8.619  0.0185 -0.1817 -0.3270
 2794TIP3    H229942   1.693   0.129   8.757 -0.8971 -0.8296  0.0893
 2795TIP3   OH229943   0.283   3.898   7.908 -0.1954 -0.6122  0.4618
 2795TIP3    H129944   0.350   3.930   7.847 -1.3765  0.1693 -0.4736
 2795TIP3    H229945   0.207   3.953   7.891 -0.9784 -1.2522  1.7469
 2796TIP3   OH229946   5.761   4.680   0.522 -0.9649 -0.5574  0.3316
 2796TIP3    H129947   5.838   4.689   0.577 -0.4717 -1.7160 -0.1572
 2796TIP3    H229948   5.749   4.767   0.483  0.4198 -0.5196 -0.0307
 2797TIP3   OH229949   6.216   6.586   2.202  0.5273  0.4423 -0.1731
 2797TIP3    H129950   6.263   6.648   2.145  0.1231  0.3211 -0.6426
 2797TIP3    H229951   6.124   6.606   2.188  0.4305  0.8953  0.9972
 2798TIP3   OH229952   0.915   5.714   3.094  0.2890 -0.0798  0.1940
 2798TIP3    H129953   0.996   5.761   3.113 -0.2710  0.8617  0.3052
 2798TIP3    H229954   0.901   5.727   3.000  0.7020 -0.9612  0.0001
 2799TIP3   OH229955   6.103   0.308   7.994 -0.0310 -0.4109 -0.2367
 2799TIP3    H129956   6.089   0.402   7.987 -1.2348 -0.5000  0.5868
 2799TIP3    H229957   6.163   0.287   7.923  1.3666  1.1815  0.4061
 2800TIP3   OH229958   6.490   3.679   0.948  0.5246 -0.3962 -0.0619
 2800TIP3    H129959   6.551   3.731   0.896  0.8418 -0.3460  0.3604
 2800TIP3    H229960   6.536   3.598   0.967 -0.1491 -1.0591 -1.1329
 2801TIP3   OH229961   1.930   4.174   8.446  0.3768  0.0905 -0.3729
 2801TIP3    H129962   1.972   4.114   8.507  0.3835  1.3942  0.9774
 2801TIP3    H229963   1.921   4.125   8.364  1.0973 -1.4392  0.4454
 2802TIP3   OH229964   3.907   3.078   2.641 -0.6083  0.2646 -0.1192
 2802TIP3    H129965   3.841   3.071   2.710  0.8269  1.7473  1.5002
 2802TIP3    H229966   3.986   3.108   2.686  0.7465  0.0656 -2.2320
 2803TIP3   OH229967   2.347   5.235   0.301  0.9659  0.0429 -0.3529
 2803TIP3    H129968   2.286   5.218   0.373  1.8003 -1.4069  0.0488
 2803TIP3    H229969   2.432   5.245   0.344  1.1595  1.2928 -0.9796
 2804TIP3   OH229970   2.569   0.518   1.562  0.0612  0.2772 -0.0177
 2804TIP3    H129971   2.553   0.499   1.655 -0.5658 -0.7242 -0.3182
 2804TIP3    H229972   2.545   0.610   1.552 -2.8727 -0.3731  0.1796
 2805TIP3   OH229973   2.181   3.472   2.190 -0.4625 -0.1354 -0.5967
 2805TIP3    H129974   2.170   3.381   2.218 -1.6084 -0.0819 -0.8319
 2805TIP3    H229975   2.094   3.511   2.200 -0.1026  0.7955 -0.9831
 2806TIP3   OH229976   6.761   5.123   8.028  0.8302 -0.1979 -0.2322
 2806TIP3    H129977   6.753   5.037   8.069  1.7396 -0.6055 -0.8939
 2806TIP3    H229978   6.851   5.127   7.996  1.2351  1.5321  0.9521
 2807TIP3   OH229979   3.799   2.246   0.335  0.9282  0.7680  0.0016
 2807TIP3    H129980   3.861   2.250   0.408 -1.1404 -0.8265  1.9909
 2807TIP3    H229981   3.853   2.231   0.258  3.0378 -0.4396  1.6032
 2808TIP3   OH229982   3.857   1.206   0.861  0.0521 -0.1938  0.1769
 2808TIP3    H129983   3.815   1.233   0.780 -0.0299 -0.9640 -0.0404
 2808TIP3    H229984   3.907   1.128   0.838  1.7311  0.7738  0.3934
 2809TIP3   OH229985   1.174   2.828   0.682  0.2052 -0.2390 -0.2976
 2809TIP3    H129986   1.131   2.772   0.747 -0.7855 -0.6608 -1.2891
 2809TIP3    H229987   1.128   2.810   0.600  0.9895  0.7779 -0.9914
 2810TIP3   OH229988   5.738   2.591   2.381  0.1561  0.3384  0.3744
 2810TIP3    H129989   5.643   2.585   2.387 -0.1123  2.3967 -0.9656
 2810TIP3    H229990   5.761   2.534   2.307 -0.1771  0.7998 -0.0874
 2811TIP3   OH229991   6.353   3.061   8.571  0.2346 -0.0786 -0.2917
 2811TIP3    H129992   6.332   3.139   8.520  0.2415  1.5767  2.0437
 2811TIP3    H229993   6.356   3.093   8.662  0.9160 -2.6841  0.6766
 2812TIP3   OH229994   2.143   1.523   1.620  0.0980  0.1343 -0.0950
 2812TIP3    H129995   2.136   1.496   1.712  1.0876  0.7495  0.1728
 2812TIP3    H229996   2.160   1.617   1.624 -0.8831  0.3663 -0.9520
 2813TIP3   OH229997   0.783   0.252   8.517  0.0440 -0.4998  0.5923
 2813TIP3    H129998   0.783   0.304   8.597 -0.4062 -1.5768  1.3213
 2813TIP3    H229999   0.863   0.200   8.521 -0.0229 -0.6216  0.3935
 2814TIP3   OH230000   1.403   1.124   7.957  0.0404  0.0703  0.2299
 2814TIP3    H130001   1.318   1.085   7.939  0.1244 -0.0031 -0.0133
 2814TIP3    H230002   1.419   1.183   7.884 -0.3401  0.9977  0.8782
 2815TIP3   OH230003   4.708   1.572   0.208 -0.6429  0.7721  0.2097
 2815TIP3    H130004   4.657   1.653   0.197 -1.6322  0.0830 -0.4237
 2815TIP3    H230005   4.786   1.586   0.154 -2.1620  0.2153 -2.2838
 2816TIP3   OH230006   6.132   5.525   8.618  0.6263 -0.1782 -0.1451
 2816TIP3    H130007   6.167   5.487   8.699  0.6338  0.1909  0.0259
 2816TIP3    H230008   6.159   5.616   8.621 -0.1021  0.0373 -0.1544
 2817TIP3   OH230009   6.395   3.927   0.459 -0.3554 -0.3322 -0.1252
 2817TIP3    H130010   6.451   3.998   0.490 -2.6730  2.0240 -0.9296
 2817TIP3    H230011   6.364   3.957   0.373 -1.4103 -2.3408 -0.5047
 2818TIP3   OH230012   5.393   5.194   7.648  0.5394 -0.2496 -0.0995
 2818TIP3    H130013   5.335   5.219   7.720  1.1988 -1.1442  0.7703
 2818TIP3    H230014   5.336   5.192   7.571 -0.2607  0.3624  0.4559
 2819TIP3   OH230015   4.611   3.681   8.375  0.2309  0.1031 -1.0297
 2819TIP3    H130016   4.581   3.644   8.292  0.6096  0.4663 -1.3338
 2819TIP3    H230017   4.586   3.616   8.441 -0.0805 -0.1819 -1.4250
 2820TIP3   OH230018   3.995   2.529   1.811  0.1886 -0.3765 -0.0513
 2820TIP3    H130019   4.072   2.554   1.863 -0.8390  1.2050  0.7880
 2820TIP3    H230020   4.027   2.527   1.721  1.6554 -1.7173  0.4517
 2821TIP3   OH230021   4.537   3.909   1.437 -0.0345 -0.0376 -0.0739
 2821TIP3    H130022   4.632   3.915   1.424 -0.0797  1.4958  0.0647
 2821TIP3    H230023   4.506   3.851   1.368  1.1112 -1.3275  0.4626
 2822TIP3   OH230024   1.003   2.861   7.851 -0.4853  0.4669 -0.1774
 2822TIP3    H130025   1.021   2.912   7.930 -2.3327  0.7660  0.1061
 2822TIP3    H230026   1.037   2.915   7.779 -0.3186  0.9974  0.2923
 2823TIP3   OH230027   2.436   1.906   2.303  0.6450 -0.1199  0.2419
 2823TIP3    H130028   2.348   1.920   2.269  0.3176  0.2134  1.1748
 2823TIP3    H230029   2.443   1.967   2.376  0.8802 -1.5790  1.5004
 2824TIP3   OH230030   3.135   3.050   1.472  0.1521 -0.3258 -0.4849
 2824TIP3    H130031   3.148   3.140   1.501 -0.3095 -1.3331  3.3874
 2824TIP3    H230032   3.222   3.011   1.474  0.1063 -0.4217 -0.3240
 2825TIP3   OH230033   4.372   4.332   0.427 -0.2950  0.0540  0.1812
 2825TIP3    H130034   4.422   4.314   0.507 -0.1211  1.7078  0.4676
 2825TIP3    H230035   4.287   4.363   0.458 -0.4008  0.2350 -0.2789
 2826TIP3   OH230036   1.132   6.688   2.811 -0.2202 -0.3783  0.3324
 2826TIP3    H130037   1.142   6.778   2.843  0.2267 -0.4029  0.2654
 2826TIP3    H230038   1.044   6.663   2.839  0.3549 -0.5927  2.0412
 2827TIP3   OH230039   5.485   6.581   0.633 -0.3669  0.6646  0.3278
 2827TIP3    H130040   5.559   6.521   0.625  0.1788  1.5895 -2.3765
 2827TIP3    H230041   5.524   6.665   0.656 -1.0246  0.3908  2.8148
 2828TIP3   OH230042   3.716   2.024   6.911 -0.0115 -0.1536  0.1969
 2828TIP3    H130043   3.777   2.062   6.847  0.0809 -0.7467 -0.0713
 2828TIP3    H230044   3.760   1.945   6.942 -1.1458 -1.2277 -0.8644
 2829TIP3   OH230045   0.038   3.810   1.614 -1.0185  0.0532 -0.0369
 2829TIP3    H130046   0.061   3.729   1.567 -2.2132 -1.0567  1.2089
 2829TIP3    H230047   0.122   3.855   1.626 -0.3985 -0.7272 -1.2241
 2830TIP3   OH230048   0.857   6.483   2.485  0.3192  0.3790  0.3438
 2830TIP3    H130049   0.823   6.568   2.456  0.6897  1.2443  2.2297
 2830TIP3    H230050   0.938   6.505   2.532  1.0302 -1.1565 -0.1342
 2831TIP3   OH230051   0.555   2.135   8.186  0.1738  0.4903 -0.7622
 2831TIP3    H130052   0.623   2.198   8.162  0.5526  0.9050  1.2432
 2831TIP3    H230053   0.473   2.178   8.161  0.4995  1.2285 -0.5961
 2832TIP3   OH230054   0.599   5.692   3.374  0.4530  0.0674  0.0406
 2832TIP3    H130055   0.549   5.716   3.296  0.2901 -1.6539 -0.4212
 2832TIP3    H230056   0.671   5.755   3.376 -1.0810  1.9207  0.1174
 2833TIP3   OH230057   5.577   1.113   2.051  0.3358 -0.0020 -0.4234
 2833TIP3    H130058   5.649   1.060   2.017  1.9214  1.8212 -0.0806
 2833TIP3    H230059   5.616   1.200   2.066 -1.7244  0.8103  0.6065
 2834TIP3   OH230060   2.838   6.743   0.424 -0.1082  0.3343 -0.5564
 2834TIP3    H130061   2.812   6.834   0.439 -0.9107  0.1018 -0.4624
 2834TIP3    H230062   2.860   6.710   0.510 -0.4413  0.2620 -0.4960
 2835TIP3   OH230063   0.909   6.276   7.748 -0.4719  0.2088 -0.0879
 2835TIP3    H130064   0.960   6.357   7.736 -0.1386 -0.3234 -2.7283
 2835TIP3    H230065   0.936   6.244   7.834  0.0054  2.4658  0.6751
 2836TIP3   OH230066   2.613   2.818   2.170 -0.6023  0.3956 -0.7216
 2836TIP3    H130067   2.540   2.788   2.224  0.6913 -2.1807 -0.2421
 2836TIP3    H230068   2.662   2.878   2.226 -0.7637 -0.1501  0.0130
 2837TIP3   OH230069   3.188   5.031   8.623 -0.2942 -0.0087  0.4371
 2837TIP3    H130070   3.233   5.041   8.707 -0.6712 -1.2542  0.8019
 2837TIP3    H230071   3.245   4.975   8.571  0.0410  0.9255 -0.2387
 2838TIP3   OH230072   2.003   5.568   8.285 -0.3291  0.8718 -0.9586
 2838TIP3    H130073   1.998   5.628   8.359  0.0619 -0.3239  0.0883
 2838TIP3    H230074   2.040   5.488   8.322 -2.2027 -0.5367 -1.9242
 2839TIP3   OH230075   1.400   4.355   2.651 -0.5478 -0.2796 -0.0531
 2839TIP3    H130076   1.356   4.415   2.591 -1.8876 -1.9360 -0.8153
 2839TIP3    H230077   1.445   4.412   2.713 -0.4396  1.4962 -1.6707
 2840TIP3   OH230078   1.682   2.199   1.463 -0.2646 -0.2552  0.0904
 2840TIP3    H130079   1.747   2.185   1.532  0.3323 -0.4042 -0.4962
 2840TIP3    H230080   1.622   2.265   1.500 -1.3269 -1.9786  1.6830
 2841TIP3   OH230081   3.905   1.193   1.515  0.5033 -0.2133  0.4455
 2841TIP3    H130082   3.830   1.251   1.499 -0.0616 -0.9104  0.4958
 2841TIP3    H230083   3.870   1.124   1.572  1.6023  0.3220  1.8239
 2842TIP3   OH230084   3.418   3.143   0.123  0.0285  0.6107  0.3029
 2842TIP3    H130085   3.450   3.228   0.093  1.6812  0.5753  1.8162
 2842TIP3    H230086   3.327   3.158   0.147 -0.7575  1.1072 -2.6171
 2843TIP3   OH230087   1.754   1.593   8.293  0.3796 -0.0019  0.8206
 2843TIP3    H130088   1.776   1.565   8.382 -0.3610 -1.0365  0.6892
 2843TIP3    H230089   1.693   1.527   8.261  0.5106  0.4463 -0.4067
 2844TIP3   OH230090   2.856   5.616   0.921 -0.1245  0.4916  0.2488
 2844TIP3    H130091   2.912   5.631   0.997  1.6899  1.7055 -1.2385
 2844TIP3    H230092   2.865   5.522   0.902 -1.2853 -0.0112  1.9726
 2845TIP3   OH230093   1.291   5.371   8.376 -0.1863 -0.0749  0.5409
 2845TIP3    H130094   1.304   5.289   8.424 -0.0750  0.4631  1.4580
 2845TIP3    H230095   1.211   5.358   8.326  0.4860 -1.1881 -0.2989
 2846TIP3   OH230096   4.581   6.122   7.735 -0.1259 -0.1029  0.7160
 2846TIP3    H130097   4.633   6.114   7.814  1.1984  2.0908  0.1589
 2846TIP3    H230098   4.644   6.140   7.666 -1.5097  1.9982 -0.1090
 2847TIP3   OH230099   1.594   3.590   7.723 -0.2699 -0.3765 -0.5147
 2847TIP3    H130100   1.652   3.656   7.685 -1.5860  0.9881 -0.2832
 2847TIP3    H230101   1.652   3.519   7.749  1.6028  1.7131  1.5242
 2848TIP3   OH230102   2.833   2.974   0.476  0.0765  0.0670 -0.7590
 2848TIP3    H130103   2.783   3.034   0.532  0.4840  0.0426 -0.3671
 2848TIP3    H230104   2.772   2.950   0.406 -0.3872  0.2175 -0.4097
 2849TIP3   OH230105   3.232   5.076   0.733 -0.6000  0.1271  0.3713
 2849TIP3    H130106   3.176   5.144   0.771 -2.2246 -0.5750 -0.6477
 2849TIP3    H230107   3.264   5.115   0.651 -3.1958 -0.9608 -1.2730
 2850TIP3   OH230108   5.649   3.908   1.602  0.1049  0.1456 -0.2171
 2850TIP3    H130109   5.637   3.819   1.570  1.5811 -0.2324  0.1785
 2850TIP3    H230110   5.561   3.943   1.613 -0.4742 -0.4094 -2.6679
 2851TIP3   OH230111   6.802   2.964   8.515 -0.1183 -0.0521 -0.2259
 2851TIP3    H130112   6.888   2.924   8.526  0.4668  1.0900 -0.4093
 2851TIP3    H230113   6.769   2.973   8.605  0.4188  0.4491 -0.0693
 2852TIP3   OH230114   5.363   2.854   0.708  0.2686 -0.1794  0.8055
 2852TIP3    H130115   5.284   2.827   0.661  0.3769 -1.0729  1.1185
 2852TIP3    H230116   5.359   2.950   0.709 -0.6790 -0.2077  0.5944
 2853TIP3   OH230117   4.718   6.241   2.687 -0.5913 -0.1545 -0.2026
 2853TIP3    H130118   4.814   6.245   2.679 -0.5483  4.1620  0.1733
 2853TIP3    H230119   4.703   6.206   2.774  0.5154 -2.3090 -0.8023
 2854TIP3   OH230120   1.846   3.694   2.290  0.2884  0.1398  0.6360
 2854TIP3    H130121   1.845   3.740   2.374 -1.6109 -1.3554  1.5269
 2854TIP3    H230122   1.769   3.637   2.293 -1.0425  1.4810 -2.9891
 2855TIP3   OH230123   4.553   2.024   7.135  0.2583 -0.8769  0.5545
 2855TIP3    H130124   4.496   2.101   7.142 -1.2521 -1.6817 -1.6281
 2855TIP3    H230125   4.498   1.952   7.165  0.9386 -1.3864  0.5827
 2856TIP3   OH230126   2.519   4.611   7.334 -0.4169  0.7527 -0.0802
 2856TIP3    H130127   2.583   4.678   7.355 -0.1932  0.1601  1.2297
 2856TIP3    H230128   2.569   4.543   7.289 -0.2067  0.5298  0.4724
 2857TIP3   OH230129   0.678   4.501   2.259  0.1158 -0.0336  0.8349
 2857TIP3    H130130   0.714   4.568   2.318 -0.0163 -1.1163  2.2022
 2857TIP3    H230131   0.590   4.484   2.294 -0.2636 -0.1492 -0.1574
 2858TIP3   OH230132   0.495   3.413   1.363  0.0649 -0.0898 -0.0417
 2858TIP3    H130133   0.408   3.449   1.345  0.0706 -1.0209 -2.2170
 2858TIP3    H230134   0.503   3.338   1.304  1.7752 -0.9361  1.1830
 2859TIP3   OH230135   3.467   1.311   1.598  0.0282 -0.0882  0.2318
 2859TIP3    H130136   3.518   1.333   1.675 -1.0476 -0.0492  0.9541
 2859TIP3    H230137   3.444   1.218   1.610 -1.7905  0.4081  0.9813
 2860TIP3   OH230138   2.047   6.718   1.348  0.1702  0.4932 -0.0868
 2860TIP3    H130139   1.991   6.792   1.323 -1.9976 -0.0130  2.7650
 2860TIP3    H230140   2.096   6.750   1.423 -0.7394 -0.8942  1.1361
 2861TIP3   OH230141   4.652   1.025   2.567  0.6163  0.7014  0.1355
 2861TIP3    H130142   4.595   0.985   2.502  0.5978 -0.2230  0.7050
 2861TIP3    H230143   4.709   0.954   2.596 -0.7387  0.5117  2.6356
 2862TIP3   OH230144   3.963   0.593   0.027  0.1629  0.6251  0.0376
 2862TIP3    H130145   3.986   0.666   0.085  0.8205 -1.3377  2.4190
 2862TIP3    H230146   4.025   0.599  -0.045  2.1787  0.8040  1.6729
 2863TIP3   OH230147   6.235   4.100   0.877  0.3363  0.3104 -0.0571
 2863TIP3    H130148   6.147   4.094   0.841 -0.3813 -1.3928  1.7912
 2863TIP3    H230149   6.279   4.165   0.822 -1.4922 -0.0986 -2.1540
 2864TIP3   OH230150   5.723   0.619   3.069  0.3931 -0.0011 -0.3992
 2864TIP3    H130151   5.788   0.671   3.115 -1.2161  1.6659  0.1157
 2864TIP3    H230152   5.669   0.581   3.138 -1.3205  1.5790 -0.7641
 2865TIP3   OH230153   0.111   3.237   8.403  0.1153 -0.1478  0.1148
 2865TIP3    H130154   0.048   3.176   8.365  0.9854 -0.9605 -0.0583
 2865TIP3    H230155   0.086   3.244   8.495 -0.3991 -0.2287 -0.0167
 2866TIP3   OH230156   2.217   4.236   0.180 -0.7375 -0.0846  0.8685
 2866TIP3    H130157   2.146   4.289   0.145 -0.5011 -0.5238 -0.3505
 2866TIP3    H230158   2.295   4.291   0.170 -0.8521  0.3071  1.9887
 2867TIP3   OH230159   1.345   2.614   0.334  0.5466  0.2109  0.0597
 2867TIP3    H130160   1.395   2.574   0.263  0.8360 -0.8859  0.8538
 2867TIP3    H230161   1.334   2.544   0.398  0.7818  1.3139  1.3615
 2868TIP3   OH230162   0.071   4.568   0.388  0.1827 -0.1442 -0.1771
 2868TIP3    H130163   0.125   4.489   0.385  0.4712  0.0600 -0.4879
 2868TIP3    H230164   0.078   4.605   0.300  0.2896  0.3876  0.0503
 2869TIP3   OH230165   5.729   4.064   1.842 -0.2751 -0.0877 -0.4942
 2869TIP3    H130166   5.707   4.003   1.771 -3.4617  0.1250  0.1562
 2869TIP3    H230167   5.666   4.135   1.833  1.4358  1.6686  0.5789
 2870TIP3   OH230168   1.082   4.351   2.486  0.1465  0.6371 -0.2493
 2870TIP3    H130169   1.010   4.349   2.422 -0.6252 -1.4984  0.5947
 2870TIP3    H230170   1.128   4.433   2.468 -0.6470  0.5922 -2.8549
 2871TIP3   OH230171   0.785   5.471   1.962  0.3874 -0.4747  0.2000
 2871TIP3    H130172   0.871   5.502   1.933  0.3050  1.2030  1.6013
 2871TIP3    H230173   0.768   5.519   2.042 -1.2988 -1.7671  0.6752
 2872TIP3   OH230174   5.983   2.238   7.733  0.3283  0.4650  0.3275
 2872TIP3    H130175   6.061   2.197   7.696  0.3924 -0.3676  1.3530
 2872TIP3    H230176   6.016   2.318   7.773  0.3294  1.1369 -0.9458
 2873TIP3   OH230177   2.183   3.911   0.149  0.1572  0.4979 -0.5275
 2873TIP3    H130178   2.172   3.967   0.226  1.3235 -0.8445  0.6746
 2873TIP3    H230179   2.148   3.826   0.177  1.0752 -0.1469 -1.2966
 2874TIP3   OH230180   0.708   2.543   2.816 -0.3975  0.3909 -0.7239
 2874TIP3    H130181   0.731   2.629   2.852 -0.0816 -0.1602  0.4570
 2874TIP3    H230182   0.792   2.496   2.811 -0.6718 -0.1249 -0.5594
 2875TIP3   OH230183   6.675   2.233   0.180 -0.2239 -0.0663  0.1765
 2875TIP3    H130184   6.745   2.198   0.125  0.8236 -0.5998  1.8076
 2875TIP3    H230185   6.664   2.323   0.149  1.7097  0.2819  0.3753
 2876TIP3   OH230186   3.507   2.092   1.687  0.2458 -0.2909  0.2654
 2876TIP3    H130187   3.501   2.164   1.750  1.5001  0.2206 -0.1804
 2876TIP3    H230188   3.596   2.097   1.653  0.4891 -2.2822  0.4874
 2877TIP3   OH230189   6.714   0.842   2.334 -0.2483  0.1296  0.0876
 2877TIP3    H130190   6.665   0.899   2.274 -0.5907  0.1161  0.3545
 2877TIP3    H230191   6.693   0.875   2.421  1.2187  0.9462  0.1736
 2878TIP3   OH230192   2.803   0.406   1.064  0.3751  0.5383  0.5874
 2878TIP3    H130193   2.868   0.473   1.087  2.3173 -1.3273  0.8689
 2878TIP3    H230194   2.824   0.381   0.974  0.9344 -1.0070  1.1211
 2879TIP3   OH230195   6.769   0.362   2.698 -0.6981  0.8800 -0.1729
 2879TIP3    H130196   6.760   0.394   2.787 -2.4805  1.1708 -0.4332
 2879TIP3    H230197   6.743   0.270   2.701  0.8312  0.4217 -0.1162
 2880TIP3   OH230198   5.254   1.577   8.376  0.0364  0.2056  0.4528
 2880TIP3    H130199   5.229   1.492   8.340  1.0473  0.4757 -0.9672
 2880TIP3    H230200   5.178   1.633   8.362  0.5077  0.3864 -1.6056
 2881TIP3   OH230201   0.266   0.450   8.455  0.2085  0.0074 -0.1031
 2881TIP3    H130202   0.271   0.504   8.534  0.8863 -1.6084  1.0100
 2881TIP3    H230203   0.357   0.427   8.437  0.1446  0.9371 -1.8234
 2882TIP3   OH230204   3.586   5.433   8.409 -1.0617 -0.4565 -0.6416
 2882TIP3    H130205   3.604   5.410   8.500 -0.2338 -1.5369 -1.0574
 2882TIP3    H230206   3.671   5.426   8.365 -1.1231  1.6733 -1.1868
 2883TIP3   OH230207   2.655   0.746   0.367  0.1707 -0.4869  0.2002
 2883TIP3    H130208   2.724   0.773   0.428 -1.4153 -2.3831  3.0423
 2883TIP3    H230209   2.686   0.662   0.332  0.7203  0.2298 -1.1194
 2884TIP3   OH230210   4.481   6.285   7.185  0.2582 -0.1884  0.1844
 2884TIP3    H130211   4.427   6.317   7.257 -0.6626 -0.3014 -0.4427
 2884TIP3    H230212   4.420   6.240   7.127  1.2404 -1.6013  0.1829
 2885TIP3   OH230213   1.161   0.966   0.368  0.5736  0.6302 -0.1558
 2885TIP3    H130214   1.160   1.033   0.299  1.9837  1.8780  0.9480
 2885TIP3    H230215   1.140   1.015   0.448  0.8002 -0.4232  0.5626
 2886TIP3   OH230216   2.845   6.033   0.541  0.3941  0.0013 -0.3351
 2886TIP3    H130217   2.788   5.993   0.608  0.0680  0.2066 -0.4841
 2886TIP3    H230218   2.793   6.107   0.508  0.7643  0.2070 -0.4544
 2887TIP3   OH230219   5.865   0.289   3.195 -0.0640  0.1578  0.3481
 2887TIP3    H130220   5.940   0.274   3.137  0.9058  1.8938  1.0969
 2887TIP3    H230221   5.875   0.223   3.264 -0.4867 -1.0386 -0.6748
 2888TIP3   OH230222   4.860   1.570   2.675 -0.2338 -0.3560 -0.2615
 2888TIP3    H130223   4.814   1.559   2.591 -1.3512 -1.2571  0.4266
 2888TIP3    H230224   4.833   1.657   2.706  0.8215  0.3197 -1.1914
 2889TIP3   OH230225   6.407   4.768   1.345  0.1223 -0.5959  0.1453
 2889TIP3    H130226   6.437   4.679   1.359  0.3152 -0.8542 -1.6634
 2889TIP3    H230227   6.336   4.760   1.281 -1.3265  0.3563  1.5653
 2890TIP3   OH230228   3.574   6.383   7.054  0.1317  0.2428 -0.1479
 2890TIP3    H130229   3.512   6.409   7.122  0.4098  0.3936  0.0472
 2890TIP3    H230230   3.520   6.337   6.989 -0.6128  2.2667 -1.0630
 2891TIP3   OH230231   0.063   5.431   3.086  0.2077 -0.4965  0.1008
 2891TIP3    H130232   0.126   5.397   3.021  0.5211 -0.1629  0.2263
 2891TIP3    H230233  -0.022   5.421   3.044  0.5480  1.8689 -1.3816
 2892TIP3   OH230234   4.010   3.226   8.299 -0.1040  0.5289  0.2910
 2892TIP3    H130235   4.058   3.264   8.225 -0.1028 -1.4276 -0.7913
 2892TIP3    H230236   3.921   3.261   8.290 -0.2570 -0.1356 -1.0225
 2893TIP3   OH230237   0.101   6.731   1.414  1.0650  0.3266  0.3033
 2893TIP3    H130238   0.143   6.734   1.500  2.1434  2.6335 -0.1987
 2893TIP3    H230239   0.144   6.802   1.365 -1.0186  0.4976 -1.4187
 2894TIP3   OH230240   6.650   5.330   3.059 -0.3538 -0.0688 -0.0799
 2894TIP3    H130241   6.684   5.246   3.028 -0.4056 -0.1797  0.1607
 2894TIP3    H230242   6.621   5.312   3.149 -0.4978  0.1711 -0.0789
 2895TIP3   OH230243   6.137   2.428   2.951  0.1875  0.5943  0.0766
 2895TIP3    H130244   6.094   2.405   2.869 -0.0744  0.9962  0.0999
 2895TIP3    H230245   6.215   2.372   2.953 -1.0228 -1.1409  0.7097
 2896TIP3   OH230246   4.078   0.502   7.646  0.2648  0.7273 -0.3150
 2896TIP3    H130247   4.011   0.561   7.612  0.9144  0.6900 -1.6918
 2896TIP3    H230248   4.157   0.524   7.598  1.2126  0.6079  1.1288
 2897TIP3   OH230249   3.926   4.989   0.114 -0.3660  0.1559  0.0485
 2897TIP3    H130250   3.917   5.068   0.062  0.3418 -0.6285 -1.3150
 2897TIP3    H230251   4.020   4.970   0.113 -0.4783 -0.4914  0.6873
 2898TIP3   OH230252   5.998   5.158   0.682 -0.2298  1.1115  0.2542
 2898TIP3    H130253   5.954   5.195   0.606  0.7398  0.5138 -0.6170
 2898TIP3    H230254   6.001   5.064   0.666  3.1486  1.2748 -0.7720
 2899TIP3   OH230255   1.159   6.757   1.321 -0.8562 -0.1723  0.0545
 2899TIP3    H130256   1.239   6.748   1.373  0.6593  2.3297 -1.6094
 2899TIP3    H230257   1.109   6.825   1.366 -0.7982  0.1222 -0.3263
 2900TIP3   OH230258   4.595   0.894   0.879 -0.1198 -0.5272  0.0485
 2900TIP3    H130259   4.519   0.908   0.823  0.6767  3.5814 -0.3283
 2900TIP3    H230260   4.563   0.908   0.968 -0.4794 -2.7063  0.3257
 2901TIP3   OH230261   3.427   4.322   0.744  0.0465  0.6789  0.1119
 2901TIP3    H130262   3.353   4.382   0.733  1.1159  2.1269  0.4342
 2901TIP3    H230263   3.502   4.371   0.709  0.8014 -0.8946 -0.5463
 2902TIP3   OH230264   0.398   5.063   1.848 -0.0592 -0.5451  0.0762
 2902TIP3    H130265   0.322   5.041   1.902 -0.9422  0.9429 -0.4929
 2902TIP3    H230266   0.394   5.001   1.775 -1.1366 -0.0888 -0.2843
 2903TIP3   OH230267   4.407   3.214   1.434 -0.3598  0.4504 -0.5917
 2903TIP3    H130268   4.503   3.211   1.429 -0.3771 -1.0474 -0.6284
 2903TIP3    H230269   4.388   3.194   1.526 -0.6394  1.3294 -0.4491
 2904TIP3   OH230270   2.082   0.324   0.779 -0.9089  0.4879 -0.5267
 2904TIP3    H130271   2.115   0.255   0.837 -1.8601  0.8586  0.4951
 2904TIP3    H230272   2.034   0.277   0.712  0.2137  0.0484 -1.0577
 2905TIP3   OH230273   6.543   0.648   8.693 -0.0400 -0.1378  0.4673
 2905TIP3    H130274   6.558   0.555   8.706  0.9642 -0.0565  0.0215
 2905TIP3    H230275   6.618   0.691   8.734 -0.5178  0.4793  0.7174
 2906TIP3   OH230276   0.944   4.680   3.251 -0.6426 -0.4956  0.0401
 2906TIP3    H130277   0.902   4.741   3.311  0.3740 -0.3390  0.6149
 2906TIP3    H230278   0.899   4.693   3.168 -0.4246  1.0578  0.1391
 2907TIP3   OH230279   2.036   3.781   7.586 -0.2453 -0.1648 -0.1789
 2907TIP3    H130280   2.062   3.845   7.519  1.9302 -0.3251  0.4428
 2907TIP3    H230281   2.032   3.831   7.667  0.3983 -0.5916  0.1234
 2908TIP3   OH230282   6.194   6.158   1.783  0.0208  0.4576 -0.4159
 2908TIP3    H130283   6.210   6.180   1.691 -2.8769  1.4075 -0.7936
 2908TIP3    H230284   6.113   6.108   1.781 -0.0395  0.4071  1.6446
 2909TIP3   OH230285   2.239   3.635   7.125  0.6343 -0.1906  0.3964
 2909TIP3    H130286   2.268   3.697   7.192 -1.5084  0.0532  1.1685
 2909TIP3    H230287   2.227   3.688   7.046  2.3207 -0.3266  0.0048
 2910TIP3   OH230288   2.966   3.874   0.187  0.4962 -0.3860  0.1306
 2910TIP3    H130289   2.883   3.908   0.154  0.7041  0.4922  0.4953
 2910TIP3    H230290   2.949   3.781   0.203  0.3331 -0.8540 -2.3118
 2911TIP3   OH230291   5.241   5.947   1.153  0.0264  0.3206 -0.2488
 2911TIP3    H130292   5.197   5.974   1.234  0.6528  0.6872 -0.0263
 2911TIP3    H230293   5.259   6.030   1.107 -0.1565  0.1270 -0.6774
 2912TIP3   OH230294   1.728   3.610   1.159  0.3543  0.0440 -0.2340
 2912TIP3    H130295   1.788   3.632   1.230 -0.9944 -0.0106  0.9849
 2912TIP3    H230296   1.703   3.519   1.175 -2.2494  0.8777  1.0633
 2913TIP3   OH230297   3.527   5.059   7.080 -0.2239  0.1661  0.1980
 2913TIP3    H130298   3.594   5.018   7.024 -0.5616 -0.7819  0.4730
 2913TIP3    H230299   3.552   5.034   7.169  0.5761  2.0516  0.5516
 2914TIP3   OH230300   1.251   3.675   0.203 -0.0537 -0.0013 -0.5247
 2914TIP3    H130301   1.213   3.737   0.142  0.7676  0.5593 -0.4846
 2914TIP3    H230302   1.247   3.591   0.157  0.3917  0.3843 -1.2918
 2915TIP3   OH230303   0.918   3.513   2.668 -0.7031 -0.8641  0.1271
 2915TIP3    H130304   0.942   3.420   2.672 -1.2032 -1.0840 -1.2900
 2915TIP3    H230305   0.858   3.525   2.742  0.2510 -1.3744  1.0143
 2916TIP3   OH230306   3.751   0.343   1.468 -0.0147  0.7781 -0.6121
 2916TIP3    H130307   3.712   0.431   1.475  0.9146  1.0785  1.5426
 2916TIP3    H230308   3.696   0.288   1.523  0.4933  0.4466 -0.4271
 2917TIP3   OH230309   3.837   1.874   0.240 -0.3714  0.3676  0.2309
 2917TIP3    H130310   3.921   1.903   0.275 -0.5960  0.6752  0.5233
 2917TIP3    H230311   3.860   1.809   0.173  0.1015  0.5555  0.2050
 2918TIP3   OH230312   1.567   4.714   2.560  0.0363 -0.4016  0.0298
 2918TIP3    H130313   1.556   4.758   2.644 -1.4039  1.1454 -0.9176
 2918TIP3    H230314   1.482   4.721   2.517  0.8647 -0.7148 -1.7744
 2919TIP3   OH230315   6.433   4.317   2.096  0.1887  0.5831 -0.2141
 2919TIP3    H130316   6.353   4.271   2.123  0.3337  0.0075 -0.7360
 2919TIP3    H230317   6.411   4.354   2.011  0.3039  0.9024 -0.1065
 2920TIP3   OH230318   5.522   2.860   0.948 -0.0837 -0.0658  0.3118
 2920TIP3    H130319   5.468   2.844   0.870  0.2910 -1.8965  0.3699
 2920TIP3    H230320   5.581   2.785   0.951 -0.0925 -0.0347  2.3712
 2921TIP3   OH230321   4.340   2.812   0.246  0.2720  0.1179  0.2984
 2921TIP3    H130322   4.331   2.721   0.275  1.8406 -0.0066  0.4762
 2921TIP3    H230323   4.250   2.843   0.237 -0.2984 -1.4769  0.1481
 2922TIP3   OH230324   1.534   0.157   7.303  0.3705 -0.4011  0.0524
 2922TIP3    H130325   1.457   0.129   7.351 -0.7440  0.0189 -1.4201
 2922TIP3    H230326   1.593   0.081   7.305  0.0452 -0.6421  1.3771
 2923TIP3   OH230327   2.748   5.263   1.748 -0.4428 -0.0813  0.5093
 2923TIP3    H130328   2.775   5.177   1.716 -0.9923 -0.1177  0.1408
 2923TIP3    H230329   2.793   5.325   1.691  1.9388 -0.0312  2.2755
 2924TIP3   OH230330   3.837   4.167   8.388 -0.4992  0.6581  0.7391
 2924TIP3    H130331   3.923   4.141   8.420  0.3917  0.0787 -1.8860
 2924TIP3    H230332   3.779   4.094   8.412 -0.1576  0.8081  2.0432
 2925TIP3   OH230333   3.145   5.322   2.697 -0.1829 -0.6384  0.0985
 2925TIP3    H130334   3.122   5.407   2.660 -0.9496 -0.4888  0.8907
 2925TIP3    H230335   3.089   5.314   2.775  2.6315 -0.1363  2.3250
 2926TIP3   OH230336   2.092   4.409   0.642 -0.2988  0.0278  0.8053
 2926TIP3    H130337   2.154   4.336   0.646  0.0954  0.3418  0.4663
 2926TIP3    H230338   2.147   4.488   0.642 -0.6755  0.3003  0.0217
 2927TIP3   OH230339   3.812   3.286   1.708 -0.1656  0.2563  0.5526
 2927TIP3    H130340   3.796   3.324   1.794 -1.5681  1.2475 -0.1042
 2927TIP3    H230341   3.728   3.246   1.683  0.0954  0.3190 -0.4990
 2928TIP3   OH230342   5.285   6.541   2.843  0.2647  0.0897 -0.2436
 2928TIP3    H130343   5.244   6.513   2.762  1.1677  1.3059 -1.1738
 2928TIP3    H230344   5.233   6.500   2.912 -3.2368  2.3688 -1.2518
 2929TIP3   OH230345   6.671   4.584   8.577 -0.2376 -0.1990 -0.5314
 2929TIP3    H130346   6.728   4.534   8.635  0.4563  1.8880  0.7156
 2929TIP3    H230347   6.684   4.675   8.604 -0.4129  0.8190 -3.5683
 2930TIP3   OH230348   6.604   0.538   1.893 -0.4132 -0.1591 -0.0888
 2930TIP3    H130349   6.606   0.569   1.984 -0.6523  0.6879 -0.3593
 2930TIP3    H230350   6.697   0.532   1.868 -0.2946 -1.8415  0.6684
 2931TIP3   OH230351   5.969   3.313   1.550 -0.7806 -0.2703  0.1225
 2931TIP3    H130352   6.047   3.265   1.523 -1.2033 -0.8301 -0.1140
 2931TIP3    H230353   5.985   3.403   1.519  1.1561  0.4265  2.8194
 2932TIP3   OH230354   6.714   6.267   6.808 -0.4311 -0.1167  0.8028
 2932TIP3    H130355   6.688   6.311   6.727  0.0507 -0.3796  0.4961
 2932TIP3    H230356   6.691   6.175   6.793  0.8280 -0.3963  0.4337
 2933TIP3   OH230357   0.985   5.134   8.614 -0.6716 -0.0456  0.5805
 2933TIP3    H130358   1.078   5.112   8.602 -0.2023  2.7399 -1.8929
 2933TIP3    H230359   0.972   5.127   8.709  2.4681  0.7753  1.2175
 2934TIP3   OH230360   4.057   3.034   1.828 -0.9479 -0.3600  0.0216
 2934TIP3    H130361   4.009   3.090   1.768  0.4032  0.6010 -0.2061
 2934TIP3    H230362   4.136   3.084   1.850 -0.3543 -1.6117  0.8630
 2935TIP3   OH230363   3.368   5.163   7.782  0.4516 -0.3033  0.0571
 2935TIP3    H130364   3.336   5.192   7.697 -0.0183 -0.8724  0.0348
 2935TIP3    H230365   3.294   5.118   7.822  0.8863 -0.6687  0.4696
 2936TIP3   OH230366   0.731   2.678   2.165 -0.0044  0.5531  0.3374
 2936TIP3    H130367   0.814   2.660   2.209 -1.3336  0.0381  2.7913
 2936TIP3    H230368   0.748   2.657   2.073  1.9795 -1.6447  1.0987
 2937TIP3   OH230369   0.340   4.247   3.275  0.0448  0.2371  0.2234
 2937TIP3    H130370   0.397   4.251   3.198 -2.2108  0.9101 -1.5081
 2937TIP3    H230371   0.367   4.322   3.329  1.0577  0.2995 -0.3479
 2938TIP3   OH230372   6.064   5.487   0.969  0.0150 -0.0810 -0.3056
 2938TIP3    H130373   6.070   5.580   0.948 -1.7406  0.3897  1.0764
 2938TIP3    H230374   6.096   5.480   1.059  0.6391 -0.9037 -0.5819
 2939TIP3   OH230375   2.479   6.738   2.911  0.1533 -0.2519  0.3388
 2939TIP3    H130376   2.400   6.687   2.929  0.2936 -0.8647 -0.7000
 2939TIP3    H230377   2.447   6.818   2.870  0.0341 -0.2451  0.4441
 2940TIP3   OH230378   3.410   3.986   8.345 -0.1135  0.4668  0.2327
 2940TIP3    H130379   3.320   3.956   8.355  0.1209 -0.1280  0.5867
 2940TIP3    H230380   3.401   4.077   8.316 -0.8294 -0.2236 -1.8919
 2941TIP3   OH230381   3.759   6.271   8.038  0.4950 -0.2282 -0.2685
 2941TIP3    H130382   3.813   6.350   8.027  1.1976 -0.4260  1.4304
 2941TIP3    H230383   3.710   6.264   7.956  0.5710  1.8558 -0.5627
 2942TIP3   OH230384   3.627   4.100   0.186 -0.2044 -0.1741  0.4233
 2942TIP3    H130385   3.535   4.127   0.186 -0.2811 -0.4197  1.2731
 2942TIP3    H230386   3.633   4.033   0.254  0.7898  0.4653  0.9941
 2943TIP3   OH230387   4.514   5.571   0.713  0.9115 -0.1902 -0.3791
 2943TIP3    H130388   4.474   5.510   0.650  0.9761 -1.2911  0.6040
 2943TIP3    H230389   4.439   5.608   0.760  0.9066 -0.1336 -0.4317
 2944TIP3   OH230390   2.743   3.373   7.677 -0.0999 -0.1441 -0.0707
 2944TIP3    H130391   2.658   3.407   7.649 -0.9533 -1.0177  1.3569
 2944TIP3    H230392   2.744   3.281   7.647  0.5411 -0.0291 -0.4475
 2945TIP3   OH230393   1.849   1.112   0.187  0.1038  0.3845  0.0473
 2945TIP3    H130394   1.772   1.155   0.224 -1.0267  0.5240 -2.2914
 2945TIP3    H230395   1.831   1.018   0.195 -1.7302  0.3591 -2.9735
 2946TIP3   OH230396   3.880   2.513   0.740  0.6924  0.2908  1.1187
 2946TIP3    H130397   3.889   2.516   0.644 -0.8158 -0.4792  0.9204
 2946TIP3    H230398   3.892   2.604   0.768 -3.0431  1.4082 -0.3003
 2947TIP3   OH230399   4.156   3.150   3.652  0.5670  0.5968  0.1628
 2947TIP3    H130400   4.126   3.133   3.563  0.3132  2.0717 -0.0647
 2947TIP3    H230401   4.249   3.170   3.642  0.8196 -0.4349  0.3966
 2948TIP3   OH230402   5.198   0.119   8.579 -0.7944 -0.0992  0.3321
 2948TIP3    H130403   5.207   0.212   8.562  2.6849 -0.4053 -0.1611
 2948TIP3    H230404   5.193   0.112   8.674  1.4185  0.5589  0.5551
 2949TIP3   OH230405   1.173   5.599   0.774  0.1390  0.0201  0.0607
 2949TIP3    H130406   1.169   5.580   0.680  4.0755 -0.2194 -0.2347
 2949TIP3    H230407   1.176   5.512   0.815 -0.6229  0.1235  0.3445
 2950TIP3   OH230408   2.048   3.630   2.633  0.0310 -0.1858 -0.5729
 2950TIP3    H130409   1.990   3.590   2.568 -2.3288 -2.8363  2.8610
 2950TIP3    H230410   1.997   3.702   2.670  0.3872 -0.2183 -0.0145
 2951TIP3   OH230411   2.247   1.935   7.866  0.3435  0.0433 -0.3355
 2951TIP3    H130412   2.341   1.945   7.886  0.4990 -2.5144  0.5419
 2951TIP3    H230413   2.241   1.853   7.818 -1.6753 -1.2717  1.9368
 2952TIP3   OH230414   4.183   0.911   8.585  0.2928 -0.3914 -0.0199
 2952TIP3    H130415   4.277   0.928   8.579  0.3084 -0.7310 -0.8241
 2952TIP3    H230416   4.143   0.998   8.574  0.4781 -0.4025 -0.8253
 2953TIP3   OH230417   1.357   2.951   1.486 -0.5941  0.0469 -0.1110
 2953TIP3    H130418   1.440   2.909   1.464 -0.0936  0.8001  0.2639
 2953TIP3    H230419   1.360   3.035   1.441  0.0393  1.2166  1.9607
 2954TIP3   OH230420   1.005   3.077   8.667 -0.3429 -0.1294  0.4560
 2954TIP3    H130421   0.930   3.133   8.687 -0.9210 -0.7593  0.0919
 2954TIP3    H230422   1.081   3.127   8.696 -0.9088  0.4942  0.8812
 2955TIP3   OH230423   5.826   1.779   1.494  0.1456 -0.1048  0.2653
 2955TIP3    H130424   5.805   1.853   1.552  0.5597 -0.3338  0.7153
 2955TIP3    H230425   5.855   1.710   1.553  3.8141  0.7025 -0.3309
 2956TIP3   OH230426   1.341   0.855   1.578  0.0353 -0.5160 -0.3305
 2956TIP3    H130427   1.375   0.887   1.495  1.3678 -1.3836 -0.1329
 2956TIP3    H230428   1.297   0.773   1.557  0.4518 -0.7819 -0.1651
 2957TIP3   OH230429   4.131   4.290   2.341 -0.2902  0.7562 -0.0344
 2957TIP3    H130430   4.126   4.306   2.435 -0.6024 -0.8719  0.2575
 2957TIP3    H230431   4.225   4.298   2.321 -0.1531  0.6054  0.5192
 2958TIP3   OH230432   1.041   1.186   1.394 -0.1992 -0.0160  0.6107
 2958TIP3    H130433   1.037   1.231   1.478 -0.5804  1.3305 -0.0967
 2958TIP3    H230434   1.111   1.229   1.346  0.1407 -0.8971  0.2823
 2959TIP3   OH230435   1.158   3.547   2.439  0.4288 -0.2787 -0.0326
 2959TIP3    H130436   1.197   3.634   2.429 -0.6554  0.3029  0.6145
 2959TIP3    H230437   1.190   3.515   2.523 -1.2822  0.6631  1.0299
 2960TIP3   OH230438   1.705   2.536   7.461 -0.0961  0.1295  0.6750
 2960TIP3    H130439   1.680   2.576   7.544  0.3496  0.2265  0.7649
 2960TIP3    H230440   1.712   2.610   7.400 -0.1985  0.0855  0.6116
 2961TIP3   OH230441   0.653   4.151   8.262 -0.2511  0.1416 -0.6686
 2961TIP3    H130442   0.685   4.072   8.307 -0.0178 -0.6645 -2.1739
 2961TIP3    H230443   0.653   4.127   8.169 -1.5751  1.4417 -1.0400
 2962TIP3   OH230444   4.646   0.251   1.562  0.0901 -0.2941 -0.8001
 2962TIP3    H130445   4.560   0.244   1.604  0.2468  1.6422 -0.0816
 2962TIP3    H230446   4.634   0.212   1.476 -1.6977  0.5181 -0.9546
 2963TIP3   OH230447   4.952   1.652   1.595  0.0441 -0.2362 -0.1523
 2963TIP3    H130448   4.998   1.695   1.667  1.0390  0.2795 -1.0625
 2963TIP3    H230449   4.871   1.618   1.634  0.4734  0.1968  1.1485
 2964TIP3   OH230450   2.749   4.810   2.150 -0.2223  0.2130 -0.6488
 2964TIP3    H130451   2.711   4.723   2.143 -0.2107  0.2256 -0.8742
 2964TIP3    H230452   2.699   4.853   2.219  0.4432 -0.3212  0.1867
 2965TIP3   OH230453   3.548   0.693   8.374  0.8943  0.6750  0.0523
 2965TIP3    H130454   3.586   0.758   8.316  1.9989 -0.2417 -0.2730
 2965TIP3    H230455   3.621   0.662   8.428  0.4528 -0.4658  0.0285
 2966TIP3   OH230456   3.943   0.510   0.475  0.0452 -0.2908 -0.3647
 2966TIP3    H130457   3.896   0.428   0.485 -1.6016  0.6787  0.2626
 2966TIP3    H230458   3.884   0.577   0.510  1.2636  1.1928 -0.9789
 2967TIP3   OH230459   1.197   4.201   1.445  0.0808 -0.1279  0.3026
 2967TIP3    H130460   1.165   4.259   1.513 -1.0548 -1.2199  0.7336
 2967TIP3    H230461   1.237   4.128   1.492  1.6865  0.3566 -0.2340
 2968TIP3   OH230462   2.142   6.421   1.372 -0.4881 -0.5350  0.2220
 2968TIP3    H130463   2.097   6.501   1.345 -1.8127 -0.7977  1.5063
 2968TIP3    H230464   2.180   6.444   1.457  1.0076 -0.6264 -0.4018
 2969TIP3   OH230465   4.141   2.440   7.858  0.4759 -0.7310  0.5903
 2969TIP3    H130466   4.176   2.524   7.888  1.8644 -0.4275 -1.6511
 2969TIP3    H230467   4.052   2.438   7.891  0.8777  0.9653  1.9193
 2970TIP3   OH230468   4.628   5.768   0.981  0.5427  0.0060  0.6023
 2970TIP3    H130469   4.673   5.684   0.986  0.3363 -0.1211  0.3081
 2970TIP3    H230470   4.613   5.782   0.887  0.2708  0.2092  0.6764
 2971TIP3   OH230471   6.640   1.005   0.105 -0.0146 -0.3739  0.3368
 2971TIP3    H130472   6.658   1.099   0.098  0.9191 -0.4355  1.5309
 2971TIP3    H230473   6.591   0.984   0.026  0.8237  0.8688 -0.5512
 2972TIP3   OH230474   0.535   5.354   8.501 -0.0761  0.6954 -0.4276
 2972TIP3    H130475   0.581   5.416   8.556  3.8424 -1.1768 -1.2128
 2972TIP3    H230476   0.537   5.393   8.413 -1.8957  1.4524 -0.1881
 2973TIP3   OH230477   3.545   1.345   3.382  0.2066 -0.6095  0.2867
 2973TIP3    H130478   3.553   1.280   3.452  0.0464 -1.2668 -0.2920
 2973TIP3    H230479   3.454   1.374   3.386  0.0345 -1.0898 -0.0231
 2974TIP3   OH230480   1.892   5.518   2.210 -0.2369  0.1767 -0.3426
 2974TIP3    H130481   1.891   5.599   2.158 -0.3282  0.8060  0.6160
 2974TIP3    H230482   1.929   5.544   2.294 -1.3853 -0.5102  0.3994
 2975TIP3   OH230483   0.231   4.232   1.816  0.4037 -0.1439 -0.1351
 2975TIP3    H130484   0.177   4.269   1.886  2.1477  0.7282  0.8222
 2975TIP3    H230485   0.289   4.171   1.861  1.0351 -0.1441 -0.9278
 2976TIP3   OH230486   1.879   3.183   8.155 -0.0178  0.0198 -0.6968
 2976TIP3    H130487   1.888   3.155   8.064  1.5427 -0.0319 -0.5530
 2976TIP3    H230488   1.893   3.104   8.206  2.4336  0.5913 -0.3529
 2977TIP3   OH230489   5.134   3.263   7.805 -0.0029  0.2971  0.3367
 2977TIP3    H130490   5.163   3.355   7.808 -0.2795  0.3995 -0.0761
 2977TIP3    H230491   5.136   3.241   7.712 -0.9264  0.1980  0.3323
 2978TIP3   OH230492   2.833   0.174   1.679  0.0707  0.4481  0.0175
 2978TIP3    H130493   2.885   0.184   1.599  0.2467  0.9582  0.1950
 2978TIP3    H230494   2.896   0.144   1.745 -0.1779 -0.5011 -0.1595
 2979TIP3   OH230495   2.050   3.310   1.110  0.1168 -0.1820  0.0801
 2979TIP3    H130496   1.963   3.271   1.102 -0.3409  0.9315 -0.6876
 2979TIP3    H230497   2.036   3.386   1.168  0.4067  0.4390 -0.6468
 2980TIP3   OH230498   1.177   2.761   1.410 -0.3426  0.0547  0.7105
 2980TIP3    H130499   1.225   2.843   1.424 -1.0849  1.1110 -2.2480
 2980TIP3    H230500   1.086   2.787   1.399 -0.8198 -1.3394  1.1288
 2981TIP3   OH230501   4.463   3.636   8.638 -0.4451  0.1932  0.0443
 2981TIP3    H130502   4.476   3.724   8.673  0.2883 -0.0321  0.3706
 2981TIP3    H230503   4.392   3.599   8.691 -1.0824  0.7495 -0.4099
 2982TIP3   OH230504   5.235   3.983   7.501 -0.7956 -0.1183  0.4486
 2982TIP3    H130505   5.329   3.993   7.492 -0.9916  0.4135 -1.4341
 2982TIP3    H230506   5.215   3.900   7.457 -1.4293  0.7867 -1.0164
 2983TIP3   OH230507   1.301   0.257   8.652 -0.0976  0.1153 -0.4713
 2983TIP3    H130508   1.340   0.173   8.674  0.1398  0.0277 -1.2023
 2983TIP3    H230509   1.311   0.265   8.557  0.0522  1.0537 -0.3893
 2984TIP3   OH230510   0.344   6.652   0.979  0.6049 -0.4779 -0.3604
 2984TIP3    H130511   0.248   6.654   0.973  0.6007 -0.3091 -0.2627
 2984TIP3    H230512   0.373   6.639   0.889  0.4725 -1.4385 -0.2717
 2985TIP3   OH230513   3.457   3.489   7.526 -0.1328 -0.5670  0.1600
 2985TIP3    H130514   3.498   3.541   7.595 -0.7457 -0.2037  0.2582
 2985TIP3    H230515   3.469   3.542   7.447  1.4562 -1.4417 -0.2172
 2986TIP3   OH230516   1.798   6.091   0.188 -0.0514 -0.1511  0.0788
 2986TIP3    H130517   1.818   5.997   0.180  0.0170 -0.1463  0.1921
 2986TIP3    H230518   1.774   6.102   0.280  0.3380  0.0197  0.1622
 2987TIP3   OH230519   2.222   3.690   0.615 -0.3191  0.0103 -0.1223
 2987TIP3    H130520   2.161   3.760   0.637 -0.4159  0.1223 -0.7400
 2987TIP3    H230521   2.303   3.735   0.591 -0.1692 -0.1166  0.1361
 2988TIP3   OH230522   5.169   1.911   0.483 -0.1066 -0.2499 -0.2918
 2988TIP3    H130523   5.098   1.896   0.421  0.0722 -1.1994 -0.2843
 2988TIP3    H230524   5.243   1.862   0.447 -0.8089 -3.5308  2.1521
 2989TIP3   OH230525   2.917   0.997   1.460 -0.0627 -0.0930  0.1144
 2989TIP3    H130526   2.954   1.086   1.463 -0.5606  0.1090  0.3816
 2989TIP3    H230527   2.832   1.005   1.503 -0.5368 -0.4905 -0.7139
 2990TIP3   OH230528   1.958   1.768   0.828 -0.5684 -0.1256 -0.4142
 2990TIP3    H130529   2.045   1.731   0.837  0.8903  3.1893  0.9495
 2990TIP3    H230530   1.915   1.753   0.913  0.4114  1.9491  0.5217
 2991TIP3   OH230531   1.180   4.883   1.865 -0.0856 -0.2228  0.3793
 2991TIP3    H130532   1.214   4.804   1.822 -0.9345 -0.7615  0.6647
 2991TIP3    H230533   1.086   4.868   1.871 -0.2990  0.9637  0.1598
 2992TIP3   OH230534   2.667   3.167   2.126  0.0824  0.0482 -0.7082
 2992TIP3    H130535   2.756   3.153   2.158 -1.0412  0.8080  3.2750
 2992TIP3    H230536   2.665   3.258   2.098  0.3754  0.2722 -0.0177
 2993TIP3   OH230537   4.178   1.841   0.539  0.5641  0.3116 -0.7992
 2993TIP3    H130538   4.198   1.899   0.466 -0.0317  0.8358 -0.5544
 2993TIP3    H230539   4.089   1.866   0.566  0.4490 -0.4539 -0.4479
 2994TIP3   OH230540   5.454   3.913   1.255 -0.1420  0.3908 -0.2566
 2994TIP3    H130541   5.532   3.965   1.238  0.4757 -1.0011 -2.1846
 2994TIP3    H230542   5.381   3.974   1.245  0.6485  1.5528  0.8494
 2995TIP3   OH230543   4.232   0.687   3.025 -0.2888 -0.6016 -0.2988
 2995TIP3    H130544   4.234   0.773   2.983 -1.1755 -0.0929  0.6489
 2995TIP3    H230545   4.272   0.702   3.111 -1.7201 -0.8023  0.4262
 2996TIP3   OH230546   3.868   1.535   8.171  0.3571  0.7513 -0.3069
 2996TIP3    H130547   3.907   1.449   8.155 -1.6474  0.0144 -1.5958
 2996TIP3    H230548   3.819   1.524   8.252 -0.5107  0.4231 -0.8620
 2997TIP3   OH230549   6.675   2.584   7.697  0.2967 -0.3396  0.5308
 2997TIP3    H130550   6.579   2.593   7.699  0.4371  1.4322  0.5727
 2997TIP3    H230551   6.704   2.651   7.636  1.5835 -0.0985  1.3749
 2998TIP3   OH230552   0.201   2.808   7.777 -0.0611 -0.1951  0.0758
 2998TIP3    H130553   0.264   2.741   7.801  0.7872  0.0769 -1.2781
 2998TIP3    H230554   0.184   2.792   7.684 -2.0634 -0.3029  0.4120
 2999TIP3   OH230555   4.341   6.007   7.433 -0.4190 -0.2212  0.7373
 2999TIP3    H130556   4.428   5.969   7.419 -0.6866 -0.2824 -1.0140
 2999TIP3    H230557   4.349   6.057   7.514  0.8958 -1.2020  1.2496
 3000TIP3   OH230558   0.040   4.704   0.614 -0.4302 -0.0711 -0.6250
 3000TIP3    H130559  -0.021   4.754   0.559 -0.2174  0.0926 -0.7136
 3000TIP3    H230560   0.070   4.633   0.557 -1.5104 -0.9213 -0.1843
 3001TIP3   OH230561   5.385   3.657   0.257  0.6081  0.0602  0.2235
 3001TIP3    H130562   5.479   3.667   0.242  0.6661 -0.2029  0.4048
 3001TIP3    H230563   5.377   3.576   0.308  0.1338 -0.9203 -1.3396
 3002TIP3   OH230564   4.464   2.231   3.747  0.5413 -0.4038  0.1174
 3002TIP3    H130565   4.519   2.171   3.698 -0.1518  0.2484 -1.5452
 3002TIP3    H230566   4.434   2.180   3.822  1.6376 -1.4488 -0.1200
 3003TIP3   OH230567   2.284   2.557   1.095  0.5504  0.6446  0.0141
 3003TIP3    H130568   2.263   2.606   1.015  2.0265  1.3787  0.0435
 3003TIP3    H230569   2.210   2.498   1.106  0.5660  0.1091 -2.2113
 3004TIP3   OH230570   3.387   3.997   1.946 -0.1791  0.6062 -0.0225
 3004TIP3    H130571   3.402   4.091   1.934 -0.5841  0.9987  2.1475
 3004TIP3    H230572   3.294   3.990   1.967 -0.1289 -0.2836 -0.0647
 3005TIP3   OH230573   5.238   2.173   0.730 -0.2484  0.1116 -0.2830
 3005TIP3    H130574   5.220   2.147   0.820 -0.0217 -0.0848 -0.2933
 3005TIP3    H230575   5.152   2.193   0.693 -0.1941  2.2719  0.6022
 3006TIP3   OH230576   4.863   0.397   1.159 -0.3117  1.1864  0.0776
 3006TIP3    H130577   4.934   0.452   1.191  1.7630 -0.2102 -1.8592
 3006TIP3    H230578   4.874   0.314   1.206 -2.8357  1.9264  2.2656
 3007TIP3   OH230579   2.701   1.981   7.666 -0.1540 -0.4146 -0.5185
 3007TIP3    H130580   2.619   1.978   7.716 -1.5440 -2.0846 -2.6782
 3007TIP3    H230581   2.755   1.913   7.705  1.7020  2.6737  2.9604
 3008TIP3   OH230582   6.512   2.357   1.072 -0.1487 -0.1862 -0.4157
 3008TIP3    H130583   6.499   2.410   1.151  1.2931  0.4049 -0.5516
 3008TIP3    H230584   6.578   2.405   1.022 -0.1183 -1.2164 -1.3805
 3009TIP3   OH230585   0.168   6.617   1.688  0.7467 -0.0927 -0.1368
 3009TIP3    H130586   0.262   6.604   1.672  1.0074  1.4536 -0.0551
 3009TIP3    H230587   0.126   6.540   1.652  2.0945 -1.0636  0.2953
 3010TIP3   OH230588   4.051   2.327   0.902  0.4515  0.1279 -0.4682
 3010TIP3    H130589   3.985   2.382   0.861  0.1688  0.2739  0.1732
 3010TIP3    H230590   4.074   2.373   0.982  2.0860  0.6030 -1.1671
 3011TIP3   OH230591   4.139   3.286   7.102 -0.4303 -0.3427 -0.0375
 3011TIP3    H130592   4.060   3.335   7.078  0.4735  0.1906 -2.1576
 3011TIP3    H230593   4.106   3.201   7.131 -1.8744  0.5388  1.0409
 3012TIP3   OH230594   5.215   5.209   7.900 -0.1820  0.3435  0.2121
 3012TIP3    H130595   5.188   5.291   7.857 -1.2169  0.1488  0.4522
 3012TIP3    H230596   5.237   5.235   7.989  1.3207  0.6441 -0.2277
 3013TIP3   OH230597   4.298   4.694   2.101  0.3007  0.0367  0.2898
 3013TIP3    H130598   4.294   4.647   2.184  0.1120  1.5392  1.1727
 3013TIP3    H230599   4.300   4.625   2.035 -0.2861 -1.2050  1.4994
 3014TIP3   OH230600   0.994   1.205   8.041 -0.1518  0.1201  0.9148
 3014TIP3    H130601   1.055   1.133   8.028 -1.0544 -0.9063  2.0959
 3014TIP3    H230602   1.028   1.276   7.986 -0.5647 -1.9490 -2.3236
 3015TIP3   OH230603   5.980   0.878   8.146  0.0273 -0.5050  0.3723
 3015TIP3    H130604   6.065   0.893   8.105  0.3293 -3.9975 -0.5970
 3015TIP3    H230605   5.917   0.916   8.085  0.7295 -1.8042 -1.2494
 3016TIP3   OH230606   4.063   5.926   1.225 -0.3404  0.1296  0.0785
 3016TIP3    H130607   4.104   5.865   1.286  1.3716  1.5859  0.4523
 3016TIP3    H230608   4.011   5.985   1.279 -2.0211 -0.9312 -0.2865
 3017TIP3   OH230609   4.290   0.946   1.526  0.0412  0.1132  0.2730
 3017TIP3    H130610   4.271   1.019   1.468  0.0365 -1.6918 -2.1666
 3017TIP3    H230611   4.211   0.934   1.579 -0.4515  1.0028 -0.2596
 3018TIP3   OH230612   1.050   2.294   8.535  0.2395 -0.2458  0.5249
 3018TIP3    H130613   1.136   2.316   8.501  0.7486 -0.3338  1.6975
 3018TIP3    H230614   1.049   2.331   8.624 -1.2111  0.4235  0.2649
 3019TIP3   OH230615   4.976   6.375   8.315  0.6320 -0.0541 -0.3260
 3019TIP3    H130616   4.933   6.297   8.351  0.2925 -0.0140 -0.6494
 3019TIP3    H230617   4.985   6.357   8.222 -0.8989  0.9640 -0.6902
 3020TIP3   OH230618   5.033   1.728   8.383  0.2434 -0.2701 -1.0910
 3020TIP3    H130619   4.990   1.757   8.303  1.4494 -0.4422 -1.8107
 3020TIP3    H230620   5.004   1.790   8.450  0.8695  1.1303 -2.0885
 3021TIP3   OH230621   0.169   3.333   0.953 -0.0796  0.4789 -0.3010
 3021TIP3    H130622   0.106   3.394   0.916  1.1075  1.7027 -0.3730
 3021TIP3    H230623   0.246   3.341   0.897  0.1610 -0.9789 -0.2169
 3022TIP3   OH230624   1.911   4.299   1.103  0.7708 -0.2740  0.0153
 3022TIP3    H130625   1.904   4.321   1.196  0.9428  1.2142 -0.2959
 3022TIP3    H230626   1.937   4.207   1.103 -0.5420 -0.6902  1.4087
 3023TIP3   OH230627   5.139   4.502   8.021 -0.5177 -0.1468  0.1969
 3023TIP3    H130628   5.117   4.546   7.938  0.9363  0.1080 -0.0778
 3023TIP3    H230629   5.065   4.523   8.078 -1.8638 -0.8493 -1.2001
 3024TIP3   OH230630   6.136   4.755   1.516 -0.1390 -0.3886 -0.1823
 3024TIP3    H130631   6.075   4.818   1.554 -0.1730  0.4932 -1.6327
 3024TIP3    H230632   6.187   4.805   1.452 -0.5581 -1.9220 -1.8040
 3025TIP3   OH230633   4.019   4.595   8.191  0.3158  0.1638 -0.1584
 3025TIP3    H130634   3.965   4.622   8.117  0.1455 -1.6222 -0.7290
 3025TIP3    H230635   3.964   4.535   8.241  0.2176  1.7599  1.7937
 3026TIP3   OH230636   6.260   5.816   2.951 -0.4473  0.0875  0.3455
 3026TIP3    H130637   6.335   5.818   2.891 -0.4536 -0.7215  0.2900
 3026TIP3    H230638   6.183   5.817   2.894 -0.4701 -2.8816  0.1402
 3027TIP3   OH230639   2.057   0.799   1.960 -0.3332  0.1207 -0.0071
 3027TIP3    H130640   1.970   0.816   1.925 -0.7456 -0.5344  0.6757
 3027TIP3    H230641   2.070   0.704   1.949  0.3885  0.2486 -0.3233
 3028TIP3   OH230642   6.351   6.094   0.914  0.5233  0.2024  0.4602
 3028TIP3    H130643   6.366   6.188   0.921  0.4350  0.1351  1.8405
 3028TIP3    H230644   6.395   6.068   0.833 -0.9834  1.7198 -0.9110
 3029TIP3   OH230645   6.594   5.199   7.350 -0.0266  0.1123  0.0294
 3029TIP3    H130646   6.645   5.122   7.326  0.7932  0.7540 -0.3807
 3029TIP3    H230647   6.647   5.273   7.319 -0.3287  0.8778  1.2463
 3030TIP3   OH230648   0.886   4.870   8.738 -0.1775 -0.7336 -0.1289
 3030TIP3    H130649   0.979   4.875   8.716  0.0725 -1.6231  0.6599
 3030TIP3    H230650   0.841   4.899   8.658  0.7885  2.0662  0.2542
 3031TIP3   OH230651   5.508   6.459   1.886 -0.4865  0.3219 -0.5733
 3031TIP3    H130652   5.564   6.384   1.905 -0.9176  0.6007  2.2057
 3031TIP3    H230653   5.567   6.523   1.845  1.8503  1.1621  3.4634
 3032TIP3   OH230654   6.086   3.303   1.927 -0.0666 -0.0214 -0.2537
 3032TIP3    H130655   6.061   3.330   2.016 -1.3084 -0.1476 -0.5458
 3032TIP3    H230656   6.129   3.381   1.890  0.4910  0.0257  0.4491
 3033TIP3   OH230657   0.357   6.563   0.721 -0.5876 -0.2630 -0.5763
 3033TIP3    H130658   0.270   6.540   0.689 -1.0438  0.9897 -0.2890
 3033TIP3    H230659   0.404   6.480   0.723 -1.5112 -0.8362 -1.5218
 3034TIP3   OH230660   4.665   3.911   0.477  0.2325 -0.5853 -0.1121
 3034TIP3    H130661   4.706   3.983   0.428 -0.7568 -0.1667 -0.3420
 3034TIP3    H230662   4.680   3.934   0.568  1.0916 -0.7857 -0.1897
 3035TIP3   OH230663   4.784   0.998   0.143 -0.3505  0.2008 -0.2182
 3035TIP3    H130664   4.746   0.913   0.119  0.2129 -0.9619  2.5509
 3035TIP3    H230665   4.864   0.975   0.192 -0.2196  2.3167  0.6463
 3036TIP3   OH230666   0.494   3.301   7.986 -0.0213 -0.0962  0.1660
 3036TIP3    H130667   0.524   3.210   7.985 -0.7204 -0.3281 -0.4624
 3036TIP3    H230668   0.553   3.346   7.925 -0.5428 -0.4241 -0.5949
 3037TIP3   OH230669   1.284   0.287   0.741 -0.1436  0.8631  0.0199
 3037TIP3    H130670   1.233   0.212   0.770  0.3554 -0.0338 -1.3357
 3037TIP3    H230671   1.354   0.295   0.806 -0.5412  0.5246  0.4957
 3038TIP3   OH230672   0.964   0.488   0.247  0.4290  0.2849 -0.6316
 3038TIP3    H130673   0.977   0.541   0.326  0.8821 -1.7446  0.7444
 3038TIP3    H230674   1.049   0.447   0.231  0.2807  0.4684 -2.0574
 3039TIP3   OH230675   4.704   6.133   7.483 -0.3239  0.3057 -0.0893
 3039TIP3    H130676   4.732   6.194   7.414  3.4693 -0.7436  0.2812
 3039TIP3    H230677   4.685   6.052   7.438  1.8818 -0.2949 -0.0783
 3040TIP3   OH230678   6.315   3.003   7.886 -0.2592  0.2971  0.1110
 3040TIP3    H130679   6.358   2.975   7.967 -0.1106  0.0294 -0.0579
 3040TIP3    H230680   6.331   2.931   7.825  0.0197  0.7019 -0.2964
 3041TIP3   OH230681   0.204   6.441   8.130 -0.1894  0.2262  0.0580
 3041TIP3    H130682   0.281   6.423   8.185 -0.6837 -0.3480  0.5709
 3041TIP3    H230683   0.240   6.446   8.041  0.5005  0.3392  0.3330
 3042TIP3   OH230684   3.059   2.648   2.610  0.3517 -0.4926 -0.0377
 3042TIP3    H130685   3.030   2.735   2.583 -0.3679 -0.6771  0.1114
 3042TIP3    H230686   3.077   2.656   2.704  0.4972 -0.4499 -0.0693
 3043TIP3   OH230687   1.309   5.936   0.321 -0.0645 -0.1553  0.5244
 3043TIP3    H130688   1.317   6.030   0.342 -0.9293  0.2242 -0.7154
 3043TIP3    H230689   1.235   5.907   0.374 -1.1673  0.4004 -0.6525
 3044TIP3   OH230690   5.121   3.054   1.809  0.1287 -0.3134 -0.0567
 3044TIP3    H130691   5.055   3.067   1.877  0.6618 -1.0107  0.6085
 3044TIP3    H230692   5.168   3.137   1.805  0.8091 -0.6130  1.2248
 3045TIP3   OH230693   3.360   4.498   8.069  0.4081 -0.7123 -0.4581
 3045TIP3    H130694   3.280   4.447   8.082  1.1462 -2.4853 -2.2273
 3045TIP3    H230695   3.332   4.577   8.023 -0.3832 -1.1028 -0.6620
 3046TIP3   OH230696   3.217   0.002   1.116 -1.3504  0.2805 -0.1052
 3046TIP3    H130697   3.208  -0.071   1.177 -0.5190  0.0390 -0.2580
 3046TIP3    H230698   3.299   0.045   1.142 -1.5166  0.7909 -0.4054
 3047TIP3   OH230699   4.899   2.124   2.246  0.3022  0.0398  0.1228
 3047TIP3    H130700   4.939   2.044   2.214  0.0934 -0.0394  0.0554
 3047TIP3    H230701   4.962   2.193   2.225  0.9040 -0.2213  1.0160
 3048TIP3   OH230702   0.925   4.452   0.587  0.0767  0.4881  0.4135
 3048TIP3    H130703   0.939   4.358   0.592 -3.7718 -0.1774  3.9486
 3048TIP3    H230704   1.010   4.491   0.609  1.1653 -2.1853  1.2759
 3049TIP3   OH230705   6.642   0.752   7.844  0.0385  0.0500 -0.1493
 3049TIP3    H130706   6.571   0.816   7.836 -1.0508 -1.0965  0.1185
 3049TIP3    H230707   6.601   0.669   7.821  1.3148 -0.6287  0.0077
 3050TIP3   OH230708   3.115   4.418   0.373  0.3123  0.1087  0.5571
 3050TIP3    H130709   3.040   4.477   0.376  0.4583  0.2922  0.6116
 3050TIP3    H230710   3.077   4.330   0.369  0.0373  0.2643 -1.9363
 3051TIP3   OH230711   2.420   1.053   8.157  0.7158  0.0807 -0.3239
 3051TIP3    H130712   2.433   1.103   8.238 -0.2597 -0.1894  0.0137
 3051TIP3    H230713   2.476   1.096   8.093  2.1394 -0.1809  0.6900
 3052TIP3   OH230714   2.617   1.275   2.456 -0.2267  0.6240  0.0505
 3052TIP3    H130715   2.672   1.353   2.455 -1.1050  1.2575 -0.5308
 3052TIP3    H230716   2.538   1.302   2.504 -0.3163 -0.0681  0.3057
 3053TIP3   OH230717   2.632   6.137   2.241  0.8955  0.2214 -0.2765
 3053TIP3    H130718   2.566   6.194   2.200 -0.6343 -0.2565  1.3777
 3053TIP3    H230719   2.606   6.132   2.333  2.2047 -1.4651  0.0598
 3054TIP3   OH230720   1.672   0.430   2.398 -0.2052 -0.0823 -0.0420
 3054TIP3    H130721   1.722   0.352   2.376 -1.8382 -1.0312 -0.5645
 3054TIP3    H230722   1.717   0.467   2.475  1.1031 -1.0237 -0.3259
 3055TIP3   OH230723   1.313   6.755   1.076  0.0242  0.2528  0.5029
 3055TIP3    H130724   1.239   6.772   1.134  0.7939  2.3328  0.9643
 3055TIP3    H230725   1.355   6.841   1.065  1.5727 -0.6225 -0.8285
 3056TIP3   OH230726   1.507   1.276   8.167 -0.6831 -0.3538  0.5145
 3056TIP3    H130727   1.464   1.244   8.088 -0.2156 -0.0271  0.1196
 3056TIP3    H230728   1.436   1.293   8.229 -0.9041 -3.8915  1.4452
 3057TIP3   OH230729   3.505   0.482   0.905 -0.9623  0.1014 -0.0710
 3057TIP3    H130730   3.539   0.466   0.993  2.8513  0.2424 -1.3228
 3057TIP3    H230731   3.517   0.399   0.859 -2.0979  0.2726 -0.7050
 3058TIP3   OH230732   2.638   4.340   7.609  0.0106  0.4716  0.3657
 3058TIP3    H130733   2.669   4.425   7.576 -0.1606  0.1127 -0.7519
 3058TIP3    H230734   2.673   4.276   7.548  1.1629 -0.4144  1.8838
 3059TIP3   OH230735   6.648   1.411   8.341 -0.2968  0.4683  0.0853
 3059TIP3    H130736   6.690   1.416   8.427  0.0726  1.4906 -0.1418
 3059TIP3    H230737   6.708   1.457   8.282 -0.7609  0.1739 -0.6378
 3060TIP3   OH230738   0.153   0.518   7.659 -0.3994 -0.0773  0.7404
 3060TIP3    H130739   0.164   0.585   7.726  0.1132  0.4368  0.1559
 3060TIP3    H230740   0.097   0.559   7.593  1.4389  0.5082 -0.5409
 3061TIP3   OH230741   5.143   5.930   2.534 -0.2939 -0.1542  0.0746
 3061TIP3    H130742   5.193   5.903   2.611 -0.7812 -0.5398  0.2584
 3061TIP3    H230743   5.088   5.855   2.513 -0.4659  0.1001 -0.3991
 3062TIP3   OH230744   6.086   1.839   2.813 -0.1281  0.6756  0.0935
 3062TIP3    H130745   6.123   1.880   2.736 -0.7861 -0.4855 -0.8792
 3062TIP3    H230746   6.136   1.758   2.823  0.5700  1.2431  1.4534
 3063TIP3   OH230747   6.018   6.512   0.683  0.4916 -0.2143  0.3016
 3063TIP3    H130748   6.065   6.484   0.761  1.4683  2.8406  0.9537
 3063TIP3    H230749   6.085   6.517   0.615 -0.0884 -1.4861 -0.4020
 3064TIP3   OH230750   1.053   3.856   1.490  0.3959  0.1759 -0.5789
 3064TIP3    H130751   0.979   3.917   1.489  0.5920  0.4317  0.1040
 3064TIP3    H230752   1.124   3.905   1.531  0.5338 -0.5324  0.0499
 3065TIP3   OH230753   3.786   5.744   1.307  0.2736 -0.0212  0.1592
 3065TIP3    H130754   3.764   5.784   1.223 -0.6550  1.0774  0.8795
 3065TIP3    H230755   3.716   5.681   1.323  0.8069 -0.7077 -0.1861
 3066TIP3   OH230756   2.224   0.267   8.457  0.5211  0.5728 -0.0148
 3066TIP3    H130757   2.286   0.223   8.398  0.3301 -0.3132  0.4231
 3066TIP3    H230758   2.170   0.321   8.399 -1.0167 -1.8100 -0.9897
 3067TIP3   OH230759   4.133   0.622   8.364 -0.6467  0.3793  0.1085
 3067TIP3    H130760   4.143   0.628   8.459  0.5732 -1.1790  0.1151
 3067TIP3    H230761   4.190   0.550   8.338  0.2949  1.7754 -2.0143
 3068TIP3   OH230762   1.534   2.011   7.813 -0.6172  0.4742 -0.0940
 3068TIP3    H130763   1.511   1.933   7.763 -0.0943 -0.4815  1.0903
 3068TIP3    H230764   1.468   2.015   7.883 -0.2264  0.6877  0.2700
 3069TIP3   OH230765   2.415   5.000   3.004 -0.2598 -0.0229 -0.1454
 3069TIP3    H130766   2.396   4.982   2.912  0.5228  0.4445 -0.4038
 3069TIP3    H230767   2.378   4.925   3.051 -0.6018 -0.2978 -0.8398
 3070TIP3   OH230768   3.133   2.319   2.082 -0.2458 -0.1280  0.2949
 3070TIP3    H130769   3.154   2.286   2.169  1.4130  0.8821  0.3227
 3070TIP3    H230770   3.086   2.247   2.039 -1.2201 -0.5833  2.0520
 3071TIP3   OH230771   4.595   2.658   1.526 -0.0066  0.4931  0.2211
 3071TIP3    H130772   4.573   2.651   1.619 -1.7588  2.7535  0.0765
 3071TIP3    H230773   4.639   2.742   1.518 -0.7310  0.7779 -1.1171
 3072TIP3   OH230774   5.291   3.848   1.732 -0.6442  0.1192  0.5227
 3072TIP3    H130775   5.322   3.920   1.678  0.4483 -0.1042  0.8376
 3072TIP3    H230776   5.349   3.849   1.809 -1.3089 -0.4184  1.0418
 3073TIP3   OH230777   6.482   3.155   7.350  0.5969 -0.0114 -0.3505
 3073TIP3    H130778   6.452   3.199   7.429 -0.0772 -0.4333 -0.3581
 3073TIP3    H230779   6.542   3.217   7.308  2.0674 -0.3386  1.1914
 3074TIP3   OH230780   3.680   1.587   0.837 -0.4052 -0.1103 -0.5060
 3074TIP3    H130781   3.598   1.632   0.858 -0.0221  1.0914 -1.4163
 3074TIP3    H230782   3.683   1.512   0.896 -1.9942  0.0112 -0.2279
 3075TIP3   OH230783   6.226   4.255   1.560 -0.1009 -0.2182  0.6088
 3075TIP3    H130784   6.151   4.306   1.590  0.4535  0.3020  1.1281
 3075TIP3    H230785   6.253   4.296   1.478 -0.4770 -0.5024  0.3408
 3076TIP3   OH230786   1.250   5.249   0.121 -0.1559  0.0897  0.1285
 3076TIP3    H130787   1.345   5.241   0.119 -0.1038 -0.2678 -3.5468
 3076TIP3    H230788   1.220   5.167   0.160  1.0103  0.0246  0.9364
 3077TIP3   OH230789   4.804   1.930   7.927 -0.0887  0.2872 -0.0712
 3077TIP3    H130790   4.737   1.940   7.859 -0.7371  0.2317  0.5505
 3077TIP3    H230791   4.824   2.020   7.953 -0.1994  0.2891  0.0085
 3078TIP3   OH230792   3.976   0.739   1.909  0.2249 -0.6028  0.3700
 3078TIP3    H130793   4.034   0.789   1.967 -0.3962 -0.6715  1.0661
 3078TIP3    H230794   3.997   0.648   1.927 -1.3860 -0.7137  2.0628
 3079TIP3   OH230795   6.556   6.514   8.368  0.0398  0.0354 -0.4139
 3079TIP3    H130796   6.590   6.522   8.457 -0.1853  1.8153 -0.4448
 3079TIP3    H230797   6.625   6.552   8.313  0.9582 -2.5989 -1.2458
 3080TIP3   OH230798   5.164   3.582   2.371  0.6742  0.4737  0.2894
 3080TIP3    H130799   5.217   3.656   2.401  0.3714  0.3929  1.0483
 3080TIP3    H230800   5.097   3.622   2.315 -0.2367  0.9676  1.6556
 3081TIP3   OH230801   5.948   0.113   1.781  0.3351  0.1916  0.5167
 3081TIP3    H130802   5.923   0.087   1.870  1.0370  0.4932  0.8121
 3081TIP3    H230803   6.015   0.049   1.755 -0.5479 -0.4786 -0.1809
 3082TIP3   OH230804   4.797   1.015   1.156  0.4697  0.2865  0.3935
 3082TIP3    H130805   4.795   1.055   1.243  1.7087  0.9974  0.1264
 3082TIP3    H230806   4.773   1.087   1.097 -0.2760 -0.1702  0.1273
 3083TIP3   OH230807   3.061   1.885   8.327  0.7973  0.2151 -0.1629
 3083TIP3    H130808   3.002   1.810   8.340  1.4133 -0.1366  0.7325
 3083TIP3    H230809   3.075   1.888   8.232 -1.6712  1.1237 -0.5604
 3084TIP3   OH230810   2.730   6.616   0.210 -0.4348 -0.0828  0.2013
 3084TIP3    H130811   2.717   6.648   0.299 -2.0294 -0.3385  0.0909
 3084TIP3    H230812   2.808   6.561   0.216 -0.3047  0.1934  1.3530
 3085TIP3   OH230813   2.655   4.659   0.067  0.9911  0.2415 -0.5368
 3085TIP3    H130814   2.692   4.733   0.116 -0.0111  0.3194  0.1173
 3085TIP3    H230815   2.564   4.653   0.096  1.4981 -2.4021  0.8334
 3086TIP3   OH230816   4.305   2.518   0.915 -0.1608 -0.4898  0.4187
 3086TIP3    H130817   4.356   2.528   0.835 -3.6565  0.1902 -1.9901
 3086TIP3    H230818   4.300   2.424   0.929 -1.1887 -0.8076 -1.5569
 3087TIP3   OH230819   1.224   6.188   7.564 -0.1526 -0.7935 -0.4769
 3087TIP3    H130820   1.135   6.195   7.530 -0.2609 -1.4077 -0.3272
 3087TIP3    H230821   1.241   6.273   7.604 -0.0220 -0.0323 -2.0389
 3088TIP3   OH230822   4.591   0.596   2.018 -0.1399 -0.4067  0.1809
 3088TIP3    H130823   4.519   0.542   2.050  0.9035 -2.0354 -0.1344
 3088TIP3    H230824   4.670   0.556   2.055  0.7582  0.2452 -0.9660
 3089TIP3   OH230825   3.457   6.097   8.546 -0.7398 -0.1384  0.6317
 3089TIP3    H130826   3.447   6.005   8.572 -3.2362 -0.0111  0.3517
 3089TIP3    H230827   3.408   6.146   8.612 -1.5745  0.7636 -0.6134
 3090TIP3   OH230828   2.541   0.297   2.132 -0.4768  0.4490  0.4716
 3090TIP3    H130829   2.571   0.259   2.049 -0.2747  0.0929  0.7061
 3090TIP3    H230830   2.572   0.236   2.199 -0.9685  0.5362  0.7846
 3091TIP3   OH230831   1.462   3.693   2.176 -0.1605 -0.6181 -0.2298
 3091TIP3    H130832   1.448   3.720   2.267  1.0298  0.8750 -0.4387
 3091TIP3    H230833   1.554   3.716   2.158 -0.1163 -1.6959 -1.5479
 3092TIP3   OH230834   1.053   0.578   1.870 -0.0882  0.1660 -0.1284
 3092TIP3    H130835   1.004   0.630   1.933  0.1478 -1.4570  1.4789
 3092TIP3    H230836   1.145   0.600   1.887 -0.0849  1.9445 -2.0028
 3093TIP3   OH230837   6.550   4.501   0.849 -0.6162  0.1948 -0.1764
 3093TIP3    H130838   6.498   4.506   0.769 -0.0319 -2.7047 -0.8606
 3093TIP3    H230839   6.613   4.431   0.832  0.8253  0.8079  2.1396
 3094TIP3   OH230840   6.552   3.686   2.013 -0.6508 -1.0596 -0.1746
 3094TIP3    H130841   6.576   3.695   2.105 -0.1135  0.2110 -0.4230
 3094TIP3    H230842   6.478   3.745   2.001  0.9906  0.9513 -1.1371
 3095TIP3   OH230843   3.415   4.581   2.275  0.5067  0.6797 -0.2827
 3095TIP3    H130844   3.383   4.509   2.221 -0.9196  0.1128  1.2342
 3095TIP3    H230845   3.341   4.602   2.333  2.4479  0.1292  2.5872
 3096TIP3   OH230846   5.171   2.620   2.818 -0.2875  0.1157 -0.0675
 3096TIP3    H130847   5.225   2.559   2.868 -1.1331 -1.9119 -1.4904
 3096TIP3    H230848   5.113   2.659   2.883 -0.7021 -1.7026  0.7115
 3097TIP3   OH230849   6.803   6.544   0.672 -0.0390  0.5634 -0.0109
 3097TIP3    H130850   6.727   6.487   0.681  0.0590  0.7489  3.1505
 3097TIP3    H230851   6.879   6.487   0.687  0.2973  0.8513 -0.5637
 3098TIP3   OH230852   1.410   1.588   7.835 -0.1200  0.0285 -0.0879
 3098TIP3    H130853   1.354   1.608   7.910 -0.9866 -1.0726 -0.4122
 3098TIP3    H230854   1.428   1.673   7.795 -0.9177  0.4773  0.4718
 3099TIP3   OH230855   5.658   5.164   1.938  0.6018 -0.6332 -0.7862
 3099TIP3    H130856   5.740   5.126   1.968  1.0304 -0.5649 -1.8238
 3099TIP3    H230857   5.650   5.246   1.987  1.5283 -0.2837 -1.2097
 3100TIP3   OH230858   3.030   4.130   0.312 -0.5494 -0.0082  0.1401
 3100TIP3    H130859   3.017   4.035   0.317  2.2679 -0.4550  0.6297
 3100TIP3    H230860   2.980   4.156   0.234 -1.8882 -1.7524  0.3414
 3101TIP3   OH230861   2.003   3.113   0.610  0.1449 -0.0112 -0.3430
 3101TIP3    H130862   2.035   3.184   0.666 -1.8364  0.2234  0.5557
 3101TIP3    H230863   1.969   3.156   0.532  3.0994 -0.3512 -1.9775
 3102TIP3   OH230864   0.457   4.765   1.405  0.2214 -0.5782  0.9838
 3102TIP3    H130865   0.541   4.725   1.378  0.3324 -0.6689  1.4594
 3102TIP3    H230866   0.399   4.690   1.417 -0.2879 -0.4572 -0.5132
 3103TIP3   OH230867   6.769   4.421   3.185  0.6640  0.3431 -0.4054
 3103TIP3    H130868   6.702   4.364   3.223  1.0269 -0.2891 -0.6999
 3103TIP3    H230869   6.721   4.477   3.124  0.6215 -1.3441 -2.0157
 3104TIP3   OH230870   0.707   3.631   1.219  0.4964  0.3860 -0.3453
 3104TIP3    H130871   0.749   3.545   1.224  1.5364  0.7890 -1.4589
 3104TIP3    H230872   0.616   3.612   1.197  0.5325 -0.4537  0.1817
 3105TIP3   OH230873   6.405   4.897   7.616 -0.6917 -0.0945 -0.3028
 3105TIP3    H130874   6.379   4.810   7.646  0.1740  0.0733  0.9996
 3105TIP3    H230875   6.488   4.915   7.661 -0.9027  1.4436 -0.4673
 3106TIP3   OH230876   0.727   5.772   8.663 -0.0154 -0.6517 -0.5864
 3106TIP3    H130877   0.788   5.817   8.605  0.3644 -1.7999 -1.1148
 3106TIP3    H230878   0.701   5.838   8.727 -1.8900  1.2238 -3.1057
 3107TIP3   OH230879   0.821   3.822   0.428 -0.4072  0.6106 -0.3794
 3107TIP3    H130880   0.803   3.755   0.362 -1.0880 -0.5759  0.9425
 3107TIP3    H230881   0.895   3.787   0.478  1.4309  2.4118 -1.6678
 3108TIP3   OH230882   6.310   5.622   3.141 -0.2634  0.6134  0.0114
 3108TIP3    H130883   6.300   5.664   3.055  0.2663  0.8466  0.0600
 3108TIP3    H230884   6.257   5.543   3.135  0.5260  0.1223 -0.8726
 3109TIP3   OH230885   0.777   1.060   3.157  0.6634 -0.0198  0.1478
 3109TIP3    H130886   0.796   1.149   3.129  1.4342 -0.3927 -0.5837
 3109TIP3    H230887   0.703   1.033   3.103  1.0638 -0.1498 -0.3531
 3110TIP3   OH230888   1.934   3.145   2.076 -0.1482  0.4177  0.4723
 3110TIP3    H130889   1.888   3.221   2.040 -0.6159 -0.4066 -0.6993
 3110TIP3    H230890   1.976   3.179   2.156  1.1893  2.3712 -0.9631
 3111TIP3   OH230891   3.557   4.074   2.209  0.0337  0.5435  0.3332
 3111TIP3    H130892   3.616   4.000   2.224  0.5309  0.3827 -1.9209
 3111TIP3    H230893   3.469   4.036   2.215  0.2849 -0.3254 -0.9933
 3112TIP3   OH230894   1.537   3.154   1.479 -0.2245 -0.3008 -0.3687
 3112TIP3    H130895   1.543   3.178   1.571  2.1465  0.4852 -0.6461
 3112TIP3    H230896   1.592   3.076   1.470  0.2534  0.1182 -1.2349
 3113TIP3   OH230897   6.687   0.990   0.994 -0.2999 -0.8413  0.2880
 3113TIP3    H130898   6.727   0.992   1.081  0.8951 -0.8054 -0.2397
 3113TIP3    H230899   6.748   0.939   0.941 -0.6277 -0.2244 -0.7121
 3114TIP3   OH230900   1.691   3.858   8.127  0.3963  0.7255  0.1268
 3114TIP3    H130901   1.758   3.888   8.189 -0.4052  1.0976  0.8295
 3114TIP3    H230902   1.653   3.781   8.170 -0.1339  0.9600  0.0848
 3115TIP3   OH230903   4.616   1.548   8.547 -0.5033 -0.7775  0.1468
 3115TIP3    H130904   4.706   1.517   8.542  0.9323  2.6389  1.6092
 3115TIP3    H230905   4.586   1.551   8.456  0.7671 -2.1365 -0.3568
 3116TIP3   OH230906   0.586   5.277   3.234  0.1513  0.0235 -0.1417
 3116TIP3    H130907   0.513   5.327   3.270 -0.4648 -0.3018 -0.9217
 3116TIP3    H230908   0.647   5.343   3.202  0.0992  0.2935  0.3136
 3117TIP3   OH230909   4.187   0.870   1.216 -0.0440 -0.9268  0.4541
 3117TIP3    H130910   4.124   0.842   1.282  0.2293 -0.7347  0.8053
 3117TIP3    H230911   4.160   0.827   1.136 -0.8871 -0.4861  0.4923
 3118TIP3   OH230912   3.325   0.857   8.407 -0.2187  0.0833 -0.2808
 3118TIP3    H130913   3.389   0.798   8.368 -0.4534  0.5501 -1.3927
 3118TIP3    H230914   3.372   0.901   8.478  0.3137 -0.5038 -0.2691
 3119TIP3   OH230915   0.497   0.075   8.435 -0.4358  0.3755  0.3991
 3119TIP3    H130916   0.587   0.042   8.433 -1.4472 -2.6752 -0.2680
 3119TIP3    H230917   0.450   0.011   8.489 -2.6440  0.5107 -1.2587
 3120TIP3   OH230918   0.449   0.347   2.072  0.0319  0.1068  0.2940
 3120TIP3    H130919   0.415   0.342   2.162 -1.0046  2.4294  0.1156
 3120TIP3    H230920   0.455   0.441   2.054 -0.7511 -0.2615 -2.4074
 3121TIP3   OH230921   2.770   3.941   0.877 -0.1084  0.5976  0.8987
 3121TIP3    H130922   2.723   3.931   0.795 -0.3907  1.4127  0.9473
 3121TIP3    H230923   2.718   4.005   0.927  1.4420  2.1498  0.6249
 3122TIP3   OH230924   5.496   4.548   8.068  0.5831  0.1396  0.0984
 3122TIP3    H130925   5.520   4.466   8.111  1.7747 -0.2167 -1.1377
 3122TIP3    H230926   5.488   4.524   7.975  0.4597  1.3173 -0.2089
 3123TIP3   OH230927   6.065   2.351   8.131  0.4816 -0.1317  0.1189
 3123TIP3    H130928   6.128   2.299   8.081  2.2420  1.3077  0.7186
 3123TIP3    H230929   6.028   2.290   8.195 -0.2848 -1.4919 -1.5648
 3124TIP3   OH230930   0.550   4.736   8.529 -0.0668  0.1092 -0.0090
 3124TIP3    H130931   0.522   4.763   8.616  0.5177  1.6980 -0.2878
 3124TIP3    H230932   0.554   4.817   8.478 -0.6396 -0.8094 -1.5983
 3125TIP3   OH230933   1.928   2.780   7.698 -0.0221  0.3094  0.8364
 3125TIP3    H130934   1.876   2.853   7.663  0.8929  0.8960  0.6638
 3125TIP3    H230935   1.931   2.717   7.627 -1.8332 -0.4662  1.3952
 3126TIP3   OH230936   1.687   3.343   1.251 -0.1683 -0.1097 -0.0739
 3126TIP3    H130937   1.718   3.278   1.189  1.7098  1.2818 -0.7046
 3126TIP3    H230938   1.716   3.311   1.336 -3.1515 -2.2597  0.2975
 3127TIP3   OH230939   5.202   5.589   1.489  0.0788 -0.1635  0.3764
 3127TIP3    H130940   5.212   5.622   1.400 -0.2843 -2.2896 -0.5175
 3127TIP3    H230941   5.231   5.497   1.484  1.4449  0.0406  2.7869
 3128TIP3   OH230942   1.992   2.046   7.873 -0.1941 -1.1070 -0.2972
 3128TIP3    H130943   2.073   1.999   7.856 -0.4158 -0.9800 -1.7868
 3128TIP3    H230944   1.969   2.087   7.790 -1.0727 -0.0063  0.4497
 3129TIP3   OH230945   6.349   5.114   7.454  0.2551 -0.1060  0.5822
 3129TIP3    H130946   6.431   5.137   7.410 -1.6667 -1.5976 -4.3738
 3129TIP3    H230947   6.370   5.033   7.502  1.3698 -1.8790 -2.5729
 3130TIP3   OH230948   5.773   3.158   8.395  0.4415 -0.0498  0.0123
 3130TIP3    H130949   5.729   3.236   8.361 -1.1065 -1.3545 -1.1201
 3130TIP3    H230950   5.719   3.085   8.366  1.1024 -1.5057  2.1904
 3131TIP3   OH230951   5.842   2.772   8.715  0.7867 -0.3287 -0.0181
 3131TIP3    H130952   5.748   2.780   8.733  0.1108 -0.5067 -2.8866
 3131TIP3    H230953   5.864   2.683   8.741  0.1212 -0.3287  0.5731
 3132TIP3   OH230954   6.828   2.697   8.706 -0.1609  0.0008 -1.0751
 3132TIP3    H130955   6.803   2.785   8.733  0.4723 -0.6073  1.8413
 3132TIP3    H230956   6.921   2.691   8.728 -0.0204 -1.1810 -1.8823
 3133TIP3   OH230957   0.603   5.807   0.870 -0.7497  0.1402 -0.2724
 3133TIP3    H130958   0.553   5.879   0.832  1.0702  0.7295 -1.6311
 3133TIP3    H230959   0.653   5.770   0.797 -0.0990 -1.2033  0.7991
 3134TIP3   OH230960   3.114   6.121   7.737  0.2055 -0.5028 -0.0136
 3134TIP3    H130961   3.171   6.197   7.722  0.6013 -0.8102 -0.0860
 3134TIP3    H230962   3.150   6.080   7.816  1.2410 -1.7501 -1.0929
 3135TIP3   OH230963   0.986   3.295   0.212  0.0617 -0.8805  0.1781
 3135TIP3    H130964   1.055   3.324   0.153 -0.1606 -0.2574  0.2218
 3135TIP3    H230965   0.909   3.345   0.185 -0.3763 -1.5713  0.1217
 3136TIP3   OH230966   1.882   3.625   0.899 -0.6303  0.1336 -0.1518
 3136TIP3    H130967   1.812   3.610   0.963 -1.2552 -1.5767 -1.1536
 3136TIP3    H230968   1.938   3.548   0.908 -0.8680 -0.2683 -1.7776
 3137TIP3   OH230969   6.121   4.577   0.508 -0.4274  0.5715 -0.3752
 3137TIP3    H130970   6.070   4.589   0.588 -0.2923  0.6488 -0.3012
 3137TIP3    H230971   6.122   4.664   0.467 -0.8236  0.4458 -0.6560
 3138TIP3   OH230972   2.604   6.239   1.748  0.1887 -0.4349  0.6402
 3138TIP3    H130973   2.631   6.313   1.803  0.0945  2.1898 -2.5581
 3138TIP3    H230974   2.684   6.214   1.701 -0.3976 -0.3710 -0.4260
 3139TIP3   OH230975   1.236   5.960   1.118  0.0132  0.5023 -0.1472
 3139TIP3    H130976   1.158   5.908   1.139  0.6534  0.1529  1.5306
 3139TIP3    H230977   1.309   5.910   1.155  0.9291  1.3181 -0.7989
 3140TIP3   OH230978   3.390   3.268   0.547 -0.0815  0.5323 -0.2702
 3140TIP3    H130979   3.473   3.247   0.505  0.5071 -0.8958  1.4670
 3140TIP3    H230980   3.410   3.343   0.604 -0.1374  0.6017 -0.3422
 3141TIP3   OH230981   2.488   0.126   0.386  0.7399  0.3168 -0.3089
 3141TIP3    H130982   2.438   0.051   0.353 -0.2158  0.5191  0.6081
 3141TIP3    H230983   2.467   0.128   0.480 -0.1058  2.3585 -0.4878
 3142TIP3   OH230984   4.270   6.441   0.680 -0.0221  0.9148  0.7665
 3142TIP3    H130985   4.187   6.482   0.704  0.1457  1.4634  0.4370
 3142TIP3    H230986   4.332   6.473   0.746 -0.4567 -1.0997  2.2644
 3143TIP3   OH230987   2.655   0.035   0.893  0.4226  0.0497  0.1143
 3143TIP3    H130988   2.599  -0.036   0.923  1.1849 -0.4888  0.2962
 3143TIP3    H230989   2.729   0.035   0.954  1.0463  0.1821 -0.6264
 3144TIP3   OH230990   2.912   0.092   2.329 -0.1748  0.4987  0.2613
 3144TIP3    H130991   3.003   0.086   2.356 -0.8354 -1.0013  2.4080
 3144TIP3    H230992   2.890   0.006   2.295 -1.3625  0.0619  1.9650
 3145TIP3   OH230993   2.420   3.808   0.328 -0.2830 -0.1840  0.1660
 3145TIP3    H130994   2.447   3.899   0.319  1.7567 -0.5035  2.0314
 3145TIP3    H230995   2.489   3.758   0.283 -0.1763 -0.8762  1.0697
 3146TIP3   OH230996   1.439   2.838   7.545 -0.3256 -0.1595 -0.6238
 3146TIP3    H130997   1.497   2.891   7.600  0.5504  1.2603 -2.7887
 3146TIP3    H230998   1.486   2.829   7.462 -2.2103 -0.9569 -1.6628
 3147TIP3   OH230999   0.139   3.226   2.422  0.7777 -0.0863 -0.1720
 3147TIP3    H131000   0.083   3.150   2.406 -3.3153  2.6959 -0.4272
 3147TIP3    H231001   0.162   3.220   2.515 -0.9797 -0.7811  0.2544
 3148TIP3   OH231002   0.828   2.808   1.694  0.4739 -0.2095  0.9078
 3148TIP3    H131003   0.778   2.769   1.767 -0.6417 -0.0223  0.2651
 3148TIP3    H231004   0.874   2.881   1.733 -0.1850 -0.0585  1.4209
 3149TIP3   OH231005   1.422   2.372   8.156 -0.2632 -0.0102 -0.0741
 3149TIP3    H131006   1.377   2.309   8.100  0.3614 -2.0635  1.5772
 3149TIP3    H231007   1.509   2.382   8.116  0.0365 -1.1376  0.2524
 3150TIP3   OH231008   3.029   0.263   8.643 -0.8203 -0.3411 -0.3788
 3150TIP3    H131009   2.943   0.265   8.684 -0.3697 -0.0403  0.5804
 3150TIP3    H231010   3.034   0.176   8.603 -1.8941 -0.0487 -1.1988
 3151TIP3   OH231011   3.458   4.268   8.279 -0.6992  0.8484  0.3494
 3151TIP3    H131012   3.515   4.278   8.203  0.5217 -1.4745  0.8839
 3151TIP3    H231013   3.506   4.309   8.351  0.1809 -0.7085  0.7028
 3152TIP3   OH231014   6.661   3.621   2.955  0.3149  0.0419  0.1993
 3152TIP3    H131015   6.623   3.598   3.040  2.1472 -1.5177  0.6772
 3152TIP3    H231016   6.679   3.714   2.961 -1.8246  0.4908  0.5441
 3153TIP3   OH231017   5.060   2.420   2.646  0.7690  0.4557 -0.1051
 3153TIP3    H131018   5.075   2.500   2.696 -0.7915  1.2319 -0.8123
 3153TIP3    H231019   5.041   2.450   2.557  2.1995 -0.8289 -0.8974
 3154TIP3   OH231020   1.594   1.464   7.981  0.2577 -0.1272 -0.5905
 3154TIP3    H131021   1.515   1.481   7.929  0.2191 -1.6237 -1.0886
 3154TIP3    H231022   1.578   1.377   8.019  1.2398 -0.0015  0.1341
 3155TIP3   OH231023   6.030   2.166   2.619  0.0346 -0.3825 -0.5538
 3155TIP3    H131024   5.953   2.110   2.613 -1.4794  1.4907  0.3475
 3155TIP3    H231025   6.105   2.106   2.610 -1.4641 -2.5713  0.7979
 3156TIP3   OH231026   0.483   6.215   7.732 -0.0564  0.1401  0.0817
 3156TIP3    H131027   0.483   6.274   7.656 -0.0847  0.3209  0.2197
 3156TIP3    H231028   0.421   6.146   7.708  0.3488 -0.1048 -0.2866
 3157TIP3   OH231029   0.026   1.831   1.699  0.1937  0.0432  0.2943
 3157TIP3    H131030   0.115   1.812   1.729 -0.0969 -2.1937 -0.0604
 3157TIP3    H231031  -0.023   1.752   1.720 -1.0696  0.1539 -1.9601
 3158TIP3   OH231032   1.128   4.220   1.164  0.4036  0.1394  0.4752
 3158TIP3    H131033   1.206   4.208   1.110  0.3087 -0.9254  0.5580
 3158TIP3    H231034   1.153   4.187   1.250 -0.7261 -2.1884  0.0010
 3159TIP3   OH231035   5.802   0.019   2.459  0.3725  0.9283 -0.3150
 3159TIP3    H131036   5.888   0.044   2.424  0.5766 -0.6903 -1.0454
 3159TIP3    H231037   5.747   0.010   2.382 -0.0417  0.4483  0.0360
 3160TIP3   OH231038   4.441   0.404   2.616  0.2200  0.1711 -0.2177
 3160TIP3    H131039   4.439   0.494   2.649  1.4650  0.0639  0.2276
 3160TIP3    H231040   4.354   0.389   2.579 -0.5053  1.0586  1.0480
 3161TIP3   OH231041   6.117   0.315   1.851  0.1820  0.4054  0.2507
 3161TIP3    H131042   6.057   0.241   1.842  0.6859  0.0331 -0.0688
 3161TIP3    H231043   6.084   0.380   1.788 -0.3240  0.5061  0.6105
 3162TIP3   OH231044   1.202   2.761   1.978  0.8233  0.1173 -0.0652
 3162TIP3    H131045   1.220   2.692   2.042 -1.3189 -0.8763 -0.4331
 3162TIP3    H231046   1.130   2.811   2.016  0.9427  0.8394 -0.7595
 3163TIP3   OH231047   5.759   6.353   7.743 -0.6615  0.1287  0.3219
 3163TIP3    H131048   5.727   6.288   7.680 -0.8207  0.5629 -0.0560
 3163TIP3    H231049   5.833   6.394   7.700 -0.1077 -0.2930  0.8562
 3164TIP3   OH231050   3.679   2.995   0.563  0.0443 -0.0482 -0.5742
 3164TIP3    H131051   3.608   2.948   0.607 -0.3256 -0.0628 -1.1795
 3164TIP3    H231052   3.650   3.004   0.472  0.3720  0.8255 -0.6090
 3165TIP3   OH231053   1.490   0.403   0.164 -0.1995  0.5780 -0.0237
 3165TIP3    H131054   1.502   0.328   0.223 -0.7277  0.9965  0.6419
 3165TIP3    H231055   1.468   0.364   0.080 -0.4309 -0.0205  0.3082
 3166TIP3   OH231056   5.397   1.109   2.586  0.1296 -0.8422 -0.0024
 3166TIP3    H131057   5.474   1.097   2.531  0.2483 -1.4711  0.2842
 3166TIP3    H231058   5.378   1.202   2.581 -0.6360 -1.0625 -2.1387
 3167TIP3   OH231059   2.881   2.411   0.092 -0.1233 -0.8275 -0.1453
 3167TIP3    H131060   2.804   2.362   0.123  0.1343 -1.4703 -0.5113
 3167TIP3    H231061   2.905   2.465   0.167 -1.8085  0.5067 -0.4893
 3168TIP3   OH231062   3.031   3.482   7.692  0.7005  0.5364  0.1102
 3168TIP3    H131063   3.035   3.567   7.648  0.0601  0.1837 -0.6581
 3168TIP3    H231064   2.948   3.444   7.664  1.2200 -0.5733  0.0006
 3169TIP3   OH231065   3.662   5.197   1.877 -0.0343 -0.1722 -0.4894
 3169TIP3    H131066   3.756   5.196   1.892 -0.0626 -0.5230 -0.3320
 3169TIP3    H231067   3.637   5.289   1.887  0.0182 -0.3009  1.1872
 3170TIP3   OH231068   5.424   4.638   2.080  0.2011  0.1833  0.6936
 3170TIP3    H131069   5.379   4.554   2.091  1.8899 -0.7342  1.0263
 3170TIP3    H231070   5.360   4.704   2.107 -0.8192 -1.0695  1.4452
 3171TIP3   OH231071   2.758   1.094   8.539  0.4317 -0.6407  0.2936
 3171TIP3    H131072   2.834   1.123   8.489  1.2663 -1.6294  0.9514
 3171TIP3    H231073   2.786   1.096   8.630 -0.8543  0.5026  0.7040
 3172TIP3   OH231074   3.411   0.594   0.521  0.2292 -0.0603 -0.5057
 3172TIP3    H131075   3.391   0.569   0.430  0.2007  0.0869 -0.5392
 3172TIP3    H231076   3.349   0.543   0.574  0.3312 -0.2432 -0.5614
 3173TIP3   OH231077   5.545   5.053   1.713  0.1184  0.1754 -0.4346
 3173TIP3    H131078   5.452   5.071   1.725  0.0320 -0.2267 -0.4883
 3173TIP3    H231079   5.588   5.106   1.780 -0.2484 -0.7766  0.5734
 3174TIP3   OH231080   6.427   6.348   0.861  0.4123 -0.0464  0.0690
 3174TIP3    H131081   6.483   6.371   0.935  2.2427 -1.1218 -0.9068
 3174TIP3    H231082   6.475   6.378   0.784  0.5394 -2.5515 -0.9274
 3175TIP3   OH231083   0.310   5.620   8.046  0.2384 -0.0235  0.0361
 3175TIP3    H131084   0.245   5.691   8.046  0.8488  0.6383 -2.6296
 3175TIP3    H231085   0.270   5.552   7.992  0.0724 -1.3815  1.7897
 3176TIP3   OH231086   6.230   4.129   1.802  0.0574 -0.2438 -0.0588
 3176TIP3    H131087   6.243   4.190   1.730  1.1854  0.5071  0.7510
 3176TIP3    H231088   6.319   4.104   1.828 -0.2404 -4.2819 -2.0087
 3177TIP3   OH231089   6.374   2.551   7.778 -0.4300 -0.4187 -0.1774
 3177TIP3    H131090   6.429   2.584   7.849  0.7786 -0.5185 -1.0346
 3177TIP3    H231091   6.350   2.462   7.805  1.1391 -0.9584 -0.4830
 3178TIP3   OH231092   6.204   3.161   1.560 -0.6990  0.0136  0.2981
 3178TIP3    H131093   6.276   3.152   1.498  1.0398 -1.0163  2.3376
 3178TIP3    H231094   6.244   3.201   1.637 -2.4686 -0.0120  1.2790
 3179TIP3   OH231095   1.849   6.799   7.993 -0.0231 -0.0913  0.0958
 3179TIP3    H131096   1.908   6.728   8.017  0.7773  0.0739 -1.2910
 3179TIP3    H231097   1.777   6.756   7.947  0.5632 -0.0134 -0.9265
 3180TIP3   OH231098   1.042   6.158   1.561  0.1779 -0.1086  0.5892
 3180TIP3    H131099   1.106   6.090   1.578  0.1637 -0.1664  0.4162
 3180TIP3    H231100   1.084   6.239   1.590 -0.8663 -0.4871  3.5360
 3181TIP3   OH231101   2.020   4.130   0.364  0.1781 -0.1185  0.7119
 3181TIP3    H131102   2.083   4.073   0.409 -1.7036 -2.3891  0.6656
 3181TIP3    H231103   2.073   4.181   0.303  2.1842 -0.5511  1.9977
 3182TIP3   OH231104   5.850   3.154   1.750  0.1066  0.1416  0.0054
 3182TIP3    H131105   5.939   3.119   1.754  0.4617  0.8007 -1.3295
 3182TIP3    H231106   5.848   3.204   1.668 -1.0318  1.4029  0.7547
 3183TIP3   OH231107   4.857   0.984   3.312  0.0616 -0.0485  0.0420
 3183TIP3    H131108   4.935   0.993   3.258 -0.0224 -0.7365 -0.2113
 3183TIP3    H231109   4.889   0.981   3.402  0.5051 -1.9514 -0.1312
 3184TIP3   OH231110   3.381   4.359   0.292  0.4260  0.0551  0.6700
 3184TIP3    H131111   3.297   4.405   0.302 -1.3213 -2.6780 -0.1854
 3184TIP3    H231112   3.392   4.310   0.374 -0.1003 -1.4118 -0.0852
 3185TIP3   OH231113   0.504   6.203   8.604 -0.1437  0.0258 -0.4637
 3185TIP3    H131114   0.483   6.132   8.664  0.2369 -0.2721 -0.6842
 3185TIP3    H231115   0.523   6.160   8.520 -1.2919  0.4768 -0.9769
 3186TIP3   OH231116   6.808   2.223   8.261  0.3874 -0.1526  0.5103
 3186TIP3    H131117   6.803   2.275   8.341 -1.1741  0.1444  0.2632
 3186TIP3    H231118   6.833   2.135   8.291  1.4617  0.3389  1.1072
 3187TIP3   OH231119   3.307   3.415   8.273  0.4407  0.1698  0.4942
 3187TIP3    H131120   3.401   3.398   8.268  0.3300 -0.1719 -0.7166
 3187TIP3    H231121   3.293   3.485   8.209  0.0255  0.9526  1.4253
 3188TIP3   OH231122   1.870   2.923   0.393 -0.3177  0.0657 -0.5479
 3188TIP3    H131123   1.933   2.854   0.370 -1.3841 -1.5135  0.9553
 3188TIP3    H231124   1.835   2.895   0.478 -1.2637  2.1666 -0.1954
 3189TIP3   OH231125   1.265   3.094   0.765  0.0830 -0.4125  0.5196
 3189TIP3    H131126   1.262   2.999   0.769 -0.3993 -0.4612 -0.6910
 3189TIP3    H231127   1.184   3.120   0.721  0.3052  0.5413  0.6313
 3190TIP3   OH231128   4.003   0.371   0.221  0.0792  0.0742 -0.1543
 3190TIP3    H131129   3.996   0.452   0.171 -0.4229  0.9398  1.2329
 3190TIP3    H231130   3.981   0.397   0.311 -1.4167 -1.8627  0.1110
 3191TIP3   OH231131   6.418   1.735   8.611  0.2983 -0.2767  0.7598
 3191TIP3    H131132   6.421   1.652   8.659  1.1895 -0.5275  0.2993
 3191TIP3    H231133   6.458   1.799   8.670  0.0696 -0.2809  0.9191
 3192TIP3   OH231134   6.781   5.769   0.025 -0.2811 -0.3270  0.0574
 3192TIP3    H131135   6.719   5.825  -0.021  0.5154 -0.8740 -1.7741
 3192TIP3    H231136   6.855   5.760  -0.036  0.7422 -1.2626  1.3723
 3193TIP3   OH231137   0.425   1.067   8.033 -0.6933 -0.0854  0.6684
 3193TIP3    H131138   0.474   0.992   7.999  1.6810  0.6131  2.2658
 3193TIP3    H231139   0.358   1.028   8.089  1.3683 -1.1267  2.5911
 3194TIP3   OH231140   1.877   4.056   1.715  0.1573 -0.0591  0.3485
 3194TIP3    H131141   1.872   4.139   1.668  0.3252 -0.8348 -1.1162
 3194TIP3    H231142   1.856   4.078   1.806  1.2087  1.7318  0.2065
 3195TIP3   OH231143   3.925   6.664   0.565  0.3939  0.5941  0.1871
 3195TIP3    H131144   3.922   6.571   0.545  0.7884  0.5809  0.1681
 3195TIP3    H231145   3.845   6.700   0.527 -1.3868 -0.2265  2.8202
 3196TIP3   OH231146   3.497   6.658   1.578 -0.0056 -0.5370 -0.1469
 3196TIP3    H131147   3.586   6.634   1.605 -0.1425  0.0760  0.8723
 3196TIP3    H231148   3.464   6.580   1.532  0.5878 -1.2427  0.6067
 3197TIP3   OH231149   2.034   5.046   8.621 -0.1362 -0.0136  0.1253
 3197TIP3    H131150   1.947   5.006   8.618 -0.1459  0.0220 -0.1149
 3197TIP3    H231151   2.090   4.986   8.572 -0.4525  0.9819 -1.5137
 3198TIP3   OH231152   0.659   4.655   0.440 -0.7187 -0.8697  0.0918
 3198TIP3    H131153   0.668   4.634   0.347  1.7209  0.5932 -0.0931
 3198TIP3    H231154   0.605   4.734   0.441  1.3360  0.6664 -0.4271
 3199TIP3   OH231155   0.900   0.180   2.012  0.4466  0.4725  0.0008
 3199TIP3    H131156   0.811   0.183   1.978  1.4188  0.8036 -2.8170
 3199TIP3    H231157   0.924   0.087   2.007  0.3212  0.4054  0.6060
 3200TIP3   OH231158   2.217   5.146   3.175  0.2847  0.1687  0.3434
 3200TIP3    H131159   2.134   5.129   3.131  0.1972  0.2280  0.4864
 3200TIP3    H231160   2.220   5.083   3.247  1.0014 -0.7818 -0.4978
 3201TIP3   OH231161   5.992   1.844   8.434  0.0919  0.1010 -0.6055
 3201TIP3    H131162   5.949   1.929   8.426  0.7500  0.2861 -3.3623
 3201TIP3    H231163   5.937   1.794   8.495 -0.5361  2.3264  0.7382
 3202TIP3   OH231164   3.204   1.668   2.501  0.0660  0.3166 -0.2267
 3202TIP3    H131165   3.281   1.684   2.555 -0.1460 -0.9762  0.4981
 3202TIP3    H231166   3.182   1.576   2.517 -0.2484 -0.0028 -2.2038
 3203TIP3   OH231167   3.911   3.303   3.418 -0.0264 -0.2632 -0.1896
 3203TIP3    H131168   3.984   3.242   3.404  1.5098  1.7843 -1.7739
 3203TIP3    H231169   3.932   3.347   3.500 -0.1368 -0.5123 -0.0255
 3204TIP3   OH231170   3.907   6.468   7.941 -0.0580 -0.2457  0.4215
 3204TIP3    H131171   3.913   6.454   7.846 -1.4003 -1.2274  0.4474
 3204TIP3    H231172   3.995   6.494   7.967  0.6048 -1.0177 -0.9320
 3205TIP3   OH231173   4.037   4.795   1.887  0.0623 -0.2110 -0.5607
 3205TIP3    H131174   4.029   4.700   1.887  0.0546 -0.2575  1.4317
 3205TIP3    H231175   4.071   4.816   1.974  0.7979  1.5661 -1.2242
 3206TIP3   OH231176   5.306   2.359   2.535 -0.0095  0.2718  0.2983
 3206TIP3    H131177   5.223   2.354   2.583 -0.5174  0.1491 -0.5800
 3206TIP3    H231178   5.340   2.270   2.536 -0.9437 -0.1353 -1.1513
 3207TIP3   OH231179   2.137   4.842   1.569  0.3597  0.0155  0.4610
 3207TIP3    H131180   2.069   4.883   1.623  0.8442  1.4666 -0.0133
 3207TIP3    H231181   2.204   4.909   1.558  1.2797 -0.9690 -0.1674
 3208TIP3   OH231182   6.306   2.824   2.534 -0.2316  0.4912  0.5579
 3208TIP3    H131183   6.399   2.840   2.543  0.2537 -1.6665  0.0954
 3208TIP3    H231184   6.284   2.765   2.606 -0.1091 -2.7584 -1.7993
 3209TIP3   OH231185   0.302   3.939   1.643 -0.4073 -0.1510 -0.1060
 3209TIP3    H131186   0.341   3.977   1.721 -1.9839 -0.2154  0.7680
 3209TIP3    H231187   0.335   3.992   1.570  0.1427  0.6781  0.7341
 3210TIP3   OH231188   5.305   2.784   1.446  0.8205  0.0438  0.6895
 3210TIP3    H131189   5.377   2.732   1.482 -0.1905  0.1382  3.0120
 3210TIP3    H231190   5.281   2.843   1.517 -1.6661 -0.0979  0.0378
 3211TIP3   OH231191   2.709   3.939   0.014 -0.9865  0.0365  0.1273
 3211TIP3    H131192   2.759   3.902  -0.059 -1.9101  1.4432 -1.2764
 3211TIP3    H231193   2.755   4.020   0.036  0.4468 -1.2942  2.5247
 3212TIP3   OH231194   1.995   2.680   8.133  0.2350 -0.1903 -0.2922
 3212TIP3    H131195   1.913   2.704   8.090  0.4406 -1.9794 -1.8005
 3212TIP3    H231196   1.993   2.585   8.139  0.5631 -0.1145  3.1349
 3213TIP3   OH231197   1.788   3.491   7.948 -0.6200  0.0829  0.1145
 3213TIP3    H131198   1.769   3.405   7.910 -1.0144 -0.1258  0.7645
 3213TIP3    H231199   1.818   3.472   8.037  0.1210  0.5739 -0.0249
 3214TIP3   OH231200   5.735   0.836   1.047 -0.1212  0.6276  0.1338
 3214TIP3    H131201   5.826   0.861   1.031 -0.4769  1.5755 -0.5014
 3214TIP3    H231202   5.685   0.915   1.030 -1.0415  0.2170  0.8391
 3215TIP3   OH231203   4.126   3.799   8.725 -0.2052 -0.4372 -0.3775
 3215TIP3    H131204   4.047   3.805   8.779 -1.3690 -0.1572 -2.0193
 3215TIP3    H231205   4.154   3.708   8.733 -0.6027 -0.5057  0.3308
 3216TIP3   OH231206   4.744   5.426   2.304  0.2929 -0.1569 -0.0728
 3216TIP3    H131207   4.798   5.426   2.382 -0.8717 -0.3533  0.7597
 3216TIP3    H231208   4.771   5.347   2.256 -1.8174 -2.4883  2.2408
 3217TIP3   OH231209   5.284   4.400   2.122 -0.5227  0.0224 -0.0614
 3217TIP3    H131210   5.337   4.334   2.077 -0.6264 -0.0013 -0.1496
 3217TIP3    H231211   5.194   4.368   2.113 -0.5079 -0.1854  0.5019
 3218TIP3   OH231212   6.471   1.970   8.731 -0.1552 -0.1766  0.1717
 3218TIP3    H131213   6.502   1.971   8.821 -0.1724  1.6298  0.1882
 3218TIP3    H231214   6.545   2.003   8.680 -1.4018  2.8075  0.0536
 3219TIP3   OH231215   4.646   0.799   0.338 -0.0177  0.2656 -0.6208
 3219TIP3    H131216   4.734   0.829   0.318  0.1845 -1.3307 -2.3951
 3219TIP3    H231217   4.618   0.753   0.259 -2.0340 -0.1900  0.2987
 3220TIP3   OH231218   2.311   6.502   1.629  0.5152 -0.9973  0.4254
 3220TIP3    H131219   2.235   6.535   1.677 -1.0013 -1.0151 -1.7999
 3220TIP3    H231220   2.356   6.580   1.597 -2.0627 -0.7644 -3.3084
 3221TIP3   OH231221   5.138   3.038   3.115 -0.1643  0.1516  0.2492
 3221TIP3    H131222   5.181   3.123   3.101 -0.1777 -0.1194 -1.7444
 3221TIP3    H231223   5.045   3.060   3.125  0.1055  0.5441  2.2799
 3222TIP3   OH231224   4.006   2.332   7.143  0.7559  0.4747  0.7278
 3222TIP3    H131225   4.087   2.313   7.096 -0.0691 -0.1739 -0.5094
 3222TIP3    H231226   4.008   2.275   7.219  0.6325 -0.9043 -0.2762
 3223TIP3   OH231227   3.762   5.351   2.662  0.1499 -0.2021  0.4119
 3223TIP3    H131228   3.685   5.373   2.713 -0.5854 -1.6744  0.0003
 3223TIP3    H231229   3.836   5.368   2.720 -0.4203  1.7664  0.6134
 3224TIP3   OH231230   1.042   2.108   7.336  0.1492 -0.0928 -0.0655
 3224TIP3    H131231   1.066   2.200   7.327  2.3619 -0.1327  3.4571
 3224TIP3    H231232   1.125   2.061   7.329 -0.5081 -1.4965  1.0112
 3225TIP3   OH231233   3.800   1.121   0.316 -0.3138 -0.0118  0.3645
 3225TIP3    H131234   3.849   1.093   0.239  1.3779 -0.0629  1.4005
 3225TIP3    H231235   3.825   1.213   0.328 -1.7294  0.4407  0.0175
 3226TIP3   OH231236   6.159   1.684   0.111  0.6927  1.0599 -0.4779
 3226TIP3    H131237   6.066   1.686   0.134  0.7604  0.3711 -0.1216
 3226TIP3    H231238   6.160   1.674   0.016  0.3471 -2.3808 -0.2469
 3227TIP3   OH231239   3.575   4.528   3.097 -0.4019  0.4236 -0.1337
 3227TIP3    H131240   3.520   4.503   3.171 -1.6102  0.7154 -0.9015
 3227TIP3    H231241   3.513   4.558   3.030  0.8052  4.2549  0.2174
 3228TIP3   OH231242   1.432   3.351   7.414 -0.5703  0.0629 -0.0983
 3228TIP3    H131243   1.515   3.305   7.427 -0.5878  0.5216  1.9332
 3228TIP3    H231244   1.370   3.282   7.390 -0.0517 -0.6279  0.4850
 3229TIP3   OH231245   2.120   1.926   1.095 -0.6103  0.2281  0.2458
 3229TIP3    H131246   2.178   1.876   1.037  2.4321  1.6673  1.8122
 3229TIP3    H231247   2.075   1.987   1.037 -0.3591 -0.7430 -1.0189
 3230TIP3   OH231248   4.295   5.281   0.796  0.0229 -0.2098 -0.1346
 3230TIP3    H131249   4.357   5.211   0.816  2.4493  2.2615  1.5610
 3230TIP3    H231250   4.252   5.300   0.879 -3.2047 -1.8263 -1.2444
 3231TIP3   OH231251   2.468   1.725   1.851 -0.1186  0.2582 -0.3004
 3231TIP3    H131252   2.543   1.732   1.909 -1.4013  0.5728  1.4133
 3231TIP3    H231253   2.405   1.789   1.886 -2.6899 -2.5767  0.7718
 3232TIP3   OH231254   6.304   1.149   1.768 -0.3580  0.0664  0.6262
 3232TIP3    H131255   6.269   1.226   1.723 -1.2201 -0.5966  0.1256
 3232TIP3    H231256   6.227   1.105   1.804  0.0789 -0.7562  0.5880
 3233TIP3   OH231257   5.521   5.019   0.386  0.0145  0.3289 -0.3165
 3233TIP3    H131258   5.472   5.100   0.405  0.0079  0.5698 -1.3323
 3233TIP3    H231259   5.477   4.952   0.438 -1.3421  0.5623 -1.1134
 3234TIP3   OH231260   5.282   1.951   2.226 -0.2423 -0.2356  0.4685
 3234TIP3    H131261   5.375   1.960   2.246 -0.0548 -0.8375 -0.0958
 3234TIP3    H231262   5.239   1.960   2.311  0.1822  1.6555  0.5322
 3235TIP3   OH231263   2.666   2.280   0.617  0.1077  0.1960 -0.2745
 3235TIP3    H131264   2.607   2.350   0.588 -0.1517  0.0351 -0.1457
 3235TIP3    H231265   2.727   2.268   0.544 -0.2148  0.1517 -0.5414
 3236TIP3   OH231266   4.385   4.520   3.061 -0.1500 -0.7052  0.0511
 3236TIP3    H131267   4.303   4.558   3.094 -0.9693 -1.5355 -0.9767
 3236TIP3    H231268   4.400   4.443   3.116 -1.2084 -1.7585 -1.0779
 3237TIP3   OH231269   0.540   5.492   8.242  0.0428 -0.1208  0.2040
 3237TIP3    H131270   0.597   5.557   8.200  0.7123 -0.1574  1.0403
 3237TIP3    H231271   0.454   5.510   8.205  0.3529  0.7590 -0.1391
 3238TIP3   OH231272   6.090   3.935   1.287 -0.4318 -0.7790 -0.0342
 3238TIP3    H131273   6.021   3.946   1.352  0.3804  1.8045  0.5258
 3238TIP3    H231274   6.153   3.876   1.328 -0.2999  0.2136  1.2501
 3239TIP3   OH231275   5.620   0.288   8.574 -0.1313 -0.1931 -0.1020
 3239TIP3    H131276   5.677   0.210   8.578  0.6317  0.2764 -1.2222
 3239TIP3    H231277   5.644   0.331   8.492 -1.3054  0.6583 -0.0283
 3240TIP3   OH231278   3.903   3.043   2.378 -0.3453  0.2957 -0.5617
 3240TIP3    H131279   3.895   3.060   2.472  0.5729  1.1647 -0.6240
 3240TIP3    H231280   3.900   3.129   2.337 -0.0138 -0.0133 -1.2688
 3241TIP3   OH231281   3.329   3.465   2.543  0.3648 -0.0784 -0.4884
 3241TIP3    H131282   3.339   3.411   2.621  0.9223  0.2126 -0.3525
 3241TIP3    H231283   3.235   3.469   2.528  0.2514 -0.0827  0.2052
 3242TIP3   OH231284   2.724   2.078   1.157  0.0215 -0.0818  0.0899
 3242TIP3    H131285   2.762   2.158   1.193  1.5522 -1.0221  0.7048
 3242TIP3    H231286   2.738   2.083   1.063  0.6785  0.1092  0.1948
 3243TIP3   OH231287   0.445   4.811   0.403  0.2158 -0.2983 -0.5956
 3243TIP3    H131288   0.376   4.811   0.470 -0.3130  0.0790 -1.1267
 3243TIP3    H231289   0.397   4.808   0.320  0.8848 -1.5225 -0.9473
 3244TIP3   OH231290   6.520   2.078   7.638 -0.5860 -0.3601  0.2748
 3244TIP3    H131291   6.566   2.162   7.641  1.2003 -1.2358 -1.1360
 3244TIP3    H231292   6.490   2.070   7.548 -2.6987 -0.3045  0.9031
 3245TIP3   OH231293   4.139   4.655   0.913  0.4542  0.3277  0.0920
 3245TIP3    H131294   4.197   4.592   0.955 -0.1418 -0.7772 -0.6982
 3245TIP3    H231295   4.090   4.694   0.986 -0.4322 -1.4298  0.4909
 3246TIP3   OH231296   5.277   4.359   1.640  0.1124 -1.0855  0.2826
 3246TIP3    H131297   5.264   4.337   1.548  0.2312  1.5596 -0.4583
 3246TIP3    H231298   5.199   4.326   1.684  0.0794 -2.4493 -0.7417
 3247TIP3   OH231299   3.547   1.049   0.325  0.6128 -0.5067 -0.2662
 3247TIP3    H131300   3.517   1.063   0.415  2.1800  0.2637  0.1761
 3247TIP3    H231301   3.642   1.053   0.331  0.8255  3.9198 -2.5168
 3248TIP3   OH231302   6.719   1.938   1.508  0.0457 -0.2110 -1.0055
 3248TIP3    H131303   6.706   2.030   1.531 -0.6765 -0.1247 -1.7275
 3248TIP3    H231304   6.766   1.901   1.583 -3.3519 -0.2993  1.3194
 3249TIP3   OH231305   4.494   2.468   2.808  0.4857 -0.0563  0.2832
 3249TIP3    H131306   4.485   2.489   2.901 -0.9362 -0.9497  0.3862
 3249TIP3    H231307   4.588   2.462   2.793  0.7637  1.2106  1.3973
 3250TIP3   OH231308   4.888   2.663   0.436  0.1376  0.1287  0.2662
 3250TIP3    H131309   4.846   2.734   0.483  0.9042  0.7876 -0.0181
 3250TIP3    H231310   4.834   2.650   0.358  0.2012  0.6632  0.1287
 3251TIP3   OH231311   0.773   0.380   7.821 -0.1889 -0.0767 -0.0125
 3251TIP3    H131312   0.753   0.402   7.730 -0.9269  0.5395  0.2914
 3251TIP3    H231313   0.716   0.305   7.841  0.2412 -0.4511 -0.1624
 3252TIP3   OH231314   1.846   2.415   8.218 -0.4567 -0.4371 -0.5837
 3252TIP3    H131315   1.885   2.375   8.140 -0.3934 -0.7863 -0.3782
 3252TIP3    H231316   1.796   2.489   8.185 -1.2546 -1.1779 -1.0670
 3253TIP3   OH231317   3.307   4.757   7.960  0.5428 -0.1025 -0.5316
 3253TIP3    H131318   3.227   4.785   8.004  1.3981  1.4207  0.1536
 3253TIP3    H231319   3.303   4.800   7.874  1.4922  1.6325  0.2326
 3254TIP3   OH231320   5.473   6.183   3.070 -0.3932  0.2704 -0.0245
 3254TIP3    H131321   5.441   6.099   3.037 -0.9567  0.1628  0.7746
 3254TIP3    H231322   5.425   6.197   3.151 -0.2897  1.3667 -0.1406
 3255TIP3   OH231323   1.677   1.362   1.989  0.8030  0.0733  0.0050
 3255TIP3    H131324   1.583   1.380   1.984  0.8626  0.1281 -1.4756
 3255TIP3    H231325   1.703   1.390   2.076 -0.2536  1.5552 -0.1322
 3256TIP3   OH231326   4.238   0.902   7.409 -0.1359 -0.9289 -0.4623
 3256TIP3    H131327   4.228   0.890   7.315  1.0760 -1.5543 -0.5297
 3256TIP3    H231328   4.162   0.955   7.435  0.0704  0.1520 -1.9510
 3257TIP3   OH231329   4.641   6.389   0.566 -0.4653  0.1676  0.3553
 3257TIP3    H131330   4.582   6.456   0.603  0.9835  0.9402  1.3468
 3257TIP3    H231331   4.630   6.313   0.624 -1.4071 -0.1566 -0.2181
 3258TIP3   OH231332   0.829   4.191   0.661  0.4762  0.1179  0.0243
 3258TIP3    H131333   0.760   4.235   0.711  1.0120  0.5859  0.3679
 3258TIP3    H231334   0.788   4.169   0.577 -0.2519 -0.1141  0.4306
 3259TIP3   OH231335   4.815   3.685   8.129  0.9529  0.4620 -0.7240
 3259TIP3    H131336   4.833   3.744   8.202 -0.1445  0.8094 -0.7152
 3259TIP3    H231337   4.748   3.625   8.163  0.4597  0.6079 -1.4242
 3260TIP3   OH231338   0.835   6.753   0.747  0.2537 -0.4983  0.1895
 3260TIP3    H131339   0.772   6.736   0.678  0.4897 -0.7207  0.0257
 3260TIP3    H231340   0.920   6.739   0.706  0.4849  1.2770 -0.0187
 3261TIP3   OH231341   5.227   6.458   2.588  0.7413 -0.3186  0.0226
 3261TIP3    H131342   5.209   6.410   2.507 -1.3975  0.1034  0.2073
 3261TIP3    H231343   5.321   6.478   2.583  0.6513 -0.1849 -2.4221
 3262TIP3   OH231344   3.230   2.569   7.933 -0.1802  0.1119 -0.4823
 3262TIP3    H131345   3.184   2.638   7.886 -1.3307 -1.0131 -1.0453
 3262TIP3    H231346   3.293   2.534   7.870  0.1294  0.3690 -0.3208
 3263TIP3   OH231347   3.678   0.906   3.395 -0.2956  0.4439  0.2099
 3263TIP3    H131348   3.732   0.842   3.441  0.7927  2.4254  1.9026
 3263TIP3    H231349   3.741   0.971   3.364 -1.4223  1.1242 -0.7149
 3264TIP3   OH231350   0.646   4.346   0.793 -0.9358 -0.2431 -0.1146
 3264TIP3    H131351   0.681   4.390   0.870 -0.6659  0.4327 -0.6187
 3264TIP3    H231352   0.594   4.273   0.828 -0.0381 -0.5136  0.6712
 3265TIP3   OH231353   3.165   4.977   7.374 -0.1387 -0.0113 -0.4731
 3265TIP3    H131354   3.172   4.885   7.350  0.1211  0.0084 -0.4758
 3265TIP3    H231355   3.252   5.013   7.357 -0.7552  0.7177 -2.4648
 3266TIP3   OH231356   4.839   1.290   2.048 -0.4238 -0.0594 -0.2666
 3266TIP3    H131357   4.865   1.287   2.140 -0.2881  0.4411 -0.2844
 3266TIP3    H231358   4.893   1.359   2.010 -1.1094  0.3524 -0.5167
 3267TIP3   OH231359   6.717   3.801   0.292 -0.0658  0.4479 -0.2248
 3267TIP3    H131360   6.666   3.727   0.260 -1.1128  0.5644  1.0800
 3267TIP3    H231361   6.741   3.850   0.213 -1.7850  0.2469 -0.9210
 3268TIP3   OH231362   2.443   3.598   1.299  0.2412 -0.1818  0.0360
 3268TIP3    H131363   2.405   3.609   1.212 -0.8059  1.1877  0.6289
 3268TIP3    H231364   2.421   3.508   1.323 -1.2105  0.0380 -0.3402
 3269TIP3   OH231365   4.025   5.749   1.437  0.0654  0.6085 -0.3004
 3269TIP3    H131366   3.934   5.769   1.414  0.0740  0.2956 -0.6032
 3269TIP3    H231367   4.033   5.655   1.424 -0.2499  0.1903  2.0864
 3270TIP3   OH231368   4.036   5.914   8.323 -0.1185  0.1040  0.2870
 3270TIP3    H131369   3.944   5.903   8.346 -0.1880  0.6624  0.3055
 3270TIP3    H231370   4.081   5.929   8.406  0.0326 -0.4436  0.3045
 3271TIP3   OH231371   6.835   1.745   1.007 -0.8286 -0.0220 -0.5084
 3271TIP3    H131372   6.865   1.827   0.966  0.9201 -0.3723 -0.0097
 3271TIP3    H231373   6.760   1.718   0.954 -0.2747  0.9245 -1.8430
 3272TIP3   OH231374   2.351   2.014   2.899 -0.4423 -0.0221  0.3370
 3272TIP3    H131375   2.443   1.987   2.894 -0.1479  0.9703  0.1339
 3272TIP3    H231376   2.330   2.008   2.992  0.2900  1.1819  0.5966
 3273TIP3   OH231377   1.002   3.191   0.715  0.3149 -0.2571 -0.1087
 3273TIP3    H131378   0.956   3.114   0.747  0.5877 -0.6715 -0.6836
 3273TIP3    H231379   0.969   3.203   0.626  1.1218 -0.4157 -0.4415
 3274TIP3   OH231380   6.362   4.976   8.093 -0.3604  0.0050  0.7660
 3274TIP3    H131381   6.429   5.041   8.072  1.1356 -2.3698 -2.6402
 3274TIP3    H231382   6.288   4.998   8.036 -1.8464  1.3839  3.0463
 3275TIP3   OH231383   2.641   4.471   0.281  0.4255 -0.4362  0.5168
 3275TIP3    H131384   2.666   4.561   0.262 -0.4730 -0.6092 -1.8277
 3275TIP3    H231385   2.704   4.442   0.347  0.8690  1.8064  1.1608
 3276TIP3   OH231386   4.708   2.570   1.246 -0.3676  0.0125 -0.0397
 3276TIP3    H131387   4.663   2.600   1.325 -0.2942 -0.5893  0.2349
 3276TIP3    H231388   4.637   2.543   1.187 -0.6085  3.0844 -1.3268
 3277TIP3   OH231389   5.332   6.272   8.678 -0.0577 -0.4381 -0.5504
 3277TIP3    H131390   5.388   6.198   8.701 -1.3711 -1.6192 -0.9930
 3277TIP3    H231391   5.393   6.342   8.653  1.3357 -0.3821  2.5009
 3278TIP3   OH231392   1.677   1.314   3.019  0.6759 -0.7307 -0.4672
 3278TIP3    H131393   1.735   1.247   3.055  0.8692 -0.3415 -0.0513
 3278TIP3    H231394   1.589   1.286   3.046  0.4769 -2.1437 -2.3676
 3279TIP3   OH231395   3.414   3.993   7.732  0.4347  0.2870  0.3311
 3279TIP3    H131396   3.358   4.071   7.724 -1.7857 -1.2404  0.1307
 3279TIP3    H231397   3.362   3.932   7.783  2.4691 -0.8055  1.1699
 3280TIP3   OH231398   6.047   3.881   8.640  0.0560 -1.0986  0.1739
 3280TIP3    H131399   6.064   3.847   8.727 -0.4407 -0.6295  0.4586
 3280TIP3    H231400   5.957   3.856   8.620 -0.0144 -0.7401  0.0225
 3281TIP3   OH231401   0.806   4.331   3.172  0.9326 -0.4602  0.5827
 3281TIP3    H131402   0.836   4.268   3.106  0.5207  0.3874 -0.4284
 3281TIP3    H231403   0.884   4.382   3.194  0.7628  0.1922 -0.3065
 3282TIP3   OH231404   3.372   5.627   8.421  0.0504 -0.5643 -0.4458
 3282TIP3    H131405   3.441   5.561   8.427  0.4023 -0.3403 -1.8137
 3282TIP3    H231406   3.294   5.577   8.396 -0.2180 -0.7675  0.7540
 3283TIP3   OH231407   1.657   0.687   8.512  0.5430 -0.4596  0.0423
 3283TIP3    H131408   1.637   0.635   8.590  0.8804 -0.5637  0.0630
 3283TIP3    H231409   1.575   0.732   8.491  0.5335 -0.1944  0.6349
 3284TIP3   OH231410   2.027   4.692   8.734 -0.4771 -0.3617 -0.1114
 3284TIP3    H131411   2.021   4.604   8.772  1.8405 -1.4316 -1.9508
 3284TIP3    H231412   2.066   4.746   8.802  0.5587 -1.4380  0.1765
 3285TIP3   OH231413   1.277   3.995   1.594 -0.1748 -0.2660  0.6443
 3285TIP3    H131414   1.367   3.983   1.566  1.0984  4.9366  1.4515
 3285TIP3    H231415   1.280   3.986   1.689 -1.0564 -1.9201  0.5677
 3286TIP3   OH231416   2.118   1.079   1.585 -0.6230 -0.0229 -0.0622
 3286TIP3    H131417   2.072   1.010   1.536 -1.3878  0.0462  0.5442
 3286TIP3    H231418   2.208   1.074   1.553 -0.8328 -0.7976 -0.5818
 3287TIP3   OH231419   0.619   5.959   1.293  0.2611  0.2479  0.0766
 3287TIP3    H131420   0.648   5.975   1.203 -3.6785  0.1000 -1.4164
 3287TIP3    H231421   0.597   5.866   1.295 -1.6391  0.6651  0.4671
 3288TIP3   OH231422   3.527   6.606   1.246 -0.4621  0.7130 -0.1367
 3288TIP3    H131423   3.439   6.580   1.272 -0.5859  0.1647 -1.0636
 3288TIP3    H231424   3.556   6.538   1.185  0.4888  1.0392 -0.0746
 3289TIP3   OH231425   6.144   1.609   8.567 -0.2857 -0.0215 -0.6765
 3289TIP3    H131426   6.056   1.587   8.538 -0.2206  0.8438 -1.6118
 3289TIP3    H231427   6.194   1.529   8.554 -0.9145 -0.5025 -0.1921
 3290TIP3   OH231428   4.209   4.591   1.341  0.0092  0.0185  0.3311
 3290TIP3    H131429   4.273   4.647   1.386 -0.4925  1.2404 -0.4265
 3290TIP3    H231430   4.148   4.653   1.300 -2.5814 -1.0659  2.2761
 3291TIP3   OH231431   2.942   3.734   0.825 -0.0302  0.1207 -0.8283
 3291TIP3    H131432   3.006   3.805   0.817  0.2724 -0.1882 -1.1543
 3291TIP3    H231433   2.868   3.774   0.870  1.5410 -0.2330  2.3477
 3292TIP3   OH231434   1.005   6.132   8.367 -0.5141  1.1750 -0.3531
 3292TIP3    H131435   1.072   6.200   8.370 -0.5585  1.2674 -1.2297
 3292TIP3    H231436   1.049   6.053   8.398 -0.2444  1.4267 -0.0894
 3293TIP3   OH231437   5.558   1.922   2.240 -0.5581  0.1736 -0.1294
 3293TIP3    H131438   5.601   1.933   2.324  0.5007  0.2177 -0.6659
 3293TIP3    H231439   5.561   1.828   2.223  1.9526  0.4096 -1.4738
 3294TIP3   OH231440   1.082   1.333   2.590  0.3710  0.0928 -0.5015
 3294TIP3    H131441   1.169   1.300   2.613 -0.1036 -0.8913 -0.0505
 3294TIP3    H231442   1.062   1.397   2.658  0.0673 -0.8804  0.3333
 3295TIP3   OH231443   6.258   0.494   1.056  0.2494  0.4826  1.1120
 3295TIP3    H131444   6.341   0.481   1.011  0.0341  0.3979  0.7335
 3295TIP3    H231445   6.198   0.433   1.012 -0.6198  2.2262 -0.2309
 3296TIP3   OH231446   1.315   1.603   1.291 -0.1829  0.7260 -0.3600
 3296TIP3    H131447   1.355   1.631   1.374 -0.0509  0.5322 -0.3585
 3296TIP3    H231448   1.237   1.659   1.283 -1.3486 -0.6129  0.9074
 3297TIP3   OH231449   4.129   0.891   2.091 -0.6833 -0.0373  0.5584
 3297TIP3    H131450   4.116   0.928   2.178  0.9417 -0.5493  1.0620
 3297TIP3    H231451   4.211   0.842   2.098 -0.8934 -0.6902 -1.0704
 3298TIP3   OH231452   0.714   5.144   2.471 -0.3035  0.1286  0.2343
 3298TIP3    H131453   0.781   5.176   2.531 -0.0499  0.6715 -0.3167
 3298TIP3    H231454   0.693   5.221   2.417 -1.0243 -0.1646  0.0917
 3299TIP3   OH231455   5.258   2.522   0.871 -0.1784 -0.4621  0.1643
 3299TIP3    H131456   5.210   2.443   0.897  0.0035 -0.2381  1.2312
 3299TIP3    H231457   5.345   2.491   0.847  0.3172 -0.4686  1.8511
 3300TIP3   OH231458   2.311   6.521   2.960  0.2634  0.4472  0.1452
 3300TIP3    H131459   2.275   6.573   3.032 -0.8168  0.5140 -0.4174
 3300TIP3    H231460   2.255   6.443   2.956  2.3234 -1.2256  1.4847
 3301TIP3   OH231461   5.832   0.083   8.646  0.1552 -0.2182 -0.1512
 3301TIP3    H131462   5.868   0.108   8.731 -0.5874  0.1217  0.0682
 3301TIP3    H231463   5.892   0.122   8.582 -0.0508  0.7100  0.2070
 3302TIP3   OH231464   1.238   6.794   7.854  0.5210 -0.5219  0.0405
 3302TIP3    H131465   1.317   6.843   7.830  0.7504 -1.5881 -1.6059
 3302TIP3    H231466   1.207   6.758   7.771 -1.2177 -0.8402  0.7943
 3303TIP3   OH231467   0.732   5.026   1.078 -0.1107 -0.1576  0.2691
 3303TIP3    H131468   0.687   4.951   1.039 -0.1784  0.8457 -1.6806
 3303TIP3    H231469   0.824   4.999   1.084 -0.4581 -1.1547  1.6131
 3304TIP3   OH231470   1.574   0.839   1.737 -0.1449 -0.3013  0.8147
 3304TIP3    H131471   1.504   0.878   1.685  1.2329  0.8886 -0.2273
 3304TIP3    H231472   1.532   0.817   1.820 -2.0426 -0.8155 -0.2098
 3305TIP3   OH231473   6.109   2.740   2.146 -0.1609  0.4125  0.4032
 3305TIP3    H131474   6.086   2.824   2.187  1.2496  1.1624 -0.2468
 3305TIP3    H231475   6.122   2.681   2.220 -1.5109  0.6542  0.8610
 3306TIP3   OH231476   4.928   4.533   0.105  0.3871  0.7969 -0.5391
 3306TIP3    H131477   4.880   4.617   0.101 -0.1822  0.4474 -1.6543
 3306TIP3    H231478   4.948   4.514   0.013 -0.0015 -0.5775 -0.3513
 3307TIP3   OH231479   1.035   5.496   0.154  0.4548 -0.4581  0.4529
 3307TIP3    H131480   1.092   5.435   0.200 -1.0986 -1.7968  0.7107
 3307TIP3    H231481   0.999   5.552   0.223  1.3847  0.3704  0.2932
 3308TIP3   OH231482   6.411   3.276   0.800 -0.1384 -0.0286 -0.0249
 3308TIP3    H131483   6.361   3.231   0.868  1.1192 -0.0384  0.9288
 3308TIP3    H231484   6.469   3.335   0.848  1.4035 -0.6685 -1.0264
 3309TIP3   OH231485   6.640   4.184   0.213 -0.2322 -0.2317 -0.2665
 3309TIP3    H131486   6.673   4.197   0.301 -2.5703 -0.3740  0.7086
 3309TIP3    H231487   6.685   4.105   0.181 -0.1876 -0.8475  1.2520
 3310TIP3   OH231488   0.058   2.092   0.016  0.2689  0.1931 -0.3778
 3310TIP3    H131489   0.002   2.064  -0.057 -0.1680 -0.4766  0.2052
 3310TIP3    H231490   0.145   2.061  -0.008 -0.2773 -2.2068  0.4811
 3311TIP3   OH231491   1.390   1.749   2.221 -0.2817 -0.2006  0.3673
 3311TIP3    H131492   1.313   1.706   2.259 -1.5336  0.8467 -0.8557
 3311TIP3    H231493   1.402   1.705   2.136  1.4965 -1.4387  1.2034
 3312TIP3   OH231494   4.632   4.085   0.793  0.3948  0.0705 -0.4275
 3312TIP3    H131495   4.702   4.025   0.767 -0.5509 -0.5136 -1.7537
 3312TIP3    H231496   4.673   4.144   0.857  1.5843 -1.4052  0.2277
 3313TIP3   OH231497   2.514   3.669   1.576  0.1887 -0.5341 -0.2493
 3313TIP3    H131498   2.522   3.764   1.563 -2.1715 -0.2821 -0.3774
 3313TIP3    H231499   2.491   3.635   1.489 -0.7709 -0.9315  0.1429
 3314TIP3   OH231500   1.392   6.317   0.091  0.1104  0.1391 -0.0787
 3314TIP3    H131501   1.314   6.316   0.035  0.1188 -0.7596 -0.0993
 3314TIP3    H231502   1.451   6.253   0.050  0.4373  0.0507  0.5227
 3315TIP3   OH231503   3.243   5.330   0.575 -0.0243 -0.7388  0.0821
 3315TIP3    H131504   3.147   5.338   0.580  0.0389 -0.8932  2.6397
 3315TIP3    H231505   3.273   5.418   0.552 -0.7759 -0.7546 -1.0219
 3316TIP3   OH231506   4.716   0.419   2.589 -0.1212  0.3261 -0.2799
 3316TIP3    H131507   4.733   0.470   2.668  1.9526  1.5160 -1.3872
 3316TIP3    H231508   4.632   0.376   2.605  0.5814 -0.0813  2.8306
 3317TIP3   OH231509   6.748   2.155   7.899 -0.2188  0.3047  0.5499
 3317TIP3    H131510   6.753   2.070   7.855  0.1022  0.2288  0.7321
 3317TIP3    H231511   6.839   2.183   7.907 -0.3762  2.2441 -2.5638
 3318TIP3   OH231512   1.779   0.639   1.086 -0.7142  0.4414  0.6848
 3318TIP3    H131513   1.784   0.661   0.993 -1.8261 -0.1125  0.4780
 3318TIP3    H231514   1.685   0.644   1.107 -0.2780  3.8497  2.6023
 3319TIP3   OH231515   5.099   4.697   1.434 -0.4062 -0.1719 -0.1298
 3319TIP3    H131516   5.129   4.764   1.372  0.6405 -0.3648  0.1507
 3319TIP3    H231517   5.038   4.744   1.491  2.2511  1.2829  1.7303
 3320TIP3   OH231518   4.179   1.298   7.895 -0.0712  0.0946  0.4611
 3320TIP3    H131519   4.231   1.234   7.944  0.2670 -0.4194 -0.5457
 3320TIP3    H231520   4.239   1.369   7.875 -0.1045  0.1194  0.4483
 3321TIP3   OH231521   0.398   1.379   1.256  0.3695  0.2672 -0.0111
 3321TIP3    H131522   0.427   1.470   1.265  0.0909  0.5846 -1.9284
 3321TIP3    H231523   0.478   1.327   1.263  0.3835  0.4843  2.4853
 3322TIP3   OH231524   5.204   0.414   8.028  0.1030 -0.3037  0.2629
 3322TIP3    H131525   5.162   0.353   7.967 -0.4487  1.2030 -0.9266
 3322TIP3    H231526   5.132   0.466   8.062  0.7120  0.6189  0.1634
 3323TIP3   OH231527   5.981   6.288   8.684  0.4162  0.4235  0.4088
 3323TIP3    H131528   6.012   6.363   8.633 -2.1228  1.8687  0.7850
 3323TIP3    H231529   5.886   6.289   8.671  0.1851 -2.0616  1.3932
 3324TIP3   OH231530   4.351   2.330   2.151 -0.0862  0.1595  0.1564
 3324TIP3    H131531   4.307   2.246   2.169  0.5074 -0.1328  0.2760
 3324TIP3    H231532   4.429   2.328   2.205  0.8129  0.0439 -1.0978
 3325TIP3   OH231533   4.773   5.563   0.881  0.2436  0.3405 -0.3338
 3325TIP3    H131534   4.756   5.492   0.819 -0.3686  0.6193 -0.4945
 3325TIP3    H231535   4.859   5.598   0.856  0.3471 -0.0553 -0.5295
 3326TIP3   OH231536   2.668   0.255   0.211  0.6554 -0.0408  0.4088
 3326TIP3    H131537   2.638   0.201   0.138  1.8393 -0.6150  0.3092
 3326TIP3    H231538   2.621   0.222   0.287 -0.8940  0.8310 -0.1453
 3327TIP3   OH231539   6.641   1.230   2.070 -0.2690 -0.4003 -0.5678
 3327TIP3    H131540   6.734   1.208   2.069  0.0552  0.9101 -0.5457
 3327TIP3    H231541   6.605   1.182   1.995  0.4660 -0.7361 -0.7162
 3328TIP3   OH231542   2.849   2.278   0.413 -0.1730 -0.3798  0.4072
 3328TIP3    H131543   2.907   2.353   0.407 -0.8244  0.4797  3.4079
 3328TIP3    H231544   2.908   2.203   0.422  0.4677 -0.2866 -2.1528
 3329TIP3   OH231545   0.746   1.885   0.033  0.1260 -0.0407 -0.6182
 3329TIP3    H131546   0.818   1.934  -0.008  0.0146 -1.6325 -2.8925
 3329TIP3    H231547   0.763   1.794   0.009 -2.3637 -0.5308 -0.7915
 3330TIP3   OH231548   3.116   6.771   1.407 -0.1675 -0.4699  0.0480
 3330TIP3    H131549   3.152   6.806   1.489 -0.6557 -1.0266  0.5121
 3330TIP3    H231550   3.174   6.697   1.386  0.3340  0.0595 -0.4545
 3331TIP3   OH231551   3.002   2.050   0.359  0.4614 -0.5736 -0.2094
 3331TIP3    H131552   3.078   2.026   0.411 -0.5697 -0.9510  1.2061
 3331TIP3    H231553   3.033   2.053   0.269  1.9799 -1.3727  0.2685
 3332TIP3   OH231554   1.242   4.130   7.955 -0.1117 -0.7576  0.6899
 3332TIP3    H131555   1.167   4.107   7.900 -0.3392  0.1207  0.6080
 3332TIP3    H231556   1.210   4.121   8.045 -0.5233  0.2362  0.6508
 3333TIP3   OH231557   2.780   2.530   2.039 -0.0442 -0.0174 -0.6160
 3333TIP3    H131558   2.706   2.592   2.039 -0.4554 -0.4990 -0.5991
 3333TIP3    H231559   2.851   2.577   2.083 -1.1657 -0.5135  1.9114
 3334TIP3   OH231560   5.504   1.571   1.947  0.5766  0.2642 -0.0498
 3334TIP3    H131561   5.505   1.598   2.039  1.5611 -1.5035  0.5141
 3334TIP3    H231562   5.436   1.504   1.943  2.3778 -1.6672  0.0747
 3335TIP3   OH231563   2.960   4.590   0.143 -0.2556 -0.3019 -0.6731
 3335TIP3    H131564   2.908   4.537   0.082 -1.3975  0.4446 -0.3739
 3335TIP3    H231565   2.949   4.547   0.228 -0.2498 -0.2414 -0.6415
 3336TIP3   OH231566   4.730   4.067   8.300 -0.3849  0.0151  0.4123
 3336TIP3    H131567   4.749   3.989   8.352  0.0934 -0.3681 -0.3183
 3336TIP3    H231568   4.638   4.086   8.318 -0.4835 -0.6610  0.6680
 3337TIP3   OH231569   6.295   4.920   3.376  0.0770  0.2389 -0.3913
 3337TIP3    H131570   6.284   4.844   3.433 -2.4039  1.3884  0.8285
 3337TIP3    H231571   6.378   4.905   3.331 -0.7589 -3.6709 -0.9951
 3338TIP3   OH231572   3.738   1.955   3.348  0.0971  0.1098  0.3050
 3338TIP3    H131573   3.668   1.896   3.319 -1.6782  2.1536  0.1440
 3338TIP3    H231574   3.751   2.015   3.274  2.1676 -0.2981  0.2754
 3339TIP3   OH231575   0.552   5.407   1.299 -0.8973  0.2898  0.4595
 3339TIP3    H131576   0.526   5.474   1.235 -0.4105  1.4860  1.4919
 3339TIP3    H231577   0.619   5.449   1.353  0.1552 -1.3713  0.5089
 3340TIP3   OH231578   0.963   6.212   0.895 -0.0217  0.0987  0.4161
 3340TIP3    H131579   0.952   6.179   0.805 -1.6701  1.2391  0.1661
 3340TIP3    H231580   1.047   6.176   0.923  1.2409  0.8378 -2.0907
 3341TIP3   OH231581   5.966   5.604   0.644  0.7129 -0.5027  0.2373
 3341TIP3    H131582   6.055   5.569   0.649  1.3493  0.7552 -1.2250
 3341TIP3    H231583   5.979   5.699   0.634 -0.7257 -0.4218 -1.3003
 3342TIP3   OH231584   6.494   1.353   7.793 -0.0566  0.0718 -0.1007
 3342TIP3    H131585   6.513   1.447   7.791  1.2494 -0.1295  0.8894
 3342TIP3    H231586   6.405   1.345   7.760  0.1981  1.5454 -1.2492
 3343TIP3   OH231587   6.741   6.215   2.626 -0.8568  0.1072  0.3066
 3343TIP3    H131588   6.784   6.297   2.652 -1.0497  0.0077  0.9766
 3343TIP3    H231589   6.731   6.221   2.531 -0.0482  0.4624  0.2365
 3344TIP3   OH231590   4.773   1.297   0.218 -0.4780  0.0853 -0.0900
 3344TIP3    H131591   4.710   1.279   0.148 -1.2724 -0.7684  0.8179
 3344TIP3    H231592   4.745   1.382   0.254 -0.0975  0.5016 -0.7573
 3345TIP3   OH231593   2.668   4.289   2.236 -0.5240 -0.2673  0.9936
 3345TIP3    H131594   2.737   4.231   2.268  0.2597 -1.7006 -2.7359
 3345TIP3    H231595   2.624   4.238   2.168 -1.3535  2.6756 -0.8704
 3346TIP3   OH231596   2.032   1.752   1.269 -0.1132 -0.0511 -0.1489
 3346TIP3    H131597   1.953   1.771   1.320  0.2004  0.2392  0.2351
 3346TIP3    H231598   2.048   1.832   1.219 -0.0312 -0.0891 -0.1836
 3347TIP3   OH231599   4.827   3.540   1.240  0.5979  0.0917  0.3493
 3347TIP3    H131600   4.892   3.599   1.200  0.7950 -0.3454  0.0193
 3347TIP3    H231601   4.863   3.453   1.227 -0.5832 -0.2406 -0.7959
 3348TIP3   OH231602   2.117   1.069   8.294  0.4825  0.3625  0.2861
 3348TIP3    H131603   2.210   1.050   8.278  0.7882  1.8623  0.1077
 3348TIP3    H231604   2.101   1.150   8.246 -0.6316  0.7220  1.2261
 3349TIP3   OH231605   1.773   4.905   1.555 -0.1699 -0.4047  0.0718
 3349TIP3    H131606   1.719   4.853   1.614 -1.7994 -1.4782 -2.1924
 3349TIP3    H231607   1.835   4.843   1.517  0.1369  0.0305 -0.1452
 3350TIP3   OH231608   6.659   4.625   3.374 -0.0739 -0.7421  0.1402
 3350TIP3    H131609   6.615   4.542   3.392  0.2361 -0.7083  1.1014
 3350TIP3    H231610   6.729   4.601   3.314 -0.0577 -1.1603  0.3170
 3351TIP3   OH231611   1.604   0.370   2.997 -0.0904  0.2444 -0.6459
 3351TIP3    H131612   1.542   0.297   2.999 -0.9160  0.9404  1.6352
 3351TIP3    H231613   1.553   0.445   2.967  0.4533  0.1690 -1.7962
 3352TIP3   OH231614   5.688   6.383   0.002  0.6373  0.2236  0.2850
 3352TIP3    H131615   5.646   6.416  -0.078 -0.6369  1.1365  1.2786
 3352TIP3    H231616   5.714   6.462   0.049  1.0412 -0.2995  0.9464
 3353TIP3   OH231617   2.108   3.889   7.834  0.6162 -0.1341 -0.2662
 3353TIP3    H131618   2.045   3.828   7.871 -0.8313  0.7554 -1.1757
 3353TIP3    H231619   2.119   3.956   7.902 -0.7396  0.6014 -0.7465
 3354TIP3   OH231620   0.918   4.748   1.912 -0.3150 -0.8092 -0.5060
 3354TIP3    H131621   0.824   4.736   1.901 -0.2384 -2.2979  0.1534
 3354TIP3    H231622   0.953   4.659   1.916  1.2788 -0.2865 -1.8452
 3355TIP3   OH231623   5.102   3.576   1.495  0.6803 -0.5107 -0.0069
 3355TIP3    H131624   5.147   3.528   1.426 -0.8662 -2.1667  0.0705
 3355TIP3    H231625   5.123   3.528   1.575 -0.0699 -0.4855  0.2166
 3356TIP3   OH231626   3.242   1.848   8.052  0.0429 -0.2890  0.0561
 3356TIP3    H131627   3.148   1.834   8.037 -0.3059  2.4650 -0.8843
 3356TIP3    H231628   3.284   1.776   8.004 -1.5491 -0.8988 -0.5226
 3357TIP3   OH231629   3.011   5.455   2.452  0.3967  0.4228 -0.3295
 3357TIP3    H131630   3.056   5.530   2.491 -0.6081 -0.2058  2.2494
 3357TIP3    H231631   2.923   5.486   2.434  0.3145  0.1930 -0.3335
 3358TIP3   OH231632   4.537   5.261   1.324 -0.2848 -0.3500 -0.9616
 3358TIP3    H131633   4.451   5.301   1.331  0.4206  1.2613 -1.1315
 3358TIP3    H231634   4.594   5.330   1.290  1.0378 -1.4423 -1.0933
 3359TIP3   OH231635   0.509   3.567   8.719 -0.7406 -0.3888 -0.7637
 3359TIP3    H131636   0.422   3.528   8.733 -0.7052 -0.3201 -0.3449
 3359TIP3    H231637   0.528   3.613   8.800 -0.0743 -0.8532 -0.6540
 3360TIP3   OH231638   4.901   2.715   8.196 -0.1960  0.6258 -0.4517
 3360TIP3    H131639   4.965   2.738   8.129  1.4706 -1.0965  0.4537
 3360TIP3    H231640   4.855   2.797   8.213  1.8821  2.0153 -1.0292
 3361TIP3   OH231641   6.472   2.568   2.437 -0.0931 -0.0782  0.2389
 3361TIP3    H131642   6.548   2.623   2.418 -0.5897  0.0473 -1.6235
 3361TIP3    H231643   6.454   2.582   2.530  2.7933 -0.9602  1.0316
 3362TIP3   OH231644   0.759   0.690   1.933  0.2104 -0.4410  0.3263
 3362TIP3    H131645   0.745   0.604   1.894 -2.0092  0.4317 -0.9748
 3362TIP3    H231646   0.765   0.673   2.027 -1.5764 -1.9406  0.2324
 3363TIP3   OH231647   5.659   4.030   2.193 -0.2904  0.2837 -0.2474
 3363TIP3    H131648   5.721   4.079   2.138  1.7199  0.5297  2.0596
 3363TIP3    H231649   5.606   4.098   2.234  0.0019  0.2885  0.1262
 3364TIP3   OH231650   1.165   4.741   0.195 -0.0842 -0.0023  0.2556
 3364TIP3    H131651   1.129   4.689   0.122  0.4601  1.0834 -0.8169
 3364TIP3    H231652   1.247   4.695   0.218  0.0371 -0.0266 -0.2096
 3365TIP3   OH231653   1.636   2.876   1.461  0.0838 -0.0838  0.1514
 3365TIP3    H131654   1.706   2.900   1.400 -0.7421  0.2908 -0.6685
 3365TIP3    H231655   1.623   2.782   1.447  0.1433 -0.0712  0.0062
 3366TIP3   OH231656   1.263   1.064   1.094 -0.7273  0.2802 -0.1449
 3366TIP3    H131657   1.235   1.141   1.144 -0.4673 -0.4452  1.1711
 3366TIP3    H231658   1.338   1.095   1.043  1.1253  0.3306  2.3860
 3367TIP3   OH231659   4.235   5.385   2.381  0.2009  0.9700  0.4197
 3367TIP3    H131660   4.317   5.338   2.364 -0.7438 -1.2510  1.6834
 3367TIP3    H231661   4.219   5.373   2.474 -0.3636  3.4736  0.7129
 3368TIP3   OH231662   1.028   5.761   8.736  0.3674  0.5995  0.0680
 3368TIP3    H131663   1.015   5.690   8.799  0.1448  0.3256 -0.2878
 3368TIP3    H231664   0.956   5.752   8.674  0.9834  0.4350 -0.6322
 3369TIP3   OH231665   5.914   2.384   2.721  0.0113  0.6183 -0.0746
 3369TIP3    H131666   5.947   2.309   2.672  0.0973 -0.2711  1.3056
 3369TIP3    H231667   5.913   2.355   2.812 -0.5398  2.0874  0.4150
 3370TIP3   OH231668   6.819   2.332   8.546  0.4851 -0.1458 -0.2638
 3370TIP3    H131669   6.781   2.263   8.600  1.7329  0.0387  0.8967
 3370TIP3    H231670   6.914   2.324   8.559  0.6328  2.4262  0.7336
 3371TIP3   OH231671   4.560   3.180   2.682 -0.2636 -0.1501 -0.7380
 3371TIP3    H131672   4.655   3.193   2.690 -0.3110 -0.5433  0.6885
 3371TIP3    H231673   4.535   3.137   2.763 -1.7583  0.4562 -0.8515
 3372TIP3   OH231674   6.577   2.892   2.619  0.2331 -0.4178 -0.9078
 3372TIP3    H131675   6.662   2.928   2.595  0.9047 -1.4315 -0.0819
 3372TIP3    H231676   6.573   2.900   2.714 -1.3076  1.1444 -1.0619
 3373TIP3   OH231677   0.751   5.464   3.468 -0.0637 -0.2603 -0.5184
 3373TIP3    H131678   0.708   5.549   3.457  0.3210  0.1025  0.6628
 3373TIP3    H231679   0.794   5.447   3.384  1.0038  1.3669 -0.3338
 3374TIP3   OH231680   2.841   3.212   1.382 -0.1912 -0.1746  0.1518
 3374TIP3    H131681   2.909   3.156   1.344  1.2082  0.7067  1.2606
 3374TIP3    H231682   2.861   3.299   1.346 -1.0625 -0.0010  0.0840
 3375TIP3   OH231683   3.155   3.914   8.703 -0.0092 -0.2986  0.5762
 3375TIP3    H131684   3.063   3.930   8.680  0.2063 -1.2363 -1.0560
 3375TIP3    H231685   3.187   4.000   8.732 -0.8282  0.5715 -0.9402
 3376TIP3   OH231686   6.098   2.204   1.187 -0.0070 -0.3762  0.3211
 3376TIP3    H131687   6.111   2.299   1.183 -2.3125 -0.0259 -0.7018
 3376TIP3    H231688   6.171   2.167   1.138  1.2783  0.8013  1.2781
 3377TIP3   OH231689   6.409   2.026   0.473 -0.3331  0.0519 -0.2365
 3377TIP3    H131690   6.358   2.017   0.553  2.0375  0.2241  1.3873
 3377TIP3    H231691   6.421   2.120   0.462 -1.7030  0.1207 -1.5852
 3378TIP3   OH231692   3.965   1.842   2.215 -0.6375 -0.2378  0.0845
 3378TIP3    H131693   3.999   1.814   2.130 -1.6548  2.0033 -1.1524
 3378TIP3    H231694   3.874   1.865   2.198 -0.9115  0.0882  1.8344
 3379TIP3   OH231695   2.477   4.693   1.214 -0.3671  0.1001  0.4834
 3379TIP3    H131696   2.518   4.664   1.133 -0.3876  0.8012  0.2160
 3379TIP3    H231697   2.550   4.724   1.268 -0.5693  1.8767 -0.2119
 3380TIP3   OH231698   4.121   2.105   1.484  0.4484  0.3958 -1.0147
 3380TIP3    H131699   4.119   2.050   1.563  0.3254  0.8614 -0.6916
 3380TIP3    H231700   4.207   2.146   1.486  0.7001 -0.0947 -1.4760
 3381TIP3   OH231701   3.912   4.107   3.227 -0.2400 -0.0480  0.0730
 3381TIP3    H131702   3.967   4.029   3.232  2.0304  1.5162  1.3698
 3381TIP3    H231703   3.845   4.094   3.295  0.2163 -0.8114  0.3870
 3382TIP3   OH231704   5.765   0.987   7.629 -0.3554 -0.4662  0.0609
 3382TIP3    H131705   5.681   0.963   7.667 -0.9787 -0.2938 -1.1578
 3382TIP3    H231706   5.822   0.911   7.644 -0.7675 -0.6407  0.7579
 3383TIP3   OH231707   5.285   2.658   2.152 -0.2492 -0.7989  0.5937
 3383TIP3    H131708   5.281   2.719   2.079  0.0416 -0.3409  0.9532
 3383TIP3    H231709   5.328   2.708   2.222 -0.1474 -1.3660  0.9376
 3384TIP3   OH231710   5.729   6.566   2.316  0.8141  0.4189 -0.2236
 3384TIP3    H131711   5.784   6.555   2.393  2.5306  0.6001 -1.3762
 3384TIP3    H231712   5.688   6.652   2.328  1.3901  0.6282  0.3006
 3385TIP3   OH231713   0.406   1.377   0.881 -0.1371  0.1513  0.2338
 3385TIP3    H131714   0.330   1.368   0.823 -0.4395  1.3190  0.4352
 3385TIP3    H231715   0.481   1.375   0.822 -0.2018 -2.0696  0.1074
 3386TIP3   OH231716   4.740   4.373   0.231  0.4794 -0.8598 -0.5920
 3386TIP3    H131717   4.663   4.409   0.274  1.2343  0.4271 -0.2678
 3386TIP3    H231718   4.794   4.449   0.209  1.5646 -1.7106 -1.0037
 3387TIP3   OH231719   1.673   2.920   2.077 -0.0250  0.2369 -1.0455
 3387TIP3    H131720   1.601   2.862   2.054 -0.5191  0.5207 -0.2571
 3387TIP3    H231721   1.631   3.003   2.100  0.6007  0.6051 -1.1977
 3388TIP3   OH231722   3.763   1.220   8.673  0.2230 -1.0910 -0.5243
 3388TIP3    H131723   3.687   1.203   8.729 -0.5030  1.4469 -0.6256
 3388TIP3    H231724   3.726   1.247   8.589  1.1169  1.8118 -0.0804
 3389TIP3   OH231725   0.958   3.141   2.178  0.3813  1.0863  0.2138
 3389TIP3    H131726   0.904   3.195   2.121 -1.8141 -0.9907  0.1652
 3389TIP3    H231727   0.957   3.186   2.262 -0.5513  1.6358 -0.0825
 3390TIP3   OH231728   1.038   4.918   1.531  0.4893 -0.1192  0.3948
 3390TIP3    H131729   0.955   4.938   1.574  0.5478  0.1494  0.3879
 3390TIP3    H231730   1.103   4.922   1.602  0.3027 -1.8746  0.7080
 3391TIP3   OH231731   0.206   1.169   1.703 -0.3078  0.4812 -0.4879
 3391TIP3    H131732   0.239   1.127   1.623 -2.3481 -1.5170 -0.3860
 3391TIP3    H231733   0.256   1.127   1.773  1.8440  2.5954 -0.6370
 3392TIP3   OH231734   3.820   3.316   1.006  0.8142 -0.6733  0.8834
 3392TIP3    H131735   3.725   3.307   1.015  0.8268 -2.2092 -0.2632
 3392TIP3    H231736   3.841   3.396   1.055 -1.1740  0.2114  0.3762
 3393TIP3   OH231737   5.978   0.122   0.172  0.2053 -0.6771 -0.4927
 3393TIP3    H131738   6.065   0.153   0.146 -0.1100 -0.6077 -1.4916
 3393TIP3    H231739   5.983   0.116   0.268  1.5435 -1.4003 -0.5795
 3394TIP3   OH231740   6.523   3.968   1.339 -0.0166 -0.0454 -0.1352
 3394TIP3    H131741   6.527   3.900   1.272  2.0264  1.1824 -1.3765
 3394TIP3    H231742   6.512   4.050   1.289 -0.6447  0.7314  1.1967
 3395TIP3   OH231743   4.085   2.097   1.214  0.2099 -0.0718 -0.0880
 3395TIP3    H131744   4.079   2.093   1.309 -0.4039  0.4180 -0.1023
 3395TIP3    H231745   4.012   2.151   1.187  1.1945  0.9801 -0.7384
 3396TIP3   OH231746   5.573   6.099   2.217 -0.5618  0.1060  0.7866
 3396TIP3    H131747   5.587   6.187   2.182  2.2738 -0.5294  0.0492
 3396TIP3    H231748   5.478   6.092   2.227 -0.8992  3.1755  0.7587
 3397TIP3   OH231749   4.109   1.684   1.593  0.1881 -0.2406  0.5393
 3397TIP3    H131750   4.019   1.654   1.606  0.4210 -0.9812  0.5353
 3397TIP3    H231751   4.161   1.628   1.651  0.7035 -0.2336  0.0983
 3398TIP3   OH231752   0.938   2.223   8.297  0.3253 -0.0505  0.2766
 3398TIP3    H131753   1.005   2.254   8.359  0.9011 -0.0931 -0.3139
 3398TIP3    H231754   0.875   2.177   8.351  1.5678 -1.3650  0.6749
 3399TIP3   OH231755   6.825   1.664   2.435  0.6438 -0.4179 -0.1225
 3399TIP3    H131756   6.872   1.720   2.374 -0.0302  0.1299 -0.1449
 3399TIP3    H231757   6.891   1.639   2.500  1.0881 -0.0763 -0.4367
 3400TIP3   OH231758   0.642   4.003   8.021  0.3233  0.0719 -0.1298
 3400TIP3    H131759   0.719   3.946   8.013  0.8650  0.8944 -1.1310
 3400TIP3    H231760   0.590   3.984   7.942  0.1732  0.4742 -0.1317
 3401TIP3   OH231761   2.484   5.505   0.334  0.3072 -0.6571  0.6011
 3401TIP3    H131762   2.413   5.515   0.397 -0.9847 -0.8706 -0.7463
 3401TIP3    H231763   2.521   5.593   0.325 -1.7109  0.1209 -0.7801
 3402TIP3   OH231764   1.073   0.705   0.408 -0.5913  0.0952 -0.8622
 3402TIP3    H131765   1.135   0.670   0.343  1.0590  1.8244 -0.3250
 3402TIP3    H231766   1.081   0.800   0.399  0.5083  0.4542  2.5167
 3403TIP3   OH231767   5.593   5.800   2.875  0.1164  0.4353 -0.4765
 3403TIP3    H131768   5.565   5.805   2.784  1.6054  1.1003 -0.9172
 3403TIP3    H231769   5.551   5.875   2.917 -0.7004  0.0380 -0.5677
 3404TIP3   OH231770   3.789   6.584   1.610 -0.5228 -0.5515  0.4789
 3404TIP3    H131771   3.815   6.537   1.690 -1.0346  0.1337  1.0638
 3404TIP3    H231772   3.825   6.672   1.622 -1.3887 -0.1761  0.3767
 3405TIP3   OH231773   2.283   0.692   8.530 -0.0215  0.5870  0.2395
 3405TIP3    H131774   2.362   0.714   8.483 -0.0696  1.4498  0.5462
 3405TIP3    H231775   2.311   0.629   8.597 -0.1823 -1.7595 -1.7437
 3406TIP3   OH231776   4.467   2.256   1.738 -0.1982  0.4128  0.0126
 3406TIP3    H131777   4.454   2.177   1.790  0.8613  0.3573  0.2052
 3406TIP3    H231778   4.562   2.270   1.737 -0.2503  0.8064 -1.3120
 3407TIP3   OH231779   1.006   1.735   0.119 -0.2205 -0.2637  0.1670
 3407TIP3    H131780   0.955   1.655   0.110  1.0130 -1.2710  1.6631
 3407TIP3    H231781   1.024   1.743   0.212  0.6291  1.1622 -0.0750
 3408TIP3   OH231782   5.709   5.592   2.241 -0.0643 -0.1373 -0.3966
 3408TIP3    H131783   5.669   5.517   2.285  0.1694  0.7582  1.4489
 3408TIP3    H231784   5.791   5.607   2.289 -0.5846  1.8917 -0.0610
 3409TIP3   OH231785   1.668   4.972   3.202  0.5119 -0.1624  0.3315
 3409TIP3    H131786   1.761   4.995   3.207  0.5029  0.5773 -1.8498
 3409TIP3    H231787   1.629   5.012   3.280  2.1007 -1.0485  1.6321
 3410TIP3   OH231788   2.344   0.793   8.148 -0.1029 -0.3468  0.2853
 3410TIP3    H131789   2.422   0.737   8.150  0.5273  0.5415  1.1693
 3410TIP3    H231790   2.377   0.881   8.164 -1.2349  0.1087  0.1616
 3411TIP3   OH231791   2.118   1.287   0.740  0.9456 -0.1672  0.2054
 3411TIP3    H131792   2.150   1.197   0.755  2.5312  0.6229  2.0878
 3411TIP3    H231793   2.028   1.286   0.774  0.4676 -1.3252 -0.9910
 3412TIP3   OH231794   1.561   1.148   0.215  0.1734 -0.2251  0.6090
 3412TIP3    H131795   1.515   1.066   0.195 -1.2066  0.7881 -0.5079
 3412TIP3    H231796   1.508   1.216   0.174  2.5257  1.0528 -0.4918
 3413TIP3   OH231797   6.529   3.693   0.521  0.2807  0.0361  0.5217
 3413TIP3    H131798   6.465   3.763   0.532  1.4065  1.1471  0.1536
 3413TIP3    H231799   6.476   3.615   0.505 -1.0494  0.5387  2.1241
 3414TIP3   OH231800   2.383   6.548   0.921 -0.8629  0.5841 -0.3665
 3414TIP3    H131801   2.451   6.592   0.973  0.3847 -1.8816  0.2354
 3414TIP3    H231802   2.326   6.507   0.985 -2.3482  1.6857 -0.9111
 3415TIP3   OH231803   1.187   6.561   8.204 -0.8161 -0.0053 -0.3984
 3415TIP3    H131804   1.161   6.652   8.219  0.8099  0.7183 -1.6812
 3415TIP3    H231805   1.142   6.538   8.122 -1.1958 -0.3666 -0.0934
 3416TIP3   OH231806   3.776   0.622   0.688  0.3391 -0.0519 -0.1229
 3416TIP3    H131807   3.738   0.537   0.665  0.8586  0.1421 -1.8502
 3416TIP3    H231808   3.703   0.683   0.683 -0.0443 -0.3799  1.1599
 3417TIP3   OH231809   4.592   4.558   7.674 -0.1636 -0.0534 -0.4336
 3417TIP3    H131810   4.677   4.591   7.644  0.1911  0.4120  1.0166
 3417TIP3    H231811   4.587   4.582   7.767 -2.4125  1.0075 -0.7541
 3418TIP3   OH231812   6.584   5.406   1.459 -0.2010  0.5322  0.4579
 3418TIP3    H131813   6.561   5.370   1.545  0.2038  1.5667  1.0172
 3418TIP3    H231814   6.599   5.499   1.475 -0.7667  0.8769 -0.8662
 3419TIP3   OH231815   3.566   1.856   0.295  0.7328  0.0290 -0.8867
 3419TIP3    H131816   3.550   1.761   0.290  1.6488 -0.0982 -1.6573
 3419TIP3    H231817   3.661   1.864   0.302  0.6401  0.8918 -0.4958
 3420TIP3   OH231818   5.345   3.440   0.421  0.3350 -0.2151 -0.4095
 3420TIP3    H131819   5.289   3.422   0.496 -1.0894  0.6711 -1.2216
 3420TIP3    H231820   5.418   3.491   0.457 -0.3080  0.1600  0.3757
 3421TIP3   OH231821   5.252   0.282   1.556  0.0230 -0.2084  0.5983
 3421TIP3    H131822   5.322   0.281   1.621  0.1912  0.0334  0.4252
 3421TIP3    H231823   5.234   0.375   1.542 -1.4316 -0.2667  1.8024
 3422TIP3   OH231824   2.415   2.911   8.521 -0.1030 -0.0130  0.4249
 3422TIP3    H131825   2.371   2.854   8.459 -2.6004  1.6895  0.4855
 3422TIP3    H231826   2.362   2.906   8.601  0.5058  1.1750  0.9435
 3423TIP3   OH231827   0.434   4.283   2.130 -0.4009  0.2501 -0.0281
 3423TIP3    H131828   0.522   4.273   2.095 -0.4910 -2.0944  0.2149
 3423TIP3    H231829   0.446   4.319   2.218  0.3993 -0.8672  0.3348
 3424TIP3   OH231830   5.164   5.968   2.955 -0.0696  0.6329  0.2392
 3424TIP3    H131831   5.182   5.955   3.049 -0.5085  2.4189  0.6084
 3424TIP3    H231832   5.069   5.972   2.949 -0.0454  0.4505 -0.3089
 3425TIP3   OH231833   3.280   3.283   7.603 -0.3450  0.1551  0.2381
 3425TIP3    H131834   3.336   3.360   7.598 -0.4133  0.1536 -0.7772
 3425TIP3    H231835   3.214   3.297   7.535 -1.0962 -0.2195  0.8803
 3426TIP3   OH231836   5.157   5.351   0.456 -0.2167 -0.7739  0.2139
 3426TIP3    H131837   5.083   5.316   0.406  0.6930  1.9528 -3.5474
 3426TIP3    H231838   5.130   5.440   0.480  1.3463 -0.1461 -0.2163
 3427TIP3   OH231839   3.574   1.179   2.642  0.7581 -0.6391 -0.3948
 3427TIP3    H131840   3.564   1.115   2.571  0.1890  0.9877 -1.8545
 3427TIP3    H231841   3.669   1.187   2.653  0.9299  0.2027 -2.1082
 3428TIP3   OH231842   2.954   2.354   1.419  0.2701  0.1314 -0.5991
 3428TIP3    H131843   2.911   2.317   1.343 -0.0673 -0.4272 -0.1401
 3428TIP3    H231844   2.884   2.397   1.469  0.3666 -0.1297 -0.2355
 3429TIP3   OH231845   0.303   0.384   1.290  0.2567 -0.2947  0.6943
 3429TIP3    H131846   0.279   0.437   1.214  0.6967 -0.5734  0.3564
 3429TIP3    H231847   0.360   0.441   1.342  1.4678 -0.7281 -0.1212
 3430TIP3   OH231848   0.161   2.900   1.458 -0.5905 -0.4596  0.2721
 3430TIP3    H131849   0.200   2.984   1.433  0.1899 -0.8157  0.2642
 3430TIP3    H231850   0.167   2.898   1.553 -0.6881 -0.4606  0.2774
 3431TIP3   OH231851   6.205   1.299   1.539  0.0459  0.5464  0.0186
 3431TIP3    H131852   6.213   1.280   1.446  0.8057  1.7808 -0.1958
 3431TIP3    H231853   6.119   1.265   1.563 -2.0100  3.6822 -2.1042
 3432TIP3   OH231854   6.816   5.444   0.852 -0.2418  0.5138 -0.0481
 3432TIP3    H131855   6.788   5.499   0.925  1.3397  0.1165  0.9246
 3432TIP3    H231856   6.797   5.355   0.881 -0.3872  0.4031 -0.4832
 3433TIP3   OH231857   4.798   4.765   1.734  0.2335  0.0871  0.3081
 3433TIP3    H131858   4.865   4.789   1.798 -1.5262  0.3606  2.1840
 3433TIP3    H231859   4.812   4.824   1.661  1.8195  0.3469  0.7761
 3434TIP3   OH231860   2.817   6.076   1.352 -0.0232  0.1815 -0.0545
 3434TIP3    H131861   2.769   6.152   1.385 -0.7823  0.1570 -1.0725
 3434TIP3    H231862   2.842   6.100   1.263 -0.0108 -0.6562 -0.2842
 3435TIP3   OH231863   2.337   0.106   1.797 -0.5446  0.2554  0.6805
 3435TIP3    H131864   2.427   0.110   1.763 -1.1480 -1.1734 -1.3211
 3435TIP3    H231865   2.336   0.027   1.851 -0.2067  1.1938  2.0981
 3436TIP3   OH231866   6.821   4.052   8.125  0.3752  0.0175 -0.1601
 3436TIP3    H131867   6.906   4.090   8.145 -0.4192  1.0450  1.5247
 3436TIP3    H231868   6.790   4.099   8.048  1.0558  0.0765 -0.3987
 3437TIP3   OH231869   4.213   3.620   3.610 -0.3586 -0.6690  0.3143
 3437TIP3    H131870   4.291   3.659   3.648 -0.1141 -0.2895 -0.5405
 3437TIP3    H231871   4.219   3.642   3.517 -0.9456 -1.5297  0.0606
 3438TIP3   OH231872   1.332   2.163   7.983 -0.3879 -0.1272 -0.8887
 3438TIP3    H131873   1.357   2.084   8.030  2.5980  0.6499 -0.9062
 3438TIP3    H231874   1.238   2.171   7.996 -0.4245 -2.4827  0.9482
 3439TIP3   OH231875   1.524   4.854   1.302 -0.0430  0.5560 -0.2976
 3439TIP3    H131876   1.558   4.938   1.272  1.6427 -0.3671 -1.0795
 3439TIP3    H231877   1.460   4.877   1.370  2.0567  2.3956  1.1993
 3440TIP3   OH231878   5.833   4.016   7.694 -0.1699  0.0411  0.2847
 3440TIP3    H131879   5.905   4.074   7.670 -0.2337  0.0136  0.0205
 3440TIP3    H231880   5.773   4.021   7.621  0.4865 -1.4454 -0.4068
 3441TIP3   OH231881   5.220   2.774   3.424 -0.1487 -0.1716 -0.2906
 3441TIP3    H131882   5.198   2.741   3.512 -2.8541 -1.1537 -1.2316
 3441TIP3    H231883   5.231   2.869   3.436  1.5890 -0.5355  1.4129
 3442TIP3   OH231884   0.704   3.197   8.292  0.3562  0.0508  0.0645
 3442TIP3    H131885   0.676   3.225   8.379  1.0767  1.1479 -0.0328
 3442TIP3    H231886   0.764   3.266   8.263 -1.0255  0.4946 -1.9363
 3443TIP3   OH231887   3.201   2.598   1.349  0.0149  0.1136  0.0971
 3443TIP3    H131888   3.123   2.594   1.405 -0.4787  0.5345 -0.5496
 3443TIP3    H231889   3.218   2.691   1.337 -0.2090  0.0384 -0.8929
 3444TIP3   OH231890   3.282   0.279   2.179  0.2431 -0.2574  0.1677
 3444TIP3    H131891   3.238   0.263   2.263 -0.5539  0.5973 -0.0755
 3444TIP3    H231892   3.219   0.328   2.127  0.0535 -2.1715 -1.5822
 3445TIP3   OH231893   0.997   4.465   2.932 -0.5075 -0.5287 -0.0068
 3445TIP3    H131894   1.084   4.432   2.955 -0.0672  0.1594 -0.6799
 3445TIP3    H231895   0.980   4.534   2.996 -0.1035  0.0575 -0.5211
 3446TIP3   OH231896   6.707   1.705   1.281  0.5875 -0.2753  0.1684
 3446TIP3    H131897   6.672   1.789   1.312  0.9820 -0.4122  1.0198
 3446TIP3    H231898   6.639   1.641   1.304 -0.1867 -0.0853 -1.4071
 3447TIP3   OH231899   3.175   5.759   7.655  0.4031  0.3626  0.3162
 3447TIP3    H131900   3.258   5.806   7.650 -0.3271  1.7887  0.9910
 3447TIP3    H231901   3.200   5.668   7.674  1.8194  0.5972 -0.2832
 3448TIP3   OH231902   1.943   3.423   0.612  0.1055  0.3633 -0.3198
 3448TIP3    H131903   1.886   3.388   0.680  0.3614 -0.7827 -0.6736
 3448TIP3    H231904   1.906   3.508   0.591 -0.9326  0.0275  0.1032
 3449TIP3   OH231905   1.076   6.669   1.955 -0.1127 -0.0521 -0.5132
 3449TIP3    H131906   1.145   6.735   1.958  1.5977 -1.7228 -1.1618
 3449TIP3    H231907   1.012   6.704   1.892  0.1695  1.4625 -0.0060
 3450TIP3   OH231908   0.893   5.659   8.093  0.0070 -0.1186  0.2323
 3450TIP3    H131909   0.908   5.599   8.166  0.2345  1.1791  1.3035
 3450TIP3    H231910   0.957   5.730   8.107  0.4364 -0.0991 -1.5490
 3451TIP3   OH231911   1.039   2.210   0.677 -0.3559 -0.5188  0.2241
 3451TIP3    H131912   0.999   2.294   0.701 -0.4607 -0.3440 -0.5501
 3451TIP3    H231913   0.971   2.163   0.629  0.7663  0.4078 -2.4987
 3452TIP3   OH231914   4.568   2.989   2.477  0.3398  0.0206  0.4713
 3452TIP3    H131915   4.561   3.045   2.555  2.8272 -1.4300  1.8637
 3452TIP3    H231916   4.622   3.039   2.416 -2.0206  1.3743 -0.6632
 3453TIP3   OH231917   5.778   2.228   0.061  0.4804 -0.1577  0.4002
 3453TIP3    H131918   5.784   2.288  -0.014  1.1158 -0.7779 -0.0591
 3453TIP3    H231919   5.685   2.227   0.083  0.2641 -0.0335 -0.4554
 3454TIP3   OH231920   6.033   3.991   8.138 -0.6493  0.1753  0.3946
 3454TIP3    H131921   6.079   3.942   8.070  0.5832  0.0208  1.3021
 3454TIP3    H231922   5.956   3.938   8.158 -0.3760 -0.3850 -0.0200
 3455TIP3   OH231923   1.880   2.202   0.134  0.2720 -0.0705 -0.4333
 3455TIP3    H131924   1.804   2.239   0.178  0.5925 -1.4532  1.3957
 3455TIP3    H231925   1.955   2.249   0.171  0.4397 -0.0502 -0.7904
 3456TIP3   OH231926   1.438   6.678   8.309 -0.0174  0.2060 -0.0476
 3456TIP3    H131927   1.348   6.662   8.281  0.0547  1.4504 -1.1172
 3456TIP3    H231928   1.479   6.721   8.233  2.1508 -2.3689 -0.4725
 3457TIP3   OH231929   4.714   6.029   0.993 -0.3148  0.2508  0.1176
 3457TIP3    H131930   4.688   6.022   1.085 -1.4897 -1.0026 -0.2654
 3457TIP3    H231931   4.712   5.939   0.961 -0.5297  0.7318 -1.2838
 3458TIP3   OH231932   3.857   5.803   7.895  0.7104  0.4054 -0.4816
 3458TIP3    H131933   3.762   5.817   7.903  0.9841  2.1412  0.1235
 3458TIP3    H231934   3.867   5.748   7.817 -0.9847 -2.6594  1.2522
 3459TIP3   OH231935   0.833   1.508   0.331 -0.6626 -0.2936  0.1191
 3459TIP3    H131936   0.907   1.561   0.363 -0.9081  0.1504 -0.0294
 3459TIP3    H231937   0.830   1.525   0.237 -0.8239 -0.4743  0.0906
 3460TIP3   OH231938   0.404   6.005   1.113 -0.1837 -0.1556  0.9614
 3460TIP3    H131939   0.420   6.074   1.049 -0.9321  0.6718  1.6393
 3460TIP3    H231940   0.492   5.973   1.137  0.1169 -0.1528 -0.1061
 3461TIP3   OH231941   3.905   3.129   0.711  0.0990 -0.4169 -0.6718
 3461TIP3    H131942   3.822   3.080   0.704 -0.0168 -0.1294 -1.3079
 3461TIP3    H231943   3.953   3.083   0.780 -1.6464  0.9550  1.5915
 3462TIP3   OH231944   2.928   1.099   0.295  0.3077  0.1300 -0.0077
 3462TIP3    H131945   2.869   1.029   0.324  0.9710  0.0456  1.2373
 3462TIP3    H231946   2.876   1.179   0.300 -0.0937 -0.1104 -0.2566
 3463TIP3   OH231947   0.563   5.730   8.451 -0.1501  0.3303  0.2231
 3463TIP3    H131948   0.634   5.739   8.514  0.6422 -0.1771 -0.5757
 3463TIP3    H231949   0.595   5.666   8.388 -0.8206  1.0315 -0.8533
 3464TIP3   OH231950   6.795   0.558   1.342 -0.2157  0.4115  0.0406
 3464TIP3    H131951   6.771   0.465   1.343  0.4774  0.2099 -0.6527
 3464TIP3    H231952   6.814   0.579   1.433  2.1243 -0.8337 -0.0842
 3465TIP3   OH231953   2.235   3.830   8.572 -0.3263 -0.2398  0.1802
 3465TIP3    H131954   2.281   3.879   8.640 -0.2938 -0.9289  0.6624
 3465TIP3    H231955   2.297   3.827   8.499 -0.5733  0.9833 -0.1020
 3466TIP3   OH231956   3.581   3.685   7.084  0.0075 -0.2683  0.1324
 3466TIP3    H131957   3.607   3.772   7.051  1.2855 -0.1555  1.3391
 3466TIP3    H231958   3.576   3.696   7.179 -0.8193 -1.2878  0.2272
 3467TIP3   OH231959   6.412   1.445   0.723 -0.3507  0.2589  0.1028
 3467TIP3    H131960   6.355   1.489   0.786  0.3697 -0.3295  1.2095
 3467TIP3    H231961   6.429   1.510   0.655 -2.0032  0.5637 -0.0413
 3468TIP3   OH231962   5.722   4.861   2.402  0.1998 -0.4514 -1.1797
 3468TIP3    H131963   5.801   4.914   2.385 -0.5293  2.3288  2.7277
 3468TIP3    H231964   5.651   4.912   2.364 -0.1480 -0.5958 -0.7211
 3469TIP3   OH231965   6.020   0.780   8.522 -0.1810  0.0444 -0.0189
 3469TIP3    H131966   6.092   0.749   8.577  0.5609  0.7241 -0.5778
 3469TIP3    H231967   5.973   0.700   8.497  0.9478 -0.5164 -0.4177
 3470TIP3   OH231968   3.095   5.655   0.262 -0.0097  1.1693  0.0779
 3470TIP3    H131969   3.035   5.712   0.312  1.5403  1.1424  2.1321
 3470TIP3    H231970   3.044   5.578   0.241 -1.0504  1.6747  0.6891
 3471TIP3   OH231971   6.586   6.443   1.088 -0.3342 -0.2472  0.5187
 3471TIP3    H131972   6.658   6.382   1.105 -0.5859 -0.2573  1.6875
 3471TIP3    H231973   6.621   6.529   1.113 -1.1822 -0.4534  2.7063
 3472TIP3   OH231974   5.305   5.222   1.703 -0.2728  0.1984  0.1457
 3472TIP3    H131975   5.274   5.271   1.779 -0.6055 -0.4902  0.4590
 3472TIP3    H231976   5.364   5.283   1.658  0.0378  0.5665  1.0256
 3473TIP3   OH231977   3.521   1.942   2.321  0.2320 -0.3084 -0.3296
 3473TIP3    H131978   3.427   1.923   2.318 -0.3142  2.0115  0.0322
 3473TIP3    H231979   3.543   1.939   2.415  0.0628  0.9705 -0.2308
 3474TIP3   OH231980   0.030   4.512   0.853 -0.0373  0.0933  0.1795
 3474TIP3    H131981  -0.031   4.438   0.854 -0.3109  0.3090 -0.3265
 3474TIP3    H231982   0.033   4.540   0.761  2.1562 -0.9987 -0.1427
 3475TIP3   OH231983   0.281   1.659   7.666  0.1973 -0.3602  0.0901
 3475TIP3    H131984   0.213   1.669   7.600  0.4184 -1.8294 -0.3900
 3475TIP3    H231985   0.363   1.655   7.616  0.2243 -3.4702  0.2085
 3476TIP3   OH231986   0.606   5.731   8.123 -0.5827  0.1115  0.1443
 3476TIP3    H131987   0.569   5.692   8.044 -0.6440  1.4623 -0.5134
 3476TIP3    H231988   0.701   5.719   8.113 -0.6352 -0.3986  0.2381
 3477TIP3   OH231989   6.812   1.177   7.041  0.7520  0.0491  0.2886
 3477TIP3    H131990   6.832   1.165   7.134  1.8306 -2.3753 -0.1680
 3477TIP3    H231991   6.894   1.209   7.003  0.0302  1.9728  0.2866
 3478TIP3   OH231992   6.506   4.280   8.625 -0.8513  0.2797  0.4526
 3478TIP3    H131993   6.515   4.360   8.678 -0.7303  0.2392  0.4925
 3478TIP3    H231994   6.552   4.213   8.675  0.9765  0.6624 -0.6353
 3479TIP3   OH231995   1.056   2.897   2.416  0.3095 -0.1250  0.6617
 3479TIP3    H131996   1.140   2.941   2.401 -0.8368  2.1770  0.5086
 3479TIP3    H231997   1.020   2.939   2.494 -1.3398  0.0070 -0.1122
 3480TIP3   OH231998   6.269   2.796   7.710 -0.8017 -0.0981  0.0267
 3480TIP3    H131999   6.258   2.714   7.759  0.2512 -0.0896  0.3201
 3480TIP3    H232000   6.184   2.812   7.670 -1.5254 -0.4402  1.3389
 3481TIP3   OH232001   5.122   3.593   0.285  0.1569 -0.0980  0.4161
 3481TIP3    H132002   5.113   3.627   0.374 -0.8128 -1.3162  0.8016
 3481TIP3    H232003   5.194   3.643   0.248  0.7597  0.2363  1.9751
 3482TIP3   OH232004   2.530   3.016   1.678  0.0225  0.1086  0.1165
 3482TIP3    H132005   2.473   2.990   1.606  0.3776 -1.6494  0.4120
 3482TIP3    H232006   2.612   3.043   1.636  0.5491 -1.7831 -0.1439
 3483TIP3   OH232007   4.977   6.459   0.335  0.1409 -0.3231  0.1866
 3483TIP3    H132008   5.052   6.438   0.279  0.8932  0.2029  0.9580
 3483TIP3    H232009   5.015   6.513   0.404 -1.2098  1.1011 -0.1537
 3484TIP3   OH232010   4.776   3.536   1.519  0.2512  0.2773 -0.1474
 3484TIP3    H132011   4.779   3.549   1.424  1.3215  0.6950 -0.0662
 3484TIP3    H232012   4.714   3.602   1.550 -1.7299 -1.2045 -0.7457
 3485TIP3   OH232013   1.479   3.431   8.264 -0.4237  0.1738 -0.7612
 3485TIP3    H132014   1.407   3.455   8.205 -0.4342  0.2824 -0.7046
 3485TIP3    H232015   1.538   3.507   8.262 -0.7305  0.4364 -0.1540
 3486TIP3   OH232016   3.872   1.544   7.606  0.5082  0.5278 -0.1575
 3486TIP3    H132017   3.941   1.574   7.665  1.2015 -0.3782 -0.4664
 3486TIP3    H232018   3.902   1.457   7.578  0.7969  1.3825 -2.7529
 3487TIP3   OH232019   3.943   5.315   7.660 -0.6129  0.4760 -0.5562
 3487TIP3    H132020   3.948   5.337   7.566  0.4074  1.0701 -0.3734
 3487TIP3    H232021   3.852   5.287   7.672 -0.8444  0.6691 -1.6659
 3488TIP3   OH232022   2.173   0.161   0.372  0.5859  0.2879 -0.4041
 3488TIP3    H132023   2.141   0.247   0.347 -2.0743 -0.7632 -0.9424
 3488TIP3    H232024   2.233   0.136   0.302 -0.3936  0.7778 -1.4355
 3489TIP3   OH232025   2.962   0.042   8.514  0.5679  0.3873  0.3665
 3489TIP3    H132026   3.015   0.063   8.436  0.3180  0.3007  0.1719
 3489TIP3    H232027   2.910  -0.034   8.487  0.6515  0.2119  0.6977
 3490TIP3   OH232028   2.039   1.449   1.343 -0.3143 -0.1476  0.8381
 3490TIP3    H132029   2.093   1.513   1.297 -0.9307  1.4429  2.2143
 3490TIP3    H232030   2.041   1.478   1.434 -1.1184 -1.7652  1.3983
 3491TIP3   OH232031   4.551   2.842   1.998 -0.0472 -0.0405 -0.0202
 3491TIP3    H132032   4.557   2.803   2.085  1.2222 -1.8004 -0.8332
 3491TIP3    H232033   4.458   2.860   1.987 -0.0285  2.2919  2.4948
 3492TIP3   OH232034   4.494   2.397   1.510 -0.4289  0.0694 -0.1801
 3492TIP3    H132035   4.513   2.491   1.508 -0.1145  0.0820  1.8966
 3492TIP3    H232036   4.498   2.373   1.602 -1.9227 -1.7126 -0.5105
 3493TIP3   OH232037   1.437   4.385   8.693  0.1992  0.3015  0.2620
 3493TIP3    H132038   1.517   4.359   8.740  0.8526 -0.2225 -1.0993
 3493TIP3    H232039   1.393   4.302   8.675  1.3507  0.1906 -2.4434
 3494TIP3   OH232040   5.107   2.879   7.234  0.4457  0.0912 -0.3119
 3494TIP3    H132041   5.041   2.810   7.224 -0.0083  0.4226  0.3612
 3494TIP3    H232042   5.174   2.839   7.289 -1.6557  1.3573  3.5572
 3495TIP3   OH232043   2.482   4.141   2.423  0.0492  0.0449  0.1355
 3495TIP3    H132044   2.569   4.178   2.438 -0.4006  1.3140 -0.3141
 3495TIP3    H232045   2.477   4.128   2.329 -0.5911  0.8658  0.0491
 3496TIP3   OH232046   4.835   5.328   1.992  0.0444  0.5199  0.4859
 3496TIP3    H132047   4.886   5.341   1.912  1.2544  0.0226  1.1645
 3496TIP3    H232048   4.899   5.306   2.059 -1.0834 -0.4219  1.3025
 3497TIP3   OH232049   6.169   0.848   7.843  0.2615  0.1821 -0.4842
 3497TIP3    H132050   6.100   0.825   7.781 -0.8520  0.1463  0.7305
 3497TIP3    H232051   6.178   0.943   7.835  0.2268  0.1595 -0.7980
 3498TIP3   OH232052   1.582   4.915   0.608  0.4771  0.0330 -0.5821
 3498TIP3    H132053   1.517   4.865   0.558  0.0952 -0.8915  0.7863
 3498TIP3    H232054   1.530   4.972   0.664  0.8731  0.1475 -0.3289
 3499TIP3   OH232055   6.160   2.797   3.627  0.6459  0.4840  0.0513
 3499TIP3    H132056   6.084   2.792   3.570  0.0425  0.4683  0.8352
 3499TIP3    H232057   6.139   2.739   3.700  0.2605  2.4285  1.5775
 3500TIP3   OH232058   4.894   4.116   2.732  0.2481  0.1318  0.1814
 3500TIP3    H132059   4.931   4.062   2.802  0.6401  0.1534 -0.0057
 3500TIP3    H232060   4.800   4.102   2.738  0.3992 -1.3786 -0.5138
 3501TIP3   OH232061   4.342   0.437   8.334  0.1714  0.1048  0.3390
 3501TIP3    H132062   4.379   0.400   8.415 -0.3708  1.5907  1.3053
 3501TIP3    H232063   4.418   0.449   8.277  0.2615 -3.5794 -0.5794
 3502TIP3   OH232064   1.024   2.722   0.880 -0.4146  0.2790  0.6391
 3502TIP3    H132065   1.044   2.792   0.943 -0.2255 -0.0997  1.0010
 3502TIP3    H232066   0.934   2.698   0.899 -0.1868 -0.2003  1.1193
 3503TIP3   OH232067   6.818   6.423   0.350 -0.0576 -0.2464 -0.9299
 3503TIP3    H132068   6.734   6.399   0.311 -0.7989  2.1755 -0.9361
 3503TIP3    H232069   6.806   6.409   0.444  0.2895 -1.8899 -1.0863
 3504TIP3   OH232070   2.573   4.958   2.313 -0.3719  0.3556  0.4815
 3504TIP3    H132071   2.525   4.951   2.395  0.7860  2.5245  1.4502
 3504TIP3    H232072   2.596   5.051   2.307  0.7094  0.0200 -1.6549
 3505TIP3   OH232073   1.100   5.313   2.008 -0.3364  0.3060  0.7929
 3505TIP3    H132074   1.037   5.257   1.962 -1.5415  1.7371  0.6365
 3505TIP3    H232075   1.107   5.274   2.095 -1.1301 -0.1308  0.6753
 3506TIP3   OH232076   1.470   6.314   2.606  0.0387  0.5233  0.3077
 3506TIP3    H132077   1.414   6.349   2.675  0.2337 -0.7703  1.1674
 3506TIP3    H232078   1.560   6.334   2.635  0.0924  0.8314 -0.0635
 3507TIP3   OH232079   2.429   2.103   0.343  0.3457 -0.2007 -0.1415
 3507TIP3    H132080   2.395   2.119   0.431  1.6589 -0.2298  0.3898
 3507TIP3    H232081   2.524   2.093   0.355  0.4103 -1.4665 -1.3765
 3508TIP3   OH232082   3.726   4.477   2.809 -0.2335 -0.0448 -0.2170
 3508TIP3    H132083   3.693   4.466   2.898  0.8151  0.9248  0.3164
 3508TIP3    H232084   3.821   4.472   2.818  0.0252  2.3249 -0.8944
 3509TIP3   OH232085   1.870   5.217   0.105  0.1624 -0.0578  0.2028
 3509TIP3    H132086   1.805   5.199   0.037  0.1802  1.5825 -0.2799
 3509TIP3    H232087   1.936   5.271   0.062  1.1936 -0.6044  1.0386
 3510TIP3   OH232088   0.789   6.769   1.930 -0.5419  0.5079 -0.3671
 3510TIP3    H132089   0.788   6.678   1.901  0.8380 -0.0125  1.0811
 3510TIP3    H232090   0.698   6.789   1.950 -0.7394 -0.8882  0.2485
 3511TIP3   OH232091   2.211   4.679   8.133  0.2722 -0.5687  0.4365
 3511TIP3    H132092   2.257   4.671   8.216 -0.2428 -2.5327  0.5835
 3511TIP3    H232093   2.119   4.667   8.155  0.0213 -0.0354 -0.2843
 3512TIP3   OH232094   1.693   5.489   1.796 -0.0353  0.4423  0.1161
 3512TIP3    H132095   1.679   5.443   1.714  0.9205 -0.5959  0.5106
 3512TIP3    H232096   1.685   5.422   1.863  1.3623  0.8198  0.7064
 3513TIP3   OH232097   6.688   2.518   0.930 -0.3649 -0.1009 -0.6545
 3513TIP3    H132098   6.649   2.601   0.906  0.2773  0.5275  0.4094
 3513TIP3    H232099   6.781   2.527   0.908 -0.1011 -0.1572  0.3536
 3514TIP3   OH232100   5.029   6.390   8.043  0.2026  0.1390 -0.1206
 3514TIP3    H132101   5.067   6.471   8.077  0.4750  1.0477 -2.4739
 3514TIP3    H232102   4.942   6.415   8.012 -0.6447 -1.0082  1.1920
 3515TIP3   OH232103   6.206   1.153   8.395  0.1078 -1.2144 -0.8719
 3515TIP3    H132104   6.255   1.230   8.423  0.7156 -1.1795 -1.9637
 3515TIP3    H232105   6.117   1.185   8.380  0.1160 -0.9448 -0.3600
 3516TIP3   OH232106   0.598   3.236   7.545  0.1137  0.5665 -0.1951
 3516TIP3    H132107   0.643   3.207   7.625 -1.4062 -1.4571 -0.0029
 3516TIP3    H232108   0.560   3.321   7.569  1.6175  1.0910  0.4501
 3517TIP3   OH232109   6.742   0.596   8.433 -0.9325 -0.1427  0.0623
 3517TIP3    H132110   6.755   0.578   8.340  0.5809 -2.4259  0.6283
 3517TIP3    H232111   6.805   0.665   8.453 -1.7836  0.9024 -0.6967
 3518TIP3   OH232112   4.235   3.336   2.275  0.1441 -0.1236 -0.6075
 3518TIP3    H132113   4.171   3.406   2.264  1.8537  1.8968  1.4340
 3518TIP3    H232114   4.210   3.293   2.357  1.2649  0.6209  0.1568
 3519TIP3   OH232115   1.950   0.962   2.379  0.2194  0.4384 -0.1807
 3519TIP3    H132116   1.930   0.939   2.288 -1.2020  1.1858 -0.0828
 3519TIP3    H232117   2.022   0.903   2.403 -1.4792 -2.0189 -0.7574
 3520TIP3   OH232118   4.659   4.014   1.117 -1.1149  0.5393 -0.0310
 3520TIP3    H132119   4.726   4.082   1.125 -1.5698  0.8529  1.3772
 3520TIP3    H232120   4.686   3.946   1.178 -0.3172 -0.8932 -1.8962
 3521TIP3   OH232121   5.486   1.645   2.261 -0.3649 -0.1921  0.0312
 3521TIP3    H132122   5.549   1.641   2.334 -1.0792 -0.3913  0.6503
 3521TIP3    H232123   5.405   1.610   2.298 -0.6785 -0.4959 -0.9330
 3522TIP3   OH232124   4.598   4.672   1.909  0.6108 -0.1808  0.6687
 3522TIP3    H132125   4.669   4.666   1.845 -0.1504 -0.9531 -0.1452
 3522TIP3    H232126   4.547   4.748   1.881 -0.1905 -0.9974 -0.1810
 3523TIP3   OH232127   1.276   3.028   1.804  0.6776 -0.6844 -0.1254
 3523TIP3    H132128   1.288   3.014   1.710 -1.0286 -0.3423 -0.4309
 3523TIP3    H232129   1.256   2.941   1.839 -0.7849 -0.5056 -0.4607
 3524TIP3   OH232130   2.994   1.797   2.606  0.3718 -0.2441 -0.1884
 3524TIP3    H132131   3.067   1.822   2.550  0.8787 -0.0297  0.5500
 3524TIP3    H232132   3.003   1.852   2.684 -0.7447 -0.0104 -0.2031
 3525TIP3   OH232133   4.249   3.344   3.321 -0.1329 -0.0573  0.0903
 3525TIP3    H132134   4.178   3.280   3.313  0.0999 -0.2967 -0.0741
 3525TIP3    H232135   4.303   3.311   3.392 -0.9260  0.8460  1.1658
 3526TIP3   OH232136   5.191   6.438   0.130  0.4697  0.2386  0.1924
 3526TIP3    H132137   5.163   6.446   0.039  0.8632 -2.0679 -0.2095
 3526TIP3    H232138   5.248   6.360   0.131  1.3164  0.8033  2.2234
 3527TIP3   OH232139   4.792   4.895   7.253  0.4907  0.1318  0.1326
 3527TIP3    H132140   4.740   4.973   7.231  2.1120  1.6261  1.2564
 3527TIP3    H232141   4.843   4.878   7.175 -0.6609 -0.5057 -0.5022
 3528TIP3   OH232142   3.719   6.666   8.500  0.2564  0.0132  0.1764
 3528TIP3    H132143   3.802   6.673   8.547  0.5304 -0.7251 -0.1816
 3528TIP3    H232144   3.743   6.670   8.408 -0.0682 -0.5101  0.0650
 3529TIP3   OH232145   6.688   3.019   0.862  0.1510  0.1664  0.3243
 3529TIP3    H132146   6.640   3.048   0.784 -1.0316 -1.4238  0.3931
 3529TIP3    H232147   6.780   3.031   0.839 -0.0958 -1.4555 -1.8996
 3530TIP3   OH232148   4.374   5.292   7.888 -0.3141 -0.4130  0.0893
 3530TIP3    H132149   4.375   5.386   7.872 -0.5857 -0.4817 -0.3369
 3530TIP3    H232150   4.290   5.262   7.854  0.6522 -1.1502 -1.8155
 3531TIP3   OH232151   0.565   0.291   1.148  0.1376 -0.2957  0.5265
 3531TIP3    H132152   0.472   0.309   1.162 -0.1160 -0.4720 -0.8204
 3531TIP3    H232153   0.571   0.195   1.144  0.0543 -0.2579 -1.2636
 3532TIP3   OH232154   3.997   4.907   0.699  0.3447 -0.0377 -0.1529
 3532TIP3    H132155   4.078   4.875   0.661  0.8358 -1.5068  1.9739
 3532TIP3    H232156   3.927   4.864   0.649  0.8293  1.0070 -1.7954
 3533TIP3   OH232157   2.293   5.484   2.271  0.0345  0.3175 -0.4281
 3533TIP3    H132158   2.287   5.499   2.365  1.3247  0.5489 -0.3677
 3533TIP3    H232159   2.241   5.405   2.256  0.6015 -0.2816  0.6227
 3534TIP3   OH232160   4.914   2.132   1.081 -0.0174  0.0817  0.0370
 3534TIP3    H132161   4.893   2.061   1.142 -0.2150  0.4144  0.3609
 3534TIP3    H232162   4.856   2.119   1.006  0.4330 -0.5032 -0.2136
 3535TIP3   OH232163   2.152   5.806   0.117  0.2568 -0.6632 -0.4820
 3535TIP3    H132164   2.084   5.809   0.184 -1.1514 -1.0638 -1.8312
 3535TIP3    H232165   2.146   5.717   0.081 -0.4879  0.1475 -2.5346
 3536TIP3   OH232166   1.055   6.595   8.450 -0.2829 -0.0619 -0.1609
 3536TIP3    H132167   1.089   6.566   8.365 -0.3268 -0.0822 -0.1718
 3536TIP3    H232168   1.039   6.689   8.438  1.3047  0.3097  0.3430
 3537TIP3   OH232169   2.850   4.031   2.904 -0.0093  0.2453  0.3311
 3537TIP3    H132170   2.817   4.047   2.816 -0.8594  1.1241  0.7878
 3537TIP3    H232171   2.781   4.063   2.962  0.9032  0.4891  1.3180
 3538TIP3   OH232172   0.753   1.612   1.387 -0.1797 -0.1163 -0.4152
 3538TIP3    H132173   0.678   1.570   1.429 -0.3578  1.5408  1.0141
 3538TIP3    H232174   0.819   1.619   1.456  0.6097  0.1058 -1.1739
 3539TIP3   OH232175   5.600   2.847   2.778 -0.2449 -0.4679 -0.1328
 3539TIP3    H132176   5.686   2.812   2.759 -0.2098 -0.8374  0.6471
 3539TIP3    H232177   5.571   2.799   2.856  0.9412  2.9519  2.7300
 3540TIP3   OH232178   2.209   2.951   7.336  0.0988  0.1734  0.5236
 3540TIP3    H132179   2.219   2.858   7.356  0.7349  0.0553 -0.2619
 3540TIP3    H232180   2.298   2.981   7.318 -0.2590  0.5538 -0.7658
 3541TIP3   OH232181   6.808   6.135   0.738 -0.0224  0.7688 -0.0915
 3541TIP3    H132182   6.803   6.049   0.696  1.8004  0.3929  0.3587
 3541TIP3    H232183   6.739   6.133   0.805 -0.8925  0.2033 -0.9690
 3542TIP3   OH232184   2.292   4.621   7.465 -0.2240  0.4706 -0.0903
 3542TIP3    H132185   2.244   4.697   7.433 -1.3563  0.5705  1.6963
 3542TIP3    H232186   2.376   4.623   7.418  0.4636  3.7511  1.0290
 3543TIP3   OH232187   0.306   5.174   8.549  0.2847  0.2780  0.1155
 3543TIP3    H132188   0.388   5.223   8.547  1.1953 -1.2239 -0.6099
 3543TIP3    H232189   0.303   5.127   8.465  0.3836 -2.3387  1.4606
 3544TIP3   OH232190   3.873   1.267   2.658 -0.5946 -0.0135  0.0135
 3544TIP3    H132191   3.957   1.287   2.701 -0.8022 -0.5173  0.6686
 3544TIP3    H232192   3.896   1.258   2.566  0.1231 -0.3914  0.2161
 3545TIP3   OH232193   5.803   5.428   1.431  0.1131 -0.7991 -0.5582
 3545TIP3    H132194   5.752   5.348   1.445 -0.9023 -0.0202  0.3768
 3545TIP3    H232195   5.894   5.401   1.444 -0.1139 -2.0173 -1.3226
 3546TIP3   OH232196   5.581   2.628   1.396 -0.1755 -0.4472 -0.3692
 3546TIP3    H132197   5.573   2.722   1.415  0.0885 -0.3257 -0.8656
 3546TIP3    H232198   5.644   2.623   1.325 -2.2061 -0.7795 -2.2600
 3547TIP3   OH232199   5.529   3.700   1.460  0.2989  0.3239 -0.4171
 3547TIP3    H132200   5.496   3.753   1.387 -0.0825  0.3435 -0.2381
 3547TIP3    H232201   5.449   3.667   1.503  0.5376 -1.5217 -1.3296
 3548TIP3   OH232202   0.036   1.326   2.282  0.0972  0.3802  0.0588
 3548TIP3    H132203   0.081   1.304   2.200 -0.2247  1.5909 -0.4804
 3548TIP3    H232204   0.041   1.247   2.335  1.2730 -0.0865 -0.7034
 3549TIP3   OH232205   6.169   5.888   8.321 -0.1247  0.0475 -0.0521
 3549TIP3    H132206   6.174   5.823   8.251  1.3992 -1.3728  1.3063
 3549TIP3    H232207   6.203   5.968   8.282  2.6213 -1.2191 -0.4615
 3550TIP3   OH232208   5.500   1.112   0.711 -0.0710  0.0527 -0.2458
 3550TIP3    H132209   5.541   1.187   0.753 -0.4019  0.9579 -1.4723
 3550TIP3    H232210   5.407   1.134   0.709 -0.2629 -0.7206  0.0280
 3551TIP3   OH232211   4.789   1.389   1.657  0.0411 -0.4176  0.0206
 3551TIP3    H132212   4.869   1.371   1.705  0.6493 -0.1663 -0.8659
 3551TIP3    H232213   4.718   1.365   1.717  0.7819 -1.4991  0.4874
 3552TIP3   OH232214   1.444   3.730   1.760 -0.5286 -0.2672  0.1236
 3552TIP3    H132215   1.378   3.664   1.780 -1.7095  0.6486 -0.6030
 3552TIP3    H232216   1.406   3.813   1.790  0.1233  0.3251 -0.6355
 3553TIP3   OH232217   2.332   3.739   2.801 -0.2397 -0.3750 -0.5324
 3553TIP3    H132218   2.271   3.768   2.868  1.5585  1.7290  0.3025
 3553TIP3    H232219   2.348   3.817   2.747  0.7629 -1.1953 -1.4857
 3554TIP3   OH232220   3.425   4.938   1.034  0.3395 -0.0335 -0.1206
 3554TIP3    H132221   3.448   5.027   1.008 -0.0643  0.0907 -0.0570
 3554TIP3    H232222   3.506   4.903   1.073  0.7682 -0.0098 -0.9626
 3555TIP3   OH232223   6.771   0.962   8.252 -0.6686  0.5281  0.1527
 3555TIP3    H132224   6.689   0.925   8.285 -0.7596  1.1939  0.6959
 3555TIP3    H232225   6.754   1.056   8.246 -0.0286  0.6394  0.0246
 3556TIP3   OH232226   0.529   6.607   3.328  0.0654  0.4494 -0.4528
 3556TIP3    H132227   0.470   6.536   3.302 -0.7819  1.2549 -0.7419
 3556TIP3    H232228   0.476   6.686   3.323  0.7988  1.0282  0.5805
 3557TIP3   OH232229   0.796   6.576   2.168  0.4664 -0.1125  0.1668
 3557TIP3    H132230   0.749   6.552   2.088 -0.6183  1.0543  0.4055
 3557TIP3    H232231   0.818   6.493   2.209 -1.1468 -0.7318 -0.1323
 3558TIP3   OH232232   3.239   2.083   7.514  0.3813  0.3559 -0.0199
 3558TIP3    H132233   3.270   2.159   7.563 -2.3749  2.4922 -1.2970
 3558TIP3    H232234   3.264   2.101   7.423 -0.9264  0.1372 -0.4482
 3559TIP3   OH232235   4.385   4.507   1.933  0.2973  0.4603 -0.0885
 3559TIP3    H132236   4.353   4.479   1.847  1.7745  0.4136 -0.6447
 3559TIP3    H232237   4.459   4.564   1.914 -0.4662  1.9554  1.1231
 3560TIP3   OH232238   4.910   0.776   1.004  0.4516  0.1589  0.0063
 3560TIP3    H132239   4.999   0.797   0.975  0.3124  0.1014 -0.4702
 3560TIP3    H232240   4.888   0.847   1.065  1.0725 -0.1916  0.6488
 3561TIP3   OH232241   0.766   1.291   2.325  0.2314 -0.2658 -0.2414
 3561TIP3    H132242   0.673   1.277   2.343  0.7694 -0.5453  2.7363
 3561TIP3    H232243   0.799   1.204   2.303 -0.0390 -0.3254 -0.4211
 3562TIP3   OH232244   2.290   4.545   7.126  0.5110  0.2377  0.0736
 3562TIP3    H132245   2.337   4.570   7.205 -0.9350  0.5030  0.8792
 3562TIP3    H232246   2.293   4.623   7.071  1.7742 -0.0422 -0.2863
 3563TIP3   OH232247   2.648   0.541   3.212  0.1439  0.0463  0.5564
 3563TIP3    H132248   2.644   0.474   3.280  1.1811 -1.0881 -0.4619
 3563TIP3    H232249   2.741   0.558   3.200  0.0160 -0.2477 -1.0198
 3564TIP3   OH232250   3.576   2.793   8.310  0.4977 -0.1935  0.1445
 3564TIP3    H132251   3.655   2.743   8.330  1.3992  1.0827 -0.0421
 3564TIP3    H232252   3.506   2.749   8.357  1.3688 -1.2065  0.5221
 3565TIP3   OH232253   6.101   5.494   8.334 -0.2138  0.2659 -0.1793
 3565TIP3    H132254   6.111   5.515   8.427  0.8154  1.8318 -0.6004
 3565TIP3    H232255   6.007   5.489   8.320 -0.3696 -1.3605  1.2068
 3566TIP3   OH232256   1.441   1.327   7.750 -0.3620 -0.5152 -0.2597
 3566TIP3    H132257   1.388   1.306   7.672  0.7353 -1.5686 -0.7479
 3566TIP3    H232258   1.419   1.418   7.769  0.3830  0.2475 -2.6789
 3567TIP3   OH232259   0.333   6.222   0.948 -1.4508  0.3421  0.8292
 3567TIP3    H132260   0.354   6.286   1.016 -2.3251  0.3819  1.0705
 3567TIP3    H232261   0.250   6.251   0.911 -1.3913 -0.1348  0.2966
 3568TIP3   OH232262   2.768   3.369   7.966  0.0555  0.3858 -0.2953
 3568TIP3    H132263   2.794   3.436   7.903 -0.7128  0.0727 -0.9627
 3568TIP3    H232264   2.675   3.353   7.947  0.0167 -0.2760  0.3967
 3569TIP3   OH232265   3.364   5.723   1.534  0.3599 -0.0673  0.4388
 3569TIP3    H132266   3.350   5.785   1.605 -1.0533  0.7958 -0.5319
 3569TIP3    H232267   3.377   5.777   1.456 -0.4210 -0.9612 -0.3528
 3570TIP3   OH232268   3.463   5.751   0.882 -0.2745  0.1325  0.2925
 3570TIP3    H132269   3.538   5.811   0.879 -0.5985  0.5167 -0.1548
 3570TIP3    H232270   3.468   5.703   0.799 -0.6815  0.3438  0.1481
 3571TIP3   OH232271   6.447   2.481   1.614 -0.1093  0.4269  0.3772
 3571TIP3    H132272   6.466   2.540   1.687  0.1061  1.3722 -0.4226
 3571TIP3    H232273   6.519   2.418   1.616 -0.8262 -0.4151  1.8016
 3572TIP3   OH232274   5.360   0.705   1.920 -0.1754 -0.5496 -0.3579
 3572TIP3    H132275   5.428   0.707   1.853 -0.4541  1.6872 -0.6471
 3572TIP3    H232276   5.408   0.695   2.002  0.5383  0.8221 -0.5704
 3573TIP3   OH232277   2.401   4.175   2.882 -0.0304 -0.0546 -0.2404
 3573TIP3    H132278   2.337   4.143   2.818  0.4564  1.0570 -1.3365
 3573TIP3    H232279   2.364   4.152   2.967 -0.3167 -2.2989 -0.9125
 3574TIP3   OH232280   0.146   1.411   0.717  0.1215 -0.1472  0.0857
 3574TIP3    H132281   0.182   1.375   0.636 -0.2133  0.4022 -0.3197
 3574TIP3    H232282   0.057   1.375   0.721  0.2020 -0.3234  0.3116
 3575TIP3   OH232283   6.372   3.432   2.318 -0.3097 -0.1181  0.4404
 3575TIP3    H132284   6.342   3.463   2.233 -0.5760 -0.8513  0.2562
 3575TIP3    H232285   6.390   3.511   2.368 -0.0065  0.3214 -0.3488
 3576TIP3   OH232286   1.287   2.975   2.945  0.0795 -0.0028  0.3087
 3576TIP3    H132287   1.381   2.990   2.937 -0.0817  0.6411 -0.5937
 3576TIP3    H232288   1.253   3.057   2.982  0.0201 -0.6948  1.8469
 3577TIP3   OH232289   6.406   1.811   2.688 -0.0331 -0.6966 -0.4221
 3577TIP3    H132290   6.488   1.830   2.642 -0.6095  1.7679 -0.5683
 3577TIP3    H232291   6.413   1.859   2.771 -1.5467  0.0597 -0.6979
 3578TIP3   OH232292   1.417   1.226   3.074  0.2253  0.2658 -0.0808
 3578TIP3    H132293   1.387   1.208   3.163 -0.5983  2.2112  0.1031
 3578TIP3    H232294   1.359   1.296   3.043  0.5575 -0.2942 -2.1226
 3579TIP3   OH232295   0.773   4.989   0.361 -0.1251  0.1187 -0.2975
 3579TIP3    H132296   0.745   5.063   0.415  0.4986  2.3639 -2.8275
 3579TIP3    H232297   0.692   4.955   0.324 -0.7130 -2.2293  2.7281
 3580TIP3   OH232298   4.405   2.113   1.506  0.4710 -0.2531 -0.5949
 3580TIP3    H132299   4.459   2.189   1.527 -1.3990  0.7790  0.8072
 3580TIP3    H232300   4.397   2.066   1.589 -1.7888  0.3360 -0.4310
 3581TIP3   OH232301   0.230   1.214   2.861  0.1051 -0.1418  0.2667
 3581TIP3    H132302   0.218   1.240   2.952  2.3911 -1.3449  0.9937
 3581TIP3    H232303   0.241   1.296   2.813 -0.7154  0.4863  1.1225
 3582TIP3   OH232304   4.834   0.435   8.233  0.3119  0.0864 -0.4866
 3582TIP3    H132305   4.898   0.497   8.197  0.1849  1.6527  1.7772
 3582TIP3    H232306   4.884   0.354   8.247  0.8090  0.0426 -2.2124
 3583TIP3   OH232307   0.513   6.177   1.399 -0.2503  0.1894 -0.0458
 3583TIP3    H132308   0.582   6.198   1.461 -0.4918 -0.4088  0.4307
 3583TIP3    H232309   0.538   6.092   1.362 -1.7115 -1.0240  1.6008
 3584TIP3   OH232310   6.576   4.367   3.444  0.2384  0.1205  0.1018
 3584TIP3    H132311   6.539   4.324   3.520  0.5024  0.8424  0.6488
 3584TIP3    H232312   6.570   4.302   3.374 -0.5222 -0.3447  0.5937
 3585TIP3   OH232313   6.364   6.586   8.690 -0.2635  0.3784  0.3059
 3585TIP3    H132314   6.306   6.661   8.708  0.4421  1.4860 -1.7568
 3585TIP3    H232315   6.339   6.558   8.602  1.3516 -0.0442 -0.0311
 3586TIP3   OH232316   0.699   0.009   7.077  0.5218  0.4378  0.4613
 3586TIP3    H132317   0.778   0.055   7.107  0.6919  1.5211 -1.5136
 3586TIP3    H232318   0.727  -0.038   6.999 -0.7102  0.5776 -0.0837
 3587TIP3   OH232319   5.756   1.968   1.674 -0.0640  0.1560 -0.3031
 3587TIP3    H132320   5.800   1.960   1.758 -1.8790 -0.3259  0.6689
 3587TIP3    H232321   5.721   2.057   1.674 -1.3311 -0.3124  0.1631
 3588TIP3   OH232322   1.710   5.172   0.637  0.3337  0.1700  0.4229
 3588TIP3    H132323   1.631   5.120   0.647 -0.0601  0.5067 -0.7293
 3588TIP3    H232324   1.728   5.170   0.543  1.4165  0.5071  0.6026
 3589TIP3   OH232325   4.260   4.085   0.674  0.2930  0.5981 -0.2389
 3589TIP3    H132326   4.252   4.071   0.768 -0.0150  0.0215 -0.3430
 3589TIP3    H232327   4.174   4.062   0.639  0.5397  0.3644 -0.7061
 3590TIP3   OH232328   3.029   4.480   2.145 -0.1827  0.0208  0.3771
 3590TIP3    H132329   2.976   4.480   2.224 -0.5924  1.3260  0.1254
 3590TIP3    H232330   3.009   4.396   2.103 -1.0185 -0.0859  0.9606
 3591TIP3   OH232331   3.647   0.940   8.582 -0.0877  0.5004  0.4131
 3591TIP3    H132332   3.649   0.886   8.661 -0.7905 -0.0798  0.0387
 3591TIP3    H232333   3.698   0.890   8.518 -2.2181 -0.6542 -0.4956
 3592TIP3   OH232334   1.777   6.728   1.836  0.4066 -0.3537  0.0774
 3592TIP3    H132335   1.761   6.823   1.830  1.4307 -0.0816  1.1898
 3592TIP3    H232336   1.742   6.704   1.922  0.3994 -0.9359 -0.0850
 3593TIP3   OH232337   2.921   6.036   8.488 -0.4937  0.5453  0.1442
 3593TIP3    H132338   2.994   6.073   8.438 -0.5901  1.2964  0.5491
 3593TIP3    H232339   2.913   6.092   8.565 -1.3040  0.2910  0.2595
 3594TIP3   OH232340   4.790   0.445   1.785  0.5599  0.1911 -0.4119
 3594TIP3    H132341   4.709   0.472   1.741  0.0808 -0.4884  0.0190
 3594TIP3    H232342   4.852   0.430   1.715  0.4768  1.2147 -0.7258
 3595TIP3   OH232343   2.159   6.378   8.339 -0.7141 -0.0086 -0.3112
 3595TIP3    H132344   2.185   6.293   8.304 -0.1921 -0.7283  1.6574
 3595TIP3    H232345   2.194   6.379   8.428 -1.5288  1.8930  0.0498
 3596TIP3   OH232346   3.391   5.789   2.361  0.1455 -0.0580 -0.5981
 3596TIP3    H132347   3.347   5.874   2.357 -0.3428 -0.1377  1.4677
 3596TIP3    H232348   3.451   5.797   2.435  1.9835 -0.7190 -1.9476
 3597TIP3   OH232349   6.155   3.321   1.049 -0.0628 -0.2684 -0.4316
 3597TIP3    H132350   6.205   3.386   0.999  0.1318 -0.8258 -0.9621
 3597TIP3    H232351   6.080   3.370   1.083  0.6276  0.4912  0.0544
 3598TIP3   OH232352   5.978   3.154   0.808  0.2086 -0.3560  0.1945
 3598TIP3    H132353   5.896   3.106   0.817 -0.4772  0.7433  0.0040
 3598TIP3    H232354   6.007   3.169   0.899 -0.3361  0.1256  0.2952
 3599TIP3   OH232355   4.297   0.638   0.163 -0.3669  0.5535  0.3061
 3599TIP3    H132356   4.388   0.659   0.144  0.4193 -2.2500  0.4920
 3599TIP3    H232357   4.266   0.709   0.218  1.4607  1.9536 -0.4004
 3600TIP3   OH232358   6.469   4.410   7.969 -0.0203  0.4693 -0.4146
 3600TIP3    H132359   6.400   4.377   8.026  1.1517  0.8798  1.3176
 3600TIP3    H232360   6.444   4.500   7.950  1.0378  1.3523  2.0113
 3601TIP3   OH232361   4.261   0.629   1.624  0.4978  0.2861 -0.2732
 3601TIP3    H132362   4.281   0.710   1.577 -0.9443 -0.9702 -3.3419
 3601TIP3    H232363   4.168   0.612   1.604  0.4762 -1.5973  1.1264
 3602TIP3   OH232364   3.189   6.777   0.453  0.3808  0.8510  0.7344
 3602TIP3    H132365   3.270   6.726   0.458  1.2370  2.1779  1.0395
 3602TIP3    H232366   3.141   6.739   0.379  2.6730  1.9361 -1.4605
 3603TIP3   OH232367   1.133   4.472   3.329  0.4042 -0.3155 -0.4676
 3603TIP3    H132368   1.203   4.537   3.335  0.8961 -0.7430 -1.4034
 3603TIP3    H232369   1.052   4.524   3.332  0.7592  0.2249  0.0731
 3604TIP3   OH232370   1.102   0.295   1.770  0.2884  0.0585  0.2174
 3604TIP3    H132371   1.044   0.219   1.780 -0.4770  0.5631 -0.2179
 3604TIP3    H232372   1.169   0.283   1.836  0.1446 -0.9670  0.1956
 3605TIP3   OH232373   6.002   3.039   8.709  0.2811 -0.3892  0.0079
 3605TIP3    H132374   6.039   3.019   8.623 -1.4063  1.6595 -1.2831
 3605TIP3    H232375   5.969   2.955   8.741  4.1986 -1.9587  0.4458
 3606TIP3   OH232376   3.562   5.002   1.446 -0.2846 -0.2536 -0.6807
 3606TIP3    H132377   3.601   4.966   1.525  0.1251 -0.0431 -0.7874
 3606TIP3    H232378   3.474   5.030   1.474  0.0938  0.4299 -0.1374
 3607TIP3   OH232379   2.547   6.098   7.909  0.4105  0.5251  0.2557
 3607TIP3    H132380   2.636   6.065   7.925 -0.6779 -2.4102  1.0171
 3607TIP3    H232381   2.495   6.059   7.979 -1.9866 -0.4097 -1.8980
 3608TIP3   OH232382   3.455   0.537   7.951  0.0683 -0.5056 -0.8455
 3608TIP3    H132383   3.536   0.584   7.972  0.3799 -0.3765 -2.2414
 3608TIP3    H232384   3.475   0.446   7.970  0.5005 -0.4589 -1.0567
 3609TIP3   OH232385   0.130   0.283   8.270  0.3760 -0.2998 -0.5575
 3609TIP3    H132386   0.206   0.278   8.211  1.0056 -2.0657  0.3463
 3609TIP3    H232387   0.158   0.341   8.340  0.2398  0.4368 -1.0974
 3610TIP3   OH232388   4.008   0.047   1.126  0.3622 -0.2571 -0.0375
 3610TIP3    H132389   3.924   0.065   1.168 -0.4959 -1.6821 -1.0489
 3610TIP3    H232390   4.061   0.005   1.194  0.2557  0.5640  0.5763
 3611TIP3   OH232391   6.183   1.162   7.872  0.1694  0.5033 -0.4877
 3611TIP3    H132392   6.090   1.168   7.850  0.1837 -0.2329 -0.7676
 3611TIP3    H232393   6.227   1.151   7.788  0.5358  1.0606 -0.3725
 3612TIP3   OH232394   4.252   0.373   7.800  0.1965  0.2844 -0.0137
 3612TIP3    H132395   4.183   0.437   7.783  0.0573 -0.0005 -0.5559
 3612TIP3    H232396   4.263   0.326   7.717  1.4831  0.7420 -0.1316
 3613TIP3   OH232397   5.888   1.347   8.716 -0.6614 -0.2598 -0.1907
 3613TIP3    H132398   5.920   1.379   8.800  0.5238 -0.0695 -0.6961
 3613TIP3    H232399   5.875   1.253   8.730  4.1549 -1.2906 -1.0113
 3614TIP3   OH232400   5.027   4.307   2.069 -0.4113  0.0497  0.4716
 3614TIP3    H132401   5.001   4.393   2.036  1.9444  0.6784  0.0588
 3614TIP3    H232402   4.989   4.245   2.006 -0.7208  0.8861 -0.1926
 3615TIP3   OH232403   3.373   6.080   2.272 -0.0575  0.5684  0.8138
 3615TIP3    H132404   3.458   6.125   2.274 -0.7793  2.3686 -2.0771
 3615TIP3    H232405   3.309   6.147   2.295 -0.9954  0.5321 -1.4105
 3616TIP3   OH232406   0.077   3.267   7.633 -0.0133  0.2917 -0.1646
 3616TIP3    H132407   0.067   3.172   7.636 -0.3486  0.3551  1.3678
 3616TIP3    H232408   0.162   3.283   7.675 -0.5826  0.7435  0.8406
 3617TIP3   OH232409   0.835   0.466   1.773 -0.2253  0.2065  0.3839
 3617TIP3    H132410   0.864   0.393   1.719  0.2255 -1.2544  2.4904
 3617TIP3    H232411   0.912   0.491   1.823 -1.0550  0.3192  1.6455
 3618TIP3   OH232412   1.698   2.600   8.074 -0.1988  0.3902  0.2440
 3618TIP3    H132413   1.742   2.537   8.017 -0.3023 -0.2272  0.8370
 3618TIP3    H232414   1.687   2.677   8.019  1.1185  0.3706 -0.0905
 3619TIP3   OH232415   5.262   3.245   1.286 -0.1987  0.4743 -0.3588
 3619TIP3    H132416   5.295   3.165   1.245 -1.5033 -0.2161 -0.1283
 3619TIP3    H232417   5.169   3.227   1.302 -0.8924  2.5207 -1.5591
 3620TIP3   OH232418   4.664   2.490   8.214  0.6746 -0.4411  0.1848
 3620TIP3    H132419   4.681   2.400   8.241  1.8043 -0.3037  0.0058
 3620TIP3    H232420   4.749   2.521   8.183 -0.1292  0.0142 -1.7169
 3621TIP3   OH232421   0.259   6.617   2.642  0.6584  0.6929  0.2073
 3621TIP3    H132422   0.189   6.651   2.586 -0.0066  0.1687  0.7083
 3621TIP3    H232423   0.319   6.573   2.581 -1.4481 -2.2984  0.0764
 3622TIP3   OH232424   1.011   2.174   1.728 -0.5527  0.0029  0.2040
 3622TIP3    H132425   1.042   2.124   1.803 -0.0463  0.1329  0.0810
 3622TIP3    H232426   1.033   2.121   1.652 -2.4888 -0.8992  0.2043
 3623TIP3   OH232427   6.033   4.431   2.366 -0.1185 -0.3553  0.2576
 3623TIP3    H132428   6.029   4.508   2.309 -0.2038 -0.3377  0.2875
 3623TIP3    H232429   5.992   4.460   2.448 -2.4085 -1.1615 -0.5611
 3624TIP3   OH232430   0.916   0.783   7.578  0.0169 -0.3470 -0.2457
 3624TIP3    H132431   0.902   0.841   7.653  2.5340 -1.6571  1.3551
 3624TIP3    H232432   0.832   0.737   7.567 -0.6674  0.5067  1.1797
 3625TIP3   OH232433   5.848   0.670   8.251 -0.4216 -0.1349  0.3295
 3625TIP3    H132434   5.858   0.742   8.189 -1.2273  1.4470  1.9144
 3625TIP3    H232435   5.938   0.648   8.277 -0.1537  0.1797 -0.3096
 3626TIP3   OH232436   2.989   1.685   1.645  0.3979  0.4879  0.5407
 3626TIP3    H132437   3.084   1.698   1.644  0.2216  2.1488 -1.3972
 3626TIP3    H232438   2.975   1.609   1.590  0.5465  1.1386 -0.4219
 3627TIP3   OH232439   1.067   2.807   8.699  0.3078 -0.2222  0.0451
 3627TIP3    H132440   1.044   2.769   8.614 -2.7770  1.5670 -0.0661
 3627TIP3    H232441   1.082   2.899   8.681  0.4086  0.0349  1.3200
 3628TIP3   OH232442   4.248   3.185   8.460  0.4296  0.3075  0.0207
 3628TIP3    H132443   4.154   3.199   8.454  0.6317  2.3223  0.7313
 3628TIP3    H232444   4.270   3.132   8.383 -1.2868 -0.4265 -0.0103
 3629TIP3   OH232445   0.219   4.117   8.242 -0.3008 -0.1319  0.4096
 3629TIP3    H132446   0.292   4.169   8.276 -1.2682  1.1250  0.6385
 3629TIP3    H232447   0.257   4.031   8.225  0.8607 -0.0100  2.0948
 3630TIP3   OH232448   6.282   4.405   2.715  0.1566  0.3144 -0.5359
 3630TIP3    H132449   6.284   4.326   2.771  0.1457  1.1754  0.7227
 3630TIP3    H232450   6.192   4.408   2.683 -0.0406  0.1815 -0.0214
 3631TIP3   OH232451   3.058   0.065   0.690 -0.2478 -0.0961 -0.4068
 3631TIP3    H132452   3.153   0.064   0.677 -0.3889  0.7232 -1.6745
 3631TIP3    H232453   3.038  -0.021   0.726  1.4457  1.0261  3.7627
 3632TIP3   OH232454   2.430   1.705   3.187 -0.3510 -0.2368  0.5915
 3632TIP3    H132455   2.379   1.773   3.142  0.1935 -0.7758 -0.9046
 3632TIP3    H232456   2.509   1.695   3.134 -0.2367 -1.7477  0.9991
 3633TIP3   OH232457   3.628   3.077   0.282 -0.0084 -0.4147 -0.9937
 3633TIP3    H132458   3.667   3.164   0.292  0.8216 -0.8646 -0.1968
 3633TIP3    H232459   3.555   3.091   0.221 -0.3430  0.9734 -0.3292
 3634TIP3   OH232460   5.515   3.789   2.248  0.1678  0.6763 -0.3217
 3634TIP3    H132461   5.568   3.865   2.226  0.5509  0.4433 -0.2223
 3634TIP3    H232462   5.530   3.775   2.342  1.2084 -0.3493 -0.6144
 3635TIP3   OH232463   2.727   0.169   1.212 -0.0108 -0.1291  0.6488
 3635TIP3    H132464   2.750   0.229   1.141  0.3427 -0.3799  0.5480
 3635TIP3    H232465   2.808   0.159   1.263  0.5319 -2.0559 -0.4681
 3636TIP3   OH232466   0.976   3.331   2.393  0.4918 -0.1700  0.2138
 3636TIP3    H132467   0.959   3.286   2.476  0.9825 -0.8709 -0.0585
 3636TIP3    H232468   1.056   3.381   2.409  0.5536 -0.2577  0.1743
 3637TIP3   OH232469   1.043   1.738   1.040 -0.7594  0.2165 -0.5996
 3637TIP3    H132470   1.106   1.743   0.968  1.9654  1.6661  1.6750
 3637TIP3    H232471   1.033   1.644   1.056 -0.7796 -0.1034 -2.3116
 3638TIP3   OH232472   5.766   6.734   3.289  0.7602 -0.4906 -0.2578
 3638TIP3    H132473   5.823   6.660   3.268  0.9795 -0.7759  1.2552
 3638TIP3    H232474   5.826   6.805   3.310  0.5440 -0.0137 -1.1886
 3639TIP3   OH232475   0.075   3.893   2.294  0.0510 -0.0483  0.3531
 3639TIP3    H132476   0.049   3.973   2.340 -0.5789  0.5169 -0.9232
 3639TIP3    H232477   0.050   3.909   2.203 -0.6382 -1.9517  0.1608
 3640TIP3   OH232478   6.226   4.813   2.314 -0.0398 -0.2399 -0.2139
 3640TIP3    H132479   6.236   4.893   2.366 -0.5664  0.1015 -0.6321
 3640TIP3    H232480   6.313   4.774   2.315  0.9057  1.6115 -2.0501
 3641TIP3   OH232481   0.420   0.795   8.597 -0.5485 -0.3879  0.4503
 3641TIP3    H132482   0.384   0.844   8.524  2.6503  1.3618 -0.1637
 3641TIP3    H232483   0.432   0.861   8.666  2.1811 -0.5768  0.2591
 3642TIP3   OH232484   6.286   5.605   0.571 -0.1700  0.1642 -1.1034
 3642TIP3    H132485   6.276   5.700   0.573 -3.1586 -0.0465  1.3511
 3642TIP3    H232486   6.324   5.583   0.656 -2.0420 -0.9364 -0.4889
 3643TIP3   OH232487   6.317   1.921   1.923 -0.6082 -0.4523  0.1291
 3643TIP3    H132488   6.289   1.837   1.889  1.4422 -1.0702 -0.1691
 3643TIP3    H232489   6.402   1.903   1.964 -0.4743  1.3295  0.7241
 3644TIP3   OH232490   0.300   5.974   0.292  0.6057 -0.4781  0.1813
 3644TIP3    H132491   0.372   6.037   0.301  2.6219 -2.7859  1.1890
 3644TIP3    H232492   0.275   5.953   0.381 -0.8674 -0.2395 -0.1616
 3645TIP3   OH232493   1.616   4.395   8.217 -0.3283  0.4579 -0.3335
 3645TIP3    H132494   1.571   4.455   8.157 -0.6167  0.5928  0.0074
 3645TIP3    H232495   1.548   4.369   8.279  0.0965  0.7886  0.2879
 3646TIP3   OH232496   1.437   5.448   8.660  0.1544  0.2540 -0.0535
 3646TIP3    H132497   1.342   5.462   8.658  0.1872  0.4646 -0.2168
 3646TIP3    H232498   1.450   5.366   8.612  0.2044  1.1129 -1.5818
 3647TIP3   OH232499   0.460   2.706   0.352  0.2438 -0.0361 -0.2890
 3647TIP3    H132500   0.547   2.713   0.391 -0.2244 -0.5478  0.9178
 3647TIP3    H232501   0.456   2.618   0.316  0.2604  0.0300 -0.4549
 3648TIP3   OH232502   5.039   5.650   0.893  0.7740  0.1774 -0.0198
 3648TIP3    H132503   5.060   5.742   0.882 -0.4569  0.2682 -2.1877
 3648TIP3    H232504   4.997   5.644   0.978 -0.8634  1.9863 -0.6429
 3649TIP3   OH232505   6.169   3.665   1.090 -0.0121  0.4201 -0.3949
 3649TIP3    H132506   6.207   3.665   1.178  1.7085 -2.4409 -0.9995
 3649TIP3    H232507   6.082   3.625   1.102 -0.0178  0.5634  0.0841
 3650TIP3   OH232508   5.980   4.036   1.952 -0.2546  0.1437 -0.6328
 3650TIP3    H132509   6.022   3.995   1.876 -0.2500  1.9808 -1.6805
 3650TIP3    H232510   5.888   4.045   1.926 -0.2716  0.7057 -0.3758
 3651TIP3   OH232511   6.489   1.904   7.833  0.0938  0.5222  0.0580
 3651TIP3    H132512   6.433   1.829   7.815  1.2413 -0.7006  1.3709
 3651TIP3    H232513   6.473   1.964   7.760 -1.1687 -0.8005 -0.7959
 3652TIP3   OH232514   0.450   1.889   8.050 -0.1651  0.1259  0.7329
 3652TIP3    H132515   0.492   1.972   8.070 -0.1411  0.0586  0.9690
 3652TIP3    H232516   0.368   1.914   8.006  1.6569  0.2172 -2.9958
 3653TIP3   OH232517   3.083   1.013   1.849  0.8507 -0.6750  0.1097
 3653TIP3    H132518   3.081   1.097   1.895 -0.6751 -0.2375 -0.7009
 3653TIP3    H232519   3.011   0.963   1.887  1.7317 -1.6448  0.5761
 3654TIP3   OH232520   4.563   1.755   2.129  0.0484  0.2261  0.0321
 3654TIP3    H132521   4.613   1.677   2.106 -0.6053  0.3199 -1.8740
 3654TIP3    H232522   4.552   1.749   2.224  2.2148 -0.6390  0.3037
 3655TIP3   OH232523   4.353   1.017   0.106  0.9344 -0.3495 -0.0770
 3655TIP3    H132524   4.314   0.955   0.167  0.7624  0.2762  0.4535
 3655TIP3    H232525   4.294   1.093   0.107  1.2891 -0.0609 -0.5087
 3656TIP3   OH232526   4.581   3.889   8.712  1.0735 -0.0662 -0.4709
 3656TIP3    H132527   4.661   3.852   8.749  0.4193 -0.4729  0.5996
 3656TIP3    H232528   4.567   3.970   8.761  0.4091 -0.4032 -0.0823
 3657TIP3   OH232529   2.799   2.218   1.734  0.0144 -0.2535  0.1392
 3657TIP3    H132530   2.807   2.143   1.676 -0.8013  1.9903 -3.1554
 3657TIP3    H232531   2.706   2.222   1.757 -0.7666  1.6948 -2.8205
 3658TIP3   OH232532   1.879   2.570   8.724  0.3209  0.3036 -0.7808
 3658TIP3    H132533   1.804   2.511   8.719  1.0599 -0.5787 -1.9663
 3658TIP3    H232534   1.845   2.648   8.767 -0.9058 -0.6255  0.0268
 3659TIP3   OH232535   2.403   2.200   0.902  0.2089 -0.0176 -0.0836
 3659TIP3    H132536   2.499   2.207   0.910  0.3330 -0.6812 -0.9179
 3659TIP3    H232537   2.376   2.154   0.981  0.6501 -0.3455 -0.1196
 3660TIP3   OH232538   0.130   0.274   1.743  0.1737  0.6940  0.2754
 3660TIP3    H132539   0.112   0.180   1.749 -0.2602  0.7544 -0.0726
 3660TIP3    H232540   0.104   0.298   1.655 -0.2142  1.2527  0.5401
 3661TIP3   OH232541   2.584   2.954   0.313  0.2149 -0.7734 -0.4518
 3661TIP3    H132542   2.529   2.881   0.343  0.0690 -1.1962 -1.6751
 3661TIP3    H232543   2.538   2.989   0.238  1.3080 -0.7495 -1.1363
 3662TIP3   OH232544   6.402   0.111   8.648 -0.0831  0.3847  0.0066
 3662TIP3    H132545   6.478   0.054   8.638  0.6892  1.2908  0.5555
 3662TIP3    H232546   6.423   0.189   8.597 -0.4157  0.8610  0.5823
 3663TIP3   OH232547   4.126   1.454   1.367  0.2088 -0.7770  0.1086
 3663TIP3    H132548   4.087   1.514   1.431  0.2325  0.8956 -1.3535
 3663TIP3    H232549   4.051   1.422   1.316  0.1504 -2.3740  1.1513
 3664TIP3   OH232550   6.059   3.559   0.625 -0.0527  0.1498 -0.2817
 3664TIP3    H132551   5.983   3.616   0.618 -1.2322 -1.3263 -0.0939
 3664TIP3    H232552   6.097   3.579   0.711 -0.5931  0.4674 -0.1137
 3665TIP3   OH232553   5.258   0.941   8.399  0.3022 -0.2339  0.4477
 3665TIP3    H132554   5.309   1.020   8.418 -0.6239  0.3247  0.7117
 3665TIP3    H232555   5.323   0.871   8.395  1.0552  0.4035  1.0461
 3666TIP3   OH232556   2.471   6.699   1.518  0.6928 -0.7641  0.0203
 3666TIP3    H132557   2.555   6.732   1.483  0.9364  0.4642  1.6374
 3666TIP3    H232558   2.417   6.777   1.525 -0.8108 -1.6171 -1.4442
 3667TIP3   OH232559   3.825   2.160   2.061 -0.8561 -0.1831  0.1663
 3667TIP3    H132560   3.902   2.213   2.039 -0.8492  0.0325  0.7096
 3667TIP3    H232561   3.844   2.074   2.022 -0.2800 -0.1717  0.4075
 3668TIP3   OH232562   2.984   4.216   1.977  0.0287 -0.4339 -0.3172
 3668TIP3    H132563   3.000   4.183   2.065  2.1789 -0.2767 -0.6002
 3668TIP3    H232564   2.889   4.213   1.967 -0.2758 -0.3755  2.0283
 3669TIP3   OH232565   3.927   1.412   1.017  0.5140 -0.2942 -0.2525
 3669TIP3    H132566   3.886   1.335   0.978 -1.1174  0.3510  0.1007
 3669TIP3    H232567   3.869   1.435   1.090 -0.5752  2.7740 -1.8954
 3670TIP3   OH232568   3.319   4.571   0.662  0.6610 -0.6251  0.5033
 3670TIP3    H132569   3.332   4.648   0.717  3.8141  0.3349 -1.2732
 3670TIP3    H232570   3.322   4.605   0.572  1.9474 -2.7294 -0.3308
 3671TIP3   OH232571   3.755   2.631   1.684  0.1617  0.0598  0.0669
 3671TIP3    H132572   3.693   2.638   1.757 -0.7544 -1.1242 -0.5550
 3671TIP3    H232573   3.839   2.611   1.725  0.7029  3.7335  1.1002
 3672TIP3   OH232574   5.550   2.822   8.736  0.3294 -0.4295 -0.0926
 3672TIP3    H132575   5.501   2.803   8.656  1.7603 -1.1207 -0.8541
 3672TIP3    H232576   5.597   2.903   8.717  1.1758 -0.9349 -0.2265
 3673TIP3   OH232577   3.042   6.061   2.462  0.5529 -0.4610 -0.0260
 3673TIP3    H132578   2.970   6.072   2.525  0.5674 -0.8048  0.0523
 3673TIP3    H232579   3.048   5.967   2.449  1.1356 -0.4485  0.1323
 3674TIP3   OH232580   2.008   3.472   1.326 -0.0201 -0.1386  0.0435
 3674TIP3    H132581   1.961   3.555   1.319  0.8353  0.5536  1.8022
 3674TIP3    H232582   1.956   3.419   1.385  0.3450 -0.1584  0.3517
 3675TIP3   OH232583   4.801   0.769   7.681 -0.1854 -0.4807 -0.4851
 3675TIP3    H132584   4.798   0.678   7.651  0.6788 -0.3732 -0.9452
 3675TIP3    H232585   4.895   0.789   7.687 -0.3520  0.6823 -1.3512
 3676TIP3   OH232586   3.896   3.269   7.799 -0.1164 -0.5131  0.0189
 3676TIP3    H132587   3.906   3.337   7.865 -0.2063 -1.0252  0.5643
 3676TIP3    H232588   3.876   3.190   7.848 -0.6304 -0.8113 -0.6536
 3677TIP3   OH232589   3.141   0.742   1.552 -0.2062 -0.2829  0.2797
 3677TIP3    H132590   3.073   0.789   1.503  0.3436 -2.0184 -2.3761
 3677TIP3    H232591   3.101   0.658   1.574  0.8970 -1.2039 -1.0474
 3678TIP3   OH232592   1.423   2.060   0.089 -0.1151  0.1396 -0.5439
 3678TIP3    H132593   1.517   2.040   0.094 -0.4434 -1.2656  1.1029
 3678TIP3    H232594   1.409   2.126   0.157 -0.6656 -1.4130  0.9237
 3679TIP3   OH232595   5.495   2.941   1.905  0.0036  0.0629 -0.0421
 3679TIP3    H132596   5.479   3.026   1.946 -0.0449 -0.0225  0.1165
 3679TIP3    H232597   5.569   2.905   1.954  0.6376  0.4162 -0.7092
 3680TIP3   OH232598   2.872   5.471   8.097  0.4024 -0.3357  0.3884
 3680TIP3    H132599   2.927   5.392   8.095  1.1194 -0.1622  4.3739
 3680TIP3    H232600   2.934   5.543   8.099 -0.1367  0.1390 -0.0011
 3681TIP3   OH232601   5.194   1.309   8.350  0.0893  0.4121 -0.3459
 3681TIP3    H132602   5.116   1.331   8.400 -0.1302  0.8223 -0.8630
 3681TIP3    H232603   5.247   1.257   8.410  0.0677  1.3265  0.4884
 3682TIP3   OH232604   5.871   2.553   8.026 -0.2320  0.1610  0.2242
 3682TIP3    H132605   5.851   2.584   8.114 -1.2997 -2.3331  0.9363
 3682TIP3    H232606   5.941   2.489   8.039 -0.1537  0.0304 -0.7852
 3683TIP3   OH232607   6.459   1.563   8.210 -0.0173  0.0136  0.1538
 3683TIP3    H132608   6.498   1.588   8.126 -1.3580  0.7264 -0.2890
 3683TIP3    H232609   6.513   1.491   8.241  0.8375  0.1004 -1.0623
 3684TIP3   OH232610   0.836   5.327   7.298 -0.2675 -0.0099 -0.2740
 3684TIP3    H132611   0.826   5.285   7.383 -0.3807  2.5020  1.0540
 3684TIP3    H232612   0.906   5.392   7.311 -0.9221  1.0637 -1.8045
 3685TIP3   OH232613   1.023   1.116   0.587  0.0534 -0.0349 -0.3080
 3685TIP3    H132614   0.945   1.172   0.585 -0.4235 -0.6429  0.6627
 3685TIP3    H232615   1.009   1.058   0.661  0.1471 -1.9857 -1.7366
 3686TIP3   OH232616   0.178   2.361   1.076 -0.1645  0.0201 -0.2593
 3686TIP3    H132617   0.125   2.424   1.027  0.6390  1.3803  0.5228
 3686TIP3    H232618   0.115   2.310   1.127 -0.7724  1.3700  0.3897
 3687TIP3   OH232619   3.145   3.628   2.328  0.3246  0.2956  0.1215
 3687TIP3    H132620   3.150   3.709   2.378 -2.1509 -0.0524  1.1509
 3687TIP3    H232621   3.233   3.591   2.332  0.5149  0.7927  3.4956
 3688TIP3   OH232622   6.575   4.120   0.578  0.1768 -0.3045  0.5992
 3688TIP3    H132623   6.637   4.048   0.584 -0.6566 -1.1107 -0.2529
 3688TIP3    H232624   6.622   4.188   0.530 -0.6250 -2.1395 -3.1384
 3689TIP3   OH232625   2.351   4.599   0.901 -0.3771 -0.5396 -0.6235
 3689TIP3    H132626   2.314   4.548   0.973 -2.3615 -0.2344 -1.3606
 3689TIP3    H232627   2.441   4.619   0.929 -2.2407  3.3217  3.8801
 3690TIP3   OH232628   3.656   0.593   2.839 -0.1044  0.7484 -0.1310
 3690TIP3    H132629   3.632   0.680   2.809  1.9971  2.5575  2.8216
 3690TIP3    H232630   3.747   0.603   2.869 -0.1328 -2.1974  1.2575
 3691TIP3   OH232631   3.249   0.817   7.472 -0.2015  0.0679 -0.2459
 3691TIP3    H132632   3.312   0.888   7.464 -0.6545  0.5829  0.5580
 3691TIP3    H232633   3.166   0.861   7.493 -0.6131 -0.6571 -0.3184
 3692TIP3   OH232634   6.502   5.165   0.980  0.2008 -0.5054 -0.0890
 3692TIP3    H132635   6.593   5.175   0.954  0.2805  1.0851  0.7007
 3692TIP3    H232636   6.457   5.135   0.900  1.4618 -1.8130 -0.3528
 3693TIP3   OH232637   3.242   6.556   0.751 -0.3350  0.0802  0.0139
 3693TIP3    H132638   3.278   6.527   0.667 -2.1848 -0.5234 -0.6160
 3693TIP3    H232639   3.314   6.542   0.813  0.7624 -0.3489 -1.2913
 3694TIP3   OH232640   4.550   1.259   1.529  0.4861 -0.0192 -0.0816
 3694TIP3    H132641   4.518   1.298   1.447 -0.1081 -1.5301 -0.5980
 3694TIP3    H232642   4.638   1.295   1.540  0.1961  0.9785 -0.8501
 3695TIP3   OH232643   2.517   6.248   1.232 -0.6705  0.2537 -0.3066
 3695TIP3    H132644   2.534   6.327   1.284  0.5714  0.0900 -0.4279
 3695TIP3    H232645   2.590   6.245   1.170  0.0963 -1.7288  0.6059
 3696TIP3   OH232646   0.242   3.678   2.279  0.1667 -0.0155 -0.2489
 3696TIP3    H132647   0.303   3.741   2.241  0.3059  1.3370  2.0549
 3696TIP3    H232648   0.162   3.727   2.293 -0.1081 -0.6586  0.5075
 3697TIP3   OH232649   4.310   2.961   2.396 -0.1536  0.5746 -0.0039
 3697TIP3    H132650   4.290   2.913   2.476  0.4226 -0.2764 -0.3528
 3697TIP3    H232651   4.405   2.972   2.397 -0.1866  0.9250 -0.3638
 3698TIP3   OH232652   1.853   0.374   8.569 -0.6822  0.3100  0.2181
 3698TIP3    H132653   1.776   0.342   8.616  0.5553 -0.5008  1.7714
 3698TIP3    H232654   1.922   0.379   8.635  0.8421  0.2265 -1.2911
 3699TIP3   OH232655   3.792   1.533   8.455  0.2987 -0.0815  0.3498
 3699TIP3    H132656   3.814   1.612   8.504 -1.8093  0.8451 -0.0876
 3699TIP3    H232657   3.847   1.464   8.494  0.5371  1.1266  2.2754
 3700TIP3   OH232658   4.914   3.153   1.572  0.4921 -0.7570  0.0017
 3700TIP3    H132659   4.875   3.132   1.657  1.6117 -0.6506  0.5718
 3700TIP3    H232660   4.990   3.094   1.566  0.3808 -0.8236 -0.9724
 3701TIP3   OH232661   5.001   3.085   8.181 -0.3049  0.5881  0.1719
 3701TIP3    H132662   4.922   3.034   8.198 -2.4131  3.9456  1.6176
 3701TIP3    H232663   5.033   3.110   8.268  1.2127  0.9184 -0.4447
 3702TIP3   OH232664   0.481   6.271   1.932  0.2200  0.0876  0.8348
 3702TIP3    H132665   0.417   6.265   1.861  0.1814  0.1889  0.8603
 3702TIP3    H232666   0.527   6.187   1.931  2.5632  1.2609 -1.5331
 3703TIP3   OH232667   3.561   1.649   1.698 -0.3765  0.8107  0.1110
 3703TIP3    H132668   3.505   1.638   1.622 -0.1487  1.6690 -0.2008
 3703TIP3    H232669   3.625   1.715   1.671 -0.6412  1.5635  1.2198
 3704TIP3   OH232670   1.647   6.611   1.630  0.2284  0.0382  0.7885
 3704TIP3    H132671   1.678   6.643   1.714  1.3577 -0.3252  0.5226
 3704TIP3    H232672   1.670   6.518   1.629 -1.1661 -0.3325  0.7022
 3705TIP3   OH232673   5.568   4.212   0.273 -0.3115 -0.0594 -0.1229
 3705TIP3    H132674   5.648   4.230   0.322  0.4259 -2.0740 -0.4804
 3705TIP3    H232675   5.522   4.296   0.270  1.1703  0.8546  1.1806
 3706TIP3   OH232676   2.211   2.225   2.760  0.1236 -0.2036  0.3256
 3706TIP3    H132677   2.161   2.267   2.830  1.6388 -0.0646  1.3804
 3706TIP3    H232678   2.258   2.154   2.803  1.2547  0.0181 -0.4872
 3707TIP3   OH232679   0.571   2.773   1.855  0.3481 -0.1838 -0.0687
 3707TIP3    H132680   0.540   2.691   1.893  3.1622 -1.1524  0.3851
 3707TIP3    H232681   0.559   2.762   1.761  2.6062 -2.0888 -0.2110
 3708TIP3   OH232682   1.908   1.809   1.688 -0.9322 -0.1285  0.2258
 3708TIP3    H132683   2.003   1.815   1.676 -0.8447 -2.7722 -0.9662
 3708TIP3    H232684   1.896   1.806   1.783  0.0623  1.1758  0.4251
 3709TIP3   OH232685   3.651   4.685   0.216  0.0851  0.9024 -0.3985
 3709TIP3    H132686   3.736   4.687   0.261 -0.2353  0.1691  0.2651
 3709TIP3    H232687   3.671   4.708   0.125  0.9111  1.3019 -0.1207
 3710TIP3   OH232688   6.559   6.383   2.434  0.5364 -0.5959  0.3403
 3710TIP3    H132689   6.480   6.433   2.411  0.5995 -0.3841  0.5789
 3710TIP3    H232690   6.579   6.411   2.524  1.2110 -0.2203  0.0788
 3711TIP3   OH232691   5.830   5.498   8.003 -0.3864  0.7935 -0.1536
 3711TIP3    H132692   5.877   5.416   7.995 -2.0136 -0.1254 -0.6934
 3711TIP3    H232693   5.824   5.531   7.913 -2.5294 -0.1724 -0.4281
 3712TIP3   OH232694   3.801   1.242   0.609 -0.2317  0.0732  0.6218
 3712TIP3    H132695   3.830   1.170   0.554  3.5095  1.2447  0.8368
 3712TIP3    H232696   3.812   1.321   0.555  1.0140  0.9735  2.0984
 3713TIP3   OH232697   0.530   1.479   8.460  0.2119  0.6081  0.2897
 3713TIP3    H132698   0.461   1.464   8.395  1.2871 -1.6365 -0.4217
 3713TIP3    H232699   0.576   1.396   8.466  2.3149  1.7733  1.4215
 3714TIP3   OH232700   6.056   2.274   1.478  0.1882  0.5539 -0.3996
 3714TIP3    H132701   6.064   2.194   1.529  1.3511  0.2360 -1.0530
 3714TIP3    H232702   6.086   2.251   1.390 -0.2023  1.5052 -0.8055
 3715TIP3   OH232703   5.479   3.691   8.653 -0.1179  0.6418 -0.3514
 3715TIP3    H132704   5.446   3.752   8.587 -0.0012 -0.2156 -1.2121
 3715TIP3    H232705   5.410   3.626   8.663 -0.8178  1.5849  1.5252
 3716TIP3   OH232706   4.817   5.101   1.745  0.0440 -0.3592 -0.0933
 3716TIP3    H132707   4.744   5.060   1.698  1.6216 -1.2494 -1.9373
 3716TIP3    H232708   4.782   5.184   1.777 -1.6065 -0.4861 -1.4554
 3717TIP3   OH232709   4.489   1.582   8.289 -1.0107 -0.0651 -0.3527
 3717TIP3    H132710   4.558   1.620   8.234  0.2208 -0.3999  0.8929
 3717TIP3    H232711   4.428   1.543   8.227  0.2074 -0.2313 -1.5061
 3718TIP3   OH232712   1.639   3.449   2.208 -0.1551  0.1626 -0.0654
 3718TIP3    H132713   1.573   3.509   2.175 -2.7405 -2.8166 -0.8382
 3718TIP3    H232714   1.696   3.433   2.132  0.8052  1.8444  0.2638
 3719TIP3   OH232715   0.138   5.574   3.319 -0.3409 -0.0967 -1.0393
 3719TIP3    H132716   0.228   5.542   3.326 -0.6414 -1.2714 -2.1555
 3719TIP3    H232717   0.100   5.523   3.247 -1.9445  0.2692 -0.4912
 3720TIP3   OH232718   5.868   1.354   7.356 -0.0306  0.3688  0.4433
 3720TIP3    H132719   5.802   1.424   7.353  0.2953  0.9035  2.9319
 3720TIP3    H232720   5.817   1.274   7.363 -0.4279  0.6109  0.3605
 3721TIP3   OH232721   1.404   3.256   8.485 -0.4884  0.0051  0.2955
 3721TIP3    H132722   1.330   3.199   8.464  0.7510 -1.6618  0.2208
 3721TIP3    H232723   1.409   3.316   8.412 -0.0655 -1.7012 -1.1496
 3722TIP3   OH232724   5.075   1.215   1.140  0.0288  0.3545  0.1889
 3722TIP3    H132725   5.061   1.270   1.218  1.1540  1.7825 -0.5749
 3722TIP3    H232726   5.008   1.245   1.078 -2.9489 -2.8277  1.4867
 3723TIP3   OH232727   0.101   3.573   1.460 -0.1397 -1.5118 -0.1459
 3723TIP3    H132728   0.164   3.568   1.388  0.6130  0.3282  0.3065
 3723TIP3    H232729   0.021   3.605   1.419 -0.2955 -2.2770 -0.4553
 3724TIP3   OH232730   4.256   3.636   3.286 -0.5031  0.0524  0.6398
 3724TIP3    H132731   4.328   3.642   3.223 -1.4879 -0.9632 -0.6549
 3724TIP3    H232732   4.259   3.546   3.318 -0.7427  0.2200  1.1403
 3725TIP3   OH232733   4.620   4.740   1.164  0.1352 -0.1544 -0.0680
 3725TIP3    H132734   4.624   4.704   1.253  2.8686  0.2246  0.0473
 3725TIP3    H232735   4.629   4.834   1.176 -1.4221  0.1084 -0.6956
 3726TIP3   OH232736   4.318   4.167   8.057 -0.2970 -0.2417 -0.7756
 3726TIP3    H132737   4.228   4.185   8.028 -0.4800  1.5360  0.6963
 3726TIP3    H232738   4.354   4.254   8.075  1.4844 -0.9851 -0.6120
 3727TIP3   OH232739   6.493   2.890   0.165  0.1398 -0.1805 -0.2714
 3727TIP3    H132740   6.490   2.968   0.220  1.3240 -0.9509  0.9414
 3727TIP3    H232741   6.435   2.828   0.210  0.4118 -0.5189 -0.3866
 3728TIP3   OH232742   4.136   1.948   3.095  0.2862  0.2825  0.2214
 3728TIP3    H132743   4.059   1.967   3.148  0.4957  0.5922  0.4155
 3728TIP3    H232744   4.192   1.896   3.152  0.2672  0.1462  0.1157
 3729TIP3   OH232745   2.442   0.175   8.277 -0.2161  0.0346  0.0877
 3729TIP3    H132746   2.456   0.211   8.189  0.5151  2.2703  1.0298
 3729TIP3    H232747   2.516   0.207   8.328 -1.2000 -0.2456  1.7905
 3730TIP3   OH232748   4.642   5.185   7.361  0.0970 -0.2567 -0.3287
 3730TIP3    H132749   4.606   5.266   7.398  0.0864 -0.6595  0.5860
 3730TIP3    H232750   4.623   5.190   7.268  1.4764  1.5457 -0.5784
 3731TIP3   OH232751   1.660   0.513   0.373  0.0306  0.1257  0.3067
 3731TIP3    H132752   1.668   0.466   0.290  0.5763 -0.0060  0.4232
 3731TIP3    H232753   1.584   0.473   0.416 -0.6372  0.6268 -0.3905
 3732TIP3   OH232754   4.672   2.212   7.372  0.1447 -0.6913  0.0391
 3732TIP3    H132755   4.587   2.231   7.333  0.1647  0.4492  0.5047
 3732TIP3    H232756   4.734   2.218   7.300  0.0448  0.3109  0.0231
 3733TIP3   OH232757   6.564   1.229   7.547 -0.6388 -0.3403 -0.0702
 3733TIP3    H132758   6.532   1.289   7.615  0.1409  1.3110 -1.0912
 3733TIP3    H232759   6.646   1.194   7.583 -2.4761 -3.1545  1.7641
 3734TIP3   OH232760   2.835   1.751   8.243  0.0690  0.3402  0.2680
 3734TIP3    H132761   2.804   1.664   8.268  0.6956  0.9613  3.8355
 3734TIP3    H232762   2.755   1.804   8.242  0.0654  0.4222  1.9092
 3735TIP3   OH232763   1.769   6.039   7.852  0.3084 -0.0943  0.2193
 3735TIP3    H132764   1.746   6.111   7.792  0.7489 -0.8631 -0.8967
 3735TIP3    H232765   1.821   6.081   7.920 -0.0128  0.7623 -0.0477
 3736TIP3   OH232766   2.107   2.320   7.123  0.1209  0.9531  0.3497
 3736TIP3    H132767   2.095   2.225   7.120 -0.7564  1.0688 -0.1238
 3736TIP3    H232768   2.183   2.333   7.181  0.2092 -0.0251  0.4684
 3737TIP3   OH232769   1.230   0.015   0.794  0.3550  0.4989 -0.1565
 3737TIP3    H132770   1.284   0.002   0.872 -0.1480 -2.0305 -0.1492
 3737TIP3    H232771   1.158  -0.048   0.804 -1.1687  1.9342 -1.4338
 3738TIP3   OH232772   6.209   5.266   0.852 -0.2387 -0.1460  0.0278
 3738TIP3    H132773   6.136   5.263   0.789 -0.6250  0.7357  0.4280
 3738TIP3    H232774   6.187   5.338   0.911  0.0552 -1.0378  1.2705
 3739TIP3   OH232775   5.779   6.359   1.626  0.3983  0.1394 -0.1567
 3739TIP3    H132776   5.740   6.447   1.623 -1.4318 -0.4772  2.3651
 3739TIP3    H232777   5.873   6.374   1.619  0.0390  2.1195 -1.6641
 3740TIP3   OH232778   5.381   4.165   1.113 -0.2198  0.3440 -0.0798
 3740TIP3    H132779   5.311   4.131   1.057  0.0985 -0.3390 -0.0749
 3740TIP3    H232780   5.462   4.137   1.071  0.0227 -0.1463  0.6965
 3741TIP3   OH232781   2.642   4.955   1.866 -0.1109 -0.3052  0.3280
 3741TIP3    H132782   2.692   4.991   1.939  0.1897  0.5262 -0.2645
 3741TIP3    H232783   2.692   4.981   1.788 -1.4757  0.6042 -0.2852
 3742TIP3   OH232784   0.377   3.107   1.514  0.4931 -0.1013  0.1682
 3742TIP3    H132785   0.392   3.176   1.578 -1.6901 -0.1152  0.7514
 3742TIP3    H232786   0.395   3.148   1.429  1.0806  0.6022  0.6306
 3743TIP3   OH232787   4.938   0.519   2.778  0.6824  0.5596 -0.2428
 3743TIP3    H132788   5.021   0.560   2.804  1.1226 -0.9682  0.9040
 3743TIP3    H232789   4.895   0.497   2.861  0.0057 -0.3672 -0.8136
 3744TIP3   OH232790   1.652   2.442   7.174  0.6796  0.8049 -0.1858
 3744TIP3    H132791   1.693   2.508   7.229  1.1259  0.2678  0.1327
 3744TIP3    H232792   1.719   2.417   7.110  0.7677  0.1304  0.1590
 3745TIP3   OH232793   5.275   4.348   7.280  0.0354  0.5215  0.3985
 3745TIP3    H132794   5.310   4.291   7.211  0.3611 -0.5717  1.4222
 3745TIP3    H232795   5.346   4.409   7.300  0.6134 -0.3250  0.9968
 3746TIP3   OH232796   4.671   3.275   1.473  0.0090 -0.2814 -0.0023
 3746TIP3    H132797   4.727   3.209   1.513 -0.4949 -0.8904 -0.2780
 3746TIP3    H232798   4.690   3.355   1.520 -0.7216 -1.0152  1.6231
 3747TIP3   OH232799   4.395   5.473   2.065 -0.2543  0.8126 -0.2304
 3747TIP3    H132800   4.484   5.469   2.030 -0.5822 -0.2832 -1.0028
 3747TIP3    H232801   4.393   5.404   2.132 -0.9568 -0.2745 -1.3276
 3748TIP3   OH232802   2.342   6.586   2.421 -0.5527  0.1484  0.3638
 3748TIP3    H132803   2.433   6.601   2.395 -0.1847 -0.1818  1.4270
 3748TIP3    H232804   2.312   6.515   2.362 -0.0972  0.1888  0.0811
 3749TIP3   OH232805   5.571   2.622   0.561  0.6365  1.0626  0.7538
 3749TIP3    H132806   5.560   2.569   0.640 -0.7862  0.9827  0.5238
 3749TIP3    H232807   5.584   2.559   0.491  0.9377  1.0987  0.7757
 3750TIP3   OH232808   1.247   3.200   8.719  0.3045 -0.5080  0.8933
 3750TIP3    H132809   1.324   3.187   8.775  1.5469  2.0864 -0.0231
 3750TIP3    H232810   1.284   3.208   8.631 -0.7275  2.3842  0.6109
 3751TIP3   OH232811   3.556   0.671   2.452 -0.2285 -0.0422  0.1970
 3751TIP3    H132812   3.625   0.651   2.515  0.7653  1.5537 -0.3311
 3751TIP3    H232813   3.506   0.742   2.494 -0.9776 -0.5396  0.1636
 3752TIP3   OH232814   5.005   2.545   2.011  0.4440 -0.5085  0.1270
 3752TIP3    H132815   4.913   2.568   2.025  1.2309  1.9693  1.8901
 3752TIP3    H232816   5.048   2.628   1.990  2.3341 -1.5822 -0.4656
 3753TIP3   OH232817   5.353   3.740   7.664 -0.3020  0.0189  0.0995
 3753TIP3    H132818   5.331   3.647   7.678 -1.7977  0.5495  1.6825
 3753TIP3    H232819   5.441   3.738   7.626 -0.5099 -2.0618 -0.4321
 3754TIP3   OH232820   2.034   2.710   0.271 -0.5300  0.1467  0.1951
 3754TIP3    H132821   2.031   2.616   0.287 -1.7707  0.2236  0.5471
 3754TIP3    H232822   2.094   2.721   0.197 -3.0785 -1.2992 -2.2752
 3755TIP3   OH232823   1.340   0.683   0.562  0.5208  0.2287 -0.3261
 3755TIP3    H132824   1.274   0.680   0.493  0.2913  0.6830 -0.1271
 3755TIP3    H232825   1.362   0.591   0.578 -1.3292 -0.0612  0.8310
 3756TIP3   OH232826   1.112   5.099   1.005 -0.3833 -0.0730 -0.0129
 3756TIP3    H132827   1.135   5.036   0.937  0.2290  0.1034  0.0230
 3756TIP3    H232828   1.095   5.046   1.083 -1.2730 -0.2906 -0.3460
 3757TIP3   OH232829   1.617   3.953   0.065  0.1242  0.7446  0.5881
 3757TIP3    H132830   1.633   3.929   0.156  0.0224  0.2895  0.4857
 3757TIP3    H232831   1.579   4.041   0.071 -0.6171  0.4001  1.0292
 3758TIP3   OH232832   5.483   4.906   8.478 -0.4078 -0.2337 -0.2022
 3758TIP3    H132833   5.468   4.870   8.391 -1.5005 -1.3153  0.4023
 3758TIP3    H232834   5.456   4.836   8.538  0.2896  0.4980  1.0082
 3759TIP3   OH232835   4.769   3.155   2.923 -0.4935  0.0265  0.6806
 3759TIP3    H132836   4.835   3.196   2.867 -0.0966  0.2639  1.3138
 3759TIP3    H232837   4.819   3.108   2.989 -0.9498 -1.3045  0.1089
 3760TIP3   OH232838   0.352   4.348   2.547 -0.0315 -0.0454  0.3640
 3760TIP3    H132839   0.400   4.356   2.629 -0.1737  0.1639  0.4280
 3760TIP3    H232840   0.261   4.335   2.573 -0.0234 -0.3537  0.2424
 3761TIP3   OH232841   5.851   3.251   8.641 -0.4178 -0.3387  0.1069
 3761TIP3    H132842   5.887   3.171   8.679  1.7334 -0.8579 -2.7192
 3761TIP3    H232843   5.805   3.223   8.562  1.3703  1.1895 -1.5969
 3762TIP3   OH232844   0.729   4.865   7.368  0.5090 -0.0973  0.5975
 3762TIP3    H132845   0.694   4.776   7.358  0.1847 -0.1127  1.7527
 3762TIP3    H232846   0.674   4.919   7.312  0.0715 -0.4755  0.6587
 3763TIP3   OH232847   2.850   0.830   2.229 -0.0600 -0.0449 -0.3775
 3763TIP3    H132848   2.824   0.745   2.265 -0.7315  0.6486  0.8831
 3763TIP3    H232849   2.787   0.892   2.267  1.2412  1.2071 -0.1559
 3764TIP3   OH232850   3.274   6.008   7.927 -0.0120 -0.1448  0.0904
 3764TIP3    H132851   3.295   6.092   7.968  2.8773 -0.0141 -1.3865
 3764TIP3    H232852   3.296   5.943   7.993  0.7478  0.1848  0.1768
 3765TIP3   OH232853   6.081   3.794   0.187 -0.3429 -0.3489 -0.1054
 3765TIP3    H132854   6.033   3.711   0.183  0.2627 -1.1606  4.4009
 3765TIP3    H232855   6.018   3.857   0.223  0.2173  0.2623 -0.1749
 3766TIP3   OH232856   5.083   2.300   0.156  0.0284 -0.7342  0.0126
 3766TIP3    H132857   5.163   2.352   0.161  0.7146 -1.7047 -0.5931
 3766TIP3    H232858   5.012   2.363   0.165  0.8557 -0.0646  2.6661
 3767TIP3   OH232859   0.001   0.282   7.669 -0.6552  0.1386 -0.0308
 3767TIP3    H132860   0.018   0.249   7.757 -0.1668 -0.7075 -0.4319
 3767TIP3    H232861   0.056   0.360   7.662 -0.1450 -0.1969  0.1705
 3768TIP3   OH232862   6.024   2.592   0.029  0.2139 -0.6515  0.4920
 3768TIP3    H132863   6.052   2.506  -0.003 -0.1171 -0.3875 -0.5537
 3768TIP3    H232864   6.096   2.651   0.004  0.4620 -0.6234  1.2471
 3769TIP3   OH232865   2.631   6.833   3.308 -0.1061  0.6891 -0.1549
 3769TIP3    H132866   2.630   6.739   3.323  0.6641  0.9043  1.4302
 3769TIP3    H232867   2.539   6.859   3.314 -0.3892 -0.0221 -1.1709
 3770TIP3   OH232868   6.564   0.162   0.621  0.1760 -0.2730 -0.5250
 3770TIP3    H132869   6.616   0.088   0.587  2.1929  1.9840 -2.7752
 3770TIP3    H232870   6.510   0.189   0.547  0.8078  1.5638 -0.3705
 3771TIP3   OH232871   0.778   3.606   1.495  0.2013 -0.1591 -0.4906
 3771TIP3    H132872   0.783   3.606   1.400  0.6175  0.7143 -0.4866
 3771TIP3    H232873   0.868   3.588   1.523  0.0017 -0.8132 -0.2570
 3772TIP3   OH232874   1.095   3.376   8.397 -0.0480 -0.4404 -0.1985
 3772TIP3    H132875   1.124   3.286   8.379 -1.4592 -0.8217 -0.7086
 3772TIP3    H232876   1.060   3.372   8.486  0.7589 -0.1581  0.1383
 3773TIP3   OH232877   0.973   1.975   2.221 -0.3235 -0.5190 -0.5235
 3773TIP3    H132878   1.008   2.000   2.306  2.3224  0.2857 -1.7492
 3773TIP3    H232879   0.970   1.879   2.224  3.6403 -0.8189 -0.7785
 3774TIP3   OH232880   5.962   3.056   7.954  0.1057  0.2709 -0.0754
 3774TIP3    H132881   5.991   3.104   8.031 -0.6068  2.0729 -0.8570
 3774TIP3    H232882   5.989   2.965   7.969  1.1449  0.8373  1.6600
 3775TIP3   OH232883   5.091   5.571   0.610 -0.0604 -0.2553 -0.2149
 3775TIP3    H132884   5.096   5.564   0.706  0.9570 -1.9137 -0.3647
 3775TIP3    H232885   5.001   5.597   0.593 -0.4598 -0.6641  1.1550
 3776TIP3   OH232886   3.143   2.007   0.713  0.5854 -0.0820  0.5145
 3776TIP3    H132887   3.162   1.966   0.628 -0.0948 -0.1762  0.3982
 3776TIP3    H232888   3.100   2.089   0.690  0.9362  0.1711  0.7632
 3777TIP3   OH232889   1.379   2.885   8.189  0.3397  0.8019  0.1174
 3777TIP3    H132890   1.350   2.957   8.245 -0.8588 -1.8454  3.2471
 3777TIP3    H232891   1.321   2.812   8.211  1.3761 -1.1648 -2.9560
 3778TIP3   OH232892   6.298   4.790   0.172 -0.0815 -0.6149 -0.5169
 3778TIP3    H132893   6.229   4.835   0.123 -2.7128  1.2209  4.1975
 3778TIP3    H232894   6.363   4.858   0.190  0.9072 -1.2944 -1.3918
 3779TIP3   OH232895   3.981   1.959   2.487 -0.0931 -0.1950  0.1467
 3779TIP3    H132896   3.964   1.916   2.402 -2.5406  1.1604 -0.1458
 3779TIP3    H232897   3.999   2.050   2.465  0.8503 -0.1584  1.0099
 3780TIP3   OH232898   1.872   3.970   0.557  0.0002  0.6622 -0.3047
 3780TIP3    H132899   1.929   4.032   0.513  1.0867 -1.4686 -2.0929
 3780TIP3    H232900   1.927   3.929   0.623  0.3709 -0.8217 -1.4854
 3781TIP3   OH232901   4.203   4.700   7.248 -0.1323  0.1105 -0.1247
 3781TIP3    H132902   4.231   4.790   7.264  1.8715 -0.0367 -2.3362
 3781TIP3    H232903   4.284   4.650   7.238 -1.1369 -1.2411 -2.4056
 3782TIP3   OH232904   3.521   4.362   8.582 -0.4797  0.2077 -0.4298
 3782TIP3    H132905   3.440   4.314   8.596  0.5383 -1.5294 -0.1802
 3782TIP3    H232906   3.567   4.357   8.666  0.7988 -0.6790 -1.1451
 3783TIP3   OH232907   0.555   5.870   2.505  0.2775  0.1513 -0.2669
 3783TIP3    H132908   0.624   5.804   2.512 -1.3463 -1.4379  2.3801
 3783TIP3    H232909   0.548   5.887   2.411  1.4089 -2.8169 -1.0037
 3784TIP3   OH232910   2.281   5.263   2.911 -0.7655 -0.2711 -0.4498
 3784TIP3    H132911   2.196   5.250   2.952 -0.6442 -0.5483 -0.2866
 3784TIP3    H232912   2.268   5.339   2.853 -1.3079 -0.7339 -0.9462
 3785TIP3   OH232913   4.221   4.101   2.600  0.2326 -0.0545  0.7096
 3785TIP3    H132914   4.230   4.129   2.508 -0.9938 -1.7856  0.0133
 3785TIP3    H232915   4.159   4.163   2.638 -1.0705 -0.7014 -0.2984
 3786TIP3   OH232916   3.780   5.227   2.394 -0.3241  0.1048 -0.2490
 3786TIP3    H132917   3.865   5.183   2.401 -0.6261 -0.7848 -1.8168
 3786TIP3    H232918   3.755   5.244   2.485  0.9266 -0.7696  0.2953
 3787TIP3   OH232919   0.152   6.765   7.570 -0.2176  0.3491 -0.0483
 3787TIP3    H132920   0.078   6.753   7.630  0.4550 -0.5996  0.6172
 3787TIP3    H232921   0.177   6.676   7.545  0.7800  0.6535 -0.1577
 3788TIP3   OH232922   3.243   0.807   1.817 -0.1447 -0.1251 -0.5161
 3788TIP3    H132923   3.236   0.776   1.727 -0.7725 -0.6123 -0.3053
 3788TIP3    H232924   3.187   0.884   1.821 -0.6466 -0.4912 -0.3787
 3789TIP3   OH232925   6.701   1.396   0.672  0.5168 -0.1915  0.3505
 3789TIP3    H132926   6.644   1.380   0.748 -0.8775  2.0022 -0.1438
 3789TIP3    H232927   6.679   1.326   0.610 -2.0254  0.7880  0.0247
 3790TIP3   OH232928   2.274   4.264   0.797  0.2496 -0.3875  0.5553
 3790TIP3    H132929   2.235   4.329   0.855 -0.2936 -0.8138  0.6764
 3790TIP3    H232930   2.260   4.181   0.841 -0.1812 -0.7212 -0.1820
 3791TIP3   OH232931   2.640   3.833   1.400  0.6769  0.3366 -0.5160
 3791TIP3    H132932   2.727   3.841   1.437  0.1458  0.7543  0.7078
 3791TIP3    H232933   2.648   3.766   1.332  1.5976 -0.7876  0.6590
 3792TIP3   OH232934   3.480   0.564   3.048  0.2007 -0.2643 -0.0082
 3792TIP3    H132935   3.469   0.470   3.061 -2.4168 -0.2697 -1.4741
 3792TIP3    H232936   3.542   0.571   2.975 -0.3617 -0.9174 -0.5627
 3793TIP3   OH232937   0.730   6.138   8.320  0.1464  0.6733  0.3688
 3793TIP3    H132938   0.806   6.133   8.379 -2.1427  0.0070  3.5581
 3793TIP3    H232939   0.734   6.225   8.282  1.8728  1.0853  1.3870
 3794TIP3   OH232940   3.406   0.803   1.479 -0.1633 -0.5921 -0.4129
 3794TIP3    H132941   3.471   0.733   1.485 -0.3401 -0.8168 -1.0258
 3794TIP3    H232942   3.322   0.759   1.494 -0.2933 -0.5539 -1.0095
 3795TIP3   OH232943   3.388   0.019   1.428 -0.0035 -0.3832 -0.1274
 3795TIP3    H132944   3.424  -0.034   1.500  1.5248  2.1818  1.1343
 3795TIP3    H232945   3.421  -0.023   1.349  3.6272  0.1904  0.9037
 3796TIP3   OH232946   2.017   4.483   7.201  0.1115 -0.1120 -0.1052
 3796TIP3    H132947   2.093   4.532   7.171 -0.7050  0.6081 -1.0735
 3796TIP3    H232948   2.035   4.393   7.176  0.9966 -0.0887  0.4086
 3797TIP3   OH232949   6.389   1.119   7.031  0.1950 -0.5252 -0.0653
 3797TIP3    H132950   6.384   1.117   7.126 -0.9775  1.3627 -0.0544
 3797TIP3    H232951   6.480   1.141   7.012  0.3168 -0.4167  0.6305
 3798TIP3   OH232952   3.786   4.867   2.039 -0.0301  0.1344  0.1522
 3798TIP3    H132953   3.703   4.830   2.008 -0.0855  1.3296 -1.1993
 3798TIP3    H232954   3.840   4.790   2.059 -1.3753 -0.6684  0.8776
 3799TIP3   OH232955   0.562   5.712   0.480  0.0190  0.4896 -0.8018
 3799TIP3    H132956   0.546   5.641   0.542  0.8551  1.3810  0.4983
 3799TIP3    H232957   0.585   5.668   0.398  2.6203 -0.8358  0.5112
 3800TIP3   OH232958   2.636   4.126   3.046 -0.1418 -0.3040  0.3084
 3800TIP3    H132959   2.562   4.116   2.986  0.4205 -0.5106 -0.3567
 3800TIP3    H232960   2.619   4.210   3.090  0.2602  0.6774 -1.3226
 3801TIP3   OH232961   0.587   6.706   0.600 -0.3161 -0.5785 -0.6458
 3801TIP3    H132962   0.622   6.626   0.562 -0.8187 -0.3139 -1.7179
 3801TIP3    H232963   0.501   6.682   0.632 -0.1388 -0.6584 -0.2300
 3802TIP3   OH232964   1.784   3.357   7.502  1.1312 -0.7643  0.3487
 3802TIP3    H132965   1.843   3.430   7.524 -0.2098  0.5348 -0.1538
 3802TIP3    H232966   1.763   3.371   7.410 -2.1241  0.5302  1.1448
 3803TIP3   OH232967   5.872   0.781   1.294 -0.0553 -0.2637 -0.0104
 3803TIP3    H132968   5.903   0.691   1.283  1.7151  0.4352 -1.1703
 3803TIP3    H232969   5.820   0.798   1.215 -0.7819 -0.4021  0.4301
 3804TIP3   OH232970   2.441   6.479   8.291 -0.7315  0.8588  0.6595
 3804TIP3    H132971   2.533   6.456   8.305 -1.1235 -0.6850  0.8475
 3804TIP3    H232972   2.433   6.487   8.195 -0.7883 -0.8928  0.4801
 3805TIP3   OH232973   1.738   3.358   0.797  0.1833  0.1658  0.1142
 3805TIP3    H132974   1.681   3.285   0.819 -0.0201  0.8629  2.0982
 3805TIP3    H232975   1.678   3.427   0.767  0.0586  0.5040  1.0973
 3806TIP3   OH232976   4.448   2.960   8.604 -0.6811  0.8800 -0.2481
 3806TIP3    H132977   4.441   3.028   8.670  0.7082  1.6463 -0.8551
 3806TIP3    H232978   4.358   2.948   8.573 -0.7830  3.7547 -1.4026
 3807TIP3   OH232979   2.746   5.923   7.571 -0.2150 -0.4046  0.9633
 3807TIP3    H132980   2.668   5.907   7.517  0.6918 -2.5363  0.1494
 3807TIP3    H232981   2.781   5.835   7.587  2.9522  0.5433 -0.1476
 3808TIP3   OH232982   3.594   0.228   0.808  0.0311  0.0744  0.7133
 3808TIP3    H132983   3.683   0.198   0.827 -0.3457 -1.9243 -0.3779
 3808TIP3    H232984   3.538   0.171   0.860 -0.6884 -0.5560 -0.7081
 3809TIP3   OH232985   5.174   4.881   0.989  0.3204 -0.3229  0.1344
 3809TIP3    H132986   5.094   4.871   1.041  0.1082  0.4384 -0.0250
 3809TIP3    H232987   5.160   4.962   0.940  1.2517 -0.1024  0.2111
 3810TIP3   OH232988   5.037   0.945   1.322  0.0053 -0.2268 -0.4174
 3810TIP3    H132989   5.007   0.953   1.413 -0.2632  0.6455 -0.5736
 3810TIP3    H232990   5.028   1.033   1.286 -2.7693 -1.1067 -2.1959
 3811TIP3   OH232991   0.509   4.336   1.636 -0.0033  0.5057 -0.3350
 3811TIP3    H132992   0.564   4.320   1.559  0.7489 -0.6138  0.3885
 3811TIP3    H232993   0.465   4.252   1.651 -0.3286  0.7851  0.2958
 3812TIP3   OH232994   3.524   5.618   0.604  0.1440 -0.0427  0.3240
 3812TIP3    H132995   3.563   5.621   0.517 -1.1409  0.0642 -0.2581
 3812TIP3    H232996   3.432   5.598   0.589 -0.7808  2.8856  1.4054
 3813TIP3   OH232997   0.256   6.222   1.770 -0.3646  0.1252 -0.2557
 3813TIP3    H132998   0.257   6.128   1.788  1.5842  0.3127  0.8242
 3813TIP3    H232999   0.278   6.229   1.677  1.6544 -0.4531  0.1354
 3814TIP3   OH233000   4.410   2.166   8.261  0.0245  0.0932  0.3563
 3814TIP3    H133001   4.397   2.197   8.171 -1.7327 -0.5285  0.3543
 3814TIP3    H233002   4.468   2.090   8.251 -1.3848 -0.9242 -0.4724
 3815TIP3   OH233003   4.920   5.730   1.129  0.4010 -0.2121 -0.7510
 3815TIP3    H133004   4.875   5.694   1.205  0.8099  0.5920 -0.1037
 3815TIP3    H233005   4.941   5.820   1.155  2.2736 -0.5316 -1.0667
 3816TIP3   OH233006   6.395   6.158   7.924 -0.0040  0.2183  0.3547
 3816TIP3    H133007   6.387   6.249   7.952  0.4028  0.6358 -0.8180
 3816TIP3    H233008   6.436   6.163   7.837  0.3323 -1.0985  0.4142
 3817TIP3   OH233009   2.273   3.191   1.858 -0.3721  0.2050  0.0723
 3817TIP3    H133010   2.319   3.176   1.941 -1.1850  1.6029  0.8310
 3817TIP3    H233011   2.195   3.242   1.883 -1.0420 -0.0108 -1.4657
 3818TIP3   OH233012   1.057   2.518   7.915  0.2106  0.2501 -0.4749
 3818TIP3    H133013   1.085   2.429   7.892  0.7002 -0.1876  1.6027
 3818TIP3    H233014   1.109   2.540   7.993 -0.3798  2.1029 -0.5668
 3819TIP3   OH233015   5.640   1.397   8.338  0.0818 -0.1546 -0.3099
 3819TIP3    H133016   5.654   1.334   8.409  0.8346 -1.2871 -1.4309
 3819TIP3    H233017   5.697   1.367   8.267 -1.0110  0.6631 -1.5827
 3820TIP3   OH233018   5.117   1.594   0.512 -0.2770  0.0090  0.1203
 3820TIP3    H133019   5.070   1.664   0.467 -0.3689 -0.2369 -0.1708
 3820TIP3    H233020   5.059   1.568   0.584 -1.1344 -1.0908 -0.9296
 3821TIP3   OH233021   4.624   0.943   3.625 -0.6671 -0.0060  0.2913
 3821TIP3    H133022   4.551   0.945   3.562 -0.5701 -0.1888  0.1728
 3821TIP3    H233023   4.672   1.024   3.607 -0.1258 -0.4827 -0.4858
 3822TIP3   OH233024   2.559   3.442   8.664  0.3561 -0.2688 -0.1789
 3822TIP3    H133025   2.507   3.401   8.733  0.0719 -2.5885 -1.6274
 3822TIP3    H233026   2.573   3.371   8.600  0.8280  1.6648 -2.3500
 3823TIP3   OH233027   1.171   2.876   2.725 -0.4800 -0.4068  0.0765
 3823TIP3    H133028   1.089   2.923   2.708 -1.5231 -0.6432  3.7044
 3823TIP3    H233029   1.218   2.931   2.788  1.0522 -1.4546 -0.0889
 3824TIP3   OH233030   3.604   1.154   7.934  0.0606 -0.5484  0.9316
 3824TIP3    H133031   3.666   1.151   8.007  0.3080 -2.1455  0.6924
 3824TIP3    H233032   3.549   1.077   7.947 -0.5070 -0.3181 -0.0449
 3825TIP3   OH233033   4.412   6.126   0.474 -0.0877  0.0616  0.3183
 3825TIP3    H133034   4.326   6.158   0.445 -0.9433 -0.7105  1.8297
 3825TIP3    H233035   4.468   6.135   0.398 -2.0295 -1.3477 -1.3946
 3826TIP3   OH233036   3.101   0.584   7.972  0.1477 -0.2348  0.3528
 3826TIP3    H133037   3.026   0.553   7.922  2.3849 -1.1315 -2.7833
 3826TIP3    H233038   3.093   0.541   8.058 -2.5178 -0.7679 -0.0852
 3827TIP3   OH233039   2.074   5.721   2.249 -0.4693  0.2011 -0.1546
 3827TIP3    H133040   2.036   5.806   2.228 -0.1435  0.3724 -0.0719
 3827TIP3    H233041   2.160   5.723   2.206 -0.2310  0.1385  0.3194
 3828TIP3   OH233042   2.579   0.803   3.286  0.1461  0.5629  0.5851
 3828TIP3    H133043   2.574   0.710   3.266  0.0867  0.5128  0.8261
 3828TIP3    H233044   2.672   0.823   3.289  0.1563  0.5770  0.2414
 3829TIP3   OH233045   3.325   5.883   1.293 -0.0616  0.4054 -0.2535
 3829TIP3    H133046   3.337   5.973   1.324  0.9161  0.0992  0.2998
 3829TIP3    H233047   3.312   5.892   1.198  0.1319  1.1289 -0.2198
 3830TIP3   OH233048   4.794   6.099   1.691  0.3322  0.3371  0.3512
 3830TIP3    H133049   4.780   6.189   1.662  1.3512  0.5843  0.5954
 3830TIP3    H233050   4.812   6.106   1.784  2.1109  0.0803  0.0681
 3831TIP3   OH233051   5.984   6.413   7.248  0.2824  0.4623 -0.0330
 3831TIP3    H133052   6.069   6.430   7.208  1.5977 -0.8291  2.0248
 3831TIP3    H233053   6.005   6.369   7.331 -2.3866  0.3464  0.6657
 3832TIP3   OH233054   3.149   3.656   0.428 -0.5698  0.4554  0.1404
 3832TIP3    H133055   3.154   3.578   0.484 -0.4485 -1.0351 -1.8316
 3832TIP3    H233056   3.062   3.649   0.387 -0.3142  1.0234 -0.5053
 3833TIP3   OH233057   4.754   1.673   2.380  0.1123  0.3603 -0.3089
 3833TIP3    H133058   4.748   1.713   2.467 -1.2479  1.4606 -0.8845
 3833TIP3    H233059   4.666   1.639   2.363  0.4473 -0.1293 -1.1361
 3834TIP3   OH233060   2.309   6.369   0.240 -0.1859  0.4370 -0.0644
 3834TIP3    H133061   2.401   6.344   0.247 -0.2199  0.3432  0.0523
 3834TIP3    H233062   2.260   6.290   0.263 -0.3160  0.0006 -1.7176
 3835TIP3   OH233063   5.285   4.507   1.346  0.3569 -0.3118 -0.0573
 3835TIP3    H133064   5.367   4.552   1.328  0.6200 -1.4331 -1.9572
 3835TIP3    H233065   5.223   4.576   1.368  1.4207  0.6850 -0.1342
 3836TIP3   OH233066   4.990   6.561   1.146 -0.4913 -0.0902 -0.1040
 3836TIP3    H133067   5.014   6.539   1.236  3.4155  1.2192 -0.6227
 3836TIP3    H233068   4.954   6.649   1.152  0.1483  0.1577  0.1504
 3837TIP3   OH233069   6.315   2.270   7.795 -0.1277  0.7803 -0.0322
 3837TIP3    H133070   6.304   2.211   7.870 -0.3639 -1.3785 -1.6531
 3837TIP3    H233071   6.409   2.271   7.779  0.0598  2.2048  0.9548
 3838TIP3   OH233072   5.034   2.066   0.039 -0.3328 -0.3873  0.2519
 3838TIP3    H133073   4.946   2.097   0.018 -0.2700 -0.6925 -0.4979
 3838TIP3    H233074   5.065   2.126   0.106  0.5505  2.4960 -2.5058
 3839TIP3   OH233075   4.563   0.606   1.656  0.7100  0.8401  0.4405
 3839TIP3    H133076   4.477   0.586   1.620  1.4948  2.1738 -2.4680
 3839TIP3    H233077   4.546   0.659   1.733 -1.0638 -1.1164  1.4888
 3840TIP3   OH233078   4.551   6.652   6.825  0.0752 -0.0281  0.5045
 3840TIP3    H133079   4.641   6.633   6.852  0.3525  0.6740  0.1128
 3840TIP3    H233080   4.519   6.715   6.890 -0.0420 -0.0693  0.4878
 3841TIP3   OH233081   3.152   4.304   1.114  0.1407 -0.1393 -0.1233
 3841TIP3    H133082   3.133   4.223   1.067  1.8445 -1.9393  2.0438
 3841TIP3    H233083   3.215   4.350   1.058 -0.8651 -0.2581 -1.3928
 3842TIP3   OH233084   3.410   2.107   7.305 -0.3724  0.4788  0.0863
 3842TIP3    H133085   3.465   2.099   7.227 -0.5894 -0.3451  0.0086
 3842TIP3    H233086   3.469   2.089   7.378 -0.2177  1.0373  0.1023
 3843TIP3   OH233087   2.091   1.058   0.038  0.1696 -0.1756  0.0413
 3843TIP3    H133088   2.075   1.014  -0.046  0.1933 -3.6851  1.7060
 3843TIP3    H233089   2.004   1.075   0.073  0.1556 -0.6970  0.2577
 3844TIP3   OH233090   0.668   4.579   1.331 -0.3522  0.6605  1.0397
 3844TIP3    H133091   0.675   4.548   1.241 -1.1956 -0.5065  1.3496
 3844TIP3    H233092   0.755   4.614   1.351 -0.1911  1.0529 -0.2523
 3845TIP3   OH233093   4.017   1.286   8.166  0.1053  0.0284 -0.5232
 3845TIP3    H133094   4.075   1.327   8.101  0.4536 -0.8717 -0.7934
 3845TIP3    H233095   4.075   1.265   8.239  0.0153 -0.4011 -0.5764
 3846TIP3   OH233096   3.854   3.655   2.436  0.4389 -0.4281 -0.2813
 3846TIP3    H133097   3.782   3.603   2.471 -0.8792  1.3904 -0.1661
 3846TIP3    H233098   3.888   3.703   2.511  2.1635 -1.6253 -0.2345
 3847TIP3   OH233099   3.018   3.723   7.967  0.0019 -0.6913  0.0536
 3847TIP3    H133100   2.961   3.664   7.919 -1.0093 -0.7137  1.2610
 3847TIP3    H233101   3.000   3.809   7.930  1.8872 -1.1090 -2.1063
 3848TIP3   OH233102   3.653   0.403   0.614 -0.4976  0.4103 -0.1744
 3848TIP3    H133103   3.631   0.348   0.689  0.3546 -0.5658 -0.6243
 3848TIP3    H233104   3.691   0.343   0.550  0.5754  1.5328 -0.6365
 3849TIP3   OH233105   5.141   2.701   0.659  0.4329 -0.3742 -0.0709
 3849TIP3    H133106   5.161   2.627   0.717 -0.9826 -0.0013  0.9455
 3849TIP3    H233107   5.048   2.718   0.674  0.3667  0.6061 -1.4765
 3850TIP3   OH233108   1.398   2.034   0.519 -0.1036  0.4225  0.5377
 3850TIP3    H133109   1.411   2.056   0.611  0.8022  1.4744  0.1928
 3850TIP3    H233110   1.425   2.113   0.472  0.6316 -0.5215 -0.6833
 3851TIP3   OH233111   1.913   6.389   1.891  0.1393  0.3339  0.1085
 3851TIP3    H133112   1.982   6.441   1.933  1.0473 -0.9108  0.2068
 3851TIP3    H233113   1.922   6.302   1.930  0.2559 -0.5580 -1.8119
 3852TIP3   OH233114   0.724   1.929   6.934  0.6636 -0.3154 -0.2262
 3852TIP3    H133115   0.777   1.991   6.983  0.5374 -0.6477  0.3484
 3852TIP3    H233116   0.638   1.931   6.977  0.1148  0.4256 -1.3184
 3853TIP3   OH233117   0.085   2.108   2.997 -0.1925 -0.7214  0.0513
 3853TIP3    H133118   0.068   2.020   3.030  0.3611 -0.0002  2.4820
 3853TIP3    H233119   0.180   2.114   2.990 -0.2267 -0.3265 -0.1270
 3854TIP3   OH233120   5.636   2.910   0.553  0.7707  0.2435  0.1462
 3854TIP3    H133121   5.558   2.957   0.525  1.2574 -0.2689 -2.3012
 3854TIP3    H233122   5.606   2.819   0.563  0.7795  0.2751  0.4516
 3855TIP3   OH233123   0.937   4.797   2.999  0.2477 -0.4952 -0.2399
 3855TIP3    H133124   0.871   4.808   2.931  0.8315 -2.1336 -1.1298
 3855TIP3    H233125   1.012   4.848   2.969 -0.0774  0.1455  0.0244
 3856TIP3   OH233126   4.914   0.445   1.523  0.2105 -0.0471  0.3885
 3856TIP3    H133127   4.912   0.529   1.477 -0.8171 -0.1451  0.2426
 3856TIP3    H233128   4.879   0.382   1.460 -0.0789 -0.3874  0.8830
 3857TIP3   OH233129   2.231   2.126   0.082  0.5953 -0.4857 -0.1632
 3857TIP3    H133130   2.199   2.187   0.149  0.6717  0.3209 -0.8403
 3857TIP3    H233131   2.307   2.085   0.122  0.5159 -0.1675  0.3298
 3858TIP3   OH233132   2.094   0.848   2.938 -1.1809 -0.0614  0.3696
 3858TIP3    H133133   2.121   0.756   2.933 -2.9071 -0.6232  0.4085
 3858TIP3    H233134   2.121   0.877   3.024 -1.4483 -0.8417  0.7260
 3859TIP3   OH233135   3.162   3.423   1.355  0.0778 -1.1651  0.3393
 3859TIP3    H133136   3.111   3.383   1.426 -1.2671 -0.2913 -0.1102
 3859TIP3    H233137   3.248   3.438   1.394 -0.8839  0.1597  2.1435
 3860TIP3   OH233138   1.696   1.204   7.228  0.6654 -0.0524  0.2602
 3860TIP3    H133139   1.662   1.120   7.257  1.8397 -0.3784  0.7695
 3860TIP3    H233140   1.636   1.269   7.265 -0.5634 -0.6686 -0.5908
 3861TIP3   OH233141   0.631   0.964   2.970  0.2964 -0.4456  0.5072
 3861TIP3    H133142   0.680   1.007   2.900  1.5459 -2.0726  0.2998
 3861TIP3    H233143   0.566   0.910   2.925 -0.0824 -0.1488  0.6898
 3862TIP3   OH233144   1.082   6.323   2.611 -0.0691  0.5906  0.0417
 3862TIP3    H133145   1.048   6.350   2.526 -1.4004  1.5548  0.8522
 3862TIP3    H233146   1.141   6.250   2.591 -0.3060  0.8397 -1.7032
 3863TIP3   OH233147   3.054   2.672   1.571  0.1523  0.2140  0.2284
 3863TIP3    H133148   3.032   2.756   1.612  1.4574 -0.3139  2.1602
 3863TIP3    H233149   2.984   2.613   1.597 -1.3056  0.8638 -1.9586
 3864TIP3   OH233150   0.227   5.094   8.309 -0.2501  0.5727  0.1115
 3864TIP3    H133151   0.170   5.017   8.309 -1.0458  1.1323  1.2252
 3864TIP3    H233152   0.187   5.154   8.247  0.2838  0.1766 -0.6388
 3865TIP3   OH233153   4.602   5.150   7.794  0.5856  0.5916 -0.2331
 3865TIP3    H133154   4.515   5.178   7.823  0.4875 -0.2718  0.3470
 3865TIP3    H233155   4.586   5.099   7.715  0.3614 -0.9502  0.7505
 3866TIP3   OH233156   1.430   1.061   2.083 -0.2030  0.5589 -0.2957
 3866TIP3    H133157   1.338   1.084   2.075 -0.1587  0.5579 -0.8831
 3866TIP3    H233158   1.476   1.123   2.027 -0.0724 -0.8229 -1.8050
 3867TIP3   OH233159   2.416   3.677   7.431 -0.3453  0.6748 -0.0481
 3867TIP3    H133160   2.397   3.755   7.379  0.1204  0.5191 -0.4534
 3867TIP3    H233161   2.394   3.604   7.373  3.8118  0.3763 -1.5977
 3868TIP3   OH233162   4.991   2.016   2.878 -0.4629 -0.0073  0.2921
 3868TIP3    H133163   5.030   1.952   2.937  1.2037 -0.1065 -0.8467
 3868TIP3    H233164   4.994   1.974   2.792  0.3014  1.4342 -0.4119
 3869TIP3   OH233165   5.303   2.061   2.747 -0.3252 -0.2821  0.1727
 3869TIP3    H133166   5.297   2.100   2.835 -0.9154  1.4746 -0.6070
 3869TIP3    H233167   5.216   2.072   2.709  0.2486  0.0764 -1.0742
 3870TIP3   OH233168   3.664   0.741   2.211 -0.2624 -0.0529 -0.3415
 3870TIP3    H133169   3.606   0.792   2.154 -1.3147  2.0902  2.4114
 3870TIP3    H233170   3.604   0.697   2.272  0.8849  0.3827  1.1497
 3871TIP3   OH233171   1.385   0.364   3.313 -0.3493 -0.2625 -0.0972
 3871TIP3    H133172   1.337   0.441   3.345  1.2680  0.1020  1.6203
 3871TIP3    H233173   1.320   0.314   3.265 -1.7828  1.5187 -0.1318
 3872TIP3   OH233174   6.099   6.128   0.788 -0.6081  0.0419 -0.1571
 3872TIP3    H133175   6.135   6.202   0.740 -3.3191  1.1972 -0.5515
 3872TIP3    H233176   6.175   6.091   0.835  1.5118  0.7696 -2.7761
 3873TIP3   OH233177   5.292   6.498   8.238  0.1887  0.3249 -0.0101
 3873TIP3    H133178   5.293   6.416   8.288 -0.8857 -0.4597 -1.1861
 3873TIP3    H233179   5.290   6.567   8.304  1.8815 -0.5518  1.0176
 3874TIP3   OH233180   5.713   6.070   2.554  0.1268  0.1371  0.2066
 3874TIP3    H133181   5.642   6.131   2.530 -0.7469 -0.3662  1.4143
 3874TIP3    H233182   5.668   5.992   2.584  1.2229 -0.4864  0.2737
 3875TIP3   OH233183   2.768   0.502   0.311  0.1486 -0.2083  0.5444
 3875TIP3    H133184   2.860   0.479   0.310 -0.0985 -1.2587  0.3431
 3875TIP3    H233185   2.724   0.427   0.270 -0.6685  0.8389 -0.5645
 3876TIP3   OH233186   3.987   3.302   2.005 -0.9255  0.1396 -0.0145
 3876TIP3    H133187   4.010   3.395   2.006  1.7816 -0.4661  1.0439
 3876TIP3    H233188   3.891   3.302   2.001 -1.0505  2.9652  0.6423
 3877TIP3   OH233189   4.322   6.159   1.177 -0.5453  0.3518  0.4125
 3877TIP3    H133190   4.303   6.075   1.135 -2.6346  1.8950 -2.0079
 3877TIP3    H233191   4.405   6.145   1.222  0.7879 -2.1667 -2.4829
 3878TIP3   OH233192   0.032   3.172   0.261 -0.4718  0.1658 -0.6576
 3878TIP3    H133193  -0.025   3.231   0.310  0.1616  0.0434  0.2415
 3878TIP3    H233194   0.118   3.216   0.261 -0.8062  1.0315 -3.1700
 3879TIP3   OH233195   1.623   1.558   0.117  0.9247 -0.6967 -0.3395
 3879TIP3    H133196   1.605   1.490   0.182 -0.2512 -0.3845 -0.3070
 3879TIP3    H233197   1.717   1.555   0.105  0.9761 -1.8752  0.1639
 3880TIP3   OH233198   4.190   2.487   1.386  0.1046  0.0508  0.3649
 3880TIP3    H133199   4.202   2.579   1.410 -1.3384  0.2422  0.4288
 3880TIP3    H233200   4.264   2.442   1.427  0.7396  1.1483  0.4737
 3881TIP3   OH233201   2.486   3.641   7.896  0.0742 -0.1361  0.5865
 3881TIP3    H133202   2.430   3.570   7.928 -1.3271  1.3159  1.5321
 3881TIP3    H233203   2.436   3.680   7.824  2.0470 -1.7303 -1.8166
 3882TIP3   OH233204   0.752   1.251   2.649  0.2990  0.2748  0.4332
 3882TIP3    H133205   0.744   1.340   2.681  0.9770  0.0428  1.2652
 3882TIP3    H233206   0.669   1.235   2.602 -0.4846  0.8158  1.5898
 3883TIP3   OH233207   6.339   4.480   0.050 -0.0631 -0.1403 -0.2378
 3883TIP3    H133208   6.428   4.456   0.075 -0.1257 -1.4155 -1.1604
 3883TIP3    H233209   6.349   4.564   0.005  0.5657  0.1031  0.3401
 3884TIP3   OH233210   0.546   5.808   1.950 -0.4069 -0.2554  0.0191
 3884TIP3    H133211   0.634   5.845   1.958 -0.6412  0.4756 -0.7358
 3884TIP3    H233212   0.550   5.727   2.002  0.5710 -0.0005  0.3673
 3885TIP3   OH233213   5.908   3.666   1.788 -0.1491 -0.3961  0.0646
 3885TIP3    H133214   5.848   3.593   1.796 -0.9825  0.2960  0.2603
 3885TIP3    H233215   5.886   3.707   1.704  1.0525 -1.0022 -0.5739
 3886TIP3   OH233216   2.053   4.537   0.338 -0.0442  0.7278  0.1446
 3886TIP3    H133217   2.118   4.507   0.402 -0.0053  1.3183  0.3870
 3886TIP3    H233218   2.084   4.623   0.311 -0.3227  0.6884 -0.3089
 3887TIP3   OH233219   6.824   5.922   7.386 -0.2512 -0.3669 -0.1091
 3887TIP3    H133220   6.796   5.879   7.467  1.8554 -1.2743  0.2107
 3887TIP3    H233221   6.743   5.955   7.347 -1.2800  0.7198  2.6815
 3888TIP3   OH233222   1.491   0.728   0.961  0.0722 -0.6786  0.4511
 3888TIP3    H133223   1.433   0.708   0.888 -1.8069 -0.1750  1.7428
 3888TIP3    H233224   1.436   0.774   1.024  2.3061  1.4713  0.9991
 3889TIP3   OH233225   1.919   4.734   1.822  0.3413  0.8230 -0.4157
 3889TIP3    H133226   1.922   4.758   1.915  2.2977 -0.3664 -0.1296
 3889TIP3    H233227   1.954   4.810   1.777 -0.4872  1.3533 -0.2073
 3890TIP3   OH233228   0.041   1.423   3.156 -0.0212 -0.0160 -0.0652
 3890TIP3    H133229   0.045   1.418   3.060 -0.1824 -0.9876 -0.0349
 3890TIP3    H233230   0.084   1.342   3.186 -0.6373 -0.0849  0.6648
 3891TIP3   OH233231   2.010   0.324   1.458 -0.0846  0.4298  0.1328
 3891TIP3    H133232   2.047   0.375   1.386  0.8487 -0.7770 -0.2831
 3891TIP3    H233233   1.973   0.246   1.415 -1.6266  0.7944  0.7255
 3892TIP3   OH233234   1.842   4.681   2.778 -0.0898 -0.0427  0.3954
 3892TIP3    H133235   1.928   4.706   2.811  0.5057  0.5116 -1.4748
 3892TIP3    H233236   1.832   4.589   2.803  0.2066  0.4013  2.2720
 3893TIP3   OH233237   4.053   2.253   0.473 -0.2306  0.3377 -0.4513
 3893TIP3    H133238   4.106   2.209   0.540  0.1595 -1.1963 -1.7006
 3893TIP3    H233239   4.103   2.332   0.452  1.3949 -0.8380 -1.2558
 3894TIP3   OH233240   4.349   4.210   2.011  0.5920 -0.9185  0.1827
 3894TIP3    H133241   4.366   4.303   1.999 -0.5426 -0.5640  1.1329
 3894TIP3    H233242   4.260   4.197   1.979 -0.0490 -1.2316  1.9649
 3895TIP3   OH233243   5.112   6.126   1.439 -0.0954 -0.3123  0.0152
 3895TIP3    H133244   5.109   6.119   1.535 -1.0874  0.0978  0.0314
 3895TIP3    H233245   5.037   6.074   1.410 -0.3660  0.3456 -0.4822
 3896TIP3   OH233246   0.103   4.182   0.733 -0.3962 -0.5885 -0.5262
 3896TIP3    H133247   0.169   4.217   0.792  0.2674 -3.0247  0.3027
 3896TIP3    H233248   0.128   4.090   0.720 -3.4430 -1.5527 -0.3907
 3897TIP3   OH233249   6.477   5.378   1.147  0.3490  0.2901  0.2304
 3897TIP3    H133250   6.539   5.345   1.212  0.4639  1.1151  0.5494
 3897TIP3    H233251   6.469   5.307   1.083  0.7834 -0.2484  0.7630
 3898TIP3   OH233252   0.547   0.061   3.183 -0.6355  0.5496 -0.0803
 3898TIP3    H133253   0.594   0.029   3.260 -0.4799 -1.0835 -0.8174
 3898TIP3    H233254   0.577   0.006   3.111 -3.1629 -0.1449 -0.7051
 3899TIP3   OH233255   4.844   0.219   0.606 -0.0176 -0.3460 -0.2518
 3899TIP3    H133256   4.773   0.204   0.669 -0.1217  4.8430  1.3481
 3899TIP3    H233257   4.921   0.236   0.661  0.8279  0.5987 -1.6593
 3900TIP3   OH233258   0.411   0.624   2.652  0.1281 -0.2513 -0.8966
 3900TIP3    H133259   0.460   0.555   2.607  1.4195 -1.9988  2.7441
 3900TIP3    H233260   0.328   0.583   2.676  1.0228 -0.8238  1.5597
 3901TIP3   OH233261   4.495   3.096   3.189 -0.1771  0.0005  0.5457
 3901TIP3    H133262   4.426   3.058   3.244  0.6000 -0.3508  1.3078
 3901TIP3    H233263   4.569   3.107   3.248  0.0130  1.6033  0.0549
 3902TIP3   OH233264   0.659   6.585   1.074  0.4695 -0.1376 -0.0034
 3902TIP3    H133265   0.678   6.661   1.020  0.6343 -1.0191 -1.2323
 3902TIP3    H233266   0.674   6.510   1.016 -0.5380 -1.0763  0.8998
 3903TIP3   OH233267   3.515   1.795   7.433  0.7808  0.1897  0.0302
 3903TIP3    H133268   3.504   1.890   7.440  2.3140  0.2932  1.8626
 3903TIP3    H233269   3.581   1.774   7.499  0.5659 -2.1488 -0.4277
 3904TIP3   OH233270   3.374   4.885   2.566  0.2343 -0.0193  0.2311
 3904TIP3    H133271   3.339   4.972   2.545 -2.0454 -1.0413 -0.5621
 3904TIP3    H233272   3.336   4.864   2.652  0.4819 -0.3766  0.2557
 3905TIP3   OH233273   0.753   2.162   1.867  0.8430 -0.3660  0.0922
 3905TIP3    H133274   0.706   2.088   1.828  0.7508  0.8298 -2.2862
 3905TIP3    H233275   0.819   2.185   1.801 -0.3281  2.7727 -0.1369
 3906TIP3   OH233276   4.662   6.542   2.716  0.4504 -0.3463 -0.3005
 3906TIP3    H133277   4.692   6.459   2.677 -0.3145 -0.4461 -0.6912
 3906TIP3    H233278   4.669   6.605   2.644 -0.6964 -0.4690 -0.5367
 3907TIP3   OH233279   6.678   6.125   8.198  0.4691 -0.5994  0.5622
 3907TIP3    H133280   6.600   6.175   8.222  1.0087 -0.1136  1.3612
 3907TIP3    H233281   6.689   6.140   8.104 -1.8358 -2.7297 -0.1523
 3908TIP3   OH233282   5.545   5.068   2.635  0.0037 -0.2986 -0.1549
 3908TIP3    H133283   5.511   5.032   2.717 -0.4531 -0.8822 -0.5963
 3908TIP3    H233284   5.528   5.001   2.569  1.1922 -0.2203 -0.5670
 3909TIP3   OH233285   1.814   2.840   8.483  0.6293  0.1514  0.4268
 3909TIP3    H133286   1.721   2.848   8.462  0.7860  0.4379 -0.1888
 3909TIP3    H233287   1.819   2.847   8.578 -0.0278 -0.3482  0.5046
 3910TIP3   OH233288   4.204   0.896   0.289  0.4569  1.0923 -0.6101
 3910TIP3    H133289   4.116   0.860   0.302  0.3551  1.4173 -0.4158
 3910TIP3    H233290   4.231   0.925   0.375  2.0112 -1.8037  0.0199
 3911TIP3   OH233291   1.196   4.301   1.754  0.1020  0.5550 -0.2082
 3911TIP3    H133292   1.168   4.224   1.802  0.5863  0.1928 -0.4988
 3911TIP3    H233293   1.282   4.323   1.790  0.6862 -0.0024 -1.2075
 3912TIP3   OH233294   1.697   0.962   0.994 -0.1458 -0.8294 -0.1042
 3912TIP3    H133295   1.718   1.013   0.916  0.5588 -1.4429 -0.3248
 3912TIP3    H233296   1.648   0.887   0.961  0.1054 -1.0617  0.0463
 3913TIP3   OH233297   4.569   1.854   0.445 -0.1378  0.2982  0.2906
 3913TIP3    H133298   4.612   1.773   0.418 -0.0949  0.7909 -1.2025
 3913TIP3    H233299   4.525   1.831   0.527  0.3407 -1.0712  0.1948
 3914TIP3   OH233300   3.197   3.093   0.427  0.1644  0.4986  0.1175
 3914TIP3    H133301   3.281   3.138   0.420  1.1846 -1.0405  1.5576
 3914TIP3    H233302   3.135   3.151   0.384  1.7238  2.3197  0.1902
 3915TIP3   OH233303   1.273   2.597   8.135  0.2285  0.3813 -0.8614
 3915TIP3    H133304   1.309   2.509   8.138  1.7367  0.9964  0.3934
 3915TIP3    H233305   1.311   2.636   8.056 -1.2831 -0.3734 -2.0276
 3916TIP3   OH233306   5.150   2.765   1.671  0.0120  0.3808 -0.2060
 3916TIP3    H133307   5.146   2.777   1.766 -1.8574 -1.6815  0.0560
 3916TIP3    H233308   5.214   2.696   1.658 -1.6113 -1.2082 -0.1476
 3917TIP3   OH233309   2.787   6.725   1.887  0.2837  1.1322 -0.2188
 3917TIP3    H133310   2.880   6.741   1.901 -0.2801  1.9253  3.6592
 3917TIP3    H233311   2.743   6.799   1.930 -2.1474 -0.1820 -0.2593
 3918TIP3   OH233312   4.156   3.781   2.113  0.0641 -0.0363  0.0733
 3918TIP3    H133313   4.231   3.766   2.056  1.6616 -0.4366  2.1584
 3918TIP3    H233314   4.132   3.873   2.099  1.3245  0.2625 -0.2084
 3919TIP3   OH233315   2.426   4.087   0.309 -0.0720  0.4241  0.6229
 3919TIP3    H133316   2.371   4.137   0.249 -0.2361  0.2092  0.5955
 3919TIP3    H233317   2.403   4.120   0.396  0.1657  0.7347  0.5726
 3920TIP3   OH233318   5.251   1.161   0.844  0.3259  0.2320  0.4770
 3920TIP3    H133319   5.281   1.119   0.924 -0.0941  0.7836  0.9342
 3920TIP3    H233320   5.208   1.241   0.873 -1.2663 -0.3431 -0.1657
 3921TIP3   OH233321   4.910   1.163   8.476 -0.3974 -0.2209 -0.3144
 3921TIP3    H133322   4.826   1.118   8.468 -1.0900  1.3156 -2.3639
 3921TIP3    H233323   4.887   1.255   8.488  0.9793  0.2265 -0.9338
 3922TIP3   OH233324   1.581   3.592   3.129  0.1021 -0.0243  0.8398
 3922TIP3    H133325   1.505   3.534   3.117  0.5297 -0.2619 -0.9524
 3922TIP3    H233326   1.637   3.545   3.190  0.4551 -1.5721 -0.5986
 3923TIP3   OH233327   4.280   1.234   3.680  0.3398  0.2588  0.3906
 3923TIP3    H133328   4.205   1.293   3.675  0.3972  0.5292  2.2242
 3923TIP3    H233329   4.286   1.196   3.592 -1.3557  0.9368 -0.0611
 3924TIP3   OH233330   4.258   3.744   0.518 -0.5268  0.4023 -0.4213
 3924TIP3    H133331   4.238   3.696   0.438 -1.8105 -0.5421  0.4385
 3924TIP3    H233332   4.297   3.826   0.487  1.2256 -0.9041 -1.9323
 3925TIP3   OH233333   2.626   2.699   0.789 -0.3912 -0.4635 -0.4156
 3925TIP3    H133334   2.586   2.786   0.783 -0.0189 -0.0004  2.4212
 3925TIP3    H233335   2.716   2.716   0.817  0.2524 -1.7205 -1.6388
 3926TIP3   OH233336   0.127   5.071   0.654  0.4276 -0.4661  0.2248
 3926TIP3    H133337   0.108   4.999   0.715  0.5011  0.0890  0.9097
 3926TIP3    H233338   0.164   5.140   0.709  0.7574 -0.0622 -0.4964
 3927TIP3   OH233339   2.391   6.214   2.078  0.2980  0.0662 -0.0383
 3927TIP3    H133340   2.405   6.280   2.011 -0.5417  0.4144  0.1205
 3927TIP3    H233341   2.332   6.150   2.038  0.7386 -0.3518 -0.0325
 3928TIP3   OH233342   4.588   2.807   8.130 -0.5864  0.3849  0.4092
 3928TIP3    H133343   4.609   2.715   8.142  1.4715  0.8549  0.8457
 3928TIP3    H233344   4.512   2.822   8.186 -0.9282 -1.0163  0.3622
 3929TIP3   OH233345   1.253   3.897   0.984 -0.3172 -0.3895  0.3346
 3929TIP3    H133346   1.276   3.818   1.032  0.5700  0.1927  0.8767
 3929TIP3    H233347   1.157   3.899   0.985 -0.4265 -2.2911 -1.0687
 3930TIP3   OH233348   1.937   0.230   8.124 -0.3567 -0.2757 -0.0945
 3930TIP3    H133349   1.972   0.149   8.162 -1.5300 -0.0874  1.4974
 3930TIP3    H233350   1.860   0.202   8.076 -0.6108 -0.1479  0.2345
 3931TIP3   OH233351   6.425   0.931   0.887  0.9707  0.2469 -0.6987
 3931TIP3    H133352   6.520   0.925   0.901  1.3582  1.5135 -2.4021
 3931TIP3    H233353   6.413   1.017   0.846 -1.4291  1.9580  3.0886
 3932TIP3   OH233354   2.693   0.629   2.315  0.2767 -0.3511  0.3936
 3932TIP3    H133355   2.601   0.606   2.314  0.5514 -1.4710 -0.0018
 3932TIP3    H233356   2.715   0.636   2.408  0.0548 -1.1982  0.5147
 3933TIP3   OH233357   6.128   6.613   1.245  0.0016  0.1435  0.0751
 3933TIP3    H133358   6.170   6.699   1.251 -0.6053  0.4840 -0.3897
 3933TIP3    H233359   6.199   6.553   1.219  0.6374  0.3127  1.3317
 3934TIP3   OH233360   0.690   2.990   7.381 -0.4514  0.2322 -0.6244
 3934TIP3    H133361   0.640   3.059   7.425 -0.9055 -0.5572  0.1162
 3934TIP3    H233362   0.742   2.950   7.450  0.5417  0.4405 -1.2257
 3935TIP3   OH233363   3.813   5.607   8.428  0.6815 -0.2643  0.5938
 3935TIP3    H133364   3.883   5.546   8.405  0.3013 -0.1577 -0.9347
 3935TIP3    H233365   3.778   5.637   8.344  0.1937  1.3038  1.3117
 3936TIP3   OH233366   6.696   4.269   0.793  0.4858  0.4638 -0.2751
 3936TIP3    H133367   6.789   4.252   0.778  0.1904 -1.6725  0.0169
 3936TIP3    H233368   6.651   4.217   0.727 -0.5269  1.2703 -0.2434
 3937TIP3   OH233369   3.354   6.225   8.081  0.4200 -0.4312  0.2004
 3937TIP3    H133370   3.348   6.238   8.176 -0.6809  2.0550 -0.1431
 3937TIP3    H233371   3.408   6.298   8.050 -2.1280  0.8897 -1.4338
 3938TIP3   OH233372   3.231   2.953   8.307 -0.6073  0.7907 -0.1449
 3938TIP3    H133373   3.252   2.873   8.356 -1.2871  0.8529  0.2678
 3938TIP3    H233374   3.135   2.953   8.302 -0.5812  1.2588 -0.6884
 3939TIP3   OH233375   3.986   3.096   0.971  0.4164  0.3504 -0.1838
 3939TIP3    H133376   4.058   3.119   1.031 -1.7106  0.0931  2.6644
 3939TIP3    H233377   3.922   3.165   0.982 -1.6164 -1.5454  0.6767
 3940TIP3   OH233378   5.859   2.362   3.628 -0.6333 -0.3941  0.2069
 3940TIP3    H133379   5.826   2.451   3.620 -2.9817 -0.8764  2.8910
 3940TIP3    H233380   5.789   2.307   3.592 -0.2902 -1.2368  0.7977
 3941TIP3   OH233381   6.231   1.362   8.059  0.2424 -0.5465  0.2863
 3941TIP3    H133382   6.255   1.440   8.009  0.0563 -0.8348 -0.2606
 3941TIP3    H233383   6.230   1.291   7.994 -0.4752 -0.8377  0.5992
 3942TIP3   OH233384   5.735   6.809   7.940  0.4332 -0.9985 -1.0861
 3942TIP3    H133385   5.753   6.753   7.864  0.5169 -1.8150 -0.4819
 3942TIP3    H233386   5.640   6.821   7.939  0.6329  1.0130 -2.6866
 3943TIP3   OH233387   1.009   5.461   1.763 -0.7907  0.4207  0.5130
 3943TIP3    H133388   1.028   5.430   1.675 -3.0861 -0.0478  0.1334
 3943TIP3    H233389   1.032   5.387   1.820  0.4323  0.6251  0.3115
 3944TIP3   OH233390   5.836   3.689   2.123 -0.1306 -0.0761  0.7876
 3944TIP3    H133391   5.846   3.691   2.028 -1.4724  0.0260  0.6339
 3944TIP3    H233392   5.895   3.619   2.152 -0.6887 -1.0088 -0.2599
 3945TIP3   OH233393   1.052   6.761   0.577 -0.0454  0.1482 -0.4317
 3945TIP3    H133394   1.078   6.670   0.564  0.2821 -0.1867  1.9983
 3945TIP3    H233395   1.134   6.810   0.580 -0.0236  0.0765  0.8773
 3946TIP3   OH233396   2.178   3.172   2.248  0.2391 -0.3868  0.0417
 3946TIP3    H133397   2.194   3.195   2.339  0.7670  0.0972 -0.1629
 3946TIP3    H233398   2.262   3.135   2.218  0.5190  0.7483 -0.6303
 3947TIP3   OH233399   5.605   5.119   8.267 -0.0957  0.1029  0.2219
 3947TIP3    H133400   5.630   5.160   8.184  0.8334  1.1813  1.0023
 3947TIP3    H233401   5.596   5.026   8.246  0.1454  0.3492 -1.0825
 3948TIP3   OH233402   6.308   3.942   0.183 -0.5345 -0.3514 -0.3220
 3948TIP3    H133403   6.218   3.908   0.183 -1.0220  0.8934  0.4175
 3948TIP3    H233404   6.336   3.935   0.092 -1.6626 -0.0253 -0.7065
 3949TIP3   OH233405   3.303   5.425   2.036  0.2415  0.0823 -0.2262
 3949TIP3    H133406   3.379   5.448   2.090 -1.3420  0.7095  1.8567
 3949TIP3    H233407   3.316   5.333   2.013  1.6127  0.1864  0.0706
 3950TIP3   OH233408   3.212   4.843   7.722 -0.4963 -0.8378  0.2716
 3950TIP3    H133409   3.156   4.893   7.664  1.3829  0.8102 -0.2700
 3950TIP3    H233410   3.195   4.752   7.701 -0.3252 -0.3146 -2.4719
 3951TIP3   OH233411   6.232   5.606   1.557  0.2392  0.6688  0.0521
 3951TIP3    H133412   6.325   5.626   1.543  0.1695 -0.0688 -1.7262
 3951TIP3    H233413   6.185   5.682   1.523  0.1627  0.6375  0.0885
 3952TIP3   OH233414   3.069   5.954   0.004  0.3267 -0.2197 -0.1676
 3952TIP3    H133415   3.126   5.878  -0.011  0.3790 -0.2718  0.3055
 3952TIP3    H233416   3.117   6.008   0.067 -1.0308 -1.2391  1.8357
 3953TIP3   OH233417   3.975   3.680   0.447 -0.4132  0.3945  0.3944
 3953TIP3    H133418   3.919   3.629   0.389  0.2850  0.9048 -0.7664
 3953TIP3    H233419   3.981   3.628   0.527 -1.4467 -0.2931  0.0478
 3954TIP3   OH233420   5.873   0.018   0.807 -0.3060 -0.1655  0.5034
 3954TIP3    H133421   5.902   0.003   0.717 -1.1379 -1.0751  0.3732
 3954TIP3    H233422   5.777   0.015   0.803 -0.3392 -1.4514  1.6106
 3955TIP3   OH233423   5.622   0.314   2.160 -0.4387 -0.3052 -0.7811
 3955TIP3    H133424   5.586   0.315   2.071  0.1068 -1.1878 -1.0350
 3955TIP3    H233425   5.594   0.230   2.196  0.2273 -0.4160 -0.5027
 3956TIP3   OH233426   5.980   6.733   3.026  0.5868  0.3162  0.1426
 3956TIP3    H133427   6.052   6.730   2.963 -0.4981 -0.1285 -1.1250
 3956TIP3    H233428   5.987   6.650   3.074 -0.1286 -0.5789 -1.2311
 3957TIP3   OH233429   4.438   2.718   3.210  0.2967 -0.2458  0.5147
 3957TIP3    H133430   4.397   2.788   3.261 -2.2898  0.2033 -1.9019
 3957TIP3    H233431   4.502   2.679   3.269 -2.1560  0.4551  3.8950
 3958TIP3   OH233432   4.457   5.873   7.691  0.2489  0.3620  0.4725
 3958TIP3    H133433   4.493   5.961   7.681 -1.4166  1.0300 -0.0152
 3958TIP3    H233434   4.435   5.866   7.784  2.5833 -0.4867  1.0285
 3959TIP3   OH233435   6.458   1.063   2.715  0.2322 -1.0714  0.1592
 3959TIP3    H133436   6.370   1.047   2.682  0.6653 -0.7862 -1.2265
 3959TIP3    H233437   6.445   1.114   2.795 -0.8622 -1.0799  0.0071
 3960TIP3   OH233438   2.177   5.200   0.815  0.3766  0.0806  0.8367
 3960TIP3    H133439   2.093   5.187   0.857 -0.4307  0.5121 -0.5839
 3960TIP3    H233440   2.220   5.114   0.820 -0.6034 -0.4400  0.6198
 3961TIP3   OH233441   0.027   5.779   2.304  0.2668 -0.2747 -0.3323
 3961TIP3    H133442  -0.009   5.846   2.361 -0.0955 -0.0053 -0.8708
 3961TIP3    H233443  -0.042   5.713   2.297 -0.1849  0.2818 -1.4333
 3962TIP3   OH233444   5.413   5.900   3.054  0.4272  0.7706 -0.2261
 3962TIP3    H133445   5.358   5.822   3.042  0.6362  0.8075 -1.6050
 3962TIP3    H233446   5.460   5.884   3.136  0.6167 -0.6476 -0.5896
 3963TIP3   OH233447   2.008   2.207   2.255  0.1945 -0.3066 -0.1065
 3963TIP3    H133448   2.037   2.296   2.237 -0.3670 -0.2716 -0.8737
 3963TIP3    H233449   1.995   2.204   2.350  1.9894 -0.1158  0.1709
 3964TIP3   OH233450   0.156   5.333   8.194  0.2024 -0.8125 -0.6174
 3964TIP3    H133451   0.112   5.408   8.155 -1.2972 -1.2563  0.1609
 3964TIP3    H233452   0.185   5.280   8.119  1.7366  0.7320 -1.1954
 3965TIP3   OH233453   2.183   4.134   2.683 -0.4516  0.0075 -0.0256
 3965TIP3    H133454   2.125   4.208   2.698  1.0817  0.9939  1.5461
 3965TIP3    H233455   2.126   4.063   2.653 -2.0874  1.5524 -0.7171
 3966TIP3   OH233456   6.132   2.972   1.371 -0.3807 -0.3044 -0.1454
 3966TIP3    H133457   6.140   3.037   1.441 -1.0578 -1.0782  0.6639
 3966TIP3    H233458   6.039   2.952   1.367  0.0125 -2.6021  0.8919
 3967TIP3   OH233459   3.115   0.351   1.296 -0.1982  0.6009  0.3747
 3967TIP3    H133460   3.124   0.444   1.275  0.9651  0.5302  0.5356
 3967TIP3    H233461   3.200   0.325   1.330  0.0621 -0.9378 -1.2670
 3968TIP3   OH233462   2.472   4.019   2.150 -0.5379 -0.7336  0.6475
 3968TIP3    H133463   2.556   3.995   2.110 -1.3951 -0.5754 -1.3697
 3968TIP3    H233464   2.453   3.947   2.209  0.1871 -1.6502 -0.1973
 3969TIP3   OH233465   5.395   6.398   7.623  0.0093  0.5197  0.2174
 3969TIP3    H133466   5.440   6.462   7.568  0.8747 -0.8853 -0.7973
 3969TIP3    H233467   5.353   6.338   7.561 -1.8071  0.7593  1.1447
 3970TIP3   OH233468   3.899   2.795   0.615  0.4296 -0.7009 -0.7051
 3970TIP3    H133469   3.825   2.737   0.595 -1.8720  1.8090  0.0297
 3970TIP3    H233470   3.877   2.877   0.572  3.0270  0.0417 -0.7485
 3971TIP3   OH233471   1.872   2.600   1.702 -1.0108  0.1908  0.4565
 3971TIP3    H133472   1.778   2.618   1.703 -0.9540  0.4669  1.0588
 3971TIP3    H233473   1.902   2.634   1.618 -1.7095 -1.2807 -0.4180
 3972TIP3   OH233474   0.744   1.305   7.916  0.1561  0.0983  0.7359
 3972TIP3    H133475   0.726   1.334   8.005  1.6895 -0.5326  1.2768
 3972TIP3    H233476   0.820   1.247   7.924  0.9150  0.7637 -1.1016
 3973TIP3   OH233477   0.135   0.239   2.053  0.2045  0.7080  0.1254
 3973TIP3    H133478   0.192   0.289   1.994  1.3195 -0.4255  0.2070
 3973TIP3    H233479   0.140   0.149   2.021  2.3749 -0.3534  3.0170
 3974TIP3   OH233480   5.269   6.188   2.821 -0.3758  0.2683 -0.1868
 3974TIP3    H133481   5.254   6.244   2.897  0.4589  0.6205 -0.2658
 3974TIP3    H233482   5.220   6.108   2.840 -0.8494  0.6728  0.3397
 3975TIP3   OH233483   5.053   6.105   2.069  0.1497 -0.2196 -0.0309
 3975TIP3    H133484   5.113   6.172   2.035  2.2360 -1.3995  1.1693
 3975TIP3    H233485   5.058   6.115   2.164 -1.5390 -0.4217  0.1090
 3976TIP3   OH233486   1.827   5.039   8.210 -0.0127 -0.2837 -0.2656
 3976TIP3    H133487   1.905   5.080   8.247  0.3497  0.2758 -1.5925
 3976TIP3    H233488   1.850   5.020   8.119 -0.9293 -1.4596 -0.2756
 3977TIP3   OH233489   0.272   1.181   2.372  0.9972 -0.0150  0.4501
 3977TIP3    H133490   0.259   1.269   2.337  0.3462 -0.2516  0.0766
 3977TIP3    H233491   0.262   1.123   2.296  1.8094 -0.3890  0.6193
 3978TIP3   OH233492   5.358   3.483   0.739 -0.0735  0.1715 -0.3367
 3978TIP3    H133493   5.358   3.570   0.698 -1.7959  0.0793 -0.5939
 3978TIP3    H233494   5.276   3.478   0.787  0.2957 -1.0868  0.2187
 3979TIP3   OH233495   1.950   2.671   1.441  0.2245  0.3240  0.0940
 3979TIP3    H133496   1.909   2.757   1.450  1.2879  0.6616  2.3917
 3979TIP3    H233497   2.030   2.688   1.391  0.8563  0.8846  1.2350
 3980TIP3   OH233498   3.168   2.281   1.585  0.2476  0.0385  0.0022
 3980TIP3    H133499   3.083   2.314   1.558  0.4258  0.7141  0.2241
 3980TIP3    H233500   3.182   2.319   1.672  0.8462  0.0943 -0.1081
 3981TIP3   OH233501   0.762   6.240   2.555  0.4036  0.3283 -0.0132
 3981TIP3    H133502   0.804   6.325   2.547 -0.6158  1.1623  2.4750
 3981TIP3    H233503   0.827   6.185   2.600 -0.8224  1.5264  3.5437
 3982TIP3   OH233504   6.450   1.409   8.583  0.2686  0.4826 -0.0289
 3982TIP3    H133505   6.391   1.396   8.509  0.7177  2.2804 -0.7602
 3982TIP3    H233506   6.537   1.394   8.547  0.3557 -1.3964  0.8587
 3983TIP3   OH233507   0.967   3.388   8.642  0.3556 -0.6157  0.1588
 3983TIP3    H133508   0.945   3.462   8.586 -0.6880 -1.8516 -1.1553
 3983TIP3    H233509   0.885   3.367   8.687  0.9287 -0.2802  1.4020
 3984TIP3   OH233510   6.228   4.668   8.563  0.9052  0.3013  0.0519
 3984TIP3    H133511   6.215   4.740   8.624  1.3649  0.7883 -0.4111
 3984TIP3    H233512   6.154   4.609   8.579  0.2469  1.1222  0.0870
 3985TIP3   OH233513   4.482   5.317   2.325  0.0537 -0.0686  0.0071
 3985TIP3    H133514   4.560   5.368   2.347  0.9159 -1.3217 -0.0396
 3985TIP3    H233515   4.516   5.230   2.304 -1.2930 -0.4223 -0.7738
 3986TIP3   OH233516   5.359   0.550   2.631  0.5653  0.1958  0.2065
 3986TIP3    H133517   5.347   0.644   2.615  3.1497  0.0883 -3.4939
 3986TIP3    H233518   5.320   0.507   2.555  1.4992 -1.5476  0.6538
 3987TIP3   OH233519   1.058   3.948   7.853 -0.3997  0.7428  0.0462
 3987TIP3    H133520   1.103   3.889   7.914 -0.4071 -0.7322 -1.3200
 3987TIP3    H233521   0.966   3.942   7.878 -0.6648 -1.2929 -1.1822
 3988TIP3   OH233522   0.626   4.781   0.982 -0.8884 -0.5959 -0.6460
 3988TIP3    H133523   0.602   4.751   0.895  0.4004  1.2415 -1.6853
 3988TIP3    H233524   0.719   4.759   0.990 -1.2058 -1.6237  0.6879
 3989TIP3   OH233525   0.099   1.188   7.292  0.3384  0.2885 -0.4549
 3989TIP3    H133526   0.082   1.272   7.335  0.8728  0.4562 -0.5728
 3989TIP3    H233527   0.069   1.123   7.356  1.6361  0.5143  0.4363
 3990TIP3   OH233528   6.227   5.916   1.078  1.3880  0.2463 -0.3479
 3990TIP3    H133529   6.284   5.979   1.034  0.5063  2.2947  1.2779
 3990TIP3    H233530   6.159   5.896   1.013  2.0637  0.3962 -1.1256
 3991TIP3   OH233531   3.560   4.750   1.974 -0.1482 -0.3275  0.2057
 3991TIP3    H133532   3.582   4.700   1.897 -1.0572 -2.2384  1.1264
 3991TIP3    H233533   3.476   4.714   2.004  1.3813 -1.5520  3.5505
 3992TIP3   OH233534   5.605   2.821   7.674  0.0953  0.2035 -0.5554
 3992TIP3    H133535   5.539   2.773   7.624 -1.3475  2.4484 -0.9086
 3992TIP3    H233536   5.660   2.862   7.608 -0.4601  1.3633 -0.3225
 3993TIP3   OH233537   0.368   1.951   1.756 -0.0567 -0.0794  0.2646
 3993TIP3    H133538   0.326   2.029   1.720  0.1149 -0.8227 -1.6051
 3993TIP3    H233539   0.460   1.976   1.765 -0.0934  0.0997  0.1519
 3994TIP3   OH233540   2.179   5.259   1.723  0.3209  0.1071  0.6280
 3994TIP3    H133541   2.268   5.229   1.707  0.4761  1.2093 -0.7793
 3994TIP3    H233542   2.136   5.254   1.637 -0.4290  1.2699  0.9097
 3995TIP3   OH233543   4.604   3.625   0.972 -0.6221  0.4090 -1.1042
 3995TIP3    H133544   4.524   3.664   0.936  0.0850  0.0949 -3.1308
 3995TIP3    H233545   4.578   3.595   1.059 -2.7148  0.2745 -1.7061
 3996TIP3   OH233546   3.994   2.055   3.398 -0.2987 -0.3595  0.3928
 3996TIP3    H133547   4.055   1.982   3.390 -0.0733 -0.2721  1.2000
 3996TIP3    H233548   3.912   2.021   3.362  0.0043 -0.7449  0.0431
 3997TIP3   OH233549   5.099   1.648   3.214 -0.1219  0.1312 -0.1751
 3997TIP3    H133550   5.148   1.690   3.143  0.4766 -0.5894 -0.1980
 3997TIP3    H233551   5.009   1.648   3.183  0.0862  0.0916 -0.8089
 3998TIP3   OH233552   4.547   6.409   8.708 -0.2486  0.1472 -0.4327
 3998TIP3    H133553   4.603   6.415   8.630  1.4538  0.5827  0.7645
 3998TIP3    H233554   4.608   6.400   8.780 -1.8428 -2.4006  0.7064
 3999TIP3   OH233555   1.016   3.537   1.627 -0.2938  0.5235 -0.3758
 3999TIP3    H133556   1.046   3.607   1.685 -1.4464 -0.9143  2.0997
 3999TIP3    H233557   1.088   3.525   1.565  0.8399  2.4004  0.4925
 4000TIP3   OH233558   0.279   2.158   0.537  0.1673  0.3301 -0.1548
 4000TIP3    H133559   0.188   2.188   0.536  0.0815  0.1035 -1.1704
 4000TIP3    H233560   0.320   2.205   0.465  0.1155 -1.6504 -1.5818
 4001TIP3   OH233561   3.635   2.395   8.043  0.4699 -0.1512  0.2150
 4001TIP3    H133562   3.592   2.340   7.978 -1.4134  0.5145  0.8049
 4001TIP3    H233563   3.604   2.483   8.024 -0.5297  0.0008  2.2464
 4002TIP3   OH233564   1.015   6.240   2.873 -0.2754 -0.7850 -0.4618
 4002TIP3    H133565   1.047   6.257   2.784  0.1547 -0.8722 -0.3279
 4002TIP3    H233566   1.044   6.317   2.923 -1.0653 -0.4335 -0.5288
 4003TIP3   OH233567   5.671   6.237   1.854 -0.3334  0.1061 -0.2415
 4003TIP3    H133568   5.700   6.274   1.771 -0.6520  0.1577 -0.3310
 4003TIP3    H233569   5.676   6.142   1.841  0.9092  0.1088  0.1376
 4004TIP3   OH233570   0.714   5.904   0.613 -0.7404  0.0154  0.3497
 4004TIP3    H133571   0.685   5.995   0.611 -1.5126 -0.2260  0.1157
 4004TIP3    H233572   0.654   5.858   0.554 -0.2987 -0.6278  0.3875
 4005TIP3   OH233573   2.452   1.538   3.393 -0.2290  0.4769  0.0603
 4005TIP3    H133574   2.537   1.496   3.381 -1.0328 -1.2044 -0.0260
 4005TIP3    H233575   2.449   1.606   3.325  0.7941  0.1493 -0.3197
 4006TIP3   OH233576   6.265   2.649   8.427  0.3036  0.2542 -0.1266
 4006TIP3    H133577   6.240   2.676   8.516 -1.9781  1.8057 -1.1525
 4006TIP3    H233578   6.348   2.693   8.411  0.7622 -0.0697  1.2296
 4007TIP3   OH233579   2.775   2.126   2.691 -0.3273 -0.9615 -0.4364
 4007TIP3    H133580   2.852   2.133   2.635  0.7496 -1.5453  0.9135
 4007TIP3    H233581   2.742   2.215   2.698  1.4193 -0.3604  0.5588
 4008TIP3   OH233582   0.514   3.687   8.073  0.4908 -0.3146  0.2656
 4008TIP3    H133583   0.517   3.680   7.978 -2.6969  0.4423 -0.0058
 4008TIP3    H233584   0.531   3.779   8.091 -0.0950 -0.2146  0.3194
 4009TIP3   OH233585   2.199   0.296   2.720 -0.4504 -0.2358  0.3726
 4009TIP3    H133586   2.129   0.305   2.656 -1.5794 -1.0545  1.4560
 4009TIP3    H233587   2.164   0.336   2.800  0.4908 -0.2678  0.8213
 4010TIP3   OH233588   2.996   1.459   7.634 -0.1577 -0.1149  0.2561
 4010TIP3    H133589   2.901   1.463   7.632 -0.1617 -0.3272 -0.1748
 4010TIP3    H233590   3.016   1.366   7.621  0.1169  0.0218 -0.3445
 4011TIP3   OH233591   4.918   4.256   2.350 -0.3588  0.0729  0.2964
 4011TIP3    H133592   4.900   4.327   2.289 -1.2159 -0.8909 -0.6277
 4011TIP3    H233593   4.998   4.215   2.316 -0.8438 -0.4724 -0.2273
 4012TIP3   OH233594   3.974   5.372   8.357  0.3000 -0.1181 -0.0951
 4012TIP3    H133595   4.040   5.373   8.288  0.1446 -0.2180 -0.2434
 4012TIP3    H233596   3.905   5.315   8.324 -0.8550  1.6429 -0.8607
 4013TIP3   OH233597   6.102   5.252   8.163 -0.2432 -0.0499 -0.0817
 4013TIP3    H133598   6.117   5.330   8.215  2.4843 -0.1751 -0.5317
 4013TIP3    H233599   6.130   5.275   8.075 -0.9762 -1.0489 -0.6082
 4014TIP3   OH233600   2.659   5.906   1.138  0.7074 -0.0640 -0.3267
 4014TIP3    H133601   2.744   5.901   1.094  0.5989 -0.4786 -0.4960
 4014TIP3    H233602   2.679   5.943   1.224  1.0596 -0.1679 -0.3622
 4015TIP3   OH233603   4.895   3.070   0.385  0.6606 -0.1349 -0.1059
 4015TIP3    H133604   4.959   3.015   0.341  0.7848 -0.7746  0.8333
 4015TIP3    H233605   4.907   3.157   0.348  1.8527 -0.3155 -0.1591
 4016TIP3   OH233606   0.030   3.244   8.668 -0.4599 -0.3825 -0.2238
 4016TIP3    H133607   0.092   3.170   8.665  0.3062  0.2533 -0.5232
 4016TIP3    H233608   0.007   3.253   8.760 -1.6500 -1.8626 -0.3279
 4017TIP3   OH233609   1.603   1.466   0.413  0.3592 -0.0700 -0.0478
 4017TIP3    H133610   1.546   1.481   0.488  1.7572  2.7415  0.6054
 4017TIP3    H233611   1.663   1.397   0.442 -2.7718 -3.5342 -0.9569
 4018TIP3   OH233612   0.203   5.162   1.158  0.2652  0.3387 -0.0111
 4018TIP3    H133613   0.213   5.072   1.189 -1.8273  0.1553  0.2560
 4018TIP3    H233614   0.219   5.216   1.236 -2.8746 -0.0431  1.0400
 4019TIP3   OH233615   6.117   0.108   1.498  0.0515 -0.1169  0.3530
 4019TIP3    H133616   6.198   0.145   1.532  0.1975  0.6375 -0.7805
 4019TIP3    H233617   6.142   0.065   1.417 -1.1336  2.9695 -1.8341
 4020TIP3   OH233618   5.134   2.779   8.027  0.2093  0.1680 -0.0980
 4020TIP3    H133619   5.213   2.725   8.016  1.4888  1.6667  1.1026
 4020TIP3    H233620   5.139   2.843   7.957  0.0717  0.2718 -0.0126
 4021TIP3   OH233621   1.922   5.231   2.405  0.0825  0.6017  0.1321
 4021TIP3    H133622   1.997   5.214   2.347 -0.3664 -1.3033  0.0501
 4021TIP3    H233623   1.946   5.311   2.451  2.2443 -0.0063  0.1893
 4022TIP3   OH233624   6.140   3.809   8.377  0.6155 -0.0827  0.1342
 4022TIP3    H133625   6.117   3.826   8.468  1.2454  0.4710  0.1928
 4022TIP3    H233626   6.059   3.778   8.337  0.8055 -2.5177  1.4091
 4023TIP3   OH233627   3.439   6.802   0.884  0.0266  0.1926 -0.8739
 4023TIP3    H133628   3.472   6.730   0.831 -1.5095 -1.3721  0.1705
 4023TIP3    H233629   3.372   6.762   0.940  0.1102  2.1569  0.7633
 4024TIP3   OH233630   4.808   0.131   7.938  0.4627  0.3434  0.4989
 4024TIP3    H133631   4.797   0.191   7.864  2.1092  0.1617  0.0663
 4024TIP3    H233632   4.888   0.161   7.982  0.1447 -0.2601  1.5257
 4025TIP3   OH233633   1.181   2.491   1.548  0.0307  0.9100 -0.1125
 4025TIP3    H133634   1.254   2.479   1.487  1.9648  0.1633  2.2378
 4025TIP3    H233635   1.165   2.586   1.547 -0.8466  0.8188 -2.6289
 4026TIP3   OH233636   1.554   3.147   1.798 -0.7823 -0.0724 -0.4315
 4026TIP3    H133637   1.477   3.106   1.837 -0.8697 -2.7941 -3.1229
 4026TIP3    H233638   1.623   3.081   1.808  0.0218  0.5109 -1.9055
 4027TIP3   OH233639   1.929   3.446   2.394 -0.4367  0.9110 -0.6291
 4027TIP3    H133640   1.861   3.383   2.417 -0.9687  1.4510 -0.7069
 4027TIP3    H233641   1.883   3.514   2.345 -0.1379  2.0732  0.6422
 4028TIP3   OH233642   2.181   3.459   0.476 -0.4195 -0.3183 -0.0049
 4028TIP3    H133643   2.104   3.429   0.523  0.6531 -0.6279  1.6539
 4028TIP3    H233644   2.197   3.547   0.510 -0.7145  0.2183 -1.2186
 4029TIP3   OH233645   0.998   2.722   0.469 -0.5287  0.8977  0.3524
 4029TIP3    H133646   0.926   2.659   0.472  0.7920 -0.6300  1.0252
 4029TIP3    H233647   1.019   2.730   0.376 -0.2778 -0.1741  0.3064
 4030TIP3   OH233648   3.448   6.512   0.924  0.4055 -0.2988  0.7436
 4030TIP3    H133649   3.523   6.533   0.869 -0.7258  0.9056 -0.3978
 4030TIP3    H233650   3.480   6.443   0.983  2.0170 -0.7306 -0.5612
 4031TIP3   OH233651   6.826   1.513   8.153 -0.1919  0.8758  0.2194
 4031TIP3    H133652   6.832   1.608   8.149 -0.7190  0.8794 -1.0699
 4031TIP3    H233653   6.878   1.483   8.078  1.0775  0.0651  1.3588
 4032TIP3   OH233654   5.170   5.900   0.827 -0.4442  0.2377 -0.1943
 4032TIP3    H133655   5.234   5.878   0.759  0.2566 -2.1888  1.1177
 4032TIP3    H233656   5.221   5.949   0.892  0.4476 -2.5077  1.3052
 4033TIP3   OH233657   3.310   5.096   8.238  0.1883 -0.0041 -0.0917
 4033TIP3    H133658   3.356   5.179   8.226 -0.8177  0.9681  2.0860
 4033TIP3    H233659   3.372   5.040   8.284  0.2435  0.2293  0.1211
 4034TIP3   OH233660   3.723   5.680   1.997  0.0879  0.9715  0.0746
 4034TIP3    H133661   3.705   5.734   2.074 -0.6012  0.0446  0.5816
 4034TIP3    H233662   3.757   5.741   1.932  2.8446  1.4753  1.8149
 4035TIP3   OH233663   6.436   4.173   3.599  0.0499  0.0917  0.4384
 4035TIP3    H133664   6.481   4.088   3.597  1.6117  0.8387  1.4024
 4035TIP3    H233665   6.387   4.172   3.681 -3.3661 -1.4468 -1.4395
 4036TIP3   OH233666   0.980   0.524   8.582  0.4099 -0.2395 -0.4728
 4036TIP3    H133667   0.936   0.464   8.642  0.2452  0.3450 -0.0037
 4036TIP3    H233668   1.053   0.560   8.633  0.3470  0.1607 -0.6636
 4037TIP3   OH233669   4.265   2.595   3.533  0.6034 -0.2733  0.2010
 4037TIP3    H133670   4.194   2.641   3.577  0.0129 -1.0111  0.0418
 4037TIP3    H233671   4.319   2.664   3.495 -0.9792  0.2714 -1.1485
 4038TIP3   OH233672   1.641   6.651   2.055 -0.3558  0.0229 -0.3286
 4038TIP3    H133673   1.552   6.677   2.078 -0.3522  1.1640 -1.4886
 4038TIP3    H233674   1.692   6.667   2.134 -0.9045  0.8670 -0.1325
 4039TIP3   OH233675   2.378   6.053   8.693  0.2318  0.7244 -0.1053
 4039TIP3    H133676   2.413   6.054   8.604 -1.2422 -1.2126 -0.7813
 4039TIP3    H233677   2.452   6.026   8.748  0.6970  0.0963 -1.0193
 4040TIP3   OH233678   2.297   0.221   7.184 -0.4223  0.3344  0.4224
 4040TIP3    H133679   2.327   0.131   7.169  0.3028  0.4287  1.2628
 4040TIP3    H233680   2.251   0.218   7.268  0.9557  1.0513  1.2265
 4041TIP3   OH233681   5.615   6.609   1.643  0.5970  0.1109  0.5365
 4041TIP3    H133682   5.522   6.615   1.663  0.3810  2.7209 -0.8924
 4041TIP3    H233683   5.619   6.592   1.549  1.5364  0.9022  0.4175
 4042TIP3   OH233684   5.420   0.989   2.249  0.6874  0.4965  0.1059
 4042TIP3    H133685   5.414   1.068   2.303 -4.3206  1.3594 -1.1850
 4042TIP3    H233686   5.459   1.019   2.167  1.8418  0.8057  0.7519
 4043TIP3   OH233687   2.463   4.520   2.851  0.2883  0.6135  0.1628
 4043TIP3    H133688   2.384   4.499   2.800  0.4158 -0.1593  0.2749
 4043TIP3    H233689   2.430   4.547   2.936  0.1335  0.3707  0.1820
 4044TIP3   OH233690   3.599   1.041   1.876 -0.2773  0.0528  0.0432
 4044TIP3    H133691   3.572   1.109   1.937 -0.6472 -0.8700  0.9390
 4044TIP3    H233692   3.584   0.959   1.923  0.7416 -0.6332 -0.7737
 4045TIP3   OH233693   4.660   5.104   2.293 -0.2333 -0.1899  0.3292
 4045TIP3    H133694   4.746   5.140   2.273 -0.8804  1.6021  0.6690
 4045TIP3    H233695   4.659   5.093   2.388 -0.0811 -1.0690  0.2426
 4046TIP3   OH233696   2.397   1.016   3.378 -0.4355  0.2565  0.0417
 4046TIP3    H133697   2.473   0.968   3.346 -1.0895 -0.8483  0.0985
 4046TIP3    H233698   2.434   1.079   3.440  0.4013 -0.5771  0.4267
 4047TIP3   OH233699   4.062   2.029   0.320  0.2459 -0.1543  0.3248
 4047TIP3    H133700   4.063   2.033   0.225  1.5199 -0.8981  0.2912
 4047TIP3    H233701   4.046   2.119   0.348 -0.2507  0.0484 -0.5822
 4048TIP3   OH233702   2.753   1.149   2.025  0.0425  0.8241  0.4233
 4048TIP3    H133703   2.661   1.138   2.001  0.4354 -0.4212 -0.6333
 4048TIP3    H233704   2.795   1.067   1.999  1.8311  2.0928 -1.0021
 4049TIP3   OH233705   6.633   1.495   1.031  0.1679  0.0267 -0.6513
 4049TIP3    H133706   6.582   1.574   1.013 -0.7149 -0.3892 -0.0734
 4049TIP3    H233707   6.568   1.433   1.064  0.6333 -1.3353 -2.1976
 4050TIP3   OH233708   2.157   1.425   1.875  0.6070  0.5032  0.3303
 4050TIP3    H133709   2.192   1.345   1.834  0.3784  0.2070  0.7053
 4050TIP3    H233710   2.066   1.428   1.845  1.3168  2.1106 -1.9203
 4051TIP3   OH233711   5.147   4.409   0.865  0.3100 -0.0720 -0.1710
 4051TIP3    H133712   5.064   4.453   0.847 -0.0008 -0.4372  0.3295
 4051TIP3    H233713   5.134   4.367   0.950  0.2205 -1.9502 -1.0540
 4052TIP3   OH233714   6.550   4.248   1.629  0.0352 -0.2037 -0.0623
 4052TIP3    H133715   6.585   4.275   1.544 -0.9090 -0.1428 -0.4341
 4052TIP3    H233716   6.577   4.157   1.638  1.0600  0.0992  0.0640
 4053TIP3   OH233717   3.747   2.386   7.135 -0.3528  0.5005 -0.0427
 4053TIP3    H133718   3.735   2.425   7.221 -0.3589 -0.1127  0.2360
 4053TIP3    H233719   3.842   2.375   7.127 -0.2300  1.7348 -0.6502
 4054TIP3   OH233720   6.202   4.056   2.236 -0.2276 -0.2081 -0.4274
 4054TIP3    H133721   6.203   4.045   2.331  1.3318  0.5833 -0.3220
 4054TIP3    H233722   6.131   4.118   2.220  0.9959  1.5078  0.4821
 4055TIP3   OH233723   1.891   6.353   1.284  0.2414  0.5059  0.2715
 4055TIP3    H133724   1.985   6.342   1.297  0.4369 -0.9586 -1.8306
 4055TIP3    H233725   1.857   6.379   1.369  2.1901 -1.4706  1.7431
 4056TIP3   OH233726   6.596   0.500   7.745 -0.0097 -0.0593  0.1040
 4056TIP3    H133727   6.655   0.522   7.674  2.8460  0.8553  2.5682
 4056TIP3    H233728   6.610   0.407   7.760 -0.7605 -0.2983 -0.5796
 4057TIP3   OH233729   3.932   5.158   1.949  0.3989 -0.3923  0.4841
 4057TIP3    H133730   3.906   5.068   1.966  0.2109 -0.3737  0.2992
 4057TIP3    H233731   4.013   5.169   1.998  0.9139 -0.9418 -0.2213
 4058TIP3   OH233732   2.436   1.153   2.793  0.3884  0.7149  0.2921
 4058TIP3    H133733   2.434   1.244   2.763 -0.2186  0.3729 -0.7555
 4058TIP3    H233734   2.349   1.119   2.771  1.1510 -0.5879 -0.8345
 4059TIP3   OH233735   0.361   6.256   0.297  0.7182  0.4761  0.4575
 4059TIP3    H133736   0.294   6.284   0.235 -0.3089 -0.6023  1.0253
 4059TIP3    H233737   0.444   6.268   0.251  0.3163  3.3597  0.2920
 4060TIP3   OH233738   1.053   2.450   0.293 -0.1684 -0.1054 -0.3756
 4060TIP3    H133739   1.101   2.532   0.284 -0.5333  0.3172  1.2174
 4060TIP3    H233740   0.965   2.469   0.261 -0.1815  0.0552 -0.2459
 4061TIP3   OH233741   4.006   1.851   7.984 -0.1966  0.1405  0.5895
 4061TIP3    H133742   3.963   1.937   7.985 -2.1530 -0.7211 -1.3656
 4061TIP3    H233743   4.091   1.868   7.943 -0.8854  1.0680 -0.5465
 4062TIP3   OH233744   4.423   3.717   2.477 -0.2042 -0.4618  0.3532
 4062TIP3    H133745   4.356   3.762   2.426 -0.9630 -1.9976 -0.0336
 4062TIP3    H233746   4.425   3.764   2.561  0.0667  1.1940 -0.5362
 4063TIP3   OH233747   3.037   6.665   2.021  0.5485  0.4100 -0.4316
 4063TIP3    H133748   3.081   6.676   2.106  0.3683  0.4168 -0.3391
 4063TIP3    H233749   3.108   6.639   1.961  0.8104  1.1463 -0.4496
 4064TIP3   OH233750   5.586   1.935   2.519  0.5472 -0.1518 -0.3666
 4064TIP3    H133751   5.664   1.919   2.572  1.2228  0.4041 -1.1598
 4064TIP3    H233752   5.518   1.882   2.560  1.0855  0.1388  0.9343
 4065TIP3   OH233753   5.957   6.679   2.146  0.5759  0.2495 -0.3061
 4065TIP3    H133754   5.941   6.772   2.160  0.4923  0.4330 -1.5621
 4065TIP3    H233755   5.973   6.670   2.052  3.9154 -0.5385  0.2146
 4066TIP3   OH233756   0.229   0.426   2.494 -0.2356 -0.3428  0.2373
 4066TIP3    H133757   0.246   0.429   2.588 -0.1451  0.7038  0.2038
 4066TIP3    H233758   0.178   0.346   2.481 -0.4279 -0.3885  1.2047
 4067TIP3   OH233759   5.783   5.872   0.086 -0.1969  0.7112  0.8964
 4067TIP3    H133760   5.871   5.835   0.096 -0.0732  0.7455  0.0162
 4067TIP3    H233761   5.792   5.938   0.018 -0.9530  0.5645  0.6425
 4068TIP3   OH233762   0.240   6.528   7.845 -0.2815 -0.3056 -0.4064
 4068TIP3    H133763   0.257   6.621   7.864  1.3124 -0.4373 -1.0293
 4068TIP3    H233764   0.226   6.525   7.751  1.3684 -0.9012 -0.6578
 4069TIP3   OH233765   6.062   5.893   0.657 -0.1028 -0.4711  0.1481
 4069TIP3    H133766   6.047   5.980   0.696  0.0728 -0.1730 -0.4284
 4069TIP3    H233767   6.135   5.907   0.596 -1.0894 -0.6693 -1.1124
 4070TIP3   OH233768   3.991   5.260   8.622 -0.2020 -0.1347  0.0539
 4070TIP3    H133769   4.054   5.312   8.672 -0.0269 -0.2166 -0.0819
 4070TIP3    H233770   4.000   5.291   8.532 -0.3005 -0.2017  0.0201
 4071TIP3   OH233771   2.944   2.378   8.552  0.4052 -0.3595  0.3585
 4071TIP3    H133772   2.942   2.369   8.647  0.2683  0.4183  0.4385
 4071TIP3    H233773   3.020   2.326   8.524  1.4231  0.7167  1.0543
 4072TIP3   OH233774   1.701   4.077   0.784 -0.9189 -0.2424 -0.7127
 4072TIP3    H133775   1.764   4.043   0.720 -0.7049 -0.3955 -0.4231
 4072TIP3    H233776   1.704   4.014   0.856 -0.8051  0.1883 -0.3412
 4073TIP3   OH233777   3.477   0.334   8.641 -0.3002 -0.8171  0.1008
 4073TIP3    H133778   3.534   0.362   8.712  0.1207  0.5606 -0.7310
 4073TIP3    H233779   3.442   0.250   8.669  1.0854 -1.0516  1.2254
 4074TIP3   OH233780   6.177   0.783   0.935 -0.7969 -0.0178  0.0753
 4074TIP3    H133781   6.207   0.722   1.003 -0.7924  0.8089  0.8430
 4074TIP3    H233782   6.258   0.826   0.905 -0.9820  0.9363  0.8790
 4075TIP3   OH233783   0.354   1.127   7.712  0.5472 -0.0845 -0.1538
 4075TIP3    H133784   0.322   1.065   7.777  1.2209 -0.4200 -0.1257
 4075TIP3    H233785   0.371   1.207   7.762 -1.2694  0.4779 -0.3627
 4076TIP3   OH233786   0.287   6.805   7.875 -0.1865  0.5231 -0.3707
 4076TIP3    H133787   0.240   6.818   7.792 -0.5150 -0.1918 -0.3023
 4076TIP3    H233788   0.250   6.871   7.934 -2.1168 -0.8931  0.0918
 4077TIP3   OH233789   2.736   6.739   3.016  0.6120 -0.1412  0.8241
 4077TIP3    H133790   2.716   6.763   3.106 -3.1058  0.4681 -0.0234
 4077TIP3    H233791   2.651   6.734   2.972  2.0855 -2.4620 -2.1940
 4078TIP3   OH233792   0.401   4.867   1.670  0.4784 -0.2929 -0.5509
 4078TIP3    H133793   0.468   4.828   1.615  2.3875  1.2026  0.5888
 4078TIP3    H233794   0.337   4.797   1.684  0.4410 -1.0340 -3.7028
 4079TIP3   OH233795   4.278   5.685   1.295 -0.4718  0.2292 -0.3632
 4079TIP3    H133796   4.353   5.744   1.287 -0.3956  0.0574 -1.0535
 4079TIP3    H233797   4.256   5.685   1.388  0.8631 -0.3071 -0.0223
 4080TIP3   OH233798   5.128   1.339   2.827 -0.2543 -0.1803  0.5325
 4080TIP3    H133799   5.208   1.299   2.861 -1.0141 -0.5705  1.9536
 4080TIP3    H233800   5.085   1.267   2.779 -0.3190 -0.3086  0.7803
 4081TIP3   OH233801   0.618   1.920   1.059  0.1245 -0.2041  0.0566
 4081TIP3    H133802   0.580   1.862   0.993 -1.5653 -0.5700  1.3005
 4081TIP3    H233803   0.704   1.944   1.023 -0.3388 -1.1653 -1.8009
 4082TIP3   OH233804   6.773   0.592   1.600  0.0355 -0.0122 -0.5184
 4082TIP3    H133805   6.743   0.671   1.644 -0.9413 -0.8885  0.4900
 4082TIP3    H233806   6.825   0.546   1.666 -2.0367 -1.6883  0.0826
 4083TIP3   OH233807   4.131   2.049   0.040  0.1108  0.4320 -0.7374
 4083TIP3    H133808   4.222   2.023   0.059 -1.1005 -3.0873  1.2826
 4083TIP3    H233809   4.119   2.030  -0.053  2.0281  3.3715 -1.7065
 4084TIP3   OH233810   4.683   0.267   0.392  0.0080 -0.1112  0.1829
 4084TIP3    H133811   4.691   0.185   0.344  0.2620 -0.1407  0.2725
 4084TIP3    H233812   4.741   0.257   0.467  0.3485  0.3002 -0.0163
 4085TIP3   OH233813   2.320   2.219   0.620  0.3961  0.0319  0.1872
 4085TIP3    H133814   2.339   2.207   0.714 -0.0248  2.3735  0.6178
 4085TIP3    H233815   2.382   2.285   0.591  1.5771 -1.7880 -1.6283
 4086TIP3   OH233816   4.881   4.181   1.473 -0.1076 -0.3237  0.3699
 4086TIP3    H133817   4.892   4.164   1.567  0.4997  1.7110  0.7157
 4086TIP3    H233818   4.843   4.268   1.469 -0.7263 -0.6478 -1.2836
 4087TIP3   OH233819   2.964   5.468   2.057  0.0800  0.0841 -0.0841
 4087TIP3    H133820   3.049   5.496   2.022  0.7315 -0.7317  0.7892
 4087TIP3    H233821   2.903   5.538   2.032  0.9642  0.6001 -0.8724
 4088TIP3   OH233822   3.869   5.582   3.176  0.6792 -0.8411 -0.7293
 4088TIP3    H133823   3.794   5.525   3.196  0.5377 -0.4987 -0.2596
 4088TIP3    H233824   3.858   5.657   3.234  0.2797  0.1871 -2.1048
 4089TIP3   OH233825   4.619   1.667   8.071  0.1103 -0.2698  0.0291
 4089TIP3    H133826   4.597   1.683   7.979 -0.4675 -1.1935 -0.0079
 4089TIP3    H233827   4.691   1.604   8.067 -1.3582 -2.0469  0.1942
 4090TIP3   OH233828   4.734   2.323   2.000 -0.1176 -0.0734 -0.2711
 4090TIP3    H133829   4.703   2.265   1.930 -1.5072 -0.1636  0.3723
 4090TIP3    H233830   4.821   2.290   2.022  1.2385  1.1804 -3.2727
 4091TIP3   OH233831   2.378   1.556   2.465 -0.0707 -0.0581  0.2599
 4091TIP3    H133832   2.296   1.526   2.426  1.2693 -1.4540 -1.7049
 4091TIP3    H233833   2.396   1.640   2.423 -0.5943  0.3508  0.8517
 4092TIP3   OH233834   5.017   1.897   1.440 -0.0551 -0.0305 -0.1204
 4092TIP3    H133835   4.939   1.931   1.395  1.8226  1.8295 -2.2422
 4092TIP3    H233836   4.985   1.821   1.489 -3.7074  2.1905  1.3779
 4093TIP3   OH233837   4.988   4.014   2.090 -0.0172  0.4916  0.0594
 4093TIP3    H133838   5.010   4.064   2.168 -0.3594 -0.6126  0.8870
 4093TIP3    H233839   5.051   4.042   2.024  0.3805  1.3132  0.7833
 4094TIP3   OH233840   1.780   0.454   0.841 -0.0595  0.5647 -0.0354
 4094TIP3    H133841   1.831   0.401   0.903  0.1490  2.3420  1.3882
 4094TIP3    H233842   1.798   0.414   0.755  0.9925 -0.9337  0.8344
 4095TIP3   OH233843   0.297   2.978   0.805 -0.1090  0.4994  0.9855
 4095TIP3    H133844   0.260   2.892   0.784 -0.3057  0.3379  1.9516
 4095TIP3    H233845   0.269   3.034   0.733 -1.2288  0.0924  1.0820
 4096TIP3   OH233846   2.901   3.819   1.523 -0.7129 -0.0700 -0.0926
 4096TIP3    H133847   2.943   3.735   1.542 -0.1553  0.5389  1.6148
 4096TIP3    H233848   2.966   3.866   1.471  0.1002  0.2456  1.1474
 4097TIP3   OH233849   3.648   1.515   2.236  0.1573 -0.1666  0.2638
 4097TIP3    H133850   3.576   1.452   2.241  0.8363 -1.0607 -0.7021
 4097TIP3    H233851   3.652   1.553   2.324 -0.6422 -1.0603  0.7140
 4098TIP3   OH233852   2.068   0.189   2.225  0.3776  0.1958 -0.3135
 4098TIP3    H133853   2.115   0.181   2.142  1.6319  1.2553  0.2842
 4098TIP3    H233854   2.136   0.194   2.292 -0.6089 -1.5181  0.9147
 4099TIP3   OH233855   5.879   5.286   0.986  0.5360  0.1626 -0.3896
 4099TIP3    H133856   5.934   5.358   0.956 -2.8338  4.0609  1.7532
 4099TIP3    H233857   5.845   5.246   0.906  0.6945  2.5426 -1.7290
 4100TIP3   OH233858   6.066   5.833   0.159  0.2990 -0.3594  0.1475
 4100TIP3    H133859   6.060   5.928   0.171  2.4642 -0.0625 -0.6945
 4100TIP3    H233860   6.135   5.821   0.094  0.1698 -2.5372  0.3274
 4101TIP3   OH233861   1.762   3.149   1.087  0.9727  0.2981  0.2872
 4101TIP3    H133862   1.695   3.107   1.033  1.7295  1.5222 -1.7449
 4101TIP3    H233863   1.820   3.077   1.112 -0.2882 -0.5479  0.8809
 4102TIP3   OH233864   0.672   2.495   1.712  0.7926 -0.2816 -0.5072
 4102TIP3    H133865   0.659   2.580   1.670 -1.4722 -0.4050 -0.2084
 4102TIP3    H233866   0.733   2.448   1.655  0.3098  0.7303 -1.9093
 4103TIP3   OH233867   3.498   5.375   0.838 -0.5904  0.5028 -0.5876
 4103TIP3    H133868   3.504   5.337   0.751  0.4961 -2.5860  0.6768
 4103TIP3    H233869   3.583   5.415   0.853 -0.7570  0.9815 -0.9038
 4104TIP3   OH233870   6.058   0.395   1.535  0.3078  0.7079  0.0979
 4104TIP3    H133871   6.114   0.324   1.567  0.8523  1.9690  2.0675
 4104TIP3    H233872   6.109   0.435   1.465  1.1469  0.7876  0.7412
 4105TIP3   OH233873   0.381   3.340   1.648 -0.1407 -0.1962  0.0335
 4105TIP3    H133874   0.400   3.305   1.736 -0.6380  0.1580  0.2845
 4105TIP3    H233875   0.304   3.395   1.660  0.9808  1.5052 -0.2247
 4106TIP3   OH233876   5.657   2.834   2.092  0.7574 -0.0519 -0.6387
 4106TIP3    H133877   5.700   2.758   2.052  0.7567  0.3918 -1.4883
 4106TIP3    H233878   5.713   2.857   2.166  0.3027 -1.4137  0.1779
 4107TIP3   OH233879   0.415   1.154   7.290 -0.3132  0.7082 -0.3366
 4107TIP3    H133880   0.438   1.130   7.200  0.3011 -1.2134  0.2726
 4107TIP3    H233881   0.327   1.118   7.303  1.1101 -2.7091  0.9944
 4108TIP3   OH233882   6.812   3.043   1.968 -0.2098 -0.1874  0.0911
 4108TIP3    H133883   6.789   3.106   2.035 -2.1289 -0.0662 -0.6209
 4108TIP3    H233884   6.867   2.978   2.013 -2.4899 -0.8357  2.1446
 4109TIP3   OH233885   5.840   5.263   0.055 -0.3695 -0.1332 -0.1911
 4109TIP3    H133886   5.763   5.286   0.107 -0.9209  0.0407 -1.0610
 4109TIP3    H233887   5.912   5.310   0.097 -1.0004  0.9221 -0.2431
 4110TIP3   OH233888   0.031   2.367   7.361  0.3769 -0.0940 -0.1071
 4110TIP3    H133889   0.005   2.455   7.390 -1.1451 -1.4851  3.3120
 4110TIP3    H233890  -0.049   2.331   7.322 -0.0226 -0.9698  1.4161
 4111TIP3   OH233891   4.251   2.963   0.738 -0.7495 -0.2429 -0.4059
 4111TIP3    H133892   4.222   2.874   0.758 -1.7607 -0.0773 -1.0380
 4111TIP3    H233893   4.256   3.006   0.823 -1.1938 -0.6387 -0.1706
 4112TIP3   OH233894   3.045   4.881   1.514 -0.1188 -0.0646 -0.4508
 4112TIP3    H133895   3.019   4.828   1.589 -1.3696 -1.7868 -2.0181
 4112TIP3    H233896   3.118   4.833   1.475  0.7371  0.9881 -0.1920
 4113TIP3   OH233897   6.363   4.629   3.268 -0.8814 -0.2481  0.1014
 4113TIP3    H133898   6.401   4.705   3.223  1.1283 -1.6887 -0.7836
 4113TIP3    H233899   6.372   4.649   3.361 -0.6416  0.7060 -0.1178
 4114TIP3   OH233900   6.296   6.134   2.026 -0.0445 -0.3768 -0.6687
 4114TIP3    H133901   6.264   6.135   1.936  1.7375 -0.5853 -1.3464
 4114TIP3    H233902   6.348   6.214   2.035  0.9564 -1.0406 -0.3013
 4115TIP3   OH233903   6.723   4.872   8.078  0.2528 -0.4858  0.4373
 4115TIP3    H133904   6.765   4.804   8.026  0.8111  0.5895 -0.5686
 4115TIP3    H233905   6.651   4.827   8.124  0.0887 -1.5681 -0.8316
 4116TIP3   OH233906   4.466   3.896   0.923  0.6282 -0.8884 -0.0555
 4116TIP3    H133907   4.514   3.956   0.865 -0.5821 -0.5433 -0.7295
 4116TIP3    H233908   4.510   3.905   1.008  2.3273 -1.2782 -0.8470
 4117TIP3   OH233909   1.940   5.005   0.253  0.7911 -0.2181  0.1326
 4117TIP3    H133910   1.910   5.079   0.201  0.1353 -2.1056 -2.3728
 4117TIP3    H233911   1.900   5.018   0.339  1.6405  2.8641  0.2031
 4118TIP3   OH233912   3.391   5.602   6.891 -0.5542 -0.3345 -0.2591
 4118TIP3    H133913   3.335   5.657   6.946  0.8012 -0.2223  1.0974
 4118TIP3    H233914   3.414   5.657   6.816  0.1735  0.7257  0.7054
 4119TIP3   OH233915   4.326   4.561   2.369 -0.7753  0.3293  0.8098
 4119TIP3    H133916   4.342   4.644   2.416 -0.0341 -0.8007  2.6670
 4119TIP3    H233917   4.246   4.527   2.408 -0.6578 -0.2003  0.5885
 4120TIP3   OH233918   3.353   5.199   2.602 -0.7541  0.1342 -0.0084
 4120TIP3    H133919   3.421   5.260   2.574 -0.3783  1.1182  2.7301
 4120TIP3    H233920   3.282   5.254   2.636 -1.6653 -0.9131 -0.1322
 4121TIP3   OH233921   6.573   0.383   8.015 -0.1446  0.0847  0.2383
 4121TIP3    H133922   6.606   0.327   7.945 -0.8467 -0.7175  0.5231
 4121TIP3    H233923   6.528   0.455   7.971  0.1820  0.0597 -0.1314
 4122TIP3   OH233924   1.725   1.559   2.910  0.0607  0.2340 -0.1725
 4122TIP3    H133925   1.820   1.569   2.914  0.0224  0.2451  3.0445
 4122TIP3    H233926   1.708   1.474   2.952 -1.4647  1.7761  2.6198
 4123TIP3   OH233927   1.334   0.733   7.935  0.3471  0.2338 -0.4763
 4123TIP3    H133928   1.395   0.681   7.883  1.6897  1.2691  0.0223
 4123TIP3    H233929   1.282   0.668   7.983  0.1690 -0.6939 -1.8729
 4124TIP3   OH233930   5.024   6.546   7.665 -0.5384  0.3937  0.2560
 4124TIP3    H133931   5.019   6.469   7.608  1.4390  0.6291 -0.3124
 4124TIP3    H233932   4.964   6.609   7.625  0.2869  0.3035 -1.2244
 4125TIP3   OH233933   5.887   0.968   7.911  0.3647 -0.0677  0.2864
 4125TIP3    H133934   5.882   0.886   7.861 -1.9357  0.0576  0.2170
 4125TIP3    H233935   5.919   1.033   7.848 -0.9780 -0.2529 -0.6208
 4126TIP3   OH233936   4.661   4.279   8.137 -0.2321  0.0444  0.9576
 4126TIP3    H133937   4.666   4.310   8.228  0.6108  0.4665  0.7835
 4126TIP3    H233938   4.689   4.187   8.142 -0.3250  0.0269  1.1502
 4127TIP3   OH233939   4.179   1.949   1.741 -0.0170 -0.5907 -0.5144
 4127TIP3    H133940   4.180   1.861   1.705  0.4851 -0.5262 -0.6747
 4127TIP3    H233941   4.272   1.972   1.751 -0.1217 -0.7411  1.1464
 4128TIP3   OH233942   5.793   4.926   1.737  0.2197  0.5420 -0.4062
 4128TIP3    H133943   5.718   4.975   1.704 -0.2016  1.1017  1.2826
 4128TIP3    H233944   5.866   4.950   1.679 -1.0352 -0.6452 -2.5824
 4129TIP3   OH233945   0.648   2.159   1.240 -0.4550  0.0604 -0.0741
 4129TIP3    H133946   0.637   2.079   1.188  1.0180 -0.4380  0.3347
 4129TIP3    H233947   0.559   2.190   1.256 -1.1169 -2.0701  0.6348
 4130TIP3   OH233948   5.257   2.464   0.306  0.2499  0.0645  0.2983
 4130TIP3    H133949   5.179   2.451   0.359 -0.0591 -0.9885 -0.3664
 4130TIP3    H233950   5.297   2.544   0.339 -0.7323  0.2294  1.1096
 4131TIP3   OH233951   0.922   5.768   7.385 -0.2085 -0.6883 -0.1994
 4131TIP3    H133952   0.840   5.814   7.401  0.7660  0.5251  1.5269
 4131TIP3    H233953   0.951   5.799   7.300 -0.1070  1.1208  0.4632
 4132TIP3   OH233954   3.386   3.936   1.568 -0.0643 -0.3003  0.2957
 4132TIP3    H133955   3.409   3.901   1.483  1.2862  1.5993 -0.1917
 4132TIP3    H233956   3.329   3.870   1.607 -0.3096 -1.4395 -1.8533
 4133TIP3   OH233957   1.698   4.192   8.578  0.0072  0.5692  0.1427
 4133TIP3    H133958   1.742   4.139   8.512 -0.9930  0.0517 -0.1231
 4133TIP3    H233959   1.612   4.211   8.541 -0.3657  0.7441  1.0630
 4134TIP3   OH233960   0.189   2.086   7.892 -0.2722  0.1849  0.2944
 4134TIP3    H133961   0.167   2.008   7.943  1.9380 -1.7820 -1.5813
 4134TIP3    H233962   0.228   2.053   7.811  1.0355  3.2273 -0.4762
 4135TIP3   OH233963   5.314   4.044   0.288  0.4447  0.2180 -0.1199
 4135TIP3    H133964   5.362   4.127   0.285  1.6724 -0.4872 -0.7692
 4135TIP3    H233965   5.332   4.003   0.203  0.0189 -0.8044  0.2734
 4136TIP3   OH233966   2.342   4.821   2.137  0.2285 -0.6540 -0.4877
 4136TIP3    H133967   2.312   4.896   2.189 -0.7159  0.0402 -1.9636
 4136TIP3    H233968   2.424   4.794   2.179  0.3197  0.8830  0.3947
 4137TIP3   OH233969   4.834   6.611   8.237  0.5982  0.3706  0.2476
 4137TIP3    H133970   4.869   6.677   8.298  1.2617 -0.4327  0.7576
 4137TIP3    H233971   4.891   6.535   8.248 -1.2609 -0.9937  1.0915
 4138TIP3   OH233972   2.131   4.817   7.903  0.1375 -0.1751 -0.5584
 4138TIP3    H133973   2.151   4.759   7.976  0.6035  1.6699  0.8557
 4138TIP3    H233974   2.208   4.812   7.846 -0.1708 -1.5187 -0.8950
 4139TIP3   OH233975   0.355   6.239   2.230  0.2638  0.3818  0.4133
 4139TIP3    H133976   0.439   6.267   2.268  0.1996  0.2398  0.6616
 4139TIP3    H233977   0.364   6.258   2.137  0.4608  0.6466  0.4838
 4140TIP3   OH233978   4.773   4.140   0.369  0.0996  0.4943 -0.6654
 4140TIP3    H133979   4.798   4.170   0.456  0.1307 -2.1454  0.3362
 4140TIP3    H233980   4.832   4.186   0.310  1.4681  0.8542  0.8926
 4141TIP3   OH233981   5.249   3.195   0.989 -0.1572 -0.5760 -0.2970
 4141TIP3    H133982   5.208   3.279   1.007  0.6437 -0.0981 -0.6165
 4141TIP3    H233983   5.177   3.137   0.964 -0.7406 -0.0407  0.1279
 4142TIP3   OH233984   3.851   2.323   8.598  0.2155 -0.4966 -0.5482
 4142TIP3    H133985   3.846   2.235   8.561 -2.4292 -0.0633 -1.4838
 4142TIP3    H233986   3.817   2.380   8.529  1.1239  1.1785  0.3149
 4143TIP3   OH233987   2.249   0.241   2.410 -0.2131  0.1504 -0.0883
 4143TIP3    H133988   2.304   0.165   2.429  0.0555 -0.8593 -4.0588
 4143TIP3    H233989   2.308   0.316   2.418  0.6521 -0.4936 -0.2573
 4144TIP3   OH233990   3.340   4.033   0.265 -0.2862 -0.3751 -0.2298
 4144TIP3    H133991   3.252   4.031   0.304 -0.5919  1.9569 -0.6007
 4144TIP3    H233992   3.399   4.038   0.339 -0.3765 -2.5648  0.0446
 4145TIP3   OH233993   2.753   0.769   8.626 -0.3033 -0.2752  0.1577
 4145TIP3    H133994   2.755   0.676   8.650  0.6618 -0.6492 -1.2060
 4145TIP3    H233995   2.841   0.787   8.593 -0.6731  0.9457 -0.2226
 4146TIP3   OH233996   0.936   0.730   3.294 -0.5553 -0.7624  0.5197
 4146TIP3    H133997   0.885   0.760   3.219  3.3663  0.1967 -2.0925
 4146TIP3    H233998   0.946   0.636   3.282 -2.2335 -1.1119  1.5260
 4147TIP3   OH233999   1.810   1.342   7.434 -0.3080  0.2952 -0.3836
 4147TIP3    H134000   1.717   1.328   7.454 -0.0445 -0.4794  0.3732
 4147TIP3    H234001   1.824   1.297   7.351 -0.2967 -0.8658  0.2255
 4148TIP3   OH234002   1.978   2.499   0.585  0.3583  0.9153  0.3289
 4148TIP3    H134003   2.002   2.417   0.629  0.1859  0.2371 -0.8127
 4148TIP3    H234004   2.060   2.533   0.552  0.1786  0.1473 -0.9535
 4149TIP3   OH234005   0.416   4.481   1.266  0.4754 -0.5975  0.7589
 4149TIP3    H134006   0.498   4.516   1.302  0.0531 -0.5259  1.6867
 4149TIP3    H234007   0.351   4.498   1.335 -0.1817 -1.2554  0.3106
 4150TIP3   OH234008   0.585   6.052   0.327  0.3915  0.1049 -0.3786
 4150TIP3    H134009   0.572   6.098   0.410 -2.7018 -0.2087 -0.5492
 4150TIP3    H234010   0.578   6.120   0.260 -0.7805 -0.0795 -0.4767
 4151TIP3   OH234011   4.664   0.609   1.074  0.2181  0.6832 -0.1928
 4151TIP3    H134012   4.731   0.591   1.140 -0.8177 -0.3732  0.6169
 4151TIP3    H234013   4.611   0.680   1.111  1.1623  1.8889 -1.0657
 4152TIP3   OH234014   1.037   3.924   1.161 -0.1851 -0.2806  0.2201
 4152TIP3    H134015   1.063   3.842   1.202 -0.8700 -0.1615  0.9317
 4152TIP3    H234016   1.075   3.992   1.217 -0.4612 -0.1132  0.2069
 4153TIP3   OH234017   3.895   2.682   1.001 -0.0556 -0.2945  0.5826
 4153TIP3    H134018   3.823   2.618   1.008 -0.7194 -0.2556 -3.4531
 4153TIP3    H234019   3.851   2.767   1.004  0.2852 -0.1333  1.3323
 4154TIP3   OH234020   6.015   2.611   3.760 -0.6442 -0.1996 -0.1387
 4154TIP3    H134021   6.005   2.597   3.854 -0.3396  2.6613  0.4251
 4154TIP3    H234022   5.925   2.618   3.727 -0.7484  0.0783  0.1955
 4155TIP3   OH234023   1.218   5.983   0.705 -0.1514  0.5042 -0.1539
 4155TIP3    H134024   1.252   6.072   0.714  0.5846  0.1817  0.3069
 4155TIP3    H234025   1.184   5.979   0.616  0.2507  1.0931 -0.3379
 4156TIP3   OH234026   6.518   4.683   1.951 -0.0897  0.3524 -0.7780
 4156TIP3    H134027   6.439   4.636   1.980  0.9269 -0.0910  1.4402
 4156TIP3    H234028   6.531   4.751   2.017  2.1191 -0.4525 -0.2819
 4157TIP3   OH234029   5.371   0.503   7.327 -0.2145  0.4665  0.1828
 4157TIP3    H134030   5.379   0.436   7.259 -0.2454 -0.1958  0.8211
 4157TIP3    H234031   5.306   0.564   7.292  1.3916  1.3670 -1.3519
 4158TIP3   OH234032   5.123   5.046   8.631 -1.0029 -0.3097 -0.4947
 4158TIP3    H134033   5.052   5.053   8.567 -0.7240  0.2640 -0.7473
 4158TIP3    H234034   5.202   5.060   8.579 -0.7745  0.1331 -0.0286
 4159TIP3   OH234035   5.660   1.164   8.478  0.4100  0.2030 -0.2525
 4159TIP3    H134036   5.691   1.152   8.568  0.0274  0.4395 -0.0895
 4159TIP3    H234037   5.705   1.096   8.428 -1.7512 -2.0053  0.6400
 4160TIP3   OH234038   6.114   4.509   8.331 -0.1820 -0.5218  0.3361
 4160TIP3    H134039   6.172   4.453   8.382  1.9186  0.9483 -0.3476
 4160TIP3    H234040   6.155   4.595   8.332 -1.9818  0.4215 -0.7892
 4161TIP3   OH234041   3.079   3.308   1.593 -0.5592 -0.6761 -0.0030
 4161TIP3    H134042   3.128   3.366   1.652 -0.4959  0.7023 -1.3552
 4161TIP3    H234043   2.989   3.309   1.628 -0.5667  0.2781 -0.0341
 4162TIP3   OH234044   2.398   3.064   2.126  0.3163  0.0265 -0.9298
 4162TIP3    H134045   2.490   3.091   2.123  0.3152  0.5104  1.3325
 4162TIP3    H234046   2.397   2.988   2.184 -0.5687 -0.8256 -2.0121
 4163TIP3   OH234047   6.673   6.516   1.826 -0.1774  0.3328 -0.3670
 4163TIP3    H134048   6.667   6.484   1.916 -1.4313  1.3703 -0.0492
 4163TIP3    H234049   6.765   6.538   1.814  0.2641 -1.0787  0.1938
 4164TIP3   OH234050   1.318   5.426   1.906  0.1500  0.2369 -0.0172
 4164TIP3    H134051   1.291   5.501   1.852  0.4947  1.2886  1.2112
 4164TIP3    H234052   1.237   5.394   1.945 -0.1904 -0.9328 -1.6078
 4165TIP3   OH234053   3.053   1.258   1.497 -0.5121  0.5960  0.2558
 4165TIP3    H134054   3.108   1.277   1.573  0.3309  1.0500 -0.4531
 4165TIP3    H234055   2.996   1.334   1.489 -1.2808  0.1151  1.0049
 4166TIP3   OH234056   5.023   1.761   2.394 -0.3061  0.3909 -0.9925
 4166TIP3    H134057   5.024   1.839   2.339 -1.5762  0.1174 -1.4520
 4166TIP3    H234058   4.956   1.705   2.355 -0.8226 -0.0729  0.4728
 4167TIP3   OH234059   2.505   5.566   0.640  0.0109 -0.1846 -0.8150
 4167TIP3    H134060   2.538   5.635   0.699 -1.6239  0.8469 -1.0496
 4167TIP3    H234061   2.421   5.540   0.677  0.3844 -1.7582 -1.0015
 4168TIP3   OH234062   4.934   3.559   8.476  0.1371 -0.0946  0.0248
 4168TIP3    H134063   4.920   3.620   8.548 -0.8347 -0.3013  0.0221
 4168TIP3    H234064   5.007   3.504   8.505 -0.8073 -0.7483  1.2438
 4169TIP3   OH234065   3.958   2.286   0.131 -0.3959 -0.1813  0.1592
 4169TIP3    H134066   4.011   2.207   0.117 -2.1034 -1.7817  2.0932
 4169TIP3    H234067   3.912   2.298   0.048 -1.4446 -2.3372  0.3511
 4170TIP3   OH234068   6.602   4.556   1.474  0.4509 -0.4932  0.5742
 4170TIP3    H134069   6.518   4.556   1.521 -0.2412 -1.8278 -0.5766
 4170TIP3    H234070   6.618   4.464   1.455  0.7940 -0.0397 -1.5905
 4171TIP3   OH234071   3.449   3.427   0.035  0.2990  0.2128  0.0817
 4171TIP3    H134072   3.367   3.470   0.058 -0.5679 -0.4770 -1.5845
 4171TIP3    H234073   3.448   3.423  -0.060  1.3805 -1.5083  0.1084
 4172TIP3   OH234074   5.514   3.595   1.924 -0.4027  0.5150 -0.1618
 4172TIP3    H134075   5.438   3.541   1.944 -0.8037  1.4288  0.8637
 4172TIP3    H234076   5.582   3.564   1.984 -1.5524  3.1332  2.7897
 4173TIP3   OH234077   6.192   5.663   8.148 -0.6767 -0.2637  0.0248
 4173TIP3    H134078   6.159   5.587   8.196 -0.3038 -1.6261 -1.7928
 4173TIP3    H234079   6.121   5.688   8.089 -0.3212 -0.0319 -0.3149
 4174TIP3   OH234080   3.841   6.103   1.262  0.1751 -0.0082  0.1649
 4174TIP3    H134081   3.761   6.104   1.314 -0.8494  2.1385 -1.3026
 4174TIP3    H234082   3.890   6.180   1.292  0.9201 -0.3617 -0.1076
 4175TIP3   OH234083   5.676   2.421   1.220 -0.3300 -0.2571 -0.1692
 4175TIP3    H134084   5.716   2.508   1.216 -2.2692  0.7832  1.1463
 4175TIP3    H234085   5.698   2.388   1.308 -1.1854 -0.2276  0.0718
 4176TIP3   OH234086   5.866   0.624   1.545  0.1118  0.4559 -0.2755
 4176TIP3    H134087   5.899   0.662   1.464  1.5394 -1.2933 -0.6066
 4176TIP3    H234088   5.892   0.531   1.539 -2.0340 -0.2906  1.0179
 4177TIP3   OH234089   1.054   1.653   7.791 -0.5763 -0.8644 -0.3350
 4177TIP3    H134090   0.963   1.648   7.819 -0.2621  0.5680  1.0494
 4177TIP3    H234091   1.050   1.694   7.705 -1.1620  0.4542  0.3034
 4178TIP3   OH234092   1.202   1.355   0.248  0.4508  0.5181  0.0931
 4178TIP3    H134093   1.186   1.330   0.339  0.9515  0.5332  0.1858
 4178TIP3    H234094   1.219   1.449   0.252 -0.2293  0.6581 -0.1079
 4179TIP3   OH234095   3.163   6.652   2.609  0.1386 -0.3338 -0.2274
 4179TIP3    H134096   3.256   6.645   2.630  0.3279 -0.6618 -1.1246
 4179TIP3    H234097   3.159   6.713   2.536 -0.1649 -1.5483 -1.2731
 4180TIP3   OH234098   2.952   4.771   8.651  0.3263  0.4680  0.6310
 4180TIP3    H134099   2.939   4.695   8.594  0.7147 -0.2893  1.5277
 4180TIP3    H234100   2.913   4.746   8.735  0.5587  1.2140  0.9734
 4181TIP3   OH234101   6.796   1.060   1.943  0.3079  0.1114 -0.3028
 4181TIP3    H134102   6.799   1.075   1.848 -2.4934 -0.5018 -0.5849
 4181TIP3    H234103   6.762   0.971   1.952  1.2025 -0.1070  1.3159
 4182TIP3   OH234104   4.780   3.965   1.363 -0.8668  0.4553 -0.0612
 4182TIP3    H134105   4.842   3.893   1.376 -1.0591  0.0401 -1.3169
 4182TIP3    H234106   4.831   4.044   1.380 -1.2104  0.0695  3.6944
 4183TIP3   OH234107   6.216   3.810   2.097  0.2926 -0.0187  0.0528
 4183TIP3    H134108   6.226   3.896   2.138 -1.7062 -0.3542  1.4709
 4183TIP3    H234109   6.136   3.818   2.045  0.7704 -0.6709 -0.7859
 4184TIP3   OH234110   6.678   6.036   2.847 -0.5491  0.5385 -0.5429
 4184TIP3    H134111   6.702   6.098   2.778 -0.1076  0.7282 -0.2174
 4184TIP3    H234112   6.650   6.090   2.921 -0.3004  0.3479 -0.3076
 4185TIP3   OH234113   1.208   3.743   2.056  0.0029 -0.4986 -0.2436
 4185TIP3    H134114   1.296   3.760   2.091  0.6322 -0.0565 -1.9404
 4185TIP3    H234115   1.184   3.658   2.094  1.4843 -0.9950 -0.3435
 4186TIP3   OH234116   5.997   4.781   0.294 -0.1281 -0.6761 -0.0961
 4186TIP3    H134117   5.925   4.841   0.311  0.4409 -0.0775  0.2726
 4186TIP3    H234118   6.053   4.828   0.232 -0.3121 -1.3508 -0.7977
 4187TIP3   OH234119   3.449   5.355   8.170  0.0010 -0.3684  0.1223
 4187TIP3    H134120   3.487   5.370   8.256  0.2669  0.1912 -0.0871
 4187TIP3    H234121   3.360   5.387   8.176  0.5498  1.3358 -0.3090
 4188TIP3   OH234122   1.034   5.320   1.505 -0.8729  0.0214 -0.0480
 4188TIP3    H134123   1.107   5.371   1.470  0.1486 -1.5634 -0.3428
 4188TIP3    H234124   1.013   5.258   1.435 -3.5745  1.3850 -0.6102
 4189TIP3   OH234125   5.245   0.665   0.445 -0.0294 -0.0506 -0.5804
 4189TIP3    H134126   5.305   0.667   0.370 -0.2690 -0.0584 -0.7770
 4189TIP3    H234127   5.224   0.757   0.462  0.0858 -0.0449 -0.4765
 4190TIP3   OH234128   5.560   5.557   7.961  0.2841 -0.3104 -0.2196
 4190TIP3    H134129   5.541   5.617   7.889  0.3877  0.8089  0.6581
 4190TIP3    H234130   5.654   5.542   7.956 -0.2239 -3.6150 -2.8470
 4191TIP3   OH234131   6.059   1.628   1.528 -0.2678  0.0159 -0.8447
 4191TIP3    H134132   6.094   1.541   1.542 -0.3815  0.0307 -0.4494
 4191TIP3    H234133   5.995   1.617   1.457 -2.4231 -0.8196  1.0872
 4192TIP3   OH234134   1.235   0.848   1.837 -0.5911 -0.3978 -0.1454
 4192TIP3    H134135   1.316   0.859   1.888 -0.9081 -0.8428  0.4718
 4192TIP3    H234136   1.264   0.852   1.746 -0.1988  1.8838  0.0168
 4193TIP3   OH234137   5.037   0.425   0.264 -0.6253 -0.6281 -0.4040
 4193TIP3    H134138   5.018   0.410   0.171 -2.3130 -0.0829 -0.1870
 4193TIP3    H234139   4.964   0.384   0.310  0.9327 -2.2109  0.8073
 4194TIP3   OH234140   2.839   4.293   0.420 -0.6076 -0.1046  0.5234
 4194TIP3    H134141   2.905   4.238   0.377 -0.1618 -0.3265  1.4647
 4194TIP3    H234142   2.833   4.258   0.509 -0.1849  1.4676  1.2099
 4195TIP3   OH234143   0.115   5.084   2.800 -0.5284 -0.1818  0.0575
 4195TIP3    H134144   0.205   5.051   2.803 -0.8305 -1.1123 -0.7410
 4195TIP3    H234145   0.125   5.180   2.801  0.3980 -0.2665  1.5010
 4196TIP3   OH234146   5.095   1.088   1.854 -0.3175  0.1582 -0.3965
 4196TIP3    H134147   5.117   0.995   1.847  0.5389  0.4921 -2.8301
 4196TIP3    H234148   5.153   1.121   1.923  0.3044 -0.8613 -0.4080
 4197TIP3   OH234149   2.233   5.489   1.524 -0.4256 -0.2705  0.6824
 4197TIP3    H134150   2.196   5.440   1.597  0.3241 -2.2599 -0.2021
 4197TIP3    H234151   2.320   5.451   1.510 -0.4212  0.2540 -1.0451
 4198TIP3   OH234152   2.685   2.391   2.722  0.2529  0.1809  0.0804
 4198TIP3    H134153   2.690   2.383   2.626 -0.3481  0.0451  0.0531
 4198TIP3    H234154   2.603   2.438   2.738 -0.4333 -1.1083  0.5715
 4199TIP3   OH234155   1.402   4.661   7.758 -0.1973  0.0286  0.8911
 4199TIP3    H134156   1.451   4.580   7.769  1.0726  0.6444  0.0744
 4199TIP3    H234157   1.395   4.672   7.663  1.3081  1.7854  0.9150
 4200TIP3   OH234158   4.188   6.281   0.441  0.2623 -0.4013 -0.9698
 4200TIP3    H134159   4.191   6.323   0.527  0.7779 -1.3871 -0.4779
 4200TIP3    H234160   4.102   6.304   0.406 -0.7647 -1.4783  0.6362
 4201TIP3   OH234161   3.986   2.479   2.329 -0.4419  0.0603 -0.2519
 4201TIP3    H134162   4.034   2.560   2.344 -2.3995  0.7850  3.1484
 4201TIP3    H234163   3.926   2.499   2.258  0.6984  0.7796 -1.0492
 4202TIP3   OH234164   5.203   5.070   8.339 -0.2345  0.0703  0.0050
 4202TIP3    H134165   5.232   5.089   8.250  1.2337 -1.8059  0.0241
 4202TIP3    H234166   5.144   4.995   8.329  1.1091 -1.1276  0.6969
 4203TIP3   OH234167   2.213   4.623   1.442 -0.3023 -0.8357  0.4962
 4203TIP3    H134168   2.208   4.675   1.362  0.4140 -3.4692 -1.3723
 4203TIP3    H234169   2.202   4.687   1.513 -0.2387  1.6925 -1.6425
 4204TIP3   OH234170   0.017   1.228   8.237 -0.7409  0.2892 -0.4776
 4204TIP3    H134171   0.088   1.196   8.294 -1.3431 -1.5620 -0.7128
 4204TIP3    H234172   0.015   1.322   8.253  0.4174  0.0937  1.0837
 4205TIP3   OH234173   0.710   0.069   2.200 -0.1450 -0.7697  0.5468
 4205TIP3    H134174   0.646   0.101   2.136  2.2054  1.0358 -1.1048
 4205TIP3    H234175   0.744  -0.012   2.162  0.4482 -0.2850  0.0105
 4206TIP3   OH234176   3.247   4.646   1.577  0.0429  0.1956 -0.3235
 4206TIP3    H134177   3.318   4.583   1.590 -0.4820 -0.6673 -1.4117
 4206TIP3    H234178   3.250   4.702   1.654  1.4408 -0.2731 -0.0020
 4207TIP3   OH234179   2.679   3.865   1.988 -0.3472  0.2400 -0.2292
 4207TIP3    H134180   2.657   3.792   1.929  1.0390  0.8759 -1.6131
 4207TIP3    H234181   2.720   3.823   2.064 -0.5530 -0.5013 -0.5187
 4208TIP3   OH234182   4.525   3.041   0.877  0.3933 -0.4380 -0.1245
 4208TIP3    H134183   4.535   2.946   0.880 -0.3478 -0.5937 -1.5325
 4208TIP3    H234184   4.533   3.063   0.784 -2.1241  0.5217 -0.1916
 4209TIP3   OH234185   1.943   2.532   2.728 -0.2493  0.3703 -0.1219
 4209TIP3    H134186   2.004   2.603   2.709 -1.0520  1.4778  1.2370
 4209TIP3    H234187   1.987   2.480   2.795 -0.0235  0.0763 -0.4949
 4210TIP3   OH234188   5.573   6.123   7.614  0.3904  0.6627  0.2101
 4210TIP3    H134189   5.517   6.048   7.632  0.5509  0.3796 -0.4230
 4210TIP3    H234190   5.516   6.185   7.569  0.8052 -0.0475 -1.3651
 4211TIP3   OH234191   6.339   3.360   7.487 -0.2958  0.3026  0.2053
 4211TIP3    H134192   6.375   3.355   7.576 -1.9228  1.2117  0.9631
 4211TIP3    H234193   6.365   3.447   7.456  1.4344 -0.5102 -0.7980
 4212TIP3   OH234194   0.613   6.293   0.160  0.1169 -0.2158 -0.4362
 4212TIP3    H134195   0.667   6.236   0.105  0.6093 -2.1970  1.9046
 4212TIP3    H234196   0.676   6.339   0.215 -0.4367  0.0889 -0.0527
 4213TIP3   OH234197   3.822   4.533   0.884  0.0285 -0.0534 -0.3734
 4213TIP3    H134198   3.902   4.560   0.929 -0.0893  0.8259 -0.6684
 4213TIP3    H234199   3.844   4.449   0.844  0.7244  0.0559 -0.2379
 4214TIP3   OH234200   2.845   0.885   1.969  0.0035  0.3757  0.0260
 4214TIP3    H134201   2.854   0.849   2.057  3.3543  1.0009  0.0785
 4214TIP3    H234202   2.835   0.808   1.912  2.0791 -0.3923  0.6090
 4215TIP3   OH234203   6.513   1.710   1.537 -0.1018  0.1838  0.1517
 4215TIP3    H134204   6.473   1.747   1.458 -0.7530 -0.5291  0.1369
 4215TIP3    H234205   6.583   1.771   1.559  0.7612 -0.1212 -1.5733
 4216TIP3   OH234206   2.245   4.232   8.561 -0.4838  0.3959  1.1124
 4216TIP3    H134207   2.172   4.208   8.619 -0.5234 -1.8097  0.2247
 4216TIP3    H234208   2.313   4.167   8.579 -0.5122 -0.3967 -1.2743
 4217TIP3   OH234209   1.425   5.027   1.763 -0.0281  0.0553 -0.1819
 4217TIP3    H134210   1.344   5.077   1.753 -0.9288 -1.2893  0.0270
 4217TIP3    H234211   1.407   4.968   1.836  1.6698  0.6818  0.7964
 4218TIP3   OH234212   0.861   5.698   2.831 -0.0343 -0.3873  0.3348
 4218TIP3    H134213   0.918   5.674   2.758 -0.1476  1.8875 -0.5999
 4218TIP3    H234214   0.775   5.662   2.807 -0.2920  1.1065 -1.1837
 4219TIP3   OH234215   2.699   2.974   1.438  0.1373 -0.1904  0.0890
 4219TIP3    H134216   2.620   3.000   1.389  0.3534 -1.9051 -1.2618
 4219TIP3    H234217   2.761   3.045   1.424  0.0523 -0.4561 -1.8741
 4220TIP3   OH234218   5.711   3.686   8.510 -0.2803  0.2424  0.0057
 4220TIP3    H134219   5.743   3.773   8.487 -0.2783  0.4909  0.9063
 4220TIP3    H234220   5.635   3.703   8.566  0.7829 -0.2997  1.6883
 4221TIP3   OH234221   0.186   0.435   8.035 -0.2243  0.4610 -0.1122
 4221TIP3    H134222   0.278   0.407   8.039 -0.1577  0.6858 -0.0938
 4221TIP3    H234223   0.186   0.509   7.975 -0.4671  0.1707 -0.4723
 4222TIP3   OH234224   6.239   2.119   2.830  0.0257  0.2189 -0.7025
 4222TIP3    H134225   6.309   2.060   2.858 -0.1940 -0.8186 -2.2370
 4222TIP3    H234226   6.165   2.096   2.887  0.8997  1.4127  1.0202
 4223TIP3   OH234227   5.325   5.601   2.336 -0.0971 -0.1279  0.4645
 4223TIP3    H134228   5.376   5.542   2.391  1.1829 -0.0105 -0.5363
 4223TIP3    H234229   5.387   5.670   2.312 -0.7885  0.1507 -0.5963
 4224TIP3   OH234230   2.613   1.839   0.599  0.3872 -0.2168 -0.0706
 4224TIP3    H134231   2.580   1.920   0.561 -0.2600 -0.8470 -0.8815
 4224TIP3    H234232   2.699   1.862   0.634  0.4752  0.6724 -0.8485
 4225TIP3   OH234233   4.271   0.402   1.759  0.2708 -0.6868 -0.2317
 4225TIP3    H134234   4.255   0.490   1.725 -2.0120 -0.7131  0.6052
 4225TIP3    H234235   4.308   0.353   1.685  0.4117  0.6276 -1.0578
 4226TIP3   OH234236   4.362   5.689   2.337 -0.5002  0.8573 -0.5255
 4226TIP3    H134237   4.317   5.606   2.320 -0.5664  0.5631  0.9320
 4226TIP3    H234238   4.451   5.675   2.306 -0.0183 -0.4216  1.2973
 4227TIP3   OH234239   3.161   2.397   1.146  0.3649 -0.1488  0.0055
 4227TIP3    H134240   3.179   2.466   1.082  0.1464 -0.2339 -0.1470
 4227TIP3    H234241   3.169   2.441   1.231  0.3684  0.0292 -0.0871
 4228TIP3   OH234242   1.075   0.443   3.076 -0.3371 -0.4013 -0.4066
 4228TIP3    H134243   1.133   0.368   3.090  0.0592  0.2499  1.8103
 4228TIP3    H234244   1.026   0.451   3.157 -0.6422  1.5263 -0.7325
 4229TIP3   OH234245   4.110   3.496   0.649 -0.1980  0.0433 -0.8661
 4229TIP3    H134246   4.173   3.539   0.591  2.2498  0.0027  1.5232
 4229TIP3    H234247   4.133   3.403   0.644 -2.2837 -0.4569 -2.3708
 4230TIP3   OH234248   4.952   1.906   8.552 -0.0611 -0.9076 -0.0665
 4230TIP3    H134249   4.938   2.000   8.540 -0.0107 -1.0413 -1.3650
 4230TIP3    H234250   5.021   1.900   8.617 -1.5889 -0.1020  1.7139
 4231TIP3   OH234251   1.897   3.987   8.239  0.1502  0.1169  0.5466
 4231TIP3    H134252   1.931   3.920   8.299 -1.5048 -2.3240 -1.0894
 4231TIP3    H234253   1.974   4.016   8.190  0.9960 -0.1441  1.6707
 4232TIP3   OH234254   4.269   6.516   1.662  0.3935  0.1914 -0.0052
 4232TIP3    H134255   4.252   6.492   1.571  0.8483 -0.2431  0.0242
 4232TIP3    H234256   4.260   6.611   1.663 -2.7025  0.0253  0.1375
 4233TIP3   OH234257   5.363   2.584   7.798  0.2990 -0.3215 -0.0950
 4233TIP3    H134258   5.368   2.602   7.704 -0.0915  1.6183  0.2069
 4233TIP3    H234259   5.447   2.614   7.832  0.3359 -0.7783  0.2294
 4234TIP3   OH234260   6.185   5.111   8.579  0.1174 -0.0995 -0.0155
 4234TIP3    H134261   6.224   5.135   8.496 -1.0616  2.1579  0.0145
 4234TIP3    H234262   6.257   5.113   8.642  0.2826  2.5653 -0.2104
 4235TIP3   OH234263   2.750   1.781   2.890 -0.0962  0.7083  0.4879
 4235TIP3    H134264   2.726   1.858   2.941 -1.0595  0.3350  0.6298
 4235TIP3    H234265   2.667   1.736   2.875  0.5202 -0.6768  1.0155
 4236TIP3   OH234266   1.651   5.608   1.341  0.3178  0.1894 -0.0531
 4236TIP3    H134267   1.560   5.633   1.360  0.1124 -0.6924  0.1678
 4236TIP3    H234268   1.670   5.649   1.257 -0.8403 -0.9460 -0.9099
 4237TIP3   OH234269   0.684   4.185   0.155 -0.2827 -0.3095 -0.0433
 4237TIP3    H134270   0.604   4.221   0.116  0.1994 -0.0167 -0.8040
 4237TIP3    H234271   0.743   4.260   0.160 -0.3917 -0.3084  1.4574
 4238TIP3   OH234272   5.234   3.243   2.685  0.0230 -0.1441  0.1762
 4238TIP3    H134273   5.297   3.172   2.675  0.0599  0.2079 -3.4066
 4238TIP3    H234274   5.149   3.200   2.689  0.1265 -0.4472 -0.7585
 4239TIP3   OH234275   6.521   5.312   7.639 -0.2961  0.0366 -0.3600
 4239TIP3    H134276   6.529   5.278   7.550  0.0054 -0.2780 -0.2121
 4239TIP3    H234277   6.541   5.238   7.695 -2.0930 -0.2201 -0.0000
 4240TIP3   OH234278   4.100   2.498   1.143  0.1595 -0.0337  0.0940
 4240TIP3    H134279   4.127   2.477   1.232 -0.8489  1.2055  0.7190
 4240TIP3    H234280   4.164   2.562   1.112 -0.7592  1.2734  0.7940
 4241TIP3   OH234281   2.212   6.729   3.162  0.0418 -0.2081  0.4167
 4241TIP3    H134282   2.191   6.803   3.104  0.0960 -0.5917 -0.0939
 4241TIP3    H234283   2.265   6.768   3.231  1.1028  0.0255 -0.4994
 4242TIP3   OH234284   5.888   4.201   1.444 -0.5934 -0.0485  0.8060
 4242TIP3    H134285   5.961   4.183   1.384 -0.5883  1.7071  0.2228
 4242TIP3    H234286   5.831   4.125   1.436 -0.3065 -0.1136 -1.0311
 4243TIP3   OH234287   4.630   2.503   0.846  0.0423 -1.1456 -0.2769
 4243TIP3    H134288   4.709   2.478   0.893 -1.0084 -1.0209  1.6851
 4243TIP3    H234289   4.611   2.428   0.789  1.6228 -1.1059 -0.8948
 4244TIP3   OH234290   2.290   2.581   7.769  0.2446  0.5152  0.4595
 4244TIP3    H134291   2.342   2.520   7.822  0.7997  1.9337  1.6179
 4244TIP3    H234292   2.294   2.544   7.681  0.4697 -1.1685  1.1249
 4245TIP3   OH234293   1.791   5.853   8.057 -0.0621 -0.3227 -0.7354
 4245TIP3    H134294   1.814   5.762   8.042 -0.3716 -0.3470 -1.0824
 4245TIP3    H234295   1.775   5.889   7.970 -2.6754 -0.6871 -0.5011
 4246TIP3   OH234296   4.970   3.846   0.446 -0.1385 -0.2399  0.4461
 4246TIP3    H134297   5.061   3.875   0.443 -0.2436  0.0470 -0.2496
 4246TIP3    H234298   4.939   3.873   0.533  0.2947  0.1201  0.4945
 4247TIP3   OH234299   6.455   4.695   2.384  0.1029 -0.5915  0.3043
 4247TIP3    H134300   6.522   4.638   2.347  2.5809  0.6986  2.4541
 4247TIP3    H234301   6.488   4.717   2.471 -1.7190  2.4795  0.3580
 4248TIP3   OH234302   1.360   5.759   1.288  0.5318 -0.1367  0.6326
 4248TIP3    H134303   1.358   5.678   1.237 -0.2784  0.4022 -0.2389
 4248TIP3    H234304   1.315   5.737   1.370  0.1826 -0.5389  0.3396
 4249TIP3   OH234305   0.226   0.103   1.250 -0.6118 -0.0849 -0.0333
 4249TIP3    H134306   0.147   0.113   1.198 -1.2797  1.0813  1.1553
 4249TIP3    H234307   0.236   0.186   1.296  2.0625  0.3283 -1.1625
 4250TIP3   OH234308   3.636   0.050   8.677 -0.1718  0.0308 -0.2400
 4250TIP3    H134309   3.541   0.062   8.684 -0.4032 -1.2136 -0.8572
 4250TIP3    H234310   3.646  -0.023   8.615  1.1533 -0.5579  0.6305
 4251TIP3   OH234311   1.394   0.860   1.218 -0.5339 -0.0192 -0.6575
 4251TIP3    H134312   1.333   0.926   1.186 -0.4538  0.1531 -0.4568
 4251TIP3    H234313   1.477   0.907   1.226 -0.7799  0.2171  0.8034
 4252TIP3   OH234314   2.578   0.150   1.664 -1.0756  0.4103  0.3333
 4252TIP3    H134315   2.672   0.151   1.648 -1.2099 -1.9579 -1.1025
 4252TIP3    H234316   2.538   0.163   1.578 -2.0479  0.3067  0.7538
 4253TIP3   OH234317   4.937   0.880   0.356  0.1558 -0.4535 -0.5604
 4253TIP3    H134318   4.883   0.935   0.413  0.6324 -1.0650  0.5095
 4253TIP3    H234319   5.020   0.926   0.349  0.4912 -0.9377  0.1837
 4254TIP3   OH234320   6.250   0.491   1.337  0.5076 -0.0064 -0.4157
 4254TIP3    H134321   6.337   0.496   1.377  0.6706 -0.5125 -0.7053
 4254TIP3    H234322   6.266   0.489   1.243  0.0449  3.3440 -0.6863
 4255TIP3   OH234323   2.409   4.634   8.334 -0.7440 -0.2672  0.9022
 4255TIP3    H134324   2.491   4.643   8.383 -0.0404  2.0563 -0.5546
 4255TIP3    H234325   2.390   4.540   8.337  0.8398 -0.6150  3.0100
 4256TIP3   OH234326   2.057   0.095   2.589 -0.1972 -0.8055  0.0519
 4256TIP3    H134327   2.130   0.124   2.535  1.4555 -1.2628  1.9291
 4256TIP3    H234328   2.029   0.173   2.637 -0.0734 -0.9149  0.3032
 4257TIP3   OH234329   4.435   2.261   8.554  0.0726 -0.1563  0.1541
 4257TIP3    H134330   4.405   2.226   8.470  0.8713  0.2721 -0.3241
 4257TIP3    H234331   4.470   2.347   8.532  1.0178 -0.3633  0.7993
 4258TIP3   OH234332   3.263   0.199   0.435 -0.9493  0.0041  0.0884
 4258TIP3    H134333   3.223   0.212   0.349  0.3206  0.4899 -0.4653
 4258TIP3    H234334   3.270   0.104   0.445 -1.3023 -0.0593 -0.2511
 4259TIP3   OH234335   1.159   0.530   2.583  0.3919  0.3565  0.0719
 4259TIP3    H134336   1.120   0.485   2.508 -2.1160  2.7539 -0.2023
 4259TIP3    H234337   1.109   0.499   2.658 -2.1347  3.1847 -0.2419
 4260TIP3   OH234338   3.062   1.615   0.085  0.1754  0.4945 -0.0158
 4260TIP3    H134339   3.020   1.642   0.004  0.5637  1.4862  0.0940
 4260TIP3    H234340   3.014   1.661   0.154 -1.0373 -1.4049  0.4618
 4261TIP3   OH234341   3.328   0.299   1.452 -0.4134 -0.0460 -0.1283
 4261TIP3    H134342   3.353   0.208   1.435  1.1405  0.6430 -1.8575
 4261TIP3    H234343   3.399   0.334   1.506 -1.3493  0.0107  1.1371
 4262TIP3   OH234344   6.344   0.902   7.310  0.3883  0.7585  0.2793
 4262TIP3    H134345   6.377   0.992   7.309  0.8054  0.7141  2.7447
 4262TIP3    H234346   6.249   0.911   7.315  0.3866  1.0344 -0.2156
 4263TIP3   OH234347   1.094   4.216   0.593 -0.4960 -0.2713 -0.0261
 4263TIP3    H134348   1.102   4.231   0.687  1.2107 -0.6346 -0.0684
 4263TIP3    H234349   1.028   4.147   0.584  1.2270 -2.1959  1.1558
 4264TIP3   OH234350   1.965   6.043   7.617  0.1015 -0.0700  0.2178
 4264TIP3    H134351   1.942   6.136   7.621  0.5941  0.0073  1.8526
 4264TIP3    H234352   2.061   6.042   7.607 -0.1020 -0.4213 -2.3607
 4265TIP3   OH234353   1.402   2.901   2.294 -0.0133 -0.2221  0.3360
 4265TIP3    H134354   1.452   2.971   2.251 -1.6593  0.8143  0.0046
 4265TIP3    H234355   1.427   2.907   2.386 -0.1368  0.8529  0.3195
 4266TIP3   OH234356   2.417   3.380   2.061 -0.5253  0.0072 -0.5048
 4266TIP3    H134357   2.484   3.437   2.099 -0.4906 -0.1779 -0.2846
 4266TIP3    H234358   2.334   3.420   2.086 -0.5212 -0.6854  0.6733
 4267TIP3   OH234359   4.606   3.776   1.955  0.2218  0.1961  0.0384
 4267TIP3    H134360   4.652   3.693   1.938  2.0127  1.1353  0.0483
 4267TIP3    H234361   4.661   3.821   2.019 -0.5894  1.5097 -0.1588
 4268TIP3   OH234362   1.704   2.519   2.598 -0.2406  0.1962 -0.5997
 4268TIP3    H134363   1.794   2.518   2.630  0.7253  2.2964 -2.9563
 4268TIP3    H234364   1.691   2.431   2.562  1.7847  0.5789 -2.4339
 4269TIP3   OH234365   5.156   3.147   2.357 -0.0865  0.3152 -0.2026
 4269TIP3    H134366   5.115   3.097   2.427  4.1177 -1.0452  1.5593
 4269TIP3    H234367   5.195   3.223   2.400  2.7009 -0.6175 -0.8480
 4270TIP3   OH234368   1.016   5.644   2.607 -0.3814  0.2202 -0.4945
 4270TIP3    H134369   1.007   5.719   2.549  0.1349 -0.8271 -1.9891
 4270TIP3    H234370   1.062   5.578   2.555 -0.3486 -0.9529  0.9399
 4271TIP3   OH234371   4.305   1.369   8.545 -0.0922 -0.9377 -0.0811
 4271TIP3    H134372   4.306   1.456   8.506 -1.1650 -1.3413 -1.0511
 4271TIP3    H234373   4.315   1.385   8.639  1.0449  0.1294 -0.3520
 4272TIP3   OH234374   6.732   6.781   0.544 -0.5066  0.2191 -0.3108
 4272TIP3    H134375   6.824   6.807   0.534  0.0193 -0.7390  1.5529
 4272TIP3    H234376   6.736   6.688   0.569 -1.8715  0.5820  1.4377
 4273TIP3   OH234377   6.269   1.359   0.219  0.4095 -0.4561  0.0420
 4273TIP3    H134378   6.293   1.392   0.132 -0.6422 -0.3535 -0.2218
 4273TIP3    H234379   6.350   1.362   0.269  0.5528  1.6908 -0.2291
 4274TIP3   OH234380   2.916   0.191   2.040  0.2193 -0.5985  0.3459
 4274TIP3    H134381   2.990   0.250   2.027  0.5395 -1.1398 -0.4092
 4274TIP3    H234382   2.923   0.163   2.131  0.3401  0.1539  0.5716
 4275TIP3   OH234383   4.434   4.878   7.187 -0.4191 -0.2806  0.3150
 4275TIP3    H134384   4.401   4.910   7.271  1.2849  0.3598  0.7818
 4275TIP3    H234385   4.382   4.924   7.122 -0.9055  0.1787  1.0067
 4276TIP3   OH234386   5.916   3.969   0.291  0.4282  0.0330 -0.2005
 4276TIP3    H134387   5.925   4.064   0.291  1.1221 -0.0278 -0.6750
 4276TIP3    H234388   5.847   3.951   0.227 -0.4815  0.2784  0.6994
 4277TIP3   OH234389   5.820   0.287   1.579  0.0030  0.1788  0.7592
 4277TIP3    H134390   5.895   0.329   1.537  2.2205 -2.1312  2.1789
 4277TIP3    H234391   5.828   0.310   1.671  0.4441 -2.0364  1.3246
 4278TIP3   OH234392   5.053   0.285   3.206  0.3008 -0.7022 -0.0213
 4278TIP3    H134393   4.990   0.214   3.193 -0.4081 -0.0640 -0.1778
 4278TIP3    H234394   5.113   0.252   3.272  1.2928 -2.2733 -1.6296
 4279TIP3   OH234395   5.163   2.488   7.961 -0.2350  0.0694 -0.1856
 4279TIP3    H134396   5.222   2.469   8.034 -0.0508  0.7058 -0.1582
 4279TIP3    H234397   5.221   2.517   7.890 -0.4727  0.1666 -0.3427
 4280TIP3   OH234398   6.534   1.010   2.224  0.1592  0.3262  0.1172
 4280TIP3    H134399   6.521   0.983   2.133 -0.8083 -1.3039  0.7056
 4280TIP3    H234400   6.556   1.103   2.218 -2.1780  0.8610 -1.6472
 4281TIP3   OH234401   0.795   6.340   8.066  0.3454 -0.0161  0.1344
 4281TIP3    H134402   0.771   6.404   8.133  0.6275  0.6765 -0.4026
 4281TIP3    H234403   0.712   6.301   8.039  0.2294 -0.2886  0.8700
 4282TIP3   OH234404   4.476   4.623   0.952 -0.0869 -0.0703  0.4688
 4282TIP3    H134405   4.546   4.660   1.005  0.0697 -0.0834  0.2739
 4282TIP3    H234406   4.420   4.578   1.014  0.3463 -0.4798  0.5662
 4283TIP3   OH234407   6.496   1.365   0.359  0.2796  0.0433  0.1205
 4283TIP3    H134408   6.494   1.300   0.429  0.5316 -0.4463 -0.3192
 4283TIP3    H234409   6.567   1.337   0.301  0.3944  0.7105 -0.0797
 4284TIP3   OH234410   0.422   4.274   8.317  0.1945  0.6176  0.2305
 4284TIP3    H134411   0.430   4.361   8.358 -0.3386  1.1091 -0.6742
 4284TIP3    H234412   0.513   4.248   8.300  0.3929  0.6876  1.1195
 4285TIP3   OH234413   5.121   0.462   1.245 -0.1879 -0.0543  0.4855
 4285TIP3    H134414   5.092   0.540   1.291 -1.7557 -1.2492  1.6028
 4285TIP3    H234415   5.188   0.424   1.302  0.9742  0.7072 -0.3154
 4286TIP3   OH234416   4.838   3.080   1.822 -0.2199 -0.1179 -0.1190
 4286TIP3    H134417   4.774   3.132   1.870  0.4864  0.4019  0.2647
 4286TIP3    H234418   4.825   2.991   1.854 -0.5621  0.0314  0.1606
 4287TIP3   OH234419   5.420   0.718   8.394  0.2291 -0.6068 -0.1501
 4287TIP3    H134420   5.492   0.711   8.457 -0.5830 -1.6695  0.7057
 4287TIP3    H234421   5.356   0.653   8.424 -0.1580 -1.1881 -2.1211
 4288TIP3   OH234422   1.490   2.053   1.346  0.0020 -0.6071  0.6163
 4288TIP3    H134423   1.579   2.078   1.371  0.0536 -0.9300  0.7602
 4288TIP3    H234424   1.444   2.040   1.429 -0.3707  0.2004  0.5542
 4289TIP3   OH234425   3.386   0.574   7.575  0.2180  0.3104 -0.9506
 4289TIP3    H134426   3.319   0.506   7.575  0.1576  0.3668 -0.7239
 4289TIP3    H234427   3.346   0.648   7.530 -0.0757  0.5332 -0.3434
 4290TIP3   OH234428   6.065   5.698   2.117 -0.4814 -0.1624 -0.0596
 4290TIP3    H134429   6.016   5.726   2.039 -2.1691 -0.6191  0.7914
 4290TIP3    H234430   6.002   5.706   2.189  1.2070  0.8092  1.3797
 4291TIP3   OH234431   3.557   4.693   1.703  0.0939  0.5277  0.5115
 4291TIP3    H134432   3.513   4.609   1.693 -2.2917  2.0141 -4.2448
 4291TIP3    H234433   3.487   4.757   1.715  1.6237  2.1743  1.2656
 4292TIP3   OH234434   4.465   0.716   0.506  0.2340  0.2823 -0.0192
 4292TIP3    H134435   4.537   0.738   0.447  0.3230  0.5013  0.1729
 4292TIP3    H234436   4.461   0.789   0.568  0.5453 -0.2475  0.6339
 4293TIP3   OH234437   0.236   1.227   8.445 -0.4563 -0.1753  0.0111
 4293TIP3    H134438   0.256   1.320   8.428 -3.3863  0.1805 -2.2342
 4293TIP3    H234439   0.209   1.224   8.537  1.7382  0.7127  0.7563
 4294TIP3   OH234440   4.919   2.712   8.485  0.0759  0.5312  0.4869
 4294TIP3    H134441   4.928   2.670   8.400 -0.1284 -0.1948  0.8158
 4294TIP3    H234442   4.830   2.690   8.513  0.2451  0.5093  1.0214
 4295TIP3   OH234443   3.569   1.008   2.418 -0.4353  0.2332  0.4568
 4295TIP3    H134444   3.496   0.946   2.421 -1.7343  1.6571  0.0394
 4295TIP3    H234445   3.593   1.012   2.325  0.7633 -0.8453  0.6981
 4296TIP3   OH234446   1.731   6.601   0.193 -0.3359 -0.0902  0.6273
 4296TIP3    H134447   1.716   6.525   0.248  0.8152 -0.5532  0.3397
 4296TIP3    H234448   1.803   6.648   0.236 -0.2724  0.2224  0.1912
 4297TIP3   OH234449   4.612   3.538   2.308  0.4530 -0.2261  0.5295
 4297TIP3    H134450   4.598   3.513   2.399  0.4551  1.4266  1.0162
 4297TIP3    H234451   4.585   3.630   2.304  0.8872 -0.1408 -1.0302
 4298TIP3   OH234452   5.365   0.710   0.753  1.4239  0.0824 -0.7409
 4298TIP3    H134453   5.456   0.729   0.727  3.1817 -2.4831  2.7603
 4298TIP3    H234454   5.368   0.704   0.848 -2.1725 -1.5078 -0.5746
 4299TIP3   OH234455   4.185   5.191   7.694  0.5945  0.0875  0.3604
 4299TIP3    H134456   4.100   5.233   7.683  1.3774  1.5093 -0.5182
 4299TIP3    H234457   4.166   5.097   7.693 -0.6251  0.1545 -3.9454
 4300TIP3   OH234458   2.411   0.437   1.372  0.5889 -0.1412  0.4585
 4300TIP3    H134459   2.464   0.470   1.299  0.4074 -0.7226  0.0563
 4300TIP3    H234460   2.463   0.456   1.450  1.5441 -0.9579  0.0479
 4301TIP3   OH234461   0.186   0.636   8.254  0.1190  0.0103  0.1914
 4301TIP3    H134462   0.176   0.575   8.180  0.3976  1.6871 -1.3097
 4301TIP3    H234463   0.238   0.588   8.318  2.1364 -0.6521 -1.8205
 4302TIP3   OH234464   6.818   3.647   7.414  0.0641 -0.4506 -0.2183
 4302TIP3    H134465   6.881   3.615   7.480  1.4459  2.4064 -0.0138
 4302TIP3    H234466   6.733   3.639   7.457  0.6521 -1.1820  0.8570
 4303TIP3   OH234467   0.788   0.856   2.395  0.3629 -0.0584 -0.1400
 4303TIP3    H134468   0.709   0.839   2.446 -0.6642  1.7944 -0.9811
 4303TIP3    H234469   0.848   0.896   2.458  0.8222 -1.7971  0.5900
 4304TIP3   OH234470   3.088   4.746   3.055  0.5748 -0.2561  0.3847
 4304TIP3    H134471   3.003   4.785   3.035  1.2844  1.3099  0.2176
 4304TIP3    H234472   3.091   4.665   3.004 -0.4941  0.0725 -0.2150
 4305TIP3   OH234473   3.389   5.126   7.368  0.4685  0.1336  0.0561
 4305TIP3    H134474   3.482   5.149   7.363  0.1491  1.2366 -1.7043
 4305TIP3    H234475   3.349   5.174   7.295 -1.5604  0.0528  1.0626
 4306TIP3   OH234476   2.344   0.788   1.034  0.0519  0.2753 -0.2046
 4306TIP3    H134477   2.292   0.757   0.959 -1.7372  1.2291  0.5891
 4306TIP3    H234478   2.418   0.727   1.038  0.2791  0.2762 -2.8131
 4307TIP3   OH234479   5.673   3.001   2.504  0.2340 -0.3980 -0.2140
 4307TIP3    H134480   5.612   3.075   2.498 -0.3941 -0.8879  0.0221
 4307TIP3    H234481   5.629   2.938   2.562  1.2853 -0.4578  0.5465
 4308TIP3   OH234482   4.736   5.713   8.611 -0.1614  0.0308  0.2770
 4308TIP3    H134483   4.803   5.721   8.679 -0.5706 -0.5025  0.7519
 4308TIP3    H234484   4.764   5.774   8.543 -0.2701  1.3146  1.3392
 4309TIP3   OH234485   4.083   6.643   0.308  0.1111 -0.5294 -0.0966
 4309TIP3    H134486   4.174   6.645   0.279 -0.1969  2.1181 -1.1341
 4309TIP3    H234487   4.087   6.658   0.402  0.7407 -0.3744 -0.1474
 4310TIP3   OH234488   3.996   4.521   1.894 -0.5673 -0.6238  0.2694
 4310TIP3    H134489   3.988   4.487   1.983  1.2660  0.2096  0.7974
 4310TIP3    H234490   4.070   4.474   1.856 -2.0522 -1.8407 -1.2904
 4311TIP3   OH234491   3.599   5.037   0.204 -0.0246 -0.0534  0.5427
 4311TIP3    H134492   3.653   5.114   0.188 -0.1948 -0.1463 -0.5472
 4311TIP3    H234493   3.634   5.000   0.286  1.5534 -0.1106 -0.1237
 4312TIP3   OH234494   6.025   0.204   8.498  0.2585 -0.1565 -0.0344
 4312TIP3    H134495   6.037   0.273   8.432 -0.4378 -0.1374 -0.1537
 4312TIP3    H234496   6.057   0.125   8.455  0.1126 -0.0860 -0.2815
 4313TIP3   OH234497   2.162   4.237   1.292 -0.5969 -0.5651 -0.5603
 4313TIP3    H134498   2.222   4.196   1.354  0.5529 -0.1641 -1.3786
 4313TIP3    H234499   2.218   4.292   1.237 -2.0123  1.7772  0.2037
 4314TIP3   OH234500   6.176   3.272   8.704 -0.4996 -0.2752  0.1050
 4314TIP3    H134501   6.175   3.337   8.634 -0.6496  1.0508  1.2945
 4314TIP3    H234502   6.085   3.244   8.713 -0.1657 -2.1821 -1.7255
 4315TIP3   OH234503   6.309   1.112   7.615 -0.0491  0.1344  0.4058
 4315TIP3    H134504   6.350   1.184   7.567  0.9001  0.1072  1.1227
 4315TIP3    H234505   6.234   1.086   7.562  0.9864  0.0615 -1.0976
 4316TIP3   OH234506   6.478   5.655   8.276 -0.0112  0.0913 -0.2747
 4316TIP3    H134507   6.548   5.703   8.322 -1.0305 -0.8029  2.4198
 4316TIP3    H234508   6.413   5.637   8.344 -2.8539  0.7217 -2.6201
 4317TIP3   OH234509   6.399   3.886   2.899 -0.3037  0.6939 -0.6043
 4317TIP3    H134510   6.430   3.915   2.985 -0.6274  0.6999 -0.4886
 4317TIP3    H234511   6.474   3.901   2.841  0.6746 -1.2556  0.0505
 4318TIP3   OH234512   5.181   2.603   8.284  0.1452  0.3377 -0.5487
 4318TIP3    H134513   5.182   2.695   8.309  1.9155  0.3885 -0.6434
 4318TIP3    H234514   5.107   2.595   8.224 -0.5631  1.4904  0.1450
 4319TIP3   OH234515   3.691   3.581   0.396 -0.1837  0.0096  0.0928
 4319TIP3    H134516   3.602   3.608   0.420 -0.5260 -1.2617  0.3722
 4319TIP3    H234517   3.707   3.502   0.448  0.7193 -0.3576 -0.7034
 4320TIP3   OH234518   2.450   2.452   0.494 -0.8819 -0.1043 -0.0484
 4320TIP3    H134519   2.379   2.497   0.540 -2.3881 -0.9690 -1.4214
 4320TIP3    H234520   2.414   2.431   0.408  0.9467 -0.8596 -0.6859
 4321TIP3   OH234521   5.352   5.452   0.694 -0.1435  0.1716 -0.1043
 4321TIP3    H134522   5.283   5.453   0.628 -0.3764 -0.2153  0.1280
 4321TIP3    H234523   5.408   5.526   0.672  1.0527 -1.2232 -2.0904
 4322TIP3   OH234524   0.144   3.859   8.619 -0.5893 -0.4826 -0.3028
 4322TIP3    H134525   0.130   3.890   8.529  1.5169  0.3197 -0.4047
 4322TIP3    H234526   0.158   3.765   8.611 -1.4852 -0.5941 -0.6633
 4323TIP3   OH234527   5.937   6.049   1.771 -0.0676  0.1223 -0.0756
 4323TIP3    H134528   5.863   6.016   1.719 -0.3223 -2.4239  1.7213
 4323TIP3    H234529   5.900   6.064   1.858  1.4412 -0.8711  0.7675
 4324TIP3   OH234530   1.150   6.185   0.381  0.0579  0.2241 -0.4310
 4324TIP3    H134531   1.081   6.174   0.447 -0.1433 -0.0149 -0.6791
 4324TIP3    H234532   1.139   6.275   0.350  0.7715  0.6690  0.5518
 4325TIP3   OH234533   0.489   6.449   8.721  0.0485  0.8130  0.4380
 4325TIP3    H134534   0.507   6.364   8.681 -0.9407  1.2442 -0.9909
 4325TIP3    H234535   0.509   6.436   8.814  1.6891 -0.4344 -0.0339
 4326TIP3   OH234536   5.101   5.044   1.606 -0.1657 -0.3314  0.3641
 4326TIP3    H134537   5.163   5.116   1.608 -1.7468  1.0876  1.4076
 4326TIP3    H234538   5.024   5.078   1.652 -1.3516 -2.3397 -0.0293
 4327TIP3   OH234539   3.464   5.882   2.092  0.3114  0.2663 -0.3750
 4327TIP3    H134540   3.454   5.967   2.134  0.8802  0.4701 -0.6411
 4327TIP3    H234541   3.381   5.838   2.107  0.1516  0.7193  0.0978
 4328TIP3   OH234542   1.097   2.724   0.213  0.1716 -0.2075  0.2669
 4328TIP3    H134543   1.189   2.744   0.230  0.2295 -0.7710  0.6265
 4328TIP3    H234544   1.075   2.777   0.136  0.6437  0.3369  0.4965
 4329TIP3   OH234545   1.012   4.221   0.874  0.2989  0.2261  0.0651
 4329TIP3    H134546   1.060   4.200   0.954 -0.3915 -0.4688  0.3195
 4329TIP3    H234547   0.945   4.152   0.868 -0.3473  0.8866 -0.5294
 4330TIP3   OH234548   3.737   2.605   7.388 -0.0939  0.3905  0.2243
 4330TIP3    H134549   3.770   2.690   7.414  0.0979 -0.4671  3.0995
 4330TIP3    H234550   3.642   2.614   7.389 -0.2720  1.8564 -4.5664
 4331TIP3   OH234551   1.972   6.177   2.056 -0.8552  0.0756  0.2835
 4331TIP3    H134552   1.900   6.121   2.025 -3.1090  1.8000  1.9817
 4331TIP3    H234553   2.024   6.119   2.112 -1.9493 -0.8186  0.4296
 4332TIP3   OH234554   5.696   3.843   2.786  0.0407  0.4719  0.0472
 4332TIP3    H134555   5.656   3.756   2.795 -0.2993  0.7095  0.9300
 4332TIP3    H234556   5.745   3.856   2.868  0.2267  1.0420 -0.1483
 4333TIP3   OH234557   3.421   1.083   0.869 -0.0697  0.0494 -0.4012
 4333TIP3    H134558   3.332   1.099   0.901 -0.4830  0.3537 -1.6399
 4333TIP3    H234559   3.462   1.029   0.936 -0.8226  0.8442  0.7287
 4334TIP3   OH234560   2.477   0.403   1.797  0.6009  0.2228 -0.2882
 4334TIP3    H134561   2.552   0.388   1.854  1.5667  1.4184 -1.1757
 4334TIP3    H234562   2.467   0.322   1.748 -0.6423 -1.0636  1.9347
 4335TIP3   OH234563   0.180   2.893   2.092 -0.5844 -0.1947  0.0551
 4335TIP3    H134564   0.253   2.952   2.074 -1.6337  2.0143  2.3290
 4335TIP3    H234565   0.220   2.812   2.122  0.9309  0.6069  0.2743
 4336TIP3   OH234566   4.210   5.656   8.331  0.0030  1.2776 -0.5809
 4336TIP3    H134567   4.153   5.732   8.336 -0.4755  0.8503  1.9314
 4336TIP3    H234568   4.155   5.586   8.295 -0.1883  1.5785 -0.8719
 4337TIP3   OH234569   0.638   0.519   1.507  0.3135  0.3694  0.0900
 4337TIP3    H134570   0.652   0.592   1.566  0.4799 -0.4074  1.0416
 4337TIP3    H234571   0.688   0.542   1.428  1.0933  0.8738  0.7190
 4338TIP3   OH234572   0.450   5.338   1.785  0.3518  0.2749 -0.3160
 4338TIP3    H134573   0.453   5.252   1.827 -0.9363  0.9136  1.1892
 4338TIP3    H234574   0.359   5.348   1.758  0.8681  0.4692 -2.0646
 4339TIP3   OH234575   0.856   5.600   8.412  0.4566 -0.1025 -0.1523
 4339TIP3    H134576   0.858   5.528   8.475  1.7661 -0.5536 -0.6776
 4339TIP3    H234577   0.945   5.603   8.376  0.2888  1.4640 -0.5015
 4340TIP3   OH234578   2.089   6.571   2.098  0.4543 -0.0078 -0.5793
 4340TIP3    H134579   2.061   6.526   2.178  0.8902  0.0317 -0.4019
 4340TIP3    H234580   2.049   6.658   2.104  2.2833  0.8127  0.7120
 4341TIP3   OH234581   3.412   1.866   1.540 -0.1336  0.0735 -0.3290
 4341TIP3    H134582   3.438   1.942   1.591  1.9214 -0.9724  0.2754
 4341TIP3    H234583   3.462   1.872   1.458 -1.0659  0.1158 -0.9135
 4342TIP3   OH234584   1.450   2.468   2.021 -0.4639 -0.4396  0.0620
 4342TIP3    H134585   1.490   2.405   1.961  1.3335 -0.8231  1.5680
 4342TIP3    H234586   1.357   2.448   2.019  0.0523 -3.4006  0.6998
 4343TIP3   OH234587   4.522   3.698   3.280 -0.1597  0.0662  0.0825
 4343TIP3    H134588   4.590   3.735   3.336 -0.4963  0.5309  0.1885
 4343TIP3    H234589   4.441   3.742   3.307 -0.2532  0.6311 -1.0744
 4344TIP3   OH234590   1.117   2.662   8.365  0.1163 -0.3319 -0.2807
 4344TIP3    H134591   1.184   2.662   8.434 -0.5120  1.3745  0.3864
 4344TIP3    H234592   1.167   2.658   8.283  0.9727 -0.4500  0.2365
 4345TIP3   OH234593   3.610   3.032   2.100 -0.2666  0.5902 -0.4018
 4345TIP3    H134594   3.702   3.018   2.077  0.3503 -0.8537  2.5220
 4345TIP3    H234595   3.561   3.001   2.023  1.6404 -0.5444 -1.2236
 4346TIP3   OH234596   2.785   5.075   7.298  0.2025 -0.0380  0.9085
 4346TIP3    H134597   2.856   5.120   7.344 -0.7559  1.4000  1.0455
 4346TIP3    H234598   2.706   5.105   7.341 -0.5880 -0.3445 -0.2792
 4347TIP3   OH234599   6.189   1.338   2.870 -0.3695 -0.1179 -0.2279
 4347TIP3    H134600   6.125   1.273   2.901 -0.7300  0.8447  1.1236
 4347TIP3    H234601   6.274   1.296   2.884 -0.6060 -0.3950  0.4395
 4348TIP3   OH234602   3.565   6.743   7.305  0.1058  0.2077 -0.3915
 4348TIP3    H134603   3.660   6.739   7.305  0.1323 -0.1805 -2.0667
 4348TIP3    H234604   3.544   6.829   7.339  1.1312  0.9335 -1.5110
 4349TIP3   OH234605   1.939   1.834   8.263 -0.7579  0.0420 -0.4283
 4349TIP3    H134606   1.884   1.766   8.302  0.0721 -1.2054 -1.3273
 4349TIP3    H234607   1.934   1.907   8.324 -3.7695  0.1825 -0.7273
 4350TIP3   OH234608   5.983   0.055   8.064 -0.0190 -0.8020 -0.2131
 4350TIP3    H134609   5.913   0.011   8.017  0.1337 -0.5096 -0.7229
 4350TIP3    H234610   5.990   0.141   8.023  0.0698 -0.5096  0.3960
 4351TIP3   OH234611   0.447   3.333   2.344  0.0090 -0.3500 -0.6235
 4351TIP3    H134612   0.509   3.398   2.310  0.0250 -0.0142  0.0191
 4351TIP3    H234613   0.500   3.257   2.364  0.1621 -0.1975 -0.4365
 4352TIP3   OH234614   6.631   3.494   7.536  0.1195  0.2567 -0.3070
 4352TIP3    H134615   6.562   3.491   7.470  0.3088 -1.1072 -0.4660
 4352TIP3    H234616   6.617   3.417   7.590  0.5704  0.8242  0.6474
 4353TIP3   OH234617   1.695   4.380   1.961  0.1158  0.8309 -0.1480
 4353TIP3    H134618   1.678   4.361   2.053 -0.7366 -1.4724 -0.6953
 4353TIP3    H234619   1.750   4.457   1.961  0.2825  0.7658  2.2946
 4354TIP3   OH234620   1.976   2.566   7.531 -0.5663  0.7212  0.1061
 4354TIP3    H134621   1.982   2.489   7.588 -2.6324  0.3802 -0.0759
 4354TIP3    H234622   1.912   2.542   7.464  0.5989  1.7129 -1.4510
 4355TIP3   OH234623   6.594   3.909   2.477 -0.5001 -0.0126 -0.1563
 4355TIP3    H134624   6.575   4.002   2.475  0.2800  0.1483 -0.5570
 4355TIP3    H234625   6.533   3.873   2.542 -0.5665  0.8295  0.2601
 4356TIP3   OH234626   1.726   4.367   0.932  0.0145  0.3360  0.5154
 4356TIP3    H134627   1.797   4.338   0.989  1.2039 -2.3327 -2.0464
 4356TIP3    H234628   1.676   4.287   0.915 -0.7232  1.1839 -1.5103
 4357TIP3   OH234629   4.651   2.600   3.036  0.1770 -0.5920 -0.2536
 4357TIP3    H134630   4.638   2.589   3.130 -1.1072 -0.1759 -0.3582
 4357TIP3    H234631   4.745   2.617   3.027  0.0930  0.8753  1.1151
 4358TIP3   OH234632   5.490   5.026   1.258 -0.2366  0.0992 -0.0105
 4358TIP3    H134633   5.438   5.106   1.252  0.9547  0.8874 -0.1343
 4358TIP3    H234634   5.527   5.015   1.170 -1.6691 -1.5239 -0.4828
 4359TIP3   OH234635   6.778   3.027   2.439  0.3299  0.1807 -0.2324
 4359TIP3    H134636   6.717   3.044   2.368  0.5742  1.7252 -0.1217
 4359TIP3    H234637   6.825   2.948   2.412  0.8685  1.0707 -2.1271
 4360TIP3   OH234638   3.568   5.767   2.565  0.5413  0.1778 -0.1886
 4360TIP3    H134639   3.621   5.704   2.517  0.0049  0.9135 -1.8305
 4360TIP3    H234640   3.520   5.714   2.629  2.5158 -0.6040  0.7039
 4361TIP3   OH234641   1.157   1.006   8.002 -0.1232 -0.8307 -0.5420
 4361TIP3    H134642   1.134   0.946   7.932  1.7331 -0.8506 -1.1822
 4361TIP3    H234643   1.167   0.951   8.079 -3.7969 -0.6241  0.2490
 4362TIP3   OH234644   1.580   6.297   0.314 -0.1168  0.2373 -0.4048
 4362TIP3    H134645   1.562   6.206   0.336 -1.7638  0.8333  0.9185
 4362TIP3    H234646   1.502   6.326   0.265 -0.3199  1.3256  0.5100
 4363TIP3   OH234647   1.250   3.155   2.204 -0.1086  0.3850  0.2594
 4363TIP3    H134648   1.162   3.118   2.198 -0.3891  1.1488 -0.6171
 4363TIP3    H234649   1.259   3.181   2.296 -0.7053  0.0757  0.4072
 4364TIP3   OH234650   5.540   4.596   1.276 -0.5479 -0.2609  0.5931
 4364TIP3    H134651   5.589   4.677   1.287 -0.7820  0.1393 -1.0575
 4364TIP3    H234652   5.530   4.586   1.181 -0.8777 -2.0117  0.7723
 4365TIP3   OH234653   2.970   3.700   2.735 -0.2250 -0.1273  0.3852
 4365TIP3    H134654   2.975   3.794   2.716 -0.4170 -0.0609  0.6482
 4365TIP3    H234655   3.027   3.687   2.810  0.7222 -0.4320 -0.3753
 4366TIP3   OH234656   3.240   3.704   1.318 -0.5984  0.1937 -0.2609
 4366TIP3    H134657   3.162   3.666   1.277 -0.4820 -0.1764 -0.1400
 4366TIP3    H234658   3.270   3.770   1.256  0.2098 -1.1004 -1.2871
 4367TIP3   OH234659   4.443   6.167   2.988  0.1156  0.2563  0.4576
 4367TIP3    H134660   4.532   6.176   2.956 -0.5934  1.2650 -1.4334
 4367TIP3    H234661   4.409   6.091   2.942 -0.3872  0.6559  0.1573
 4368TIP3   OH234662   6.593   5.862   7.998  0.1745 -0.2700  0.1166
 4368TIP3    H134663   6.682   5.875   8.031  1.1283 -2.7716 -1.1285
 4368TIP3    H234664   6.597   5.891   7.907 -1.0182  1.8581  0.6865
 4369TIP3   OH234665   0.376   3.213   8.401 -0.4703  0.4412  0.2551
 4369TIP3    H134666   0.376   3.147   8.331 -0.2408  2.0219 -1.3034
 4369TIP3    H234667   0.284   3.238   8.410 -0.2598  1.9036 -1.1894
 4370TIP3   OH234668   1.431   0.399   0.493  0.3527 -0.4180 -0.3561
 4370TIP3    H134669   1.386   0.329   0.445  2.0410 -1.3323 -0.6580
 4370TIP3    H234670   1.438   0.366   0.582  0.7668 -0.4498 -0.3999
 4371TIP3   OH234671   2.920   6.517   8.066 -0.1051  0.0397 -0.0770
 4371TIP3    H134672   3.012   6.507   8.042 -0.3798  0.7560 -1.5480
 4371TIP3    H234673   2.895   6.604   8.032 -1.5898 -0.5823 -0.7077
 4372TIP3   OH234674   6.790   5.885   1.302  0.1084 -0.1772 -0.6290
 4372TIP3    H134675   6.784   5.958   1.364 -1.4692  0.9908 -2.0711
 4372TIP3    H234676   6.727   5.907   1.233 -0.5443 -2.9904 -1.0434
 4373TIP3   OH234677   3.078   4.862   8.064  0.3478 -0.5774 -0.4742
 4373TIP3    H134678   3.075   4.928   8.133 -0.9382  0.8609 -1.8331
 4373TIP3    H234679   3.008   4.801   8.087 -1.3378  0.9107 -1.3930
 4374TIP3   OH234680   2.021   3.476   8.458 -0.5444 -0.1531  0.5044
 4374TIP3    H134681   2.101   3.469   8.510 -1.7555  0.5113  2.5995
 4374TIP3    H234682   1.959   3.519   8.517 -1.9894  0.7534 -1.5838
 4375TIP3   OH234683   1.392   4.589   0.271  0.2122 -0.1904 -0.4573
 4375TIP3    H134684   1.450   4.566   0.199  0.5868 -0.5178 -0.0636
 4375TIP3    H234685   1.391   4.510   0.327  0.1402  0.1454  0.0222
 4376TIP3   OH234686   0.983   4.375   8.633 -0.1191  0.4398  0.0460
 4376TIP3    H134687   0.996   4.332   8.718 -1.4293  0.2482  0.1822
 4376TIP3    H234688   0.898   4.419   8.643 -0.0893  0.7449 -1.0310
 4377TIP3   OH234689   0.653   0.599   7.147  0.1223  0.1405  0.9898
 4377TIP3    H134690   0.587   0.536   7.119  0.9382 -0.8766  1.2748
 4377TIP3    H234691   0.731   0.546   7.164  0.8871  1.2546  1.0775
 4378TIP3   OH234692   5.039   4.933   0.135  0.0977  0.4050 -0.6640
 4378TIP3    H134693   5.109   4.886   0.182 -1.1047 -4.3796 -3.0625
 4378TIP3    H234694   5.076   4.950   0.049 -0.9620 -0.2156 -1.2536
 4379TIP3   OH234695   4.411   2.172   0.550  0.1745  0.3286 -0.3158
 4379TIP3    H134696   4.374   2.259   0.537 -1.4332 -0.0296  1.3534
 4379TIP3    H234697   4.362   2.136   0.625  2.2021 -1.2176  0.3649
 4380TIP3   OH234698   4.016   3.971   1.675 -0.0789  0.0119  0.1278
 4380TIP3    H134699   4.084   3.929   1.729  0.0230 -1.2855 -0.9688
 4380TIP3    H234700   4.064   4.012   1.604 -0.3938 -0.3727 -0.3096
 4381TIP3   OH234701   4.103   0.983   0.734 -0.6490  0.2229 -0.5579
 4381TIP3    H134702   4.038   1.015   0.670 -0.8976  0.4480 -0.1996
 4381TIP3    H234703   4.115   0.891   0.711 -3.1780 -0.6181  1.0531
 4382TIP3   OH234704   3.186   0.367   3.615 -0.3484 -0.0342  0.4102
 4382TIP3    H134705   3.094   0.390   3.601 -0.1877  0.7666  0.6431
 4382TIP3    H234706   3.213   0.417   3.692  0.2708 -0.3070  0.3819
 4383TIP3   OH234707   0.614   1.010   7.467  0.1791 -0.6808  0.3530
 4383TIP3    H134708   0.658   0.969   7.392  0.4467  2.7251 -1.5386
 4383TIP3    H234709   0.523   1.018   7.440 -0.4168 -2.1689  1.7469
 4384TIP3   OH234710   4.293   2.852   1.950  0.0795  0.4029  0.8821
 4384TIP3    H134711   4.221   2.793   1.970  1.2196 -1.0218  0.9056
 4384TIP3    H234712   4.282   2.925   2.011 -1.8275  0.6749  0.2953
 4385TIP3   OH234713   3.441   6.358   2.560  0.0702  0.7168 -0.0998
 4385TIP3    H134714   3.451   6.381   2.467 -0.0417 -0.3282 -0.3904
 4385TIP3    H234715   3.458   6.439   2.607  2.5973  0.7505 -0.9161
 4386TIP3   OH234716   1.703   5.148   0.352  0.2518  0.4206 -0.4817
 4386TIP3    H134717   1.631   5.191   0.306 -0.0855 -1.0486 -1.3660
 4386TIP3    H234718   1.741   5.089   0.288  1.0074 -0.2657  0.5677
 4387TIP3   OH234719   4.718   5.613   7.976  0.1289 -0.4504 -0.1411
 4387TIP3    H134720   4.674   5.529   7.982  1.8897 -1.5404 -1.5071
 4387TIP3    H234721   4.695   5.646   7.889  0.7663 -0.3133 -0.2634
 4388TIP3   OH234722   4.963   1.433   8.508  0.1526 -0.5909 -0.0199
 4388TIP3    H134723   4.997   1.429   8.598  0.9041 -1.3212 -0.3194
 4388TIP3    H234724   4.963   1.526   8.486  1.1771 -0.5014  0.2970
 4389TIP3   OH234725   2.574   2.394   8.074 -0.0374 -0.5095  0.3040
 4389TIP3    H134726   2.586   2.446   7.994 -2.2037 -1.2589 -0.5785
 4389TIP3    H234727   2.579   2.458   8.145  1.0462  0.3068 -0.4810
 4390TIP3   OH234728   1.231   0.536   8.732  0.5040  0.5129 -0.0646
 4390TIP3    H134729   1.255   0.443   8.724 -0.7282  0.3517 -3.3685
 4390TIP3    H234730   1.280   0.579   8.663 -0.2668  2.0424  0.3058
 4391TIP3   OH234731   6.796   0.857   7.643 -0.3895 -0.0890  0.1962
 4391TIP3    H134732   6.879   0.857   7.691  0.1253  0.1122 -0.6622
 4391TIP3    H234733   6.736   0.806   7.698  0.1992  0.0588  0.9977
 4392TIP3   OH234734   6.238   0.467   0.450 -0.2550 -0.3003 -0.0503
 4392TIP3    H134735   6.183   0.416   0.509 -0.5890 -0.9927 -0.9401
 4392TIP3    H234736   6.266   0.542   0.502 -2.0305  0.0797  0.4314
 4393TIP3   OH234737   2.712   3.445   2.072 -0.3777  0.4250 -0.6047
 4393TIP3    H134738   2.672   3.495   2.143  0.7782  0.9344 -0.2883
 4393TIP3    H234739   2.779   3.504   2.036  2.8265 -1.6684  1.3998
 4394TIP3   OH234740   3.477   0.861   2.053  0.1649 -0.7561  0.3956
 4394TIP3    H134741   3.439   0.794   1.996  1.7113  0.5929 -2.3970
 4394TIP3    H234742   3.402   0.913   2.082 -0.5800  0.2792 -2.8964
 4395TIP3   OH234743   1.664   2.109   8.667 -0.2198  0.0190  0.0639
 4395TIP3    H134744   1.718   2.041   8.708  1.0011  0.0105 -1.4485
 4395TIP3    H234745   1.705   2.123   8.582 -1.7958  1.0565 -0.5632
 4396TIP3   OH234746   3.267   1.421   7.786 -0.0356  0.3168  0.1223
 4396TIP3    H134747   3.223   1.464   7.712 -0.4324  0.2476  0.3125
 4396TIP3    H234748   3.214   1.445   7.862  1.3488  1.8417  0.6598
 4397TIP3   OH234749   3.101   2.015   1.500 -0.5682  0.9838  0.2821
 4397TIP3    H134750   3.090   1.996   1.593  2.1321 -0.8895  0.3362
 4397TIP3    H234751   3.125   2.108   1.498  2.7256  0.3124  1.9321
 4398TIP3   OH234752   1.110   4.934   7.612 -0.3779  0.1645  0.1158
 4398TIP3    H134753   1.151   4.880   7.544  0.4901  1.7506 -0.6999
 4398TIP3    H234754   1.016   4.915   7.605 -0.2688  0.0287 -1.3135
 4399TIP3   OH234755   6.748   0.087   2.716  0.2915 -0.4802  0.2657
 4399TIP3    H134756   6.818   0.038   2.759 -1.0167 -1.4892  1.3330
 4399TIP3    H234757   6.680   0.021   2.698 -0.9805  0.7021  0.5644
 4400TIP3   OH234758   0.807   0.319   8.261  0.4621  0.4759 -0.2168
 4400TIP3    H134759   0.783   0.281   8.345  1.8301  0.8862  0.3840
 4400TIP3    H234760   0.784   0.252   8.197  2.0057 -1.0372  0.7396
 4401TIP3   OH234761   1.861   4.452   3.473  0.2571 -0.1519  0.1350
 4401TIP3    H134762   1.846   4.358   3.474 -0.1734 -0.0883  1.5647
 4401TIP3    H234763   1.955   4.462   3.491  0.0195 -0.2791  1.5126
 4402TIP3   OH234764   0.539   1.236   8.211  0.0109  0.4277 -0.3208
 4402TIP3    H134765   0.540   1.176   8.286  1.3341  0.1030 -0.5639
 4402TIP3    H234766   0.473   1.200   8.152  1.0306 -1.0457 -0.6257
 4403TIP3   OH234767   0.326   3.318   7.746 -0.4222  0.3019 -0.1598
 4403TIP3    H134768   0.365   3.233   7.766 -2.4652 -0.6749 -0.0928
 4403TIP3    H234769   0.298   3.353   7.830  1.6985  1.7989  0.0185
 4404TIP3   OH234770   6.139   5.048   0.305  0.0322 -0.5143  0.8190
 4404TIP3    H134771   6.194   5.083   0.236 -1.7248  3.8923  1.3153
 4404TIP3    H234772   6.176   5.083   0.386 -0.0235 -2.6175  1.8243
 4405TIP3   OH234773   4.393   4.287   2.433 -0.3500 -0.5360 -0.2046
 4405TIP3    H134774   4.411   4.281   2.527  0.2983 -1.9137 -0.3903
 4405TIP3    H234775   4.405   4.379   2.412  0.6955 -0.4122  0.8359
 4406TIP3   OH234776   5.236   2.094   1.733  0.1159 -0.1394 -0.3474
 4406TIP3    H134777   5.291   2.016   1.723  0.1258  0.0543 -2.2539
 4406TIP3    H234778   5.297   2.167   1.738  0.0699 -0.1121 -0.1608
 4407TIP3   OH234779   0.959   0.766   2.899  0.2382 -0.1023  0.2430
 4407TIP3    H134780   0.950   0.858   2.873 -0.9222 -0.3341 -0.2340
 4407TIP3    H234781   0.891   0.753   2.964  1.0645 -0.3737  1.0678
 4408TIP3   OH234782   1.683   3.879   7.757 -0.0663 -0.1423  0.2827
 4408TIP3    H134783   1.746   3.821   7.801  2.4752  1.7847 -0.5772
 4408TIP3    H234784   1.708   3.967   7.786 -0.0116  0.9871 -2.8568
 4409TIP3   OH234785   2.047   4.059   8.683  0.4393 -0.2643 -0.5016
 4409TIP3    H134786   1.990   4.113   8.739 -0.0492  0.4185 -1.6182
 4409TIP3    H234787   2.090   3.999   8.743  0.7730  1.1845  0.7637
 4410TIP3   OH234788   1.791   5.829   0.098 -0.3314  0.0119 -0.1736
 4410TIP3    H134789   1.756   5.787   0.020 -1.5344 -0.6171  0.6724
 4410TIP3    H234790   1.814   5.756   0.156 -0.9228  0.4878  0.6743
 4411TIP3   OH234791   2.992   5.232   8.623 -0.0064 -0.2923 -0.5251
 4411TIP3    H134792   2.915   5.179   8.604 -0.6699  0.5095 -0.1206
 4411TIP3    H234793   3.066   5.173   8.607 -0.6464 -0.7457 -1.9846
 4412TIP3   OH234794   4.261   6.824   1.669  0.2290 -0.4984  0.0218
 4412TIP3    H134795   4.247   6.887   1.598  1.5708  0.2521  0.3858
 4412TIP3    H234796   4.268   6.878   1.748  2.2931 -0.9711  0.2288
 4413TIP3   OH234797   6.491   2.301   3.166 -0.3623 -0.2712 -0.2942
 4413TIP3    H134798   6.521   2.288   3.076 -1.5772 -0.9027 -0.6181
 4413TIP3    H234799   6.398   2.280   3.164 -0.7263  1.0515  0.8183
 4414TIP3   OH234800   5.743   6.659   0.119 -0.1799  0.0312 -0.6465
 4414TIP3    H134801   5.760   6.638   0.210  1.3071 -0.6522 -1.0478
 4414TIP3    H234802   5.692   6.740   0.122 -1.1968 -0.6214  0.7924
 4415TIP3   OH234803   0.191   2.024   1.975  0.2867 -0.0592 -0.1500
 4415TIP3    H134804   0.154   1.942   2.008 -1.4850  0.6154 -0.2917
 4415TIP3    H234805   0.258   1.998   1.912 -1.4010 -1.4367 -1.4702
 4416TIP3   OH234806   0.872   3.278   0.474 -0.0946 -0.4104 -0.5713
 4416TIP3    H134807   0.927   3.314   0.404  1.1817 -0.8722  0.1580
 4416TIP3    H234808   0.850   3.354   0.529 -0.7468 -0.1192 -1.2130
 4417TIP3   OH234809   6.176   1.689   0.704 -0.1226  0.5160  0.1913
 4417TIP3    H134810   6.130   1.627   0.648  0.5907 -0.1094  0.2979
 4417TIP3    H234811   6.157   1.775   0.665 -0.0876  0.1320 -0.6699
 4418TIP3   OH234812   4.865   6.273   1.192 -0.4465 -0.4584 -0.0350
 4418TIP3    H134813   4.950   6.306   1.221 -0.2971 -0.2072 -0.7449
 4418TIP3    H234814   4.803   6.341   1.217 -0.2823 -0.1218 -0.5386
 4419TIP3   OH234815   6.236   0.771   1.429 -0.0359  0.3698 -0.5145
 4419TIP3    H134816   6.221   0.687   1.387 -0.1418 -0.1758  0.5974
 4419TIP3    H234817   6.152   0.815   1.426  0.0506  0.4967 -1.2117
 4420TIP3   OH234818   3.224   4.316   2.495 -0.5155 -0.1365 -0.0595
 4420TIP3    H134819   3.144   4.323   2.442 -1.1666 -2.4916  0.4751
 4420TIP3    H234820   3.193   4.320   2.586  0.3699  1.8868  0.2118
 4421TIP3   OH234821   0.060   0.515   1.848  0.2382 -0.1382  0.1630
 4421TIP3    H134822   0.088   0.426   1.830 -3.0238 -1.7460  2.1348
 4421TIP3    H234823   0.114   0.543   1.923 -0.0945 -1.2874  0.8522
 4422TIP3   OH234824   2.724   2.048   8.592  0.0536  0.2173 -0.1207
 4422TIP3    H134825   2.806   2.013   8.629 -0.4926 -0.8923  0.0559
 4422TIP3    H234826   2.709   1.996   8.513 -0.6484  0.2092  0.0186
 4423TIP3   OH234827   0.294   4.745   8.199 -0.1627 -0.0467  0.2121
 4423TIP3    H134828   0.305   4.761   8.106  3.9024 -4.2116 -0.3946
 4423TIP3    H234829   0.232   4.672   8.204 -1.6171  1.1814  1.0254
 4424TIP3   OH234830   4.996   0.275   2.306  0.1126 -0.6571 -0.4235
 4424TIP3    H134831   5.082   0.262   2.265 -0.1929 -0.3834 -1.1635
 4424TIP3    H234832   5.004   0.357   2.354 -0.5864  0.8932 -2.8367
 4425TIP3   OH234833   1.160   1.018   2.344  0.1132  0.2257  0.1267
 4425TIP3    H134834   1.209   1.089   2.302 -0.4102 -0.1040 -1.1037
 4425TIP3    H234835   1.210   0.997   2.423  0.6955  1.4291  0.0980
 4426TIP3   OH234836   0.812   6.439   0.267  0.0805  0.3692  0.1716
 4426TIP3    H134837   0.887   6.382   0.247 -0.4767 -0.0698 -0.7276
 4426TIP3    H234838   0.842   6.526   0.243  0.3856  0.2321  0.0378
 4427TIP3   OH234839   1.846   4.235   0.065 -0.3045 -0.1904  0.7200
 4427TIP3    H134840   1.795   4.214  -0.013  0.6145 -0.2955  0.1338
 4427TIP3    H234841   1.787   4.214   0.138 -1.4096  0.5403  0.0630
 4428TIP3   OH234842   2.485   6.072   0.822  0.1699 -0.8335 -0.0498
 4428TIP3    H134843   2.431   6.133   0.874 -0.5333 -1.4166 -0.0812
 4428TIP3    H234844   2.422   6.027   0.766  0.6474 -1.7746  0.1539
 4429TIP3   OH234845   0.363   6.511   2.394  0.2071 -0.2813  0.3445
 4429TIP3    H134846   0.410   6.550   2.320 -0.7124 -0.5096 -0.3892
 4429TIP3    H234847   0.418   6.438   2.422  1.3015  0.7223  0.8813
 4430TIP3   OH234848   6.632   4.870   2.158  0.4488  0.1621  0.2460
 4430TIP3    H134849   6.648   4.937   2.092 -1.2689 -0.4649 -0.8649
 4430TIP3    H234850   6.617   4.919   2.239 -1.1007  1.1846 -0.6103
 4431TIP3   OH234851   2.514   0.415   2.988 -0.1546  0.5814  0.2417
 4431TIP3    H134852   2.430   0.455   3.009  0.2408  1.0999  0.8488
 4431TIP3    H234853   2.577   0.458   3.046  0.4818 -0.0189  0.0105
 4432TIP3   OH234854   0.264   2.660   8.644  0.2259  0.4971 -0.1421
 4432TIP3    H134855   0.274   2.565   8.641 -0.5670  0.4161 -0.4140
 4432TIP3    H234856   0.279   2.688   8.554  0.5409  0.6495 -0.0460
 4433TIP3   OH234857   5.104   5.069   1.250 -0.2617 -0.5346 -0.1402
 4433TIP3    H134858   5.172   5.009   1.280 -0.2635 -0.7264 -0.5135
 4433TIP3    H234859   5.152   5.149   1.226 -0.4502  0.3894  2.2699
 4434TIP3   OH234860   1.834   1.653   8.543 -0.2610 -0.6868  0.3902
 4434TIP3    H134861   1.860   1.682   8.630 -0.5874 -0.8010  0.5250
 4434TIP3    H234862   1.899   1.586   8.520  0.3263 -0.0620  0.1950
 4435TIP3   OH234863   3.033   6.532   2.851 -0.1339  0.3991  0.4353
 4435TIP3    H134864   3.128   6.543   2.845  0.5150 -3.1031  1.7890
 4435TIP3    H234865   3.012   6.546   2.943 -0.4092 -1.3933  0.6936
 4436TIP3   OH234866   3.818   2.574   2.575 -0.0566 -0.3665  0.0092
 4436TIP3    H134867   3.803   2.514   2.501  1.5295  0.0781 -0.7272
 4436TIP3    H234868   3.828   2.660   2.534  1.8361 -0.2608  0.5876
 4437TIP3   OH234869   1.529   1.645   2.719  0.3322 -0.0262 -0.1937
 4437TIP3    H134870   1.598   1.631   2.783 -1.0146 -0.8332  1.1357
 4437TIP3    H234871   1.508   1.738   2.726 -0.4365 -0.2779  1.2578
 4438TIP3   OH234872   6.700   4.330   0.443 -0.1826 -0.1505  0.3815
 4438TIP3    H134873   6.795   4.340   0.442 -0.3271  1.8790  1.6057
 4438TIP3    H234874   6.666   4.416   0.415 -1.6714 -1.0359 -0.7084
 4439TIP3   OH234875   0.002   5.441   1.968  0.0836  0.0167  0.3275
 4439TIP3    H134876  -0.078   5.405   2.006  0.9966 -2.0120  0.4553
 4439TIP3    H234877   0.049   5.365   1.933  0.8972  1.4016 -1.8201
 4440TIP3   OH234878   1.347   4.687   0.827 -0.2239 -0.0462  0.0915
 4440TIP3    H134879   1.425   4.686   0.883 -0.5508  1.4993  0.6081
 4440TIP3    H234880   1.360   4.613   0.768  1.1934 -0.3781  0.7652
 4441TIP3   OH234881   1.462   3.732   7.896  0.2684  0.3216 -0.5282
 4441TIP3    H134882   1.513   3.668   7.847  1.2526  0.0908  0.7475
 4441TIP3    H234883   1.527   3.781   7.948 -0.8288 -0.9472  2.2721
 4442TIP3   OH234884   0.205   3.914   0.659 -0.4479 -0.1457  0.1558
 4442TIP3    H134885   0.283   3.888   0.708 -0.7893 -1.1339  0.2058
 4442TIP3    H234886   0.234   3.919   0.568 -0.5827 -1.7367 -0.0014
 4443TIP3   OH234887   5.874   6.268   0.978 -0.1517 -0.5575 -0.3205
 4443TIP3    H134888   5.925   6.246   0.900 -0.4236  0.2539 -0.7408
 4443TIP3    H234889   5.938   6.278   1.048  0.4161  1.5895 -1.0915
 4444TIP3   OH234890   3.886   2.015   7.622  0.3846 -0.0357  0.3464
 4444TIP3    H134891   3.819   2.083   7.629 -0.8810 -1.3856  2.8475
 4444TIP3    H234892   3.934   2.021   7.705  2.7345  0.2006 -0.9628
 4445TIP3   OH234893   5.126   2.972   0.896 -0.0665 -0.0390  0.3926
 4445TIP3    H134894   5.136   2.926   0.979 -0.2363  0.7680  0.8655
 4445TIP3    H234895   5.057   2.923   0.851  0.2283 -0.6532  0.5957
 4446TIP3   OH234896   2.862   2.482   1.669 -0.1806  0.5834  0.1936
 4446TIP3    H134897   2.861   2.391   1.699  2.3970  0.4246  0.0059
 4446TIP3    H234898   2.802   2.528   1.728 -0.0600 -0.8693  1.4994
 4447TIP3   OH234899   1.163   5.980   0.061 -0.2146 -0.3210 -0.2882
 4447TIP3    H134900   1.115   5.898   0.050  1.3473 -1.4263  0.6773
 4447TIP3    H234901   1.206   5.971   0.146  1.0670  0.9211 -0.7681
 4448TIP3   OH234902   5.644   0.074   2.829 -0.3648 -0.4885  0.6927
 4448TIP3    H134903   5.650   0.143   2.763  0.0443 -0.5770  0.6358
 4448TIP3    H234904   5.677  -0.005   2.785 -1.8762 -0.9821  0.3925
 4449TIP3   OH234905   3.632   0.315   2.715  0.2994  0.2610  0.4714
 4449TIP3    H134906   3.634   0.257   2.791 -1.1053  0.0288  0.3634
 4449TIP3    H234907   3.622   0.403   2.752  2.6121  0.5105  0.6426
 4450TIP3   OH234908   2.508   3.045   7.197  0.1511  0.1554 -0.3154
 4450TIP3    H134909   2.438   3.103   7.168 -0.7897 -0.8915 -0.1971
 4450TIP3    H234910   2.521   2.984   7.124  2.8395  1.9116 -1.4951
 4451TIP3   OH234911   2.648   0.107   2.307 -0.0764  0.1368 -0.0700
 4451TIP3    H134912   2.741   0.098   2.330 -0.2170  0.4710  0.6350
 4451TIP3    H234913   2.613   0.169   2.370 -0.4460  1.1924 -1.2738
 4452TIP3   OH234914   0.883   4.153   7.895 -0.2353  0.4548 -0.2852
 4452TIP3    H134915   0.930   4.120   7.818  1.2770  0.5045  0.5823
 4452TIP3    H234916   0.799   4.185   7.861  0.0892 -0.2344 -1.7848
 4453TIP3   OH234917   3.200   5.844   0.569 -0.0403  0.7176 -0.0128
 4453TIP3    H134918   3.139   5.917   0.568  0.6508  1.3601  1.8801
 4453TIP3    H234919   3.286   5.884   0.572  0.5341 -0.1811 -2.2627
 4454TIP3   OH234920   0.409   0.873   1.097  0.6817  0.6613 -0.5001
 4454TIP3    H134921   0.354   0.836   1.028  0.3295  1.8886 -0.9167
 4454TIP3    H234922   0.409   0.967   1.078 -0.3770  1.1892  1.8265
 4455TIP3   OH234923   5.269   0.587   1.490  0.0425  0.0430 -0.3296
 4455TIP3    H134924   5.361   0.562   1.489 -0.3559 -2.0757  2.5975
 4455TIP3    H234925   5.270   0.680   1.511  1.5121  0.1418 -0.7192
 4456TIP3   OH234926   0.052   2.504   7.847  0.5079 -0.1645  0.1100
 4456TIP3    H134927  -0.023   2.553   7.814 -0.2795  0.0318  2.0370
 4456TIP3    H234928   0.089   2.461   7.770 -0.4784  1.1974 -1.1720
 4457TIP3   OH234929   3.594   5.243   0.583  0.4172 -0.0438  0.5048
 4457TIP3    H134930   3.532   5.231   0.511  1.3101 -1.4400 -0.0873
 4457TIP3    H234931   3.661   5.301   0.548 -0.4277  1.3286  1.0886
 4458TIP3   OH234932   0.471   5.629   0.217  0.5785 -0.1140 -0.7104
 4458TIP3    H134933   0.408   5.580   0.270  0.6019  1.3164  0.7005
 4458TIP3    H234934   0.491   5.570   0.144 -0.0981 -1.8163  0.4069
 4459TIP3   OH234935   5.123   5.761   8.695 -0.1014 -0.4264 -0.4280
 4459TIP3    H134936   5.086   5.844   8.663  1.1762 -0.5152 -2.2715
 4459TIP3    H234937   5.180   5.732   8.624 -1.4639 -3.5438 -0.3840
 4460TIP3   OH234938   3.413   1.748   7.744  0.4875 -0.5285  0.0093
 4460TIP3    H134939   3.338   1.704   7.704  0.7492 -1.4899  0.5505
 4460TIP3    H234940   3.420   1.710   7.831  1.2942 -0.0725  0.1571
 4461TIP3   OH234941   0.752   2.823   8.395 -0.4034 -0.9454  0.2169
 4461TIP3    H134942   0.664   2.810   8.359 -0.7015 -1.8649  1.2306
 4461TIP3    H234943   0.795   2.738   8.386  0.0614 -0.7581  0.6004
 4462TIP3   OH234944   4.880   2.853   2.545 -0.6593  0.2225  0.2067
 4462TIP3    H134945   4.841   2.917   2.486 -0.1556 -1.2079 -1.7657
 4462TIP3    H234946   4.974   2.874   2.545 -0.3399 -1.0741 -1.2453
 4463TIP3   OH234947   3.823   6.589   8.246 -0.4685 -0.0188 -0.0820
 4463TIP3    H134948   3.811   6.626   8.159 -1.8336 -0.2217 -0.0068
 4463TIP3    H234949   3.907   6.624   8.276 -0.3439  0.6573 -1.1709
 4464TIP3   OH234950   0.478   5.841   2.241  0.3136 -0.1915  0.4748
 4464TIP3    H134951   0.452   5.857   2.151  1.5159  0.2921  0.1916
 4464TIP3    H234952   0.524   5.756   2.238 -0.7968 -0.8304  0.8893
 4465TIP3   OH234953   2.849   3.837   1.231 -0.6113  0.3490 -0.4182
 4465TIP3    H134954   2.887   3.918   1.266 -1.7669  0.6099  0.2895
 4465TIP3    H234955   2.894   3.767   1.279 -1.8528  0.6910  1.3596
 4466TIP3   OH234956   4.857   0.182   0.017  0.1403 -0.5382 -0.4271
 4466TIP3    H134957   4.825   0.140  -0.063  1.6649 -1.6713 -0.5005
 4466TIP3    H234958   4.789   0.165   0.082 -0.3452 -1.0883 -1.0655
 4467TIP3   OH234959   4.370   6.557   2.483  0.1516  0.0354  0.0617
 4467TIP3    H134960   4.419   6.572   2.402 -0.2238 -1.9963 -0.6091
 4467TIP3    H234961   4.431   6.511   2.541  0.0096  0.2952  0.4212
 4468TIP3   OH234962   3.186   3.411   7.920 -0.2748 -0.3906  0.2763
 4468TIP3    H134963   3.155   3.321   7.929 -1.1470 -0.0139  1.1355
 4468TIP3    H234964   3.130   3.448   7.851  2.0191 -1.3199 -2.2685
 4469TIP3   OH234965   3.562   4.319   7.945  0.1694 -0.1473  0.0002
 4469TIP3    H134966   3.529   4.404   7.974  1.6224  0.6591 -0.6051
 4469TIP3    H234967   3.538   4.314   7.853 -0.3016 -0.6000  0.1442
 4470TIP3   OH234968   0.858   5.172   8.209  0.5254  0.2676 -0.1236
 4470TIP3    H134969   0.789   5.209   8.264  0.3334 -1.2824  0.7439
 4470TIP3    H234970   0.822   5.176   8.120 -0.4407  0.0508  0.2375
 4471TIP3   OH234971   0.531   0.001   1.990  0.0645 -0.3525  0.0599
 4471TIP3    H134972   0.501   0.047   1.912 -0.4672  0.1889  0.5662
 4471TIP3    H234973   0.460  -0.058   2.013  1.1956 -2.3154 -1.2285
 4472TIP3   OH234974   3.251   1.505   2.217 -0.2982 -0.3746  0.0434
 4472TIP3    H134975   3.322   1.463   2.267 -0.2073  0.1983  0.4003
 4472TIP3    H234976   3.179   1.513   2.280  0.0586  0.9920  0.2950
 4473TIP3   OH234977   2.669   4.176   7.356 -0.0165  0.3085 -0.1300
 4473TIP3    H134978   2.739   4.189   7.292 -1.1764  0.8470 -1.3354
 4473TIP3    H234979   2.592   4.216   7.316 -1.6870 -2.5201 -0.0524
 4474TIP3   OH234980   4.325   3.720   0.777 -0.1938  0.3342 -0.7082
 4474TIP3    H134981   4.303   3.750   0.689 -4.0420  1.6844  0.5615
 4474TIP3    H234982   4.366   3.796   0.819 -0.0852  0.2854 -0.7231
 4475TIP3   OH234983   0.497   0.631   1.205 -0.6765  0.1854 -0.0947
 4475TIP3    H134984   0.554   0.590   1.140 -0.3306  0.5205 -0.0024
 4475TIP3    H234985   0.528   0.721   1.212 -0.9059  0.2350  0.3159
 4476TIP3   OH234986   2.172   6.693   8.240 -0.0014 -0.6613 -0.0978
 4476TIP3    H134987   2.176   6.697   8.144  0.3339  0.5514 -0.0601
 4476TIP3    H234988   2.169   6.600   8.260  0.0280 -0.9426 -1.2829
 4477TIP3   OH234989   2.910   2.730   0.887 -0.3894 -0.4393  0.0149
 4477TIP3    H134990   2.950   2.782   0.818  0.3182 -1.1741 -0.1421
 4477TIP3    H234991   2.865   2.794   0.942 -2.9053 -0.0083 -2.3297
 4478TIP3   OH234992   5.044   3.284   2.116  0.0545  0.1405 -0.1877
 4478TIP3    H134993   4.958   3.324   2.128  0.0076 -0.1285  0.4627
 4478TIP3    H234994   5.042   3.207   2.172  1.0997  0.7230  0.6967
 4479TIP3   OH234995   2.061   1.901   0.596 -0.4414 -0.1913  0.1936
 4479TIP3    H134996   2.093   1.833   0.537  3.5440 -1.6679  3.5148
 4479TIP3    H234997   2.033   1.853   0.674 -0.8042  1.8458  1.3807
 4480TIP3   OH234998   3.279   4.190   0.051  0.3538 -0.2611 -0.0162
 4480TIP3    H134999   3.296   4.279   0.082 -0.1183  0.1457 -0.8659
 4480TIP3    H235000   3.306   4.133   0.123 -1.0737  0.6471  1.2965
 4481TIP3   OH235001   2.552   6.618   8.039  0.3955  0.5658  0.3714
 4481TIP3    H135002   2.473   6.660   8.003 -1.3583 -2.3180  0.5089
 4481TIP3    H235003   2.616   6.623   7.969 -1.6419 -1.4146 -1.8063
 4482TIP3   OH235004   5.302   4.656   8.372  0.2949 -0.1756 -0.1465
 4482TIP3    H135005   5.270   4.579   8.324 -0.6679  0.0836  0.0582
 4482TIP3    H235006   5.236   4.671   8.439  0.9946  0.2275  0.4673
 4483TIP3   OH235007   3.849   0.979   0.046  0.6140 -0.4784 -0.1833
 4483TIP3    H135008   3.855   0.931  -0.036  1.9853 -0.2101 -0.2625
 4483TIP3    H235009   3.805   1.061   0.023  0.8557 -0.4707 -0.6216
 4484TIP3   OH235010   6.695   0.277   8.248 -0.0243  0.3266 -0.7808
 4484TIP3    H135011   6.657   0.294   8.161  0.1419 -1.2754 -1.1928
 4484TIP3    H235012   6.789   0.291   8.236 -0.1775  2.1635 -0.2915
 4485TIP3   OH235013   2.084   2.397   2.958  0.8676 -0.3609  0.3120
 4485TIP3    H135014   2.044   2.458   3.021  0.7984  0.6650 -0.6876
 4485TIP3    H235015   2.178   2.417   2.962  0.6062  2.1805 -2.2794
 4486TIP3   OH235016   1.313   3.859   0.708  0.4764 -0.0786 -0.3462
 4486TIP3    H135017   1.277   3.893   0.790 -3.0143  0.6987 -1.9933
 4486TIP3    H235018   1.332   3.937   0.656 -1.1698 -0.5180 -1.6848
 4487TIP3   OH235019   4.328   0.461   0.894 -0.2629 -0.3336  0.3300
 4487TIP3    H135020   4.363   0.389   0.946  1.8916 -0.2330 -0.8623
 4487TIP3    H235021   4.317   0.533   0.956  0.4432 -0.7882  0.9996
 4488TIP3   OH235022   5.500   1.097   1.653 -0.8222  0.4915 -0.1293
 4488TIP3    H135023   5.576   1.045   1.679 -0.7233  0.0175 -1.3344
 4488TIP3    H235024   5.537   1.173   1.609 -1.0360 -0.2753 -1.7040
 4489TIP3   OH235025   5.580   5.707   3.352  0.7832  0.8327  0.4644
 4489TIP3    H135026   5.595   5.800   3.332 -0.7509  1.1752  0.7926
 4489TIP3    H235027   5.508   5.707   3.415  1.7336 -0.5251  1.5930
 4490TIP3   OH235028   1.944   2.947   1.398  0.2241 -0.1083 -0.5266
 4490TIP3    H135029   1.914   2.932   1.308  1.2675 -0.0791 -0.8882
 4490TIP3    H235030   2.025   2.996   1.389  1.4786 -1.9083  0.3358
 4491TIP3   OH235031   5.993   0.257   2.714  0.2642  0.3703  0.7267
 4491TIP3    H135032   5.898   0.268   2.728  0.3727  0.1256  1.7738
 4491TIP3    H235033   6.033   0.301   2.789  0.9552 -0.1300  0.6605
 4492TIP3   OH235034   2.738   1.525   2.421  0.3405 -0.4455 -0.0820
 4492TIP3    H135035   2.713   1.580   2.347  0.3682 -0.2854  0.0284
 4492TIP3    H235036   2.702   1.569   2.497 -2.0902 -1.9902 -0.2143
 4493TIP3   OH235037   2.239   6.092   7.694  0.4312 -0.0026  0.3914
 4493TIP3    H135038   2.186   6.060   7.766  2.0507 -0.2311  1.5281
 4493TIP3    H235039   2.241   6.187   7.706  2.8924 -0.2165  2.3156
 4494TIP3   OH235040   0.164   2.935   1.790  0.1491  0.5737  0.0762
 4494TIP3    H135041   0.257   2.955   1.801  0.5437 -1.7419  1.7305
 4494TIP3    H235042   0.121   2.981   1.862  0.8091 -2.5520  2.6840
 4495TIP3   OH235043   2.184   5.442   2.727 -0.6796  0.2421 -1.2954
 4495TIP3    H135044   2.217   5.512   2.671 -1.4913  2.4419  0.7897
 4495TIP3    H235045   2.094   5.469   2.748 -0.3616 -0.3700  1.1189
 4496TIP3   OH235046   1.094   5.869   0.479 -0.1913 -0.3950 -0.6738
 4496TIP3    H135047   1.033   5.925   0.431  0.2956 -0.0505 -0.8996
 4496TIP3    H235048   1.038   5.815   0.535 -0.8472 -1.5084 -2.3428
 4497TIP3   OH235049   5.219   2.560   1.297  0.6897  0.6988  0.0523
 4497TIP3    H135050   5.247   2.637   1.346  0.4814  1.3590 -0.8446
 4497TIP3    H235051   5.228   2.585   1.205  1.6939 -0.7316 -0.2900
 4498TIP3   OH235052   6.797   1.708   8.491 -0.0269  0.5498  0.5369
 4498TIP3    H135053   6.891   1.716   8.475 -0.1998  0.4748 -0.6131
 4498TIP3    H235054   6.756   1.758   8.420 -0.8866 -1.2119 -0.2678
 4499TIP3   OH235055   0.148   1.670   2.093 -0.4742  0.5269  0.0408
 4499TIP3    H135056   0.058   1.640   2.101 -0.4656  0.5708  0.2876
 4499TIP3    H235057   0.161   1.730   2.166  0.0343 -0.1613  0.5366
 4500TIP3   OH235058   2.576   3.409   1.824 -0.2141 -0.0933  0.0739
 4500TIP3    H135059   2.527   3.373   1.898  1.6087 -1.3520  0.7365
 4500TIP3    H235060   2.662   3.429   1.859  0.0062  1.4178 -1.2178
 4501TIP3   OH235061   4.968   4.872   2.444  0.4271 -0.3351 -0.4112
 4501TIP3    H135062   4.944   4.876   2.352  0.2065 -0.8992 -0.3788
 4501TIP3    H235063   4.891   4.836   2.488 -0.0813  1.4377  0.2250
 4502TIP3   OH235064   4.342   3.694   1.902 -0.5833  0.0257  0.1373
 4502TIP3    H135065   4.368   3.602   1.913  0.4672  0.2682 -0.2294
 4502TIP3    H235066   4.421   3.744   1.921 -0.8171  0.8073 -0.8477
 4503TIP3   OH235067   6.487   3.588   8.174  0.6121 -0.0965 -0.4881
 4503TIP3    H135068   6.540   3.602   8.253 -0.3628  0.3063  0.1024
 4503TIP3    H235069   6.431   3.665   8.169 -0.0380 -0.5990 -1.0172
 4504TIP3   OH235070   2.765   3.164   0.003 -0.5848  0.1010 -0.6939
 4504TIP3    H135071   2.734   3.194  -0.083 -0.1375 -1.6256 -1.5033
 4504TIP3    H235072   2.860   3.173  -0.001 -0.5524 -0.1162 -0.4444
 4505TIP3   OH235073   2.951   2.913   8.295 -0.2977 -0.2786 -0.1044
 4505TIP3    H135074   2.886   2.944   8.358  0.5774  1.0264  0.2035
 4505TIP3    H235075   2.906   2.917   8.210 -0.4057  1.3799  0.0016
 4506TIP3   OH235076   1.698   5.679   7.750  0.0645 -0.1026 -0.1835
 4506TIP3    H135077   1.613   5.646   7.724  1.1703 -1.9680 -1.6870
 4506TIP3    H235078   1.743   5.603   7.787  1.2102  0.7547  0.2528
 4507TIP3   OH235079   3.705   4.183   3.029  0.3920 -0.0809 -0.5845
 4507TIP3    H135080   3.757   4.106   3.049  0.1761 -0.7969 -2.5461
 4507TIP3    H235081   3.750   4.255   3.073  2.1181 -0.9220 -0.9116
 4508TIP3   OH235082   6.655   0.921   2.606 -0.0772 -0.1655  0.6452
 4508TIP3    H135083   6.579   0.969   2.638 -0.7994 -1.4738  0.9815
 4508TIP3    H235084   6.730   0.966   2.645 -0.7616  0.2580  1.5038
 4509TIP3   OH235085   1.013   0.607   7.356 -0.4175 -0.2070  0.0663
 4509TIP3    H135086   0.940   0.556   7.321 -0.5537  0.2669 -0.3490
 4509TIP3    H235087   0.989   0.698   7.339 -0.2463  0.0075  0.9344
 4510TIP3   OH235088   3.518   4.160   0.439 -0.1604  0.4865 -0.3389
 4510TIP3    H135089   3.527   4.149   0.534  0.1723  2.5973 -0.0823
 4510TIP3    H235090   3.602   4.197   0.411 -0.2550 -0.1092 -1.4663
 4511TIP3   OH235091   6.526   6.267   7.702  0.5252  0.0005 -0.3998
 4511TIP3    H135092   6.570   6.221   7.630  1.7987  0.9966 -0.2755
 4511TIP3    H235093   6.510   6.355   7.668  0.6264  0.3104  0.3492
 4512TIP3   OH235094   3.856   2.650   2.167 -0.1696  0.5733 -0.0006
 4512TIP3    H135095   3.787   2.618   2.109 -0.8333 -0.5917  1.3525
 4512TIP3    H235096   3.814   2.721   2.217 -0.0113  0.6731 -0.0063
 4513TIP3   OH235097   5.679   5.266   2.438 -0.5304  0.3888  0.0540
 4513TIP3    H135098   5.595   5.276   2.482  0.2708 -1.4832  2.1819
 4513TIP3    H235099   5.667   5.188   2.383 -0.6146  1.0251 -0.8620
 4514TIP3   OH235100   3.446   3.400   7.826 -0.1405  0.0675 -0.4079
 4514TIP3    H135101   3.464   3.487   7.789 -0.5129  0.2366 -0.1923
 4514TIP3    H235102   3.364   3.411   7.874 -0.6414 -0.6123 -1.0853
 4515TIP3   OH235103   5.105   3.212   0.005 -0.3350 -0.0828 -0.5399
 4515TIP3    H135104   5.039   3.233   0.071  0.2920  0.9619 -0.2123
 4515TIP3    H235105   5.183   3.260   0.033  0.0742  0.0420 -1.8018
 4516TIP3   OH235106   3.821   4.435   8.267  0.0899  0.0922  0.5566
 4516TIP3    H135107   3.822   4.343   8.294  0.4480  0.3233  1.3570
 4516TIP3    H235108   3.737   4.468   8.296  0.0879  0.0994  0.5431
 4517TIP3   OH235109   4.580   2.915   3.461  0.3109 -0.2412  0.2687
 4517TIP3    H135110   4.564   2.824   3.435  1.5526 -0.6842  0.9819
 4517TIP3    H235111   4.669   2.933   3.430 -0.1240  0.9267 -0.3542
 4518TIP3   OH235112   3.660   2.233   3.217  0.7250  0.4461 -0.5956
 4518TIP3    H135113   3.577   2.273   3.244  1.1269  0.8614  0.0350
 4518TIP3    H235114   3.634   2.151   3.175  0.0721 -0.1852  0.9668
 4519TIP3   OH235115   4.622   2.294   0.669  0.4523 -0.2120  0.5542
 4519TIP3    H135116   4.555   2.228   0.651  0.8827 -0.3516 -0.6475
 4519TIP3    H235117   4.651   2.323   0.583  1.2563  0.5507  1.0603
 4520TIP3   OH235118   4.721   0.442   8.500 -0.2221 -0.4199 -0.0242
 4520TIP3    H135119   4.767   0.456   8.416 -1.4954 -0.7070 -0.7922
 4520TIP3    H235120   4.675   0.359   8.488 -1.8820  0.4225  0.2824
 4521TIP3   OH235121   3.977   3.418   2.612 -1.1423 -0.0428  0.1302
 4521TIP3    H135122   4.028   3.498   2.608 -1.4654  0.1173 -2.0305
 4521TIP3    H235123   4.026   3.354   2.560 -0.5341 -1.5222  2.3730
 4522TIP3   OH235124   6.502   4.063   1.838  0.1348 -0.6909 -0.3602
 4522TIP3    H135125   6.560   4.011   1.782  0.4448 -0.3020 -0.4045
 4522TIP3    H235126   6.561   4.099   1.905 -0.1010 -0.5051 -0.2525
 4523TIP3   OH235127   5.085   2.885   0.357  0.4775  0.4539 -0.1621
 4523TIP3    H135128   5.039   2.838   0.427 -0.6588  1.1104 -0.4457
 4523TIP3    H235129   5.163   2.920   0.399  0.0854  0.3780  0.6513
 4524TIP3   OH235130   0.756   3.452   2.294 -0.5006 -1.1024 -0.7052
 4524TIP3    H135131   0.722   3.414   2.213 -1.4029  0.6902 -1.2234
 4524TIP3    H235132   0.835   3.402   2.312 -0.5899 -1.9307 -2.3777
 4525TIP3   OH235133   3.732   6.223   1.488 -0.0821  0.4195  0.2115
 4525TIP3    H135134   3.750   6.307   1.530 -0.6716  0.3326  0.6450
 4525TIP3    H235135   3.753   6.157   1.555 -0.6483  0.2662  0.2450
 4526TIP3   OH235136   4.513   1.725   2.862  0.4537 -0.7217 -0.1372
 4526TIP3    H135137   4.470   1.707   2.945 -1.8538  3.6898 -0.0836
 4526TIP3    H235138   4.579   1.792   2.883  0.0587  0.2402 -1.7668
 4527TIP3   OH235139   4.562   0.333   1.108  0.3226 -0.4166  0.0647
 4527TIP3    H135140   4.614   0.292   1.039  2.7252  0.9683  0.9171
 4527TIP3    H235141   4.589   0.424   1.108 -0.3340 -0.1533  2.1773
 4528TIP3   OH235142   0.401   0.065   2.931  0.5007  0.0309  0.0461
 4528TIP3    H135143   0.495   0.053   2.948  0.5172  0.0820 -0.0066
 4528TIP3    H235144   0.360   0.059   3.017  0.7595  2.0027  0.3699
 4529TIP3   OH235145   4.616   1.200   2.288 -0.7246 -0.2783 -0.2106
 4529TIP3    H135146   4.534   1.246   2.273 -0.4403 -0.0182 -0.9797
 4529TIP3    H235147   4.658   1.249   2.358 -0.8138  0.1284 -0.4363
 4530TIP3   OH235148   2.698   3.674   1.067  0.2685 -0.2372  0.0768
 4530TIP3    H135149   2.608   3.704   1.079 -0.2217 -0.5362 -2.3424
 4530TIP3    H235150   2.750   3.733   1.123 -1.1807  1.7126 -0.5012
 4531TIP3   OH235151   4.263   2.440   0.162 -0.9206  0.0477  0.5645
 4531TIP3    H135152   4.184   2.398   0.129 -0.6640  0.4756 -0.6509
 4531TIP3    H235153   4.236   2.481   0.244 -2.0304  0.4229  0.0310
 4532TIP3   OH235154   4.800   6.625   8.717 -0.0599 -0.2353  0.2026
 4532TIP3    H135155   4.795   6.579   8.633 -1.3872  1.5318 -0.7414
 4532TIP3    H235156   4.728   6.588   8.768  0.5264 -1.0553  0.4655
 4533TIP3   OH235157   2.235   4.486   2.711 -0.4319  0.2206  0.1733
 4533TIP3    H135158   2.159   4.429   2.720 -0.0144 -0.4477 -0.4502
 4533TIP3    H235159   2.219   4.534   2.630 -0.2710  0.2045  0.1322
 4534TIP3   OH235160   1.353   1.262   0.806  0.0137 -0.2486  0.0488
 4534TIP3    H135161   1.413   1.242   0.878  1.8264  2.6372 -0.5082
 4534TIP3    H235162   1.341   1.178   0.762  1.8022 -1.3916  1.5547
 4535TIP3   OH235163   5.448   5.672   7.698 -0.1478 -0.4637  0.1249
 4535TIP3    H135164   5.382   5.627   7.645 -0.4446 -0.1750  0.2457
 4535TIP3    H235165   5.531   5.629   7.675 -0.1223  0.2714 -1.2921
 4536TIP3   OH235166   3.937   6.749   2.745  0.1717 -0.0890  0.2853
 4536TIP3    H135167   3.899   6.803   2.676 -0.5298 -1.3730 -0.3601
 4536TIP3    H235168   4.003   6.695   2.700 -0.0690 -0.7116  0.6656
 4537TIP3   OH235169   3.318   0.983   0.610  0.1866  0.4007  0.4267
 4537TIP3    H135170   3.278   0.954   0.692  0.9471  1.0782  1.0588
 4537TIP3    H235171   3.364   1.064   0.633 -0.1473  0.9738 -0.8257
 4538TIP3   OH235172   6.086   6.401   1.859  0.0327 -0.3157  0.3182
 4538TIP3    H135173   6.033   6.401   1.939  0.0932  0.5663  0.3755
 4538TIP3    H235174   6.104   6.309   1.842  0.2929 -0.4993  1.5072
 4539TIP3   OH235175   6.248   1.540   3.223 -0.1316 -0.5883 -0.1800
 4539TIP3    H135176   6.200   1.582   3.294 -1.0908 -1.7632 -0.1035
 4539TIP3    H235177   6.285   1.461   3.263  1.6744  0.1495 -0.3073
 4540TIP3   OH235178   3.713   6.068   0.339 -0.0278 -0.0401 -0.0385
 4540TIP3    H135179   3.701   5.994   0.399 -0.0242 -0.2619 -0.3043
 4540TIP3    H235180   3.806   6.088   0.344  0.2468 -0.9782 -1.0140
 4541TIP3   OH235181   1.169   6.530   8.703  0.2848 -0.6235 -0.4700
 4541TIP3    H135182   1.155   6.601   8.640  0.9239 -0.2255 -0.1710
 4541TIP3    H235183   1.122   6.456   8.665 -0.2721 -0.0900 -0.8610
 4542TIP3   OH235184   1.951   1.607   2.612  0.1480  0.2295 -0.2352
 4542TIP3    H135185   1.935   1.514   2.596 -1.1136 -0.0803  2.3748
 4542TIP3    H235186   1.980   1.611   2.703  0.2210  2.3927 -0.3126
 4543TIP3   OH235187   2.719   5.522   2.278 -0.4042  0.4399 -0.1396
 4543TIP3    H135188   2.657   5.559   2.215  0.7319  0.4971 -1.2693
 4543TIP3    H235189   2.801   5.567   2.259 -0.3969  1.7173  2.5556
 4544TIP3   OH235190   5.993   1.355   0.240  0.4014 -0.4140 -0.6942
 4544TIP3    H135191   5.992   1.302   0.319  0.0735  1.0637  0.3435
 4544TIP3    H235192   6.086   1.364   0.219  0.4946 -0.7555 -0.4373
 4545TIP3   OH235193   3.654   0.693   7.578  0.1918  0.0493  0.1272
 4545TIP3    H135194   3.577   0.640   7.597  0.3910  0.3154  1.8050
 4545TIP3    H235195   3.631   0.781   7.606  1.6595 -0.1880  2.3151
 4546TIP3   OH235196   1.285   3.155   2.480 -0.1806  0.1910  0.7518
 4546TIP3    H135197   1.365   3.110   2.509  0.5210 -0.2016 -1.5589
 4546TIP3    H235198   1.242   3.181   2.561  2.3239  0.4790  2.1032
 4547TIP3   OH235199   6.028   6.117   0.178  0.6753 -0.3484  0.8054
 4547TIP3    H135200   5.994   6.184   0.236 -0.4176  0.1473 -0.3575
 4547TIP3    H235201   6.024   6.156   0.091  1.0172 -1.5464  0.2227
 4548TIP3   OH235202   2.636   3.331   0.841  0.1988 -0.4889  0.2750
 4548TIP3    H135203   2.563   3.310   0.899  0.1380 -0.9585  0.0367
 4548TIP3    H235204   2.643   3.426   0.844  0.2585 -0.5158  1.1209
 4549TIP3   OH235205   6.431   2.312   0.429 -0.2574 -0.3687  0.5971
 4549TIP3    H135206   6.423   2.388   0.372  0.7381  0.2976  1.2961
 4549TIP3    H235207   6.524   2.310   0.452 -0.3279 -1.6347  0.8083
 4550TIP3   OH235208   0.916   6.251   2.159  0.2910 -0.8134 -0.3167
 4550TIP3    H135209   0.991   6.256   2.220 -0.9990 -2.9869  1.6265
 4550TIP3    H235210   0.950   6.286   2.077  2.7082  0.5593  1.1260
 4551TIP3   OH235211   3.916   3.038   7.382 -0.0958 -0.2869  0.5892
 4551TIP3    H135212   3.963   3.071   7.459  0.3529  0.5889 -0.0417
 4551TIP3    H235213   3.900   3.116   7.329  1.6154 -1.1279 -1.2986
 4552TIP3   OH235214   3.207   2.188   2.310 -0.5978 -0.1029 -0.2346
 4552TIP3    H135215   3.251   2.241   2.376 -1.0235  0.5071 -0.4296
 4552TIP3    H235216   3.251   2.103   2.314 -0.2376  0.1067  0.4298
 4553TIP3   OH235217   4.818   4.711   0.960  0.3720  0.2969  0.2335
 4553TIP3    H135218   4.876   4.770   1.009 -0.8365  1.9037 -0.1684
 4553TIP3    H235219   4.743   4.699   1.018  1.0184 -1.6987  0.7183
 4554TIP3   OH235220   0.948   6.428   1.097 -0.5367 -0.3549  0.1974
 4554TIP3    H135221   0.884   6.403   1.030 -0.1486 -2.7486  0.6466
 4554TIP3    H235222   0.992   6.346   1.120  1.0790  0.8359  1.5970
 4555TIP3   OH235223   3.240   0.333   8.062 -0.6603  0.1577  0.4585
 4555TIP3    H135224   3.179   0.259   8.058 -0.6536  0.1298  0.8164
 4555TIP3    H235225   3.275   0.340   7.973 -2.2483  1.0934 -0.1064
 4556TIP3   OH235226   3.313   0.964   8.717 -0.1346  0.0776 -0.0479
 4556TIP3    H135227   3.271   0.886   8.682 -2.4030  0.8757  0.6891
 4556TIP3    H235228   3.341   0.939   8.805 -3.1227  0.6515  1.2043
 4557TIP3   OH235229   6.315   6.728   1.985  0.0495 -0.3978 -0.3013
 4557TIP3    H135230   6.339   6.814   1.949  0.0756 -0.4901 -0.5100
 4557TIP3    H235231   6.298   6.674   1.907 -1.7436 -0.0889 -0.1563
 4558TIP3   OH235232   6.731   3.538   1.848  0.0185 -0.3414 -0.2027
 4558TIP3    H135233   6.654   3.585   1.880  1.3819  1.4037  0.7302
 4558TIP3    H235234   6.720   3.449   1.879 -1.4234 -0.0324  0.2370
 4559TIP3   OH235235   0.899   0.580   1.380 -0.3240 -0.3180 -0.0276
 4559TIP3    H135236   0.952   0.621   1.312 -1.0017 -0.6556 -0.7747
 4559TIP3    H235237   0.957   0.577   1.456  0.9284 -1.1882 -0.9673
 4560TIP3   OH235238   3.254   2.795   0.052  1.0203  0.2696  0.6880
 4560TIP3    H135239   3.237   2.745  -0.028  1.1382  0.7608  0.3506
 4560TIP3    H235240   3.344   2.775   0.075  1.4449  1.2039 -0.0922
 4561TIP3   OH235241   1.981   2.444   1.048  0.1119  0.3239 -0.5296
 4561TIP3    H135242   2.026   2.412   0.969  0.4533 -0.9559  0.1634
 4561TIP3    H235243   2.017   2.391   1.119 -0.4748  1.2006  0.4428
 4562TIP3   OH235244   4.341   4.183   7.381  0.4168  0.1054  0.7471
 4562TIP3    H135245   4.267   4.136   7.419 -0.4108  2.3915  2.1701
 4562TIP3    H235246   4.369   4.128   7.308 -1.8314 -1.4702  0.9589
 4563TIP3   OH235247   1.274   0.571   0.267 -0.5538  0.1765 -0.0515
 4563TIP3    H135248   1.335   0.502   0.293 -0.6663  0.4461  0.9802
 4563TIP3    H235249   1.283   0.576   0.172 -2.3268 -2.9336 -0.5142
 4564TIP3   OH235250   1.450   3.344   0.493 -0.0837  0.1533 -0.0061
 4564TIP3    H135251   1.415   3.425   0.530  1.0720 -0.4564  2.6189
 4564TIP3    H235252   1.533   3.370   0.452 -1.0148  0.7026 -1.6366
 4565TIP3   OH235253   3.154   3.235   8.416  0.5805  0.1533 -0.5324
 4565TIP3    H135254   3.232   3.183   8.395 -0.3377 -1.4632 -0.0980
 4565TIP3    H235255   3.171   3.320   8.375  0.4568 -1.6339 -4.7911
 4566TIP3   OH235256   1.430   0.872   8.449  0.0809 -0.3426 -0.2274
 4566TIP3    H135257   1.421   0.940   8.516  0.0688 -0.7630  0.2127
 4566TIP3    H235258   1.404   0.914   8.367  0.1558  0.2013  0.0240
 4567TIP3   OH235259   5.685   4.112   8.366 -0.0768  0.0497  0.0297
 4567TIP3    H135260   5.596   4.149   8.360  0.1349  0.4013 -1.2055
 4567TIP3    H235261   5.742   4.188   8.366  0.2714 -0.2100 -0.2360
 4568TIP3   OH235262   0.142   6.351   0.158 -0.0232  0.3109  0.1609
 4568TIP3    H135263   0.081   6.407   0.207 -0.7251 -0.2217 -0.0826
 4568TIP3    H235264   0.115   6.361   0.067 -1.0859 -1.4950  0.2399
 4569TIP3   OH235265   0.642   0.763   0.686  0.1019 -0.0793  0.7108
 4569TIP3    H135266   0.620   0.849   0.721 -1.2355 -0.0315 -0.1618
 4569TIP3    H235267   0.718   0.735   0.736  0.3892  1.4868  1.2034
 4570TIP3   OH235268   3.304   0.168   0.780  0.2821 -0.5136 -0.1179
 4570TIP3    H135269   3.353   0.091   0.807  0.4993  0.1770  1.5816
 4570TIP3    H235270   3.257   0.196   0.859  0.0216  0.9484 -0.7514
 4571TIP3   OH235271   2.285   3.657   2.419 -0.0401  0.0628  0.3674
 4571TIP3    H135272   2.272   3.598   2.344 -0.1438  0.8784 -0.2718
 4571TIP3    H235273   2.204   3.649   2.469  0.1251 -0.6701  0.5307
 4572TIP3   OH235274   6.466   4.830   0.873  0.0716  0.0134  0.3339
 4572TIP3    H135275   6.469   4.738   0.846 -0.9758  0.3464 -1.0786
 4572TIP3    H235276   6.377   4.841   0.908 -0.6946  1.0027 -1.7462
 4573TIP3   OH235277   6.725   5.652   1.460  0.2600  0.1205  0.0553
 4573TIP3    H135278   6.751   5.713   1.390 -0.2184  1.2388  0.8241
 4573TIP3    H235279   6.739   5.701   1.541  0.5344 -1.0546  0.7439
 4574TIP3   OH235280   5.092   3.796   8.546  0.2828 -0.4885 -0.2768
 4574TIP3    H135281   5.092   3.821   8.639 -1.2318 -2.5033  0.3334
 4574TIP3    H235282   5.155   3.725   8.540 -0.7390 -1.4131 -0.4333
 4575TIP3   OH235283   6.833   2.106   1.152 -0.2800 -0.0804  0.3948
 4575TIP3    H135284   6.884   2.109   1.071  1.0078  3.7125  1.1096
 4575TIP3    H235285   6.871   2.034   1.202  0.1694 -1.2711 -1.5683
 4576TIP3   OH235286   4.623   5.680   0.184 -0.1549 -0.5072  0.6406
 4576TIP3    H135287   4.641   5.589   0.159 -1.2351 -0.3959 -0.6731
 4576TIP3    H235288   4.559   5.710   0.119  1.0785  1.5825  0.3088
 4577TIP3   OH235289   4.368   5.058   2.629  0.1084 -0.0272  0.2498
 4577TIP3    H135290   4.302   5.127   2.634  0.2960  0.2158 -0.5891
 4577TIP3    H235291   4.441   5.091   2.682 -0.6627 -0.5759  1.7262
 4578TIP3   OH235292   1.984   0.559   1.870 -0.5055  0.8288 -0.1756
 4578TIP3    H135293   1.890   0.543   1.855 -0.7637  0.6407  1.4894
 4578TIP3    H235294   2.026   0.525   1.791 -1.6684 -1.0388 -0.0465
 4579TIP3   OH235295   2.927   4.096   7.653  0.0382 -0.5731  0.4196
 4579TIP3    H135296   2.834   4.077   7.659  0.1595 -1.1139  0.6471
 4579TIP3    H235297   2.967   4.013   7.625  0.4472 -0.3418  0.3020
 4580TIP3   OH235298   2.115   4.976   0.565 -0.0761  1.0030  0.0226
 4580TIP3    H135299   2.143   5.066   0.549  1.3833  0.9188  1.7169
 4580TIP3    H235300   2.023   4.974   0.539 -0.1466  2.9817 -0.0405
 4581TIP3   OH235301   1.984   5.257   1.509 -1.3086  0.8691 -0.6856
 4581TIP3    H135302   1.912   5.299   1.554 -1.3214 -0.0059  0.1314
 4581TIP3    H235303   1.948   5.232   1.424 -2.0795  0.0953 -0.1399
 4582TIP3   OH235304   3.112   5.068   2.546 -0.0082 -0.1658  0.1929
 4582TIP3    H135305   3.126   5.113   2.629 -0.5421 -0.3165  0.3726
 4582TIP3    H235306   3.153   5.124   2.481 -0.7653  0.6544  0.3969
 4583TIP3   OH235307   6.135   5.247   2.556 -0.1680 -0.4880 -0.2238
 4583TIP3    H135308   6.062   5.302   2.528 -0.1130 -1.2293 -1.9260
 4583TIP3    H235309   6.213   5.298   2.535 -0.1558 -0.4810 -0.1618
 4584TIP3   OH235310   5.356   3.709   0.614 -0.0283 -0.1614 -0.6852
 4584TIP3    H135311   5.423   3.765   0.574  1.1861 -0.9855  0.1528
 4584TIP3    H235312   5.287   3.771   0.640  0.0795  0.6290 -2.1328
 4585TIP3   OH235313   4.915   5.243   0.019 -0.2113  0.5548 -0.3275
 4585TIP3    H135314   4.914   5.201  -0.067 -0.0840  0.0340 -0.0768
 4585TIP3    H235315   5.007   5.265   0.034 -0.5098  2.9240 -1.3993
 4586TIP3   OH235316   4.329   1.969   1.230 -0.2199  0.2178 -0.4013
 4586TIP3    H135317   4.249   2.020   1.218 -0.3824  0.3275  0.9358
 4586TIP3    H235318   4.353   1.984   1.322  1.0845 -0.1770 -0.6592
 4587TIP3   OH235319   0.176   4.637   2.689 -0.0292  0.5069 -0.4145
 4587TIP3    H135320   0.230   4.579   2.742 -1.1039  0.1685  0.3402
 4587TIP3    H235321   0.223   4.645   2.606  1.8675  1.3327  0.6774
 4588TIP3   OH235322   1.907   1.192   8.487 -0.3013 -0.3516 -0.3749
 4588TIP3    H135323   1.973   1.161   8.425  0.0156 -0.8502  0.1975
 4588TIP3    H235324   1.828   1.143   8.464 -0.3354 -0.1299 -0.7353
 4589TIP3   OH235325   3.284   1.871   1.944  0.0274 -0.2201 -0.3479
 4589TIP3    H135326   3.374   1.893   1.920 -0.2408  1.2109 -0.1563
 4589TIP3    H235327   3.287   1.779   1.968  1.9571  0.3702  2.0250
 4590TIP3   OH235328   1.319   5.399   0.346  0.1832  0.5508 -0.5360
 4590TIP3    H135329   1.291   5.363   0.262 -0.3519  1.8726 -0.9573
 4590TIP3    H235330   1.237   5.419   0.392  0.4491  1.3884 -0.4057
 4591TIP3   OH235331   6.132   0.791   2.341  0.5087  0.0747 -0.4694
 4591TIP3    H135332   6.151   0.825   2.254  1.2689  0.4007 -0.1795
 4591TIP3    H235333   6.086   0.708   2.324  1.9693 -0.6245 -1.2031
 4592TIP3   OH235334   2.055   5.237   7.830 -0.1837  0.4656  0.2049
 4592TIP3    H135335   2.128   5.297   7.837 -0.3644  0.7587 -0.3922
 4592TIP3    H235336   1.980   5.292   7.807 -0.2168 -0.0558 -1.0357
 4593TIP3   OH235337   0.928   4.406   2.282  0.4218 -0.4082  0.5986
 4593TIP3    H135338   0.942   4.411   2.188  1.2490 -0.1235  0.7348
 4593TIP3    H235339   0.866   4.477   2.300 -0.1471 -0.7946  0.2009
 4594TIP3   OH235340   6.299   5.150   8.324  0.3134 -0.0107  0.4859
 4594TIP3    H135341   6.365   5.164   8.255 -1.4291 -1.3774 -1.5608
 4594TIP3    H235342   6.216   5.148   8.277 -0.8760 -1.8869  2.5296
 4595TIP3   OH235343   2.526   2.160   8.733  0.2032 -0.1315  0.4572
 4595TIP3    H135344   2.460   2.196   8.673  1.3147  1.3888  0.0951
 4595TIP3    H235345   2.591   2.120   8.675  0.0353 -0.8971  0.7815
 4596TIP3   OH235346   6.361   2.823   7.112 -0.0449  0.2566 -0.2644
 4596TIP3    H135347   6.420   2.871   7.169  0.3144 -1.2986  0.7414
 4596TIP3    H235348   6.396   2.734   7.110 -2.2090 -0.6905  0.2391
 4597TIP3   OH235349   3.798   0.047   0.881 -0.5906  0.3851  1.1426
 4597TIP3    H135350   3.760  -0.041   0.880 -1.2033  0.6474  1.0989
 4597TIP3    H235351   3.892   0.032   0.895 -0.5636 -0.3219  0.2921
 4598TIP3   OH235352   0.493   1.718   2.350  0.2656 -0.5239 -0.3154
 4598TIP3    H135353   0.569   1.668   2.379 -1.3282 -2.0802  1.3619
 4598TIP3    H235354   0.419   1.680   2.396 -1.8226 -0.0908 -3.0429
 4599TIP3   OH235355   1.259   6.395   7.753  0.1451  0.0927  0.5626
 4599TIP3    H135356   1.171   6.427   7.733 -0.1629  0.1279  1.8513
 4599TIP3    H235357   1.306   6.473   7.783  1.1576  0.4153 -1.7073
 4600TIP3   OH235358   5.461   4.242   1.999 -0.3767  0.8402  0.8595
 4600TIP3    H135359   5.547   4.264   2.037 -0.2498  0.4598  0.7944
 4600TIP3    H235360   5.473   4.254   1.905  0.2113 -1.1545  0.6351
 4601TIP3   OH235361   3.496   0.541   1.951  0.2744 -0.0040 -0.1952
 4601TIP3    H135362   3.559   0.609   1.926  0.3534  0.7241  1.7904
 4601TIP3    H235363   3.549   0.462   1.960  0.3567 -0.1257 -1.5167
 4602TIP3   OH235364   0.996   1.974   8.649 -0.4597  0.5477  0.3959
 4602TIP3    H135365   1.078   1.996   8.605 -0.4013 -0.8328 -0.2140
 4602TIP3    H235366   1.011   1.887   8.685 -1.7816  0.1349 -0.0171
 4603TIP3   OH235367   3.681   1.485   1.107  0.3948  0.5265 -0.5706
 4603TIP3    H135368   3.611   1.548   1.123  1.2380  1.1665  0.8355
 4603TIP3    H235369   3.656   1.408   1.158  0.3562  0.4765 -0.6642
 4604TIP3   OH235370   6.517   4.569   2.750 -0.3346 -0.2230  0.2889
 4604TIP3    H135371   6.467   4.627   2.808 -0.7859 -0.5756  0.2640
 4604TIP3    H235372   6.452   4.506   2.719 -0.1573  0.1167 -0.8040
 4605TIP3   OH235373   5.627   1.356   1.823  0.0373 -0.2354  0.2123
 4605TIP3    H135374   5.627   1.444   1.784 -0.2075 -0.3290 -0.0019
 4605TIP3    H235375   5.535   1.330   1.821 -0.2208  0.3719  2.2541
 4606TIP3   OH235376   4.293   4.670   7.560  0.0325  0.3737  0.4161
 4606TIP3    H135377   4.273   4.744   7.502 -2.1858 -0.9394 -0.6617
 4606TIP3    H235378   4.291   4.707   7.648 -1.2419  1.5838 -0.0789
 4607TIP3   OH235379   2.903   1.205   8.329  0.1096  0.4786 -0.4139
 4607TIP3    H135380   2.944   1.212   8.242  0.2481  1.6884 -0.2604
 4607TIP3    H235381   2.966   1.156   8.381 -0.0766 -0.4725 -1.0412
 4608TIP3   OH235382   3.848   3.314   2.320 -0.2794  0.0086  0.5066
 4608TIP3    H135383   3.914   3.372   2.359  0.1653  0.1468 -0.4251
 4608TIP3    H235384   3.830   3.352   2.235 -2.1105  0.3592  1.0218
 4609TIP3   OH235385   6.446   4.325   8.247 -0.1644  0.4526  0.5234
 4609TIP3    H135386   6.415   4.344   8.335 -0.3220  1.1235  0.3340
 4609TIP3    H235387   6.530   4.370   8.241 -0.2593  0.6022  0.2641
 4610TIP3   OH235388   4.145   4.384   0.534 -0.1215  0.4648 -0.2268
 4610TIP3    H135389   4.110   4.311   0.483  1.3074 -0.3415 -0.0920
 4610TIP3    H235390   4.155   4.349   0.623  0.2353  0.9344 -0.0768
 4611TIP3   OH235391   5.009   0.224   1.978 -0.2856  0.7092 -0.2616
 4611TIP3    H135392   5.050   0.247   1.895  0.3490  0.8304  0.0719
 4611TIP3    H235393   5.050   0.141   2.003  0.6592  1.4200  0.6553
 4612TIP3   OH235394   1.773   0.083   0.216 -0.1499  0.0888  0.0336
 4612TIP3    H135395   1.719   0.087   0.295 -0.9793 -0.1106 -0.5099
 4612TIP3    H235396   1.857   0.050   0.246 -0.8404 -1.1788  0.6441
 4613TIP3   OH235397   2.134   6.021   2.196  0.3179  0.9057 -0.0520
 4613TIP3    H135398   2.170   5.962   2.130 -0.6937 -1.2056  1.1861
 4613TIP3    H235399   2.194   6.015   2.270 -1.7116 -1.7878  1.5968
 4614TIP3   OH235400   5.960   5.256   8.536 -0.6499  0.5445 -0.0132
 4614TIP3    H135401   5.930   5.272   8.626 -0.2622  0.9213  0.0557
 4614TIP3    H235402   6.041   5.206   8.547 -1.1699 -0.3429 -0.1894
 4615TIP3   OH235403   2.431   0.831   2.296 -0.1084  0.1139 -0.4769
 4615TIP3    H135404   2.514   0.866   2.330 -0.7744  0.2885  1.0747
 4615TIP3    H235405   2.404   0.767   2.362 -0.0801 -1.6725 -2.1153
 4616TIP3   OH235406   0.945   5.838   1.899  0.3164 -0.6291  0.0324
 4616TIP3    H135407   0.970   5.853   1.990  1.3227 -0.6753 -0.2216
 4616TIP3    H235408   0.965   5.921   1.855  1.6349 -1.2087 -0.5008
 4617TIP3   OH235409   6.732   3.882   2.932 -0.5767  0.0511  0.7793
 4617TIP3    H135410   6.713   3.969   2.969 -1.6425 -0.6130  1.8582
 4617TIP3    H235411   6.755   3.900   2.841  1.8323  1.7365  1.5884
 4618TIP3   OH235412   6.506   0.656   2.506  0.2122 -0.4654 -0.4986
 4618TIP3    H135413   6.417   0.686   2.526  0.1653  0.3060 -1.7459
 4618TIP3    H235414   6.561   0.732   2.524  0.1914  0.1827 -2.9102
 4619TIP3   OH235415   0.171   4.308   0.455 -0.1574  0.2651  0.1064
 4619TIP3    H135416   0.186   4.240   0.520 -0.5603 -0.4634 -0.5499
 4619TIP3    H235417   0.259   4.332   0.425 -0.0505 -0.6849 -0.3749
 4620TIP3   OH235418   2.179   6.144   2.614 -0.5767 -0.3746  0.3464
 4620TIP3    H135419   2.267   6.176   2.632 -0.1609 -1.8973  1.1784
 4620TIP3    H235420   2.184   6.107   2.526 -0.7258  0.6575 -0.1039
 4621TIP3   OH235421   1.095   5.215   0.618 -0.4050 -0.0910 -0.0170
 4621TIP3    H135422   1.152   5.145   0.585 -1.0690 -0.3221 -0.7097
 4621TIP3    H235423   1.152   5.269   0.672  0.2359 -0.8913  0.1325
 4622TIP3   OH235424   2.030   2.305   8.385 -0.8222 -0.2864 -0.0223
 4622TIP3    H135425   1.969   2.374   8.358  0.1433  0.1900 -1.0559
 4622TIP3    H235426   2.020   2.300   8.480 -0.0974  2.0929  0.2329
 4623TIP3   OH235427   1.181   0.549   8.070 -0.6481 -0.5329 -0.4367
 4623TIP3    H135428   1.088   0.552   8.092 -0.0137 -0.3579  2.6869
 4623TIP3    H235429   1.198   0.458   8.049 -1.5053 -0.5898 -0.8994
 4624TIP3   OH235430   6.267   4.617   2.865 -0.1071  0.2468  0.2383
 4624TIP3    H135431   6.298   4.535   2.826  0.9106  1.2687 -1.1833
 4624TIP3    H235432   6.245   4.593   2.955 -0.3685 -1.7023 -0.2914
 4625TIP3   OH235433   2.304   6.826   1.166  0.5938  0.0173  0.0546
 4625TIP3    H135434   2.333   6.878   1.240  1.7963  0.1279 -0.4776
 4625TIP3    H235435   2.373   6.761   1.154  0.8784  0.5572 -1.5017
 4626TIP3   OH235436   4.013   3.438   3.655 -0.0821 -0.4355 -0.8633
 4626TIP3    H135437   4.057   3.359   3.687  0.9600 -0.0641 -1.3264
 4626TIP3    H235438   4.084   3.501   3.640 -0.7668  0.1799 -1.6735
 4627TIP3   OH235439   2.025   3.454   7.261  0.4192  0.0558 -0.2832
 4627TIP3    H135440   2.077   3.517   7.212 -0.9117  1.8896  0.5218
 4627TIP3    H235441   2.069   3.448   7.346  0.0941  0.6161 -0.0604
 4628TIP3   OH235442   2.621   1.072   0.140 -0.3675  0.3327 -0.1840
 4628TIP3    H135443   2.572   1.152   0.163 -1.8846 -0.6787  0.2717
 4628TIP3    H235444   2.700   1.104   0.097 -1.6836  2.0644 -1.4999
 4629TIP3   OH235445   1.712   0.191   8.288  0.2210 -0.3449 -0.5371
 4629TIP3    H135446   1.708   0.282   8.260  1.0684 -0.2214 -0.3013
 4629TIP3    H235447   1.805   0.176   8.307  0.2541 -1.5703 -1.5760
 4630TIP3   OH235448   3.244   1.865   0.932 -0.0702 -0.7889  0.0254
 4630TIP3    H135449   3.185   1.907   0.995  0.7018 -0.3810  0.4965
 4630TIP3    H235450   3.232   1.916   0.851 -0.0566 -0.4464  0.2354
 4631TIP3   OH235451   6.468   5.862   2.787  0.2804 -0.4667 -0.1018
 4631TIP3    H135452   6.465   5.838   2.694 -0.2928 -0.3928 -0.1027
 4631TIP3    H235453   6.547   5.917   2.794  0.0785 -0.0917 -0.6362
 4632TIP3   OH235454   3.593   6.808   1.920 -0.7853  0.1426  0.3839
 4632TIP3    H135455   3.530   6.874   1.948 -0.5691  0.6722 -0.3632
 4632TIP3    H235456   3.657   6.855   1.867 -0.1613 -0.5173  0.5286
 4633TIP3   OH235457   4.318   2.254   1.051 -0.5875 -0.1316 -0.2551
 4633TIP3    H135458   4.324   2.162   1.025 -0.7804 -0.0967 -0.4263
 4633TIP3    H235459   4.233   2.262   1.095 -0.6452 -0.0019 -0.3856
 4634TIP3   OH235460   2.098   4.519   7.777 -0.1748 -0.4900  0.0480
 4634TIP3    H135461   2.104   4.459   7.852  0.5131 -1.2402 -0.5989
 4634TIP3    H235462   2.179   4.569   7.780 -0.0429 -0.6793 -0.3250
 4635TIP3   OH235463   3.676   4.101   1.221  0.3784 -0.0851  0.2425
 4635TIP3    H135464   3.729   4.075   1.145  0.9009  0.4846  0.3960
 4635TIP3    H235465   3.642   4.188   1.198 -0.1214 -0.2533  0.3349
 4636TIP3   OH235466   0.991   1.467   2.381  0.2766 -0.4276  0.0466
 4636TIP3    H135467   1.032   1.436   2.462 -0.6565 -0.0764  0.6711
 4636TIP3    H235468   0.913   1.413   2.371  0.0183 -0.0073 -0.2478
 4637TIP3   OH235469   0.786   0.100   7.605  0.2021 -0.0613 -0.1431
 4637TIP3    H135470   0.805   0.010   7.578  2.3311  0.2621  0.1180
 4637TIP3    H235471   0.779   0.149   7.523  0.1269 -0.2639 -0.2580
 4638TIP3   OH235472   3.763   0.608   1.243 -0.2052 -0.3082  0.0692
 4638TIP3    H135473   3.746   0.589   1.335 -0.9521 -1.5174 -0.2911
 4638TIP3    H235474   3.802   0.695   1.243  0.8009 -0.7316  1.6134
 4639TIP3   OH235475   0.804   2.979   0.795  0.3340 -0.0812  0.5299
 4639TIP3    H135476   0.718   3.011   0.825 -0.1578 -0.2766 -0.6310
 4639TIP3    H235477   0.804   2.886   0.818 -0.3008 -0.3781 -0.5742
 4640TIP3   OH235478   6.623   6.811   0.942 -0.6072 -0.2949  0.4817
 4640TIP3    H135479   6.611   6.806   0.847  1.5405  0.4733  0.1283
 4640TIP3    H235480   6.605   6.903   0.963  1.1677  0.0910  0.4316
 4641TIP3   OH235481   2.718   4.153   1.908  0.1130  0.7702 -0.1607
 4641TIP3    H135482   2.702   4.059   1.909  2.5058  0.3093  0.6436
 4641TIP3    H235483   2.630   4.192   1.902 -0.9513 -1.4758 -0.2373
 4642TIP3   OH235484   6.251   5.864   1.681  0.1169 -0.2336 -0.0076
 4642TIP3    H135485   6.163   5.825   1.675  0.6771 -1.4021 -0.8882
 4642TIP3    H235486   6.247   5.918   1.760 -1.4640 -0.0795 -0.1507
 4643TIP3   OH235487   1.945   1.872   1.964 -0.1217 -0.2851 -0.5760
 4643TIP3    H135488   1.969   1.806   2.030 -1.4219 -0.5227 -0.3149
 4643TIP3    H235489   1.948   1.955   2.011  0.8329 -0.2239 -0.7255
 4644TIP3   OH235490   4.671   4.370   2.732 -0.3832 -0.0985  1.1006
 4644TIP3    H135491   4.672   4.398   2.640 -0.0270  0.0546  1.1492
 4644TIP3    H235492   4.657   4.276   2.728  2.0076 -0.5104  0.7724
 4645TIP3   OH235493   5.517   3.146   1.013 -0.5582 -0.6274  0.6254
 4645TIP3    H135494   5.541   3.053   1.014  0.9588 -0.4070 -2.6672
 4645TIP3    H235495   5.422   3.147   1.005 -0.5141 -1.9624 -0.3880
 4646TIP3   OH235496   5.923   0.763   1.784  0.1843  0.4112 -0.0381
 4646TIP3    H135497   5.968   0.722   1.858 -1.9738 -0.0363  1.1324
 4646TIP3    H235498   5.927   0.698   1.714  0.2208 -0.1719  0.4930
 4647TIP3   OH235499   2.587   2.976   0.773  0.0936 -0.2447 -0.9071
 4647TIP3    H135500   2.492   2.971   0.759 -0.0538  0.9298 -0.4433
 4647TIP3    H235501   2.616   3.048   0.717  0.3884  0.6956  0.4143
 4648TIP3   OH235502   3.472   1.551   1.423  0.2155  0.1047 -0.2093
 4648TIP3    H135503   3.461   1.591   1.337  1.4284  0.2918 -0.2978
 4648TIP3    H235504   3.448   1.459   1.409 -1.6229  0.5668 -0.2341
 4649TIP3   OH235505   5.800   2.359   0.660  0.1228  0.7081  0.0498
 4649TIP3    H135506   5.838   2.443   0.685  1.1040 -0.1469  1.6160
 4649TIP3    H235507   5.803   2.307   0.741 -2.1850 -0.2211 -0.3855
 4650TIP3   OH235508   2.287   4.883   1.139  0.0011  0.2308  0.0058
 4650TIP3    H135509   2.336   4.811   1.180 -1.4173 -0.8213 -0.0980
 4650TIP3    H235510   2.259   4.848   1.055 -1.4257  0.5787  0.3096
 4651TIP3   OH235511   5.699   5.844   0.358 -0.3637  0.6298 -0.0446
 4651TIP3    H135512   5.737   5.868   0.274 -0.9444 -0.1963 -0.5535
 4651TIP3    H235513   5.680   5.750   0.351  0.8559  0.2179  1.5101
 4652TIP3   OH235514   3.020   6.309   1.869  0.1429 -0.1331  0.0936
 4652TIP3    H135515   2.938   6.327   1.915  1.2833 -0.2473  2.2503
 4652TIP3    H235516   3.015   6.216   1.847 -1.0194  0.2288 -1.3778
 4653TIP3   OH235517   2.313   2.151   1.956  0.5288 -0.3128 -0.2779
 4653TIP3    H135518   2.390   2.097   1.975  1.1771  1.0217  1.1030
 4653TIP3    H235519   2.346   2.241   1.953 -0.8023  0.1916 -0.7476
 4654TIP3   OH235520   3.695   1.967   7.265 -0.2653 -0.1423  0.2709
 4654TIP3    H135521   3.679   2.043   7.209  1.2066  0.0993  0.1252
 4654TIP3    H235522   3.681   1.999   7.354  0.6836  0.4305  0.2334
 4655TIP3   OH235523   5.940   4.184   2.187  0.0638  0.1064  0.5076
 4655TIP3    H135524   5.931   4.128   2.265 -2.5867 -0.0097  0.2150
 4655TIP3    H235525   5.929   4.123   2.114 -0.2764  0.6150  0.1308
 4656TIP3   OH235526   6.309   3.800   8.174  0.1780 -0.1118  0.1027
 4656TIP3    H135527   6.263   3.827   8.095  0.8541 -2.5914 -1.2244
 4656TIP3    H235528   6.244   3.810   8.244 -1.0820  0.2096 -1.0710
 4657TIP3   OH235529   4.529   4.539   0.299 -0.0364  0.4816  0.1907
 4657TIP3    H135530   4.489   4.578   0.221  0.2404  0.6682  0.1430
 4657TIP3    H235531   4.461   4.481   0.334 -0.2930  0.6751  0.0183
 4658TIP3   OH235532   2.585   5.093   7.481 -0.3955  1.0092  0.5096
 4658TIP3    H135533   2.559   5.160   7.543 -1.3829 -0.2543  1.5098
 4658TIP3    H235534   2.505   5.045   7.462  0.4744 -0.5748  0.6771
 4659TIP3   OH235535   0.574   3.296   1.030  0.3140  0.3657  0.2788
 4659TIP3    H135536   0.533   3.382   1.033 -0.5798  0.0463 -1.4155
 4659TIP3    H235537   0.666   3.311   1.050  0.5054  1.9652 -1.5937
 4660TIP3   OH235538   4.592   5.549   1.279 -0.5575 -0.2043  0.5227
 4660TIP3    H135539   4.570   5.637   1.307 -0.3305  0.0035  0.0503
 4660TIP3    H235540   4.553   5.541   1.192  0.1671 -0.2651  0.1991
 4661TIP3   OH235541   4.669   6.729   0.481 -0.7947  0.4204  0.2464
 4661TIP3    H135542   4.727   6.747   0.556  1.1536  1.9487 -1.5107
 4661TIP3    H235543   4.680   6.635   0.465  1.6325  0.7345 -0.2993
 4662TIP3   OH235544   2.209   4.651   1.765 -0.4568 -0.2498 -0.0965
 4662TIP3    H135545   2.177   4.685   1.849 -1.7942 -0.6755 -0.4105
 4662TIP3    H235546   2.194   4.723   1.703 -2.8450 -1.1299 -0.6637
 4663TIP3   OH235547   2.948   5.433   3.202 -0.1208  0.4798  0.2704
 4663TIP3    H135548   2.998   5.483   3.267  1.6810 -0.5320 -0.2854
 4663TIP3    H235549   2.939   5.346   3.240 -0.1388  0.2310 -0.2964
 4664TIP3   OH235550   0.168   1.477   1.044  0.1981  0.0697 -0.2010
 4664TIP3    H135551   0.220   1.498   0.966  0.9736 -1.6424 -0.1938
 4664TIP3    H235552   0.127   1.393   1.023  0.6718 -0.5875  1.3464
 4665TIP3   OH235553   0.369   4.714   2.492 -0.0577  0.2633 -0.1439
 4665TIP3    H135554   0.433   4.723   2.563 -1.0770 -1.0239  1.0115
 4665TIP3    H235555   0.367   4.799   2.450  0.9920  0.9061  1.0325
 4666TIP3   OH235556   6.775   2.623   8.442 -0.0067  0.0762  0.5686
 4666TIP3    H135557   6.820   2.540   8.432  1.0699  0.6646  0.4464
 4666TIP3    H235558   6.808   2.659   8.524  0.3124  0.8503  0.1082
 4667TIP3   OH235559   4.555   1.381   7.707  0.1140 -0.2657 -0.0082
 4667TIP3    H135560   4.646   1.361   7.683  1.4153  1.4102  2.9110
 4667TIP3    H235561   4.531   1.454   7.649  1.5751  0.8968  0.7822
 4668TIP3   OH235562   1.449   6.738   0.149  0.7147 -0.3480 -0.0615
 4668TIP3    H135563   1.528   6.705   0.192  0.7878 -0.3517 -0.2002
 4668TIP3    H235564   1.455   6.706   0.059  2.0325  2.0901 -0.9362
 4669TIP3   OH235565   6.612   4.598   0.399  0.0708 -0.9854  0.1847
 4669TIP3    H135566   6.655   4.611   0.484 -2.4380  1.0434  1.3226
 4669TIP3    H235567   6.628   4.679   0.351 -3.9786  0.8915  1.5475
 4670TIP3   OH235568   6.317   3.994   1.535 -0.4248  0.1102  0.7980
 4670TIP3    H135569   6.387   3.995   1.470  0.0732 -2.3743  1.2276
 4670TIP3    H235570   6.316   4.084   1.570 -0.8235  1.6105 -2.6396
 4671TIP3   OH235571   0.945   3.933   8.176 -0.5628 -0.3827  0.1513
 4671TIP3    H135572   0.875   3.917   8.239 -0.3954 -2.3436 -0.1043
 4671TIP3    H235573   0.914   3.895   8.094 -0.3901  1.3277 -0.7539
 4672TIP3   OH235574   5.937   4.987   2.283 -0.0310 -0.0857 -0.0799
 4672TIP3    H135575   5.935   5.050   2.211  0.0311  0.2381  0.1999
 4672TIP3    H235576   6.029   4.965   2.293  0.2925  1.6635  1.4355
 4673TIP3   OH235577   5.142   4.090   2.290 -0.3304  0.4241 -0.0464
 4673TIP3    H135578   5.132   4.055   2.379 -0.1548  1.5323  0.4353
 4673TIP3    H235579   5.177   4.018   2.239  0.4738  0.0429  1.0136
 4674TIP3   OH235580   6.707   6.245   7.945  0.1016  0.4518  0.7067
 4674TIP3    H135581   6.797   6.251   7.915  0.4116 -3.1844  0.5814
 4674TIP3    H235582   6.655   6.234   7.865 -0.0605 -0.6532  0.9514
 4675TIP3   OH235583   0.149   1.136   2.111 -0.0245 -0.3731 -0.2858
 4675TIP3    H135584   0.221   1.119   2.050  0.3128 -0.4121  0.1124
 4675TIP3    H235585   0.078   1.080   2.082  0.4138 -1.0090 -0.1491
 4676TIP3   OH235586   5.915   1.894   2.219  0.2674  0.3648 -0.6004
 4676TIP3    H135587   5.918   1.802   2.191 -1.4016  0.5697 -1.5947
 4676TIP3    H235588   5.984   1.937   2.168  0.7652 -0.2592 -0.4578
 4677TIP3   OH235589   6.262   0.747   2.614 -0.2269  0.0276  0.4151
 4677TIP3    H135590   6.306   0.828   2.644  1.4777 -0.6629 -0.0769
 4677TIP3    H235591   6.203   0.776   2.545  0.8891  0.8212 -0.2574
 4678TIP3   OH235592   1.039   6.473   7.984  0.1849 -0.5789 -0.0047
 4678TIP3    H135593   0.948   6.444   7.993 -0.5587  1.4029 -0.5053
 4678TIP3    H235594   1.041   6.519   7.900  1.6091 -0.4082  0.0972
 4679TIP3   OH235595   0.183   2.642   0.321  0.6219  0.0467 -0.0246
 4679TIP3    H135596   0.275   2.665   0.314  0.7546 -0.7250 -1.0289
 4679TIP3    H235597   0.175   2.559   0.273 -0.4127 -0.3838  0.8549
 4680TIP3   OH235598   0.338   6.788   1.491  0.3608 -0.1286  0.7589
 4680TIP3    H135599   0.359   6.728   1.420 -2.1916 -0.9926  0.6652
 4680TIP3    H235600   0.370   6.873   1.459  1.0661 -0.8363 -0.5256
 4681TIP3   OH235601   3.877   0.087   8.369 -0.2531  0.1331  0.1502
 4681TIP3    H135602   3.866   0.141   8.448  0.0485  3.6092 -1.9749
 4681TIP3    H235603   3.970   0.063   8.370  0.2793  1.9747 -0.0973
 4682TIP3   OH235604   0.813   1.574   1.754 -0.3158  0.0123  0.3724
 4682TIP3    H135605   0.838   1.666   1.748  1.5556 -0.4378  0.7824
 4682TIP3    H235606   0.729   1.576   1.801  1.2046  1.3683  3.3111
 4683TIP3   OH235607   3.815   3.388   8.277  0.0558 -0.1424 -0.1525
 4683TIP3    H135608   3.720   3.388   8.279  0.0278 -1.1547 -0.8866
 4683TIP3    H235609   3.839   3.481   8.270 -0.8111  0.2281  1.3788
 4684TIP3   OH235610   1.876   2.351   7.720 -0.0961 -0.1402 -0.0055
 4684TIP3    H135611   1.809   2.376   7.656 -1.5509  1.1866  1.9145
 4684TIP3    H235612   1.842   2.272   7.761  1.2937 -1.5587 -1.4223
 4685TIP3   OH235613   5.154   1.631   2.727 -0.6791 -0.0634  0.3203
 4685TIP3    H135614   5.191   1.544   2.741 -2.5810 -1.3751 -2.0403
 4685TIP3    H235615   5.059   1.617   2.729 -1.0536  1.4182 -2.5690
 4686TIP3   OH235616   5.266   3.034   3.431  0.0485 -0.1865 -0.1267
 4686TIP3    H135617   5.229   3.005   3.348 -0.5267 -1.2896  0.5039
 4686TIP3    H235618   5.280   3.128   3.418  0.1067 -0.3556 -1.5141
 4687TIP3   OH235619   0.829   1.222   0.034  0.1559 -0.0122 -0.1116
 4687TIP3    H135620   0.756   1.218  -0.028 -0.2286  2.6252  0.0554
 4687TIP3    H235621   0.788   1.242   0.118  0.9563  0.2745  0.2222
 4688TIP3   OH235622   1.197   6.113   2.453 -0.3177 -0.0577  0.2603
 4688TIP3    H135623   1.291   6.099   2.441 -0.8185 -1.9137 -2.2034
 4688TIP3    H235624   1.173   6.174   2.383 -0.8553  1.1553  1.4445
 4689TIP3   OH235625   5.758   1.591   0.868  0.1120 -0.1047 -0.3204
 4689TIP3    H135626   5.759   1.670   0.922  1.3472 -1.3475  1.5796
 4689TIP3    H235627   5.774   1.623   0.779  0.3708  1.7997  0.3719
 4690TIP3   OH235628   0.489   6.006   8.379  0.0144  0.1658 -0.5306
 4690TIP3    H135629   0.499   5.914   8.402  0.8252  0.6006  1.0054
 4690TIP3    H235630   0.533   6.015   8.295  1.8778 -0.4509  0.3196
 4691TIP3   OH235631   5.320   6.260   1.702 -0.2191  0.0424  0.6777
 4691TIP3    H135632   5.365   6.191   1.652 -1.9831  0.4261 -1.6260
 4691TIP3    H235633   5.322   6.229   1.792  0.7700 -2.0514  0.0215
 4692TIP3   OH235634   3.802   3.067   8.486  0.0156  0.5901  0.1914
 4692TIP3    H135635   3.792   2.984   8.532 -0.0552  0.5617  0.1247
 4692TIP3    H235636   3.879   3.107   8.525  0.8382 -0.1035 -0.6674
 4693TIP3   OH235637   0.740   4.159   1.745 -0.3355  0.4587 -0.4170
 4693TIP3    H135638   0.796   4.131   1.673  0.1022 -1.2436  0.5208
 4693TIP3    H235639   0.672   4.092   1.750 -2.5959  2.5195 -1.5854
 4694TIP3   OH235640   0.402   3.010   1.947 -0.9035 -0.2785  0.8166
 4694TIP3    H135641   0.419   3.103   1.934 -1.4249 -0.1940  0.7188
 4694TIP3    H235642   0.484   2.967   1.924 -0.5723  0.1802  1.1505
 4695TIP3   OH235643   3.073   3.986   1.360  0.4247 -0.2527  0.4018
 4695TIP3    H135644   3.104   4.072   1.388 -2.3931  1.1262 -0.3531
 4695TIP3    H235645   3.127   3.964   1.284  1.8548  0.3331  1.2171
 4696TIP3   OH235646   1.536   3.550   0.814 -0.1329 -0.1375 -0.3186
 4696TIP3    H135647   1.552   3.524   0.905 -0.6417  0.2509 -0.1091
 4696TIP3    H235648   1.449   3.590   0.816 -0.2566 -0.3644 -1.0308
 4697TIP3   OH235649   5.016   1.709   1.001  0.0088  0.0363  0.1910
 4697TIP3    H135650   5.074   1.786   1.004  0.5410 -0.3608  0.1979
 4697TIP3    H235651   4.929   1.745   1.018  0.2444  0.6490  0.1477
 4698TIP3   OH235652   2.369   0.627   2.479 -0.2809  0.8501  0.0457
 4698TIP3    H135653   2.425   0.588   2.546 -0.7754  1.4669  0.8401
 4698TIP3    H235654   2.329   0.553   2.435 -0.5706  0.4301  0.9852
 4699TIP3   OH235655   4.829   2.444   1.006 -0.6118  0.1511 -0.0855
 4699TIP3    H135656   4.797   2.460   1.095  0.7398  0.2400  0.4123
 4699TIP3    H235657   4.923   2.430   1.017 -0.5419 -0.5748 -1.4216
 4700TIP3   OH235658   4.787   4.724   3.283 -0.5254 -0.1599 -0.3975
 4700TIP3    H135659   4.761   4.816   3.282  1.8845  0.5713 -0.4846
 4700TIP3    H235660   4.727   4.682   3.222 -0.1944  1.7984 -2.1895
 4701TIP3   OH235661   4.033   2.930   2.191  0.7088  0.4057  0.2852
 4701TIP3    H135662   3.976   2.963   2.261 -0.1421  0.3814 -0.3722
 4701TIP3    H235663   4.088   3.005   2.167 -2.0456  1.8879 -2.0537
 4702TIP3   OH235664   4.154   4.699   1.647  0.2604  0.5190  0.2151
 4702TIP3    H135665   4.089   4.631   1.632  1.1370 -0.0669 -1.0442
 4702TIP3    H235666   4.125   4.742   1.727 -1.2356 -0.2335  0.1078
 4703TIP3   OH235667   0.274   5.536   0.376  0.0801 -0.1693 -0.2862
 4703TIP3    H135668   0.298   5.472   0.443  0.9967  0.4893  0.0326
 4703TIP3    H235669   0.221   5.601   0.423  0.2119 -0.0253 -0.3361
 4704TIP3   OH235670   0.178   0.717   0.655 -0.3759  0.2608 -0.2617
 4704TIP3    H135671   0.239   0.683   0.590 -1.0536  1.1506 -1.4193
 4704TIP3    H235672   0.145   0.798   0.616 -0.9444  0.7206  1.1276
 4705TIP3   OH235673   4.473   5.507   1.014 -0.0261  0.3660  0.4857
 4705TIP3    H135674   4.491   5.566   0.941  1.7230  1.4494  1.7239
 4705TIP3    H235675   4.379   5.489   1.007  0.3390 -1.0775 -3.0542
 4706TIP3   OH235676   1.763   4.476   0.448  0.4818  0.7479  0.6212
 4706TIP3    H135677   1.853   4.507   0.439  0.9243 -0.7940 -0.9951
 4706TIP3    H235678   1.762   4.391   0.403 -1.4931  0.1323  1.6754
 4707TIP3   OH235679   6.599   3.197   1.048  0.5903  0.1420  0.2391
 4707TIP3    H135680   6.529   3.155   1.097  0.2770  2.2471  1.7101
 4707TIP3    H235681   6.629   3.129   0.987 -1.2995 -1.4729  0.9866
 4708TIP3   OH235682   3.829   5.439   0.468  0.3749 -0.0130 -0.2469
 4708TIP3    H135683   3.866   5.515   0.422 -0.2127  0.3088 -0.1908
 4708TIP3    H235684   3.743   5.426   0.428 -0.0601  0.1440  0.6124
 4709TIP3   OH235685   1.129   5.312   7.646  0.4144 -0.0169 -0.3544
 4709TIP3    H135686   1.123   5.406   7.658  0.8544 -0.1306  0.8781
 4709TIP3    H235687   1.175   5.301   7.563 -0.2827  0.8328 -0.8773
 4710TIP3   OH235688   3.999   0.761   1.413 -0.5698 -0.7755 -0.1955
 4710TIP3    H135689   4.016   0.809   1.494  0.7643 -1.2397 -0.1827
 4710TIP3    H235690   3.912   0.723   1.426 -0.4721 -0.6555  0.9174
 4711TIP3   OH235691   5.385   4.719   0.852 -0.3149 -0.0318 -0.4641
 4711TIP3    H135692   5.375   4.749   0.762 -1.9530 -1.3369 -0.7661
 4711TIP3    H235693   5.321   4.769   0.902 -0.1686 -0.0814 -0.2218
 4712TIP3   OH235694   2.595   5.146   1.195 -0.7307  0.8005 -0.0016
 4712TIP3    H135695   2.670   5.152   1.136 -1.7356 -1.4730 -1.6841
 4712TIP3    H235696   2.617   5.204   1.267  4.0512 -1.8318  1.1491
 4713TIP3   OH235697   0.814   2.727   2.974 -0.4833 -0.0190 -0.4413
 4713TIP3    H135698   0.754   2.738   3.047  0.7653 -3.0098  1.2281
 4713TIP3    H235699   0.879   2.796   2.985 -2.5182  2.1679 -1.2823
 4714TIP3   OH235700   2.102   3.771   1.086  0.5095 -0.1532  0.1781
 4714TIP3    H135701   2.137   3.797   1.172  0.4001 -1.4594  0.6326
 4714TIP3    H235702   2.009   3.789   1.091  0.8394  2.1851 -0.6077
 4715TIP3   OH235703   4.914   5.173   2.221  0.4402 -0.5743  0.2699
 4715TIP3    H135704   4.932   5.117   2.145 -1.7779 -2.4083  0.9691
 4715TIP3    H235705   4.999   5.179   2.266  1.9193  0.9200 -2.4653
 4716TIP3   OH235706   6.338   2.914   0.850 -0.0764  0.1498 -0.0067
 4716TIP3    H135707   6.300   2.955   0.928  0.8638 -1.2672  1.2684
 4716TIP3    H235708   6.324   2.820   0.864  0.6156 -0.1569 -1.2861
 4717TIP3   OH235709   5.334   6.200   7.453 -0.1628  0.1306  0.1931
 4717TIP3    H135710   5.360   6.170   7.365 -0.1571  1.5045 -0.2972
 4717TIP3    H235711   5.259   6.145   7.475 -1.7938  1.4026 -1.7703
 4718TIP3   OH235712   3.642   4.841   2.517 -0.4408 -0.1534  0.2013
 4718TIP3    H135713   3.646   4.892   2.436  0.3795  0.6796  0.7377
 4718TIP3    H235714   3.560   4.869   2.558 -0.2970  0.2904  0.1993
 4719TIP3   OH235715   4.382   2.440   3.113 -0.2676 -0.2182 -0.0405
 4719TIP3    H135716   4.401   2.532   3.128 -1.2547 -0.2074  1.4188
 4719TIP3    H235717   4.366   2.404   3.201  0.8012 -1.9551 -0.4992
 4720TIP3   OH235718   4.349   4.033   2.337 -0.7972  0.2499  0.4817
 4720TIP3    H135719   4.389   4.049   2.251 -0.5078  1.1839  0.7891
 4720TIP3    H235720   4.360   4.114   2.385 -2.1280  0.1777  0.9577
 4721TIP3   OH235721   5.818   5.727   1.969  0.4471  0.2677 -0.4625
 4721TIP3    H135722   5.753   5.683   1.914 -1.0260  0.3571  1.1052
 4721TIP3    H235723   5.770   5.799   2.010  1.3490 -0.0107  1.1907
 4722TIP3   OH235724   5.120   5.414   2.219  0.8540 -0.0244 -0.7056
 4722TIP3    H135725   5.157   5.492   2.259  2.4774 -0.6821 -0.8685
 4722TIP3    H235726   5.062   5.378   2.286  1.7234  0.1695  0.1626
 4723TIP3   OH235727   6.271   0.872   8.427  0.0547  0.1936 -0.2715
 4723TIP3    H135728   6.183   0.848   8.455 -0.9530 -1.0386 -3.8981
 4723TIP3    H235729   6.266   0.966   8.411 -0.0949  0.4259  1.0754
 4724TIP3   OH235730   3.504   4.961   0.572 -0.6369 -0.7606 -0.1760
 4724TIP3    H135731   3.533   5.047   0.604 -1.4026 -0.5245 -0.0953
 4724TIP3    H235732   3.423   4.980   0.525 -0.9002 -1.4663 -0.0079
 4725TIP3   OH235733   6.172   2.484   1.221 -0.0352 -0.6482  0.0501
 4725TIP3    H135734   6.123   2.523   1.294 -0.0266  0.1001 -0.3367
 4725TIP3    H235735   6.263   2.487   1.250 -0.2218 -2.5921  1.0278
 4726TIP3   OH235736   3.605   1.963   3.614  0.0266 -0.0961  0.3409
 4726TIP3    H135737   3.606   2.056   3.637  0.8461 -0.2112  0.8471
 4726TIP3    H235738   3.656   1.958   3.533  0.5108 -0.1635  0.6396
 4727TIP3   OH235739   6.604   0.596   2.176 -0.0714 -0.9625  1.0290
 4727TIP3    H135740   6.637   0.639   2.255 -1.3776 -0.4689  1.3398
 4727TIP3    H235741   6.671   0.532   2.154  3.4208  2.8772 -1.0316
 4728TIP3   OH235742   2.865   3.239   8.332 -0.3504  0.3588 -0.4382
 4728TIP3    H135743   2.837   3.161   8.284 -1.4008  0.2034  0.3946
 4728TIP3    H235744   2.958   3.224   8.349  0.2247  0.6932 -2.9124
 4729TIP3   OH235745   4.462   6.111   8.365  0.2209 -0.3815 -0.0139
 4729TIP3    H135746   4.450   6.107   8.460  0.0647  0.3193  0.0033
 4729TIP3    H235747   4.412   6.189   8.338  3.7910  2.1428 -0.0747
 4730TIP3   OH235748   2.150   2.474   2.442 -0.1917  0.5157 -0.0248
 4730TIP3    H135749   2.233   2.522   2.444  0.0598  0.1732 -1.1584
 4730TIP3    H235750   2.095   2.524   2.381 -0.6392  0.4540  0.3211
 4731TIP3   OH235751   6.293   0.993   2.422 -0.6762 -0.0970  0.0849
 4731TIP3    H135752   6.237   0.920   2.395  0.5466 -0.2073 -2.4007
 4731TIP3    H235753   6.348   1.011   2.346 -0.4217  2.9837  0.8624
 4732TIP3   OH235754   4.394   1.189   7.605 -0.1982 -0.3628  0.2686
 4732TIP3    H135755   4.312   1.235   7.586 -0.9155 -1.5087  0.5052
 4732TIP3    H235756   4.451   1.256   7.642 -1.1033  0.4094  0.2931
 4733TIP3   OH235757   2.900   0.525   2.816  0.1274 -0.6241 -0.0493
 4733TIP3    H135758   2.987   0.503   2.850 -0.6231 -2.2822  0.9251
 4733TIP3    H235759   2.842   0.518   2.892 -1.4811 -3.6626 -1.3734
 4734TIP3   OH235760   0.841   4.940   2.342 -0.5094  0.1425  0.2238
 4734TIP3    H135761   0.799   5.021   2.372 -0.3251  0.9153 -1.4390
 4734TIP3    H235762   0.833   4.944   2.246  1.0328 -0.9541  0.0162
 4735TIP3   OH235763   4.754   4.310   8.637 -0.6964  0.3384 -0.2555
 4735TIP3    H135764   4.755   4.222   8.676 -1.8833  0.2548 -0.3848
 4735TIP3    H235765   4.674   4.350   8.671 -1.4534  0.4874 -2.1232
 4736TIP3   OH235766   1.705   6.797   7.356 -0.2016 -0.1363  0.3129
 4736TIP3    H135767   1.762   6.861   7.399 -1.3464  1.8976 -0.9995
 4736TIP3    H235768   1.748   6.713   7.371  2.2598  1.0891  0.7746
 4737TIP3   OH235769   5.734   0.267   2.587  0.0521  0.1636 -0.0605
 4737TIP3    H135770   5.774   0.191   2.543  0.9001  0.2114  0.6089
 4737TIP3    H235771   5.688   0.313   2.517 -1.0744 -1.3423 -0.3606
 4738TIP3   OH235772   2.775   2.221   8.110  0.1408 -0.1384 -0.3514
 4738TIP3    H135773   2.820   2.261   8.036  0.5966 -0.7526 -0.4116
 4738TIP3    H235774   2.688   2.260   8.109  0.0155 -0.4182 -1.4351
 4739TIP3   OH235775   3.173   3.999   3.270  0.5132 -0.7813 -0.1120
 4739TIP3    H135776   3.210   3.939   3.206 -1.6424 -2.4559  0.0984
 4739TIP3    H235777   3.083   4.015   3.239  0.4425  0.9159  0.8194
 4740TIP3   OH235778   3.051   5.674   8.146  0.1323  0.3991  0.1381
 4740TIP3    H135779   3.100   5.750   8.115 -1.6584  1.2887 -0.6301
 4740TIP3    H235780   3.014   5.701   8.230  2.5938 -1.0083  1.7953
 4741TIP3   OH235781   5.610   4.447   1.811 -0.2784  0.3483 -0.1297
 4741TIP3    H135782   5.646   4.522   1.764  1.9426 -1.0403 -0.8405
 4741TIP3    H235783   5.587   4.384   1.743 -0.5842 -0.2389  0.4979
 4742TIP3   OH235784   5.218   4.821   2.198  0.1113  0.2127  0.4118
 4742TIP3    H135785   5.146   4.880   2.174  0.8122  0.6518 -0.7050
 4742TIP3    H235786   5.175   4.747   2.241 -1.1020  0.1143 -0.8885
 4743TIP3   OH235787   5.113   3.345   0.592  0.3022  0.0038 -0.5112
 4743TIP3    H135788   5.052   3.273   0.608  0.8626 -0.3418  0.0992
 4743TIP3    H235789   5.106   3.400   0.670 -0.8524  1.1610 -1.3872
 4744TIP3   OH235790   3.512   6.375   0.650  0.0356  0.3281 -0.1533
 4744TIP3    H135791   3.560   6.457   0.662 -0.7339  0.7806 -0.1382
 4744TIP3    H235792   3.533   6.348   0.560  1.2996 -0.1384  0.2492
 4745TIP3   OH235793   3.535   2.756   1.533  0.1261 -0.0968 -0.6009
 4745TIP3    H135794   3.446   2.727   1.553 -0.0491  0.2487 -0.8667
 4745TIP3    H235795   3.591   2.698   1.584 -0.2751  0.1764  0.1526
 4746TIP3   OH235796   2.449   1.391   1.925  0.1069  0.6065 -0.0095
 4746TIP3    H135797   2.414   1.315   1.972  0.6336  0.2505 -0.1793
 4746TIP3    H235798   2.379   1.455   1.928 -0.1970  0.2629  0.4944
 4747TIP3   OH235799   3.257   3.621   8.083 -0.3069  0.4678 -0.1797
 4747TIP3    H135800   3.189   3.688   8.076 -4.0516 -2.7661  1.4171
 4747TIP3    H235801   3.224   3.548   8.031  0.9679 -1.9072  2.0875
 4748TIP3   OH235802   5.707   6.360   7.256  0.1046  0.1005 -0.3405
 4748TIP3    H135803   5.656   6.441   7.264  0.0875  0.0909 -0.3533
 4748TIP3    H235804   5.797   6.389   7.241 -0.1527  0.1295 -2.1192
 4749TIP3   OH235805   3.431   5.460   0.101 -0.0132 -0.2341  0.3083
 4749TIP3    H135806   3.415   5.421   0.015  1.5651 -0.9674  0.3074
 4749TIP3    H235807   3.474   5.543   0.082 -2.9619  1.4537  0.3283
 4750TIP3   OH235808   3.065   3.523   8.649  0.2448  1.3451  0.3228
 4750TIP3    H135809   3.114   3.605   8.655  1.7372  0.5488 -0.3540
 4750TIP3    H235810   3.132   3.455   8.658 -0.5917  0.2128 -1.4220
 4751TIP3   OH235811   3.744   1.776   7.606  1.0347 -0.1088 -0.3066
 4751TIP3    H135812   3.772   1.688   7.629 -1.0092 -0.3371  1.6163
 4751TIP3    H235813   3.804   1.834   7.654  0.0196 -0.5454  1.5627
 4752TIP3   OH235814   5.261   3.877   2.155 -0.0275 -0.5950  0.1561
 4752TIP3    H135815   5.213   3.819   2.097 -1.5115 -0.8716  1.5820
 4752TIP3    H235816   5.339   3.827   2.180 -0.2124 -1.1108 -0.2898
 4753TIP3   OH235817   3.934   1.360   0.373 -0.3464  0.2764  0.3232
 4753TIP3    H135818   3.918   1.431   0.311 -0.9747  0.2582  0.4608
 4753TIP3    H235819   4.028   1.364   0.390 -0.2385  0.5397 -0.3156
 4754TIP3   OH235820   2.688   2.120   0.863  0.0484  0.1436  0.2954
 4754TIP3    H135821   2.664   2.161   0.780 -2.1691  0.0397  0.8232
 4754TIP3    H235822   2.743   2.046   0.838  0.4850  0.8697 -0.9779
 4755TIP3   OH235823   4.803   5.702   1.447  0.0729 -0.1543  0.4121
 4755TIP3    H135824   4.863   5.645   1.494  0.0570  1.2726  2.2865
 4755TIP3    H235825   4.752   5.744   1.516 -2.2031 -0.3452 -1.0647
 4756TIP3   OH235826   2.873   3.865   8.531 -0.0004  1.4422  0.3709
 4756TIP3    H135827   2.824   3.784   8.516  1.6513  0.3915  0.3900
 4756TIP3    H235828   2.902   3.891   8.443 -1.4277  2.6620  0.2158
 4757TIP3   OH235829   0.526   3.551   8.442  0.4474  0.8225  0.2241
 4757TIP3    H135830   0.498   3.581   8.528  0.2517  0.3598  0.3210
 4757TIP3    H235831   0.602   3.606   8.421  2.3317 -0.9606  1.9451
 4758TIP3   OH235832   2.494   3.810   2.320  0.2796 -0.3559 -0.9673
 4758TIP3    H135833   2.550   3.828   2.395 -0.5073  0.1815 -0.4893
 4758TIP3    H235834   2.408   3.791   2.358 -0.1020 -0.2015 -1.7161
 4759TIP3   OH235835   6.589   4.790   1.109  0.3818  0.0597  0.0608
 4759TIP3    H135836   6.613   4.866   1.160 -0.8509 -0.6275  1.7490
 4759TIP3    H235837   6.539   4.825   1.035 -1.7568  0.8453  1.7685
 4760TIP3   OH235838   6.037   6.735   1.635  0.2326 -0.2266  0.2474
 4760TIP3    H135839   6.026   6.651   1.590  2.2969 -0.4335  0.0162
 4760TIP3    H235840   6.075   6.792   1.569  0.6125  0.3205  0.9294
 4761TIP3   OH235841   1.481   1.906   2.653 -0.5805 -0.0434  0.5803
 4761TIP3    H135842   1.502   1.890   2.561 -0.6569 -1.3328  0.7571
 4761TIP3    H235843   1.440   1.992   2.655 -0.8667 -0.1464 -0.6350
 4762TIP3   OH235844   6.792   4.570   1.196 -0.0495  0.8486 -0.6257
 4762TIP3    H135845   6.794   4.579   1.291 -2.9308  0.6658 -0.4452
 4762TIP3    H235846   6.758   4.654   1.165  1.3001  1.0723 -1.5818
 4763TIP3   OH235847   0.577   2.109   8.608 -0.1108  0.2760  0.3513
 4763TIP3    H135848   0.634   2.041   8.574  0.1686  1.5184 -1.8262
 4763TIP3    H235849   0.637   2.178   8.637 -0.4534  0.5203  0.4910
 4764TIP3   OH235850   4.484   0.107   0.681  0.1994 -0.4231 -0.4935
 4764TIP3    H135851   4.522   0.139   0.599  1.7726  0.7361  0.6304
 4764TIP3    H235852   4.391   0.097   0.661  0.7563 -1.6113 -2.8250
 4765TIP3   OH235853   5.052   0.693   0.194 -0.6047  0.0882 -0.2100
 4765TIP3    H135854   4.998   0.736   0.261 -1.6568 -1.9222  0.3423
 4765TIP3    H235855   5.054   0.601   0.221 -0.6203 -0.7082 -2.6432
 4766TIP3   OH235856   3.172   5.526   1.800  0.0994 -0.0221 -0.4614
 4766TIP3    H135857   3.243   5.484   1.848  0.7886  1.1855 -0.3767
 4766TIP3    H235858   3.195   5.515   1.708  0.6340  0.7478 -0.4244
 4767TIP3   OH235859   2.777   1.447   2.807  0.0929 -0.5278 -0.2665
 4767TIP3    H135860   2.702   1.427   2.864  0.2972  0.1522  0.2632
 4767TIP3    H235861   2.746   1.519   2.752  0.8572  0.9212  1.1030
 4768TIP3   OH235862   5.901   0.762   3.232 -0.5749 -0.2402  0.0218
 4768TIP3    H135863   5.886   0.809   3.314  0.3750 -1.1735  0.7587
 4768TIP3    H235864   5.931   0.830   3.171 -1.3164  0.4681  0.4195
 4769TIP3   OH235865   0.379   1.378   8.027  0.0746  0.1742 -0.8199
 4769TIP3    H135866   0.405   1.288   8.004  0.2558 -0.1801  0.6973
 4769TIP3    H235867   0.418   1.432   7.958 -0.3109 -0.9224 -1.9560
 4770TIP3   OH235868   1.242   0.265   2.068  0.4092 -0.0444  0.4236
 4770TIP3    H135869   1.175   0.324   2.104  0.4632 -0.3845  1.1006
 4770TIP3    H235870   1.318   0.277   2.125  0.0711 -1.5390  1.2498
 4771TIP3   OH235871   3.125   6.259   2.826  0.1304 -0.0832  0.0380
 4771TIP3    H135872   3.053   6.242   2.887  0.5645  1.9475  1.2186
 4771TIP3    H235873   3.162   6.342   2.856  3.4460 -1.3732 -0.0733
 4772TIP3   OH235874   0.987   4.657   8.456 -0.9852 -0.2037 -0.6908
 4772TIP3    H135875   1.061   4.634   8.513 -0.4070 -0.7911 -1.6448
 4772TIP3    H235876   0.988   4.590   8.388 -1.0270  1.0511 -1.9680
 4773TIP3   OH235877   1.260   1.343   8.298 -0.3556  0.7894  0.5272
 4773TIP3    H135878   1.191   1.402   8.267 -2.0283 -0.7759  1.0980
 4773TIP3    H235879   1.222   1.300   8.374  0.8562 -0.9107  0.2205
 4774TIP3   OH235880   2.463   4.258   1.905 -0.4423 -0.5122  0.2678
 4774TIP3    H135881   2.394   4.226   1.846 -1.1037  0.8302  0.2763
 4774TIP3    H235882   2.417   4.278   1.987  0.2007 -0.8705  0.7190
 4775TIP3   OH235883   3.560   4.632   7.870  0.6245  0.2137  0.4000
 4775TIP3    H135884   3.478   4.668   7.903  1.1705  0.2977  1.7002
 4775TIP3    H235885   3.534   4.556   7.817 -0.4677  1.8419 -1.5507
 4776TIP3   OH235886   6.005   6.347   0.323 -0.3544 -0.5634  0.4794
 4776TIP3    H135887   6.064   6.323   0.395 -0.6996 -2.1952  0.2732
 4776TIP3    H235888   5.947   6.413   0.360  1.4033  0.9144  0.7658
 4777TIP3   OH235889   6.377   3.278   1.738 -0.1470  0.3825  0.2352
 4777TIP3    H135890   6.471   3.258   1.740 -0.0393  0.8524  2.0460
 4777TIP3    H235891   6.341   3.228   1.811 -0.7059  2.7885  1.7214
 4778TIP3   OH235892   0.252   6.258   1.485  0.5958  0.0962 -0.2512
 4778TIP3    H135893   0.339   6.236   1.452  0.7740  1.6952 -0.9254
 4778TIP3    H235894   0.210   6.306   1.413 -0.9415 -0.8160 -0.0279
 4779TIP3   OH235895   5.774   2.317   1.437  0.0521 -0.0468 -0.4414
 4779TIP3    H135896   5.865   2.287   1.435  0.4026  0.8254  1.1761
 4779TIP3    H235897   5.749   2.316   1.529 -1.1436  1.0068 -0.7148
 4780TIP3   OH235898   4.278   0.160   1.880 -0.4391 -0.1629  0.0970
 4780TIP3    H135899   4.242   0.130   1.963  0.7232 -2.2882 -0.1098
 4780TIP3    H235900   4.237   0.246   1.866 -1.8515 -0.4488  2.0649
 4781TIP3   OH235901   6.639   0.228   2.296 -0.5234 -0.1123 -0.1608
 4781TIP3    H135902   6.622   0.184   2.213  1.0050 -1.0291 -0.0319
 4781TIP3    H235903   6.727   0.265   2.285 -0.2843 -0.2888  1.0646
 4782TIP3   OH235904   1.173   3.121   8.333  0.3283  0.1254  0.6458
 4782TIP3    H135905   1.113   3.052   8.363  0.2487  0.5036  1.4012
 4782TIP3    H235906   1.169   3.117   8.238 -0.7854  0.0267  0.6784
 4783TIP3   OH235907   4.460   2.121   3.046 -0.5488 -0.1958 -0.0223
 4783TIP3    H135908   4.449   2.214   3.069 -0.0545  0.0640 -0.7793
 4783TIP3    H235909   4.440   2.118   2.952  0.5737 -0.6392 -0.2607
 4784TIP3   OH235910   2.880   5.510   1.299 -0.2435  0.5098 -0.7662
 4784TIP3    H135911   2.976   5.515   1.302 -0.2760  0.9533 -0.3836
 4784TIP3    H235912   2.852   5.600   1.286 -0.6619  0.6218  0.6946
 4785TIP3   OH235913   4.048   1.825   8.265  0.4866 -0.8776 -0.6301
 4785TIP3    H135914   4.098   1.907   8.261  1.7173 -1.3247  2.6521
 4785TIP3    H235915   4.029   1.805   8.173  1.2727  2.3600 -1.6575
 4786TIP3   OH235916   6.198   2.357   1.795  0.6740 -0.1116  0.1850
 4786TIP3    H135917   6.278   2.393   1.757 -1.2849  3.1480 -1.3156
 4786TIP3    H235918   6.157   2.309   1.722  0.4455 -0.3028  0.4380
 4787TIP3   OH235919   6.327   0.623   2.117  0.0685 -0.1553 -0.2111
 4787TIP3    H135920   6.290   0.710   2.106 -0.6478 -0.6028 -1.5199
 4787TIP3    H235921   6.419   0.639   2.138 -0.5641  0.9414  2.0260
 4788TIP3   OH235922   6.171   2.577   2.393  0.0643 -0.0197  0.2677
 4788TIP3    H135923   6.141   2.643   2.456  1.9167 -0.2657  1.5060
 4788TIP3    H235924   6.227   2.519   2.444  1.7444 -0.1772 -1.6029
 4789TIP3   OH235925   6.563   1.209   1.794 -0.1035 -0.1156  0.1352
 4789TIP3    H135926   6.627   1.199   1.724 -0.4250  2.8631 -0.6832
 4789TIP3    H235927   6.485   1.163   1.762  0.5813 -1.0202 -0.2676
 4790TIP3   OH235928   4.973   0.002   0.915  0.2319 -0.0378  0.5785
 4790TIP3    H135929   4.932   0.058   0.981  1.4100 -0.3332  1.6161
 4790TIP3    H235930   5.008   0.063   0.850 -3.8129  0.1864 -1.7169
 4791TIP3   OH235931   4.955   5.365   1.206  0.4097  0.2142 -0.4114
 4791TIP3    H135932   4.867   5.396   1.184  0.9023 -0.1818 -3.2782
 4791TIP3    H235933   4.959   5.277   1.169  2.2162  0.4726 -0.9105
 4792TIP3   OH235934   2.113   0.224   1.951 -0.0320 -0.0243  0.1091
 4792TIP3    H135935   2.109   0.269   1.867 -1.9139  0.6652  0.5156
 4792TIP3    H235936   2.180   0.157   1.939  0.4522  0.6961 -1.6000
 4793TIP3   OH235937   2.511   5.400   7.931  0.1331  0.5584  0.5211
 4793TIP3    H135938   2.575   5.460   7.969 -0.1434  1.3725 -0.2784
 4793TIP3    H235939   2.455   5.376   8.005  0.9467  0.3630  1.0835
 4794TIP3   OH235940   2.115   5.256   0.469 -0.1246  0.1279 -0.3525
 4794TIP3    H135941   2.149   5.345   0.478  0.1853  0.0232 -0.4756
 4794TIP3    H235942   2.023   5.268   0.443  0.0689  0.4063 -0.9141
 4795TIP3   OH235943   1.565   3.111   7.395  0.4362  0.0932 -0.1660
 4795TIP3    H135944   1.593   3.037   7.342  0.7633 -0.6227  0.9814
 4795TIP3    H235945   1.470   3.107   7.393  0.4079 -1.8368  1.8405
 4796TIP3   OH235946   1.343   6.401   0.900 -0.7860  1.0363 -0.1800
 4796TIP3    H135947   1.347   6.420   0.994 -0.5389  1.8961 -0.3589
 4796TIP3    H235948   1.283   6.465   0.865  0.1695  1.6037 -0.8224
 4797TIP3   OH235949   3.984   2.865   0.227  0.0566  0.0270  0.5050
 4797TIP3    H135950   4.021   2.933   0.171  0.2730 -2.4672 -2.6819
 4797TIP3    H235951   3.892   2.861   0.202 -0.1484 -0.2727  1.2825
 4798TIP3   OH235952   3.425   5.970   0.477  0.3698 -0.0742  0.2588
 4798TIP3    H135953   3.445   5.944   0.387 -0.4101 -1.4911  0.4743
 4798TIP3    H235954   3.500   5.939   0.528  1.0720  1.2134  0.0431
 4799TIP3   OH235955   0.490   1.046   7.018 -0.6507  0.0953  0.7456
 4799TIP3    H135956   0.523   0.964   6.982  0.1944  0.6073  0.3376
 4799TIP3    H235957   0.568   1.099   7.034 -1.2095  0.9811  0.6175
 4800TIP3   OH235958   0.268   1.450   1.640  0.0400  0.4646 -0.4215
 4800TIP3    H135959   0.189   1.472   1.591  0.1044  0.9206 -0.3197
 4800TIP3    H235960   0.251   1.361   1.672 -0.4877  0.6110 -0.2813
 4801TIP3   OH235961   1.776   0.182   1.824  0.8694 -1.1176  0.2991
 4801TIP3    H135962   1.852   0.207   1.878 -0.0716 -0.9859  1.6129
 4801TIP3    H235963   1.774   0.247   1.754  0.6031  0.3464  1.6075
 4802TIP3   OH235964   3.053   4.065   1.021 -0.2073 -0.5242 -0.0770
 4802TIP3    H135965   3.034   4.008   0.947 -1.0813 -0.4060  0.0408
 4802TIP3    H235966   2.967   4.089   1.055  0.1722 -0.0469  0.5699
 4803TIP3   OH235967   4.357   4.416   8.187  0.0406  0.2807 -0.0809
 4803TIP3    H135968   4.378   4.349   8.251  0.4140  0.8870  0.4487
 4803TIP3    H235969   4.403   4.494   8.218  0.2845  0.5686 -1.1262
 4804TIP3   OH235970   2.272   2.693   8.139 -0.4958 -0.0069  0.1761
 4804TIP3    H135971   2.277   2.620   8.077  1.5060  0.4694 -0.2887
 4804TIP3    H235972   2.179   2.701   8.159 -0.7116 -3.4983  1.2607
 4805TIP3   OH235973   4.583   3.402   0.520  0.0347 -0.3863  0.3163
 4805TIP3    H135974   4.590   3.336   0.451  0.6218  0.5360 -0.5403
 4805TIP3    H235975   4.642   3.472   0.492 -0.2277  0.3020  1.4308
 4806TIP3   OH235976   6.273   3.959   2.554 -0.0877 -0.2398  0.6216
 4806TIP3    H135977   6.336   4.012   2.506  1.0844 -1.9540  0.1472
 4806TIP3    H235978   6.221   4.022   2.604 -1.6144  1.7457 -3.0474
 4807TIP3   OH235979   5.626   1.483   1.312  0.2613  0.1435 -0.1781
 4807TIP3    H135980   5.611   1.425   1.386 -2.5708  0.8960 -0.0779
 4807TIP3    H235981   5.567   1.452   1.243  0.4710  1.4246 -0.9833
 4808TIP3   OH235982   5.097   0.067   1.566  0.0626 -0.4003  0.1277
 4808TIP3    H135983   5.131   0.156   1.572 -0.7448 -0.1775  1.9792
 4808TIP3    H235984   5.167   0.012   1.601 -0.7689 -0.0901  2.4578
 4809TIP3   OH235985   2.516   3.066   8.233 -0.4185 -0.0232  0.1816
 4809TIP3    H135986   2.423   3.087   8.240 -0.8361 -1.8909  0.7698
 4809TIP3    H235987   2.519   2.990   8.175  1.0172  1.4996 -1.8748
 4810TIP3   OH235988   5.105   3.163   7.301 -0.2754  0.4339 -0.2610
 4810TIP3    H135989   5.036   3.187   7.239 -0.0706 -0.1132 -0.7128
 4810TIP3    H235990   5.130   3.075   7.275 -0.8343 -0.1816  1.2052
 4811TIP3   OH235991   3.866   1.386   1.899 -1.0453 -0.0890 -0.0597
 4811TIP3    H135992   3.940   1.342   1.941 -0.4904 -1.1754 -2.0405
 4811TIP3    H235993   3.851   1.465   1.952  1.4209  0.0910  0.4746
 4812TIP3   OH235994   0.248   4.869   1.194 -0.3928  0.1741 -0.8265
 4812TIP3    H135995   0.314   4.850   1.260 -1.5043  0.0856  0.3010
 4812TIP3    H235996   0.215   4.783   1.168 -2.8300  0.2689  1.5702
 4813TIP3   OH235997   0.107   6.228   8.294  0.5258 -0.1489  0.0193
 4813TIP3    H135998   0.138   6.293   8.231 -0.6911 -0.1616 -0.6009
 4813TIP3    H235999   0.057   6.165   8.243 -0.2774 -0.2952  0.9564
 4814TIP3   OH236000   2.155   1.342   2.132  0.0332 -0.1441  0.3129
 4814TIP3    H136001   2.155   1.369   2.040 -0.3300  2.2888  0.9644
 4814TIP3    H236002   2.096   1.266   2.134 -0.2728  0.0017 -1.3911
 4815TIP3   OH236003   0.541   3.814   2.551  0.2456 -0.2742  0.2676
 4815TIP3    H136004   0.583   3.899   2.559 -0.9654  0.7259 -2.6934
 4815TIP3    H236005   0.593   3.767   2.486 -0.0733 -1.1452  0.6209
 4816TIP3   OH236006   3.061   1.279   1.953  0.3380 -0.0623  0.5348
 4816TIP3    H136007   3.141   1.258   2.002 -0.2604 -1.6185  0.8848
 4816TIP3    H236008   3.093   1.327   1.876  1.5210  0.1747  1.1496
 4817TIP3   OH236009   4.728   2.515   8.574 -0.1367  0.1084  0.4994
 4817TIP3    H136010   4.799   2.550   8.628 -0.0688  2.3819 -0.8933
 4817TIP3    H236011   4.649   2.534   8.623  0.0660 -0.0169  0.8758
 4818TIP3   OH236012   0.505   3.926   7.766 -0.0955 -0.0443 -0.5380
 4818TIP3    H136013   0.546   3.956   7.686 -0.3103  1.7548 -0.0315
 4818TIP3    H236014   0.534   3.835   7.777  0.6473 -0.0219 -2.1543
 4819TIP3   OH236015   1.809   5.081   1.949  0.0469  0.2728  0.1079
 4819TIP3    H136016   1.719   5.113   1.942 -0.7372 -1.6237  0.8979
 4819TIP3    H236017   1.852   5.143   2.007 -0.9393  0.8260  0.2611
 4820TIP3   OH236018   2.210   3.960   0.472 -0.0286  0.3294 -0.1573
 4820TIP3    H136019   2.270   3.889   0.448  0.4585  1.0780 -1.2468
 4820TIP3    H236020   2.267   4.037   0.481 -0.3695  0.3785  2.2043
 4821TIP3   OH236021   2.691   4.820   8.128  0.5794 -0.2959 -0.2172
 4821TIP3    H136022   2.774   4.779   8.149 -0.3879 -2.6392 -0.6827
 4821TIP3    H236023   2.706   4.862   8.043  0.9179 -1.9955 -1.0384
 4822TIP3   OH236024   1.088   6.457   3.010 -0.6427  0.6151  0.5623
 4822TIP3    H136025   1.023   6.493   3.070 -1.1573  1.5002 -0.5093
 4822TIP3    H236026   1.171   6.494   3.040 -0.5623 -0.6848  2.0650
 4823TIP3   OH236027   3.840   2.026   3.091  0.0970 -0.0614 -0.2944
 4823TIP3    H136028   3.755   2.033   3.047  0.6483 -1.2855 -1.6430
 4823TIP3    H236029   3.892   2.098   3.054  0.1918 -0.3888 -0.8167
 4824TIP3   OH236030   2.319   6.097   0.272 -0.1027 -0.1782  0.1215
 4824TIP3    H136031   2.233   6.072   0.306 -0.3333  0.2716 -0.1166
 4824TIP3    H236032   2.330   6.045   0.193  0.4171 -1.1981  0.8401
 4825TIP3   OH236033   4.613   2.958   1.668  0.3320 -0.1411  0.5338
 4825TIP3    H136034   4.684   2.905   1.631  0.7000  0.0423  0.9656
 4825TIP3    H236035   4.621   2.948   1.763  0.1649  0.3702  0.6087
 4826TIP3   OH236036   1.191   1.930   8.368 -0.4542  0.2748 -0.1612
 4826TIP3    H136037   1.219   1.967   8.452 -0.9360  1.2140 -0.4008
 4826TIP3    H236038   1.248   1.972   8.304  0.6952 -1.2960 -0.2273
 4827TIP3   OH236039   0.342   2.673   2.433 -0.1390 -0.2723  0.6417
 4827TIP3    H136040   0.384   2.729   2.367  1.5303 -1.3775  0.6872
 4827TIP3    H236041   0.410   2.660   2.499 -0.8667 -1.4396  1.1793
 4828TIP3   OH236042   6.178   1.835   7.972  0.1966 -0.0411  0.2684
 4828TIP3    H136043   6.096   1.838   8.022 -0.1388  0.9019 -0.3214
 4828TIP3    H236044   6.168   1.902   7.905  1.6977  0.4922  0.5374
 4829TIP3   OH236045   3.886   6.549   0.124 -0.2501 -0.0982  0.2817
 4829TIP3    H136046   3.901   6.598   0.043 -1.1542  1.6672  1.1413
 4829TIP3    H236047   3.948   6.585   0.187 -0.7651 -0.2203  0.8720
 4830TIP3   OH236048   1.982   1.962   0.112 -0.0321 -0.1041  0.0682
 4830TIP3    H136049   2.076   1.978   0.106  0.0435 -0.2126  0.8369
 4830TIP3    H236050   1.943   2.050   0.116  0.1161 -0.0587  0.6939
 4831TIP3   OH236051   3.853   4.911   1.717  0.1566  0.0024  0.2287
 4831TIP3    H136052   3.894   4.887   1.800  0.8057 -0.6405 -0.2669
 4831TIP3    H236053   3.759   4.906   1.735  0.2819 -0.9598  0.7076
 4832TIP3   OH236054   5.281   5.229   1.101 -0.2715  0.3316 -0.1100
 4832TIP3    H136055   5.215   5.201   1.038  0.3624 -1.5387  0.0039
 4832TIP3    H236056   5.291   5.323   1.085 -0.8465  0.0984 -2.1256
 4833TIP3   OH236057   0.199   1.592   2.630 -0.8742  0.0401  0.8133
 4833TIP3    H136058   0.242   1.507   2.626  0.0650  0.5426 -0.2089
 4833TIP3    H236059   0.198   1.615   2.723 -0.0207 -0.5301  0.9632
 4834TIP3   OH236060   4.252   4.699   8.493  0.4568 -0.5777 -0.4370
 4834TIP3    H136061   4.307   4.699   8.415  0.4070 -0.4661 -0.4730
 4834TIP3    H236062   4.213   4.787   8.494  1.2741 -0.2128  0.2963
 4835TIP3   OH236063   1.455   5.639   2.087 -0.9013  0.3942  0.4286
 4835TIP3    H136064   1.441   5.546   2.072  0.7904  0.0568  0.8029
 4835TIP3    H236065   1.386   5.664   2.149 -0.0366 -1.1326  2.0739
 4836TIP3   OH236066   2.195   6.410   1.058 -0.0120  0.3424 -0.1870
 4836TIP3    H136067   2.125   6.475   1.062 -0.8466 -0.5527  0.3440
 4836TIP3    H236068   2.168   6.342   1.121  1.1618 -0.1857 -0.2316
 4837TIP3   OH236069   0.840   6.775   2.570  0.0002 -0.3413 -0.1907
 4837TIP3    H136070   0.911   6.823   2.528 -0.5257  1.2933  0.7284
 4837TIP3    H236071   0.862   6.775   2.663 -0.4576 -1.1363 -0.0717
 4838TIP3   OH236072   2.409   4.057   3.252  0.7026  0.0358  0.0816
 4838TIP3    H136073   2.478   3.991   3.240 -0.9946 -1.8598  0.1836
 4838TIP3    H236074   2.338   4.010   3.296 -0.2897  2.1800  0.9295
 4839TIP3   OH236075   1.353   2.363   0.477  0.2717 -0.5721  0.2824
 4839TIP3    H136076   1.348   2.326   0.389  0.9161  0.6467 -0.2792
 4839TIP3    H236077   1.279   2.322   0.523 -1.3446  0.2840 -1.4029
 4840TIP3   OH236078   5.806   0.599   2.813  0.5025 -0.2688 -0.7290
 4840TIP3    H136079   5.759   0.587   2.896 -1.7094  0.2022 -1.8322
 4840TIP3    H236080   5.898   0.585   2.836  0.4380  2.9260  2.5155
 4841TIP3   OH236081   3.001   1.015   2.554  0.4140 -0.3788  0.1386
 4841TIP3    H136082   2.996   0.935   2.606  2.2216 -0.3148  0.4634
 4841TIP3    H236083   2.927   1.068   2.585  1.2955 -0.4310  2.5562
 4842TIP3   OH236084   2.219   2.849   8.728 -1.0268 -0.4096 -0.0390
 4842TIP3    H136085   2.157   2.916   8.756 -0.3191  0.2884 -0.1128
 4842TIP3    H236086   2.183   2.816   8.645 -0.3205  1.3810 -1.1277
 4843TIP3   OH236087   4.584   3.306   3.026 -0.1088 -0.0299 -0.1533
 4843TIP3    H136088   4.649   3.255   2.978  0.2379 -0.0487  0.3172
 4843TIP3    H236089   4.550   3.246   3.092 -0.6284 -0.0261 -0.4137
 4844TIP3   OH236090   2.404   2.359   2.579 -0.4384 -0.7906 -0.2629
 4844TIP3    H136091   2.435   2.414   2.651  0.5423 -1.8979  0.1825
 4844TIP3    H236092   2.313   2.341   2.600 -2.0108  3.4690 -2.1644
 4845TIP3   OH236093   2.778   0.472   8.027  0.3554 -0.2380  0.5736
 4845TIP3    H136094   2.848   0.461   8.091  0.1153  0.1480  0.9046
 4845TIP3    H236095   2.824   0.481   7.943  0.6276 -4.1911  0.0895
 4846TIP3   OH236096   6.513   2.551   0.257 -0.0603  0.6852 -0.4044
 4846TIP3    H136097   6.564   2.525   0.181 -1.4130  1.0445 -1.4819
 4846TIP3    H236098   6.576   2.557   0.328  1.2784  0.5645 -1.5503
 4847TIP3   OH236099   4.566   2.580   0.421  0.2847 -0.5436 -0.2628
 4847TIP3    H136100   4.642   2.525   0.438  0.9092  0.5162  0.4555
 4847TIP3    H236101   4.569   2.597   0.327  0.0361 -1.7588 -0.5179
 4848TIP3   OH236102   2.597   1.522   1.455 -0.2712 -0.3523  0.1288
 4848TIP3    H136103   2.606   1.503   1.548 -0.6185 -0.7034  0.0933
 4848TIP3    H236104   2.553   1.607   1.452  0.3952  0.0018  0.2849
 4849TIP3   OH236105   4.389   3.036   7.893  0.1258 -0.3050  0.0681
 4849TIP3    H136106   4.391   2.951   7.850 -1.3830 -0.8181  0.9203
 4849TIP3    H236107   4.367   3.098   7.824 -0.4490 -0.8553 -0.2546
 4850TIP3   OH236108   5.812   2.874   2.312  0.5485 -0.1705  0.1313
 4850TIP3    H136109   5.763   2.910   2.386 -0.2599  0.7834 -0.8393
 4850TIP3    H236110   5.819   2.780   2.331 -1.8822 -0.3979  0.1913
 4851TIP3   OH236111   1.375   6.825   7.513 -0.2050 -0.1454 -0.3611
 4851TIP3    H136112   1.410   6.741   7.482  0.2501  0.3647 -1.2730
 4851TIP3    H236113   1.293   6.802   7.557 -0.7502 -0.9508 -1.7440
 4852TIP3   OH236114   4.193   0.256   1.492  0.2250  0.0017 -0.3802
 4852TIP3    H136115   4.131   0.274   1.563  2.9028  3.4708  1.3797
 4852TIP3    H236116   4.163   0.312   1.420  0.5155  0.6769  0.0092
 4853TIP3   OH236117   3.310   3.733   1.789  0.3090  0.1148 -0.1394
 4853TIP3    H136118   3.329   3.817   1.831 -0.7035  0.6370 -0.6959
 4853TIP3    H236119   3.276   3.678   1.859 -0.6527  0.7380 -0.1059
 4854TIP3   OH236120   2.817   5.641   2.559 -0.3531 -0.0735 -0.2491
 4854TIP3    H136121   2.824   5.730   2.525 -0.9979  0.4360  0.9174
 4854TIP3    H236122   2.724   5.628   2.575 -0.1393 -0.5434  0.6745
 4855TIP3   OH236123   2.296   3.484   2.694  0.0646 -0.2532 -0.1653
 4855TIP3    H136124   2.283   3.442   2.779  0.9897 -0.4061 -0.0872
 4855TIP3    H236125   2.297   3.578   2.713  2.1566 -0.3098  0.3254
 4856TIP3   OH236126   2.388   1.454   2.983 -0.1785  0.1669  0.3781
 4856TIP3    H136127   2.332   1.531   2.990 -1.8901 -1.1784  3.5403
 4856TIP3    H236128   2.470   1.480   3.025  0.5112  1.1883 -1.4989
 4857TIP3   OH236129   6.680   2.462   0.054 -0.0428 -0.3962  0.5541
 4857TIP3    H136130   6.766   2.492   0.027  0.5307 -3.4211 -1.3893
 4857TIP3    H236131   6.620   2.494  -0.013  0.0667 -0.8306  0.2441
 4858TIP3   OH236132   6.820   4.788   3.115 -0.0526  0.5094  0.4766
 4858TIP3    H136133   6.909   4.762   3.139 -1.6121 -2.4448  4.2373
 4858TIP3    H236134   6.774   4.705   3.101 -3.1963  1.5187  3.4127
 4859TIP3   OH236135   3.227   5.289   7.571 -0.1708 -0.1927 -0.2573
 4859TIP3    H136136   3.253   5.223   7.506  0.8773  0.4366 -0.5048
 4859TIP3    H236137   3.197   5.364   7.520  3.5607  1.5275 -0.2492
 4860TIP3   OH236138   1.096   4.529   1.307  0.3137  0.0386  0.2592
 4860TIP3    H136139   1.096   4.521   1.212 -1.1463 -0.8450  0.2941
 4860TIP3    H236140   1.187   4.514   1.333  1.2422  2.6567 -1.1209
 4861TIP3   OH236141   0.108   0.807   2.864  0.2175 -0.5947  0.5794
 4861TIP3    H136142   0.111   0.723   2.819  0.5330 -0.5541  0.5221
 4861TIP3    H236143   0.156   0.792   2.946 -0.7647 -0.8019  1.1346
 4862TIP3   OH236144   4.455   3.551   3.055 -0.6641 -0.0078  0.2553
 4862TIP3    H136145   4.466   3.455   3.053 -1.0641 -0.0511 -1.6335
 4862TIP3    H236146   4.514   3.580   3.124 -1.0491 -1.6748  1.3506
 4863TIP3   OH236147   2.581   5.739   0.891 -0.3723  0.1893 -0.3522
 4863TIP3    H136148   2.533   5.789   0.957 -0.4894  0.5476 -0.7008
 4863TIP3    H236149   2.644   5.688   0.940 -1.7290 -1.0067  0.2106
 4864TIP3   OH236150   0.133   6.444   1.342 -0.4330  0.0358 -0.0256
 4864TIP3    H136151   0.109   6.533   1.371 -2.5789 -0.0581 -1.2841
 4864TIP3    H236152   0.141   6.451   1.247 -1.1974 -1.2272 -0.1975
 4865TIP3   OH236153   4.997   6.775   8.525 -0.3203  0.3218 -0.5296
 4865TIP3    H136154   4.926   6.836   8.506 -0.2733  0.4218 -0.3874
 4865TIP3    H236155   5.062   6.827   8.573  0.5814  0.6418 -2.0315
 4866TIP3   OH236156   3.324   4.847   1.755  0.0620 -0.4495  0.2478
 4866TIP3    H136157   3.303   4.839   1.848  1.0793 -0.3914  0.4990
 4866TIP3    H236158   3.270   4.918   1.723  1.4301  1.1674  1.3689
 4867TIP3   OH236159   2.452   0.440   2.697  0.1989  0.0299 -0.1576
 4867TIP3    H136160   2.368   0.394   2.701 -0.4640  1.1844 -0.2218
 4867TIP3    H236161   2.477   0.452   2.788 -0.3177  0.7357 -0.1012
 4868TIP3   OH236162   0.644   5.837   0.194 -0.0154  0.5601 -0.3090
 4868TIP3    H136163   0.615   5.913   0.244 -0.1879  0.3835 -0.1385
 4868TIP3    H236164   0.577   5.770   0.210  0.1504  0.3607 -0.4308
 4869TIP3   OH236165   5.292   0.214   3.086  0.0744  0.1015  0.2816
 4869TIP3    H136166   5.230   0.142   3.088  0.5839 -0.3408  0.3389
 4869TIP3    H236167   5.290   0.250   3.175  1.2169 -1.0603  0.8179
 4870TIP3   OH236168   0.344   5.123   7.650  0.8802  0.0730 -0.1270
 4870TIP3    H136169   0.433   5.105   7.618  0.6577 -0.7717 -0.2781
 4870TIP3    H236170   0.297   5.154   7.573  0.4692 -1.5246 -0.5463
 4871TIP3   OH236171   3.257   1.359   8.474 -0.4977  0.1069  0.0142
 4871TIP3    H136172   3.275   1.380   8.382 -0.2564 -1.1817 -0.2595
 4871TIP3    H236173   3.328   1.401   8.522 -1.1599  1.6018 -0.2738
 4872TIP3   OH236174   5.694   2.361   7.807  0.0607  0.0663 -0.1177
 4872TIP3    H136175   5.778   2.317   7.794  1.0444  2.2081 -1.5826
 4872TIP3    H236176   5.710   2.423   7.878 -0.4936  0.0184  0.0552
 4873TIP3   OH236177   5.535   5.630   3.077 -0.5016  0.3782  0.0139
 4873TIP3    H136178   5.563   5.655   3.165 -0.8424  0.4116  0.1153
 4873TIP3    H236179   5.561   5.703   3.021  1.4384 -0.4592 -0.2523
 4874TIP3   OH236180   4.159   1.626   8.447 -0.0935  0.6882  0.2836
 4874TIP3    H136181   4.220   1.689   8.484  2.5402  0.2085 -2.7347
 4874TIP3    H236182   4.114   1.674   8.377 -1.6400  0.4358  1.0687
 4875TIP3   OH236183   4.501   5.018   0.735 -0.0206 -0.2253 -0.4659
 4875TIP3    H136184   4.483   5.032   0.828 -0.7121 -1.3048 -0.4186
 4875TIP3    H236185   4.564   4.946   0.733  1.9631  1.4175 -0.7714
 4876TIP3   OH236186   1.234   3.204   7.809  0.5714  0.2977 -0.1187
 4876TIP3    H136187   1.243   3.130   7.749  0.6254  0.2628 -0.0674
 4876TIP3    H236188   1.271   3.278   7.761  0.2692  0.3489 -0.2776
 4877TIP3   OH236189   2.685   4.873   0.212  0.2216  0.1551  0.0810
 4877TIP3    H136190   2.612   4.919   0.254  0.9378  0.4043  1.0847
 4877TIP3    H236191   2.731   4.941   0.163  1.4115  0.6295  1.7445
 4878TIP3   OH236192   5.177   5.679   8.017 -0.0002 -0.1655 -0.0877
 4878TIP3    H136193   5.136   5.680   8.104 -0.6615  1.4728 -0.3740
 4878TIP3    H236194   5.110   5.641   7.960  1.1821 -3.2235  0.3765
 4879TIP3   OH236195   0.895   6.725   6.920  0.2120  0.2614  0.4492
 4879TIP3    H136196   0.958   6.745   6.850 -0.6545  0.5476 -0.2729
 4879TIP3    H236197   0.905   6.631   6.934  0.8240  0.3088  0.3755
 4880TIP3   OH236198   2.884   1.160   0.042 -0.0110  0.0029  0.6242
 4880TIP3    H136199   2.902   1.111   0.122 -1.2104 -0.9343  0.3428
 4880TIP3    H236200   2.968   1.198   0.018  0.2018  1.1191  2.8473
 4881TIP3   OH236201   1.823   5.856   0.529 -0.2155 -0.1228 -0.3583
 4881TIP3    H136202   1.737   5.816   0.525 -0.5674  0.6497 -0.7462
 4881TIP3    H236203   1.806   5.948   0.552  0.4860  0.0674 -0.5631
 4882TIP3   OH236204   0.110   0.564   2.740 -0.4258  0.0079 -0.4383
 4882TIP3    H136205   0.172   0.510   2.789  0.2593 -0.6314 -1.9484
 4882TIP3    H236206   0.040   0.503   2.715  0.1779 -0.1582 -1.8471
 4883TIP3   OH236207   0.063   3.891   8.338  0.1473 -0.3546  0.0104
 4883TIP3    H136208   0.132   3.893   8.271  0.2117  0.3952  0.0894
 4883TIP3    H236209  -0.006   3.947   8.302 -0.2419 -0.7493  0.1320
 4884TIP3   OH236210   4.813   2.208   2.489 -0.6363 -0.1491  0.5301
 4884TIP3    H136211   4.728   2.165   2.497 -1.0486  0.7648  1.2828
 4884TIP3    H236212   4.848   2.176   2.406 -0.8401 -2.0338  1.1048
 4885TIP3   OH236213   1.631   0.952   7.936 -0.6318  0.1529  0.2069
 4885TIP3    H136214   1.553   0.999   7.967 -1.3120 -0.0152 -1.1794
 4885TIP3    H236215   1.598   0.894   7.868  0.3396 -1.7337  1.2801
 4886TIP3   OH236216   4.059   1.744   2.942  0.0561 -0.3896 -0.0992
 4886TIP3    H136217   4.051   1.742   2.847  0.7523 -0.1149 -0.1666
 4886TIP3    H236218   4.072   1.836   2.963  0.8165 -0.5525  0.1802
 4887TIP3   OH236219   6.116   1.453   1.894 -0.4140  0.1183 -0.1060
 4887TIP3    H136220   6.032   1.442   1.848 -1.4123  1.6526  1.2429
 4887TIP3    H236221   6.148   1.538   1.865 -0.6355  0.7181  1.3035
 4888TIP3   OH236222   1.188   2.732   2.978 -0.2716  0.1165 -0.7558
 4888TIP3    H136223   1.112   2.789   2.991  0.4424  0.7520  0.9450
 4888TIP3    H236224   1.263   2.791   2.978  0.2914 -0.5739 -1.7584
 4889TIP3   OH236225   0.201   0.900   0.337 -0.4117 -0.4126 -0.5073
 4889TIP3    H136226   0.273   0.870   0.392 -0.8767 -0.6044  0.0087
 4889TIP3    H236227   0.144   0.948   0.397 -0.7517 -0.3325 -0.8922
 4890TIP3   OH236228   6.237   1.685   1.773  0.0903  0.1522 -0.1696
 4890TIP3    H136229   6.183   1.707   1.696 -0.6769 -0.9057  0.0327
 4890TIP3    H236230   6.313   1.639   1.737  1.4161  2.5058 -0.5429
 4891TIP3   OH236231   5.636   0.308   3.039  0.4821  0.1904 -0.3288
 4891TIP3    H136232   5.681   0.368   2.979  0.1819  0.6096 -0.1430
 4891TIP3    H236233   5.684   0.318   3.122  1.2061 -0.7564 -0.6243
 4892TIP3   OH236234   3.561   1.325   0.881  0.1518 -0.0753 -0.6593
 4892TIP3    H136235   3.557   1.246   0.827  2.0167 -0.8854  0.2683
 4892TIP3    H236236   3.587   1.293   0.968  0.2403  1.4873 -0.0830
 4893TIP3   OH236237   2.912   5.440   1.612 -0.2573 -0.6126  0.2995
 4893TIP3    H136238   2.937   5.486   1.532 -0.4842 -0.2304  0.4458
 4893TIP3    H236239   2.889   5.510   1.674  1.8233 -0.7949  1.3639
 4894TIP3   OH236240   4.569   4.995   1.667  0.2875 -0.3030  0.1822
 4894TIP3    H136241   4.514   4.926   1.705  0.8169  0.0844  1.7151
 4894TIP3    H236242   4.520   5.076   1.681  1.1212  0.0225  1.4049
 4895TIP3   OH236243   1.106   3.567   0.997 -0.1314 -0.6416  0.5045
 4895TIP3    H136244   1.096   3.612   1.081  0.6923 -0.8430  0.7247
 4895TIP3    H236245   1.017   3.552   0.967 -0.4334  0.3221  0.8614
 4896TIP3   OH236246   5.520   5.047   0.968  1.0038  0.2067 -0.2582
 4896TIP3    H136247   5.519   5.123   0.909 -1.1657  0.1380 -0.3816
 4896TIP3    H236248   5.439   5.001   0.949  1.1358 -0.8436  1.5081
 4897TIP3   OH236249   3.111   4.640   0.905  0.0483  0.3027  0.0213
 4897TIP3    H136250   3.165   4.702   0.855  0.0587  0.2327 -0.0554
 4897TIP3    H236251   3.174   4.589   0.956  0.3957 -1.9582 -2.4406
 4898TIP3   OH236252   1.330   5.855   2.707  0.2877  0.4117  0.7648
 4898TIP3    H136253   1.409   5.804   2.726  1.8883  2.6127  0.3966
 4898TIP3    H236254   1.312   5.838   2.615 -1.9101 -2.9057  1.6526
 4899TIP3   OH236255   3.266   4.552   8.515  0.2565 -0.2158 -0.5953
 4899TIP3    H136256   3.316   4.558   8.596  1.8964 -0.7175 -1.5231
 4899TIP3    H236257   3.288   4.632   8.467  0.9865 -0.9011 -1.4365
 4900TIP3   OH236258   2.979   0.472   8.195  0.0483 -0.4655 -0.3158
 4900TIP3    H136259   3.032   0.407   8.242 -0.1594 -0.7956 -0.5359
 4900TIP3    H236260   2.958   0.538   8.262  2.8600  1.0409 -0.7755
 4901TIP3   OH236261   4.307   1.808   3.739 -0.0280  0.3842 -0.3169
 4901TIP3    H136262   4.271   1.750   3.807  1.2635  0.0729  0.1239
 4901TIP3    H236263   4.277   1.770   3.657 -0.2712 -0.1684  0.0217
 4902TIP3   OH236264   2.545   4.888   0.859  0.0551  0.0092  0.2781
 4902TIP3    H136265   2.450   4.904   0.861 -0.0008 -0.3747  0.9665
 4902TIP3    H236266   2.582   4.957   0.914  0.4166  1.5811 -1.8013
 4903TIP3   OH236267   0.269   0.884   2.521  0.3019  0.0988 -0.1954
 4903TIP3    H136268   0.246   0.971   2.555 -0.5655 -0.0479 -0.3692
 4903TIP3    H236269   0.323   0.845   2.589  1.3517  1.0529 -0.4370
 4904TIP3   OH236270   4.155   5.384   1.023 -0.5468 -0.5072 -0.3173
 4904TIP3    H136271   4.071   5.354   1.057 -1.2103 -0.1655 -1.6010
 4904TIP3    H236272   4.213   5.383   1.099 -1.5223 -1.4125  0.4453
 4905TIP3   OH236273   5.397   5.670   8.616  0.0301 -0.1343 -0.2004
 4905TIP3    H136274   5.446   5.746   8.647 -0.6278  0.4246 -0.4984
 4905TIP3    H236275   5.380   5.618   8.695  1.6561 -0.6927 -0.1698
 4906TIP3   OH236276   5.642   5.940   2.004 -0.4907  0.3424 -0.4898
 4906TIP3    H136277   5.621   6.003   2.073 -0.8030 -1.5196  1.1833
 4906TIP3    H236278   5.560   5.927   1.957 -0.7733  0.1143  0.0634
 4907TIP3   OH236279   4.875   3.761   0.001 -0.3379 -0.4047  0.0173
 4907TIP3    H136280   4.913   3.802   0.079 -1.0212 -0.3313  0.3186
 4907TIP3    H236281   4.838   3.679   0.034 -3.0442  0.8365  0.3529
 4908TIP3   OH236282   1.359   2.290   1.702 -0.8670 -0.1788 -0.3918
 4908TIP3    H136283   1.296   2.352   1.739 -2.0710 -0.5909 -1.6692
 4908TIP3    H236284   1.323   2.268   1.616  0.3462 -1.4603 -0.6048
 4909TIP3   OH236285   2.616   0.827   1.751  0.4945  0.3897 -0.2708
 4909TIP3    H136286   2.697   0.777   1.737  0.1308  0.1657 -1.7761
 4909TIP3    H236287   2.593   0.811   1.842  1.6543 -0.2898 -0.0770
 4910TIP3   OH236288   4.261   0.006   7.838 -0.0966 -0.1846  0.4079
 4910TIP3    H136289   4.268  -0.026   7.748 -1.2916 -0.2656  0.3208
 4910TIP3    H236290   4.347   0.042   7.858  0.5332 -1.1965 -0.3682
 4911TIP3   OH236291   4.489   2.809   0.589  0.1109  0.2348  0.0957
 4911TIP3    H136292   4.397   2.783   0.581  0.4913 -1.3878  0.5051
 4911TIP3    H236293   4.533   2.762   0.518  0.8735 -0.4666  1.0063
 4912TIP3   OH236294   1.612   0.767   0.502 -0.2302  0.5355  0.0809
 4912TIP3    H136295   1.548   0.696   0.506  0.4534 -0.1532 -0.8779
 4912TIP3    H236296   1.696   0.723   0.487  0.4726  1.4271  1.2136
 4913TIP3   OH236297   4.905   0.663   1.907 -0.1920  0.3358  0.5300
 4913TIP3    H136298   4.820   0.702   1.888  0.9165  1.9955 -1.5127
 4913TIP3    H236299   4.907   0.582   1.855  0.8134  2.2341 -2.6984
 4914TIP3   OH236300   5.391   4.000   7.852 -0.2103  0.2313 -0.1864
 4914TIP3    H136301   5.384   3.944   7.775 -0.1951 -0.2010  0.1143
 4914TIP3    H236302   5.410   4.087   7.818  1.4070 -0.2385 -0.6191
 4915TIP3   OH236303   4.865   0.494   0.753  0.0462  0.0346 -0.0058
 4915TIP3    H136304   4.947   0.526   0.791 -0.2561  0.9341 -0.0947
 4915TIP3    H236305   4.870   0.517   0.661 -0.2455 -0.0215 -0.0379
 4916TIP3   OH236306   3.616   2.195   7.840 -0.7691 -0.0226  0.1409
 4916TIP3    H136307   3.625   2.238   7.755  0.0076  0.4388  0.4515
 4916TIP3    H236308   3.634   2.103   7.822  0.6747  0.2580  0.0188
 4917TIP3   OH236309   6.796   1.004   7.409 -0.8177  0.1876  0.1160
 4917TIP3    H136310   6.795   0.944   7.483 -1.5036 -1.7158 -1.3475
 4917TIP3    H236311   6.715   0.985   7.362  1.4297 -1.8037 -3.4123
 4918TIP3   OH236312   0.756   6.760   8.651  0.1181  0.3211 -0.5489
 4918TIP3    H136313   0.823   6.800   8.596 -0.4862  1.6667 -0.3471
 4918TIP3    H236314   0.746   6.821   8.724  0.2012 -0.9414  0.5480
 4919TIP3   OH236315   5.839   1.922   2.741  0.5256  0.0679 -0.0220
 4919TIP3    H136316   5.917   1.886   2.785 -0.0164 -0.4262  0.5469
 4919TIP3    H236317   5.861   1.919   2.648  0.0364 -2.9456 -0.1428
 4920TIP3   OH236318   2.900   4.147   0.087  0.1815 -0.6952  0.2064
 4920TIP3    H136319   2.969   4.128   0.023 -0.6872  1.2417 -1.4011
 4920TIP3    H236320   2.869   4.234   0.064  0.9419  0.8955  4.3543
 4921TIP3   OH236321   3.043   3.367   2.902  0.2332  0.2206  0.2472
 4921TIP3    H136322   3.115   3.426   2.923  0.1471 -0.0572  1.4132
 4921TIP3    H236323   3.081   3.280   2.908 -0.6410 -0.0727  3.1625
 4922TIP3   OH236324   2.594   4.365   3.167 -0.2988  0.1221 -0.6482
 4922TIP3    H136325   2.518   4.419   3.144 -1.3671 -0.8122  0.5338
 4922TIP3    H236326   2.635   4.410   3.241  0.8632  1.1002 -1.8523
 4923TIP3   OH236327   1.061   3.548   0.393  0.2727 -0.1188  1.1925
 4923TIP3    H136328   1.125   3.571   0.325 -0.6908 -0.8392  0.0064
 4923TIP3    H236329   1.114   3.531   0.471  1.2796  2.6617  1.2247
 4924TIP3   OH236330   1.139   0.849   8.483  0.4085 -0.2568 -0.4364
 4924TIP3    H136331   1.205   0.780   8.487 -1.2427 -1.9009  0.8393
 4924TIP3    H236332   1.128   0.877   8.574 -0.5777  0.0153 -0.6199
 4925TIP3   OH236333   3.775   1.698   0.501  0.0374  0.2196  0.1114
 4925TIP3    H136334   3.799   1.777   0.452  0.3168  0.6727  0.9454
 4925TIP3    H236335   3.824   1.706   0.583 -1.1118 -0.0505  0.8475
 4926TIP3   OH236336   0.133   2.628   2.245 -0.7492  0.1053 -0.4440
 4926TIP3    H136337   0.182   2.689   2.300 -1.0501  0.6605 -0.7878
 4926TIP3    H236338   0.051   2.674   2.225 -0.9885 -0.4180 -0.6896
 4927TIP3   OH236339   4.010   1.060   2.297 -0.0061 -0.6485 -0.4874
 4927TIP3    H136340   4.046   1.122   2.362 -0.3469 -0.3983 -0.5352
 4927TIP3    H236341   3.958   0.999   2.349 -0.1140 -0.5693 -0.5030
 4928TIP3   OH236342   4.160   5.550   0.075 -0.7235  0.1999  0.1976
 4928TIP3    H136343   4.189   5.561  -0.015 -1.1701 -0.0010  0.0229
 4928TIP3    H236344   4.238   5.525   0.123 -0.5894 -0.2430 -0.2399
 4929TIP3   OH236345   2.291   2.928   0.329  0.5217  0.0219 -0.2108
 4929TIP3    H136346   2.253   3.013   0.308 -0.1795 -0.4915 -1.1096
 4929TIP3    H236347   2.306   2.886   0.244 -2.6233 -2.2095  0.1245
 4930TIP3   OH236348   2.690   5.716   8.257  1.3426  0.5713  0.5495
 4930TIP3    H136349   2.666   5.777   8.327  1.1089  1.4530 -0.2798
 4930TIP3    H236350   2.763   5.759   8.212  2.4129 -0.6280  1.0828
 4931TIP3   OH236351   3.038   6.601   8.731 -0.0237  0.2996  0.4259
 4931TIP3    H136352   3.065   6.658   8.804  0.0176  2.4012 -1.1331
 4931TIP3    H236353   2.949   6.629   8.711 -0.1540 -0.4908 -0.1369
 4932TIP3   OH236354   4.910   2.704   3.585 -0.3039  0.6973  0.5662
 4932TIP3    H136355   4.844   2.744   3.642  1.7878  1.4183  2.6517
 4932TIP3    H236356   4.968   2.658   3.645  0.3144 -1.1471 -1.3291
 4933TIP3   OH236357   6.007   4.483   7.250  0.0398  0.4564  0.4350
 4933TIP3    H136358   6.027   4.574   7.227 -0.1944  0.5885  0.7573
 4933TIP3    H236359   6.083   4.453   7.299  0.3190  0.3323 -0.0642
 4934TIP3   OH236360   2.957   0.605   1.147  0.2568 -0.4290  0.7110
 4934TIP3    H136361   2.965   0.659   1.225  1.9240  2.0527 -0.9996
 4934TIP3    H236362   3.047   0.588   1.120 -0.1901  0.5000 -1.6733
 4935TIP3   OH236363   4.813   6.697   0.727  0.5560 -0.0471  0.0819
 4935TIP3    H136364   4.791   6.612   0.765  1.7133 -0.6173 -0.4580
 4935TIP3    H236365   4.852   6.746   0.800  0.8230 -0.3560  0.1493
 4936TIP3   OH236366   4.569   3.111   0.619 -0.3679  0.2932  0.0736
 4936TIP3    H136367   4.562   3.206   0.631 -1.7495  0.2049  0.1312
 4936TIP3    H236368   4.581   3.099   0.525  2.4342  0.6111  0.3080
 4937TIP3   OH236369   2.454   1.627   1.008 -0.7253  0.6456  0.1230
 4937TIP3    H136370   2.451   1.615   1.103  3.0610  1.3561  0.5007
 4937TIP3    H236371   2.476   1.720   0.997  2.1121 -0.0920 -1.2073
 4938TIP3   OH236372   5.331   3.586   1.666  0.2765 -0.9014 -0.3650
 4938TIP3    H136373   5.309   3.678   1.680 -0.3227 -1.0023 -0.5981
 4938TIP3    H236374   5.380   3.560   1.744 -0.8324 -0.7902  0.3876
 4939TIP3   OH236375   0.181   5.578   2.167  0.9902 -0.7394 -0.7075
 4939TIP3    H136376   0.125   5.653   2.190 -0.7821 -1.9120 -0.9963
 4939TIP3    H236377   0.127   5.525   2.109  1.3785 -3.2984  1.1086
 4940TIP3   OH236378   5.156   3.029   1.532  0.4975 -0.5941  0.5671
 4940TIP3    H136379   5.205   3.076   1.599 -1.2148  0.4517  1.1587
 4940TIP3    H236380   5.127   2.949   1.576  2.2370 -1.5983 -0.0173
 4941TIP3   OH236381   1.421   5.429   2.451  0.4030 -0.2824  0.4248
 4941TIP3    H136382   1.418   5.403   2.359 -0.2020  0.2705  0.2801
 4941TIP3    H236383   1.498   5.384   2.486 -0.2840 -1.8030  0.0586
 4942TIP3   OH236384   3.788   6.648   2.335  0.3747  0.2339  0.3792
 4942TIP3    H136385   3.735   6.648   2.414  2.1903  0.9573  1.6885
 4942TIP3    H236386   3.748   6.583   2.278 -2.6302  1.6320  0.7237
 4943TIP3   OH236387   0.152   0.106   8.472 -0.1639 -0.0009  0.0097
 4943TIP3    H136388   0.159   0.162   8.395  4.2033  1.5140  1.2094
 4943TIP3    H236389   0.102   0.157   8.535 -0.1317  0.5857 -0.4344
 4944TIP3   OH236390   6.153   3.478   0.395 -0.0319 -0.1483 -0.7310
 4944TIP3    H136391   6.078   3.487   0.336 -0.3044  2.5337 -0.1034
 4944TIP3    H236392   6.124   3.521   0.476  2.4955  1.8232 -0.7921
 4945TIP3   OH236393   3.798   2.098   1.124  0.4565 -0.4209 -0.5492
 4945TIP3    H136394   3.704   2.082   1.134  0.0932  1.1332 -1.0899
 4945TIP3    H236395   3.817   2.169   1.184  1.3855 -0.9792 -0.1656
 4946TIP3   OH236396   0.066   1.013   2.696  0.4041 -0.1469 -0.0621
 4946TIP3    H136397   0.103   1.079   2.754 -0.0112 -1.1768  1.4407
 4946TIP3    H236398   0.079   0.930   2.742 -2.7689 -0.6901  0.1101
 4947TIP3   OH236399   4.737   3.654   0.470  0.4893 -0.3257  0.4159
 4947TIP3    H136400   4.825   3.692   0.479 -0.0811  1.4707 -0.9475
 4947TIP3    H236401   4.679   3.730   0.462 -1.3164 -1.4366  2.0000
 4948TIP3   OH236402   0.966   4.860   1.085 -0.2225 -0.1605  0.1795
 4948TIP3    H136403   1.053   4.821   1.084 -1.2997 -3.0861  2.4965
 4948TIP3    H236404   0.923   4.821   1.162 -2.8480  2.8816  0.4918
 4949TIP3   OH236405   2.064   2.723   8.528 -0.5042  0.2255 -0.3525
 4949TIP3    H136406   2.037   2.673   8.605 -0.2170  0.4721 -0.0858
 4949TIP3    H236407   1.986   2.771   8.502 -0.7753 -0.3458 -0.6013
 4950TIP3   OH236408   1.861   3.291   0.238  0.1394 -0.0058 -0.4269
 4950TIP3    H136409   1.823   3.357   0.296  0.7548  0.4455 -0.5147
 4950TIP3    H236410   1.791   3.228   0.222 -0.4730  0.6468 -0.3559
 4951TIP3   OH236411   0.562   1.702   1.233  0.4363  0.0902  0.2449
 4951TIP3    H136412   0.580   1.794   1.212  0.8499  0.1495  0.8158
 4951TIP3    H236413   0.638   1.674   1.285  0.2050 -0.5061  0.2699
 4952TIP3   OH236414   2.461   6.079   6.973  0.1827  0.3883  0.1141
 4952TIP3    H136415   2.431   6.002   7.021 -1.2407 -0.0739 -1.4034
 4952TIP3    H236416   2.556   6.071   6.972  0.0862 -1.1134  0.3820
 4953TIP3   OH236417   0.938   3.842   7.318 -0.1909 -0.2443  0.0044
 4953TIP3    H136418   0.952   3.888   7.401 -0.4350  0.7593 -0.4957
 4953TIP3    H236419   0.892   3.906   7.263  0.0744 -0.8586 -0.9425
 4954TIP3   OH236420   4.335   6.046   1.738  0.2780 -0.1708  0.0533
 4954TIP3    H136421   4.362   5.990   1.811  2.1421 -2.1924 -2.0229
 4954TIP3    H236422   4.280   5.990   1.684 -1.0607  1.2806 -0.1519
 4955TIP3   OH236423   4.719   3.922   2.187  0.2337 -0.3032  0.2790
 4955TIP3    H136424   4.687   3.993   2.242  0.8222 -0.0949  0.3655
 4955TIP3    H236425   4.797   3.958   2.144  0.3250 -0.7739  0.0409
 4956TIP3   OH236426   2.710   2.365   2.439 -0.0800  0.3882  0.0651
 4956TIP3    H136427   2.766   2.291   2.415  0.8483  1.2335 -0.4821
 4956TIP3    H236428   2.627   2.348   2.396 -0.0103 -0.5277  0.2772
 4957TIP3   OH236429   2.160   4.579   2.463  0.2017 -0.4177 -0.2643
 4957TIP3    H136430   2.207   4.571   2.380  0.9007 -1.1640  0.1863
 4957TIP3    H236431   2.091   4.643   2.445  1.1971  0.4788 -1.0225
 4958TIP3   OH236432   2.677   3.609   0.772  0.1727 -0.3345  0.2809
 4958TIP3    H136433   2.650   3.619   0.863 -0.7425 -0.2852  0.0232
 4958TIP3    H236434   2.772   3.613   0.773  0.3494 -3.0132  1.5757
 4959TIP3   OH236435   1.630   6.393   1.921 -0.2411 -0.3785 -0.2636
 4959TIP3    H136436   1.618   6.484   1.948  0.3493  0.0509 -1.3790
 4959TIP3    H236437   1.722   6.387   1.895 -0.7653 -0.7139 -2.2130
 4960TIP3   OH236438   1.559   4.424   7.813  0.4929 -0.4241 -0.6505
 4960TIP3    H136439   1.518   4.349   7.857  0.3698  0.3565  0.6377
 4960TIP3    H236440   1.644   4.433   7.856  0.7802 -0.2372 -1.2581
 4961TIP3   OH236441   2.429   0.176   2.863 -0.0033  0.7534  0.3562
 4961TIP3    H136442   2.343   0.202   2.829  0.7470  1.9075 -0.7408
 4961TIP3    H236443   2.449   0.242   2.930  0.6757  1.3852 -0.4547
 4962TIP3   OH236444   5.430   2.290   7.269  0.0682  0.3292  0.4997
 4962TIP3    H136445   5.495   2.310   7.202  0.0243  0.8869  0.6219
 4962TIP3    H236446   5.384   2.372   7.284 -2.2874 -0.5369 -1.2971
 4963TIP3   OH236447   2.817   1.106   1.137 -0.0126 -0.1682 -0.7433
 4963TIP3    H136448   2.784   1.158   1.210  1.2595  0.2631 -0.4507
 4963TIP3    H236449   2.908   1.132   1.128  0.7066 -2.4000 -0.5340
 4964TIP3   OH236450   1.352   3.060   0.455 -0.3249 -0.0251 -0.6657
 4964TIP3    H136451   1.379   3.151   0.463  0.3112 -0.0670 -2.0964
 4964TIP3    H236452   1.258   3.064   0.436 -0.0630  0.4253 -2.0087
 4965TIP3   OH236453   1.773   2.977   1.823 -0.4609 -0.4461 -0.0941
 4965TIP3    H136454   1.824   2.898   1.839 -0.5401 -1.0165 -2.3825
 4965TIP3    H236455   1.791   3.032   1.900 -0.7108 -2.7718  1.7613
 4966TIP3   OH236456   0.690   3.686   2.373 -0.0088  0.0638  0.1719
 4966TIP3    H136457   0.715   3.595   2.357 -0.6227  0.0529 -0.8747
 4966TIP3    H236458   0.672   3.720   2.285  4.4273  2.5250 -0.0632
 4967TIP3   OH236459   0.382   1.358   2.156 -0.1132 -0.0793 -0.5458
 4967TIP3    H136460   0.309   1.324   2.104 -2.0584  1.0902  1.2304
 4967TIP3    H236461   0.396   1.447   2.122 -0.2051  0.0510 -0.2480
 4968TIP3   OH236462   3.251   1.922   0.490  1.0646  0.0033 -0.3591
 4968TIP3    H136463   3.341   1.951   0.472  1.1474  0.1330  0.2543
 4968TIP3    H236464   3.259   1.828   0.504  0.8833 -0.2417 -1.7564
 4969TIP3   OH236465   2.971   1.552   1.175  0.5767  0.7843 -0.0302
 4969TIP3    H136466   3.020   1.569   1.095  1.6967  0.5637  0.5895
 4969TIP3    H236467   2.907   1.623   1.179  0.3455  0.6657 -1.2306
 4970TIP3   OH236468   0.564   6.630   2.608 -0.1958 -0.7352 -0.0333
 4970TIP3    H136469   0.658   6.647   2.606  0.1483 -2.2819 -2.6419
 4970TIP3    H236470   0.556   6.536   2.589 -2.2535 -0.9474  1.5270
 4971TIP3   OH236471   4.672   4.487   2.469 -0.2497  0.6795 -0.3945
 4971TIP3    H136472   4.764   4.484   2.443  0.1777  1.0543  0.9886
 4971TIP3    H236473   4.635   4.559   2.418 -0.0912 -0.2217 -1.8387
 4972TIP3   OH236474   4.165   4.857   2.742 -0.1966 -0.2227 -0.3996
 4972TIP3    H136475   4.190   4.767   2.717  0.2265  0.1110 -1.2239
 4972TIP3    H236476   4.174   4.907   2.661  2.1863  1.1240  0.5832
 4973TIP3   OH236477   0.244   5.757   0.078  0.2568 -0.4317 -0.2358
 4973TIP3    H136478   0.217   5.694   0.011  0.2457 -1.8213  1.0212
 4973TIP3    H236479   0.331   5.728   0.105  0.4203  0.3343  0.0915
 4974TIP3   OH236480   6.432   0.256   0.402  0.8289  0.0967 -0.2861
 4974TIP3    H136481   6.489   0.295   0.337  2.8492  2.0354  2.4184
 4974TIP3    H236482   6.356   0.314   0.406  0.8296  0.1251 -0.6803
 4975TIP3   OH236483   5.306   3.023   0.002  0.2219  0.2014 -0.2349
 4975TIP3    H136484   5.219   3.061  -0.008  0.5643  0.9610 -0.4890
 4975TIP3    H236485   5.295   2.953   0.065 -0.4189  0.8282  0.3772
 4976TIP3   OH236486   6.307   5.198   0.164 -0.6928  0.1425  0.0213
 4976TIP3    H136487   6.383   5.188   0.107 -0.6604  0.0951  0.0728
 4976TIP3    H236488   6.298   5.292   0.176  0.4470  0.0839  1.4737
 4977TIP3   OH236489   4.579   5.149   2.764  0.3780  0.3488 -0.1869
 4977TIP3    H136490   4.606   5.093   2.836 -0.5179  0.2308  0.0785
 4977TIP3    H236491   4.575   5.237   2.801  0.8418  0.4360 -0.3445
 4978TIP3   OH236492   5.616   2.184   2.090  0.5602 -0.0106 -0.0805
 4978TIP3    H136493   5.603   2.102   2.138  1.1017  0.2490  0.5239
 4978TIP3    H236494   5.652   2.157   2.006 -0.2979 -0.4667 -0.3129
 4979TIP3   OH236495   2.388   4.708   0.032 -0.0682 -0.1445 -0.9851
 4979TIP3    H136496   2.387   4.779  -0.032  1.7943 -0.2404 -1.1692
 4979TIP3    H236497   2.334   4.639  -0.008 -1.7607  1.0599 -0.8678
 4980TIP3   OH236498   4.935   4.535   1.260  0.6373 -0.7438 -0.3879
 4980TIP3    H136499   4.926   4.594   1.185  0.5841 -0.0861  0.1308
 4980TIP3    H236500   4.993   4.581   1.321  1.1645 -1.5350 -0.2804
 4981TIP3   OH236501   3.960   3.823   2.625  0.0235 -0.1570 -0.1682
 4981TIP3    H136502   3.990   3.826   2.715 -0.7765 -0.9024  0.1370
 4981TIP3    H236503   4.039   3.802   2.574  0.1836 -1.4255  0.5475
 4982TIP3   OH236504   5.875   4.788   8.286  0.2344  0.5768 -0.4763
 4982TIP3    H136505   5.966   4.814   8.272  0.4500 -0.8109 -2.0047
 4982TIP3    H236506   5.828   4.825   8.211 -0.1598 -0.0454 -0.5435
 4983TIP3   OH236507   5.376   6.515   7.065 -0.2843  0.2520  0.3431
 4983TIP3    H136508   5.443   6.560   7.116 -0.1778  0.9216 -0.3704
 4983TIP3    H236509   5.422   6.484   6.987 -0.4174 -0.8734  0.6947
 4984TIP3   OH236510   3.638   4.574   0.625  0.0750  0.1675 -0.7891
 4984TIP3    H136511   3.706   4.619   0.674  0.2066 -0.8814  0.0316
 4984TIP3    H236512   3.594   4.643   0.575  1.6741  0.8806 -1.2680
 4985TIP3   OH236513   3.382   6.259   8.354  0.5782  0.1483  0.0095
 4985TIP3    H136514   3.454   6.321   8.354 -0.2883  1.1841 -0.3600
 4985TIP3    H236515   3.415   6.183   8.402  2.2240  0.2159 -0.9461
 4986TIP3   OH236516   5.514   3.220   2.564  0.4734 -0.9358 -1.1098
 4986TIP3    H136517   5.480   3.276   2.633  0.5465 -2.4602  0.2183
 4986TIP3    H236518   5.474   3.254   2.484  1.2379  1.5543 -0.5184
 4987TIP3   OH236519   5.195   2.046   8.338  0.1193 -0.1186 -0.0880
 4987TIP3    H136520   5.227   2.011   8.254  1.0922  1.4013 -0.3745
 4987TIP3    H236521   5.111   2.086   8.317 -0.5066 -1.2888  0.0469
 4988TIP3   OH236522   4.976   4.847   8.003 -0.4700  0.0540 -0.2371
 4988TIP3    H136523   5.008   4.763   7.971 -4.6360 -1.0993 -2.1417
 4988TIP3    H236524   4.992   4.908   7.931 -0.5497  0.0245 -0.2803
 4989TIP3   OH236525   4.507   1.616   7.570 -0.2846  0.6197  0.2105
 4989TIP3    H136526   4.557   1.682   7.521 -0.1057  0.2406 -0.1166
 4989TIP3    H236527   4.424   1.608   7.522  0.6922 -1.2581 -1.2554
 4990TIP3   OH236528   2.620   3.877   8.324 -0.0557  0.0277 -0.3548
 4990TIP3    H136529   2.631   3.832   8.241  0.7238  1.3094 -0.9682
 4990TIP3    H236530   2.656   3.816   8.389  1.5581 -0.0028 -1.2233
 4991TIP3   OH236531   1.935   4.920   3.017  0.6734 -0.5002  0.4787
 4991TIP3    H136532   1.983   4.916   2.934 -1.9991 -0.8381 -1.1745
 4991TIP3    H236533   1.926   5.013   3.035 -0.5914 -0.3476 -0.8204
 4992TIP3   OH236534   4.482   3.604   2.775 -0.3141  0.3672  0.3081
 4992TIP3    H136535   4.490   3.698   2.763  1.4057  0.3544  1.0338
 4992TIP3    H236536   4.444   3.594   2.863 -0.7006  0.3831  0.1431
 4993TIP3   OH236537   1.504   0.343   0.889  0.1395  0.2198  0.2703
 4993TIP3    H136538   1.574   0.407   0.901  0.4468 -0.4931  2.5396
 4993TIP3    H236539   1.544   0.272   0.840 -0.3259  1.8257 -2.7416
 4994TIP3   OH236540   4.622   4.637   2.806  0.1362  0.3596 -0.3189
 4994TIP3    H136541   4.671   4.710   2.845  0.4107  0.0481 -0.0778
 4994TIP3    H236542   4.689   4.571   2.788 -0.4209 -0.8677  1.7936
 4995TIP3   OH236543   1.492   4.502   2.343 -0.4647 -0.2447  0.0741
 4995TIP3    H136544   1.408   4.522   2.384 -0.7435 -0.3482 -0.4315
 4995TIP3    H236545   1.555   4.498   2.415 -0.5169  1.7595  0.2858
 4996TIP3   OH236546   5.509   2.418   0.789  0.1304 -0.0449  0.5022
 4996TIP3    H136547   5.526   2.382   0.876  1.2838  2.2430  1.3199
 4996TIP3    H236548   5.535   2.349   0.728 -1.5200 -2.0437  1.9117
 4997TIP3   OH236549   2.583   5.947   0.093 -0.4245 -0.0898  0.2338
 4997TIP3    H136550   2.530   5.901   0.158 -0.6990  0.4241  0.3774
 4997TIP3    H236551   2.673   5.919   0.111 -0.6449 -1.0394 -0.0709
 4998TIP3   OH236552   6.341   1.475   1.289  0.0624  0.1588  0.6085
 4998TIP3    H136553   6.403   1.416   1.332 -0.8584  0.1146  1.9687
 4998TIP3    H236554   6.282   1.417   1.241  0.0532  0.0645  0.7311
 4999TIP3   OH236555   1.306   2.069   8.558  0.2271  0.1112 -0.6266
 4999TIP3    H136556   1.339   2.151   8.520  2.5475  0.8246  2.5843
 4999TIP3    H236557   1.346   2.064   8.644 -0.4686 -4.0797 -0.3399
 5000TIP3   OH236558   6.167   1.346   1.084 -0.6542  0.1198  0.7270
 5000TIP3    H136559   6.218   1.407   1.030  2.1429 -2.2328  0.4598
 5000TIP3    H236560   6.077   1.362   1.058  0.1621  2.3230 -1.1921
 5001TIP3   OH236561   0.630   5.574   1.770 -0.1531  0.1519 -0.2020
 5001TIP3    H136562   0.679   5.530   1.839  0.3159  2.6354  1.1922
 5001TIP3    H236563   0.545   5.530   1.769 -0.5316  0.5766  2.6832
 5002TIP3   OH236564   4.160   5.487   0.476  0.7498  0.4095  0.3650
 5002TIP3    H136565   4.216   5.423   0.520 -0.3411 -1.5489 -0.9554
 5002TIP3    H236566   4.077   5.482   0.523  0.6476  0.8435  0.2323
 5003TIP3   OH236567   5.412   3.440   2.714  0.1435  0.4240  0.5007
 5003TIP3    H136568   5.322   3.412   2.696  0.1769  0.7660 -0.2374
 5003TIP3    H236569   5.402   3.528   2.752  0.2383  1.4842 -1.7630
 5004TIP3   OH236570   1.840   6.771   2.506  0.0445  0.0738 -0.1138
 5004TIP3    H136571   1.807   6.745   2.592  2.3825 -2.0053  0.2549
 5004TIP3    H236572   1.925   6.812   2.524  1.7376 -2.6120 -1.4970
 5005TIP3   OH236573   3.389   4.906   2.239  0.2484 -0.0578  0.3914
 5005TIP3    H136574   3.480   4.915   2.266 -0.1291  0.3812  1.6247
 5005TIP3    H236575   3.348   4.855   2.309 -0.2850 -0.9934 -0.5714
 5006TIP3   OH236576   3.322   3.466   8.537  0.4587 -0.4329  0.2782
 5006TIP3    H136577   3.290   3.556   8.537  3.2037  0.6462  0.0165
 5006TIP3    H236578   3.352   3.451   8.447  1.2242 -1.1081  0.6286
 5007TIP3   OH236579   5.948   2.606   2.571  0.3681  0.0526  0.1308
 5007TIP3    H136580   5.857   2.601   2.540  0.4539  0.5767 -0.2165
 5007TIP3    H236581   5.957   2.531   2.629 -0.4657  0.3276  0.6388
 5008TIP3   OH236582   3.613   5.009   8.408  0.2379  0.3701 -0.1066
 5008TIP3    H136583   3.565   4.946   8.355 -0.1198  0.1200  0.5048
 5008TIP3    H236584   3.569   5.007   8.493 -1.0240  2.8536 -0.6134
 5009TIP3   OH236585   5.940   3.528   1.063 -0.4307  0.1950  0.5732
 5009TIP3    H136586   5.878   3.589   1.021 -0.6608  1.1580  2.2366
 5009TIP3    H236587   5.893   3.496   1.140 -0.3638 -2.2498 -0.3260
 5010TIP3   OH236588   4.419   1.919   3.237  0.3293 -0.2971  0.3211
 5010TIP3    H136589   4.382   1.962   3.315 -0.4744 -1.3625  0.5678
 5010TIP3    H236590   4.445   1.990   3.180  0.0344  0.5115  1.1633
 5011TIP3   OH236591   2.890   6.404   0.754  0.2059 -0.1262 -0.6258
 5011TIP3    H136592   2.805   6.365   0.734 -0.9245  0.7746  1.9826
 5011TIP3    H236593   2.948   6.328   0.768 -0.8683 -0.8333  0.1916
 5012TIP3   OH236594   1.995   0.295   0.219 -0.3311  0.5200 -0.0998
 5012TIP3    H136595   2.009   0.319   0.127 -0.0522  0.3791 -0.0955
 5012TIP3    H236596   1.921   0.235   0.217  0.3977 -0.4088 -0.3745
 5013TIP3   OH236597   2.265   5.421   7.808 -0.4176 -0.5805  0.4481
 5013TIP3    H136598   2.251   5.494   7.867  1.2090 -0.5813  0.8651
 5013TIP3    H236599   2.353   5.389   7.828 -1.3467 -3.1827  0.8630
 5014TIP3   OH236600   3.408   2.031   0.105  0.0015 -0.4848  0.5354
 5014TIP3    H136601   3.476   1.983   0.151  1.0210  0.7516  0.3674
 5014TIP3    H236602   3.411   2.000   0.015  0.1281 -0.6518  0.5987
 5015TIP3   OH236603   5.472   0.847   3.312  0.5414  0.3352  0.4727
 5015TIP3    H136604   5.492   0.795   3.389 -1.0017 -0.3820  0.4301
 5015TIP3    H236605   5.391   0.809   3.278  1.4565  0.2700 -1.8248
 5016TIP3   OH236606   4.129   3.618   1.571  0.0147 -0.3440  0.1078
 5016TIP3    H136607   4.211   3.589   1.531  0.0974 -1.7468  1.2140
 5016TIP3    H236608   4.061   3.574   1.521 -0.2812  2.4903 -2.2219
 5017TIP3   OH236609   4.013   1.438   8.587  0.4087  0.2273 -0.3482
 5017TIP3    H136610   4.081   1.473   8.644  0.0049 -0.2623  0.4606
 5017TIP3    H236611   4.035   1.470   8.499  1.0541  0.9774  0.0790
 5018TIP3   OH236612   0.825   6.674   1.307 -0.2936 -0.5419 -0.6187
 5018TIP3    H136613   0.807   6.763   1.276  1.6270 -1.0475 -3.6095
 5018TIP3    H236614   0.762   6.619   1.260 -0.6838 -0.8868  0.2994
 5019TIP3   OH236615   3.914   5.053   1.486  0.7024 -0.3534 -0.3538
 5019TIP3    H136616   3.906   4.990   1.558 -0.5488 -0.3369 -0.4537
 5019TIP3    H236617   3.921   5.138   1.530  2.7024 -0.5517 -0.2112
 5020TIP3   OH236618   5.010   2.032   1.880  0.1362  0.7679  0.1261
 5020TIP3    H136619   5.016   2.106   1.941  0.3684 -0.1802  1.2914
 5020TIP3    H236620   5.068   2.055   1.807  0.2817  1.6849  0.5224
 5021TIP3   OH236621   4.285   1.835   2.089  0.0503  0.5840 -0.0908
 5021TIP3    H136622   4.381   1.833   2.082  0.1742  0.2857  1.3723
 5021TIP3    H236623   4.265   1.775   2.161 -1.1484  1.5410  0.4153
 5022TIP3   OH236624   4.723   1.010   7.786 -0.3902 -0.3113  0.4905
 5022TIP3    H136625   4.755   0.925   7.755 -2.3609 -1.1424  0.5677
 5022TIP3    H236626   4.651   0.988   7.845  0.5980  1.3740  2.4183
 5023TIP3   OH236627   4.781   5.548   0.580 -0.1761  0.4912 -0.4694
 5023TIP3    H136628   4.783   5.453   0.569  2.2589  0.2101  1.5637
 5023TIP3    H236629   4.689   5.568   0.594 -0.9543 -1.3188 -2.3364
 5024TIP3   OH236630   1.171   2.479   2.460  0.6342 -0.2204 -0.1229
 5024TIP3    H136631   1.258   2.468   2.423  0.5841 -1.3096  0.0544
 5024TIP3    H236632   1.114   2.429   2.402  0.3440 -0.7297  0.5906
 5025TIP3   OH236633   4.381   5.283   3.029  0.3448 -0.4521  0.1088
 5025TIP3    H136634   4.426   5.343   3.088  0.0502 -1.3065  1.2362
 5025TIP3    H236635   4.302   5.330   3.003 -1.0079 -1.0839  2.7089
 5026TIP3   OH236636   0.099   2.210   2.162  0.1856 -0.6252  0.3581
 5026TIP3    H136637   0.167   2.181   2.100  0.2878  1.6768 -0.7131
 5026TIP3    H236638   0.139   2.285   2.207 -1.4515  0.4479  0.0788
 5027TIP3   OH236639   1.350   4.448   1.380  0.4192 -0.1094  0.5624
 5027TIP3    H136640   1.340   4.353   1.376  2.0921 -0.2874 -0.1149
 5027TIP3    H236641   1.388   4.464   1.466  3.0448 -0.4199 -0.4453
 5028TIP3   OH236642   2.333   1.145   7.764 -0.5424  0.0798 -0.7461
 5028TIP3    H136643   2.247   1.126   7.800 -1.1408  1.7785 -1.2009
 5028TIP3    H236644   2.385   1.171   7.840 -1.1243  1.3607 -0.7690
 5029TIP3   OH236645   5.057   0.780   2.498 -0.2036 -0.1911 -0.0732
 5029TIP3    H136646   5.037   0.687   2.505 -0.7372 -0.0441  0.3828
 5029TIP3    H236647   5.002   0.811   2.426 -0.4817 -0.1037  0.1758
 5030TIP3   OH236648   2.123   2.738   2.705 -0.2593 -0.1960  0.2496
 5030TIP3    H136649   2.158   2.699   2.786  0.9574 -1.8991 -1.0173
 5030TIP3    H236650   2.199   2.745   2.647 -1.1885  0.5327 -0.9153
 5031TIP3   OH236651   4.516   2.697   8.678  0.2963  0.0071  0.3099
 5031TIP3    H136652   4.493   2.651   8.597  1.5890  1.0909 -0.7260
 5031TIP3    H236653   4.487   2.787   8.663  0.6696  0.2437  0.9841
 5032TIP3   OH236654   2.666   3.336   0.233  0.7396  0.4227  0.7006
 5032TIP3    H136655   2.570   3.337   0.233  0.6834  2.3360 -1.2076
 5032TIP3    H236656   2.689   3.275   0.163  0.9878 -0.9558  1.9387
 5033TIP3   OH236657   5.771   3.673   2.381  0.6667 -0.2856  0.1069
 5033TIP3    H136658   5.860   3.685   2.414  1.1017 -0.9264 -0.7949
 5033TIP3    H236659   5.778   3.687   2.287  0.1311 -1.8433 -0.2012
 5034TIP3   OH236660   4.497   1.845   1.056  0.3614 -0.0056 -0.3634
 5034TIP3    H136661   4.456   1.888   0.981 -1.3361 -0.1142  0.4586
 5034TIP3    H236662   4.469   1.897   1.132  1.5369 -0.2630  0.2741
 5035TIP3   OH236663   3.881   3.519   3.242 -0.0868 -0.3039  0.3365
 5035TIP3    H136664   3.905   3.455   3.309  0.5961 -1.2354 -0.7526
 5035TIP3    H236665   3.788   3.503   3.226  0.0996 -1.1479 -0.0089
 5036TIP3   OH236666   2.548   2.519   7.594 -0.1459 -0.6176  0.4495
 5036TIP3    H136667   2.616   2.462   7.559 -0.8177 -1.6175  0.7304
 5036TIP3    H236668   2.467   2.489   7.553 -0.3039  1.3570 -0.8547
 5037TIP3   OH236669   6.612   1.130   7.902 -0.0981  0.2903  0.3010
 5037TIP3    H136670   6.555   1.057   7.878 -0.0847  0.7519 -1.1798
 5037TIP3    H236671   6.556   1.208   7.893 -0.1177  0.4951  1.8745
 5038TIP3   OH236672   3.879   4.394   8.701  0.5747 -0.3269  0.3522
 5038TIP3    H136673   3.859   4.301   8.688  0.3653  0.0804 -3.5524
 5038TIP3    H236674   3.794   4.437   8.700  0.7850  0.0852 -0.2827
 5039TIP3   OH236675   4.875   2.652   2.751  0.5944  0.1427  0.0649
 5039TIP3    H136676   4.873   2.723   2.688  2.7451 -0.2709 -0.5490
 5039TIP3    H236677   4.908   2.693   2.832  0.3122  0.1649  0.1677
 5040TIP3   OH236678   4.734   6.005   0.374  0.6465  0.1393  0.1850
 5040TIP3    H136679   4.672   6.027   0.304  0.4790 -0.4763  0.1324
 5040TIP3    H236680   4.772   6.089   0.399  0.3989  0.4224 -0.3544
 5041TIP3   OH236681   3.417   0.201   8.334  0.6224  0.2692 -0.0216
 5041TIP3    H136682   3.330   0.160   8.325 -0.1275  1.7971 -0.1213
 5041TIP3    H236683   3.414   0.246   8.419  2.0720 -1.2953  0.9090
 5042TIP3   OH236684   2.921   4.917   0.773 -0.2361 -0.3520  0.1319
 5042TIP3    H136685   2.900   4.967   0.693 -0.4491 -0.4121  0.1478
 5042TIP3    H236686   2.887   4.829   0.755 -2.8730  0.3207  1.3684
 5043TIP3   OH236687   1.969   5.765   0.340 -0.2608 -0.2116 -0.2447
 5043TIP3    H136688   1.909   5.803   0.404 -1.4780 -1.1511 -0.7829
 5043TIP3    H236689   1.975   5.673   0.365 -0.0637 -0.3967 -0.9668
 5044TIP3   OH236690   3.811   6.029   1.719 -0.1086 -0.0016 -0.3442
 5044TIP3    H136691   3.850   6.054   1.803  0.0476 -0.2833 -0.3292
 5044TIP3    H236692   3.725   5.994   1.742 -1.3480  2.7028 -0.5767
 5045TIP3   OH236693   4.091   4.215   8.699 -0.3671  0.2106 -0.2257
 5045TIP3    H136694   4.022   4.149   8.695 -1.3423  1.1089  1.0344
 5045TIP3    H236695   4.045   4.298   8.699  0.7086  0.8366  0.7089
 5046TIP3   OH236696   6.034   2.794   1.058  0.0711  0.3489  0.6191
 5046TIP3    H136697   6.076   2.878   1.038 -2.3189  1.1572 -1.5767
 5046TIP3    H236698   6.067   2.735   0.990 -2.9766  1.3360 -2.0114
 5047TIP3   OH236699   5.332   2.810   3.108  0.3073 -0.0251  0.1835
 5047TIP3    H136700   5.258   2.871   3.104  0.8139  0.6307  0.5137
 5047TIP3    H236701   5.294   2.728   3.139 -0.4700 -0.0218 -0.7041
 5048TIP3   OH236702   1.981   3.829   8.450  0.0572 -0.0421 -0.0527
 5048TIP3    H136703   2.067   3.809   8.487 -0.2765  2.0216  2.0239
 5048TIP3    H236704   1.922   3.766   8.492  0.5526 -1.9194 -1.9906
 5049TIP3   OH236705   0.569   5.376   2.631 -0.2006 -0.2910  0.0460
 5049TIP3    H136706   0.560   5.365   2.536 -1.1345  0.6046  0.0233
 5049TIP3    H236707   0.494   5.428   2.657  0.1723 -0.3275  1.2565
 5050TIP3   OH236708   6.364   6.511   0.245  0.7024  0.4689  0.1882
 5050TIP3    H136709   6.269   6.522   0.253  0.8356  1.2376  0.8745
 5050TIP3    H236710   6.384   6.543   0.157  0.1189 -1.3097 -0.6270
 5051TIP3   OH236711   0.265   6.637   3.177 -0.4353  0.7620 -0.2120
 5051TIP3    H136712   0.225   6.589   3.104 -4.3590  0.1162  2.0647
 5051TIP3    H236713   0.250   6.729   3.154 -2.2342  0.5563 -0.0309
 5052TIP3   OH236714   6.351   3.340   8.160 -0.0621 -0.3477  0.0886
 5052TIP3    H136715   6.266   3.344   8.114  0.7303 -1.8236 -1.6650
 5052TIP3    H236716   6.371   3.431   8.181 -2.2698 -0.0015  0.9480
 5053TIP3   OH236717   4.101   1.844   7.653 -0.1449  0.0700 -0.4881
 5053TIP3    H136718   4.081   1.930   7.615 -0.0905  0.4140  0.2471
 5053TIP3    H236719   4.071   1.781   7.587  2.1745  0.6472 -2.2258
 5054TIP3   OH236720   1.965   2.489   6.798 -0.0973  0.6542 -0.4774
 5054TIP3    H136721   1.905   2.553   6.837 -0.9721  0.7234 -1.8873
 5054TIP3    H236722   2.052   2.526   6.814 -0.4459  0.9089  0.9761
 5055TIP3   OH236723   4.263   6.639   0.050  0.3566  0.1180  0.6059
 5055TIP3    H136724   4.315   6.719   0.046 -0.0740  0.3630 -0.3211
 5055TIP3    H236725   4.301   6.589   0.123  1.1667  0.7841  0.6510
 5056TIP3   OH236726   6.385   2.551   1.891  0.6381  0.3893  0.1472
 5056TIP3    H136727   6.403   2.548   1.986  1.1826  0.5250  0.0517
 5056TIP3    H236728   6.291   2.569   1.885  0.2096 -1.4465  0.6736
 5057TIP3   OH236729   5.113   6.811   1.919  0.1149  0.4012  0.0332
 5057TIP3    H136730   5.151   6.727   1.944  0.3185  0.0888 -1.2581
 5057TIP3    H236731   5.151   6.831   1.833 -1.9543  0.4819 -0.9443
 5058TIP3   OH236732   4.790   5.143   2.542 -0.8141  0.2798  0.1963
 5058TIP3    H136733   4.744   5.142   2.626  0.2432  0.0716  0.7927
 5058TIP3    H236734   4.833   5.228   2.539 -2.5500  1.1907 -1.1363
 5059TIP3   OH236735   0.204   1.911   7.384  0.3030  0.0802 -0.3439
 5059TIP3    H136736   0.286   1.881   7.346 -0.5789 -0.5493 -1.8266
 5059TIP3    H236737   0.156   1.831   7.405  0.7072  0.3953  2.0913
 5060TIP3   OH236738   4.469   3.386   2.136 -0.0662 -0.1215  0.2004
 5060TIP3    H136739   4.524   3.423   2.206 -1.8880 -0.1903  1.7391
 5060TIP3    H236740   4.388   3.361   2.180 -0.3184 -2.6090 -1.4739
 5061TIP3   OH236741   1.212   1.623   2.394  0.9493 -0.4594  0.1016
 5061TIP3    H136742   1.235   1.639   2.485  1.1943  2.2449 -0.3411
 5061TIP3    H236743   1.122   1.591   2.397 -0.0664  2.2073  1.2432
 5062TIP3   OH236744   1.178   4.891   0.807  0.3364 -0.0956 -0.2975
 5062TIP3    H136745   1.237   4.818   0.826 -0.5192 -1.1075 -1.3727
 5062TIP3    H236746   1.176   4.895   0.711 -0.8600  0.3132 -0.2714
 5063TIP3   OH236747   0.083   0.802   8.448 -0.0451 -0.3070  0.6848
 5063TIP3    H136748   0.039   0.872   8.400 -0.4345 -0.9189  0.1450
 5063TIP3    H236749   0.130   0.752   8.381 -0.1689 -0.8565  1.0049
 5064TIP3   OH236750   0.333   4.519   2.849  0.5705  0.1406 -0.1075
 5064TIP3    H136751   0.288   4.474   2.921 -0.0719  0.1329 -0.5116
 5064TIP3    H236752   0.397   4.576   2.893 -0.7761  1.2152  0.5580
 5065TIP3   OH236753   1.674   2.293   7.982  0.3003  0.4332 -0.2688
 5065TIP3    H136754   1.640   2.283   7.893  0.9319  2.1202 -0.7303
 5065TIP3    H236755   1.711   2.207   8.003 -1.2765 -0.4694 -0.9926
 5066TIP3   OH236756   3.234   6.315   0.931 -0.1712 -0.6436 -0.3034
 5066TIP3    H136757   3.201   6.393   0.888 -1.5245 -1.4046 -0.7028
 5066TIP3    H236758   3.328   6.317   0.915  0.7126  3.2420  3.4914
 5067TIP3   OH236759   2.029   0.626   2.669 -0.3020  0.0374 -0.1589
 5067TIP3    H136760   2.067   0.685   2.605 -3.1595  2.2144 -0.0654
 5067TIP3    H236761   2.096   0.615   2.736  0.8939  1.9128 -0.9914
 5068TIP3   OH236762   4.437   3.370   8.438  0.0654  0.1437 -0.3545
 5068TIP3    H136763   4.389   3.449   8.415  0.7890  1.2512  1.7044
 5068TIP3    H236764   4.369   3.307   8.464 -0.4209  0.6642 -0.3572
 5069TIP3   OH236765   0.265   4.728   2.063 -0.2262  0.0861 -0.3735
 5069TIP3    H136766   0.274   4.633   2.070  1.0033  0.1594 -0.7988
 5069TIP3    H236767   0.352   4.762   2.085 -0.8962  1.1772  0.7392
 5070TIP3   OH236768   0.308   4.840   0.650  0.4290 -0.3061  0.6067
 5070TIP3    H136769   0.231   4.783   0.650 -1.9724  2.6717 -0.4224
 5070TIP3    H236770   0.316   4.869   0.741 -1.4935  1.4827  0.2812
 5071TIP3   OH236771   0.329   0.631   0.398 -0.2659  0.0281 -0.3825
 5071TIP3    H136772   0.331   0.537   0.383  0.8050  0.2359 -1.6522
 5071TIP3    H236773   0.250   0.661   0.352  1.0797  0.1562 -2.7395
 5072TIP3   OH236774   4.797   2.938   7.310  0.1633  0.1923  0.3513
 5072TIP3    H136775   4.836   2.899   7.232 -1.6826 -0.1784 -0.4299
 5072TIP3    H236776   4.789   2.864   7.371 -0.7623 -0.0871 -0.0904
 5073TIP3   OH236777   4.908   4.861   8.605 -0.1454 -0.4137 -0.5854
 5073TIP3    H136778   4.826   4.909   8.603 -0.0848 -0.1548  1.2343
 5073TIP3    H236779   4.975   4.928   8.621  0.1478 -0.8818  0.2061
 5074TIP3   OH236780   2.821   3.961   7.934  0.4479 -0.4174  0.0282
 5074TIP3    H136781   2.769   3.987   7.857  1.3167  1.8100  0.1159
 5074TIP3    H236782   2.759   3.915   7.990 -0.2116 -2.1011 -1.9726
 5075TIP3   OH236783   2.459   3.392   0.450 -0.2521 -0.1130  0.5975
 5075TIP3    H136784   2.460   3.296   0.451 -0.5185 -0.1134  1.8009
 5075TIP3    H236785   2.367   3.415   0.461 -0.1827  0.2909  0.3662
 5076TIP3   OH236786   2.452   0.912   7.417 -0.1334  0.0259  0.4303
 5076TIP3    H136787   2.426   0.848   7.350 -0.3721  0.6714 -0.0993
 5076TIP3    H236788   2.372   0.926   7.468  0.3849 -1.5301  1.7800
 5077TIP3   OH236789   1.729   5.764   2.169  0.0979  0.1327  0.1243
 5077TIP3    H136790   1.762   5.757   2.079 -0.5793  1.7554 -0.3016
 5077TIP3    H236791   1.641   5.727   2.165  0.2551 -0.2505  0.2332
 5078TIP3   OH236792   3.551   5.151   8.001 -0.2170 -0.7364  0.0830
 5078TIP3    H136793   3.515   5.176   7.916 -0.4705  1.3607  0.7342
 5078TIP3    H236794   3.506   5.208   8.063  0.2315 -1.9604  1.5923
 5079TIP3   OH236795   0.993   0.139   1.091 -0.0877 -0.2662 -0.6790
 5079TIP3    H136796   0.939   0.195   1.035 -1.5531  0.1664  1.0727
 5079TIP3    H236797   1.037   0.200   1.151  0.0816 -0.8263 -0.2170
 5080TIP3   OH236798   1.262   5.021   0.541  0.1461  0.1294  0.0603
 5080TIP3    H136799   1.333   4.989   0.485 -0.8024 -0.5333 -0.8076
 5080TIP3    H236800   1.188   4.964   0.520 -0.7784  1.1055  0.5904
 5081TIP3   OH236801   1.801   3.636   8.602  0.2245 -0.1612  0.4181
 5081TIP3    H136802   1.862   3.678   8.662  0.6512  0.6330 -0.5302
 5081TIP3    H236803   1.726   3.695   8.597 -0.2767 -0.7300  0.9423
 5082TIP3   OH236804   5.592   4.095   0.012 -0.4230  0.5710 -0.0054
 5082TIP3    H136805   5.679   4.131  -0.006  0.1094 -0.5198  0.3256
 5082TIP3    H236806   5.577   4.116   0.104 -1.4004  2.5391 -0.5613
 5083TIP3   OH236807   6.756   0.099   0.133  1.3917  0.7764  0.0622
 5083TIP3    H136808   6.718   0.029   0.187 -0.5233  0.8643 -1.0553
 5083TIP3    H236809   6.828   0.057   0.086 -0.8975 -1.1310 -2.0571
 5084TIP3   OH236810   0.006   0.707   1.119  0.1031  0.1331  0.3221
 5084TIP3    H136811  -0.031   0.654   1.190  0.1362 -0.7918 -0.3276
 5084TIP3    H236812   0.100   0.689   1.123  0.2127  0.7345  0.5603
 5085TIP3   OH236813   6.147   2.460   0.964 -0.5486 -0.2292 -0.1310
 5085TIP3    H136814   6.059   2.496   0.951 -1.5528 -2.4494  0.1436
 5085TIP3    H236815   6.160   2.462   1.058  0.1476  1.0398 -0.2361
 5086TIP3   OH236816   6.086   3.441   8.124 -0.1316  0.1664 -0.6446
 5086TIP3    H136817   6.055   3.487   8.202 -0.2034  0.2797 -0.7401
 5086TIP3    H236818   6.080   3.505   8.054 -0.9128 -0.2014 -0.9289
 5087TIP3   OH236819   2.756   6.747   1.457 -0.4266  0.4359 -0.0868
 5087TIP3    H136820   2.773   6.673   1.516 -2.4697  0.5034  0.6539
 5087TIP3    H236821   2.810   6.818   1.492  0.1260 -0.1613  0.3081
 5088TIP3   OH236822   4.359   2.088   7.724 -0.5514  0.2990  0.3719
 5088TIP3    H136823   4.348   2.125   7.636  0.1267 -0.0441  0.1395
 5088TIP3    H236824   4.431   2.138   7.762  0.1782 -0.5814  0.1648
 5089TIP3   OH236825   0.783   0.390   0.011  0.2383  0.4798  0.4781
 5089TIP3    H136826   0.697   0.354   0.035  0.5516 -0.8424 -0.3161
 5089TIP3    H236827   0.808   0.443   0.087 -2.5879  3.4004 -0.4174
 5090TIP3   OH236828   4.528   1.361   7.992 -0.5237 -0.0402 -0.1567
 5090TIP3    H136829   4.553   1.342   7.902 -0.5749 -2.2229  0.2360
 5090TIP3    H236830   4.611   1.382   8.036 -0.3405 -0.1040 -0.4675
 5091TIP3   OH236831   4.492   2.457   7.981  0.3295  0.3308 -0.0317
 5091TIP3    H136832   4.415   2.512   7.968  0.5780  0.7443  0.2300
 5091TIP3    H236833   4.526   2.482   8.067  0.1115 -0.6480  0.3597
 5092TIP3   OH236834   5.165   1.568   2.119  0.0323  0.1853 -0.3583
 5092TIP3    H136835   5.091   1.567   2.058 -0.0784 -1.0413 -0.2102
 5092TIP3    H236836   5.226   1.631   2.080 -0.7816  0.7188 -0.8241
 5093TIP3   OH236837   4.744   2.154   1.768  0.1905 -0.1028  0.1399
 5093TIP3    H136838   4.783   2.068   1.755  0.5215 -0.0578  0.7612
 5093TIP3    H236839   4.794   2.213   1.712 -1.8445 -0.7267 -2.5353
 5094TIP3   OH236840   6.003   0.551   2.408  0.2728 -0.2009 -0.2009
 5094TIP3    H136841   5.935   0.501   2.364  0.0615  0.0152 -0.1197
 5094TIP3    H236842   5.956   0.612   2.464  0.5329 -0.0158 -0.1818
 5095TIP3   OH236843   3.813   3.325   2.825 -0.4781 -0.3507  0.4092
 5095TIP3    H136844   3.864   3.341   2.745 -0.4476 -1.9493  0.0790
 5095TIP3    H236845   3.870   3.273   2.881 -1.3079 -1.1830  0.5135
 5096TIP3   OH236846   5.507   3.952   7.502 -0.1934 -0.2029  0.3033
 5096TIP3    H136847   5.582   4.002   7.469  0.3866  0.4938  2.5017
 5096TIP3    H236848   5.542   3.865   7.520 -0.9068 -1.1302 -2.3202
 5097TIP3   OH236849   6.662   1.622   3.482  0.2093 -0.2639 -0.1689
 5097TIP3    H136850   6.583   1.646   3.531  1.5782  0.8644  1.6058
 5097TIP3    H236851   6.734   1.665   3.530  2.0168 -2.0676 -1.1253
 5098TIP3   OH236852   6.611   3.450   0.646  0.5172 -0.5605  0.0978
 5098TIP3    H136853   6.612   3.516   0.716 -0.3254 -0.3072 -0.1259
 5098TIP3    H236854   6.556   3.380   0.679  0.7324 -0.7845 -0.0109
 5099TIP3   OH236855   5.616   0.694   3.493 -0.4536  0.3050 -0.3875
 5099TIP3    H136856   5.673   0.771   3.491  0.2599 -0.2196 -1.2740
 5099TIP3    H236857   5.669   0.624   3.453 -0.3168 -1.1888  2.1986
 5100TIP3   OH236858   5.698   4.117   3.561  0.3624  0.6340  0.0896
 5100TIP3    H136859   5.724   4.173   3.488 -0.8473  0.9483 -0.1319
 5100TIP3    H236860   5.658   4.041   3.520  0.2489  0.5158  0.4120
 5101TIP3   OH236861   5.202   3.967   0.516 -0.2877 -0.1881 -0.1211
 5101TIP3    H136862   5.268   4.001   0.577 -0.2005  0.8355 -0.7640
 5101TIP3    H236863   5.229   4.000   0.431 -0.6591 -1.2409 -0.6584
 5102TIP3   OH236864   0.442   5.987   0.020  0.2417  0.0701 -0.3980
 5102TIP3    H136865   0.352   5.959   0.035 -0.5320  1.9255 -1.3514
 5102TIP3    H236866   0.495   5.920   0.063 -1.5683 -1.2139 -0.0668
 5103TIP3   OH236867   4.413   2.705   2.605  0.1837  0.1619  0.2748
 5103TIP3    H136868   4.410   2.632   2.543 -0.1225 -0.6345  1.1946
 5103TIP3    H236869   4.503   2.705   2.637  0.5009  0.9396 -0.5670
 5104TIP3   OH236870   1.940   4.715   0.643 -0.2892  0.2843 -0.0854
 5104TIP3    H136871   2.005   4.654   0.607 -0.6456 -0.7946  1.0256
 5104TIP3    H236872   1.929   4.686   0.734 -1.8460  0.8551 -0.0817
 5105TIP3   OH236873   2.302   0.427   1.057 -0.4985 -0.0841  0.6630
 5105TIP3    H136874   2.284   0.452   0.967 -0.5877 -2.2947  0.0074
 5105TIP3    H236875   2.381   0.475   1.081 -0.4381  0.4811 -0.6040
 5106TIP3   OH236876   4.473   6.440   7.892 -0.1053  0.3953  0.6153
 5106TIP3    H136877   4.414   6.454   7.967  0.0535 -0.6915  0.9678
 5106TIP3    H236878   4.488   6.345   7.891  2.1883  0.6973  0.9616
 5107TIP3   OH236879   0.594   2.478   7.008  0.0721 -0.3107 -0.4042
 5107TIP3    H136880   0.506   2.453   6.978 -0.7692  1.6915  0.2455
 5107TIP3    H236881   0.611   2.562   6.965  1.7325 -0.7247 -0.6033
 5108TIP3   OH236882   4.671   1.517   2.025  1.0679  0.0801 -0.1629
 5108TIP3    H136883   4.732   1.446   2.043  1.4396  0.3005 -0.5601
 5108TIP3    H236884   4.699   1.553   1.942  0.4951  0.2891 -0.2712
 5109TIP3   OH236885   0.338   1.888   0.535  0.3046  0.4887  0.0722
 5109TIP3    H136886   0.280   1.828   0.582  0.4204 -0.7840 -1.3244
 5109TIP3    H236887   0.317   1.974   0.570 -0.0016 -0.3303  2.0119
 5110TIP3   OH236888   2.265   1.671   7.766 -0.3051  0.0661 -0.0635
 5110TIP3    H136889   2.242   1.580   7.785  0.7044 -0.1815  0.0696
 5110TIP3    H236890   2.360   1.668   7.750 -0.6461  0.6677 -2.6044
 5111TIP3   OH236891   2.650   2.597   0.156  0.0666 -0.1491  0.1939
 5111TIP3    H136892   2.674   2.607   0.248 -1.0970  1.0340  0.4026
 5111TIP3    H236893   2.611   2.510   0.150  3.4738 -1.8232 -0.0058
 5112TIP3   OH236894   2.338   5.595   8.653  0.2324 -0.2899 -0.1323
 5112TIP3    H136895   2.411   5.645   8.688 -0.7080  1.5212 -0.6428
 5112TIP3    H236896   2.293   5.560   8.730  1.6769 -1.5559  0.1762
 5113TIP3   OH236897   3.387   6.738   7.811  0.3748 -0.0135 -0.1386
 5113TIP3    H136898   3.319   6.704   7.869 -0.2951 -0.5789 -1.2255
 5113TIP3    H236899   3.368   6.832   7.804 -0.7248 -0.2685 -0.9423
 5114TIP3   OH236900   2.390   4.902   2.525  0.2284 -0.3634 -0.4477
 5114TIP3    H136901   2.387   4.929   2.617  1.9607  2.2768 -1.0352
 5114TIP3    H236902   2.447   4.826   2.525  0.9383  0.1320  0.6033
 5115TIP3   OH236903   6.005   6.168   2.582  0.6777 -0.8366  0.0069
 5115TIP3    H136904   5.984   6.234   2.649  1.3455 -0.5374 -0.0672
 5115TIP3    H236905   5.938   6.101   2.592  0.0684 -0.2077  0.1825
 5116TIP3   OH236906   6.220   1.973   8.640 -0.4853 -0.5962 -0.1027
 5116TIP3    H136907   6.298   1.934   8.678 -0.4266 -1.9830 -1.5379
 5116TIP3    H236908   6.233   2.068   8.649  0.2927 -0.8461  1.6728
 5117TIP3   OH236909   4.542   5.107   0.491 -0.5937 -0.3967 -0.1077
 5117TIP3    H136910   4.571   5.031   0.440 -0.1178  0.6844 -1.5137
 5117TIP3    H236911   4.528   5.073   0.579  2.8818 -1.4509  0.1547
 5118TIP3   OH236912   2.517   1.963   7.891 -0.7073  0.6535  0.4306
 5118TIP3    H136913   2.495   2.028   7.958 -0.0457 -0.3928  1.6979
 5118TIP3    H236914   2.547   1.886   7.940  0.1647 -0.0191 -1.0793
 5119TIP3   OH236915   4.872   5.149   7.620  0.0028  0.0651 -0.4914
 5119TIP3    H136916   4.805   5.184   7.679 -0.3270  1.8012 -1.8022
 5119TIP3    H236917   4.824   5.090   7.561 -0.4009  1.2007 -1.3407
 5120TIP3   OH236918   3.243   3.791   7.831 -0.5544  0.5262  0.3958
 5120TIP3    H136919   3.179   3.770   7.763  0.9161 -0.6798 -0.7132
 5120TIP3    H236920   3.213   3.744   7.908 -0.6056 -0.7120 -0.3504
 5121TIP3   OH236921   3.651   0.907   8.218  0.2809  0.1539  0.2390
 5121TIP3    H136922   3.704   0.985   8.203 -0.2052  0.2501 -1.1170
 5121TIP3    H236923   3.562   0.935   8.197 -0.1201 -0.3607  1.2229
 5122TIP3   OH236924   1.631   0.217   3.388 -0.5590  0.1708 -0.2226
 5122TIP3    H136925   1.567   0.287   3.402 -2.4650 -1.4399 -0.4125
 5122TIP3    H236926   1.632   0.205   3.293 -2.2663 -1.7536 -0.0624
 5123TIP3   OH236927   0.432   6.617   1.238  0.6166  0.2661  0.1771
 5123TIP3    H136928   0.523   6.620   1.209  1.1113  2.6086  1.6746
 5123TIP3    H236929   0.381   6.625   1.158  1.6659 -1.7338 -0.7531
 5124TIP3   OH236930   4.443   4.568   8.632  0.1324 -0.2051 -0.0020
 5124TIP3    H136931   4.388   4.615   8.570 -0.3180  0.7816  1.1014
 5124TIP3    H236932   4.462   4.632   8.700  3.1566 -0.3214 -0.6068
 5125TIP3   OH236933   2.625   4.530   2.097  0.4350 -0.8703 -0.9941
 5125TIP3    H136934   2.543   4.534   2.146  0.9803  0.5249 -0.1334
 5125TIP3    H236935   2.659   4.442   2.115 -0.4101 -1.1355 -0.6206
 5126TIP3   OH236936   6.143   2.180   0.853  0.5302  0.0567 -0.3020
 5126TIP3    H136937   6.169   2.204   0.764 -2.6301  1.2722 -1.0412
 5126TIP3    H236938   6.153   2.261   0.902  0.7838 -0.2070  0.0832
 5127TIP3   OH236939   0.048   3.744   2.013 -0.5214  0.0978 -0.0146
 5127TIP3    H136940   0.012   3.832   2.012 -2.1579 -0.4600  1.9591
 5127TIP3    H236941  -0.022   3.689   1.977  0.2692 -0.4946 -0.7074
 5128TIP3   OH236942   4.332   5.820   7.966 -0.2791 -0.1536  0.1974
 5128TIP3    H136943   4.382   5.882   8.020 -0.9849  1.7481 -1.2157
 5128TIP3    H236944   4.252   5.804   8.016 -1.0321  1.7678 -0.3027
 5129TIP3   OH236945   3.488   0.586   1.181 -0.3585  0.3162  0.0695
 5129TIP3    H136946   3.454   0.675   1.188 -0.1253  0.3697  0.6101
 5129TIP3    H236947   3.579   0.592   1.212 -0.5991 -0.2550  0.9294
 5130TIP3   OH236948   2.057   1.204   3.147  0.3079 -0.3898  0.4728
 5130TIP3    H136949   2.105   1.219   3.065  1.1392 -1.3301  0.7634
 5130TIP3    H236950   1.984   1.147   3.122  0.4433 -0.5092  0.3488
 5131TIP3   OH236951   2.790   5.980   7.839  0.7320  0.0232 -0.1831
 5131TIP3    H136952   2.775   5.969   7.745  0.3590  0.9533 -0.2476
 5131TIP3    H236953   2.883   5.966   7.851  0.5686 -1.3839 -0.4886
 5132TIP3   OH236954   4.645   1.810   7.431  0.0180 -0.2472 -0.8056
 5132TIP3    H136955   4.733   1.814   7.392 -0.0784 -1.3378 -1.1730
 5132TIP3    H236956   4.587   1.847   7.364  0.1984  0.5041 -0.5499
 5133TIP3   OH236957   5.599   5.584   0.332  0.3419  0.1239 -0.1395
 5133TIP3    H136958   5.613   5.490   0.319  1.5960  0.5896 -2.6989
 5133TIP3    H236959   5.542   5.610   0.259  0.7646  1.5176  0.0006
 5134TIP3   OH236960   0.598   1.983   0.695  0.2228 -0.2169  0.3264
 5134TIP3    H136961   0.552   1.918   0.749  0.0271  0.6541  1.2471
 5134TIP3    H236962   0.682   1.942   0.674 -0.0132 -0.8789  0.6432
 5135TIP3   OH236963   2.661   4.022   7.712 -0.3658 -0.0908  0.0098
 5135TIP3    H136964   2.652   3.975   7.630  0.4922 -1.3451  0.5927
 5135TIP3    H236965   2.585   3.996   7.764  0.0699 -0.8054  0.3037
 5136TIP3   OH236966   4.583   5.378   3.219 -0.0736  0.1609  0.3771
 5136TIP3    H136967   4.630   5.462   3.229 -1.6020  1.1227 -0.1870
 5136TIP3    H236968   4.650   5.317   3.189  1.2781  0.9437  1.6317
 5137TIP3   OH236969   1.913   6.204   8.083 -0.2516 -0.9166 -0.0335
 5137TIP3    H136970   1.974   6.158   8.141  0.0411  1.3137  1.6120
 5137TIP3    H236971   1.969   6.259   8.029 -0.6833  0.2452  0.6503
 5138TIP3   OH236972   0.672   5.548   1.087  0.1712 -0.0543 -0.6173
 5138TIP3    H136973   0.717   5.465   1.066  1.6234 -0.4565  3.2525
 5138TIP3    H236974   0.740   5.615   1.076 -0.3631  0.3530 -1.5423
 5139TIP3   OH236975   5.551   6.147   0.039 -0.4293  0.2673 -0.1370
 5139TIP3    H136976   5.626   6.199   0.068 -1.6210  2.1154 -0.1407
 5139TIP3    H236977   5.483   6.165   0.104 -1.7972  1.0957 -1.7071
 5140TIP3   OH236978   2.422   1.983   1.410  0.4749  0.3822  0.2067
 5140TIP3    H136979   2.451   1.939   1.490  0.9992  0.1017 -0.1293
 5140TIP3    H236980   2.358   2.048   1.439  0.2256 -0.1162  0.7876
 5141TIP3   OH236981   4.481   0.480   3.103 -0.2529 -0.0210 -0.0288
 5141TIP3    H136982   4.436   0.532   3.169  0.9736  1.4492 -0.2840
 5141TIP3    H236983   4.558   0.446   3.147  0.1187  0.2520 -0.4522
 5142TIP3   OH236984   0.340   6.516   1.957  0.0893  0.0672 -0.5364
 5142TIP3    H136985   0.342   6.430   1.914 -2.2931  0.0133 -0.6803
 5142TIP3    H236986   0.317   6.496   2.048  1.9810  0.4198  0.0642
 5143TIP3   OH236987   6.256   2.143   8.027 -0.1957  0.3102 -0.0204
 5143TIP3    H136988   6.328   2.097   8.071 -1.2178 -1.8688 -0.4936
 5143TIP3    H236989   6.180   2.086   8.039 -0.7388 -0.0284 -3.7977
 5144TIP3   OH236990   6.684   4.897   0.513  0.6136 -0.2753 -0.3954
 5144TIP3    H136991   6.649   4.909   0.425  1.8865  0.6850 -0.8085
 5144TIP3    H236992   6.668   4.980   0.558  4.4968  1.3097 -1.4549
 5145TIP3   OH236993   0.245   1.386   7.617  0.1371 -0.7598  0.2168
 5145TIP3    H136994   0.176   1.402   7.553  1.0389 -1.4024 -0.9587
 5145TIP3    H236995   0.270   1.473   7.648 -1.1710 -0.5162  0.6608
 5146TIP3   OH236996   5.434   4.209   2.340 -0.0344 -0.0331 -0.0272
 5146TIP3    H136997   5.394   4.202   2.253  1.6830  1.9219 -1.0602
 5146TIP3    H236998   5.402   4.292   2.375 -0.1561 -0.4668  0.9333
 5147TIP3   OH236999   1.665   0.985   1.275 -0.3358 -0.2742  0.1201
 5147TIP3    H137000   1.683   0.902   1.318  1.1730  0.1636  0.3765
 5147TIP3    H237001   1.693   0.972   1.185 -1.1758 -0.3958 -0.1316
 5148TIP3   OH237002   3.793   0.248   0.434 -0.1077 -0.4023 -0.7348
 5148TIP3    H137003   3.871   0.198   0.457  0.6384  0.3127 -1.6385
 5148TIP3    H237004   3.736   0.186   0.390 -0.2018 -1.0063  0.1991
 5149TIP3   OH237005   4.541   0.157   8.398 -0.4934  0.1718 -0.0659
 5149TIP3    H137006   4.479   0.111   8.341 -1.2767 -0.4313  1.2534
 5149TIP3    H237007   4.492   0.177   8.477  1.6927 -2.9968  2.3253
 5150TIP3   OH237008   5.212   0.896   0.052 -0.1865 -0.1887 -0.1959
 5150TIP3    H137009   5.169   0.835   0.112  0.8017 -2.6823 -1.8852
 5150TIP3    H237010   5.144   0.920  -0.011 -1.0547  1.9630  1.3970
 5151TIP3   OH237011   3.209   6.381   0.487 -0.1792  0.0403 -0.0580
 5151TIP3    H137012   3.219   6.288   0.467 -0.2878  0.1933 -0.8503
 5151TIP3    H237013   3.292   6.421   0.462 -0.3170  0.2375 -0.2045
 5152TIP3   OH237014   1.431   1.009   2.495 -0.2592 -0.2134 -0.7258
 5152TIP3    H137015   1.407   1.043   2.582  0.7660 -1.7291  0.1959
 5152TIP3    H237016   1.477   1.082   2.454 -0.1738  0.3214  0.2758
 5153TIP3   OH237017   1.021   2.514   2.834  0.0748  0.0139 -0.7734
 5153TIP3    H137018   1.031   2.506   2.929  3.4965 -0.7041 -1.0572
 5153TIP3    H237019   1.027   2.424   2.802 -1.8847  0.1641 -1.6913
 5154TIP3   OH237020   5.237   3.464   1.090  0.7714  0.5953  0.2569
 5154TIP3    H137021   5.224   3.399   1.159  1.9495  0.2277  0.1496
 5154TIP3    H237022   5.320   3.505   1.111  0.3028  1.6999  0.0123
 5155TIP3   OH237023   0.477   1.947   8.377 -0.2037 -0.2311  0.5150
 5155TIP3    H137024   0.529   1.999   8.316 -0.9618  0.8461  0.7746
 5155TIP3    H237025   0.539   1.922   8.446  0.6765 -1.5070 -0.6770
 5156TIP3   OH237026   5.133   5.136   0.874 -0.4579  0.1160 -0.3877
 5156TIP3    H137027   5.174   5.185   0.802 -1.5292  0.4020 -0.8201
 5156TIP3    H237028   5.049   5.107   0.839 -0.0706 -1.6372  0.0285
 5157TIP3   OH237029   0.060   3.072   8.162  0.0852 -0.5049  0.3925
 5157TIP3    H137030   0.122   3.002   8.141 -0.0620 -0.0749 -1.7061
 5157TIP3    H237031   0.111   3.152   8.158 -0.0898 -0.3527  1.1527
 5158TIP3   OH237032   2.242   1.631   2.197 -0.2308 -0.7953  0.1037
 5158TIP3    H137033   2.158   1.673   2.216 -0.9612 -0.6486 -2.9582
 5158TIP3    H237034   2.222   1.537   2.194  0.2377 -0.9671  1.5222
 5159TIP3   OH237035   4.383   3.127   0.103 -0.1279 -0.6086 -0.3491
 5159TIP3    H137036   4.288   3.122   0.110 -0.2883  0.9333 -0.9251
 5159TIP3    H237037   4.414   3.123   0.194 -0.5729 -2.9975 -0.2465
 5160TIP3   OH237038   3.445   2.274   0.832  0.1541  0.7398  0.1028
 5160TIP3    H137039   3.442   2.277   0.737  0.2233  2.2887  0.1211
 5160TIP3    H237040   3.535   2.247   0.853 -0.2233 -0.8888 -0.2456
 5161TIP3   OH237041   0.717   5.564   1.459 -0.3235 -0.8740  0.3590
 5161TIP3    H137042   0.713   5.572   1.555  1.7734 -1.4936  0.5556
 5161TIP3    H237043   0.803   5.598   1.436 -0.5455 -1.3292 -1.2448
 5162TIP3   OH237044   1.085   0.541   1.592 -0.1061  0.1943  0.2806
 5162TIP3    H137045   1.179   0.530   1.600 -0.0366  1.2528  1.1735
 5162TIP3    H237046   1.051   0.523   1.679 -1.1118 -3.1343 -0.6572
 5163TIP3   OH237047   4.783   0.371   2.050 -0.2154 -0.4882  0.5587
 5163TIP3    H137048   4.784   0.391   1.956  2.5720  0.3297  0.6748
 5163TIP3    H237049   4.861   0.316   2.063 -0.6161 -0.6770  2.3913
 5164TIP3   OH237050   2.200   1.253   1.214 -0.2018 -0.8424  0.1778
 5164TIP3    H137051   2.161   1.301   1.288  0.1471 -0.6723  0.2548
 5164TIP3    H237052   2.249   1.181   1.255  2.3152  0.8232  0.3605
 5165TIP3   OH237053   6.574   3.204   0.134 -0.1579  0.6379  0.1161
 5165TIP3    H137054   6.487   3.234   0.160 -0.9428 -1.8172  0.6280
 5165TIP3    H237055   6.574   3.208   0.038  0.1704  3.0756  0.1627
 5166TIP3   OH237056   1.371   1.367   2.593 -0.2213  0.0262  0.0775
 5166TIP3    H137057   1.408   1.439   2.644  1.0434 -0.1031 -0.6138
 5166TIP3    H237058   1.435   1.352   2.523 -1.9607  0.2854 -1.6445
 5167TIP3   OH237059   4.977   3.394   1.665 -0.5665 -0.3863  0.1097
 5167TIP3    H137060   4.919   3.451   1.614 -2.3368 -1.3637  0.9389
 5167TIP3    H237061   4.958   3.306   1.631  1.0807 -0.6536 -0.1697
 5168TIP3   OH237062   1.280   4.177   0.008  0.1765 -0.3974  0.1951
 5168TIP3    H137063   1.210   4.218   0.060 -0.1413 -1.0470  0.2940
 5168TIP3    H237064   1.234   4.119  -0.052  0.6181 -0.5983  0.0481
 5169TIP3   OH237065   3.650   3.215   3.322  0.0004  0.4932 -0.2351
 5169TIP3    H137066   3.736   3.255   3.336  0.1501  0.0218  0.2145
 5169TIP3    H237067   3.614   3.203   3.410  0.6993 -1.9330 -0.2156
 5170TIP3   OH237068   5.306   2.970   2.190  0.2241 -0.0943  0.0970
 5170TIP3    H137069   5.368   3.039   2.167  1.5470 -1.2005  0.2481
 5170TIP3    H237070   5.231   3.017   2.227  0.3941  1.3507 -1.2905
 5171TIP3   OH237071   0.280   2.031   7.621 -0.1644  0.2400  0.0126
 5171TIP3    H137072   0.247   1.985   7.544  2.0778  0.1592 -0.9802
 5171TIP3    H237073   0.287   2.123   7.592  0.2898  0.2822  0.2487
 5172TIP3   OH237074   3.869   2.534   0.447 -0.0162  0.3359  0.1534
 5172TIP3    H137075   3.835   2.451   0.413  0.2656  0.2935 -0.0264
 5172TIP3    H237076   3.799   2.597   0.431  0.7083  0.6629 -1.9631
 5173TIP3   OH237077   4.013   6.080   2.107 -0.0723 -0.2513 -0.0522
 5173TIP3    H137078   3.945   6.146   2.123 -0.2260 -0.7344  1.4127
 5173TIP3    H237079   3.994   6.010   2.170  0.5741 -1.3314 -1.0273
 5174TIP3   OH237080   5.026   1.909   0.717 -0.3200  0.3159 -0.2065
 5174TIP3    H137081   4.952   1.858   0.686  0.4451 -1.5265  0.8132
 5174TIP3    H237082   5.089   1.906   0.645  0.2219 -1.3545  0.2648
 5175TIP3   OH237083   3.245   2.545   0.711  0.2629  0.2021 -0.4622
 5175TIP3    H137084   3.261   2.597   0.632  0.9734 -0.5142 -0.8067
 5175TIP3    H237085   3.318   2.484   0.714  0.3310  0.3181  0.8473
 5176TIP3   OH237086   0.440   0.035   1.741  0.1401  0.0994 -0.2343
 5176TIP3    H137087   0.424  -0.011   1.659 -2.6277 -0.7247  0.6486
 5176TIP3    H237088   0.461   0.125   1.715  2.5767 -0.8507 -1.8839
 5177TIP3   OH237089   6.265   1.546   0.930  0.1182  0.2015  0.0930
 5177TIP3    H137090   6.229   1.591   0.853 -0.3061 -0.4223 -0.0761
 5177TIP3    H237091   6.268   1.614   0.997  0.4311  0.7400 -0.4460
 5178TIP3   OH237092   6.777   3.237   2.189 -0.1712 -0.4330  0.4551
 5178TIP3    H137093   6.714   3.278   2.130  0.9042 -0.6289 -0.8611
 5178TIP3    H237094   6.781   3.296   2.264 -0.5486  0.5496 -0.2691
 5179TIP3   OH237095   2.968   5.131   1.429  0.7222 -0.0581  0.9209
 5179TIP3    H137096   3.052   5.151   1.387  0.7100 -1.9565 -0.1297
 5179TIP3    H237097   2.990   5.067   1.497  0.2882  0.5011  1.6049
 5180TIP3   OH237098   5.878   6.171   8.288 -0.4369 -0.9461  0.0095
 5180TIP3    H137099   5.888   6.091   8.339 -2.0309 -1.4932 -0.4663
 5180TIP3    H237100   5.839   6.234   8.348 -1.8650 -1.4435 -0.3469
 5181TIP3   OH237101   2.323   3.802   8.086 -0.0538  0.1434  0.2281
 5181TIP3    H137102   2.265   3.747   8.034  0.7432  0.4857 -1.0740
 5181TIP3    H237103   2.327   3.759   8.171 -0.2688 -1.2352 -0.4368
 5182TIP3   OH237104   1.573   3.341   2.628  0.0174  0.1948  0.0733
 5182TIP3    H137105   1.590   3.313   2.718 -0.4390 -0.4345 -0.0380
 5182TIP3    H237106   1.479   3.355   2.624  0.0925  0.6719 -0.1880
 5183TIP3   OH237107   4.371   2.586   2.205  0.0676  0.0337  0.2016
 5183TIP3    H137108   4.464   2.561   2.208  0.3071  0.6676 -1.1020
 5183TIP3    H237109   4.324   2.503   2.209  0.7465 -0.4083 -0.6444
 5184TIP3   OH237110   6.041   1.846   1.294  0.2589 -0.1407 -0.4604
 5184TIP3    H137111   6.104   1.776   1.278 -0.6620 -0.4491 -3.2923
 5184TIP3    H237112   5.970   1.804   1.343  1.1917 -0.3288  0.7703
 5185TIP3   OH237113   3.279   1.603   8.641  0.1761  0.1072 -0.0496
 5185TIP3    H137114   3.368   1.626   8.668  0.9622  0.0961 -2.4004
 5185TIP3    H237115   3.228   1.603   8.722  2.4974 -0.7756  1.4922
 5186TIP3   OH237116   0.650   3.902   1.395  0.2990  0.0436 -0.5876
 5186TIP3    H137117   0.600   3.951   1.330 -0.2633 -0.8603 -0.8443
 5186TIP3    H237118   0.668   3.818   1.354 -0.5708 -0.7751  0.6141
 5187TIP3   OH237119   1.983   2.776   3.283  0.2508 -0.4322  0.1009
 5187TIP3    H137120   1.929   2.852   3.263  1.2112  0.2487  0.0030
 5187TIP3    H237121   2.065   2.792   3.236  0.6989 -1.2284  0.5852
 5188TIP3   OH237122   5.226   3.276   3.047 -0.1048 -0.2687 -0.7791
 5188TIP3    H137123   5.299   3.337   3.057 -0.0264 -0.5126  0.2683
 5188TIP3    H237124   5.155   3.329   3.011 -0.0507  0.4520  0.1452
 5189TIP3   OH237125   5.844   1.324   2.483 -0.0809  0.7443 -0.1708
 5189TIP3    H137126   5.859   1.406   2.529 -0.5300  0.3923  0.6368
 5189TIP3    H237127   5.917   1.316   2.422  0.1264  1.5904 -0.0358
 5190TIP3   OH237128   0.327   1.044   1.929  0.0700  0.0688 -0.0138
 5190TIP3    H137129   0.368   1.007   1.850  1.3947 -0.7163  0.9969
 5190TIP3    H237130   0.346   0.981   1.998 -0.2811  1.1774  1.1356
 5191TIP3   OH237131   1.610   0.305   1.294 -0.7351 -0.2695 -0.0078
 5191TIP3    H137132   1.634   0.214   1.311  0.3606 -0.1680 -0.8563
 5191TIP3    H237133   1.655   0.326   1.212 -1.1914  0.9552  0.0411
 5192TIP3   OH237134   1.248   5.963   2.079  0.5014  0.4408 -0.4084
 5192TIP3    H137135   1.320   5.960   2.017  1.2211 -0.4440  0.4387
 5192TIP3    H237136   1.285   6.003   2.158  0.0389  0.0754  0.0021
 5193TIP3   OH237137   0.294   1.834   1.487 -0.1636  0.2796 -0.2473
 5193TIP3    H137138   0.313   1.867   1.575 -0.2641 -0.6412  0.1354
 5193TIP3    H237139   0.313   1.907   1.429  1.3242  0.4472  0.4026
 5194TIP3   OH237140   0.679   1.533   2.451  0.4109  0.8708  0.3670
 5194TIP3    H137141   0.721   1.456   2.412 -0.5454  1.0719 -1.1479
 5194TIP3    H237142   0.682   1.517   2.546  1.8424 -0.1602  0.1687
 5195TIP3   OH237143   3.084   5.012   0.988 -0.0716 -0.5344 -0.2688
 5195TIP3    H137144   3.136   5.064   0.926 -2.9954  1.9175 -0.9085
 5195TIP3    H237145   3.016   4.971   0.934 -2.8940  1.9098  1.1445
 5196TIP3   OH237146   1.383   0.563   1.925  0.2475 -0.4470  0.0921
 5196TIP3    H137147   1.391   0.525   2.012 -1.8683 -0.4994  0.3186
 5196TIP3    H237148   1.390   0.658   1.938  1.6185 -0.5224  0.0538
 5197TIP3   OH237149   3.025   2.780   0.251 -0.0220  0.3842  0.0085
 5197TIP3    H137150   2.959   2.843   0.222 -1.4120 -1.0207 -0.0043
 5197TIP3    H237151   3.104   2.804   0.202 -1.5669 -0.2902 -3.0356
 5198TIP3   OH237152   5.656   1.332   0.862  0.3131  0.0784  0.0012
 5198TIP3    H137153   5.672   1.426   0.858  1.2568 -0.0476  0.5452
 5198TIP3    H237154   5.703   1.303   0.940  1.3883 -1.0917 -1.0303
 5199TIP3   OH237155   6.510   0.508   0.941 -0.1876 -0.3110  0.2787
 5199TIP3    H137156   6.509   0.586   0.998 -1.5964  1.1355 -1.5917
 5199TIP3    H237157   6.593   0.515   0.893 -1.2588  1.4024 -1.4994
 5200TIP3   OH237158   1.602   2.286   7.478 -0.2888  0.1077 -0.7216
 5200TIP3    H137159   1.563   2.269   7.392  1.6976 -0.0391 -1.6314
 5200TIP3    H237160   1.657   2.363   7.465  1.0376 -0.6699  0.0873
 5201TIP3   OH237161   2.887   5.791   0.392  0.0031 -0.2965 -0.2544
 5201TIP3    H137162   2.876   5.743   0.474  1.9966 -0.0979  0.1899
 5201TIP3    H237163   2.879   5.883   0.418  0.0296 -0.2557 -0.3935
 5202TIP3   OH237164   5.676   6.644   8.496  0.0092 -0.2044  0.2050
 5202TIP3    H137165   5.724   6.702   8.554  0.9514 -0.5141 -0.2505
 5202TIP3    H237166   5.657   6.697   8.418  0.9159 -0.4995 -0.2333
 5203TIP3   OH237167   6.207   5.805   1.325  0.0782  0.0293 -0.9346
 5203TIP3    H137168   6.129   5.824   1.376  1.0501  0.2619  0.5110
 5203TIP3    H237169   6.192   5.848   1.240 -0.9690  0.8122 -0.3694
 5204TIP3   OH237170   2.068   0.903   8.538  0.0730  0.0673 -0.0548
 5204TIP3    H137171   2.143   0.844   8.538  0.7301  0.8748  0.6436
 5204TIP3    H237172   2.054   0.926   8.446  0.7311 -0.0197 -0.1770
 5205TIP3   OH237173   5.309   6.010   2.107  0.3256  0.1230 -0.3157
 5205TIP3    H137174   5.305   6.031   2.200  1.1792  0.6552 -0.3793
 5205TIP3    H237175   5.231   5.959   2.090 -0.0714  0.4026  0.6018
 5206TIP3   OH237176   6.289   0.080   0.957  0.0295  0.0371  0.5118
 5206TIP3    H137177   6.285   0.077   1.053 -0.7544  1.8470  0.5809
 5206TIP3    H237178   6.361   0.141   0.939  0.4886 -0.6639 -0.0798
 5207TIP3   OH237179   0.695   6.092   3.319 -0.2547 -0.3440 -0.3787
 5207TIP3    H137180   0.662   6.023   3.262  0.6147 -2.7537  1.8168
 5207TIP3    H237181   0.625   6.104   3.384 -0.0615  0.2894 -0.2831
 5208TIP3   OH237182   3.634   1.582   2.516 -0.3470  0.0255  0.3408
 5208TIP3    H137183   3.636   1.521   2.590  4.0347  0.3858  0.7699
 5208TIP3    H237184   3.678   1.661   2.549  0.6299  0.6618 -2.2699
 5209TIP3   OH237185   5.453   2.371   7.944  0.5365  0.8181 -0.3466
 5209TIP3    H137186   5.412   2.446   7.902  0.5564  1.6767  1.0880
 5209TIP3    H237187   5.528   2.350   7.889 -0.4572  0.7366 -1.7063
 5210TIP3   OH237188   2.239   2.597   0.598 -0.3812  0.5317 -0.3460
 5210TIP3    H137189   2.274   2.574   0.684  1.9243  2.0127 -0.7938
 5210TIP3    H237190   2.186   2.675   0.614 -1.1502 -0.0274 -0.0939
 5211TIP3   OH237191   4.297   5.409   1.293  0.0088 -0.0313  0.2823
 5211TIP3    H137192   4.250   5.387   1.374 -2.1838 -2.0752 -1.4011
 5211TIP3    H237193   4.317   5.502   1.301 -0.2435 -0.1410  3.1032
 5212TIP3   OH237194   4.462   1.376   2.149  0.6719  0.3094 -0.4087
 5212TIP3    H137195   4.496   1.302   2.099  0.2052 -0.3834  0.2679
 5212TIP3    H237196   4.500   1.454   2.108  0.0830 -0.2151 -2.0177
 5213TIP3   OH237197   4.195   0.777   0.553 -0.1224  0.3402 -0.0766
 5213TIP3    H137198   4.123   0.716   0.540  0.5237 -0.5602  0.3933
 5213TIP3    H237199   4.272   0.731   0.519  0.2510  1.2344 -0.4733
 5214TIP3   OH237200   2.370   1.249   0.540  0.2262  0.3216  0.1049
 5214TIP3    H137201   2.337   1.336   0.562 -0.2444 -0.3489  2.2628
 5214TIP3    H237202   2.353   1.197   0.618  0.7574 -1.6485 -1.0426
 5215TIP3   OH237203   0.173   5.985   8.435  0.4132 -0.4078 -0.3652
 5215TIP3    H137204   0.118   6.056   8.402 -0.3905 -0.6508  0.4290
 5215TIP3    H237205   0.252   5.990   8.382 -0.4545 -0.1883 -1.6888
 5216TIP3   OH237206   6.304   2.627   2.713 -0.3849 -0.2390  0.3843
 5216TIP3    H137207   6.253   2.547   2.724  0.6621 -0.7709  1.6547
 5216TIP3    H237208   6.289   2.677   2.793 -0.8617  0.7506 -0.3059
 5217TIP3   OH237209   3.687   3.997   2.512  0.1500  0.3459 -0.3216
 5217TIP3    H137210   3.782   3.987   2.509 -0.0786 -2.3461 -0.8317
 5217TIP3    H237211   3.655   3.949   2.435 -1.7062 -0.8736  1.1160
 5218TIP3   OH237212   2.139   3.351   7.507 -0.0696  0.6574 -0.0618
 5218TIP3    H137213   2.136   3.269   7.556 -0.3859  1.0951  0.6647
 5218TIP3    H237214   2.229   3.355   7.474  0.0993  0.2652  0.3338
 5219TIP3   OH237215   1.723   3.596   2.602 -0.3135  0.4803 -0.3065
 5219TIP3    H137216   1.696   3.511   2.636 -1.2717  0.4797 -1.0179
 5219TIP3    H237217   1.670   3.659   2.649  1.3611  0.8428  1.2238
 5220TIP3   OH237218   3.936   3.412   1.478  0.2536  0.2498  0.3048
 5220TIP3    H137219   3.858   3.387   1.526 -1.1872  0.3032 -1.8560
 5220TIP3    H237220   3.908   3.482   1.419  1.9332  0.3035 -0.5109
 5221TIP3   OH237221   3.180   0.030   8.045  0.3228  0.1832 -0.1523
 5221TIP3    H137222   3.178   0.066   7.956  1.4477  3.0612  0.8896
 5221TIP3    H237223   3.273   0.017   8.063  0.2118  1.0041  1.0954
 5222TIP3   OH237224   4.164   3.659   0.990 -0.0276 -0.0161  0.1672
 5222TIP3    H137225   4.231   3.670   0.922  0.9640  1.1142  1.2721
 5222TIP3    H237226   4.081   3.673   0.945  0.5051 -0.7499 -1.0966
 5223TIP3   OH237227   0.765   6.466   8.322 -0.0979 -0.0704 -0.0794
 5223TIP3    H137228   0.705   6.539   8.335 -0.8079 -0.3169 -1.7407
 5223TIP3    H237229   0.831   6.476   8.391 -0.1800  2.1106 -0.2604
 5224TIP3   OH237230   2.933   2.948   1.686  0.4590 -0.2983  0.1256
 5224TIP3    H137231   2.958   3.017   1.626 -1.4554 -0.9222 -1.5160
 5224TIP3    H237232   2.961   2.979   1.772  0.5086  2.0654 -0.6778
 5225TIP3   OH237233   5.814   5.743   2.604 -0.3584  0.2877  0.1274
 5225TIP3    H137234   5.734   5.789   2.629 -0.9106 -0.1138 -0.8377
 5225TIP3    H237235   5.877   5.765   2.673 -1.2053  0.8495  0.7440
 5226TIP3   OH237236   2.502   4.121   1.065  0.2415  0.2631 -0.0349
 5226TIP3    H137237   2.538   4.187   1.123 -1.0903 -0.0066  1.1488
 5226TIP3    H237238   2.424   4.162   1.028  0.0490 -0.2356 -0.1864
 5227TIP3   OH237239   1.520   5.199   0.131 -0.3878  0.0173 -0.1900
 5227TIP3    H137240   1.485   5.112   0.112 -1.7610  0.8917 -1.9877
 5227TIP3    H237241   1.595   5.209   0.072 -1.5111  0.7804 -1.5713
 5228TIP3   OH237242   6.073   0.617   1.973  0.4389  0.2736 -0.1232
 5228TIP3    H137243   6.042   0.527   1.984 -1.2218  0.8438  0.1580
 5228TIP3    H237244   6.165   0.615   2.000  1.4818 -2.0117 -3.1958
 5229TIP3   OH237245   4.904   2.349   2.865 -0.3889  0.3925 -0.0271
 5229TIP3    H137246   4.905   2.438   2.899  0.1872 -0.0648  1.2165
 5229TIP3    H237247   4.954   2.354   2.783 -0.3769  1.2083  0.0211
 5230TIP3   OH237248   6.479   5.179   2.226 -0.6362  0.3338 -0.3915
 5230TIP3    H137249   6.518   5.141   2.305 -0.1483  0.2074 -0.6942
 5230TIP3    H237250   6.462   5.104   2.170 -0.6891  0.4579 -0.5401
 5231TIP3   OH237251   2.713   3.255   2.872 -0.7917 -0.2386  1.0280
 5231TIP3    H137252   2.803   3.285   2.868 -0.4968 -1.2483 -1.5339
 5231TIP3    H237253   2.672   3.311   2.939  1.0260  2.1161  0.3143
 5232TIP3   OH237254   5.075   3.501   0.814  0.0454 -0.1269 -0.1812
 5232TIP3    H137255   4.980   3.501   0.819 -0.0642 -2.2165 -0.9345
 5232TIP3    H237256   5.104   3.487   0.904 -0.2639  2.0277  0.2915
 5233TIP3   OH237257   4.697   1.600   0.507 -0.6542  0.0770  0.3393
 5233TIP3    H137258   4.649   1.538   0.562 -1.5240  0.7089  0.3007
 5233TIP3    H237259   4.719   1.550   0.428 -2.3573  0.1303 -0.1947
 5234TIP3   OH237260   5.497   0.300   7.573 -0.3519 -0.0208  0.1746
 5234TIP3    H137261   5.409   0.264   7.585 -0.5250 -0.9600 -3.1055
 5234TIP3    H237262   5.484   0.382   7.526  0.4253  1.5337  2.4888
 5235TIP3   OH237263   6.093   2.802   7.990 -0.5620 -0.1537  0.1354
 5235TIP3    H137264   6.101   2.747   8.067  0.1635 -0.8253 -0.4132
 5235TIP3    H237265   6.174   2.853   7.988 -0.4050 -0.4295 -0.4138
 5236TIP3   OH237266   5.075   5.007   7.755  0.2396  0.3384 -0.0687
 5236TIP3    H137267   5.008   5.054   7.705 -2.5368 -1.1325  2.0103
 5236TIP3    H237268   5.106   5.070   7.819  0.3649  0.8398 -0.6171
 5237TIP3   OH237269   0.775   4.580   8.635  0.2818  0.6037  0.1148
 5237TIP3    H137270   0.847   4.618   8.584  1.1775  1.3337  1.8331
 5237TIP3    H237271   0.696   4.623   8.601  0.1347 -2.1305 -3.7039
 5238TIP3   OH237272   5.566   3.905   0.540  0.6542  0.3315 -0.8298
 5238TIP3    H137273   5.585   3.894   0.447  0.1835  1.5438 -1.0781
 5238TIP3    H237274   5.534   3.994   0.548  2.0604  0.7511  0.7206
 5239TIP3   OH237275   3.127   0.332   8.400 -0.1261  0.1026 -0.1054
 5239TIP3    H137276   3.182   0.408   8.420 -0.3720  0.8640 -2.0586
 5239TIP3    H237277   3.059   0.334   8.466  0.5552  0.8755  0.6004
 5240TIP3   OH237278   4.967   3.866   1.736  0.4077 -0.2004  0.0493
 5240TIP3    H137279   4.974   3.778   1.772  0.9835  0.4671  1.6581
 5240TIP3    H237280   5.054   3.887   1.703  0.0306 -0.5767 -1.2610
 5241TIP3   OH237281   4.771   0.279   0.922  0.7858 -0.0233  0.0943
 5241TIP3    H137282   4.807   0.324   0.999 -2.0441  3.0563 -0.1534
 5241TIP3    H237283   4.791   0.337   0.849 -1.2925 -0.0489 -0.5661
 5242TIP3   OH237284   3.399   2.845   3.134 -0.2388 -0.4050 -0.3340
 5242TIP3    H137285   3.384   2.928   3.089 -0.4893 -1.0701 -1.5236
 5242TIP3    H237286   3.350   2.781   3.083  0.8698 -1.4690 -0.1213
 5243TIP3   OH237287   6.670   5.290   0.556  0.4763  0.2841  0.0110
 5243TIP3    H137288   6.688   5.373   0.600 -0.9891 -0.2698  1.7493
 5243TIP3    H237289   6.633   5.234   0.624  0.2099 -1.3688 -1.4326
 5244TIP3   OH237290   5.859   1.695   0.083  0.0598 -0.6591 -0.3158
 5244TIP3    H137291   5.894   1.780   0.060 -2.0000  0.8440  1.6261
 5244TIP3    H237292   5.787   1.680   0.022 -0.7677 -0.0701  0.4782
 5245TIP3   OH237293   4.437   4.852   2.424 -0.0933 -0.2590 -0.4955
 5245TIP3    H137294   4.405   4.903   2.349  4.3563  2.6172 -0.7929
 5245TIP3    H237295   4.421   4.908   2.500  3.1392  0.9977 -0.5844
 5246TIP3   OH237296   0.996   6.106   1.844 -0.1148  0.8286  0.0956
 5246TIP3    H137297   0.983   6.154   1.762  2.1172 -1.8810 -2.0943
 5246TIP3    H237298   1.053   6.162   1.896  0.9913  1.3824 -1.6050
 5247TIP3   OH237299   6.715   6.681   1.261 -0.4798  0.2891 -0.2348
 5247TIP3    H137300   6.789   6.701   1.317  0.1271 -0.3021 -0.8054
 5247TIP3    H237301   6.674   6.604   1.302  0.6784 -0.8994 -1.2203
 5248TIP3   OH237302   5.345   0.457   0.201 -0.2241  0.3147  0.4309
 5248TIP3    H137303   5.377   0.372   0.168  0.1536  0.7795 -0.4314
 5248TIP3    H237304   5.260   0.437   0.240  0.9586 -0.9174  2.5832
 5249TIP3   OH237305   1.557   4.704   7.362 -0.3238  0.0088 -0.0230
 5249TIP3    H137306   1.619   4.649   7.314 -0.5161 -0.1234 -0.1248
 5249TIP3    H237307   1.501   4.641   7.408  0.1064  0.1387  0.7003
 5250TIP3   OH237308   2.040   2.712   7.177  0.0599 -0.1721 -0.1186
 5250TIP3    H137309   1.945   2.712   7.191 -0.4045 -0.6996 -2.6930
 5250TIP3    H237310   2.077   2.709   7.265 -2.2314  2.5674  1.1119
 5251TIP3   OH237311   1.917   3.997   1.110  0.1376 -0.0257 -0.2525
 5251TIP3    H137312   1.833   3.959   1.085  0.2688 -0.3736 -0.1746
 5251TIP3    H237313   1.910   4.014   1.204  0.1029  0.0808 -0.2742
 5252TIP3   OH237314   1.087   5.516   0.524  0.0706 -0.2018 -0.4173
 5252TIP3    H137315   1.054   5.443   0.472 -0.1452  0.6396 -1.5140
 5252TIP3    H237316   1.008   5.559   0.558  0.2066 -0.7031  0.5880
 5253TIP3   OH237317   1.337   0.180   0.322 -0.1527 -0.2449  0.0975
 5253TIP3    H137318   1.340   0.114   0.391  0.6044 -0.0688  0.2532
 5253TIP3    H237319   1.343   0.131   0.241 -2.8868 -0.5917  0.0400
 5254TIP3   OH237320   0.287   2.397   2.294  0.1950  0.1650  0.8028
 5254TIP3    H137321   0.378   2.409   2.268  0.0483  0.9052  0.6005
 5254TIP3    H237322   0.250   2.486   2.295 -0.3762 -0.0701  1.4275
 5255TIP3   OH237323   4.989   1.422   0.048 -0.4526 -0.0132 -0.0008
 5255TIP3    H137324   5.065   1.378   0.088 -0.1502 -2.0335 -2.5153
 5255TIP3    H237325   4.915   1.395   0.103  0.3356  0.0134  1.1061
 5256TIP3   OH237326   0.089   2.523   1.460  0.3360 -0.3752  0.3578
 5256TIP3    H137327   0.064   2.595   1.518 -1.6128 -2.1502  1.8594
 5256TIP3    H237328   0.184   2.517   1.468  0.5123  1.7824  0.4255
 5257TIP3   OH237329   4.334   3.239   0.842  0.4121 -0.2885  0.1936
 5257TIP3    H137330   4.322   3.323   0.797 -1.9438 -1.4093 -1.4963
 5257TIP3    H237331   4.381   3.185   0.779 -0.2202 -0.9565  0.2841
 5258TIP3   OH237332   0.102   5.405   8.720  0.3592 -0.2232  0.6844
 5258TIP3    H137333   0.190   5.435   8.696  0.8776 -2.4797 -0.5171
 5258TIP3    H237334   0.063   5.377   8.638 -0.0778 -2.6571  1.6544
 5259TIP3   OH237335   4.599   6.432   8.258 -0.0811  0.4392 -0.2488
 5259TIP3    H137336   4.513   6.474   8.253 -0.0564  0.6778  0.9320
 5259TIP3    H237337   4.658   6.493   8.213 -0.3209  0.8921  0.0409
 5260TIP3   OH237338   0.212   6.538   0.447 -0.5355 -0.2373 -0.3605
 5260TIP3    H137339   0.272   6.477   0.404  0.2193  1.5962 -2.0438
 5260TIP3    H237340   0.126   6.516   0.412  0.0116  0.9505 -2.6060
 5261TIP3   OH237341   0.967   0.139   2.750  0.2114  0.1397  0.1211
 5261TIP3    H137342   1.049   0.154   2.796  0.5880  0.8720 -0.7634
 5261TIP3    H237343   0.923   0.071   2.802  0.5453  1.0224  1.6222
 5262TIP3   OH237344   3.957   4.811   7.310 -0.3253  0.2803  0.7508
 5262TIP3    H137345   4.027   4.755   7.277 -0.9702 -2.1346  3.1265
 5262TIP3    H237346   3.881   4.790   7.254  0.0289  0.5118  0.1811
 5263TIP3   OH237347   4.044   3.553   2.277  0.2554  0.5063 -0.0534
 5263TIP3    H137348   4.084   3.633   2.243 -2.8813  2.4689  0.5006
 5263TIP3    H237349   3.985   3.583   2.345 -0.2297 -2.4610  0.9689
 5264TIP3   OH237350   6.793   1.418   1.346  0.7052  0.4942 -0.1130
 5264TIP3    H137351   6.828   1.430   1.434  0.7956  0.6176 -0.1643
 5264TIP3    H237352   6.718   1.360   1.357  0.5091  0.7806  0.0936
 5265TIP3   OH237353   0.300   5.574   8.598  0.2154 -0.3053  0.1638
 5265TIP3    H137354   0.386   5.607   8.570  1.0045 -0.7435  1.9538
 5265TIP3    H237355   0.237   5.625   8.546  1.5113  0.8396 -0.3542
 5266TIP3   OH237356   2.835   3.243   1.670  0.2453 -0.0366  0.3275
 5266TIP3    H137357   2.828   3.231   1.575  0.1536  0.2667  0.2932
 5266TIP3    H237358   2.744   3.251   1.700  0.2802  0.0043  0.4226
 5267TIP3   OH237359   3.958   3.234   0.002  0.0913 -0.0747 -0.0882
 5267TIP3    H137360   3.971   3.298   0.072  2.5547 -0.6717  0.0860
 5267TIP3    H237361   3.926   3.286  -0.072  3.4168  1.7910 -0.4477
 5268TIP3   OH237362   5.117   6.723   7.877  0.0537  0.6175  0.3005
 5268TIP3    H137363   5.076   6.674   7.806 -0.1562  0.0054  0.8320
 5268TIP3    H237364   5.210   6.723   7.856  0.1079 -0.3527  0.4853
 5269TIP3   OH237365   2.819   4.995   0.006  0.5077 -0.1069  0.2099
 5269TIP3    H137366   2.780   5.046  -0.065 -0.9694 -1.8432 -0.2937
 5269TIP3    H237367   2.855   4.917  -0.036 -1.3607 -1.7167  1.3981
 5270TIP3   OH237368   5.442   5.388   2.987  0.3009 -0.4068 -0.7670
 5270TIP3    H137369   5.526   5.344   2.984  1.1666  1.1689 -2.5159
 5270TIP3    H237370   5.463   5.479   3.011 -1.1125 -0.3482  0.3958
 5271TIP3   OH237371   1.700   2.430   1.095  0.1759 -0.8011  0.5377
 5271TIP3    H137372   1.651   2.348   1.105 -0.2088 -0.7241 -0.5991
 5271TIP3    H237373   1.787   2.403   1.065 -0.5430 -0.7456 -1.8215
 5272TIP3   OH237374   1.012   5.136   7.829 -0.6163 -0.0882 -0.0615
 5272TIP3    H137375   1.014   5.061   7.771 -0.4864  0.4879 -0.8118
 5272TIP3    H237376   1.084   5.192   7.800  2.0209 -1.5149  3.0727
 5273TIP3   OH237377   6.185   4.232   0.026 -0.1208  0.2876 -0.5087
 5273TIP3    H137378   6.231   4.311  -0.000 -0.1026  0.2414 -0.6173
 5273TIP3    H237379   6.134   4.258   0.102  1.5365 -0.1235  0.7922
 5274TIP3   OH237380   4.700   6.547   1.859 -0.7368  0.1354 -0.1145
 5274TIP3    H137381   4.775   6.598   1.889  0.0726 -1.1051  0.0270
 5274TIP3    H237382   4.635   6.613   1.835  1.3859  1.3837 -3.0323
 5275TIP3   OH237383   0.405   1.622   2.922 -0.6412 -0.4501  0.3001
 5275TIP3    H137384   0.309   1.621   2.924 -0.6360 -0.5518  0.6232
 5275TIP3    H237385   0.428   1.694   2.864 -0.9206 -0.9669 -0.4640
 5276TIP3   OH237386   5.398   4.381   0.775 -0.1245  0.4999 -0.3253
 5276TIP3    H137387   5.423   4.451   0.716 -0.0313  0.3320 -0.4876
 5276TIP3    H237388   5.305   4.394   0.792 -0.3401  0.0791 -1.1462
 5277TIP3   OH237389   6.223   0.868   2.085  0.2971  0.2403  0.3404
 5277TIP3    H137390   6.293   0.921   2.047  0.5563 -0.7702 -0.6419
 5277TIP3    H237391   6.148   0.882   2.027 -0.1585  0.8516  1.0513
 5278TIP3   OH237392   4.787   6.065   2.012  0.3241 -0.0375 -0.4998
 5278TIP3    H137393   4.878   6.076   2.038  0.2908  0.8210 -0.7210
 5278TIP3    H237394   4.737   6.092   2.090  0.2453 -2.0114  0.1924
 5279TIP3   OH237395   1.422   1.896   8.105  0.6306  0.0511  0.7783
 5279TIP3    H137396   1.492   1.831   8.118  0.2874 -0.2899  0.9401
 5279TIP3    H237397   1.358   1.850   8.050 -0.4387 -0.3675  2.3107
 5280TIP3   OH237398   5.011   4.114   0.823  1.1270  0.2109  0.8540
 5280TIP3    H137399   5.047   4.201   0.804  2.5027  0.1327  2.8036
 5280TIP3    H237400   5.067   4.080   0.892 -0.7945 -1.2936  1.7613
 5281TIP3   OH237401   1.100   5.326   8.179 -0.1611  0.2014  0.6274
 5281TIP3    H137402   1.081   5.360   8.092  0.8008 -0.6002  0.0788
 5281TIP3    H237403   1.060   5.239   8.181  1.3419 -0.5438  0.2880
 5282TIP3   OH237404   4.333   5.934   2.883 -0.1518 -0.2415 -0.8176
 5282TIP3    H137405   4.322   5.843   2.911  1.5556 -2.1382 -5.3498
 5282TIP3    H237406   4.250   5.955   2.840 -1.2481  1.1892  1.7695
 5283TIP3   OH237407   5.089   6.403   1.358 -0.2518 -0.1284 -0.4325
 5283TIP3    H137408   5.122   6.314   1.369 -0.5409 -0.2444 -0.4896
 5283TIP3    H237409   5.142   6.457   1.417  0.3891 -0.2277 -0.9130
 5284TIP3   OH237410   5.507   1.926   1.840 -0.8390  0.1319 -0.0836
 5284TIP3    H137411   5.602   1.925   1.844 -0.8038  1.1377 -0.5070
 5284TIP3    H237412   5.484   2.016   1.817 -1.7748 -0.7010 -2.7755
 5285TIP3   OH237413   0.447   5.800   3.163  0.5091  0.2551 -0.6001
 5285TIP3    H137414   0.379   5.866   3.151  0.5689  0.2943 -0.7257
 5285TIP3    H237415   0.526   5.839   3.123  0.1566 -0.5613 -2.1744
 5286TIP3   OH237416   1.609   1.704   1.217  0.6068 -0.5068  0.3696
 5286TIP3    H137417   1.683   1.708   1.277  1.2473  2.9808 -0.4768
 5286TIP3    H237418   1.629   1.768   1.149 -2.9012  0.1520 -0.2269
 5287TIP3   OH237419   0.367   4.900   0.909 -0.3007  0.2590 -0.0021
 5287TIP3    H137420   0.445   4.891   0.964 -0.3859  2.0780  0.4597
 5287TIP3    H237421   0.294   4.877   0.967 -0.3067  1.1358  0.3459
 5288TIP3   OH237422   4.434   4.672   8.261  0.2857 -0.1601  0.9671
 5288TIP3    H137423   4.394   4.732   8.198  2.5378 -1.1751 -1.6255
 5288TIP3    H237424   4.522   4.708   8.275  1.3023 -2.1897  0.1591
 5289TIP3   OH237425   2.358   2.881   2.322 -0.0727 -0.5095  0.1373
 5289TIP3    H137426   2.303   2.817   2.365 -0.2429 -0.2006  0.3866
 5289TIP3    H237427   2.387   2.939   2.393  1.5512 -1.3685  0.2197
 5290TIP3   OH237428   2.001   3.079   0.047  0.1582 -0.3939 -0.2016
 5290TIP3    H137429   1.970   3.132  -0.027 -1.8238  0.2413  0.9935
 5290TIP3    H237430   1.968   3.125   0.124 -0.3002 -2.5223  0.9543
 5291TIP3   OH237431   2.671   6.210   0.996 -0.2347 -0.3045 -0.3516
 5291TIP3    H137432   2.623   6.128   0.988 -0.3166 -0.2165 -0.8046
 5291TIP3    H237433   2.653   6.256   0.914  0.3008 -0.0979 -0.3532
 5292TIP3   OH237434   0.754   6.830   8.313 -0.0036  0.6891 -0.0229
 5292TIP3    H137435   0.836   6.856   8.354 -0.0438  0.6921  0.0564
 5292TIP3    H237436   0.762   6.860   8.222 -0.1594  1.2135  0.1353
 5293TIP3   OH237437   0.387   5.279   2.330  0.3337  0.2472  0.0117
 5293TIP3    H137438   0.474   5.320   2.322  0.1317  0.3454 -2.6452
 5293TIP3    H237439   0.380   5.224   2.253 -2.3816  1.0593 -0.4008
 5294TIP3   OH237440   4.490   5.021   8.282 -0.0087 -0.6054 -0.1872
 5294TIP3    H137441   4.501   5.103   8.331  0.6545 -1.5522  1.3243
 5294TIP3    H237442   4.578   4.983   8.279 -0.3721 -1.4423 -0.5351
 5295TIP3   OH237443   3.200   5.265   2.370  0.7291  0.1652 -0.4946
 5295TIP3    H137444   3.128   5.328   2.375  0.8356  0.2127  0.6757
 5295TIP3    H237445   3.278   5.316   2.392  1.2625  0.2909 -2.4963
 5296TIP3   OH237446   5.060   4.692   3.281  0.2806  0.3483 -0.4520
 5296TIP3    H137447   4.965   4.703   3.290  0.3659  0.5484  0.2685
 5296TIP3    H237448   5.076   4.601   3.305  0.4313  0.7068  0.8951
 5297TIP3   OH237449   4.156   3.172   2.777  0.3067  0.2798 -0.1339
 5297TIP3    H137450   4.185   3.254   2.817  0.3873 -0.5019  1.4866
 5297TIP3    H237451   4.237   3.127   2.752  0.3482 -0.2098  0.8698
 5298TIP3   OH237452   0.209   5.703   2.526  0.8082  0.6026  0.4068
 5298TIP3    H137453   0.159   5.736   2.451  1.4260 -0.1502 -0.3648
 5298TIP3    H237454   0.297   5.738   2.513  1.1041 -0.1439  0.3689
 5299TIP3   OH237455   3.035   2.432   2.428 -0.0457  0.2694  0.0550
 5299TIP3    H137456   3.021   2.463   2.339  0.4999 -2.1994 -0.9708
 5299TIP3    H237457   3.027   2.511   2.482  0.6022  2.0397 -2.2403
 5300TIP3   OH237458   0.883   5.440   8.635  0.0013  0.2927  0.6146
 5300TIP3    H137459   0.901   5.348   8.619  2.2511  0.9225 -0.8263
 5300TIP3    H237460   0.913   5.455   8.725  2.5288  0.2437 -0.1603
 5301TIP3   OH237461   6.352   2.661   2.995  0.2570  0.1086  0.2705
 5301TIP3    H137462   6.409   2.675   3.071  0.1003 -0.7797  0.5597
 5301TIP3    H237463   6.357   2.567   2.978  0.3411  0.3072 -0.8672
 5302TIP3   OH237464   6.772   0.882   1.426 -0.4099 -0.3840 -0.1210
 5302TIP3    H137465   6.682   0.875   1.459 -0.2288 -1.1450  0.2360
 5302TIP3    H237466   6.787   0.799   1.381  0.6115 -0.8868  1.0967
 5303TIP3   OH237467   1.122   2.273   7.816  0.2259 -0.4379 -0.3975
 5303TIP3    H137468   1.116   2.315   7.730  4.0788  0.0697 -0.6071
 5303TIP3    H237469   1.167   2.190   7.799 -1.9028 -1.9411  0.8110
 5304TIP3   OH237470   3.551   1.865   1.317  0.2475  0.3974 -0.7180
 5304TIP3    H137471   3.532   1.802   1.247 -0.0487 -0.5820  0.2196
 5304TIP3    H237472   3.567   1.948   1.271 -1.3857  0.1306 -1.8695
 5305TIP3   OH237473   5.969   1.436   8.007  0.7731 -0.1018 -0.2132
 5305TIP3    H137474   5.959   1.500   7.937  0.8451  1.9017  1.4918
 5305TIP3    H237475   6.063   1.435   8.025  0.5576  0.9681  1.1556
 5306TIP3   OH237476   2.634   5.337   0.556  0.5555 -0.1192  0.7059
 5306TIP3    H137477   2.577   5.302   0.625  1.6143 -0.3218  1.4886
 5306TIP3    H237478   2.594   5.420   0.532 -0.3438 -0.4842  0.8941
 5307TIP3   OH237479   6.340   5.802   2.018  0.2708  0.6170 -0.0255
 5307TIP3    H137480   6.246   5.784   2.024  0.4629 -0.0120  1.5054
 5307TIP3    H237481   6.380   5.715   2.009  0.6970  0.9111 -1.1775
 5308TIP3   OH237482   0.260   1.792   8.338 -0.6130 -0.2710  0.1189
 5308TIP3    H137483   0.249   1.754   8.425 -2.2538  1.7382  0.8818
 5308TIP3    H237484   0.342   1.842   8.343 -0.0020 -1.2508  0.0533
 5309TIP3   OH237485   1.363   5.353   2.185 -0.1532 -0.1826  0.0274
 5309TIP3    H137486   1.345   5.262   2.160 -0.3438  0.3270 -1.8140
 5309TIP3    H237487   1.335   5.405   2.110  0.3786  1.3780  0.8627
 5310TIP3   OH237488   5.938   0.481   1.269  0.1870 -0.7057  0.5220
 5310TIP3    H137489   6.010   0.423   1.245  0.9096  0.3310  0.0729
 5310TIP3    H237490   5.906   0.516   1.186 -0.3341 -0.5863  0.7696
 5311TIP3   OH237491   1.875   4.402   8.333 -0.1897 -0.5460 -0.2330
 5311TIP3    H137492   1.887   4.324   8.387  0.0609 -1.3520 -1.4254
 5311TIP3    H237493   1.781   4.402   8.313  0.0609 -1.5108 -1.5960
 5312TIP3   OH237494   0.981   4.258   0.154 -0.3473 -0.4032  0.0685
 5312TIP3    H137495   1.045   4.201   0.196  0.3805 -0.1469 -0.6528
 5312TIP3    H237496   0.937   4.303   0.226  0.3873 -0.4870  0.5779
 5313TIP3   OH237497   2.954   2.151   1.958 -0.0652 -0.1599  0.2121
 5313TIP3    H137498   2.940   2.122   2.048 -2.8470  2.3551  0.7151
 5313TIP3    H237499   2.868   2.147   1.917  0.7578  0.6543 -1.7420
 5314TIP3   OH237500   5.547   5.824   2.598 -0.0085 -0.0714 -0.2772
 5314TIP3    H137501   5.545   5.810   2.503  0.8822  0.4724 -0.3872
 5314TIP3    H237502   5.455   5.832   2.623 -0.3808 -2.1234 -0.7901
 5315TIP3   OH237503   6.322   5.620   0.878 -0.6021 -0.3866 -0.6414
 5315TIP3    H137504   6.238   5.664   0.888  0.0739  1.2092 -1.5983
 5315TIP3    H237505   6.370   5.638   0.959 -0.7209 -0.2728 -0.5978
 5316TIP3   OH237506   5.557   0.553   1.565  0.0510  0.0148 -0.4848
 5316TIP3    H137507   5.630   0.586   1.514 -1.1469  2.0272 -1.0004
 5316TIP3    H237508   5.577   0.578   1.655  1.4805 -2.2951 -0.0714
 5317TIP3   OH237509   2.159   0.517   1.290  0.2291  0.3557  0.2379
 5317TIP3    H137510   2.198   0.495   1.206 -1.1232 -0.8290 -0.1271
 5317TIP3    H237511   2.226   0.494   1.354  1.2115  1.1074 -0.4879
 5318TIP3   OH237512   2.138   3.089   7.627 -0.0894  0.3449  0.3690
 5318TIP3    H137513   2.171   2.999   7.621 -2.2484 -0.5162  0.4949
 5318TIP3    H237514   2.084   3.089   7.705  0.4364  1.9810  0.7626
 5319TIP3   OH237515   2.582   2.348   1.919  1.0479  0.0745  0.2331
 5319TIP3    H137516   2.661   2.396   1.943  0.4847  1.1668 -0.0420
 5319TIP3    H237517   2.510   2.408   1.940  0.3594 -0.3996 -0.7025
 5320TIP3   OH237518   2.278   5.802   0.852  0.0061 -0.1261 -0.7205
 5320TIP3    H137519   2.349   5.775   0.911 -1.0101 -1.1366  0.1118
 5320TIP3    H237520   2.200   5.802   0.908 -0.7509  0.3263 -1.7491
 5321TIP3   OH237521   6.684   6.069   0.964  0.2441  0.1715  0.0712
 5321TIP3    H137522   6.711   6.127   1.035  1.4171 -0.3156  0.0324
 5321TIP3    H237523   6.593   6.045   0.986 -0.9485  3.3859 -0.8349
 5322TIP3   OH237524   1.988   2.423   7.991 -0.1468 -1.1069 -0.0406
 5322TIP3    H137525   1.931   2.409   7.915  0.4543 -1.9626 -0.3566
 5322TIP3    H237526   2.077   2.421   7.954  0.3201 -4.0741  0.9557
 5323TIP3   OH237527   3.129   5.056   7.865  0.6462 -0.4506 -0.3016
 5323TIP3    H137528   3.123   4.972   7.912  0.2315  0.4068  1.2492
 5323TIP3    H237529   3.054   5.055   7.805 -0.3644 -0.5344  0.8964
 5324TIP3   OH237530   4.926   4.537   0.792 -0.2693  0.2185 -0.0836
 5324TIP3    H137531   4.890   4.614   0.838  0.1659 -0.2416  1.0763
 5324TIP3    H237532   5.008   4.568   0.754  0.5983  0.0449  1.5199
 5325TIP3   OH237533   3.756   2.174   1.480  0.6025 -0.5258  0.6125
 5325TIP3    H137534   3.833   2.187   1.424  0.5901 -0.5939  0.5797
 5325TIP3    H237535   3.717   2.262   1.489 -0.1648 -0.7251 -0.5850
 5326TIP3   OH237536   2.171   3.849   1.324 -0.6342 -0.5363 -0.6496
 5326TIP3    H137537   2.207   3.933   1.293 -0.0108 -0.1756  0.9116
 5326TIP3    H237538   2.148   3.866   1.416 -1.4043 -1.8193 -0.5875
 5327TIP3   OH237539   6.621   3.251   1.370  0.2438  0.2110 -0.0897
 5327TIP3    H137540   6.652   3.269   1.281  0.7424  0.5561  0.1476
 5327TIP3    H237541   6.580   3.165   1.364 -0.1745  0.4502 -0.7612
 5328TIP3   OH237542   1.310   0.647   8.505 -0.0407 -0.0568 -0.2176
 5328TIP3    H137543   1.377   0.713   8.492  1.1169 -0.8808  1.2301
 5328TIP3    H237544   1.304   0.602   8.421  2.4913 -1.0705  0.0605
 5329TIP3   OH237545   4.188   5.029   1.695  0.1885 -0.0539 -0.1817
 5329TIP3    H137546   4.209   5.023   1.602  0.6506  0.1239 -0.0916
 5329TIP3    H237547   4.104   5.075   1.698 -1.4935 -2.8443 -0.6790
 5330TIP3   OH237548   6.285   1.593   3.552 -0.1547  0.0828 -0.1410
 5330TIP3    H137549   6.306   1.501   3.539 -0.3183 -0.1670  1.2342
 5330TIP3    H237550   6.224   1.615   3.481 -0.1153 -0.8697 -0.4704
 5331TIP3   OH237551   3.208   5.935   8.388  0.8061  0.1524  0.4712
 5331TIP3    H137552   3.277   5.920   8.452  0.6665  0.2988  0.6585
 5331TIP3    H237553   3.137   5.878   8.416  1.4354 -1.2380 -0.6623
 5332TIP3   OH237554   4.539   6.133   0.233 -0.1504  0.1765  0.2878
 5332TIP3    H137555   4.585   6.181   0.163 -0.5158  1.5335  0.9537
 5332TIP3    H237556   4.450   6.121   0.200 -0.7095  2.0316  1.0539
 5333TIP3   OH237557   1.598   6.029   0.430 -0.2167 -0.2176 -0.1094
 5333TIP3    H137558   1.570   5.943   0.398  1.3854 -0.8295  0.0574
 5333TIP3    H237559   1.569   6.031   0.521 -2.8680  0.6601 -0.8661
 5334TIP3   OH237560   6.546   5.253   0.028  0.4535  0.0301  0.1472
 5334TIP3    H137561   6.576   5.343   0.038  0.0373  0.0732  1.0722
 5334TIP3    H237562   6.559   5.234  -0.065  0.5094  1.0533 -0.0684
 5335TIP3   OH237563   1.876   2.021   2.533 -0.2684  0.2396  0.6235
 5335TIP3    H137564   1.950   2.081   2.520 -0.6616  1.0523  1.9750
 5335TIP3    H237565   1.884   1.958   2.461  1.1243  0.9269  0.1321
 5336TIP3   OH237566   1.925   2.721   0.778  0.7795  0.2615 -0.2521
 5336TIP3    H137567   1.862   2.784   0.745  0.6581  0.5243  0.4622
 5336TIP3    H237568   1.933   2.656   0.708 -0.7204 -0.0931 -0.1157
 5337TIP3   OH237569   5.790   6.589   1.177 -0.1451  0.5471  0.2158
 5337TIP3    H137570   5.869   6.618   1.132  0.1930 -1.0434 -0.2641
 5337TIP3    H237571   5.720   6.604   1.114  0.0027  0.5159  0.0419
 5338TIP3   OH237572   4.145   2.687   2.322 -0.0844  0.0981 -0.2750
 5338TIP3    H137573   4.240   2.697   2.311 -0.1785  0.2413 -0.9834
 5338TIP3    H237574   4.108   2.767   2.285 -0.4449  0.4319  0.7800
 5339TIP3   OH237575   4.572   1.408   0.627  0.3866  0.0436 -0.2244
 5339TIP3    H137576   4.527   1.351   0.566  2.0340 -0.5220 -0.9658
 5339TIP3    H237577   4.546   1.377   0.714  0.8131 -1.4920 -0.6265
 5340TIP3   OH237578   4.961   0.858   2.757  0.1036 -0.1320 -0.1555
 5340TIP3    H137579   5.004   0.871   2.672  0.6365 -1.4203 -0.1100
 5340TIP3    H237580   5.029   0.821   2.812 -0.9948 -2.1395 -0.0475
 5341TIP3   OH237581   5.679   6.211   0.553  0.4382  0.4492 -0.6936
 5341TIP3    H137582   5.597   6.213   0.602  1.3612  0.7765  0.9175
 5341TIP3    H237583   5.715   6.124   0.570  0.5362  0.3828 -1.2245
 5342TIP3   OH237584   0.888   5.882   8.460  0.2861  0.2321  0.1566
 5342TIP3    H137585   0.893   5.795   8.421  1.1832 -0.0958  0.9733
 5342TIP3    H237586   0.861   5.939   8.387 -2.1624 -0.9776  0.0335
 5343TIP3   OH237587   5.785   3.858   3.038 -0.4256  0.1939 -0.3948
 5343TIP3    H137588   5.771   3.786   3.100  0.7811  0.9330  0.8125
 5343TIP3    H237589   5.740   3.932   3.077 -0.6362  0.3957 -1.0122
 5344TIP3   OH237590   4.310   5.685   0.841 -0.3500  0.1324  0.2049
 5344TIP3    H137591   4.226   5.689   0.887  0.0892  0.8586  0.9848
 5344TIP3    H237592   4.297   5.734   0.761  0.3014  3.6142  2.0213
 5345TIP3   OH237593   0.944   5.963   1.211 -0.5836  0.4864 -0.0904
 5345TIP3    H137594   0.896   5.952   1.293 -0.9500  2.3737 -0.0147
 5345TIP3    H237595   0.975   6.053   1.214 -2.8034  1.5092 -3.1446
 5346TIP3   OH237596   4.376   3.219   1.125 -0.0128  0.1523 -0.1675
 5346TIP3    H137597   4.373   3.205   1.030  0.2112  1.9382 -0.4708
 5346TIP3    H237598   4.449   3.280   1.138 -0.4446  0.4319  1.0821
 5347TIP3   OH237599   4.451   2.581   8.447 -0.5114  0.0261 -0.0951
 5347TIP3    H137600   4.386   2.581   8.376  0.8196 -0.7492 -1.3850
 5347TIP3    H237601   4.534   2.566   8.402  0.7261  2.0677  1.3852
 5348TIP3   OH237602   5.851   2.229   0.888  0.1846  0.4040 -0.1761
 5348TIP3    H137603   5.945   2.224   0.905  0.3226  0.8258 -0.7927
 5348TIP3    H237604   5.811   2.184   0.962  0.9389 -1.0940 -0.6349
 5349TIP3   OH237605   1.501   6.230   1.368  0.1199  0.1969 -0.0906
 5349TIP3    H137606   1.545   6.146   1.383  2.6378  1.2312 -1.2042
 5349TIP3    H237607   1.430   6.209   1.308  0.8140 -1.1352 -0.4945
 5350TIP3   OH237608   4.461   0.927   8.608 -0.6456  0.1644  0.1083
 5350TIP3    H137609   4.431   0.970   8.687  1.7787  0.2829  1.0527
 5350TIP3    H237610   4.534   0.871   8.637 -0.0622 -0.2315 -1.9365
 5351TIP3   OH237611   4.586   1.307   1.827  0.5511 -0.2924 -0.6534
 5351TIP3    H137612   4.548   1.255   1.898 -0.7719  0.5299 -0.7161
 5351TIP3    H237613   4.518   1.308   1.760  0.8718  0.8362 -0.9848
 5352TIP3   OH237614   5.315   6.175   3.286  0.6276 -0.1655  0.5858
 5352TIP3    H137615   5.244   6.199   3.346 -0.6968  1.7505 -1.5502
 5352TIP3    H237616   5.341   6.087   3.313 -1.5957 -0.3760  2.3746
 5353TIP3   OH237617   5.342   1.358   8.705  0.4113  0.1900  0.2736
 5353TIP3    H137618   5.395   1.425   8.662  1.8249  0.1255  1.8113
 5353TIP3    H237619   5.328   1.292   8.637 -1.2653  2.1010 -1.3567
 5354TIP3   OH237620   2.805   5.784   0.114 -0.6141  0.0356 -0.0534
 5354TIP3    H137621   2.851   5.767   0.196  0.2616  0.2152 -0.4914
 5354TIP3    H237622   2.868   5.835   0.062 -0.8932 -0.6740 -1.1065
 5355TIP3   OH237623   1.556   6.401   0.609  0.2743 -0.4175  0.0932
 5355TIP3    H137624   1.616   6.418   0.682  0.7301 -0.7588 -0.1908
 5355TIP3    H237625   1.613   6.402   0.531 -0.4428  1.5714 -0.4566
 5356TIP3   OH237626   1.269   3.520   1.452 -0.4108 -0.7926  0.4348
 5356TIP3    H137627   1.304   3.436   1.481  1.6824 -0.0307  0.3088
 5356TIP3    H237628   1.345   3.578   1.450 -1.9972  1.5002  1.8206
 5357TIP3   OH237629   4.940   0.820   2.137  0.3920 -0.2735  0.3339
 5357TIP3    H137630   4.856   0.849   2.174  1.3400 -0.2635  2.6123
 5357TIP3    H237631   4.916   0.749   2.077 -1.2275 -0.4056  1.0783
 5358TIP3   OH237632   5.681   4.037   1.208 -0.3845  0.2943  0.2766
 5358TIP3    H137633   5.731   3.984   1.146 -0.1354 -1.1021  1.6004
 5358TIP3    H237634   5.697   4.127   1.180  0.8689 -0.2274 -0.8247
 5359TIP3   OH237635   2.375   2.710   2.559  0.0019 -0.6052 -0.5169
 5359TIP3    H137636   2.393   2.634   2.616  0.0060 -0.3368 -0.1569
 5359TIP3    H237637   2.451   2.714   2.501  0.6822 -0.0407  0.3861
 5360TIP3   OH237638   1.956   6.021   2.736  0.1648  0.0922 -0.2398
 5360TIP3    H137639   1.942   6.051   2.825  0.1613 -0.7608  0.0634
 5360TIP3    H237640   2.032   6.070   2.705 -1.7656  2.8486 -0.9779
 5361TIP3   OH237641   3.187   1.748   1.326  0.3872 -0.9881 -0.1166
 5361TIP3    H137642   3.142   1.811   1.269 -0.5673 -0.7996  0.7940
 5361TIP3    H237643   3.218   1.801   1.400  0.2264 -1.4590  0.2954
 5362TIP3   OH237644   0.786   2.286   8.682 -0.5180 -0.3012  0.0194
 5362TIP3    H137645   0.765   2.250   8.768 -3.1042 -3.3229 -1.6555
 5362TIP3    H237646   0.863   2.238   8.653  0.8021  1.2301  0.8252
 5363TIP3   OH237647   4.328   0.610   1.141 -0.5557  0.0695  0.8235
 5363TIP3    H137648   4.293   0.554   1.210  1.0426 -0.5712  1.1497
 5363TIP3    H237649   4.339   0.696   1.183  0.3319 -0.2965  1.3723
 5364TIP3   OH237650   6.744   3.928   0.059  0.4436  0.1341 -0.1269
 5364TIP3    H137651   6.667   3.930   0.002  0.4321  0.8432 -0.1012
 5364TIP3    H237652   6.818   3.921  -0.000  0.4389  0.9834 -0.2552
 5365TIP3   OH237653   4.508   1.990   3.643 -0.3878  0.5000  0.1242
 5365TIP3    H137654   4.473   1.967   3.730  0.0828  3.6115  1.2716
 5365TIP3    H237655   4.600   1.966   3.648 -0.7849 -1.2402 -0.3305
 5366TIP3   OH237656   5.361   0.623   8.730 -0.3824 -0.6680  0.0067
 5366TIP3    H137657   5.369   0.576   8.814 -1.8682 -1.8949 -0.4949
 5366TIP3    H237658   5.269   0.648   8.726 -0.1513  0.0393 -0.9262
 5367TIP3   OH237659   1.952   2.552   3.138 -0.4018 -0.0305 -0.0385
 5367TIP3    H137660   1.900   2.582   3.064  1.2670  2.0974 -0.4563
 5367TIP3    H237661   1.952   2.625   3.200  1.5570 -0.1400  0.1837
 5368TIP3   OH237662   0.503   2.628   2.638 -0.0200  0.5236  0.3373
 5368TIP3    H137663   0.573   2.592   2.693  0.6311  1.3359  0.0569
 5368TIP3    H237664   0.447   2.676   2.699  1.3127  2.3672  0.1825
 5369TIP3   OH237665   0.123   4.119   0.238  0.5605 -0.2459  0.3100
 5369TIP3    H137666   0.102   4.145   0.149  1.3649 -1.1819 -0.1769
 5369TIP3    H237667   0.167   4.195   0.276  0.9164 -0.1208 -0.3456
 5370TIP3   OH237668   4.194   4.169   8.414  0.1522 -0.1474  0.4235
 5370TIP3    H137669   4.160   4.174   8.503 -0.5105 -1.5152  0.2867
 5370TIP3    H237670   4.167   4.250   8.373 -0.8691 -0.1583  1.0394
 5371TIP3   OH237671   4.094   1.590   2.576 -0.4474 -0.2025  0.2804
 5371TIP3    H137672   4.048   1.653   2.631  0.1095  0.4632  0.0031
 5371TIP3    H237673   4.171   1.564   2.627 -0.8180 -0.8830  0.5094
 5372TIP3   OH237674   4.350   1.584   0.825 -0.0212 -0.0407 -0.3887
 5372TIP3    H137675   4.284   1.571   0.892  0.0613  1.7707  0.1207
 5372TIP3    H237676   4.326   1.524   0.754 -1.2277 -0.5975  0.4646
 5373TIP3   OH237677   5.004   4.006   8.196 -0.2529 -0.3471 -0.0895
 5373TIP3    H137678   5.010   4.093   8.236  1.0926  0.1498 -1.2971
 5373TIP3    H237679   4.934   3.962   8.245  0.8432  0.4400  2.3700
 5374TIP3   OH237680   6.086   5.604   2.576 -0.6383  0.2331  0.1863
 5374TIP3    H137681   6.035   5.551   2.515 -1.0253  1.4097 -0.5374
 5374TIP3    H237682   6.116   5.679   2.525  0.6162  0.3040  0.9694
 5375TIP3   OH237683   5.014   6.500   1.766  0.1315  0.5431  0.4528
 5375TIP3    H137684   4.997   6.593   1.774  2.2613  1.0834 -0.5765
 5375TIP3    H237685   4.946   6.468   1.707 -1.3472  1.1669  1.7691
 5376TIP3   OH237686   5.762   2.966   0.808 -0.1271  0.0103  0.3081
 5376TIP3    H137687   5.740   2.971   0.715  0.9167 -0.5460  0.0153
 5376TIP3    H237688   5.693   2.912   0.847  1.5205 -3.1458 -0.8881
 5377TIP3   OH237689   2.994   2.180   3.053 -0.4377 -0.2572 -0.0626
 5377TIP3    H137690   3.089   2.167   3.061 -0.3740 -0.6479 -1.2184
 5377TIP3    H237691   2.977   2.265   3.093  0.2781 -0.5492  0.8875
 5378TIP3   OH237692   1.389   1.331   0.049 -0.0784 -0.4657  0.4659
 5378TIP3    H137693   1.295   1.334   0.067 -0.3600 -0.1375 -0.9072
 5378TIP3    H237694   1.417   1.422   0.057 -0.2188 -0.3058 -0.6788
 5379TIP3   OH237695   2.978   3.606   1.300  0.0183 -0.1626  0.6710
 5379TIP3    H137696   2.894   3.577   1.335  0.4210 -0.8198  1.1226
 5379TIP3    H237697   3.038   3.534   1.320  0.2542 -0.6396 -1.5003
 5380TIP3   OH237698   1.532   2.288   7.740 -0.2937  0.2276  0.5916
 5380TIP3    H137699   1.508   2.211   7.791 -0.2033 -0.1578  0.0707
 5380TIP3    H237700   1.523   2.259   7.649 -1.2533  1.1368  0.3733
 5381TIP3   OH237701   3.086   5.783   2.378  0.1131 -0.1101  0.4699
 5381TIP3    H137702   3.135   5.757   2.300  0.6965  0.1223  0.7468
 5381TIP3    H237703   3.124   5.730   2.448 -0.9523 -0.8986  0.4611
 5382TIP3   OH237704   4.456   3.007   2.890  0.0141 -0.0408 -0.1628
 5382TIP3    H137705   4.495   3.040   2.971  1.3127 -0.4924 -0.5828
 5382TIP3    H237706   4.498   2.923   2.875 -1.1159 -0.5419 -0.6747
 5383TIP3   OH237707   4.942   4.627   8.172 -0.4938  0.0856 -0.5047
 5383TIP3    H137708   4.880   4.563   8.137 -0.0811  0.5618 -2.1821
 5383TIP3    H237709   4.915   4.711   8.135 -0.5296  0.7846  1.0138
 5384TIP3   OH237710   0.858   4.686   0.878 -0.1075  0.4145 -0.2892
 5384TIP3    H137711   0.916   4.749   0.920 -0.6220  1.5567 -1.2329
 5384TIP3    H237712   0.916   4.613   0.854  0.6660  0.9089  0.0421
 5385TIP3   OH237713   0.876   4.462   0.316  0.0781  0.2115 -0.3255
 5385TIP3    H137714   0.881   4.451   0.411  1.3297 -1.2301 -0.5242
 5385TIP3    H237715   0.916   4.548   0.300  2.1584 -0.5740  0.2831
 5386TIP3   OH237716   5.461   0.154   8.372  0.2778  0.0454  0.1612
 5386TIP3    H137717   5.461   0.191   8.460  2.4088  0.1893  0.1665
 5386TIP3    H237718   5.386   0.193   8.328 -1.0400 -0.3050  2.0010
 5387TIP3   OH237719   1.406   0.926   8.168 -0.6304  0.3975  0.2371
 5387TIP3    H137720   1.394   0.857   8.102  0.4542 -1.5634  1.9729
 5387TIP3    H237721   1.389   1.007   8.120 -0.4171 -0.9387 -2.3301
 5388TIP3   OH237722   5.349   5.501   7.522  0.2137  0.0096 -0.0699
 5388TIP3    H137723   5.327   5.455   7.603 -0.7064 -1.4599 -1.1208
 5388TIP3    H237724   5.435   5.467   7.498  0.3866  0.2792  0.1587
 5389TIP3   OH237725   3.118   0.312   1.638  0.8098 -0.3454 -0.1638
 5389TIP3    H137726   3.202   0.296   1.596  0.7231 -1.0718 -0.0772
 5389TIP3    H237727   3.089   0.225   1.666  0.6493  0.0651  0.9769
 5390TIP3   OH237728   1.659   1.984   1.826  0.3752 -0.2104 -0.2800
 5390TIP3    H137729   1.673   1.999   1.733  0.3743 -0.8398 -0.3860
 5390TIP3    H237730   1.745   2.001   1.866  0.3278  0.2523 -0.3623
 5391TIP3   OH237731   2.861   0.809   8.094 -0.2084  0.2961 -0.0753
 5391TIP3    H137732   2.850   0.718   8.066  0.5721  0.4387 -0.9038
 5391TIP3    H237733   2.933   0.806   8.157 -2.4967 -0.1462  2.7063
 5392TIP3   OH237734   4.772   0.507   0.291 -0.8824  0.5178  0.4433
 5392TIP3    H137735   4.710   0.437   0.312 -0.8678  0.7531  1.2947
 5392TIP3    H237736   4.777   0.506   0.195 -1.1669 -0.3950  0.4246
 5393TIP3   OH237737   4.883   3.132   7.481  0.3948 -0.0221 -0.5415
 5393TIP3    H137738   4.833   3.070   7.427  0.8395 -1.3563  0.5295
 5393TIP3    H237739   4.973   3.122   7.452  0.8416 -1.6889  1.2361
 5394TIP3   OH237740   3.056   6.343   8.704  0.4793  0.1453 -0.4162
 5394TIP3    H137741   3.078   6.316   8.615  3.2077 -3.0040  1.0163
 5394TIP3    H237742   3.052   6.438   8.700  2.0447  0.1907 -3.5744
 5395TIP3   OH237743   3.989   5.560   7.987 -0.1134  0.1343 -0.2325
 5395TIP3    H137744   4.000   5.553   7.892  0.0343  1.0405 -0.2885
 5395TIP3    H237745   4.025   5.645   8.009  1.4723 -0.7859  0.8903
 5396TIP3   OH237746   1.075   3.727   1.824 -0.1814 -0.5766 -0.2294
 5396TIP3    H137747   1.052   3.820   1.818  0.3815 -0.2190  2.2362
 5396TIP3    H237748   1.142   3.723   1.892 -0.7091 -2.8903  0.2383
 5397TIP3   OH237749   4.174   1.667   2.287 -0.0195  0.1270  0.4048
 5397TIP3    H137750   4.177   1.628   2.374 -0.4239 -2.4590 -0.6490
 5397TIP3    H237751   4.088   1.709   2.282 -0.9559 -1.6921  0.5163
 5398TIP3   OH237752   3.984   4.503   3.402  0.6520  0.0000 -0.3975
 5398TIP3    H137753   3.999   4.592   3.370  0.9641  0.5146  1.0990
 5398TIP3    H237754   3.924   4.514   3.476  0.3280 -1.0844 -0.4834
 5399TIP3   OH237755   0.760   2.338   7.189  0.1045  0.1034 -0.4073
 5399TIP3    H137756   0.688   2.356   7.250  0.4915 -0.8007  0.3444
 5399TIP3    H237757   0.736   2.385   7.109 -0.5123  1.1658  0.3676
 5400TIP3   OH237758   5.620   1.862   7.087  0.3621 -0.1741  0.2649
 5400TIP3    H137759   5.690   1.926   7.094  1.0220 -0.5791 -1.9566
 5400TIP3    H237760   5.659   1.787   7.041 -1.6081 -0.1919 -1.5594
 5401TIP3   OH237761   4.488   5.381   0.519  0.1401 -0.0522  0.5499
 5401TIP3    H137762   4.438   5.300   0.506 -0.6605  0.1537  2.1131
 5401TIP3    H237763   4.569   5.353   0.560  0.3230 -0.1563  0.1246
 5402TIP3   OH237764   5.419   2.670   8.070 -0.5451 -0.1819 -0.1509
 5402TIP3    H137765   5.503   2.660   8.025 -1.6515 -0.6634 -2.2402
 5402TIP3    H237766   5.439   2.652   8.162  1.8607  0.9942 -0.3641
 5403TIP3   OH237767   5.632   0.212   1.048  0.1547 -0.1184  0.2761
 5403TIP3    H137768   5.624   0.289   0.993  0.4756 -0.9389 -0.9634
 5403TIP3    H237769   5.545   0.202   1.089 -0.6058 -0.3784 -1.3183
 5404TIP3   OH237770   6.196   3.636   0.831  0.2402  0.5762 -0.0839
 5404TIP3    H137771   6.291   3.633   0.843  0.5842 -0.3348 -2.5082
 5404TIP3    H237772   6.161   3.640   0.920  2.5352  0.9358  0.8753
 5405TIP3   OH237773   4.259   5.319   7.470  0.4361 -0.1768  0.1443
 5405TIP3    H137774   4.352   5.343   7.460  1.0928 -1.7463  1.8745
 5405TIP3    H237775   4.253   5.286   7.559 -1.8829  0.1031  0.1438
 5406TIP3   OH237776   0.206   3.290   8.061 -0.0378  0.2279  0.0073
 5406TIP3    H137777   0.191   3.380   8.090  0.2144  0.5887 -0.9457
 5406TIP3    H237778   0.291   3.292   8.018  0.3885 -0.6728  0.7647
 5407TIP3   OH237779   0.755   2.446   7.835  0.5604 -0.1383  0.3242
 5407TIP3    H137780   0.787   2.401   7.757 -1.0806  0.9186 -1.0541
 5407TIP3    H237781   0.660   2.434   7.832  0.3932  0.5931  1.7415
 5408TIP3   OH237782   1.336   5.680   2.497  0.5944 -0.2189 -0.0266
 5408TIP3    H137783   1.266   5.701   2.436 -1.3943 -0.2949  2.0868
 5408TIP3    H237784   1.359   5.589   2.477 -1.4209 -0.9081  0.5614
 5409TIP3   OH237785   6.298   0.550   7.718  0.4071  0.3130  0.0838
 5409TIP3    H137786   6.388   0.549   7.752 -0.6007 -1.4614  3.1025
 5409TIP3    H237787   6.271   0.458   7.719 -1.6506  0.8684 -0.1429
 5410TIP3   OH237788   6.355   5.826   0.041 -0.2929 -0.2610 -0.1554
 5410TIP3    H137789   6.408   5.746   0.041 -1.2009 -0.8770 -0.3303
 5410TIP3    H237790   6.413   5.893   0.077 -0.0538 -1.3551  1.5700
 5411TIP3   OH237791   3.366   4.889   0.216 -0.1027 -0.2201 -0.0620
 5411TIP3    H137792   3.454   4.925   0.216  0.1772 -0.8366 -1.2806
 5411TIP3    H237793   3.360   4.839   0.298  0.4856  0.2545  0.2769
 5412TIP3   OH237794   5.198   5.778   7.164 -0.4124  0.4769  0.0333
 5412TIP3    H137795   5.223   5.870   7.149 -1.7662  0.6248 -1.5437
 5412TIP3    H237796   5.212   5.735   7.080 -2.1482 -0.1755  0.0445
 5413TIP3   OH237797   0.960   0.384   8.042 -0.0773 -0.2716  0.1250
 5413TIP3    H137798   0.899   0.386   7.967 -0.6806 -2.6225  0.4872
 5413TIP3    H237799   0.905   0.360   8.117  0.9102 -0.1208  0.9187
 5414TIP3   OH237800   2.278   0.748   0.535 -0.4022  0.3437 -0.1474
 5414TIP3    H137801   2.281   0.838   0.569  0.1822 -0.5067  2.2794
 5414TIP3    H237802   2.205   0.707   0.582 -0.6880 -0.4507 -1.2609
 5415TIP3   OH237803   5.793   2.244   2.331 -0.2426 -0.0087 -0.1099
 5415TIP3    H137804   5.754   2.219   2.248  0.3106 -0.3053 -0.2875
 5415TIP3    H237805   5.866   2.301   2.307  1.2132 -1.7367  0.0213
 5416TIP3   OH237806   0.818   5.455   2.670  0.0643  0.2372  0.0043
 5416TIP3    H137807   0.728   5.431   2.652  0.2647 -1.1479  0.7438
 5416TIP3    H237808   0.839   5.522   2.605 -0.7414 -1.1294 -1.7268
 5417TIP3   OH237809   4.298   5.563   8.056 -0.1599  0.5523 -0.5985
 5417TIP3    H137810   4.366   5.578   8.122 -0.2389 -0.8882 -0.1401
 5417TIP3    H237811   4.306   5.636   7.996 -0.0343  1.8781  0.9622
 5418TIP3   OH237812   4.744   0.749   8.075 -0.8942  0.2853  0.2617
 5418TIP3    H137813   4.833   0.719   8.092 -0.6188  1.1777  0.4800
 5418TIP3    H237814   4.711   0.691   8.007 -1.5746 -2.6170  2.8619
 5419TIP3   OH237815   6.686   5.450   8.191  0.1285  0.6616  0.2955
 5419TIP3    H137816   6.716   5.457   8.100 -0.9371 -1.1388 -0.2582
 5419TIP3    H237817   6.622   5.522   8.200  1.0305  1.5254 -0.0091
 5420TIP3   OH237818   1.276   2.254   0.239  0.3064  0.1459  0.2239
 5420TIP3    H137819   1.207   2.204   0.282 -0.3769  0.9370  0.0891
 5420TIP3    H237820   1.233   2.335   0.211  1.2627  0.6066  0.0244
 5421TIP3   OH237821   5.957   1.282   8.401 -0.0081 -0.1222 -0.5300
 5421TIP3    H137822   5.941   1.227   8.478  0.2343  0.7299  0.1410
 5421TIP3    H237823   5.921   1.368   8.425 -1.6092 -0.3064 -2.0643
 5422TIP3   OH237824   1.636   5.142   1.598 -0.4623 -0.2359 -0.1324
 5422TIP3    H137825   1.586   5.118   1.676  0.5301 -1.2937  0.2179
 5422TIP3    H237826   1.678   5.060   1.571  0.4129  0.4426 -0.8957
 5423TIP3   OH237827   1.326   6.570   0.557 -0.0666 -0.4712 -0.2848
 5423TIP3    H137828   1.265   6.509   0.515  0.2257 -0.9148 -0.0761
 5423TIP3    H237829   1.402   6.516   0.580 -0.4735 -0.3898  1.4034
 5424TIP3   OH237830   5.085   1.873   7.435 -0.6781  0.5924  0.0651
 5424TIP3    H137831   4.992   1.869   7.413 -0.9922 -1.0610  1.4978
 5424TIP3    H237832   5.130   1.847   7.355 -1.5060  0.2842 -0.3068
 5425TIP3   OH237833   2.952   3.943   0.557  0.3995 -0.1710  0.0449
 5425TIP3    H137834   3.041   3.971   0.534  0.4072  0.3317  0.6496
 5425TIP3    H237835   2.960   3.850   0.575  0.9133 -0.0309  0.5778
 5426TIP3   OH237836   0.162   1.976   0.324  0.0536  0.3199 -0.2085
 5426TIP3    H137837   0.195   2.054   0.280  0.2644  0.8274  0.8168
 5426TIP3    H237838   0.240   1.938   0.366 -0.2498  0.1848  0.2344
 5427TIP3   OH237839   0.337   0.050   0.340 -0.1209 -0.4004  0.0441
 5427TIP3    H137840   0.347   0.143   0.321  1.2995 -0.2600  1.3132
 5427TIP3    H237841   0.382   0.007   0.267 -1.5333 -0.1518 -1.0073
 5428TIP3   OH237842   5.708   2.834   0.298  0.4293 -0.1098  0.1343
 5428TIP3    H137843   5.727   2.858   0.388  2.2544  2.5137 -0.8383
 5428TIP3    H237844   5.650   2.904   0.267  0.3482 -0.6251 -0.9095
 5429TIP3   OH237845   1.130   1.139   0.099  0.7048  0.5837  0.1467
 5429TIP3    H137846   1.039   1.166   0.086  0.3687  0.3148  1.7412
 5429TIP3    H237847   1.172   1.214   0.140  0.7997  0.1561  0.8488
 5430TIP3   OH237848   3.475   5.373   3.079  0.2833 -0.6949  0.0173
 5430TIP3    H137849   3.471   5.279   3.059  0.5827 -0.7994  0.4374
 5430TIP3    H237850   3.553   5.382   3.134  1.9328  0.1985 -2.2793
 5431TIP3   OH237851   5.420   4.991   2.022 -0.6556 -0.0006 -0.4503
 5431TIP3    H137852   5.484   5.051   1.983 -0.2296 -0.5634 -0.6176
 5431TIP3    H237853   5.398   4.930   1.952 -1.6057  0.3531 -0.4890
 5432TIP3   OH237854   0.491   5.565   2.981 -0.3380 -0.8493 -0.2653
 5432TIP3    H137855   0.489   5.628   2.910  0.4109  0.6853  1.0047
 5432TIP3    H237856   0.456   5.612   3.057  0.8632 -1.7102  0.8818
 5433TIP3   OH237857   2.719   5.487   3.059  0.6244 -0.5685 -0.7526
 5433TIP3    H137858   2.766   5.547   3.001  0.8940  0.3734  0.3972
 5433TIP3    H237859   2.785   5.457   3.122 -0.0990  0.1118  0.3690
 5434TIP3   OH237860   0.578   2.731   1.584 -1.0025  0.2586 -0.7414
 5434TIP3    H137861   0.662   2.774   1.596 -0.6072 -0.9977  1.4722
 5434TIP3    H237862   0.559   2.742   1.491  0.9125  1.7797 -1.0230
 5435TIP3   OH237863   5.270   3.503   7.832  0.5509 -0.3269 -0.3008
 5435TIP3    H137864   5.364   3.501   7.813  0.5261 -2.0060 -0.4138
 5435TIP3    H237865   5.265   3.509   7.927  0.7380  1.1112 -0.3609
 5436TIP3   OH237866   3.353   0.064   8.699 -0.8659  0.0384 -0.2569
 5436TIP3    H137867   3.302  -0.004   8.654 -0.0565 -1.7224  1.3633
 5436TIP3    H237868   3.312   0.072   8.785 -0.8787  1.5694 -0.3742
 5437TIP3   OH237869   3.484   2.903   7.543  0.1203 -0.0260  0.5935
 5437TIP3    H137870   3.503   2.830   7.483 -0.9369 -1.1330  1.5552
 5437TIP3    H237871   3.496   2.982   7.489 -1.4896 -0.9934 -1.2931
 5438TIP3   OH237872   1.585   5.453   8.397 -0.5964 -0.2802  0.0671
 5438TIP3    H137873   1.584   5.532   8.344  0.8801  0.3505  0.9290
 5438TIP3    H237874   1.492   5.433   8.413 -0.9977  0.7516 -0.8989
 5439TIP3   OH237875   1.970   0.728   1.263 -0.2358  0.4154  0.0505
 5439TIP3    H137876   2.018   0.647   1.278 -0.5174  0.0924 -0.7688
 5439TIP3    H237877   1.915   0.710   1.187  0.7343  1.8182 -1.0357
 5440TIP3   OH237878   4.444   3.352   7.973  0.7656  0.2297  0.1544
 5440TIP3    H137879   4.462   3.281   8.035 -0.8625 -0.3607 -0.0020
 5440TIP3    H237880   4.517   3.349   7.911  0.4774 -1.6557 -0.1543
 5441TIP3   OH237881   6.099   2.361   8.595  0.7945 -0.0029  0.0148
 5441TIP3    H137882   6.007   2.348   8.572  0.1341  1.8124  1.3658
 5441TIP3    H237883   6.148   2.328   8.520 -0.8474 -2.7788  0.0219
 5442TIP3   OH237884   3.888   0.633   3.218  0.6323 -0.1778 -0.1501
 5442TIP3    H137885   3.919   0.561   3.163 -2.8974 -1.0938 -1.2052
 5442TIP3    H237886   3.916   0.611   3.306  1.9725 -1.4052 -0.8577
 5443TIP3   OH237887   5.852   2.911   1.355 -0.8301  0.2284 -0.1180
 5443TIP3    H137888   5.828   2.956   1.274 -3.0822 -2.6828 -1.2782
 5443TIP3    H237889   5.770   2.907   1.405 -0.2362 -0.7749  0.8234
 5444TIP3   OH237890   0.953   5.646   1.339  0.2236 -0.0475 -0.8843
 5444TIP3    H137891   0.939   5.730   1.382  1.6573 -0.3433  0.2413
 5444TIP3    H237892   0.914   5.656   1.252 -0.2732  1.5136 -0.5048
 5445TIP3   OH237893   6.178   4.451   0.844  0.3957  0.5254 -0.2254
 5445TIP3    H137894   6.269   4.421   0.834  0.4170  0.7985 -0.9149
 5445TIP3    H237895   6.128   4.372   0.861  0.4152  0.0398 -2.2584
 5446TIP3   OH237896   4.918   2.824   0.775  0.4090  0.1102  0.1619
 5446TIP3    H137897   4.841   2.795   0.728 -0.4771  3.0741 -0.4674
 5446TIP3    H237898   4.895   2.814   0.868 -1.1545  1.7215  0.0019
 5447TIP3   OH237899   0.046   1.044   0.526 -0.0155 -0.2506 -0.3679
 5447TIP3    H137900   0.066   1.082   0.611  1.8353 -0.4751 -0.6685
 5447TIP3    H237901  -0.048   1.059   0.515 -0.1324  0.5117  1.3345
 5448TIP3   OH237902   1.228   3.843   7.273 -0.4083  0.1566  0.2430
 5448TIP3    H137903   1.248   3.756   7.240 -2.4359 -0.9205  1.6283
 5448TIP3    H237904   1.136   3.856   7.252 -0.1217  2.0382 -0.0135
 5449TIP3   OH237905   6.147   4.967   7.879  0.1217 -0.2212 -0.0522
 5449TIP3    H137906   6.127   5.035   7.815  0.3008 -1.1252 -1.1202
 5449TIP3    H237907   6.171   4.891   7.825  1.2688 -0.7150  1.1062
 5450TIP3   OH237908   3.459   6.736   0.160 -0.0748 -0.0929  0.0823
 5450TIP3    H137909   3.437   6.750   0.068 -0.3714  0.3289  0.2142
 5450TIP3    H237910   3.542   6.689   0.158  0.9654  1.6750 -0.3933
 5451TIP3   OH237911   0.695   4.869   8.180  0.4281  0.2702 -0.0358
 5451TIP3    H137912   0.691   4.920   8.100 -1.5237 -0.1339 -0.2311
 5451TIP3    H237913   0.639   4.916   8.242 -0.1130 -0.7604  0.2779
 5452TIP3   OH237914   2.972   2.233   0.714  0.1520 -0.6143 -0.2413
 5452TIP3    H137915   2.877   2.246   0.706  0.1683 -1.1637 -1.5740
 5452TIP3    H237916   3.002   2.309   0.763 -0.9335 -0.2518 -0.0995
 5453TIP3   OH237917   4.962   1.499   1.895 -0.0923  0.2612 -0.1849
 5453TIP3    H137918   5.014   1.455   1.827  2.6164 -0.7266  2.3356
 5453TIP3    H237919   4.967   1.592   1.871  0.9484 -0.0312 -1.2660
 5454TIP3   OH237920   4.140   4.899   2.441  0.0549  0.0487  0.2778
 5454TIP3    H137921   4.088   4.980   2.448 -0.4982 -0.3619  0.9992
 5454TIP3    H237922   4.209   4.921   2.379  1.3261  1.8428  2.1749
 5455TIP3   OH237923   6.527   2.551   7.113 -0.1572 -0.1648  0.0716
 5455TIP3    H137924   6.622   2.547   7.123  0.0641  0.1685 -1.6309
 5455TIP3    H237925   6.494   2.485   7.174  1.2998 -1.9682 -0.9760
 5456TIP3   OH237926   1.803   2.069   8.079  0.0574 -0.3818 -0.2670
 5456TIP3    H137927   1.880   2.040   8.030  1.3231  0.0664  1.3741
 5456TIP3    H237928   1.818   2.038   8.168 -1.9572 -0.7641 -0.0004
 5457TIP3   OH237929   6.613   6.174   3.118 -0.0345  0.5464 -0.0347
 5457TIP3    H137930   6.547   6.105   3.121  1.0677 -0.7118 -2.4284
 5457TIP3    H237931   6.568   6.249   3.078 -0.5698  0.4160  0.3146
 5458TIP3   OH237932   3.089   1.956   2.796 -0.2720  0.5315  0.4302
 5458TIP3    H137933   3.101   2.047   2.770  0.4273  1.0245  2.3532
 5458TIP3    H237934   3.025   1.958   2.866 -0.6914 -0.5429  0.1058
 5459TIP3   OH237935   1.954   6.283   0.004  0.2494  0.0990 -0.5485
 5459TIP3    H137936   1.908   6.200   0.020  2.0032 -0.6527  0.9363
 5459TIP3    H237937   1.911   6.346   0.063 -0.0795 -0.1330 -0.5380
 5460TIP3   OH237938   5.215   4.078   1.955  0.0375  0.0559  0.0253
 5460TIP3    H137939   5.237   4.007   2.015 -0.6355 -0.6979 -0.5902
 5460TIP3    H237940   5.299   4.117   1.932  0.6244 -1.6918 -0.9844
 5461TIP3   OH237941   4.971   2.542   0.024 -0.3021 -0.5145  0.2504
 5461TIP3    H137942   5.066   2.539   0.009 -0.4197 -0.4475 -0.5429
 5461TIP3    H237943   4.957   2.624   0.071 -0.1062  0.1713 -0.8294
 5462TIP3   OH237944   3.455   2.622   3.288 -0.5687  0.0024  0.5076
 5462TIP3    H137945   3.549   2.630   3.276 -0.5921 -0.4668 -0.0187
 5462TIP3    H237946   3.418   2.698   3.244 -0.4010  0.6046  1.3749
 5463TIP3   OH237947   2.916   6.819   1.038  0.3562  0.1851 -0.7392
 5463TIP3    H137948   2.988   6.870   1.076  0.2630 -0.4974  0.4189
 5463TIP3    H237949   2.942   6.804   0.948  0.8672  1.3983 -0.8142
 5464TIP3   OH237950   0.580   2.231   1.554  0.3925  0.3244  0.0725
 5464TIP3    H137951   0.503   2.191   1.512  1.3379  0.2946 -1.7299
 5464TIP3    H237952   0.544   2.305   1.604 -0.7520  0.8214 -1.4171
 5465TIP3   OH237953   4.450   6.743   1.361 -0.4704  0.4491  0.0705
 5465TIP3    H137954   4.360   6.722   1.336 -0.0339  0.6409 -1.8195
 5465TIP3    H237955   4.453   6.838   1.365 -0.8165  0.4207  2.1687
 5466TIP3   OH237956   6.023   0.176   2.207 -0.1057 -0.0086  0.0560
 5466TIP3    H137957   6.102   0.208   2.164 -0.2394  1.1070  0.6053
 5466TIP3    H237958   6.035   0.197   2.299 -0.7275 -0.4794  0.2490
 5467TIP3   OH237959   3.728   6.505   2.082 -0.3920  0.2947  0.4490
 5467TIP3    H137960   3.719   6.410   2.085  1.0124 -0.0398 -2.6568
 5467TIP3    H237961   3.641   6.536   2.056 -0.0344 -0.4672 -1.7989
 5468TIP3   OH237962   6.445   0.571   8.406  0.0489  0.1903 -0.3279
 5468TIP3    H137963   6.488   0.595   8.325  0.6014  0.5455  0.0633
 5468TIP3    H237964   6.503   0.603   8.475 -0.0247 -0.7741  0.2095
 5469TIP3   OH237965   1.421   3.706   1.150  0.5113  0.1040 -0.1682
 5469TIP3    H137966   1.472   3.688   1.229  0.0068  0.7562  0.3105
 5469TIP3    H237967   1.396   3.620   1.117  2.5954 -0.2944 -0.8766
 5470TIP3   OH237968   6.698   6.202   0.044 -0.2375  0.0625  0.2198
 5470TIP3    H137969   6.677   6.150  -0.034  1.3957  0.9258 -0.8583
 5470TIP3    H237970   6.686   6.292   0.016  0.8208  0.4059  0.7963
 5471TIP3   OH237971   0.579   1.460   0.700 -0.6789 -0.2438 -0.0317
 5471TIP3    H137972   0.660   1.509   0.686  0.6771 -2.6835 -1.4548
 5471TIP3    H237973   0.557   1.425   0.613 -0.0999 -4.1327  1.2053
 5472TIP3   OH237974   4.117   3.358   7.435  0.1449  0.3378 -0.5404
 5472TIP3    H137975   4.200   3.355   7.483  1.0365  0.6395 -2.0103
 5472TIP3    H237976   4.126   3.433   7.376 -0.9814  0.0822 -1.0610
 5473TIP3   OH237977   6.239   5.018   2.498  0.2118  0.1296 -0.2509
 5473TIP3    H137978   6.194   5.100   2.518  0.1342 -0.2295  1.0883
 5473TIP3    H237979   6.243   4.971   2.581  0.8227 -0.9541 -0.8689
 5474TIP3   OH237980   6.309   5.876   0.502  0.7687  0.3749 -0.0788
 5474TIP3    H137981   6.289   5.918   0.418 -2.4210 -0.1066  0.2955
 5474TIP3    H237982   6.374   5.932   0.543  0.5376  2.0060 -1.8171
 5475TIP3   OH237983   5.284   3.786   0.966 -0.1579  0.3413 -0.2504
 5475TIP3    H137984   5.347   3.840   0.918  0.8227 -0.6653 -0.1338
 5475TIP3    H237985   5.337   3.723   1.014 -1.1996  0.3611  0.9926
 5476TIP3   OH237986   2.987   4.066   8.190 -0.0881  0.8398 -1.1279
 5476TIP3    H137987   2.898   4.058   8.157 -0.1053 -2.4342 -0.6758
 5476TIP3    H237988   3.038   4.096   8.114 -1.4811  2.5412 -1.4500
 5477TIP3   OH237989   1.029   0.687   6.769 -0.4908 -0.3163 -0.2073
 5477TIP3    H137990   1.108   0.632   6.761 -0.8594 -0.9282  0.2418
 5477TIP3    H237991   0.959   0.625   6.788 -1.3003  0.0879 -1.6802
 5478TIP3   OH237992   6.150   4.574   3.114  0.3675 -0.7788  0.1218
 5478TIP3    H137993   6.214   4.565   3.184  0.4431 -2.2493 -0.0953
 5478TIP3    H237994   6.077   4.518   3.141  0.7087 -1.9840 -1.2798
 5479TIP3   OH237995   5.410   4.422   0.342 -0.0624  0.0410 -0.0235
 5479TIP3    H137996   5.456   4.475   0.406 -0.5936 -2.1450  2.3255
 5479TIP3    H237997   5.320   4.455   0.344 -0.6054 -1.3691  2.0834
 5480TIP3   OH237998   6.435   5.522   1.912  0.8486  0.8439  0.0482
 5480TIP3    H137999   6.455   5.433   1.886 -1.4637  1.0037 -2.7959
 5480TIP3    H238000   6.464   5.576   1.839 -2.9034  1.6833 -1.0773
 5481TIP3   OH238001   0.193   1.605   1.382 -0.4602  0.3928 -0.3715
 5481TIP3    H138002   0.193   1.658   1.462 -0.1962 -0.1513 -0.0069
 5481TIP3    H238003   0.281   1.568   1.378 -0.5787  0.1506 -0.7367
 5482TIP3   OH238004   3.629   2.988   1.214  0.1640 -0.3819  0.1301
 5482TIP3    H138005   3.643   3.054   1.281 -1.9517  0.3494 -0.0719
 5482TIP3    H238006   3.644   2.905   1.259  1.9020  0.1769  0.6347
 5483TIP3   OH238007   5.503   2.390   0.398 -0.4313 -0.0404  0.0882
 5483TIP3    H138008   5.509   2.329   0.471 -0.3787  2.3296  2.2035
 5483TIP3    H238009   5.409   2.397   0.380 -0.3727 -1.9280 -1.3775
 5484TIP3   OH238010   5.262   5.578   2.858  0.2366  0.3052  0.2483
 5484TIP3    H138011   5.308   5.494   2.860 -1.7734 -0.8969 -0.0671
 5484TIP3    H238012   5.207   5.578   2.936  0.2541  1.3637  0.2776
 5485TIP3   OH238013   4.609   1.077   0.435  1.0032 -0.1639  0.0608
 5485TIP3    H138014   4.703   1.096   0.436  0.7383  1.5814  2.6702
 5485TIP3    H238015   4.602   0.991   0.477  1.4678 -0.6618 -0.8566
 5486TIP3   OH238016   4.851   3.682   2.814  0.3315  0.5834  0.5567
 5486TIP3    H138017   4.809   3.633   2.743  0.4872  1.3153 -0.0463
 5486TIP3    H238018   4.778   3.717   2.865  0.1282  2.8874 -1.1906
 5487TIP3   OH238019   6.316   5.982   2.261  0.4497 -0.4198 -0.3019
 5487TIP3    H138020   6.321   6.016   2.172  2.6280 -1.0509 -0.4831
 5487TIP3    H238021   6.406   5.986   2.293 -0.0099 -1.7052  1.2896
 5488TIP3   OH238022   5.648   2.032   3.372 -0.3389 -0.3031  0.0894
 5488TIP3    H138023   5.698   1.993   3.444  0.2983 -0.5884 -0.4931
 5488TIP3    H238024   5.557   2.024   3.399 -0.0997 -0.2078  0.9584
 5489TIP3   OH238025   3.586   5.537   1.377 -0.4097 -0.0223 -0.2156
 5489TIP3    H138026   3.528   5.552   1.303 -0.4232 -1.0948 -0.4352
 5489TIP3    H238027   3.623   5.450   1.362  1.4957  0.7387 -0.2374
 5490TIP3   OH238028   1.193   1.342   2.856  0.1738  0.0514 -0.1674
 5490TIP3    H138029   1.272   1.393   2.873  0.7880 -1.2906  1.2237
 5490TIP3    H238030   1.125   1.408   2.843  1.3749  1.2321 -0.8279
 5491TIP3   OH238031   6.531   2.697   7.948 -0.2166  0.0767  0.5730
 5491TIP3    H138032   6.597   2.761   7.923 -0.3689  0.0821  0.1894
 5491TIP3    H238033   6.578   2.635   8.004 -0.4146  1.4127  2.3203
 5492TIP3   OH238034   5.615   2.952   7.391 -0.3952  0.4096  0.5754
 5492TIP3    H138035   5.623   3.042   7.359 -1.7963  0.4885  0.4102
 5492TIP3    H238036   5.705   2.920   7.394  0.1690  1.9444  1.0244
 5493TIP3   OH238037   2.468   3.049   0.066 -0.2118 -0.1441  0.3315
 5493TIP3    H138038   2.401   3.104   0.024  0.2365 -0.5066 -0.8978
 5493TIP3    H238039   2.549   3.100   0.059 -0.3466  0.3759  1.9792
 5494TIP3   OH238040   4.041   4.661   7.812  0.5347  0.1384 -0.7150
 5494TIP3    H138041   4.055   4.703   7.897 -0.4593 -2.0875  0.6339
 5494TIP3    H238042   4.016   4.733   7.754 -0.4459  1.5424  1.3017
 5495TIP3   OH238043   4.865   3.494   2.202  0.2318  0.1736  0.1998
 5495TIP3    H138044   4.914   3.575   2.192  0.5756 -0.0459  0.0641
 5495TIP3    H238045   4.776   3.521   2.223  0.3068  0.5860 -0.0189
 5496TIP3   OH238046   0.262   4.744   7.918  0.1725 -0.2397  0.2174
 5496TIP3    H138047   0.301   4.742   7.830  0.6342  0.8448  0.3802
 5496TIP3    H238048   0.168   4.750   7.902  0.3480  2.6348 -0.3027
 5497TIP3   OH238049   4.947   3.122   0.654  0.1690 -0.2932 -0.0166
 5497TIP3    H138050   4.916   3.056   0.716  0.3149  0.4914  0.9189
 5497TIP3    H238051   4.911   3.095   0.570 -0.5549 -1.0364  0.5210
 5498TIP3   OH238052   3.646   2.678   0.549  0.1798  0.6505  0.1778
 5498TIP3    H138053   3.594   2.684   0.629  0.8235 -0.6942  0.7224
 5498TIP3    H238054   3.581   2.669   0.479 -0.3808  1.6617  0.5483
 5499TIP3   OH238055   1.293   6.121   1.687 -0.6523 -0.3436  0.1489
 5499TIP3    H138056   1.382   6.152   1.706 -0.6807 -0.5645  0.6661
 5499TIP3    H238057   1.255   6.103   1.774 -1.0837 -0.5793 -0.0857
 5500TIP3   OH238058   6.742   1.563   7.763 -0.2737  0.2003 -0.0497
 5500TIP3    H138059   6.770   1.499   7.697 -1.0309  0.2668 -0.4492
 5500TIP3    H238060   6.811   1.560   7.830 -0.2651 -0.9839 -0.0836
 5501TIP3   OH238061   3.071   3.959   1.832  0.3411  0.1649 -0.1902
 5501TIP3    H138062   3.054   4.049   1.804  1.0160 -0.0089 -1.2101
 5501TIP3    H238063   3.010   3.905   1.782 -0.2079  0.0613  0.5754
 5502TIP3   OH238064   4.795   2.702   7.467  0.0139 -0.5207 -0.4754
 5502TIP3    H138065   4.720   2.703   7.527  1.2151 -1.5369  1.1559
 5502TIP3    H238066   4.782   2.623   7.415 -1.3435  0.6758 -2.0629
 5503TIP3   OH238067   0.915   5.049   0.750  0.4640 -0.1416  0.3919
 5503TIP3    H138068   0.982   5.012   0.808  1.9744  0.0454 -1.1484
 5503TIP3    H238069   0.962   5.114   0.697 -1.3341  1.2780  0.4443
 5504TIP3   OH238070   6.720   5.547   0.621 -0.0128 -0.1841 -0.0634
 5504TIP3    H138071   6.771   5.509   0.693  0.5089 -0.4441 -0.5527
 5504TIP3    H238072   6.787   5.580   0.560 -0.4318 -0.3679 -0.6315
 5505TIP3   OH238073   6.318   5.358   0.422 -0.4507 -0.1236  0.4741
 5505TIP3    H138074   6.409   5.375   0.395 -0.0633 -1.4360  0.8733
 5505TIP3    H238075   6.296   5.432   0.479 -0.4582  1.4340 -1.4380
 5506TIP3   OH238076   2.595   5.411   8.611  0.1087  0.1890  0.9123
 5506TIP3    H138077   2.561   5.501   8.615 -1.9298 -0.5339  1.0815
 5506TIP3    H238078   2.634   5.396   8.697  0.2997  0.8517  0.9449
 5507TIP3   OH238079   0.082   0.174   7.369 -0.8307  0.0105  0.2308
 5507TIP3    H138080   0.001   0.226   7.367  0.3004  1.8601 -0.4626
 5507TIP3    H238081   0.096   0.157   7.462 -0.3055  2.6291  0.7198
 5508TIP3   OH238082   4.817   5.900   8.444 -0.1324 -0.0361 -0.0687
 5508TIP3    H138083   4.793   5.853   8.364 -0.5128 -0.4013  0.2552
 5508TIP3    H238084   4.906   5.932   8.427  0.1970 -1.0062 -0.2459
 5509TIP3   OH238085   5.216   5.884   0.372 -0.1858 -0.0296  0.1035
 5509TIP3    H138086   5.160   5.954   0.405 -0.3227 -0.3063  0.4637
 5509TIP3    H238087   5.161   5.837   0.309  0.5552  1.4417 -1.7628
 5510TIP3   OH238088   6.032   2.808   0.696  0.7890  0.2152  0.2044
 5510TIP3    H138089   6.050   2.898   0.721  0.5858 -0.2674  2.3210
 5510TIP3    H238090   5.993   2.814   0.609  0.4431  2.1974  0.4515
 5511TIP3   OH238091   3.901   1.825   8.540 -0.6133 -0.5313  0.5266
 5511TIP3    H138092   3.944   1.910   8.550 -1.6549  0.4147 -2.0776
 5511TIP3    H238093   3.895   1.812   8.445 -3.0032 -2.1910  0.8087
 5512TIP3   OH238094   2.789   2.873   0.132 -0.1452  0.6767 -0.0767
 5512TIP3    H138095   2.779   2.785   0.168  0.4387  0.1970 -1.0526
 5512TIP3    H238096   2.733   2.928   0.187  0.7604 -0.0106  1.5964
 5513TIP3   OH238097   4.971   2.860   2.163 -0.0739 -0.1632  0.2951
 5513TIP3    H138098   4.963   2.937   2.219  0.2487  0.5591 -0.6263
 5513TIP3    H238099   4.905   2.799   2.196 -0.4754  0.5898  0.9067
 5514TIP3   OH238100   3.521   6.542   8.669 -0.8200 -0.4177  0.0207
 5514TIP3    H138101   3.443   6.588   8.638 -1.4064 -1.0701  0.4898
 5514TIP3    H238102   3.593   6.581   8.620 -1.2630  1.1191  0.5335
 5515TIP3   OH238103   2.306   2.285   8.498  0.1108 -0.2632  0.3097
 5515TIP3    H138104   2.243   2.312   8.565  1.7169 -0.3032  1.9443
 5515TIP3    H238105   2.257   2.287   8.416 -1.7161  0.6743  1.3534
 5516TIP3   OH238106   0.963   6.208   7.478  0.1536  0.7900  0.1795
 5516TIP3    H138107   0.951   6.244   7.566 -0.9257 -0.4177  0.5539
 5516TIP3    H238108   0.904   6.259   7.423  1.1190  1.8154  0.0384
 5517TIP3   OH238109   3.367   0.141   1.734  0.2123  0.2406 -0.2120
 5517TIP3    H138110   3.327   0.084   1.800  2.4447  0.3094  1.3311
 5517TIP3    H238111   3.361   0.229   1.772  1.0400  0.3618 -0.3557
 5518TIP3   OH238112   4.945   2.752   1.051  0.0929  0.2547 -0.2597
 5518TIP3    H138113   4.950   2.774   1.144 -2.5378  1.3232 -0.2716
 5518TIP3    H238114   4.879   2.682   1.047 -1.5409  1.7881 -1.4681
 5519TIP3   OH238115   4.988   4.754   2.996  0.5613 -0.3482  0.0653
 5519TIP3    H138116   4.958   4.719   2.912 -1.3239 -2.5509  1.5467
 5519TIP3    H238117   4.930   4.827   3.013 -0.1764 -0.9464  0.1925
 5520TIP3   OH238118   2.414   3.009   7.815 -0.8508  0.2504  0.3790
 5520TIP3    H138119   2.442   2.983   7.727  2.3489 -1.1144  1.6519
 5520TIP3    H238120   2.332   3.057   7.801 -1.8769 -2.1102 -3.0699
 5521TIP3   OH238121   2.240   1.109   1.003 -0.1525  0.1415 -0.5237
 5521TIP3    H138122   2.221   1.167   1.077 -0.3647  1.2029 -1.4006
 5521TIP3    H238123   2.332   1.084   1.015  0.2433  1.4717 -0.6861
 5522TIP3   OH238124   4.286   6.152   0.097 -0.1182  0.2140  0.4317
 5522TIP3    H138125   4.236   6.072   0.115 -0.3258 -0.0583 -1.1852
 5522TIP3    H238126   4.224   6.208   0.050  1.2537 -0.4952 -2.4729
 5523TIP3   OH238127   2.876   4.387   1.126  0.4309  0.2817 -0.4329
 5523TIP3    H138128   2.945   4.383   1.192  0.1094  1.3398 -0.0102
 5523TIP3    H238129   2.877   4.478   1.096 -0.2903  0.1292 -0.9467
 5524TIP3   OH238130   5.529   6.485   2.592 -0.1108  0.1732 -0.0104
 5524TIP3    H138131   5.622   6.466   2.606 -0.1229 -0.6087 -0.8552
 5524TIP3    H238132   5.528   6.578   2.569  0.3177  0.4810  1.1275
 5525TIP3   OH238133   6.738   2.939   0.031 -0.3083 -0.3682  0.3524
 5525TIP3    H138134   6.767   3.012   0.085  2.4134 -1.2333  0.2508
 5525TIP3    H238135   6.655   2.911   0.068 -1.1104  2.3530  0.7619
 5526TIP3   OH238136   0.985   4.197   8.151  0.5727  0.6721 -0.1119
 5526TIP3    H138137   0.966   4.105   8.167 -0.3485  0.9200  0.2877
 5526TIP3    H238138   0.951   4.213   8.062 -0.3257  0.8978  0.2616
 5527TIP3   OH238139   6.030   2.070   3.015  0.1242  0.3948  0.3174
 5527TIP3    H138140   5.955   2.094   3.070  0.7811 -0.7098  1.7524
 5527TIP3    H238141   6.006   1.986   2.976  0.9145 -0.4027  1.4719
 5528TIP3   OH238142   0.772   3.515   0.592  0.1772 -0.1174 -0.4896
 5528TIP3    H138143   0.843   3.579   0.595  0.8209 -0.7389 -1.5942
 5528TIP3    H238144   0.721   3.530   0.672  1.0907  0.8686 -0.0820
 5529TIP3   OH238145   0.848   2.428   1.088  0.0160 -0.3922  0.4680
 5529TIP3    H138146   0.775   2.414   1.027  0.5880 -0.6672 -0.1676
 5529TIP3    H238147   0.824   2.507   1.136  0.3662  0.9162 -1.3824
 5530TIP3   OH238148   4.033   2.315   2.704  0.1322  0.4112  0.1418
 5530TIP3    H138149   4.022   2.285   2.614 -0.5370  0.3155  0.2542
 5530TIP3    H238150   4.127   2.330   2.712  0.2965 -0.2941 -0.3465
 5531TIP3   OH238151   0.856   2.774   1.096 -0.1347  0.0340 -0.4545
 5531TIP3    H138152   0.882   2.853   1.143 -1.2580  0.6997 -0.8972
 5531TIP3    H238153   0.762   2.785   1.081 -0.1451 -0.9911 -1.2892
 5532TIP3   OH238154   5.947   1.171   7.736  0.2416  0.5820  0.3231
 5532TIP3    H138155   5.938   1.260   7.703  0.4504  1.5503  2.6964
 5532TIP3    H238156   5.897   1.118   7.674 -1.4790  2.5807 -0.1277
 5533TIP3   OH238157   1.672   1.028   0.712  0.0216 -0.3989  0.2370
 5533TIP3    H138158   1.721   0.952   0.680 -0.0024 -0.8229  1.1754
 5533TIP3    H238159   1.641   1.071   0.632  0.5850 -1.0046 -0.3294
 5534TIP3   OH238160   1.873   4.363   7.429  0.0562  0.0086 -0.0165
 5534TIP3    H138161   1.789   4.404   7.447  0.2561  0.5800 -0.3793
 5534TIP3    H238162   1.892   4.386   7.338  0.8788  0.3642  0.2384
 5535TIP3   OH238163   0.971   0.455   1.111 -0.2492 -0.1040 -0.1709
 5535TIP3    H138164   1.033   0.442   1.182 -0.4548  1.7788  0.4130
 5535TIP3    H238165   1.023   0.446   1.031 -0.2953 -3.6973  0.0636
 5536TIP3   OH238166   6.764   5.849   1.644  0.3354  0.1048  0.3352
 5536TIP3    H138167   6.806   5.845   1.730  2.4835 -1.3651 -0.6886
 5536TIP3    H238168   6.817   5.911   1.594  0.5237 -0.7895 -0.6071
 5537TIP3   OH238169   1.314   3.821   8.302  0.0921  0.2141  0.1018
 5537TIP3    H138170   1.281   3.752   8.360  2.0498 -0.6938  0.1939
 5537TIP3    H238171   1.259   3.813   8.224 -0.9258 -0.2116  0.8328
 5538TIP3   OH238172   5.776   4.116   2.764 -0.2616  0.4774  0.3724
 5538TIP3    H138173   5.830   4.103   2.842  0.3900 -1.0813 -0.2926
 5538TIP3    H238174   5.722   4.038   2.758 -0.4924  0.6894 -0.5772
 5539TIP3   OH238175   6.284   4.142   1.243  0.0380 -0.0298 -0.1123
 5539TIP3    H138176   6.329   4.080   1.187  0.7267  0.5352 -0.2082
 5539TIP3    H238177   6.209   4.094   1.279  0.1312 -0.6688 -0.7723
 5540TIP3   OH238178   2.915   3.179   0.913 -0.1755  0.2254  0.3961
 5540TIP3    H138179   2.994   3.189   0.859  1.2374 -1.3753  2.0221
 5540TIP3    H238180   2.842   3.196   0.853  1.3717  1.4757 -1.2412
 5541TIP3   OH238181   0.693   2.873   0.524  0.3072  0.2464  0.0388
 5541TIP3    H138182   0.767   2.835   0.476 -1.2070  0.4775 -2.7334
 5541TIP3    H238183   0.713   2.966   0.529  1.1164  0.0301  1.1687
 5542TIP3   OH238184   6.323   2.926   2.873 -0.0879  0.0351 -0.0881
 5542TIP3    H138185   6.325   2.863   2.945 -0.3963 -1.4033 -1.2621
 5542TIP3    H238186   6.410   2.967   2.874 -0.0883  0.0283  1.0711
 5543TIP3   OH238187   2.759   1.069   2.632 -0.0067  0.0429  0.1308
 5543TIP3    H138188   2.693   1.110   2.577  1.4588 -0.5275 -2.1838
 5543TIP3    H238189   2.714   0.995   2.673 -0.6289 -0.9160 -2.1574
 5544TIP3   OH238190   4.855   2.803   1.582 -0.0557  0.6795  0.1760
 5544TIP3    H138191   4.903   2.741   1.527  1.8312  2.6819 -0.5194
 5544TIP3    H238192   4.910   2.814   1.659 -0.8448  0.8128  0.7336
 5545TIP3   OH238193   3.642   0.916   0.972 -0.2983  0.3067  0.2427
 5545TIP3    H138194   3.696   0.971   1.028  0.5786 -2.7670  2.7159
 5545TIP3    H238195   3.703   0.850   0.937 -1.7308 -0.8173 -0.2479
 5546TIP3   OH238196   4.308   2.047   3.444 -0.0854  0.1742  0.2390
 5546TIP3    H138197   4.340   2.046   3.534  0.8681 -0.6325 -0.0906
 5546TIP3    H238198   4.276   1.958   3.428  1.2481 -0.1672 -0.7097
 5547TIP3   OH238199   4.098   1.619   1.004 -0.7296 -0.3405  0.5262
 5547TIP3    H138200   4.062   1.533   0.980 -0.3558 -0.9541  2.0110
 5547TIP3    H238201   4.029   1.659   1.057 -2.2583  1.7082 -2.7588
 5548TIP3   OH238202   3.548   5.418   2.815 -0.2579 -0.6527  1.1466
 5548TIP3    H138203   3.523   5.390   2.903 -1.0105 -1.1601  0.7847
 5548TIP3    H238204   3.487   5.489   2.795  0.5233  0.1038  1.3876
 5549TIP3   OH238205   6.036   6.262   7.468 -0.3547  0.1923 -0.1254
 5549TIP3    H138206   5.997   6.179   7.494 -1.7618  0.6433 -0.6902
 5549TIP3    H238207   6.111   6.273   7.527  0.4524 -1.9144 -0.6554
 5550TIP3   OH238208   5.675   2.302   8.553 -0.1149 -0.5489  0.4920
 5550TIP3    H138209   5.622   2.245   8.497 -0.8666  0.1561  0.4669
 5550TIP3    H238210   5.616   2.373   8.577 -0.4684 -1.8253  3.8579
 5551TIP3   OH238211   3.638   6.035   2.936 -0.1848 -0.1868 -0.4847
 5551TIP3    H138212   3.710   6.009   2.878  0.7153 -0.0265  0.5314
 5551TIP3    H238213   3.600   5.952   2.965  0.0118 -0.2855 -0.5083
 5552TIP3   OH238214   1.735   0.331   1.585 -0.1140  0.2037  0.4097
 5552TIP3    H138215   1.820   0.346   1.545 -0.2392 -1.3785 -0.5357
 5552TIP3    H238216   1.679   0.400   1.549  0.2489 -0.0481 -0.6720
 5553TIP3   OH238217   3.783   6.803   8.008  0.3351 -0.3444  0.6897
 5553TIP3    H138218   3.744   6.874   8.060  1.0441  0.9142 -0.4477
 5553TIP3    H238219   3.877   6.811   8.024  0.4205 -1.0343  0.5410
 5554TIP3   OH238220   1.531   4.270   2.161 -0.2639  0.0365 -0.5011
 5554TIP3    H138221   1.540   4.191   2.215  0.8407 -0.1907 -0.9870
 5554TIP3    H238222   1.522   4.341   2.224 -1.5572 -0.4854 -0.0549
 5555TIP3   OH238223   1.283   6.444   2.756 -0.9332  0.4415 -0.0287
 5555TIP3    H138224   1.266   6.523   2.807  0.7842  1.1510 -0.4790
 5555TIP3    H238225   1.209   6.438   2.695 -0.9846  1.8468 -0.1335
 5556TIP3   OH238226   3.809   3.470   8.622  0.2872  0.4047  0.3040
 5556TIP3    H138227   3.775   3.499   8.707 -0.3517  2.0612 -0.4732
 5556TIP3    H238228   3.737   3.485   8.561  0.9321 -0.2157 -0.6322
 5557TIP3   OH238229   4.697   4.076   3.108  0.0825  0.4745 -0.3451
 5557TIP3    H138230   4.742   4.049   3.188 -0.4487  1.1351  0.1859
 5557TIP3    H238231   4.604   4.074   3.130 -0.0992  0.2270 -1.0844
 5558TIP3   OH238232   2.273   6.765   0.734 -0.4747  0.0479 -0.1706
 5558TIP3    H138233   2.291   6.702   0.803  0.7461 -1.1389 -1.4876
 5558TIP3    H238234   2.220   6.717   0.670  0.7402  0.2126 -1.3512
 5559TIP3   OH238235   1.741   6.473   0.834 -0.2197 -0.0761  0.2042
 5559TIP3    H138236   1.756   6.384   0.802  0.2545 -0.0868  0.4366
 5559TIP3    H238237   1.710   6.461   0.924  0.3190  0.0032  0.4036
 5560TIP3   OH238238   4.186   5.945   7.111 -0.3959 -0.3880 -0.3697
 5560TIP3    H138239   4.192   5.987   7.025 -0.4433  2.5997  0.9577
 5560TIP3    H238240   4.092   5.939   7.128 -0.3934  0.6300  0.1217
 5561TIP3   OH238241   0.615   2.128   0.448 -0.2609 -0.4836  0.3587
 5561TIP3    H138242   0.612   2.086   0.534 -1.1447 -0.7985  0.1843
 5561TIP3    H238243   0.531   2.105   0.407  0.8348 -1.8130 -1.2695
 5562TIP3   OH238244   4.328   3.482   1.410  0.0979  0.0498 -0.0954
 5562TIP3    H138245   4.259   3.505   1.347 -0.2601  0.1392  0.3179
 5562TIP3    H238246   4.321   3.387   1.420 -1.5395  0.2909  1.6847
 5563TIP3   OH238247   1.970   5.282   7.424 -0.1468  0.0758  0.4174
 5563TIP3    H138248   2.033   5.224   7.467  0.1581 -0.4121 -0.6395
 5563TIP3    H238249   1.886   5.261   7.465  0.1779 -0.1450  0.9866
 5564TIP3   OH238250   6.699   2.355   1.629 -0.7476 -0.4232  0.1113
 5564TIP3    H138251   6.786   2.393   1.630 -0.1498 -1.6933  1.8562
 5564TIP3    H238252   6.691   2.314   1.543 -0.8515  2.2099 -1.2351
 5565TIP3   OH238253   6.598   3.250   8.381  0.1815 -0.2214  0.0042
 5565TIP3    H138254   6.605   3.154   8.386  0.0919 -0.2639 -0.5849
 5565TIP3    H238255   6.533   3.272   8.447 -1.5815 -0.8173 -1.4335
 5566TIP3   OH238256   3.033   4.694   0.473  0.5464 -0.7069  0.3613
 5566TIP3    H138257   2.939   4.707   0.460  0.1250 -1.5632  2.1591
 5566TIP3    H238258   3.070   4.782   0.469 -0.5082 -0.2281  0.7060
 5567TIP3   OH238259   4.177   0.215   3.010  0.4308  0.1288 -0.0814
 5567TIP3    H138260   4.135   0.129   3.011  1.2981 -0.3170  0.2735
 5567TIP3    H238261   4.270   0.196   3.028  0.4843  1.2145  0.9755
 5568TIP3   OH238262   6.693   4.473   1.944  0.9108 -0.0279 -0.4406
 5568TIP3    H138263   6.640   4.553   1.939  0.1353 -0.3864  1.2157
 5568TIP3    H238264   6.629   4.403   1.953  1.6427 -0.5804  0.6008
 5569TIP3   OH238265   0.734   2.323   8.102 -0.4983 -0.2526  0.0941
 5569TIP3    H138266   0.816   2.303   8.147  0.1831 -0.8701 -1.3665
 5569TIP3    H238267   0.758   2.389   8.037 -1.6707  1.3876  1.2422
 5570TIP3   OH238268   1.408   2.724   0.001 -0.1316 -0.1884 -0.4463
 5570TIP3    H138269   1.456   2.803  -0.027  0.5905 -0.5642 -0.2809
 5570TIP3    H238270   1.428   2.716   0.094  0.0157 -0.7200 -0.5248
 5571TIP3   OH238271   3.209   6.501   8.005 -0.1670  0.1384  0.2384
 5571TIP3    H138272   3.190   6.435   7.939 -0.9998  0.5893  0.0096
 5571TIP3    H238273   3.293   6.474   8.042  0.1684 -0.2797 -0.7895
 5572TIP3   OH238274   3.711   1.848   2.156  0.7499 -0.1966  0.4764
 5572TIP3    H138275   3.647   1.805   2.099 -0.7903  1.9568  0.4735
 5572TIP3    H238276   3.662   1.920   2.197  2.5994  0.1324  2.2441
 5573TIP3   OH238277   4.883   5.931   2.278 -0.4825 -0.4888 -0.4934
 5573TIP3    H138278   4.934   6.009   2.302  0.9218 -1.3071 -0.7046
 5573TIP3    H238279   4.801   5.940   2.326 -0.5654  1.3772 -0.9033
 5574TIP3   OH238280   6.662   2.223   1.358  0.6904 -0.4357  0.2023
 5574TIP3    H138281   6.687   2.307   1.320 -0.1471 -0.6247 -0.8226
 5574TIP3    H238282   6.685   2.159   1.290  0.6400 -0.9493  0.6669
 5575TIP3   OH238283   6.359   4.561   1.613  0.0749  0.0107 -0.0409
 5575TIP3    H138284   6.321   4.475   1.595  1.0678 -0.6819  0.9804
 5575TIP3    H238285   6.289   4.623   1.594 -0.8563 -1.0648 -0.2344
 5576TIP3   OH238286   1.610   1.087   1.548 -0.7189  0.1520 -0.4590
 5576TIP3    H138287   1.698   1.107   1.580 -0.5881 -1.7067  0.4287
 5576TIP3    H238288   1.622   1.076   1.453  0.2567 -1.1612 -0.2202
 5577TIP3   OH238289   3.581   4.776   1.273  0.2655  0.3927 -0.2898
 5577TIP3    H138290   3.557   4.822   1.353 -1.9109  0.2092 -0.7915
 5577TIP3    H238291   3.504   4.724   1.251 -0.0956  2.1217 -3.7103
 5578TIP3   OH238292   5.892   3.773   8.258  0.1341 -0.1666  0.2608
 5578TIP3    H138293   5.851   3.703   8.309 -0.7783  0.7274  0.8070
 5578TIP3    H238294   5.818   3.828   8.230  0.6573 -0.3471 -1.6188
 5579TIP3   OH238295   2.471   6.025   1.402  0.0024  0.0560  0.2293
 5579TIP3    H138296   2.483   6.079   1.324  0.0388  0.4730  0.5223
 5579TIP3    H238297   2.444   6.087   1.470  1.4814 -0.0527  0.9587
 5580TIP3   OH238298   0.321   4.573   7.454  0.3958  0.0596  0.0843
 5580TIP3    H138299   0.238   4.563   7.407 -0.1320  0.8483  0.8147
 5580TIP3    H238300   0.387   4.535   7.396 -0.5401 -1.0195 -0.3098
 5581TIP3   OH238301   6.352   5.065   1.189 -0.5649  0.5674  0.0372
 5581TIP3    H138302   6.399   5.091   1.110 -0.2815 -1.3454 -0.4748
 5581TIP3    H238303   6.419   5.035   1.249 -0.9987 -2.7546 -0.9199
 5582TIP3   OH238304   0.105   6.053   8.724  0.2091  0.3648 -0.2866
 5582TIP3    H138305   0.042   6.126   8.721  0.4787  0.5851 -0.7594
 5582TIP3    H238306   0.148   6.055   8.638  1.4540  0.7392  0.3248
 5583TIP3   OH238307   1.842   4.074   7.842  0.1639  0.0610 -0.3005
 5583TIP3    H138308   1.850   4.144   7.778 -3.5078  0.6193 -0.3556
 5583TIP3    H238309   1.826   4.119   7.925 -0.2213 -0.6707  0.0358
 5584TIP3   OH238310   5.347   3.996   8.638 -0.1893  0.1939 -0.0925
 5584TIP3    H138311   5.351   3.954   8.552 -1.9140  0.2877 -0.2622
 5584TIP3    H238312   5.433   4.036   8.649 -0.3697  1.4128 -2.4483
 5585TIP3   OH238313   4.230   4.167   1.230 -0.8310  0.3815 -0.1297
 5585TIP3    H138314   4.254   4.109   1.303 -1.3488  0.3303  0.0051
 5585TIP3    H238315   4.173   4.233   1.270 -1.3578  0.1858 -0.5337
 5586TIP3   OH238316   6.532   2.026   3.176 -0.0704 -0.3350  0.2706
 5586TIP3    H138317   6.516   2.111   3.216  1.9750  0.4938 -0.5304
 5586TIP3    H238318   6.574   1.975   3.245  0.4937 -0.0148  0.1684
 5587TIP3   OH238319   2.690   5.176   8.474 -0.2497  0.4070  0.1416
 5587TIP3    H138320   2.663   5.262   8.507  2.0356  1.2667 -0.0951
 5587TIP3    H238321   2.678   5.182   8.379 -1.1196  0.0524  0.2192
 5588TIP3   OH238322   4.194   6.104   7.929  0.1790 -0.3772 -0.0569
 5588TIP3    H138323   4.230   6.139   8.011  1.0406  2.3609 -1.4690
 5588TIP3    H238324   4.172   6.013   7.949  1.0286 -0.0243  2.9840
 5589TIP3   OH238325   1.672   3.592   1.568 -0.7104  0.2151 -0.3024
 5589TIP3    H138326   1.641   3.556   1.651 -0.4115  1.1064  0.1995
 5589TIP3    H238327   1.766   3.607   1.582 -0.5883  0.0470 -0.9169
 5590TIP3   OH238328   6.459   4.193   1.007  0.5048 -0.3914 -0.4176
 5590TIP3    H138329   6.477   4.263   0.944  1.0322 -1.2458 -1.2474
 5590TIP3    H238330   6.370   4.164   0.987 -0.5621  1.4356  1.3369
 5591TIP3   OH238331   3.479   6.579   2.025  0.5321  0.3319 -0.1039
 5591TIP3    H138332   3.401   6.545   1.981  1.0695 -0.6437 -0.3298
 5591TIP3    H238333   3.515   6.642   1.963  0.3946  0.1526 -0.3676
 5592TIP3   OH238334   4.652   6.762   2.896 -0.2528  0.4193 -0.1884
 5592TIP3    H138335   4.740   6.799   2.901 -0.0355  0.2716 -2.1241
 5592TIP3    H238336   4.666   6.670   2.875 -0.8651  0.3969 -0.5278
 5593TIP3   OH238337   3.198   1.214   0.197  0.1673 -0.6668 -0.1284
 5593TIP3    H138338   3.213   1.221   0.103  0.2386  0.8809 -0.0290
 5593TIP3    H238339   3.117   1.165   0.205  1.0268 -2.2789 -0.9313
 5594TIP3   OH238340   0.699   6.343   7.383  0.9662 -0.4656 -0.1576
 5594TIP3    H138341   0.610   6.338   7.418  1.4226  1.4045  1.4347
 5594TIP3    H238342   0.702   6.274   7.317 -1.9093 -0.1029 -0.8350
 5595TIP3   OH238343   5.533   6.194   1.261  0.0648 -0.5381  0.9724
 5595TIP3    H138344   5.531   6.104   1.228 -1.8314 -0.9201  1.9984
 5595TIP3    H238345   5.573   6.244   1.190 -1.5749 -1.7285 -0.9070
 5596TIP3   OH238346   1.716   5.812   3.022 -0.2211  0.1140  0.5169
 5596TIP3    H138347   1.734   5.761   2.943 -0.3541 -1.6224  1.5514
 5596TIP3    H238348   1.633   5.856   3.004  0.8692  1.6624 -1.1669
 5597TIP3   OH238349   4.306   4.441   7.331 -0.0517  0.2989  0.4099
 5597TIP3    H138350   4.216   4.450   7.364  0.1867  0.1346  1.1278
 5597TIP3    H238351   4.328   4.349   7.346 -0.6832 -0.3594 -2.2112
 5598TIP3   OH238352   5.012   4.585   2.749 -0.6380  0.5161  0.0814
 5598TIP3    H138353   4.990   4.506   2.700 -1.2866 -0.3175  1.6540
 5598TIP3    H238354   4.983   4.657   2.693 -3.8947 -0.4542  0.3183
 5599TIP3   OH238355   6.701   2.417   0.511  0.5423 -0.2297  0.6866
 5599TIP3    H138356   6.714   2.510   0.488 -1.2829 -0.0082  0.3369
 5599TIP3    H238357   6.784   2.375   0.491  1.0023  1.1192 -0.3966
 5600TIP3   OH238358   6.743   6.238   1.173 -0.4291  0.8386 -0.3135
 5600TIP3    H138359   6.827   6.201   1.202 -0.4795  0.2612 -0.8770
 5600TIP3    H238360   6.684   6.226   1.248  0.4947  3.0925  0.8617
 5601TIP3   OH238361   2.633   4.570   8.518 -0.5833  0.4112  0.3118
 5601TIP3    H138362   2.624   4.626   8.595  0.0810 -0.0508  0.7384
 5601TIP3    H238363   2.581   4.492   8.539  0.9419 -0.4611  1.0422
 5602TIP3   OH238364   2.393   2.448   2.126 -0.6635  0.2215  0.4865
 5602TIP3    H138365   2.304   2.417   2.110 -0.3288 -0.0316 -1.0254
 5602TIP3    H238366   2.416   2.410   2.211 -2.3158  1.0787  1.3765
 5603TIP3   OH238367   4.442   3.938   8.176 -0.2491 -0.7388  0.2949
 5603TIP3    H138368   4.470   3.952   8.266 -0.1678 -0.6030  0.2491
 5603TIP3    H238369   4.394   4.019   8.153  0.3017 -0.4924 -0.0016
 5604TIP3   OH238370   5.430   3.843   8.093  0.5129 -0.0777 -0.3567
 5604TIP3    H138371   5.524   3.855   8.098  0.2856  1.3449  1.8797
 5604TIP3    H238372   5.404   3.885   8.011  1.6035  1.2425 -0.0453
 5605TIP3   OH238373   0.322   3.503   8.232  0.4553 -0.4934 -0.3939
 5605TIP3    H138374   0.390   3.537   8.173  1.5739  0.0927  1.1619
 5605TIP3    H238375   0.371   3.462   8.303 -0.8556 -1.2583  0.0996
 5606TIP3   OH238376   0.551   3.490   2.095 -0.2174  0.0737  0.4653
 5606TIP3    H138377   0.481   3.516   2.035 -0.5746 -0.7359  0.5150
 5606TIP3    H238378   0.594   3.572   2.119 -0.5369  0.4795 -0.3218
 5607TIP3   OH238379   5.070   2.449   0.521 -0.2984 -0.1460  0.2621
 5607TIP3    H138380   5.015   2.394   0.577  1.0929  0.0191  1.8658
 5607TIP3    H238381   5.012   2.521   0.495 -0.8199  0.1380  2.0696
 5608TIP3   OH238382   5.611   3.566   0.561  0.6634  0.5742 -0.2211
 5608TIP3    H138383   5.542   3.588   0.622 -0.0916 -1.4368 -0.2760
 5608TIP3    H238384   5.623   3.472   0.570  0.6458  0.2130 -3.0130
 5609TIP3   OH238385   6.407   6.587   0.540 -0.0285  0.0986 -0.4861
 5609TIP3    H138386   6.378   6.624   0.622 -2.3785 -2.1801 -0.1545
 5609TIP3    H238387   6.360   6.636   0.473 -1.9211 -1.1240 -0.1345
 5610TIP3   OH238388   2.511   3.524   2.526  0.0290 -0.5960  0.1771
 5610TIP3    H138389   2.454   3.600   2.536 -0.1278 -0.7850  0.7768
 5610TIP3    H238390   2.468   3.455   2.577 -0.8177 -1.6349 -1.8478
 5611TIP3   OH238391   0.517   0.342   8.379  0.6449  0.3114 -0.6075
 5611TIP3    H138392   0.593   0.368   8.431 -0.5040 -1.2361  2.0728
 5611TIP3    H238393   0.513   0.247   8.388 -0.6497  0.1850 -2.1013
 5612TIP3   OH238394   4.348   0.838   2.464  0.0518 -0.4274 -0.7672
 5612TIP3    H138395   4.399   0.816   2.542 -2.6561  1.3636  1.7024
 5612TIP3    H238396   4.414   0.861   2.398  2.4654 -2.2185  0.8405
 5613TIP3   OH238397   0.890   1.724   2.284  0.4389  0.0294  0.4265
 5613TIP3    H138398   0.924   1.644   2.245 -0.2109  0.4555 -1.1024
 5613TIP3    H238399   0.833   1.694   2.355 -0.1371 -0.9014 -0.3968
 5614TIP3   OH238400   3.168   1.132   0.971 -0.1062  0.2869  0.0748
 5614TIP3    H138401   3.133   1.144   0.883  0.0105 -1.2493 -0.2156
 5614TIP3    H238402   3.111   1.183   1.028  0.0449  1.6040 -0.9269
 5615TIP3   OH238403   5.357   1.846   7.985  0.3113  0.2857  0.2515
 5615TIP3    H138404   5.394   1.826   7.899  0.7397  0.6182  0.3555
 5615TIP3    H238405   5.417   1.807   8.047 -1.5260 -2.5934  0.3980
 5616TIP3   OH238406   5.661   6.094   0.836 -0.3483 -0.5341  0.1519
 5616TIP3    H138407   5.677   6.020   0.777  0.1152 -1.5251  1.4421
 5616TIP3    H238408   5.731   6.156   0.817  0.6769 -1.5015  0.6186
 5617TIP3   OH238409   5.005   3.484   8.090  0.1726 -0.5485 -0.0297
 5617TIP3    H138410   4.952   3.562   8.106  0.8567  0.7276 -3.2220
 5617TIP3    H238411   5.095   3.513   8.104  0.3209 -1.8013  2.0926
 5618TIP3   OH238412   2.250   1.285   8.729  0.5870 -0.0756 -0.4361
 5618TIP3    H138413   2.189   1.212   8.739 -1.3192  0.9753 -3.1130
 5618TIP3    H238414   2.198   1.363   8.750  0.4941  0.9437 -3.7691
 5619TIP3   OH238415   1.619   4.633   0.944  0.3367 -0.0601  0.6316
 5619TIP3    H138416   1.687   4.566   0.943  1.9333  1.4801  0.5693
 5619TIP3    H238417   1.592   4.639   1.035  0.6799 -0.2934  0.7502
 5620TIP3   OH238418   1.495   6.608   2.707 -0.2006 -0.1153  0.1887
 5620TIP3    H138419   1.467   6.527   2.750  0.2113 -1.1729 -1.4353
 5620TIP3    H238420   1.563   6.643   2.764 -1.9716  0.3945  2.1372
 5621TIP3   OH238421   1.129   1.204   8.488  0.5861 -0.5294  0.2532
 5621TIP3    H138422   1.124   1.116   8.451  0.4935 -1.0912  1.5349
 5621TIP3    H238423   1.040   1.238   8.482  0.6508 -0.4543 -0.3730
 5622TIP3   OH238424   0.618   0.129   7.827  0.0479 -0.5580  0.6777
 5622TIP3    H138425   0.525   0.119   7.807  0.2438 -1.8885  0.2809
 5622TIP3    H238426   0.661   0.116   7.742  0.5845  0.4259  0.7874
 5623TIP3   OH238427   2.919   6.416   0.216  0.0347  0.0174 -0.4265
 5623TIP3    H138428   2.923   6.402   0.310 -0.7903  0.4059 -0.3253
 5623TIP3    H238429   3.006   6.394   0.184 -0.1615 -1.8756  0.1937
 5624TIP3   OH238430   2.843   5.870   8.109 -0.6825  0.1734 -0.3786
 5624TIP3    H138431   2.841   5.963   8.087  3.7918  0.8570  1.1695
 5624TIP3    H238432   2.903   5.831   8.046  0.3864 -0.8470  1.1862
 5625TIP3   OH238433   6.278   3.656   0.011 -0.6638  0.1076  0.6706
 5625TIP3    H138434   6.248   3.731   0.061 -0.6243  0.0931  0.7169
 5625TIP3    H238435   6.326   3.602   0.075 -0.4362  0.1918  0.5723
 5626TIP3   OH238436   1.354   2.603   8.498  0.6699 -0.3387  0.6449
 5626TIP3    H138437   1.367   2.637   8.586  0.9284 -0.9213  0.8377
 5626TIP3    H238438   1.435   2.625   8.451  0.2499  0.6055  0.3327
 5627TIP3   OH238439   3.712   0.690   0.378  0.0388 -0.3065 -0.4324
 5627TIP3    H138440   3.690   0.599   0.358 -1.7144  0.0078 -0.1139
 5627TIP3    H238441   3.674   0.705   0.465  0.9258  0.5279 -0.1732
 5628TIP3   OH238442   2.679   0.257   8.377 -0.3318 -0.0417  0.2635
 5628TIP3    H138443   2.747   0.218   8.322 -0.4360  1.1252 -0.7479
 5628TIP3    H238444   2.685   0.351   8.358 -2.0841  0.1090  0.3048
 5629TIP3   OH238445   3.390   0.843   3.593  0.5521  0.6138  0.0483
 5629TIP3    H138446   3.428   0.892   3.519 -0.0490 -0.1603 -0.7979
 5629TIP3    H238447   3.393   0.752   3.564  0.7633  0.2483  1.2042
 5630TIP3   OH238448   6.672   0.418   7.249 -0.0325  0.2935 -1.2113
 5630TIP3    H138449   6.587   0.458   7.231 -0.6641 -0.7929 -0.7021
 5630TIP3    H238450   6.654   0.352   7.316  0.9156 -1.0747 -2.2630
 5631TIP3   OH238451   2.066   3.885   1.571 -0.7773 -0.2947  0.1326
 5631TIP3    H138452   2.028   3.802   1.601 -2.4019  0.9519  1.8112
 5631TIP3    H238453   2.052   3.945   1.645  0.8283  1.3411 -0.8235
 5632TIP3   OH238454   6.528   5.136   8.524 -0.5372 -0.2503 -0.1736
 5632TIP3    H138455   6.486   5.194   8.461  2.7500  1.5373 -0.9237
 5632TIP3    H238456   6.545   5.056   8.474  1.0426  0.7468 -1.3400
 5633TIP3   OH238457   4.882   2.723   7.146  0.6136 -0.5423 -0.1486
 5633TIP3    H138458   4.836   2.658   7.199  1.4521 -0.4161  0.7552
 5633TIP3    H238459   4.843   2.714   7.059  1.0508 -2.6392 -0.1952
 5634TIP3   OH238460   0.390   0.963   0.565 -0.0833 -0.0696 -0.5464
 5634TIP3    H138461   0.437   0.937   0.645 -0.6111 -0.1923 -0.2721
 5634TIP3    H238462   0.321   1.022   0.596  0.5793  1.0085 -1.0694
 5635TIP3   OH238463   1.515   6.326   7.546  0.4333 -0.6304  0.4361
 5635TIP3    H138464   1.584   6.348   7.609  1.8937 -2.6731 -0.3334
 5635TIP3    H238465   1.479   6.243   7.578 -2.0024  0.5810  1.0241
 5636TIP3   OH238466   4.649   6.179   2.209  0.4582  0.4904 -0.1814
 5636TIP3    H138467   4.578   6.133   2.255  2.3029 -1.8860  0.4596
 5636TIP3    H238468   4.608   6.260   2.178 -2.1402 -0.0863  1.4162
 5637TIP3   OH238469   1.464   3.447   1.110 -0.2056 -0.6924  0.8589
 5637TIP3    H138470   1.431   3.368   1.067  1.7739 -2.2892  2.0858
 5637TIP3    H238471   1.527   3.415   1.174  1.9929  2.0030  0.2340
 5638TIP3   OH238472   2.014   5.485   0.920  0.3132  0.6570  0.7264
 5638TIP3    H138473   1.931   5.445   0.893 -0.1582  2.0183  0.0613
 5638TIP3    H238474   2.063   5.414   0.962  0.0617 -0.9533 -1.5356
 5639TIP3   OH238475   1.054   1.689   0.389  1.0667  0.0263  0.0931
 5639TIP3    H138476   1.034   1.762   0.448 -0.7083 -1.5915  1.6654
 5639TIP3    H238477   1.139   1.656   0.419  1.1948  0.5557  0.3227
 5640TIP3   OH238478   3.234   5.866   1.020  0.1606 -0.2716 -0.0665
 5640TIP3    H138479   3.211   5.946   0.972  0.2670  0.4389  1.0486
 5640TIP3    H238480   3.321   5.843   0.988 -0.1402 -0.3334 -0.8795
 5641TIP3   OH238481   2.901   4.985   1.217  0.1915 -0.6527  0.3854
 5641TIP3    H138482   2.924   5.027   1.300 -0.8015 -0.4763  0.5837
 5641TIP3    H238483   2.920   5.051   1.151 -0.9900  0.0005  0.6625
 5642TIP3   OH238484   3.003   6.659   0.835  0.3518  0.2259 -0.4139
 5642TIP3    H138485   2.946   6.582   0.841 -0.5716  1.0125  1.9183
 5642TIP3    H238486   3.090   6.623   0.818 -0.3767 -1.1724 -1.3911
 5643TIP3   OH238487   4.365   1.199   0.535 -0.4717  0.1060 -0.0046
 5643TIP3    H138488   4.413   1.174   0.614  0.0840 -1.1426 -0.7079
 5643TIP3    H238489   4.402   1.143   0.466 -1.2897  0.8154 -1.0485
 5644TIP3   OH238490   2.681   5.630   7.983  0.0412 -0.2343  0.2181
 5644TIP3    H138491   2.743   5.563   8.011 -1.9070 -1.4845  1.8211
 5644TIP3    H238492   2.662   5.680   8.063 -0.3190  0.7422 -0.4550
 5645TIP3   OH238493   6.242   1.305   2.079  0.8580 -0.4560 -0.0301
 5645TIP3    H138494   6.198   1.358   2.013 -1.0825 -0.4101  1.2228
 5645TIP3    H238495   6.249   1.218   2.039  0.5510 -0.1994 -0.6517
 5646TIP3   OH238496   2.150   0.210   7.427  0.0193 -0.3652  0.7368
 5646TIP3    H138497   2.176   0.233   7.516 -1.7886  2.4861  0.6404
 5646TIP3    H238498   2.059   0.181   7.436  0.5237 -2.2644  0.0589
 5647TIP3   OH238499   3.146   2.567   2.158  0.4365  0.1030 -0.9768
 5647TIP3    H138500   3.150   2.633   2.090 -1.3504  0.5980 -0.6584
 5647TIP3    H238501   3.118   2.487   2.113  2.0713 -0.3315 -1.2714
 5648TIP3   OH238502   4.863   1.835   7.264 -0.2526  0.5550 -0.1160
 5648TIP3    H138503   4.791   1.787   7.224  1.0318 -0.7116 -1.0139
 5648TIP3    H238504   4.845   1.927   7.244 -2.8294  0.5636  1.7564
 5649TIP3   OH238505   5.163   5.318   0.118 -0.0459  0.2135  0.0403
 5649TIP3    H138506   5.177   5.339   0.210  0.8649  1.8331 -0.4259
 5649TIP3    H238507   5.183   5.224   0.112 -0.2152  0.0623  1.4900
 5650TIP3   OH238508   0.494   6.179   7.235  0.7021 -0.0687 -0.0066
 5650TIP3    H138509   0.564   6.128   7.195  0.3502 -0.5522 -0.0096
 5650TIP3    H238510   0.444   6.116   7.285 -0.9156 -0.1025 -1.5833
 5651TIP3   OH238511   0.122   2.680   2.594 -0.2940  0.3977 -0.1619
 5651TIP3    H138512   0.201   2.670   2.541  1.1192  1.2615  1.6498
 5651TIP3    H238513   0.137   2.761   2.643 -1.5329 -0.3113  1.4739
 5652TIP3   OH238514   5.618   1.559   2.477  0.6549 -0.2488 -0.2512
 5652TIP3    H138515   5.711   1.544   2.460  0.9278  0.8581  0.1605
 5652TIP3    H238516   5.615   1.596   2.565 -0.2493 -0.9039  0.0061
 5653TIP3   OH238517   5.738   2.636   8.241  0.4379 -0.1361  0.0564
 5653TIP3    H138518   5.798   2.669   8.308 -0.2876 -2.3730  1.9297
 5653TIP3    H238519   5.657   2.616   8.289 -0.2152 -1.5563 -1.5286
 5654TIP3   OH238520   6.100   2.662   1.891  0.0792 -0.1993 -0.3101
 5654TIP3    H138521   6.084   2.568   1.903  0.3219 -0.2385 -0.2896
 5654TIP3    H238522   6.133   2.691   1.976 -3.1644  0.5957  0.8067
 5655TIP3   OH238523   6.313   3.680   2.403 -0.0828 -0.0519  0.3918
 5655TIP3    H138524   6.230   3.639   2.429 -0.9785 -0.0207 -2.0953
 5655TIP3    H238525   6.308   3.769   2.438 -1.5427  0.2301 -0.4346
 5656TIP3   OH238526   1.811   1.789   6.755 -0.3210  0.3451 -0.1881
 5656TIP3    H138527   1.743   1.786   6.688  1.2099 -0.6650 -1.7951
 5656TIP3    H238528   1.830   1.697   6.774 -0.8138  0.6138  1.7789
 5657TIP3   OH238529   1.904   0.233   2.790  0.0588 -1.0199 -0.6792
 5657TIP3    H138530   1.945   0.290   2.856 -1.7687  1.4400 -1.5038
 5657TIP3    H238531   1.904   0.146   2.830  1.8152 -0.2249  1.2273
 5658TIP3   OH238532   5.425   1.690   1.044  0.2643  0.1613  0.0095
 5658TIP3    H138533   5.411   1.604   1.084  0.0495 -0.3561 -1.1305
 5658TIP3    H238534   5.393   1.680   0.954  0.1482  1.4659 -0.1122
 5659TIP3   OH238535   2.168   6.296   2.955  0.2024 -0.2755  0.3402
 5659TIP3    H138536   2.078   6.278   2.929 -0.1672  1.1900  0.5258
 5659TIP3    H238537   2.181   6.245   3.035 -1.0558  0.8323  1.2990
 5660TIP3   OH238538   4.580   5.875   7.430  0.3595  0.0544  0.1320
 5660TIP3    H138539   4.558   5.803   7.371 -0.3823  0.7548 -0.4794
 5660TIP3    H238540   4.574   5.838   7.518  2.9242 -1.4132 -0.2104
 5661TIP3   OH238541   1.056   1.949   0.505  0.1029 -0.1106  0.6457
 5661TIP3    H138542   1.130   1.978   0.557 -0.1211  0.7078  0.5174
 5661TIP3    H238543   1.056   2.006   0.428 -0.2457 -0.5562  0.3077
 5662TIP3   OH238544   1.858   3.664   0.450  0.2768  0.3853 -0.0399
 5662TIP3    H138545   1.938   3.641   0.403 -0.7446 -1.0505 -1.1832
 5662TIP3    H238546   1.870   3.756   0.474  1.4909  0.7583 -1.8421
 5663TIP3   OH238547   1.676   3.482   0.397 -0.0020 -0.0459  0.1396
 5663TIP3    H138548   1.643   3.513   0.313 -0.6751  1.3754  0.9062
 5663TIP3    H238549   1.749   3.541   0.417  0.5813 -0.7843  0.2778
 5664TIP3   OH238550   3.807   3.785   1.541  0.0766 -0.7950  0.0409
 5664TIP3    H138551   3.754   3.849   1.588 -0.3311 -1.2301  0.1790
 5664TIP3    H238552   3.898   3.808   1.563  0.1098  1.3336 -1.9277
 5665TIP3   OH238553   0.190   1.809   7.869  0.3025  0.5751 -0.6832
 5665TIP3    H138554   0.110   1.837   7.823 -0.9848  0.9785  1.6248
 5665TIP3    H238555   0.240   1.761   7.803 -1.2324  1.4247 -2.5753
 5666TIP3   OH238556   0.852   1.478   2.115 -0.0953 -0.4071  0.2287
 5666TIP3    H138557   0.811   1.430   2.043 -0.5902 -0.8970  0.8196
 5666TIP3    H238558   0.821   1.433   2.194 -0.0242  0.4742  0.7708
 5667TIP3   OH238559   3.648   5.679   8.651 -0.2191  0.1500  0.6162
 5667TIP3    H138560   3.613   5.765   8.627  1.3999  1.0438  1.3416
 5667TIP3    H238561   3.706   5.656   8.579  0.0321  0.0692  0.8445
 5668TIP3   OH238562   0.728   1.175   7.046  0.2288  0.6371  0.2893
 5668TIP3    H138563   0.724   1.190   7.141 -0.7791  0.5817  0.2686
 5668TIP3    H238564   0.807   1.221   7.018  1.9045 -1.3368  1.4940
 5669TIP3   OH238565   2.663   1.729   2.263  0.1166 -0.4860 -0.4740
 5669TIP3    H138566   2.688   1.740   2.172  0.7038 -2.0779 -0.5328
 5669TIP3    H238567   2.577   1.770   2.269  0.7096  0.9514 -1.3697
 5670TIP3   OH238568   5.306   0.833   2.591 -0.4912 -0.3540 -0.5615
 5670TIP3    H138569   5.316   0.924   2.621  0.3350  0.1322 -2.1511
 5670TIP3    H238570   5.212   0.823   2.576 -0.8129 -0.3317  1.1990
 5671TIP3   OH238571   3.656   5.868   0.556  0.1598  0.2914 -0.3850
 5671TIP3    H138572   3.631   5.791   0.607 -1.7291 -0.2596 -2.0654
 5671TIP3    H238573   3.747   5.852   0.532 -0.3017 -1.6300 -1.0183
 5672TIP3   OH238574   5.192   1.276   0.162  0.4584 -0.1480 -0.1538
 5672TIP3    H138575   5.248   1.308   0.232  0.2395 -1.0780  0.4767
 5672TIP3    H238576   5.243   1.288   0.082  0.8731  0.5600  0.2054
 5673TIP3   OH238577   4.112   6.028   0.605 -0.3384  0.2840  0.1772
 5673TIP3    H138578   4.165   6.103   0.576  0.5129  0.9877  3.1986
 5673TIP3    H238579   4.169   5.980   0.665 -1.3540 -2.0729 -0.6068
 5674TIP3   OH238580   4.657   5.873   0.719  0.1139  0.4607 -0.1681
 5674TIP3    H138581   4.749   5.888   0.740 -0.2432 -0.3402  2.2294
 5674TIP3    H238582   4.659   5.806   0.650  1.3149  1.1296 -0.8172
 5675TIP3   OH238583   0.596   5.174   7.222  0.1360 -0.3357  0.5979
 5675TIP3    H138584   0.672   5.231   7.217 -0.4113  0.3497 -0.0852
 5675TIP3    H238585   0.530   5.216   7.167 -0.8232 -0.7861  1.3615
 5676TIP3   OH238586   4.456   1.620   1.541  0.3122  0.1930 -0.0955
 5676TIP3    H138587   4.446   1.581   1.455  3.9449  0.4881 -0.8203
 5676TIP3    H238588   4.384   1.584   1.592 -0.0123 -2.7207 -2.3120
 5677TIP3   OH238589   4.888   6.119   8.037  0.1871 -0.2317  0.1895
 5677TIP3    H138590   4.813   6.144   8.090  0.5738 -3.0299  2.3112
 5677TIP3    H238591   4.853   6.053   7.976  0.3957  0.5819 -0.8372
 5678TIP3   OH238592   0.739   1.249   1.971 -0.0150  0.0061  0.2505
 5678TIP3    H138593   0.811   1.190   1.994  1.4156  2.2223  1.8784
 5678TIP3    H238594   0.760   1.279   1.883  1.2369  0.8191  0.8005
 5679TIP3   OH238595   5.849   3.613   2.900  0.3956  0.8055 -0.1464
 5679TIP3    H138596   5.810   3.615   2.987  0.0898  1.9179 -0.2895
 5679TIP3    H238597   5.847   3.521   2.875 -0.5972  0.6161  0.5519
 5680TIP3   OH238598   1.886   0.186   7.503 -0.4884  0.1780 -0.1094
 5680TIP3    H138599   1.937   0.246   7.557 -0.0112  0.1688 -0.5359
 5680TIP3    H238600   1.851   0.241   7.433  0.6268 -0.1643 -0.9667
 5681TIP3   OH238601   1.403   0.003   0.557 -0.4281 -0.2879 -0.6788
 5681TIP3    H138602   1.377  -0.088   0.542 -3.1957  0.5376 -1.5063
 5681TIP3    H238603   1.374   0.021   0.647 -0.8036  0.0519 -0.8677
 5682TIP3   OH238604   4.730   6.385   0.164 -0.2521  0.2884  0.2676
 5682TIP3    H138605   4.820   6.374   0.134 -0.8163 -0.3781 -1.2497
 5682TIP3    H238606   4.732   6.358   0.256  0.5612 -2.4106 -0.4638
 5683TIP3   OH238607   6.051   2.578   1.442  0.7219 -0.5012 -0.2542
 5683TIP3    H138608   6.020   2.487   1.452 -0.3454 -0.1268  0.0343
 5683TIP3    H238609   6.017   2.623   1.519 -0.5450  0.5887 -1.3850
 5684TIP3   OH238610   4.221   3.860   8.443 -0.5570  0.2424 -0.0513
 5684TIP3    H138611   4.173   3.891   8.520 -0.5276  0.3555 -0.0790
 5684TIP3    H238612   4.304   3.908   8.446 -0.3852 -0.0608  0.0780
 5685TIP3   OH238613   2.803   3.733   2.200  0.0154  0.1095 -0.2238
 5685TIP3    H138614   2.840   3.657   2.155  1.1144 -0.4867  1.5889
 5685TIP3    H238615   2.803   3.708   2.293 -1.8244  1.4204  0.1865
 5686TIP3   OH238616   4.652   5.358   1.576 -0.4043 -0.0288 -0.1300
 5686TIP3    H138617   4.661   5.380   1.484 -1.4515  0.8401 -0.0306
 5686TIP3    H238618   4.651   5.442   1.621 -3.9583 -0.1499  0.2957
 5687TIP3   OH238619   4.472   5.840   2.661 -0.3590 -0.3892  0.0508
 5687TIP3    H138620   4.442   5.900   2.729 -1.1397  1.3296 -1.7069
 5687TIP3    H238621   4.507   5.897   2.593  2.0674 -2.1094 -0.2886
 5688TIP3   OH238622   1.641   5.005   7.894 -0.0308 -0.3152 -0.5525
 5688TIP3    H138623   1.736   5.014   7.896  0.0190 -0.8919  0.9904
 5688TIP3    H238624   1.610   5.087   7.856  0.9529  1.0995  1.5280
 5689TIP3   OH238625   5.688   2.476   1.710 -0.0078 -0.4532 -0.7906
 5689TIP3    H138626   5.615   2.537   1.698 -0.4359 -1.0034 -1.0048
 5689TIP3    H238627   5.764   2.533   1.724 -0.6064  0.1233  0.2536
 5690TIP3   OH238628   2.654   5.234   1.995  0.0739  0.8031  0.3855
 5690TIP3    H138629   2.731   5.242   2.051  0.5830 -3.3190  0.5860
 5690TIP3    H238630   2.689   5.235   1.906  0.3595 -0.4723  0.4609
 5691TIP3   OH238631   2.116   2.144   0.482 -0.6390 -0.2846  0.1577
 5691TIP3    H138632   2.077   2.067   0.525  1.7372 -0.9485  1.3021
 5691TIP3    H238633   2.175   2.181   0.547  1.8980 -0.3485 -1.9141
 5692TIP3   OH238634   3.600   5.930   8.293  0.3969  0.0155 -0.0954
 5692TIP3    H138635   3.639   5.970   8.216 -0.5680 -0.0082 -0.6036
 5692TIP3    H238636   3.533   5.992   8.322 -0.5170 -0.8038 -0.3809
 5693TIP3   OH238637   4.170   2.122   2.899 -0.4051  0.5642  0.3131
 5693TIP3    H138638   4.164   2.208   2.941  1.7906 -0.4402  3.0232
 5693TIP3    H238639   4.160   2.060   2.971  2.9073 -1.3136 -0.6134
 5694TIP3   OH238640   1.235   6.320   8.301  0.0396 -0.3678 -0.4726
 5694TIP3    H138641   1.222   6.406   8.261  1.1289 -0.9147 -2.1349
 5694TIP3    H238642   1.309   6.283   8.253  0.1114 -1.9086  0.7632
 5695TIP3   OH238643   0.630   0.261   1.879 -0.3632  0.9738 -0.4204
 5695TIP3    H138644   0.662   0.342   1.838 -1.1039  1.1940 -0.5708
 5695TIP3    H238645   0.563   0.289   1.940 -1.6826  0.3827 -1.5258
 5696TIP3   OH238646   3.693   0.695   1.846 -0.0303 -0.3600 -0.2718
 5696TIP3    H138647   3.689   0.687   1.751 -0.1189 -0.7225 -0.2393
 5696TIP3    H238648   3.780   0.731   1.864 -0.1999  0.1844 -0.5196
 5697TIP3   OH238649   3.954   5.591   7.691 -0.0571  0.0692  0.0985
 5697TIP3    H138650   3.957   5.496   7.676  1.0946  0.3790 -2.0744
 5697TIP3    H238651   3.900   5.625   7.619 -0.7570  1.0560  1.0552
 5698TIP3   OH238652   3.516   1.009   3.022  0.1698  0.0576  0.4432
 5698TIP3    H138653   3.596   0.962   3.045 -0.7429 -1.5970  0.4008
 5698TIP3    H238654   3.539   1.101   3.032  2.2472 -0.3411 -0.1368
 5699TIP3   OH238655   0.242   4.663   1.726  0.0907  0.2184  0.6871
 5699TIP3    H138656   0.255   4.673   1.820 -1.7672  1.6323  0.8539
 5699TIP3    H238657   0.149   4.641   1.716 -0.0023  1.1422 -0.8582
 5700TIP3   OH238658   4.282   4.966   7.403 -0.1282 -0.1144 -0.9195
 5700TIP3    H138659   4.203   5.019   7.415 -1.1784 -1.7573 -0.2478
 5700TIP3    H238660   4.346   5.006   7.461  0.0762  2.1934 -2.6242
 5701TIP3   OH238661   4.622   4.983   1.375 -0.8698  0.3778 -0.1344
 5701TIP3    H138662   4.606   5.077   1.379  0.4701  0.6045  0.5504
 5701TIP3    H238663   4.614   4.953   1.465  2.4032  0.5662  0.3667
 5702TIP3   OH238664   2.077   5.561   7.027 -0.8598  0.6170 -0.5226
 5702TIP3    H138665   2.166   5.576   6.994 -0.2286  2.1567  1.6315
 5702TIP3    H238666   2.045   5.648   7.052 -1.8436 -0.2066  1.3681
 5703TIP3   OH238667   5.432   1.360   1.172  0.7257 -0.8722 -0.4892
 5703TIP3    H138668   5.402   1.299   1.239 -0.2447  0.0442 -0.0667
 5703TIP3    H238669   5.373   1.346   1.098  1.0364 -1.0337 -0.7099
 5704TIP3   OH238670   0.082   4.001   1.275  0.4014  0.4719 -0.7125
 5704TIP3    H138671   0.055   3.919   1.316  0.8263  1.1554  1.0133
 5704TIP3    H238672   0.012   4.022   1.214 -0.8463 -0.0162  0.5043
 5705TIP3   OH238673   1.617   2.780   2.528 -0.5969 -0.2590  0.2810
 5705TIP3    H138674   1.682   2.812   2.591 -0.7342  0.1455  0.2195
 5705TIP3    H238675   1.616   2.685   2.541  1.7928 -0.6016 -1.3866
 5706TIP3   OH238676   0.444   2.157   2.276 -0.0310 -0.2981  0.7037
 5706TIP3    H138677   0.408   2.243   2.255  0.5053 -0.2082  0.1371
 5706TIP3    H238678   0.383   2.121   2.340 -0.4297  0.3752  0.7120
 5707TIP3   OH238679   5.809   5.659   8.236  0.4154  0.2177  0.0000
 5707TIP3    H138680   5.825   5.607   8.157 -0.4345 -1.5598  0.9410
 5707TIP3    H238681   5.766   5.598   8.296 -1.5764  2.2890  0.8123
 5708TIP3   OH238682   1.662   1.112   8.401  0.2614  0.1709  0.7389
 5708TIP3    H138683   1.633   1.177   8.336  0.0230  1.0800  1.7321
 5708TIP3    H238684   1.582   1.083   8.444  0.3063 -1.1808 -0.0188
 5709TIP3   OH238685   5.845   5.141   1.226 -0.3597 -0.0654  0.7421
 5709TIP3    H138686   5.837   5.211   1.161 -0.0901 -1.1285 -0.4636
 5709TIP3    H238687   5.855   5.061   1.175 -1.0392 -1.0567  2.0916
 5710TIP3   OH238688   5.921   0.450   0.106  0.0572  0.3713 -0.1244
 5710TIP3    H138689   5.957   0.499   0.032  0.4414 -0.1780 -0.3073
 5710TIP3    H238690   5.981   0.376   0.117 -1.1514 -0.7315 -0.6112
 5711TIP3   OH238691   1.447   4.621   8.087 -0.0547 -0.2006  0.5715
 5711TIP3    H138692   1.427   4.592   7.998  1.6464  0.5751 -0.1103
 5711TIP3    H238693   1.369   4.599   8.138 -0.7285 -1.4374 -0.9250
 5712TIP3   OH238694   4.314   4.962   2.195 -0.0557  0.6456 -0.4023
 5712TIP3    H138695   4.321   4.880   2.146 -2.1794  0.1444  0.0331
 5712TIP3    H238696   4.278   5.024   2.131  0.0343  0.8097 -0.2927
 5713TIP3   OH238697   3.277   5.498   7.736 -0.2648  0.5973  0.0474
 5713TIP3    H138698   3.332   5.479   7.812 -0.1538  1.8979  0.3258
 5713TIP3    H238699   3.286   5.422   7.679 -0.2092 -0.3224  1.2522
 5714TIP3   OH238700   6.074   0.121   0.497 -0.3300 -0.3822  0.6730
 5714TIP3    H138701   6.142   0.123   0.565 -0.4970 -1.1458  0.8715
 5714TIP3    H238702   6.076   0.031   0.465 -1.9269 -0.6959  1.3705
 5715TIP3   OH238703   4.546   1.801   7.843  0.5623 -0.0584 -0.5455
 5715TIP3    H138704   4.455   1.798   7.873  0.5054  2.7979 -0.1757
 5715TIP3    H238705   4.540   1.782   7.749 -0.6337  1.4356 -0.8047
 5716TIP3   OH238706   6.224   5.724   2.360  0.6913  0.1044 -0.3630
 5716TIP3    H138707   6.220   5.818   2.342 -0.2508 -0.0433 -0.9719
 5716TIP3    H238708   6.202   5.682   2.277  1.7100 -0.6726 -0.2591
 5717TIP3   OH238709   6.835   3.013   7.704  0.6195  0.0155 -0.1012
 5717TIP3    H138710   6.758   2.961   7.681  0.1523  0.6279  0.0388
 5717TIP3    H238711   6.881   2.961   7.769  0.4996 -0.5078 -0.4291
 5718TIP3   OH238712   4.553   5.808   0.438 -0.1866  0.0906 -0.1252
 5718TIP3    H138713   4.598   5.882   0.479 -0.7051 -1.3659  3.4324
 5718TIP3    H238714   4.617   5.771   0.378  1.2763  1.4520  0.5262
 5719TIP3   OH238715   0.085   0.171   7.931  0.1598 -0.1376  0.2086
 5719TIP3    H138716   0.067   0.114   8.005 -0.3160  1.3752  1.2952
 5719TIP3    H238717   0.108   0.255   7.970  1.0533  0.3827 -1.3406
 5720TIP3   OH238718   2.516   2.392   1.208 -0.7637 -0.5547  0.1543
 5720TIP3    H138719   2.434   2.435   1.186 -0.7128  0.4767  1.7765
 5720TIP3    H238720   2.566   2.391   1.126 -1.2504  1.4188 -0.2181
 5721TIP3   OH238721   1.440   0.909   0.297 -0.2147 -0.5102 -0.7616
 5721TIP3    H138722   1.499   0.859   0.353 -0.3832  1.0300  0.8664
 5721TIP3    H238723   1.360   0.919   0.348 -0.4270  0.8113 -1.3082
 5722TIP3   OH238724   5.368   0.354   2.839  0.0411 -0.0883  0.2656
 5722TIP3    H138725   5.295   0.408   2.869  1.4207  1.5042  0.9496
 5722TIP3    H238726   5.393   0.393   2.755 -0.2683 -1.0080 -0.2616
 5723TIP3   OH238727   2.188   5.924   1.231  0.2734 -0.4241  0.2533
 5723TIP3    H138728   2.224   5.903   1.317 -1.6090  1.0263  1.4683
 5723TIP3    H238729   2.186   6.020   1.228 -0.7505 -0.4538 -0.8989
 5724TIP3   OH238730   5.002   6.036   7.267 -0.2734 -0.5657 -0.7041
 5724TIP3    H138731   5.054   6.043   7.187 -0.4717 -0.6872 -0.8442
 5724TIP3    H238732   4.914   6.015   7.237 -0.8040  1.3333 -0.5730
 5725TIP3   OH238733   2.514   0.766   2.010  0.4120 -0.4317 -0.8461
 5725TIP3    H138734   2.453   0.695   1.989  2.4398 -2.0679 -1.6283
 5725TIP3    H238735   2.497   0.786   2.102 -0.4742 -1.6840 -0.7074
 5726TIP3   OH238736   5.283   3.290   1.735  0.1611 -0.2008 -0.3949
 5726TIP3    H138737   5.366   3.299   1.688 -1.1532 -0.6027 -2.9690
 5726TIP3    H238738   5.244   3.377   1.731  0.1361 -0.1812  0.1904
 5727TIP3   OH238739   1.627   4.457   0.193  1.0061 -0.0204 -0.1423
 5727TIP3    H138740   1.671   4.509   0.260  3.3142  1.3408 -2.4876
 5727TIP3    H238741   1.649   4.366   0.214 -1.0038  0.0403  2.6272
 5728TIP3   OH238742   4.273   6.242   8.173  0.1903 -0.1796  0.4182
 5728TIP3    H138743   4.178   6.243   8.167  0.2137 -0.4170 -0.0135
 5728TIP3    H238744   4.298   6.335   8.168 -0.0486 -0.0639  1.1689
 5729TIP3   OH238745   3.825   1.014   1.695  0.4590  0.1256 -0.3270
 5729TIP3    H138746   3.734   1.018   1.724  0.8387  2.2359  0.8216
 5729TIP3    H238747   3.874   1.051   1.768  2.2517 -0.9214 -0.9485
 5730TIP3   OH238748   0.748   0.744   3.087  0.1641  0.3842  0.1212
 5730TIP3    H138749   0.707   0.827   3.061  0.4323  0.2073 -0.8781
 5730TIP3    H238750   0.677   0.696   3.132  0.0013  1.1288  0.6935
 5731TIP3   OH238751   5.851   2.109   0.556 -0.1814 -0.3357 -0.1471
 5731TIP3    H138752   5.873   2.116   0.463 -0.7482  0.2417 -0.2415
 5731TIP3    H238753   5.836   2.199   0.584  0.6447 -0.4401  0.6794
 5732TIP3   OH238754   3.992   2.852   8.368 -0.5758  0.0098 -0.2031
 5732TIP3    H138755   3.932   2.924   8.349 -0.6912  0.5478  1.9116
 5732TIP3    H238756   3.935   2.776   8.378 -0.9200  0.4181  1.2846
 5733TIP3   OH238757   0.554   0.668   7.717  0.2082 -0.4225  0.0089
 5733TIP3    H138758   0.592   0.668   7.629 -0.6203  2.9810 -0.4562
 5733TIP3    H238759   0.459   0.665   7.702  0.0483  0.6899  0.7408
 5734TIP3   OH238760   2.257   4.919   0.803 -0.3307  0.1052 -0.1166
 5734TIP3    H138761   2.223   4.929   0.714  1.2943 -2.2961 -1.1125
 5734TIP3    H238762   2.188   4.870   0.849 -1.4867  1.9594  0.2359
 5735TIP3   OH238763   1.557   3.006   7.995  0.0196  0.0606 -0.0322
 5735TIP3    H138764   1.597   3.085   8.032 -0.4284  0.0829  0.4226
 5735TIP3    H238765   1.499   2.974   8.064  1.2595 -1.4858  0.3281
 5736TIP3   OH238766   5.942   1.650   7.812 -0.1783  0.2029 -0.0501
 5736TIP3    H138767   5.922   1.637   7.720 -0.4799 -1.1615  0.1942
 5736TIP3    H238768   5.866   1.698   7.846 -0.1063  0.6278 -0.4739
 5737TIP3   OH238769   5.027   3.724   2.198  0.2538  0.4035 -0.0313
 5737TIP3    H138770   5.003   3.814   2.178  3.1363  1.6199  1.3950
 5737TIP3    H238771   5.103   3.706   2.142  0.6912 -0.5557  0.8247
 5738TIP3   OH238772   3.186   5.451   8.223  0.0867 -0.0886 -0.3219
 5738TIP3    H138773   3.151   5.533   8.189  0.5274  0.0898 -0.3536
 5738TIP3    H238774   3.109   5.400   8.248 -0.1702  1.2458  1.8737
 5739TIP3   OH238775   5.864   1.992   2.479  0.2649 -0.2068 -0.0335
 5739TIP3    H138776   5.814   2.060   2.434 -0.6667 -0.9676 -0.1700
 5739TIP3    H238777   5.900   1.938   2.409  1.6872  0.5935  0.0453
 5740TIP3   OH238778   6.502   4.899   8.393 -0.7306  0.3666 -0.4055
 5740TIP3    H138779   6.517   4.844   8.316 -0.6398  0.8152 -0.7132
 5740TIP3    H238780   6.416   4.937   8.379 -1.2201 -0.4513  0.2800
 5741TIP3   OH238781   3.237   4.845   2.796  0.1151  0.3382 -0.6614
 5741TIP3    H138782   3.194   4.876   2.876  0.1720  1.6941 -1.1440
 5741TIP3    H238783   3.178   4.871   2.726  0.8390  0.5711 -1.1890
 5742TIP3   OH238784   1.654   0.083   0.470  0.1631  0.1006  0.2475
 5742TIP3    H138785   1.576   0.035   0.498  2.1801 -2.2322  2.3002
 5742TIP3    H238786   1.689   0.122   0.550  0.8730  1.5172 -0.7147
 5743TIP3   OH238787   5.379   1.816   2.659  0.4542 -0.5648  0.6686
 5743TIP3    H138788   5.302   1.760   2.651  1.7054 -2.1626 -1.6812
 5743TIP3    H238789   5.345   1.902   2.684 -2.0527 -1.2472 -0.1685
 5744TIP3   OH238790   2.314   0.373   0.526 -0.2013  0.1249  0.2466
 5744TIP3    H138791   2.314   0.295   0.581  0.2898 -0.0025  0.0694
 5744TIP3    H238792   2.407   0.392   0.510 -0.3323  0.3140 -0.3227
 5745TIP3   OH238793   4.532   2.153   0.284  0.5942  0.0992 -0.1152
 5745TIP3    H138794   4.589   2.225   0.309 -0.2518  1.1398 -1.0456
 5745TIP3    H238795   4.489   2.126   0.365  0.4832  1.0454  0.1485
 5746TIP3   OH238796   1.560   2.697   0.910  0.3707 -0.0860  0.0171
 5746TIP3    H138797   1.534   2.644   0.835 -0.4458 -0.1775  0.3566
 5746TIP3    H238798   1.622   2.642   0.959 -1.3490 -1.2442  1.0075
 5747TIP3   OH238799   1.931   1.502   0.289 -0.8845  0.4226  0.1080
 5747TIP3    H138800   1.842   1.498   0.323 -1.1723 -1.2122 -0.7410
 5747TIP3    H238801   1.932   1.441   0.215  1.3573 -0.8954  1.0941
 5748TIP3   OH238802   2.849   3.123   7.633 -0.2321  0.5081  0.0713
 5748TIP3    H138803   2.878   3.041   7.673  0.7378  1.2669  0.9409
 5748TIP3    H238804   2.777   3.096   7.575 -1.8113 -0.6336  2.3809
 5749TIP3   OH238805   3.567   0.790   0.627  0.0004  0.6116 -0.4621
 5749TIP3    H138806   3.503   0.854   0.595  0.0482 -0.1245 -2.1398
 5749TIP3    H238807   3.525   0.705   0.614  0.3911  0.2232  0.6639
 5750TIP3   OH238808   0.465   6.044   0.782  0.0131 -0.6813  0.7201
 5750TIP3    H138809   0.407   6.096   0.838 -0.5513  0.4372 -0.8374
 5750TIP3    H238810   0.519   6.108   0.737  0.7182 -1.5802  0.2534
 5751TIP3   OH238811   3.430   6.516   2.334 -0.3610 -0.0297 -0.5564
 5751TIP3    H138812   3.476   6.526   2.251  0.7132  1.4451  0.1718
 5751TIP3    H238813   3.377   6.437   2.323 -0.1272  0.0434 -2.5700
 5752TIP3   OH238814   0.670   4.552   1.692 -0.1788 -0.6176  0.5180
 5752TIP3    H138815   0.595   4.508   1.653  0.9477 -1.9491 -0.2455
 5752TIP3    H238816   0.736   4.554   1.622  1.9549 -3.1959  2.2659
 5753TIP3   OH238817   6.552   5.432   0.343 -0.0436 -0.8583 -0.6096
 5753TIP3    H138818   6.586   5.389   0.421  0.5734 -0.6474 -0.7563
 5753TIP3    H238819   6.627   5.438   0.284  0.0800  1.0148 -0.3322
 5754TIP3   OH238820   6.712   0.744   2.988  0.1563  0.1126  0.3746
 5754TIP3    H138821   6.732   0.652   2.969 -0.1477 -0.0223  0.7161
 5754TIP3    H238822   6.783   0.792   2.945 -1.1441 -0.0961 -2.2465
 5755TIP3   OH238823   4.585   3.390   1.174 -0.3216 -0.2294  0.5664
 5755TIP3    H138824   4.653   3.457   1.168  0.5527 -0.9421  1.8981
 5755TIP3    H238825   4.612   3.336   1.248 -1.5433 -1.4506  0.1562
 5756TIP3   OH238826   6.478   1.325   2.254  0.4282 -0.6331 -0.2965
 5756TIP3    H138827   6.551   1.316   2.193  0.6678  0.7194 -0.2528
 5756TIP3    H238828   6.400   1.320   2.200  0.5881 -1.0490 -0.4899
 5757TIP3   OH238829   5.843   5.523   8.643 -0.0973  0.3620 -0.0880
 5757TIP3    H138830   5.931   5.520   8.604 -0.5954  2.0304 -1.4750
 5757TIP3    H238831   5.847   5.593   8.708 -0.3081  0.1912  0.1117
 5758TIP3   OH238832   0.654   2.973   2.120 -0.5707 -0.1299  0.6260
 5758TIP3    H138833   0.692   2.887   2.136 -1.9562 -1.2889 -1.7757
 5758TIP3    H238834   0.664   3.019   2.203  2.6330 -1.5941  1.2312
 5759TIP3   OH238835   2.578   5.607   1.792 -0.1176 -0.3762 -0.2108
 5759TIP3    H138836   2.580   5.697   1.762 -1.5746 -1.1212 -2.9044
 5759TIP3    H238837   2.647   5.602   1.859  0.6311  2.4628 -0.6440
 5760TIP3   OH238838   3.139   5.042   1.959  0.0514  0.4589 -0.0564
 5760TIP3    H138839   3.069   5.055   2.024  0.6702  2.6077  0.2737
 5760TIP3    H238840   3.216   5.083   1.999  1.0145 -0.1438 -1.2322
 5761TIP3   OH238841   0.605   4.961   1.507 -0.2192  0.7066  0.2987
 5761TIP3    H138842   0.619   5.029   1.442  0.3962  0.3093  0.0143
 5761TIP3    H238843   0.554   4.895   1.462  1.5757 -0.3299 -0.3075
 5762TIP3   OH238844   2.223   1.134   1.856  0.1552  0.2029 -0.1047
 5762TIP3    H138845   2.197   1.073   1.925 -1.8551  1.3799  0.2579
 5762TIP3    H238846   2.178   1.103   1.778  0.9711 -0.0691 -0.4822
 5763TIP3   OH238847   5.343   0.069   0.734  0.0013 -0.2968  0.3358
 5763TIP3    H138848   5.310  -0.016   0.763 -0.0920 -0.4303 -0.1610
 5763TIP3    H238849   5.316   0.076   0.642  1.7974 -0.6418 -0.2569
 5764TIP3   OH238850   6.675   3.724   2.262  0.1817  0.5855 -0.4053
 5764TIP3    H138851   6.743   3.790   2.275  0.3353  0.1455  1.3252
 5764TIP3    H238852   6.600   3.757   2.312 -0.9048  1.0512 -2.2585
 5765TIP3   OH238853   3.207   0.397   0.604  0.4247  0.1017 -0.2357
 5765TIP3    H138854   3.208   0.335   0.532 -1.1894 -0.6790  0.3543
 5765TIP3    H238855   3.216   0.343   0.683  0.0076  0.7134  0.2450
 5766TIP3   OH238856   5.650   1.980   0.748  0.0573  0.5559  0.0285
 5766TIP3    H138857   5.728   2.021   0.710  0.1652  0.0051 -0.3517
 5766TIP3    H238858   5.675   1.889   0.761  0.0068  0.6991  1.3634
 5767TIP3   OH238859   2.925   5.388   0.313  0.0271  0.3279  0.2031
 5767TIP3    H138860   2.923   5.383   0.409 -0.3077  1.3688  0.2689
 5767TIP3    H238861   3.016   5.369   0.289 -0.1721 -1.2882  0.6164
 5768TIP3   OH238862   1.173   4.026   8.528  0.2685  0.0116  0.0472
 5768TIP3    H138863   1.199   4.028   8.436  0.9905 -1.7519  0.1734
 5768TIP3    H238864   1.077   4.025   8.526  0.2424 -2.1622 -0.8270
 5769TIP3   OH238865   2.798   5.436   7.540  0.6660  0.5608 -0.3983
 5769TIP3    H138866   2.886   5.452   7.504  1.0942 -1.0257 -0.1403
 5769TIP3    H238867   2.739   5.452   7.466  1.3904 -0.7847 -1.3225
 5770TIP3   OH238868   0.194   0.609   2.060 -0.0663  0.2256  0.0591
 5770TIP3    H138869   0.287   0.619   2.043 -0.2559  0.6832 -0.7755
 5770TIP3    H238870   0.180   0.649   2.146  0.7322 -1.1144  0.8306
 5771TIP3   OH238871   1.634   1.835   8.440  0.8120  0.1695  0.1909
 5771TIP3    H138872   1.697   1.764   8.441  1.8714  1.0595  2.1993
 5771TIP3    H238873   1.586   1.826   8.522 -0.9636  0.1867 -0.7759
 5772TIP3   OH238874   2.260   0.984   7.098  0.3438  0.3226 -0.4399
 5772TIP3    H138875   2.296   0.898   7.075  1.1263  1.0655 -2.2718
 5772TIP3    H238876   2.165   0.973   7.097  0.4144 -0.3258 -1.6386
 5773TIP3   OH238877   1.339   6.232   2.041  0.4678 -0.3385  0.5163
 5773TIP3    H138878   1.409   6.243   1.977 -0.0539 -0.2055 -0.0467
 5773TIP3    H238879   1.378   6.179   2.111  0.7238 -1.4981 -0.4620
 5774TIP3   OH238880   0.361   5.922   0.545  0.0783 -0.1138 -0.0316
 5774TIP3    H138881   0.445   5.881   0.524 -0.3073 -1.2462  0.4964
 5774TIP3    H238882   0.377   5.969   0.627  0.1574 -0.5170  0.1902
 5775TIP3   OH238883   2.169   5.217   2.239 -0.1794 -0.1481  0.0112
 5775TIP3    H138884   2.142   5.196   2.150 -1.5605  0.3792  0.2863
 5775TIP3    H238885   2.215   5.138   2.270 -0.8171 -0.8115 -0.7145
 5776TIP3   OH238886   5.392   2.995   2.725  0.0826  0.7331 -0.0601
 5776TIP3    H138887   5.346   2.915   2.702  0.9307  0.4415 -0.7746
 5776TIP3    H238888   5.484   2.970   2.730  0.8787  2.2717 -3.6482
 5777TIP3   OH238889   4.706   0.379   3.267 -0.1450 -0.5199  0.5966
 5777TIP3    H138890   4.771   0.418   3.326  1.8163 -1.8438 -0.6005
 5777TIP3    H238891   4.701   0.288   3.295 -0.7509 -0.6622  0.0248
 5778TIP3   OH238892   5.748   4.402   8.552 -0.8162  0.1882 -0.7614
 5778TIP3    H138893   5.764   4.319   8.597 -1.9752  0.2311 -0.2546
 5778TIP3    H238894   5.836   4.439   8.540 -0.1338 -1.7232 -2.2302
 5779TIP3   OH238895   0.595   1.734   8.533  0.0459 -0.7375  0.2150
 5779TIP3    H138896   0.690   1.733   8.545  0.3931  1.4224 -1.6996
 5779TIP3    H238897   0.574   1.646   8.501  1.5180 -0.9705 -0.1705
 5780TIP3   OH238898   2.486   4.912   8.588 -0.2848 -0.4635  0.2391
 5780TIP3    H138899   2.569   4.891   8.544 -1.4147 -2.1943 -1.2396
 5780TIP3    H238900   2.502   4.996   8.631  1.8067 -0.0619 -1.1568
 5781TIP3   OH238901   0.760   0.229   1.640  0.0801 -0.0812  0.7242
 5781TIP3    H138902   0.789   0.137   1.632 -2.7474 -1.0257  0.2860
 5781TIP3    H238903   0.713   0.232   1.723 -0.2233  0.8698  0.5297
 5782TIP3   OH238904   1.720   5.921   2.652 -0.4112  0.0304 -0.0091
 5782TIP3    H138905   1.802   5.958   2.686  0.3598  0.1744 -1.9223
 5782TIP3    H238906   1.745   5.878   2.570 -2.2772  0.2223 -0.7141
 5783TIP3   OH238907   0.093   5.485   1.578  0.3783 -0.3708 -0.4783
 5783TIP3    H138908   0.109   5.535   1.658 -1.2025 -1.4411  0.5600
 5783TIP3    H238909   0.031   5.538   1.529  0.2444 -0.3891 -0.3280
 5784TIP3   OH238910   0.773   5.784   1.688 -0.3448  0.5347  0.4774
 5784TIP3    H138911   0.700   5.728   1.712 -0.7520  0.9359  0.1948
 5784TIP3    H238912   0.831   5.784   1.765 -0.3311 -0.2736  0.4731
 5785TIP3   OH238913   5.044   1.369   2.240 -0.1130  0.1623  0.0250
 5785TIP3    H138914   5.108   1.423   2.194  0.9913 -0.8762  0.2804
 5785TIP3    H238915   5.096   1.300   2.282 -1.3061 -0.1751  1.0343
 5786TIP3   OH238916   4.809   6.701   7.822 -0.0520 -0.7435  0.2843
 5786TIP3    H138917   4.767   6.771   7.873 -2.0909 -0.2550 -1.8821
 5786TIP3    H238918   4.874   6.746   7.769  1.1322 -1.0659  1.4068
 5787TIP3   OH238919   6.012   4.229   7.678 -0.2159 -0.0590  0.2669
 5787TIP3    H138920   6.071   4.171   7.726 -2.7940 -0.7918  2.8390
 5787TIP3    H238921   6.054   4.315   7.683  1.0278 -0.6865  1.2926
 5788TIP3   OH238922   3.382   6.615   7.481 -0.3140  0.1057 -0.4008
 5788TIP3    H138923   3.424   6.681   7.426  0.2575 -0.6232 -0.8622
 5788TIP3    H238924   3.295   6.604   7.443 -0.2146  0.2042 -0.6616
 5789TIP3   OH238925   4.458   2.771   3.748  0.3311  0.7314  0.1518
 5789TIP3    H138926   4.481   2.810   3.663  0.8030  0.5360  0.1881
 5789TIP3    H238927   4.363   2.777   3.752  0.1066 -1.0860 -1.2842
 5790TIP3   OH238928   5.130   6.557   2.027 -0.0165 -0.2726 -0.4673
 5790TIP3    H138929   5.047   6.549   2.076  0.8887 -0.1206  1.1726
 5790TIP3    H238930   5.196   6.522   2.087  1.1481 -0.1793 -1.6642
 5791TIP3   OH238931   2.268   2.913   1.788 -0.0658 -0.2010 -0.8346
 5791TIP3    H138932   2.236   3.002   1.802 -0.0466 -0.3429  0.1476
 5791TIP3    H238933   2.344   2.924   1.731 -0.0515  0.4173 -0.7098
 5792TIP3   OH238934   3.303   0.634   8.198  0.3962  0.0029  0.4065
 5792TIP3    H138935   3.281   0.547   8.165 -0.6949 -0.0123  1.1102
 5792TIP3    H238936   3.397   0.642   8.187  0.0651  0.2902 -3.3963
 5793TIP3   OH238937   5.952   4.046   2.409  0.4092  0.3296 -0.4297
 5793TIP3    H138938   5.998   3.978   2.458  2.0490  1.0653 -0.8758
 5793TIP3    H238939   5.939   4.117   2.472 -1.6880 -0.4929  0.1559
 5794TIP3   OH238940   1.585   6.347   2.220  0.0157  0.0652  0.4045
 5794TIP3    H138941   1.610   6.411   2.154  1.5697 -2.4475 -1.5755
 5794TIP3    H238942   1.664   6.295   2.236 -1.1036 -1.2492  2.0998
 5795TIP3   OH238943   3.094   2.015   1.776  0.0196  0.1925 -0.0361
 5795TIP3    H138944   3.174   1.997   1.825  0.3375 -1.7631 -1.1599
 5795TIP3    H238945   3.049   2.081   1.827  1.0894 -0.5861  2.0217
 5796TIP3   OH238946   2.647   3.149   2.409  0.3531  0.3299  0.2714
 5796TIP3    H138947   2.661   3.180   2.320  2.1436 -1.5767 -0.1946
 5796TIP3    H238948   2.573   3.201   2.442 -0.3915  1.0467 -2.3170
 5797TIP3   OH238949   3.493   1.240   0.548 -0.1789  0.3057 -0.4619
 5797TIP3    H138950   3.559   1.308   0.564 -0.3594  0.9389 -2.2768
 5797TIP3    H238951   3.412   1.288   0.532 -0.7416 -0.4229  0.0845
 5798TIP3   OH238952   6.109   3.575   2.569  0.1276  0.2947 -0.1242
 5798TIP3    H138953   6.093   3.497   2.621  0.6499  0.4570  0.2823
 5798TIP3    H238954   6.158   3.634   2.626  1.0832  0.3057 -0.9254
 5799TIP3   OH238955   6.294   1.594   7.908  0.0470  0.2865 -0.0142
 5799TIP3    H138956   6.340   1.594   7.824 -0.2306  0.3349 -0.1637
 5799TIP3    H238957   6.259   1.682   7.917  0.4562  0.4185  0.3610
 5800TIP3   OH238958   4.416   6.786   2.014 -0.4289 -0.4820  0.4085
 5800TIP3    H138959   4.360   6.709   2.009 -0.3264 -0.5666  0.5443
 5800TIP3    H238960   4.470   6.783   1.935 -1.0696 -0.0416 -0.0577
 5801TIP3   OH238961   5.382   3.123   8.497 -0.1483 -0.5655  0.5267
 5801TIP3    H138962   5.374   3.080   8.582  0.4866 -0.4420  0.6515
 5801TIP3    H238963   5.303   3.176   8.489  0.1098 -0.0551  1.3376
 5802TIP3   OH238964   2.048   5.795   1.031 -0.1007  0.0644 -0.4692
 5802TIP3    H138965   2.096   5.848   1.095 -0.6731  0.9206 -0.7318
 5802TIP3    H238966   2.089   5.709   1.036  1.7772  0.8603 -0.9830
 5803TIP3   OH238967   4.380   6.272   3.248  0.0540  0.6765 -0.6183
 5803TIP3    H138968   4.464   6.264   3.292 -0.5739  2.7324  1.0891
 5803TIP3    H238969   4.398   6.242   3.158  2.0927 -0.7478  0.1739
 5804TIP3   OH238970   1.529   6.055   0.041  0.5333  0.2056  0.0754
 5804TIP3    H138971   1.517   5.962   0.064  0.7998  0.2239  0.2889
 5804TIP3    H238972   1.612   6.079   0.081  0.3984  0.5778  0.1367
 5805TIP3   OH238973   0.043   4.262   2.908 -0.1453  0.2839 -0.0445
 5805TIP3    H138974   0.058   4.344   2.956  0.5515 -0.8823  1.8199
 5805TIP3    H238975  -0.034   4.224   2.950 -1.3580  0.6112 -1.8456
 5806TIP3   OH238976   5.469   1.025   0.004  0.5504  0.0526 -0.0179
 5806TIP3    H138977   5.382   0.995   0.028  0.6185 -0.1608 -0.0372
 5806TIP3    H238978   5.511   1.049   0.087  0.4250  0.2849 -0.0220
 5807TIP3   OH238979   6.751   1.885   1.996  0.0680 -0.0507 -0.1588
 5807TIP3    H138980   6.717   1.953   2.055 -1.5868  0.3906 -1.5230
 5807TIP3    H238981   6.772   1.932   1.915 -0.1540 -1.0159 -0.7922
 5808TIP3   OH238982   1.618   5.706   8.644  0.2613  0.0058 -0.6254
 5808TIP3    H138983   1.547   5.721   8.707  0.6409 -2.8103  0.6552
 5808TIP3    H238984   1.603   5.617   8.612  2.5778 -0.2653 -1.1470
 5809TIP3   OH238985   3.743   0.874   3.088  0.5097  0.2483 -0.6745
 5809TIP3    H138986   3.762   0.815   3.161  0.9260  1.2314  0.0388
 5809TIP3    H238987   3.760   0.822   3.009 -0.8586 -1.1263 -0.1044
 5810TIP3   OH238988   0.387   2.453   2.857  0.5398 -0.1388  0.3184
 5810TIP3    H138989   0.400   2.548   2.864 -0.7986  0.1070 -0.1718
 5810TIP3    H238990   0.348   2.441   2.770  0.0023 -1.0430  0.6716
 5811TIP3   OH238991   2.567   6.699   1.096 -0.1518 -0.0264 -0.0779
 5811TIP3    H138992   2.595   6.748   1.173  0.5001 -2.0024  0.9858
 5811TIP3    H238993   2.647   6.661   1.060 -0.4778  0.6408 -1.6080
 5812TIP3   OH238994   3.116   6.560   7.399  0.2942 -0.1165 -0.0695
 5812TIP3    H138995   3.031   6.584   7.436 -0.1059 -0.9001 -0.4506
 5812TIP3    H238996   3.110   6.585   7.307  0.0870 -1.1042 -0.3349
 5813TIP3   OH238997   1.605   5.929   7.615 -0.2844 -0.4805  0.2975
 5813TIP3    H138998   1.569   5.890   7.535 -1.1818  0.5805  0.1438
 5813TIP3    H238999   1.527   5.959   7.663  0.3245  2.1049 -0.1446
 5814TIP3   OH239000   5.414   0.788   0.248 -0.0197  0.4953 -0.0649
 5814TIP3    H139001   5.456   0.870   0.274  3.5385 -1.0370 -0.4361
 5814TIP3    H239002   5.357   0.812   0.175  1.1022  2.6190 -0.3047
 5815TIP3   OH239003   6.369   1.728   0.261 -0.1410  0.4414  0.1125
 5815TIP3    H139004   6.444   1.727   0.202 -1.8112  2.4809 -2.2007
 5815TIP3    H239005   6.295   1.705   0.206 -1.3658 -1.2046  2.2716
 5816TIP3   OH239006   2.937   4.152   7.249 -0.3257 -0.2390 -0.6338
 5816TIP3    H139007   3.009   4.196   7.295 -1.4165  1.5537 -0.5706
 5816TIP3    H239008   2.947   4.060   7.273  1.8523 -0.0421 -0.5073
 5817TIP3   OH239009   3.707   5.266   1.387 -0.5067 -0.0061 -0.3488
 5817TIP3    H139010   3.680   5.262   1.478  0.0144 -1.1639 -0.2168
 5817TIP3    H239011   3.708   5.174   1.359  1.7070  0.1001 -0.7802
 5818TIP3   OH239012   4.082   2.784   1.703 -0.2302  0.1860  0.4775
 5818TIP3    H139013   4.082   2.864   1.755 -0.4024  0.1272  0.5713
 5818TIP3    H239014   4.172   2.751   1.709 -0.1142  0.4706  0.2813
 5819TIP3   OH239015   3.864   4.192   1.797  0.2760  0.7631 -0.2626
 5819TIP3    H139016   3.900   4.110   1.761  2.6591  2.0556 -1.0874
 5819TIP3    H239017   3.785   4.166   1.843  0.7761 -1.9596 -0.7864
 5820TIP3   OH239018   5.948   1.578   1.267  0.1035  0.0539 -0.2615
 5820TIP3    H139019   5.855   1.566   1.286  0.0257 -0.3657 -0.8662
 5820TIP3    H239020   5.965   1.520   1.193  0.6508  0.7705 -0.7153
 5821TIP3   OH239021   6.553   0.716   1.159  0.0260 -0.7866 -0.1573
 5821TIP3    H139022   6.545   0.738   1.251 -0.1760 -0.8911 -0.1480
 5821TIP3    H239023   6.638   0.750   1.133 -1.0959  1.8795 -0.6720
 5822TIP3   OH239024   6.648   2.963   8.270 -0.5535  0.6528  0.2191
 5822TIP3    H139025   6.663   3.015   8.191  0.1384 -1.0952 -0.8631
 5822TIP3    H239026   6.730   2.969   8.318  0.5096 -1.3936 -1.1642
 5823TIP3   OH239027   0.002   5.826   0.369 -0.9118  0.0364  0.1440
 5823TIP3    H139028   0.037   5.799   0.454 -0.5933  0.5398  0.1791
 5823TIP3    H239029  -0.086   5.789   0.367 -1.4376  1.1299  1.2686
 5824TIP3   OH239030   4.219   2.928   1.103  0.3320  0.1924 -0.6625
 5824TIP3    H139031   4.168   2.912   1.024  0.0992 -1.6782 -0.1679
 5824TIP3    H239032   4.288   2.861   1.102  1.1315  0.9643  0.0737
 5825TIP3   OH239033   2.144   1.662   8.114  0.0435 -0.9182  0.0576
 5825TIP3    H139034   2.104   1.602   8.051 -1.6825  0.3031 -0.0948
 5825TIP3    H239035   2.073   1.684   8.175  0.9149  0.1211  0.7335
 5826TIP3   OH239036   5.343   0.138   0.179  0.5515  0.2276  0.2912
 5826TIP3    H139037   5.353   0.141   0.275 -1.3956  1.6735  0.5219
 5826TIP3    H239038   5.248   0.134   0.165  0.8242 -0.5660 -1.5969
 5827TIP3   OH239039   0.596   2.818   7.202  0.0470 -0.0826  0.6154
 5827TIP3    H139040   0.673   2.808   7.145  1.5044 -1.7575  2.7154
 5827TIP3    H239041   0.627   2.870   7.276 -1.6384  1.5250  0.2711
 5828TIP3   OH239042   0.441   3.939   8.561 -0.2110  0.3205  0.7615
 5828TIP3    H139043   0.507   3.990   8.609 -0.8876  0.2243  1.8232
 5828TIP3    H239044   0.388   3.898   8.629 -1.3783  0.4016 -0.0687
 5829TIP3   OH239045   5.230   6.153   8.181  0.2488 -0.5092 -0.0350
 5829TIP3    H139046   5.194   6.187   8.263  0.0277  1.7430 -0.9952
 5829TIP3    H239047   5.324   6.148   8.196  0.4628  1.9206 -0.2617
 5830TIP3   OH239048   0.093   5.717   8.524 -0.1861  0.3994  0.7032
 5830TIP3    H139049   0.031   5.683   8.460  1.2517  0.3043 -0.7124
 5830TIP3    H239050   0.108   5.808   8.498 -0.0144  0.5299  1.2446
 5831TIP3   OH239051   5.581   0.069   0.486  0.1541  0.3625  0.4667
 5831TIP3    H139052   5.667   0.026   0.487  0.4281  0.8724 -0.5601
 5831TIP3    H239053   5.531   0.021   0.421  0.8168  2.2016 -1.5262
 5832TIP3   OH239054   6.512   4.972   0.063  0.2099  0.1561  0.4618
 5832TIP3    H139055   6.559   4.924  -0.005  1.5423 -0.3551  1.6919
 5832TIP3    H239056   6.529   5.064   0.044  1.1058 -0.0027  0.4552
 5833TIP3   OH239057   4.570   3.582   3.547  0.0854  0.3062 -0.1360
 5833TIP3    H139058   4.531   3.668   3.531  1.0318  0.5539 -1.3338
 5833TIP3    H239059   4.529   3.525   3.482  0.3575  0.1484 -0.1691
 5834TIP3   OH239060   1.231   1.626   2.666  0.6685 -0.0476  0.8089
 5834TIP3    H139061   1.150   1.607   2.713  0.7513  0.2766  1.0865
 5834TIP3    H239062   1.284   1.676   2.728  1.5437 -1.2190  1.0336
 5835TIP3   OH239063   1.561   2.262   1.877  0.3211 -0.1133  0.0010
 5835TIP3    H139064   1.499   2.263   1.804 -2.2597  1.5670  2.0434
 5835TIP3    H239065   1.570   2.169   1.898  0.9788 -0.6271 -2.2550
 5836TIP3   OH239066   3.696   4.614   2.320 -0.3037 -0.3441 -0.4324
 5836TIP3    H139067   3.601   4.623   2.312 -0.1983  0.0930 -1.2742
 5836TIP3    H239068   3.710   4.520   2.336 -0.9473 -0.2292  1.0485
 5837TIP3   OH239069   5.987   2.056   8.035 -0.0314  0.1939  0.6567
 5837TIP3    H139070   5.992   2.085   7.944 -0.3007 -0.9620  0.2494
 5837TIP3    H239071   5.895   2.067   8.059 -0.4342 -1.4894  0.0569
 5838TIP3   OH239072   2.078   6.654   1.096  0.1586 -0.3396  0.0395
 5838TIP3    H139073   2.048   6.671   1.186 -0.5711 -1.6036  0.0570
 5838TIP3    H239074   2.166   6.692   1.093 -1.1323  2.9841  0.1587
 5839TIP3   OH239075   4.263   3.608   8.346 -0.4081  0.1191  0.3155
 5839TIP3    H139076   4.198   3.565   8.401  0.1644  1.0525  1.7739
 5839TIP3    H239077   4.276   3.694   8.386  1.1296  0.2662 -0.4013
 5840TIP3   OH239078   0.102   0.346   1.470  0.1323  0.0822  0.4312
 5840TIP3    H139079   0.178   0.332   1.415 -1.3814  0.8750 -2.0335
 5840TIP3    H239080   0.109   0.437   1.499 -1.7166  1.5380 -3.1246
 5841TIP3   OH239081   1.674   3.309   8.578  0.5142  0.4313 -0.0465
 5841TIP3    H139082   1.637   3.385   8.622  0.7074  1.9280 -2.2869
 5841TIP3    H239083   1.606   3.281   8.517  1.2889  0.2341 -0.8357
 5842TIP3   OH239084   5.309   6.254   1.981 -0.3305  0.3136 -0.2182
 5842TIP3    H139085   5.384   6.296   2.023 -1.6865  2.2506  0.4108
 5842TIP3    H239086   5.309   6.165   2.015  1.8516  0.1516 -0.5054
 5843TIP3   OH239087   4.870   0.410   3.039  0.1702 -0.1842 -0.0078
 5843TIP3    H139088   4.788   0.409   3.089 -0.1859  2.8479 -0.3211
 5843TIP3    H239089   4.937   0.388   3.104 -0.5631  0.9240  1.1821
 5844TIP3   OH239090   2.712   4.880   8.456  0.5616 -0.1343 -0.2051
 5844TIP3    H139091   2.784   4.830   8.418  1.0694  0.0721  0.4698
 5844TIP3    H239092   2.703   4.956   8.398 -0.2129 -0.9723 -1.2330
 5845TIP3   OH239093   3.343   3.456   2.215 -0.9798 -0.5917  0.1700
 5845TIP3    H139094   3.403   3.385   2.240  2.0807  1.2199 -1.4496
 5845TIP3    H239095   3.280   3.414   2.157  0.2432 -2.1597 -0.1101
 5846TIP3   OH239096   3.706   0.900   1.325 -0.2233  0.5069  0.1767
 5846TIP3    H139097   3.711   0.825   1.385  1.6124 -0.1836 -0.7767
 5846TIP3    H239098   3.620   0.938   1.343 -0.3418 -0.5409  2.2013
 5847TIP3   OH239099   2.933   3.123   3.064 -0.1841 -0.5654  0.4012
 5847TIP3    H139100   2.883   3.091   3.139 -1.4702  0.2128 -0.0945
 5847TIP3    H239101   3.012   3.068   3.063  0.8109  0.5833  3.4136
 5848TIP3   OH239102   1.406   1.512   8.517  0.2818  0.4450  0.6296
 5848TIP3    H139103   1.392   1.564   8.596  0.6837  0.4919  0.6712
 5848TIP3    H239104   1.471   1.446   8.542 -0.8918 -0.6837  0.8472
 5849TIP3   OH239105   5.973   1.531   3.732  0.0818 -0.2806 -0.0030
 5849TIP3    H139106   6.031   1.533   3.655  0.5444 -0.1515  0.3432
 5849TIP3    H239107   5.975   1.621   3.765  0.1549 -0.4147  0.3598
 5850TIP3   OH239108   5.107   2.308   8.455 -0.2458 -0.4043 -0.3394
 5850TIP3    H139109   5.147   2.375   8.399  0.2875 -1.2460 -0.9817
 5850TIP3    H239110   5.159   2.310   8.535  0.2703 -0.5849 -0.6635
 5851TIP3   OH239111   2.289   2.664   8.423 -0.7234 -0.1257 -0.3341
 5851TIP3    H139112   2.197   2.672   8.447 -0.6365  0.4099 -0.1716
 5851TIP3    H239113   2.291   2.684   8.329 -0.4318  2.5339  0.1705
 5852TIP3   OH239114   4.629   5.374   8.003  0.4376  0.1540  0.1262
 5852TIP3    H139115   4.674   5.319   7.938  1.6433 -0.2650  1.2516
 5852TIP3    H239116   4.543   5.334   8.012 -0.0737  0.7248 -1.7952
 5853TIP3   OH239117   5.715   4.795   0.041 -0.6390  0.1244 -0.5379
 5853TIP3    H139118   5.664   4.714   0.048 -0.1325 -0.2164 -0.7992
 5853TIP3    H239119   5.770   4.795   0.120 -0.0177 -0.2173 -0.9656
 5854TIP3   OH239120   0.268   5.850   1.538 -0.5184 -0.2626  0.4850
 5854TIP3    H139121   0.219   5.901   1.473  2.2063  0.1386 -1.4209
 5854TIP3    H239122   0.302   5.776   1.489  0.9809 -0.3735  1.6257
 5855TIP3   OH239123   3.109   6.005   7.469  0.3146 -0.2795 -0.2974
 5855TIP3    H139124   3.142   6.017   7.557 -0.7858  1.9289 -0.1294
 5855TIP3    H239125   3.148   6.076   7.418 -1.8772  0.7161 -0.7008
 5856TIP3   OH239126   6.478   5.929   3.085 -0.4672  0.2659 -0.6760
 5856TIP3    H139127   6.513   5.868   3.150 -0.6165 -0.2531 -1.0842
 5856TIP3    H239128   6.383   5.915   3.087 -0.7269  1.8512  0.6168
 5857TIP3   OH239129   1.224   3.482   8.106  0.2744  0.0667 -0.2360
 5857TIP3    H139130   1.174   3.412   8.148  0.4777  0.2986  0.4085
 5857TIP3    H239131   1.265   3.440   8.031 -0.2692 -0.3078 -0.3287
 5858TIP3   OH239132   0.688   4.273   1.382 -0.0712  0.2483 -0.1113
 5858TIP3    H139133   0.733   4.356   1.399 -0.6209  0.7356 -0.9769
 5858TIP3    H239134   0.733   4.237   1.305 -2.0879  1.4884 -1.9662
 5859TIP3   OH239135   2.199   2.431   1.509 -0.2073  0.4500  0.1732
 5859TIP3    H139136   2.121   2.412   1.457  1.0047  0.6171 -1.8122
 5859TIP3    H239137   2.228   2.517   1.478  1.5763 -0.2543 -0.2410
 5860TIP3   OH239138   5.234   6.550   0.722  0.6601  0.3774 -0.0168
 5860TIP3    H139139   5.320   6.564   0.684  1.1150  0.0205  0.8600
 5860TIP3    H239140   5.251   6.506   0.805 -0.4513 -1.4208 -0.6704
 5861TIP3   OH239141   6.141   4.784   8.164 -0.5386 -0.4072 -0.2179
 5861TIP3    H139142   6.094   4.782   8.081 -2.5281 -0.1164  0.8321
 5861TIP3    H239143   6.212   4.847   8.151 -2.8737  2.2994 -0.7136
 5862TIP3   OH239144   0.185   3.591   8.588 -0.3645  0.0294 -0.0195
 5862TIP3    H139145   0.217   3.548   8.508  0.4182  0.0535  0.2675
 5862TIP3    H239146   0.211   3.533   8.659 -1.1455 -0.0371  0.2123
 5863TIP3   OH239147   6.096   6.536   7.928 -0.0482 -0.5518  0.1219
 5863TIP3    H139148   6.038   6.576   7.993 -0.5136  1.5587 -1.4835
 5863TIP3    H239149   6.039   6.476   7.880 -0.7477  0.8855 -0.8997
 5864TIP3   OH239150   2.350   5.026   1.518 -0.3888 -0.1303 -0.6173
 5864TIP3    H139151   2.379   5.078   1.593 -0.7836  0.5862 -0.9503
 5864TIP3    H239152   2.430   5.013   1.467 -0.1958 -0.2616 -0.2837
 5865TIP3   OH239153   4.224   5.224   0.551 -0.3142 -0.2301 -0.3689
 5865TIP3    H139154   4.131   5.210   0.567 -0.6063  2.1695  0.4283
 5865TIP3    H239155   4.264   5.218   0.637  0.0541  0.2238 -0.5069
 5866TIP3   OH239156   1.376   3.418   7.681  0.2787 -0.7260 -0.1433
 5866TIP3    H139157   1.424   3.498   7.700 -0.4306 -0.3955  0.2440
 5866TIP3    H239158   1.417   3.384   7.601  0.5709  0.0188 -0.3111
 5867TIP3   OH239159   3.086   0.501   2.362  0.0195  0.4848 -0.2936
 5867TIP3    H139160   3.105   0.417   2.403 -1.4939 -0.2047 -0.9376
 5867TIP3    H239161   3.172   0.540   2.347  0.6683  0.0440  1.9972
 5868TIP3   OH239162   4.746   4.941   2.023 -0.0872 -0.2562 -0.2443
 5868TIP3    H139163   4.805   4.936   1.948  2.7176  3.8532  1.3087
 5868TIP3    H239164   4.686   5.013   2.002 -1.4317 -1.2172  0.1932
 5869TIP3   OH239165   0.811   5.765   2.176 -0.3446 -0.1873  0.1803
 5869TIP3    H139166   0.888   5.821   2.168  0.4028 -0.9926  1.4963
 5869TIP3    H239167   0.746   5.820   2.219  0.2196 -0.1532  1.0161
 5870TIP3   OH239168   5.974   4.801   1.946  0.5376 -0.0437 -0.2243
 5870TIP3    H139169   5.909   4.843   1.890  2.4166  1.5827 -1.3141
 5870TIP3    H239170   6.039   4.766   1.885  1.0945 -0.9419  0.8554
 5871TIP3   OH239171   0.775   2.569   1.310 -0.9516  0.8114 -0.2531
 5871TIP3    H139172   0.817   2.655   1.319 -2.0481  1.2969  0.6173
 5871TIP3    H239173   0.807   2.518   1.384 -2.0300  1.2778  0.5799
 5872TIP3   OH239174   4.568   0.967   1.514 -0.3936 -0.0048  0.1721
 5872TIP3    H139175   4.475   0.949   1.502 -0.1925 -1.1975  0.1895
 5872TIP3    H239176   4.580   1.058   1.487 -1.1347 -0.5528 -2.2037
 5873TIP3   OH239177   5.043   2.809   7.568  0.7711  0.7597 -0.0847
 5873TIP3    H139178   4.966   2.783   7.518  1.1171 -0.5406  0.0442
 5873TIP3    H239179   5.117   2.782   7.515  1.1471  1.1110  0.2498
 5874TIP3   OH239180   0.054   4.448   8.682  0.0677  0.2483  0.8505
 5874TIP3    H139181   0.072   4.356   8.704  0.5485  0.1264 -0.0043
 5874TIP3    H239182   0.077   4.455   8.589 -0.4606  1.1120  0.7759
 5875TIP3   OH239183   4.948   3.607   1.824  0.0047  0.0114  0.1794
 5875TIP3    H139184   4.980   3.525   1.788  0.6001 -0.0747  0.8855
 5875TIP3    H239185   4.853   3.594   1.834  0.1524 -0.7180  0.6430
 5876TIP3   OH239186   1.547   2.666   8.316 -0.3525  0.2670  0.2124
 5876TIP3    H139187   1.640   2.644   8.316  0.1309  1.9717  2.5018
 5876TIP3    H239188   1.526   2.681   8.223  1.8305  0.5680 -0.2790
 5877TIP3   OH239189   0.237   5.497   1.116  0.0782 -0.2752  0.1599
 5877TIP3    H139190   0.233   5.588   1.147 -1.2892 -0.4383  0.5168
 5877TIP3    H239191   0.241   5.444   1.195 -0.0187 -0.5593 -0.0241
 5878TIP3   OH239192   6.340   1.614   2.533 -0.3173  0.7696  0.1899
 5878TIP3    H139193   6.349   1.692   2.588 -0.2422 -0.1826  1.5898
 5878TIP3    H239194   6.251   1.582   2.551 -0.0128  0.0068  0.3728
 5879TIP3   OH239195   6.278   1.427   8.362 -0.7441 -0.1535 -0.7521
 5879TIP3    H139196   6.213   1.400   8.297  0.0554 -0.9225 -1.2606
 5879TIP3    H239197   6.336   1.487   8.315 -1.2490  0.7644 -0.2199
 5880TIP3   OH239198   5.792   2.063   7.109 -0.0352  0.4355 -0.1405
 5880TIP3    H139199   5.877   2.107   7.099  0.4661 -0.7572 -1.6331
 5880TIP3    H239200   5.729   2.124   7.072  0.1304  1.3595  1.0346
 5881TIP3   OH239201   1.060   4.891   2.481 -0.3545  0.1699  0.1899
 5881TIP3    H139202   0.975   4.916   2.447 -0.4236  0.9546  0.8955
 5881TIP3    H239203   1.116   4.881   2.404 -0.8539  0.5355 -0.2222
 5882TIP3   OH239204   6.071   1.844   0.403 -0.3437 -0.0812  0.3325
 5882TIP3    H139205   6.130   1.879   0.336 -0.1633  0.9233  0.9909
 5882TIP3    H239206   6.101   1.884   0.485 -0.5411 -1.2959  1.0330
 5883TIP3   OH239207   1.978   0.151   7.833  0.3626 -1.0774 -0.8601
 5883TIP3    H139208   1.956   0.110   7.917 -1.5472  0.1030 -0.7119
 5883TIP3    H239209   1.969   0.081   7.769 -0.0548 -1.5636 -0.2834
 5884TIP3   OH239210   4.010   4.612   0.648 -0.6557  0.4854  0.0041
 5884TIP3    H139211   4.051   4.528   0.629 -1.6228  0.0442 -0.2368
 5884TIP3    H239212   4.041   4.635   0.735 -0.4071 -0.1475  0.0856
 5885TIP3   OH239213   1.290   3.261   1.936  0.5586 -0.2801  0.2190
 5885TIP3    H139214   1.265   3.239   2.025 -1.1918  2.6343  0.5433
 5885TIP3    H239215   1.282   3.178   1.888 -0.4783 -1.4723  2.3167
 5886TIP3   OH239216   1.898   5.452   7.772  0.4903  0.0606 -0.1261
 5886TIP3    H139217   1.939   5.518   7.715  0.5086 -0.2967 -0.5308
 5886TIP3    H239218   1.817   5.429   7.726 -0.2319  0.8415  0.7198
 5887TIP3   OH239219   1.163   5.941   8.525 -0.2474  0.5767  0.7085
 5887TIP3    H139220   1.093   5.885   8.491 -1.3336  2.4028 -0.2139
 5887TIP3    H239221   1.160   5.929   8.620 -0.1582 -1.1963  0.5241
 5888TIP3   OH239222   0.177   5.347   2.862  0.2567 -0.3289 -0.0719
 5888TIP3    H139223   0.111   5.405   2.823  0.3486 -0.0703  0.1534
 5888TIP3    H239224   0.260   5.377   2.825  0.0917 -1.7885 -1.7452
 5889TIP3   OH239225   4.765   0.719   3.032  0.1176 -0.4566  0.1843
 5889TIP3    H139226   4.835   0.664   3.068  1.3701  0.7736 -0.3192
 5889TIP3    H239227   4.723   0.757   3.108 -0.4162 -1.6717  0.5179
 5890TIP3   OH239228   2.730   5.129   0.920 -0.3229 -0.3267 -0.1153
 5890TIP3    H139229   2.774   5.206   0.956 -1.4692  0.6184 -0.6870
 5890TIP3    H239230   2.793   5.092   0.858  0.0614  0.4199 -0.1833
 5891TIP3   OH239231   2.795   4.135   1.129 -0.5226  0.1445 -0.5566
 5891TIP3    H139232   2.832   4.222   1.112 -1.2892  0.6053  0.0858
 5891TIP3    H239233   2.713   4.152   1.175 -0.1313 -0.9615  0.6187
 5892TIP3   OH239234   5.625   0.645   8.569  0.0544  0.2186  0.2284
 5892TIP3    H139235   5.571   0.618   8.644 -0.4623  0.8839  0.1105
 5892TIP3    H239236   5.714   0.625   8.596 -0.2259 -0.6729  0.5286
 5893TIP3   OH239237   0.749   5.667   2.439  0.4930 -0.2954  0.5401
 5893TIP3    H139238   0.842   5.689   2.433  0.4712  0.1031  1.5750
 5893TIP3    H239239   0.737   5.597   2.375  1.0663  1.0424 -1.1118
 5894TIP3   OH239240   5.633   0.025   1.764  0.7838  0.2265  0.1511
 5894TIP3    H139241   5.655  -0.029   1.840 -0.2188  2.6962  2.3593
 5894TIP3    H239242   5.572  -0.029   1.714  1.1304 -1.3480  1.3382
 5895TIP3   OH239243   1.150   5.021   2.137 -0.2986 -0.1984  0.6302
 5895TIP3    H139244   1.062   4.988   2.155 -0.0360 -1.1666  0.2326
 5895TIP3    H239245   1.181   4.966   2.065 -0.1777  1.5541 -0.7167
 5896TIP3   OH239246   3.025   3.312   0.343 -0.3798 -0.0289 -0.1813
 5896TIP3    H139247   2.990   3.400   0.328 -0.7328 -0.3155 -1.1393
 5896TIP3    H239248   3.071   3.318   0.426 -0.2791  1.0982 -0.3037
 5897TIP3   OH239249   5.447   0.146   1.973 -0.4452 -0.4515 -0.3945
 5897TIP3    H139250   5.502   0.113   2.043  0.0839  0.7178 -0.2270
 5897TIP3    H239251   5.464   0.088   1.899  3.3300  1.4822 -1.2968
 5898TIP3   OH239252   6.706   2.724   2.302  0.3271 -0.4902 -0.1007
 5898TIP3    H139253   6.635   2.779   2.335  0.3698 -0.2095 -0.4689
 5898TIP3    H239254   6.693   2.724   2.207 -1.5992 -3.6490 -0.0072
 5899TIP3   OH239255   5.838   3.754   7.798  0.1692  0.3008  0.0562
 5899TIP3    H139256   5.789   3.705   7.731 -0.6913  1.1145  0.0817
 5899TIP3    H239257   5.826   3.846   7.775 -1.0410  0.6597  1.9411
 5900TIP3   OH239258   3.960   2.328   8.256  0.0015 -0.2008 -0.5253
 5900TIP3    H139259   3.903   2.397   8.291 -1.9071 -0.8163 -2.1803
 5900TIP3    H239260   3.938   2.250   8.307 -1.3071 -0.6191 -1.6432
 5901TIP3   OH239261   0.822   4.005   0.971 -0.0140  0.8074  0.0359
 5901TIP3    H139262   0.822   3.953   0.891 -0.5826  0.8979 -0.0272
 5901TIP3    H239263   0.853   3.945   1.039 -0.9851  0.2753  0.0296
 5902TIP3   OH239264   5.371   4.729   8.708  0.2034  0.2066 -0.2656
 5902TIP3    H139265   5.291   4.729   8.657  1.2201 -0.0029 -1.9244
 5902TIP3    H239266   5.419   4.652   8.678  1.3004  0.6771  0.2366
 5903TIP3   OH239267   0.226   3.172   0.565  0.5133  0.2101  0.3124
 5903TIP3    H139268   0.135   3.156   0.590  0.4563  1.8483  1.2435
 5903TIP3    H239269   0.249   3.097   0.510 -1.2057 -0.5245  0.5418
 5904TIP3   OH239270   0.623   4.077   2.669  0.4789  0.1427  0.5588
 5904TIP3    H139271   0.579   4.152   2.708 -2.8967 -1.6045  0.5063
 5904TIP3    H239272   0.680   4.044   2.738  0.5710  1.6426  1.2306
 5905TIP3   OH239273   1.561   3.688   0.263 -0.0536 -0.1699 -0.2290
 5905TIP3    H139274   1.472   3.718   0.280 -0.0691  0.4781 -1.3765
 5905TIP3    H239275   1.616   3.742   0.320 -0.4626 -1.3738  1.3591
 5906TIP3   OH239276   1.823   5.578   2.738  0.0190 -0.0767 -0.5196
 5906TIP3    H139277   1.832   5.496   2.786  0.1252 -0.6180 -1.4420
 5906TIP3    H239278   1.906   5.624   2.753  0.1953 -0.4017 -0.4813
 5907TIP3   OH239279   2.824   6.621   1.211 -0.8852 -0.4932 -0.9199
 5907TIP3    H139280   2.860   6.691   1.157 -0.5111 -0.2034 -0.2939
 5907TIP3    H239281   2.801   6.662   1.294 -0.6011 -1.1212 -0.5193
 5908TIP3   OH239282   0.896   3.908   2.119  0.0720 -0.0076  0.2422
 5908TIP3    H139283   0.950   3.953   2.054  0.6788  2.2509  2.1621
 5908TIP3    H239284   0.955   3.846   2.162  0.9457  1.6452  1.5584
 5909TIP3   OH239285   6.300   1.256   2.462  0.1696 -0.0276 -0.3182
 5909TIP3    H139286   6.369   1.260   2.395 -1.2931 -0.4588 -1.9178
 5909TIP3    H239287   6.287   1.162   2.476 -1.4825 -0.0315 -1.5866
 5910TIP3   OH239288   0.586   5.210   7.516  0.8101 -0.3290 -0.0386
 5910TIP3    H139289   0.669   5.229   7.561  1.8913  0.3054 -2.1529
 5910TIP3    H239290   0.612   5.160   7.439 -0.9783 -1.4705  0.0500
 5911TIP3   OH239291   4.243   5.942   2.217  0.5662 -0.0026  0.1861
 5911TIP3    H139292   4.153   5.913   2.201  0.2825  0.2520  1.2504
 5911TIP3    H239293   4.280   5.874   2.274  0.2095  1.1559  1.8766
 5912TIP3   OH239294   1.590   2.958   1.018 -0.3323  0.2099 -0.3666
 5912TIP3    H139295   1.567   2.877   0.972  3.8679 -0.9587 -0.8205
 5912TIP3    H239296   1.628   2.928   1.101  1.7611  1.6466 -0.7514
 5913TIP3   OH239297   1.965   4.754   1.376  1.1287 -0.0797 -0.0045
 5913TIP3    H139298   2.037   4.742   1.439  0.7009 -0.3661  0.4417
 5913TIP3    H239299   1.993   4.706   1.298  1.5688  0.0925  0.0447
 5914TIP3   OH239300   3.340   2.998   0.738  0.1055  0.5240 -0.4591
 5914TIP3    H139301   3.433   3.010   0.715 -0.4043  0.8458 -2.5674
 5914TIP3    H239302   3.312   2.924   0.684 -0.3383 -1.1141  1.8771
 5915TIP3   OH239303   5.626   0.434   0.096 -0.0776  0.0990 -0.6631
 5915TIP3    H139304   5.599   0.365   0.035 -0.9379 -0.3751  0.2092
 5915TIP3    H239305   5.720   0.421   0.107 -0.3140 -1.4198  0.0030
 5916TIP3   OH239306   0.103   3.084   2.688  0.4086 -0.3172  0.0164
 5916TIP3    H139307   0.108   2.999   2.731 -0.2310  0.0753  0.9062
 5916TIP3    H239308   0.043   3.135   2.743  0.7329  0.6851 -0.5307
 5917TIP3   OH239309   0.923   1.035   2.881 -0.8404  0.0645  1.0266
 5917TIP3    H139310   0.892   1.114   2.926 -1.3978  1.7950 -2.1446
 5917TIP3    H239311   0.947   1.065   2.793 -2.3341 -3.4928 -0.7874
 5918TIP3   OH239312   2.350   1.198   7.262 -0.5953 -0.1885  0.4235
 5918TIP3    H139313   2.319   1.262   7.197  0.0400  0.1032  0.4024
 5918TIP3    H239314   2.319   1.114   7.230  2.3130 -0.5113 -1.9654
 5919TIP3   OH239315   5.355   3.004   7.509  0.0340  0.1936 -0.1069
 5919TIP3    H139316   5.306   2.925   7.487  0.0724  0.3045 -0.6016
 5919TIP3    H239317   5.439   2.992   7.465  0.6065 -0.1749  1.0579
 5920TIP3   OH239318   4.749   2.600   1.916 -0.4763  0.1823 -0.1569
 5920TIP3    H139319   4.660   2.632   1.899 -0.6984 -0.4387 -0.1596
 5920TIP3    H239320   4.739   2.506   1.929  0.1977  0.0940 -0.2649
 5921TIP3   OH239321   0.167   2.667   1.690 -0.3009  0.3793 -0.2488
 5921TIP3    H139322   0.157   2.759   1.715  0.0888  0.5297 -0.6313
 5921TIP3    H239323   0.152   2.618   1.770 -0.7545  0.7667 -0.0932
 5922TIP3   OH239324   2.325   2.367   1.746 -0.3409  0.1212 -0.1882
 5922TIP3    H139325   2.285   2.380   1.660 -1.8383 -3.7019 -0.2443
 5922TIP3    H239326   2.392   2.435   1.751 -1.3034  1.5678 -3.6189
 5923TIP3   OH239327   4.534   5.025   7.559  0.6514 -0.4340  0.4978
 5923TIP3    H139328   4.561   5.078   7.484  1.2869 -1.4395  0.0006
 5923TIP3    H239329   4.599   4.956   7.565 -0.5441 -1.5854  0.6813
 5924TIP3   OH239330   4.339   0.475   0.448  0.3013 -0.0557 -0.3447
 5924TIP3    H139331   4.350   0.427   0.366 -1.2496  0.2435 -0.7702
 5924TIP3    H239332   4.372   0.563   0.428 -2.9993  1.0193 -1.7897
 5925TIP3   OH239333   1.609   4.791   2.264  0.0782 -0.3483  0.5260
 5925TIP3    H139334   1.588   4.701   2.290  0.0787 -0.4855  0.0734
 5925TIP3    H239335   1.576   4.845   2.335  0.1379 -0.7133  0.8371
 5926TIP3   OH239336   0.899   0.910   7.047 -0.8052  0.1757  0.7841
 5926TIP3    H139337   0.836   0.980   7.028 -1.3757 -0.5006  0.0823
 5926TIP3    H239338   0.984   0.954   7.048 -1.3789  1.3873  3.2887
 5927TIP3   OH239339   6.255   2.265   8.378 -0.0198  0.3328  0.2793
 5927TIP3    H139340   6.256   2.328   8.305 -1.7604 -0.3155 -0.3411
 5927TIP3    H239341   6.337   2.217   8.367  1.5857  2.6964  1.0202
 5928TIP3   OH239342   0.442   2.582   1.967  0.6439 -0.2453  0.3371
 5928TIP3    H139343   0.477   2.502   1.927  1.2615  0.5190 -0.6931
 5928TIP3    H239344   0.347   2.570   1.966  0.7589 -1.4678  1.2940
 5929TIP3   OH239345   3.508   6.542   8.320 -0.0987 -0.1707  0.3991
 5929TIP3    H139346   3.425   6.591   8.327 -0.3713 -0.4850 -0.5566
 5929TIP3    H239347   3.569   6.592   8.374 -0.5798  0.7962  0.0771
 5930TIP3   OH239348   6.251   0.585   8.647  0.0007 -0.0184 -0.9313
 5930TIP3    H139349   6.250   0.584   8.742 -0.3213 -2.2482 -0.9024
 5930TIP3    H239350   6.344   0.584   8.624  0.0786  0.4686 -0.6548
 5931TIP3   OH239351   6.560   4.040   8.213  0.2444 -0.2910  0.0835
 5931TIP3    H139352   6.633   4.036   8.151  0.8920 -2.4291  0.8736
 5931TIP3    H239353   6.516   4.122   8.194  2.2468  0.5730 -1.1328
 5932TIP3   OH239354   6.215   6.786   2.875 -0.2284 -0.3541  0.1635
 5932TIP3    H139355   6.275   6.861   2.876 -0.3957 -0.2175  0.1126
 5932TIP3    H239356   6.270   6.711   2.854 -0.3976  0.0515 -1.9305
 5933TIP3   OH239357   3.717   2.062   0.069 -0.1806 -0.5408  0.2395
 5933TIP3    H139358   3.733   1.981   0.118  2.2726 -0.1355  0.2381
 5933TIP3    H239359   3.751   2.044  -0.018  0.2992  0.4412  0.2092
 5934TIP3   OH239360   3.172   3.891   0.839  0.0811  0.1570 -0.4458
 5934TIP3    H139361   3.236   3.841   0.789 -0.0885  0.9679 -1.5175
 5934TIP3    H239362   3.187   3.982   0.813 -0.8322  0.4627  0.0556
 5935TIP3   OH239363   3.047   4.963   0.431 -0.1327 -0.1330  0.5556
 5935TIP3    H139364   2.986   4.992   0.499  0.3022  0.0999  0.8536
 5935TIP3    H239365   3.028   5.019   0.356  1.5291  1.8669  1.5134
 5936TIP3   OH239366   3.808   6.600   0.905  0.1192  0.3512 -0.3542
 5936TIP3    H139367   3.904   6.598   0.906  0.1269  0.7145 -0.0818
 5936TIP3    H239368   3.782   6.545   0.979  0.0504 -2.1849 -2.1477
 5937TIP3   OH239369   1.630   2.655   7.719 -0.1314  0.9745 -0.1108
 5937TIP3    H139370   1.683   2.734   7.735  0.5180  0.2835  1.3060
 5937TIP3    H239371   1.589   2.636   7.803  1.2457 -1.2809  0.1379
 5938TIP3   OH239372   4.652   5.515   1.965  0.2144 -0.4118  0.0616
 5938TIP3    H139373   4.720   5.447   1.965  1.0062  0.2341 -2.8748
 5938TIP3    H239374   4.699   5.595   1.989 -0.3786 -0.5678  1.8737
 5939TIP3   OH239375   3.437   5.238   1.252 -0.6724 -0.4367 -0.0020
 5939TIP3    H139376   3.502   5.259   1.319 -0.2090 -1.4031 -0.1432
 5939TIP3    H239377   3.487   5.231   1.171 -1.1654  0.2644 -0.3818
 5940TIP3   OH239378   2.095   4.119   8.083 -0.0786  0.2053 -0.1563
 5940TIP3    H139379   2.099   4.212   8.061 -1.4263  0.2851 -0.1771
 5940TIP3    H239380   2.175   4.102   8.132  0.0073  1.4704  0.1688
 5941TIP3   OH239381   2.010   4.445   0.098  0.0833 -0.0683  0.3245
 5941TIP3    H139382   2.007   4.473   0.189  1.5574 -1.4216  0.8548
 5941TIP3    H239383   1.948   4.371   0.093 -2.3204  1.8667 -0.5887
 5942TIP3   OH239384   5.962   1.742   8.170  0.0236 -0.2747 -0.3107
 5942TIP3    H139385   5.950   1.793   8.250 -0.9444  0.5828 -0.9843
 5942TIP3    H239386   6.038   1.686   8.189 -0.1240 -0.0244  1.1606
 5943TIP3   OH239387   3.391   2.982   1.497  0.3461 -0.0871  0.2467
 5943TIP3    H139388   3.438   3.062   1.473  0.2709 -0.8524 -2.9055
 5943TIP3    H239389   3.459   2.918   1.515  0.4882 -0.1037 -0.3120
 5944TIP3   OH239390   5.751   4.320   1.065  0.4277  0.1545 -0.0951
 5944TIP3    H139391   5.686   4.387   1.085  1.2531  0.4223  1.9650
 5944TIP3    H239392   5.821   4.368   1.020 -0.0340  0.1834 -0.8004
 5945TIP3   OH239393   2.238   6.802   2.758 -0.6535 -0.1794 -0.7274
 5945TIP3    H139394   2.212   6.853   2.835  0.8520  1.0984 -0.9910
 5945TIP3    H239395   2.163   6.807   2.699 -1.1233  0.4284 -0.0927
 5946TIP3   OH239396   4.075   6.315   8.480 -0.5902 -0.1843 -0.0694
 5946TIP3    H139397   4.052   6.294   8.390 -0.0737 -0.0621 -0.2329
 5946TIP3    H239398   4.171   6.313   8.481 -0.6077 -1.3132  0.7486
 5947TIP3   OH239399   4.165   1.192   1.444 -0.6847  0.1757  0.1300
 5947TIP3    H139400   4.181   1.281   1.412 -1.7409  0.9657  1.6975
 5947TIP3    H239401   4.072   1.190   1.466 -0.2351 -0.5991  2.1926
 5948TIP3   OH239402   2.191   2.699   0.857  0.7416 -0.5231  1.1593
 5948TIP3    H139403   2.106   2.715   0.816  1.1707  1.7764  1.0733
 5948TIP3    H239404   2.193   2.759   0.932  3.4979  1.9040 -0.6526
 5949TIP3   OH239405   2.850   0.374   2.403  0.1560  0.1098  0.1922
 5949TIP3    H139406   2.890   0.448   2.357  0.8128 -0.3199  0.0539
 5949TIP3    H239407   2.907   0.299   2.382 -0.9239 -0.5980 -0.3092
 5950TIP3   OH239408   0.138   4.294   1.553  0.0296 -0.9274 -0.1158
 5950TIP3    H139409   0.216   4.252   1.515 -0.2422 -0.4740 -1.2341
 5950TIP3    H239410   0.137   4.265   1.644  0.3220 -2.6621 -0.6246
 5951TIP3   OH239411   1.906   5.515   7.244  0.0696  0.0562  0.1517
 5951TIP3    H139412   1.923   5.434   7.292  0.0501 -1.3147 -1.9927
 5951TIP3    H239413   1.953   5.504   7.161 -0.5533  1.9324 -0.5066
 5952TIP3   OH239414   6.310   1.585   2.252  0.2637  0.6682  0.3599
 5952TIP3    H139415   6.301   1.611   2.344  1.4936  0.9231  0.4140
 5952TIP3    H239416   6.348   1.497   2.255  0.0259  0.5510  0.0862
 5953TIP3   OH239417   0.483   1.327   7.499  0.2931  0.1072 -0.3209
 5953TIP3    H139418   0.404   1.310   7.550 -0.1448  0.8903 -0.7074
 5953TIP3    H239419   0.466   1.288   7.414  1.1467 -1.4633  0.1988
 5954TIP3   OH239420   4.448   5.969   1.982  0.3042  0.9076  0.2415
 5954TIP3    H139421   4.384   5.922   2.036 -0.0033 -0.4886 -1.2475
 5954TIP3    H239422   4.440   6.060   2.009 -1.7905  0.6637  0.6391
 5955TIP3   OH239423   5.513   2.184   0.647  0.2974 -0.1046  0.5929
 5955TIP3    H139424   5.572   2.111   0.661 -0.7074 -1.0705 -0.0462
 5955TIP3    H239425   5.431   2.158   0.689 -0.0370  0.7110  0.4783
 5956TIP3   OH239426   0.239   4.293   1.173  0.2553  0.4982 -0.2639
 5956TIP3    H139427   0.234   4.214   1.226  1.2876 -0.0459 -0.9291
 5956TIP3    H239428   0.310   4.344   1.212 -0.3088  1.0309  0.0745
 5957TIP3   OH239429   6.387   5.319   2.455 -0.1167 -0.0437 -0.1368
 5957TIP3    H139430   6.476   5.329   2.487  0.4938 -3.6594 -0.3255
 5957TIP3    H239431   6.395   5.314   2.360 -0.5676  0.0334 -0.1836
 5958TIP3   OH239432   6.197   6.765   8.568 -0.3796 -0.2936  0.3977
 5958TIP3    H139433   6.255   6.834   8.601 -0.7286 -0.0298  0.4685
 5958TIP3    H239434   6.186   6.788   8.475 -3.3186  1.8312  1.1348
 5959TIP3   OH239435   5.850   4.730   1.475  0.3315 -0.1366 -0.4593
 5959TIP3    H139436   5.883   4.714   1.387  1.2693  3.0509 -0.8061
 5959TIP3    H239437   5.803   4.814   1.469  0.0228 -0.0532  1.9817
 5960TIP3   OH239438   2.148   2.285   1.181 -0.0384 -0.5535 -0.9002
 5960TIP3    H139439   2.079   2.234   1.222 -0.8723 -1.1063 -2.8560
 5960TIP3    H239440   2.208   2.220   1.144 -1.0077 -0.2072 -3.2552
 5961TIP3   OH239441   3.202   0.459   0.016  0.1750  0.1449  0.8234
 5961TIP3    H139442   3.138   0.406  -0.031  2.2864 -0.9774 -0.9722
 5961TIP3    H239443   3.286   0.416  -0.001  1.6640  2.5822  1.5440
 5962TIP3   OH239444   6.582   2.745   0.781  0.1049 -0.1485  0.0883
 5962TIP3    H139445   6.599   2.799   0.704  1.4080 -0.6398 -0.0043
 5962TIP3    H239446   6.505   2.784   0.822 -1.9421 -1.1214 -2.5780
 5963TIP3   OH239447   1.129   1.070   1.988 -0.1965 -0.1211  0.3905
 5963TIP3    H139448   1.114   0.989   1.939  0.9668  0.4870 -1.0414
 5963TIP3    H239449   1.065   1.068   2.059 -0.7847 -1.8569 -0.1546
 5964TIP3   OH239450   5.351   3.481   8.288 -0.5771 -0.5988  0.5348
 5964TIP3    H139451   5.327   3.472   8.380  1.0834 -2.4290  0.8742
 5964TIP3    H239452   5.303   3.410   8.244  0.2519 -1.0946  0.3942
 5965TIP3   OH239453   6.346   3.644   8.465  0.2118 -0.5946 -0.2754
 5965TIP3    H139454   6.340   3.644   8.561  2.1633 -4.3982  0.0469
 5965TIP3    H239455   6.270   3.694   8.436 -1.2855 -0.5577  3.2127
 5966TIP3   OH239456   6.794   1.902   0.477 -0.5000  0.1359 -0.0880
 5966TIP3    H139457   6.726   1.854   0.431  0.1740 -1.4538  0.5001
 5966TIP3    H239458   6.859   1.923   0.410 -1.2111  1.0560 -0.5150
 5967TIP3   OH239459   0.743   2.255   0.226  0.7692  0.1531  0.0380
 5967TIP3    H139460   0.663   2.305   0.212  1.5283  1.0486 -1.3750
 5967TIP3    H239461   0.726   2.203   0.305 -0.9400  0.8084  0.1374
 5968TIP3   OH239462   2.031   5.936   0.689  0.2364 -0.3212 -0.1316
 5968TIP3    H139463   1.965   5.914   0.623  0.8188  1.4364 -1.3716
 5968TIP3    H239464   2.060   5.852   0.722 -1.5505 -1.1900 -0.6194
 5969TIP3   OH239465   1.388   1.130   2.748 -0.0814 -0.5096 -0.0231
 5969TIP3    H139466   1.358   1.133   2.839  0.3646 -1.4642  0.1597
 5969TIP3    H239467   1.375   1.220   2.716  1.4717  0.3247  1.5333
 5970TIP3   OH239468   3.753   1.780   7.917 -0.3139 -0.7762 -0.7391
 5970TIP3    H139469   3.846   1.797   7.930 -0.8647  2.4160 -0.1638
 5970TIP3    H239470   3.749   1.688   7.890  2.9946 -0.9507 -1.0476
 5971TIP3   OH239471   5.377   6.576   1.172 -0.3550 -0.2587  0.4985
 5971TIP3    H139472   5.364   6.587   1.266 -0.2401  0.7081  0.4128
 5971TIP3    H239473   5.332   6.651   1.132 -0.8110 -0.9075 -0.2542
 5972TIP3   OH239474   1.310   1.668   0.541 -0.3831  0.5224 -0.0805
 5972TIP3    H139475   1.369   1.603   0.580  3.6219  3.3810 -0.7009
 5972TIP3    H239476   1.271   1.713   0.615  0.5636  0.4273  0.5015
 5973TIP3   OH239477   5.297   0.054   1.330 -0.2766 -0.5826 -0.4000
 5973TIP3    H139478   5.208   0.077   1.356  0.2786  1.5640 -0.2701
 5973TIP3    H239479   5.353   0.089   1.400  0.7012 -1.9997 -0.4135
 5974TIP3   OH239480   4.101   2.995   8.000 -0.1973 -0.3230  0.9598
 5974TIP3    H139481   4.007   2.995   7.984 -0.1099  0.4203  0.3490
 5974TIP3    H239482   4.140   2.994   7.912  0.3649 -0.6780  1.2050
 5975TIP3   OH239483   4.398   0.163   2.234  0.0400  0.2669 -0.3461
 5975TIP3    H139484   4.444   0.111   2.168  0.0166 -1.4843  0.9238
 5975TIP3    H239485   4.411   0.254   2.208  0.5717 -0.3418 -2.3712
 5976TIP3   OH239486   6.752   1.607   8.737 -1.2917 -0.0609 -0.2710
 5976TIP3    H139487   6.769   1.687   8.787 -0.5619 -0.1842 -0.3067
 5976TIP3    H239488   6.761   1.634   8.645 -0.3503 -0.3151 -0.2707
 5977TIP3   OH239489   4.586   0.623   2.367  0.3780  0.2884  0.3512
 5977TIP3    H139490   4.593   0.539   2.412  0.5498 -0.0172 -0.2401
 5977TIP3    H239491   4.621   0.687   2.429 -0.3149  0.0141  1.0430
 5978TIP3   OH239492   5.991   4.304   1.806  0.1119  0.0189  0.0926
 5978TIP3    H139493   6.068   4.252   1.829  1.1815  1.5638  0.1430
 5978TIP3    H239494   5.930   4.240   1.768  2.2680 -0.9348 -2.0066
 5979TIP3   OH239495   0.508   0.969   0.816  0.1531 -0.4010  0.7016
 5979TIP3    H139496   0.445   1.023   0.863  0.4200  0.9727 -0.4061
 5979TIP3    H239497   0.593   1.012   0.832  0.2963 -0.1007 -0.6660
 5980TIP3   OH239498   5.661   4.393   1.502  0.0774  0.1417  0.4188
 5980TIP3    H139499   5.735   4.332   1.501 -0.3218 -0.4771  2.5011
 5980TIP3    H239500   5.700   4.478   1.480  0.7496 -0.6955 -1.9384
 5981TIP3   OH239501   2.892   1.640   0.766 -0.0807  0.2733 -0.1479
 5981TIP3    H139502   2.952   1.641   0.841  0.3682 -2.0545 -0.4000
 5981TIP3    H239503   2.809   1.609   0.802 -0.1763  0.2285 -0.4039
 5982TIP3   OH239504   4.399   5.111   0.991  0.3681  0.6183 -0.0524
 5982TIP3    H139505   4.317   5.077   1.026  2.0139 -2.0734  1.6063
 5982TIP3    H239506   4.447   5.140   1.069  1.5112  0.8752 -0.8326
 5983TIP3   OH239507   4.470   1.118   1.977 -0.1531 -0.1369 -0.4350
 5983TIP3    H139508   4.502   1.028   1.978 -1.3492 -0.5942  1.5727
 5983TIP3    H239509   4.375   1.109   1.969 -0.3154  0.9450  0.0901
 5984TIP3   OH239510   1.294   4.617   8.637  0.2615  0.2706 -0.0475
 5984TIP3    H139511   1.348   4.546   8.673 -0.9900 -1.2526 -1.0555
 5984TIP3    H239512   1.353   4.664   8.578  0.8725 -0.4683 -0.0476
 5985TIP3   OH239513   4.208   3.419   2.874 -0.2143 -0.3896 -0.3586
 5985TIP3    H139514   4.176   3.461   2.953 -0.7858 -1.6701  0.1224
 5985TIP3    H239515   4.203   3.486   2.807  0.8522  0.9104  0.8001
 5986TIP3   OH239516   2.659   3.907   7.478 -0.3049 -0.2499  0.3242
 5986TIP3    H139517   2.649   3.994   7.439 -0.1026  0.7892  2.4337
 5986TIP3    H239518   2.751   3.884   7.462 -0.3523 -0.0862 -0.2161
 5987TIP3   OH239519   5.142   1.281   3.226 -0.1839 -0.1891  0.2324
 5987TIP3    H139520   5.144   1.186   3.209 -0.8182  0.0829 -1.6235
 5987TIP3    H239521   5.066   1.312   3.177  0.5796  1.4221  0.0276
 5988TIP3   OH239522   0.192   0.918   8.182  0.0380 -0.4535 -0.8309
 5988TIP3    H139523   0.176   0.825   8.197 -0.0637 -0.7075 -2.3461
 5988TIP3    H239524   0.105   0.958   8.187 -0.3457 -0.9054 -2.9955
 5989TIP3   OH239525   3.455   1.669   1.150  0.0635 -0.2728 -0.6900
 5989TIP3    H139526   3.361   1.679   1.167 -0.1307 -1.2588 -1.1551
 5989TIP3    H239527   3.468   1.706   1.063  0.3594  1.0874 -0.0981
 5990TIP3   OH239528   2.215   5.835   1.540 -0.0180  0.3626 -0.2732
 5990TIP3    H139529   2.291   5.891   1.524  0.5766 -0.4202 -0.2085
 5990TIP3    H239530   2.209   5.830   1.636  0.9164 -0.9874 -0.2637
 5991TIP3   OH239531   1.238   0.721   0.824  0.7524 -0.0974 -0.1577
 5991TIP3    H139532   1.271   0.742   0.737 -0.8386 -0.0108 -0.7619
 5991TIP3    H239533   1.211   0.629   0.818 -0.9851  0.3968 -0.2988
 5992TIP3   OH239534   2.333   3.364   1.348 -0.3083 -0.4292 -0.3135
 5992TIP3    H139535   2.263   3.387   1.287 -0.1444  1.1229  0.0349
 5992TIP3    H239536   2.289   3.353   1.432 -0.6410 -3.2834 -0.7684
 5993TIP3   OH239537   1.731   6.738   8.673  1.0111  0.1552  0.0458
 5993TIP3    H139538   1.742   6.688   8.753  0.9824  0.7486  0.4248
 5993TIP3    H239539   1.798   6.806   8.677 -0.4820  1.6350  0.7059
 5994TIP3   OH239540   3.263   1.139   2.548 -0.2074 -0.0578  0.3028
 5994TIP3    H139541   3.328   1.111   2.484 -0.8045 -0.9156  0.0454
 5994TIP3    H239542   3.189   1.079   2.535 -1.2903  1.2598  0.1793
 5995TIP3   OH239543   6.564   3.007   2.270  0.2215 -0.7950 -0.0240
 5995TIP3    H139544   6.475   3.044   2.275  0.1266 -0.9723 -0.3884
 5995TIP3    H239545   6.601   3.045   2.191  2.3266  3.3181  2.5370
 5996TIP3   OH239546   4.781   5.664   8.239  0.0607  0.1378 -0.1892
 5996TIP3    H139547   4.742   5.629   8.159 -1.0723  1.0389 -0.0571
 5996TIP3    H239548   4.871   5.632   8.237 -0.4504 -1.4028 -0.8822
 5997TIP3   OH239549   6.384   2.133   1.383  0.0879  0.0041 -0.2735
 5997TIP3    H139550   6.475   2.162   1.380  0.3870 -0.2196  2.9009
 5997TIP3    H239551   6.342   2.179   1.311  1.9706  2.9481  0.3202
 5998TIP3   OH239552   4.873   4.553   1.991 -0.1283 -0.1833 -0.1715
 5998TIP3    H139553   4.873   4.641   2.029  0.1436  0.1938 -1.0082
 5998TIP3    H239554   4.782   4.524   1.998 -0.2309  0.1863  0.0613
 5999TIP3   OH239555   1.527   3.639   7.366 -0.1429 -0.0898  0.2588
 5999TIP3    H139556   1.604   3.691   7.388 -1.7410  1.3672  3.0636
 5999TIP3    H239557   1.539   3.556   7.413 -0.5752  0.4445  1.3483
 6000TIP3   OH239558   5.515   0.442   0.647  0.3115 -0.1418 -0.3327
 6000TIP3    H139559   5.495   0.351   0.627  0.6188 -0.1920 -0.4256
 6000TIP3    H239560   5.513   0.488   0.563  1.5203 -0.3378 -0.4952
 6001TIP3   OH239561   4.925   3.326   2.776  0.2030 -0.2202 -0.1933
 6001TIP3    H139562   4.952   3.358   2.862  0.6536 -2.5260  0.6131
 6001TIP3    H239563   4.931   3.402   2.719 -1.5374  1.7735  2.0654
 6002TIP3   OH239564   5.008   5.931   1.645 -0.1392 -0.5354 -0.0872
 6002TIP3    H139565   5.028   5.935   1.738  1.1361  1.5113 -0.3944
 6002TIP3    H239566   4.930   5.987   1.635  1.5396  1.8973 -0.5907
 6003TIP3   OH239567   2.506   2.121   8.123  0.1685  0.0392 -0.4185
 6003TIP3    H139568   2.426   2.082   8.158  0.6863 -0.5293  0.1437
 6003TIP3    H239569   2.485   2.214   8.112 -0.4543 -0.0396  0.0634
 6004TIP3   OH239570   2.414   3.293   0.998  0.7363 -0.0053  0.3132
 6004TIP3    H139571   2.398   3.387   1.003  1.2000  0.1245 -0.4460
 6004TIP3    H239572   2.328   3.255   0.978  0.7831  0.3906 -0.7017
 6005TIP3   OH239573   6.020   4.523   8.680  0.3009 -0.2852 -0.4844
 6005TIP3    H139574   5.964   4.599   8.663 -0.4820 -0.9627 -1.0281
 6005TIP3    H239575   6.031   4.522   8.775  0.6618  0.7337 -0.4992
 6006TIP3   OH239576   5.907   1.837   0.879 -0.1270 -0.2874 -0.1694
 6006TIP3    H139577   5.944   1.816   0.793 -1.7372 -0.8269 -0.7621
 6006TIP3    H239578   5.980   1.876   0.927  1.3555 -1.7862 -1.0909
 6007TIP3   OH239579   1.552   2.176   1.087 -0.6791  0.0240  0.3420
 6007TIP3    H139580   1.468   2.197   1.048  0.4031 -1.0652 -2.8876
 6007TIP3    H239581   1.529   2.135   1.171 -3.1737  2.0426  0.7876
 6008TIP3   OH239582   4.292   5.677   2.950  0.4432  0.3326 -0.6132
 6008TIP3    H139583   4.242   5.659   3.029 -0.5011 -1.6096 -1.5763
 6008TIP3    H239584   4.316   5.591   2.916  1.9796  1.1425 -1.7494
 6009TIP3   OH239585   0.144   2.377   7.620  0.3221  0.4663  0.4263
 6009TIP3    H139586   0.218   2.343   7.569 -0.6989 -0.7441 -0.3119
 6009TIP3    H239587   0.068   2.356   7.567 -0.5822  1.4978  1.2810
 6010TIP3   OH239588   0.455   0.811   2.828  0.2546  0.1196 -0.5529
 6010TIP3    H139589   0.450   0.742   2.761 -0.2739 -0.2817 -0.1132
 6010TIP3    H239590   0.398   0.780   2.898 -2.1394  2.1957 -1.4180
 6011TIP3   OH239591   0.668   4.319   8.533  0.0136  0.1902  0.4946
 6011TIP3    H139592   0.744   4.264   8.515  1.3480  2.6198 -2.2041
 6011TIP3    H239593   0.705   4.400   8.569 -1.5430  0.5706  1.3249
 6012TIP3   OH239594   2.639   3.752   8.084 -0.7383  0.2152  0.4464
 6012TIP3    H139595   2.572   3.725   8.021  0.1409 -0.7874 -0.0911
 6012TIP3    H239596   2.696   3.675   8.092  0.6996  1.2493  0.4075
 6013TIP3   OH239597   2.194   3.028   6.942 -0.2870  0.1665  0.2781
 6013TIP3    H139598   2.236   2.942   6.953  0.5175  0.4595 -0.3674
 6013TIP3    H239599   2.113   3.009   6.895 -1.1023 -0.4523  1.8489
 6014TIP3   OH239600   2.755   1.511   8.366 -0.7053 -0.1084  0.6327
 6014TIP3    H139601   2.706   1.484   8.444 -0.6637 -0.8342  0.4122
 6014TIP3    H239602   2.801   1.432   8.338  0.2795  0.4618  0.6034
 6015TIP3   OH239603   1.875   4.332   2.500  0.6012  0.6104 -0.6799
 6015TIP3    H139604   1.850   4.420   2.473  1.0688  0.9982  0.1068
 6015TIP3    H239605   1.931   4.345   2.577  0.2092 -0.3989 -0.2008
 6016TIP3   OH239606   4.361   2.803   8.295 -0.1387  0.1988  0.5540
 6016TIP3    H139607   4.313   2.721   8.306 -0.7641  0.5524  0.4957
 6016TIP3    H239608   4.344   2.852   8.375  0.2169  0.2876  0.5790
 6017TIP3   OH239609   1.148   3.649   8.423 -0.4622  0.3252  0.2026
 6017TIP3    H139610   1.061   3.688   8.418 -0.0273  1.2668 -0.3079
 6017TIP3    H239611   1.136   3.559   8.392 -1.1327  0.6577 -0.5446
 6018TIP3   OH239612   0.971   2.976   8.424 -0.4266 -0.1780  0.2689
 6018TIP3    H139613   0.880   2.949   8.418 -0.6302  0.2635  1.1413
 6018TIP3    H239614   0.985   2.990   8.518  0.6374 -0.5902  0.1870
 6019TIP3   OH239615   6.347   4.392   1.334 -0.3089  0.2663 -0.0307
 6019TIP3    H139616   6.347   4.305   1.295 -0.6403 -0.3000  1.1869
 6019TIP3    H239617   6.380   4.449   1.265 -0.5103 -0.7486 -0.9971
 6020TIP3   OH239618   4.992   3.811   1.387  0.8377 -0.0882 -0.4865
 6020TIP3    H139619   5.003   3.778   1.298 -0.2989 -0.2334 -0.5794
 6020TIP3    H239620   5.014   3.736   1.443  2.5452  0.2845 -0.5919
 6021TIP3   OH239621   1.708   1.301   7.748 -0.3304  0.1135 -0.2959
 6021TIP3    H139622   1.706   1.235   7.679  0.6990 -1.4673  1.0996
 6021TIP3    H239623   1.620   1.339   7.748 -0.5386 -0.3157 -2.0182
 6022TIP3   OH239624   5.696   3.640   0.920  0.3755  0.4059 -0.1995
 6022TIP3    H139625   5.666   3.549   0.909 -0.7067  0.9013 -1.7141
 6022TIP3    H239626   5.727   3.665   0.833  1.1719  1.3327  0.3366
 6023TIP3   OH239627   3.747   0.379   0.065 -0.1497 -0.7013  0.4878
 6023TIP3    H139628   3.774   0.469   0.045 -0.5578 -0.3102  1.6366
 6023TIP3    H239629   3.815   0.346   0.125  0.2697 -1.3477 -0.3175
 6024TIP3   OH239630   3.349   6.039   1.630 -0.7357  0.4843  0.3594
 6024TIP3    H139631   3.262   6.039   1.592 -1.4797  0.7329  1.9715
 6024TIP3    H239632   3.378   6.130   1.623  1.0071 -0.1696 -3.4827
 6025TIP3   OH239633   4.353   1.848   8.447 -0.2959  0.4200  0.4860
 6025TIP3    H139634   4.420   1.863   8.381  0.1337 -1.9149  0.3193
 6025TIP3    H239635   4.402   1.831   8.528 -0.8018  2.2761  1.2448
 6026TIP3   OH239636   2.543   2.821   1.894  0.1930 -0.6157  0.1385
 6026TIP3    H139637   2.540   2.911   1.861 -1.8141 -1.4334 -2.2723
 6026TIP3    H239638   2.547   2.829   1.989 -1.2044  2.0275  0.0376
 6027TIP3   OH239639   3.825   3.321   0.493 -0.0301 -0.1039 -0.1597
 6027TIP3    H139640   3.818   3.229   0.519  1.8932 -1.1083 -2.8009
 6027TIP3    H239641   3.902   3.324   0.436 -0.1671  3.1335 -0.3366
 6028TIP3   OH239642   6.771   2.477   1.265  0.2050  0.1591 -0.4248
 6028TIP3    H139643   6.779   2.534   1.189  0.5191 -0.4835 -0.8846
 6028TIP3    H239644   6.836   2.511   1.327  0.4277  0.2656 -0.7143
 6029TIP3   OH239645   5.950   3.410   2.153  0.7225  0.5782  0.0101
 6029TIP3    H139646   5.859   3.382   2.155  0.5760  1.0543  0.5675
 6029TIP3    H239647   5.987   3.379   2.236  0.4687  2.2496  0.7846
 6030TIP3   OH239648   0.293   0.376   2.820 -0.2566 -0.5799 -0.5457
 6030TIP3    H139649   0.349   0.390   2.897  0.4138 -2.1026 -0.7179
 6030TIP3    H239650   0.236   0.303   2.845 -1.2843  0.1073 -0.8517
 6031TIP3   OH239651   1.940   2.717   1.042  0.1679  0.1564  0.0073
 6031TIP3    H139652   1.961   2.626   1.063 -2.5217 -0.1772  1.6816
 6031TIP3    H239653   1.928   2.718   0.947 -0.3738 -1.3885  0.0420
 6032TIP3   OH239654   1.906   4.001   1.369 -0.5980  0.2118 -0.0582
 6032TIP3    H139655   1.938   3.974   1.455  0.4305  1.1644 -0.1154
 6032TIP3    H239656   1.849   4.076   1.388  2.5557  2.9245 -0.3695
 6033TIP3   OH239657   5.261   2.573   0.056 -0.2677 -0.0253 -0.7650
 6033TIP3    H139658   5.265   2.540   0.146  0.4918 -0.5994 -0.9981
 6033TIP3    H239659   5.281   2.666   0.065  2.8041 -0.5832 -0.5794
 6034TIP3   OH239660   1.902   3.475   8.215  0.0841 -0.0820 -0.2574
 6034TIP3    H139661   1.976   3.432   8.171  0.2822  0.8697 -0.8931
 6034TIP3    H239662   1.939   3.508   8.296  0.2910  0.1498 -0.4444
 6035TIP3   OH239663   0.633   0.344   0.279  0.2907 -0.2877 -0.3901
 6035TIP3    H139664   0.636   0.438   0.262 -1.5009  0.1357  1.2517
 6035TIP3    H239665   0.650   0.336   0.372 -0.9565 -1.4384 -0.2294
 6036TIP3   OH239666   0.174   6.501   2.183 -0.0465 -0.0205  0.7537
 6036TIP3    H139667   0.239   6.465   2.244  0.0105  0.0943  0.7608
 6036TIP3    H239668   0.138   6.577   2.228  0.7819  0.7229  0.2107
 6037TIP3   OH239669   2.580   0.569   8.336  0.1621  0.4844  0.2896
 6037TIP3    H139670   2.580   0.660   8.366 -0.3465  1.0067 -1.2048
 6037TIP3    H239671   2.529   0.570   8.255  1.3640 -0.8687 -0.5311
 6038TIP3   OH239672   1.343   6.227   0.679 -0.3036 -0.4048  0.1064
 6038TIP3    H139673   1.346   6.264   0.767  0.2525 -0.4014  0.0922
 6038TIP3    H239674   1.409   6.277   0.630  0.6272 -1.5539  0.1497
 6039TIP3   OH239675   1.761   2.849   1.198  0.0974  0.0245  0.5766
 6039TIP3    H139676   1.724   2.767   1.229  2.0391 -1.4437 -0.7601
 6039TIP3    H239677   1.836   2.823   1.144 -0.1200  2.5915 -1.1478
 6040TIP3   OH239678   5.907   2.633   1.672  0.2838 -0.0162 -0.4804
 6040TIP3    H139679   5.869   2.721   1.661 -0.9519 -0.6228 -1.3259
 6040TIP3    H239680   5.954   2.637   1.755  0.2918  1.4599 -0.5282
 6041TIP3   OH239681   2.581   5.324   7.661  0.7234  0.0143  0.1892
 6041TIP3    H139682   2.658   5.369   7.625 -1.1531  3.1151 -0.3426
 6041TIP3    H239683   2.567   5.366   7.746 -0.8234  0.0778 -0.0744
 6042TIP3   OH239684   2.776   0.448   0.704 -0.0428 -0.2698  0.2091
 6042TIP3    H139685   2.841   0.509   0.671 -0.1602 -0.6194 -0.6925
 6042TIP3    H239686   2.827   0.383   0.753  0.3541 -0.7863 -0.8568
 6043TIP3   OH239687   2.325   6.558   8.515  0.5383  0.5758  0.5777
 6043TIP3    H139688   2.366   6.519   8.438  2.2821  1.0307  1.2268
 6043TIP3    H239689   2.304   6.647   8.489  0.6833  0.5800  0.4734
 6044TIP3   OH239690   4.968   5.290   2.821  0.2016  0.3734  0.0302
 6044TIP3    H139691   4.885   5.335   2.839  0.2197  0.0453  1.0606
 6044TIP3    H239692   4.989   5.311   2.730 -1.9632 -1.0100 -0.8731
 6045TIP3   OH239693   4.378   1.729   1.858  0.5860  0.1733 -0.1554
 6045TIP3    H139694   4.341   1.655   1.810  0.5736  0.6368 -0.8777
 6045TIP3    H239695   4.322   1.738   1.936  1.4278 -1.4346  0.6795
 6046TIP3   OH239696   3.247   3.182   2.945  0.1257 -0.5115 -0.4583
 6046TIP3    H139697   3.311   3.202   3.013 -1.0651  0.3454  0.4256
 6046TIP3    H239698   3.200   3.105   2.977 -0.8980  0.2986  0.0359
 6047TIP3   OH239699   6.001   1.626   2.173 -0.5861 -0.3842 -0.3063
 6047TIP3    H139700   6.095   1.630   2.190 -0.7801  0.7242  0.6110
 6047TIP3    H239701   5.983   1.532   2.168  0.4317 -0.6441  0.3699
 6048TIP3   OH239702   2.126   1.347   2.911  0.0030 -0.0764 -0.0768
 6048TIP3    H139703   2.215   1.383   2.917 -0.2550  0.4299  0.9383
 6048TIP3    H239704   2.070   1.423   2.897 -0.2050 -0.4833 -1.5842
 6049TIP3   OH239705   0.315   0.580   7.360 -0.4106 -0.1689 -0.4367
 6049TIP3    H139706   0.370   0.540   7.427 -1.2329  1.1181  1.0774
 6049TIP3    H239707   0.265   0.507   7.323 -0.7924 -0.8003  1.2016
 6050TIP3   OH239708   6.820   5.151   1.842  0.6060 -0.0933 -0.1857
 6050TIP3    H139709   6.898   5.180   1.794  0.2420  0.3752 -0.4990
 6050TIP3    H239710   6.854   5.091   1.908  1.1924 -0.1870 -0.5645
 6051TIP3   OH239711   4.357   4.504   7.898  0.6671  0.6129 -0.6542
 6051TIP3    H139712   4.361   4.486   7.992  0.1990  0.4131 -0.6690
 6051TIP3    H239713   4.274   4.549   7.885 -1.1211 -2.5784 -1.4633
 6052TIP3   OH239714   2.995   3.230   7.876 -0.4303 -0.0675  0.4632
 6052TIP3    H139715   2.966   3.213   7.786  1.3694 -0.2585 -0.1263
 6052TIP3    H239716   2.922   3.277   7.916 -0.6469  1.5247 -1.6179
 6053TIP3   OH239717   6.578   1.952   1.068  0.0056  0.6780 -0.4163
 6053TIP3    H139718   6.603   1.908   0.987 -0.1494  0.8991 -0.5859
 6053TIP3    H239719   6.653   2.007   1.089  0.2297  0.2781 -0.1639
 6054TIP3   OH239720   0.619   4.600   0.173  0.4354 -0.5103 -0.0400
 6054TIP3    H139721   0.671   4.584   0.094  0.0920 -0.3127 -0.3069
 6054TIP3    H239722   0.571   4.519   0.188 -1.0813  0.1244 -1.2244
 6055TIP3   OH239723   4.008   0.500   0.789 -0.2700 -0.3798  0.0226
 6055TIP3    H139724   3.964   0.496   0.704  0.7141  1.4969 -0.6176
 6055TIP3    H239725   4.093   0.460   0.774 -0.2107 -0.3230  0.2062
 6056TIP3   OH239726   0.961   4.008   7.521  0.1965 -0.3273  0.1294
 6056TIP3    H139727   0.866   4.005   7.533  0.1682 -0.6481 -0.1566
 6056TIP3    H239728   0.991   4.074   7.584  0.1146 -2.2417  2.3466
 6057TIP3   OH239729   3.750   4.442   1.770 -0.0015  0.0662 -0.6808
 6057TIP3    H139730   3.805   4.506   1.815  0.1172  0.2793 -1.1253
 6057TIP3    H239731   3.788   4.357   1.794 -0.4144  0.1358  0.2464
 6058TIP3   OH239732   4.932   4.514   8.566 -0.1345 -0.2149 -0.4443
 6058TIP3    H139733   4.984   4.478   8.494 -0.7550  0.7199 -1.3932
 6058TIP3    H239734   4.866   4.447   8.583  1.7461 -1.7519  1.2794
 6059TIP3   OH239735   6.803   3.481   2.343 -0.4888 -0.1983 -0.2847
 6059TIP3    H139736   6.794   3.501   2.436  1.0341 -0.1635 -0.1177
 6059TIP3    H239737   6.766   3.557   2.298 -1.7577 -0.4712  0.2713
 6060TIP3   OH239738   1.412   2.537   7.625 -0.1182  0.2845 -0.3694
 6060TIP3    H139739   1.468   2.466   7.653  0.4543  1.1752  0.8462
 6060TIP3    H239740   1.461   2.617   7.646 -1.2178  1.0596 -0.6132
 6061TIP3   OH239741   0.965   1.153   0.924  0.6609 -0.4634  0.2199
 6061TIP3    H139742   1.019   1.074   0.915  2.2150  0.5778  0.0426
 6061TIP3    H239743   0.961   1.169   1.018  0.9867 -0.3379  0.2144
 6062TIP3   OH239744   3.900   4.915   7.678  0.9565 -0.0385  1.0625
 6062TIP3    H139745   3.816   4.869   7.675  0.5407  0.6535  1.8076
 6062TIP3    H239746   3.915   4.943   7.587  1.1201 -1.4414  0.6397
 6063TIP3   OH239747   0.991   5.959   2.168  0.3326  0.1624  0.5037
 6063TIP3    H139748   0.975   6.045   2.208 -0.3587  1.1800 -1.7437
 6063TIP3    H239749   1.077   5.967   2.127  0.1780 -0.1197  0.1079
 6064TIP3   OH239750   3.377   3.083   1.836 -0.2787 -0.0155  0.2468
 6064TIP3    H139751   3.310   3.065   1.902  0.2557  0.2727  0.8777
 6064TIP3    H239752   3.418   2.998   1.819 -3.5654 -1.2190 -3.3478
 6065TIP3   OH239753   2.130   2.346   0.842  0.2933  0.3522  0.1181
 6065TIP3    H139754   2.112   2.253   0.835 -1.4441  0.5703  1.1922
 6065TIP3    H239755   2.225   2.353   0.828  0.2011 -1.3408 -1.7849
 6066TIP3   OH239756   0.888   6.727   0.262 -0.0160  0.4306 -0.5069
 6066TIP3    H139757   0.970   6.751   0.219 -0.4143 -0.2862 -1.7031
 6066TIP3    H239758   0.868   6.803   0.317  1.9245  0.2353  0.5626
 6067TIP3   OH239759   5.163   5.312   3.519  0.7114  0.5027 -0.7594
 6067TIP3    H139760   5.100   5.241   3.523  0.5785  0.6435 -0.2178
 6067TIP3    H239761   5.147   5.355   3.435 -0.6288  1.1753 -0.1886
 6068TIP3   OH239762   6.411   4.409   3.092 -0.0781 -0.0902 -0.1786
 6068TIP3    H139763   6.377   4.469   3.158 -0.0458  1.1922 -1.2846
 6068TIP3    H239764   6.453   4.339   3.142 -1.9531 -0.3145  1.1753
 6069TIP3   OH239765   0.090   2.535   1.904 -0.2763 -0.4331  0.6368
 6069TIP3    H139766  -0.002   2.561   1.895 -0.1752 -0.0629  0.6749
 6069TIP3    H239767   0.088   2.439   1.896 -0.4663 -0.3250 -0.9499
 6070TIP3   OH239768   0.122   2.023   8.395  0.1731  0.3780 -0.6714
 6070TIP3    H139769   0.176   2.018   8.474  2.4001  0.2346 -2.1225
 6070TIP3    H239770   0.139   1.942   8.349 -0.8824  0.5857 -1.4534
 6071TIP3   OH239771   6.487   4.913   1.565  0.0485 -0.1502 -0.0077
 6071TIP3    H139772   6.443   4.864   1.495 -0.4054 -0.3482  0.4116
 6071TIP3    H239773   6.554   4.963   1.520  0.6518 -1.2933 -0.4355
 6072TIP3   OH239774   4.569   0.574   0.782  0.4484  0.3304  0.2776
 6072TIP3    H139775   4.488   0.542   0.822 -1.8175  2.2087 -2.3403
 6072TIP3    H239776   4.546   0.585   0.689  2.9051  3.3514 -0.1281
 6073TIP3   OH239777   0.120   4.837   8.388 -0.0243 -0.5297  0.1707
 6073TIP3    H139778   0.084   4.762   8.436 -1.3551 -0.2479 -0.3365
 6073TIP3    H239779   0.188   4.800   8.333  0.1709 -1.1638  0.8231
 6074TIP3   OH239780   5.661   2.611   0.907  0.3937 -0.7960 -0.5970
 6074TIP3    H139781   5.621   2.546   0.850  0.6593 -1.5212  0.0364
 6074TIP3    H239782   5.662   2.570   0.993 -1.7063  0.9591  0.3808
 6075TIP3   OH239783   2.709   2.410   0.993  0.3855  0.0188 -0.3224
 6075TIP3    H139784   2.713   2.493   1.040  0.0008  0.2472 -0.6869
 6075TIP3    H239785   2.776   2.417   0.925  0.8346 -0.2509  0.0783
 6076TIP3   OH239786   5.221   0.516   2.408 -0.4798 -0.2613 -0.2743
 6076TIP3    H139787   5.211   0.535   2.315 -0.7005 -0.4915 -0.2981
 6076TIP3    H239788   5.132   0.512   2.442 -0.3889  0.3756  0.0620
 6077TIP3   OH239789   5.398   0.225   2.395 -0.0197 -0.0978  0.5316
 6077TIP3    H139790   5.459   0.171   2.345 -0.5742  0.0941 -0.3723
 6077TIP3    H239791   5.321   0.235   2.338 -0.8581 -0.2452  1.5957
 6078TIP3   OH239792   3.428   5.576   7.506 -0.7512 -0.6700 -0.1123
 6078TIP3    H139793   3.367   5.528   7.450 -2.0485  1.7863 -0.9551
 6078TIP3    H239794   3.396   5.560   7.595 -0.9923 -1.5603 -0.3481
 6079TIP3   OH239795   4.712   4.810   2.513 -0.8100 -0.6977 -0.8393
 6079TIP3    H139796   4.635   4.841   2.466 -1.8369 -0.5460  0.8685
 6079TIP3    H239797   4.691   4.719   2.537  0.2897 -1.2525 -1.8442
 6080TIP3   OH239798   4.310   3.755   7.990  0.1194 -0.1957  0.3256
 6080TIP3    H139799   4.332   3.817   8.060 -1.4890 -0.9060  1.5087
 6080TIP3    H239800   4.262   3.685   8.034  4.0934 -3.7882 -0.4324
 6081TIP3   OH239801   4.897   2.370   1.678 -0.4210 -0.0679 -0.2736
 6081TIP3    H139802   4.834   2.436   1.707 -0.3683  0.7028 -1.8116
 6081TIP3    H239803   4.947   2.413   1.609  1.0219 -1.0552  0.1099
 6082TIP3   OH239804   4.096   2.669   2.034 -0.1058 -0.3985  0.2618
 6082TIP3    H139805   4.002   2.672   2.052 -0.0189 -2.4579  1.4352
 6082TIP3    H239806   4.137   2.672   2.121  0.9249  0.3465 -0.2296
 6083TIP3   OH239807   3.270   5.579   0.481 -0.1721 -0.2302 -0.0864
 6083TIP3    H139808   3.258   5.581   0.386 -0.1980  0.6096 -0.0753
 6083TIP3    H239809   3.216   5.650   0.514  0.5395  0.0695  0.4769
 6084TIP3   OH239810   1.990   6.332   7.641 -0.4887 -0.1084 -0.6667
 6084TIP3    H139811   1.956   6.418   7.617  0.3216  0.0702 -1.2094
 6084TIP3    H239812   2.079   6.349   7.673 -0.4787 -0.6962 -0.3599
 6085TIP3   OH239813   0.269   2.414   2.612 -0.5731 -0.4727 -0.1678
 6085TIP3    H139814   0.312   2.449   2.534  0.0599 -0.1521  0.3217
 6085TIP3    H239815   0.175   2.419   2.591 -0.3795 -2.2165 -1.6744
 6086TIP3   OH239816   3.964   5.458   1.377  0.8833  0.0220  0.1349
 6086TIP3    H139817   3.942   5.480   1.287  1.5008  0.5742  0.1151
 6086TIP3    H239818   3.899   5.392   1.402  2.1169 -1.9179 -1.5028
 6087TIP3   OH239819   3.428   4.639   0.391 -0.3332  0.0198  0.4451
 6087TIP3    H139820   3.391   4.600   0.312  0.4733 -1.9480  0.9743
 6087TIP3    H239821   3.523   4.633   0.378 -0.1926 -0.1759  1.4584
 6088TIP3   OH239822   3.429   1.040   1.652  0.1277 -0.0494 -0.3062
 6088TIP3    H139823   3.433   0.950   1.621  0.4147 -0.2219  0.2224
 6088TIP3    H239824   3.471   1.038   1.738 -0.2211  0.5115 -0.1175
 6089TIP3   OH239825   1.671   1.803   8.098  0.2623  0.0116  0.3098
 6089TIP3    H139826   1.687   1.885   8.050  0.7627 -0.9818 -1.3003
 6089TIP3    H239827   1.708   1.819   8.185 -1.1904  2.0850  0.6378
 6090TIP3   OH239828   4.284   0.576   2.779 -0.0428 -0.5718  0.2480
 6090TIP3    H139829   4.236   0.496   2.760 -1.0578  0.1150 -0.1707
 6090TIP3    H239830   4.249   0.605   2.863 -2.5051  1.4105 -1.3044
 6091TIP3   OH239831   2.481   3.797   0.629  0.1801 -0.1506  0.0641
 6091TIP3    H139832   2.530   3.852   0.568 -1.3950 -1.3150 -2.4217
 6091TIP3    H239833   2.546   3.738   0.667  0.9823 -0.7560 -2.1112
 6092TIP3   OH239834   5.265   6.362   2.340  0.4547  0.4538 -0.4953
 6092TIP3    H139835   5.309   6.281   2.366  0.6959  1.2970  2.0170
 6092TIP3    H239836   5.328   6.407   2.285  0.1224 -1.2239 -2.3734
 6093TIP3   OH239837   0.519   1.467   7.794  0.3534  0.0731  0.0290
 6093TIP3    H139838   0.596   1.410   7.789 -0.7588 -1.4151 -0.7757
 6093TIP3    H239839   0.492   1.480   7.703  0.3818  1.6682  0.2134
 6094TIP3   OH239840   6.379   5.446   8.473  0.2149 -0.3339  0.2211
 6094TIP3    H139841   6.301   5.430   8.526 -0.6461 -1.2133 -1.2452
 6094TIP3    H239842   6.349   5.435   8.383  1.8793  0.0673 -0.4104
 6095TIP3   OH239843   5.310   5.240   8.158 -0.4032  0.1224  0.0644
 6095TIP3    H139844   5.316   5.335   8.157  1.0915  0.0885  1.7606
 6095TIP3    H239845   5.401   5.210   8.163 -0.8691 -1.3913 -0.0429
 6096TIP3   OH239846   6.560   4.002   8.617 -0.0049 -0.1029  0.5531
 6096TIP3    H139847   6.465   3.997   8.624 -0.0454  0.1916  0.2504
 6096TIP3    H239848   6.581   3.951   8.539  0.1450 -0.6759  0.9582
 6097TIP3   OH239849   6.651   0.823   1.730 -0.4407  0.3381 -0.2110
 6097TIP3    H139850   6.556   0.817   1.736 -0.3370 -0.3320  1.1677
 6097TIP3    H239851   6.682   0.798   1.817  0.9982  0.5391 -0.6420
 6098TIP3   OH239852   3.316   6.249   0.014 -0.3912  0.4010  0.2080
 6098TIP3    H139853   3.238   6.302   0.001  0.3659  1.1737 -1.5824
 6098TIP3    H239854   3.376   6.306   0.062  0.1334  0.9329 -1.0314
 6099TIP3   OH239855   3.513   4.980   7.565  0.3347 -0.3989 -0.3266
 6099TIP3    H139856   3.457   5.012   7.494  0.5694 -0.9567 -0.7646
 6099TIP3    H239857   3.483   5.028   7.643  0.6043  0.8055 -0.9447
 6100TIP3   OH239858   4.685   6.814   2.108 -0.0961  0.1484  0.5856
 6100TIP3    H139859   4.692   6.909   2.117  0.9485  0.0121  1.3901
 6100TIP3    H239860   4.758   6.791   2.050 -1.4645  0.0191 -1.1773
 6101TIP3   OH239861   3.111   2.001   1.157 -0.2478 -0.0796 -0.1440
 6101TIP3    H139862   3.093   2.039   1.243 -0.3126 -1.0828  0.2998
 6101TIP3    H239863   3.158   2.070   1.110 -0.5344  0.6147  0.5608
 6102TIP3   OH239864   1.580   5.104   1.183  0.6589  0.4666  0.3435
 6102TIP3    H139865   1.611   5.059   1.104 -0.2893 -0.0686  0.2642
 6102TIP3    H239866   1.655   5.104   1.242  1.2389  0.4590 -0.3816
 6103TIP3   OH239867   2.350   4.051   8.210 -0.2715  0.4038  0.1170
 6103TIP3    H139868   2.365   3.961   8.181 -0.4487  0.7535 -1.0888
 6103TIP3    H239869   2.397   4.057   8.293 -0.5440 -0.9013  0.3882
 6104TIP3   OH239870   0.047   1.182   7.975  0.0080  0.5690 -0.6277
 6104TIP3    H139871  -0.047   1.181   7.957  0.2483  0.4711 -1.9869
 6104TIP3    H239872   0.053   1.175   8.071 -1.3431 -0.5852 -0.5912
 6105TIP3   OH239873   3.438   4.061   3.261  0.4959  0.7866  0.1776
 6105TIP3    H139874   3.379   4.087   3.332 -2.1255 -0.7378 -1.3345
 6105TIP3    H239875   3.466   3.973   3.284 -0.6880  0.1271 -0.8380
 6106TIP3   OH239876   5.616   2.447   7.556 -0.4370  0.1023 -0.1933
 6106TIP3    H139877   5.629   2.421   7.647 -0.1096 -0.5043 -0.4105
 6106TIP3    H239878   5.547   2.514   7.560 -0.6336 -0.1320  0.4677
 6107TIP3   OH239879   1.361   3.150   1.269 -0.4342 -0.1449 -0.4292
 6107TIP3    H139880   1.386   3.142   1.177  0.4716 -1.4709 -0.0843
 6107TIP3    H239881   1.439   3.184   1.312 -0.0084 -1.9230  0.2489
 6108TIP3   OH239882   3.910   5.860   0.467  0.3896  0.0871  0.0761
 6108TIP3    H139883   3.964   5.911   0.527  0.1403  2.3750 -1.5263
 6108TIP3    H239884   3.972   5.802   0.422  1.0584  0.6341  0.2894
 6109TIP3   OH239885   2.421   0.748   1.547  0.4091 -0.3814 -0.1084
 6109TIP3    H139886   2.443   0.776   1.458 -0.3096 -0.3905 -0.2935
 6109TIP3    H239887   2.460   0.815   1.603 -0.7647  0.6945 -0.5262
 6110TIP3   OH239888   2.768   6.518   1.595 -0.1550 -0.4307  0.2709
 6110TIP3    H139889   2.835   6.450   1.583 -0.8261 -1.0947  0.1933
 6110TIP3    H239890   2.765   6.533   1.689 -0.1575 -0.6794  0.3126
 6111TIP3   OH239891   3.765   2.461   1.956  0.0493 -0.0643 -0.7145
 6111TIP3    H139892   3.807   2.382   1.992 -0.1383  0.6552  1.2270
 6111TIP3    H239893   3.836   2.509   1.915 -0.0889 -1.9266 -3.3666
 6112TIP3   OH239894   3.932   0.608   2.841  0.1878  0.2022  0.7502
 6112TIP3    H139895   3.978   0.667   2.900  0.5780 -0.4332  1.0822
 6112TIP3    H239896   3.997   0.541   2.817 -0.1109  0.1671  0.0067
 6113TIP3   OH239897   2.954   1.494   7.914 -0.5814 -0.3182 -0.5002
 6113TIP3    H139898   2.862   1.495   7.941 -0.2049 -1.3243  0.9020
 6113TIP3    H239899   2.955   1.544   7.832 -2.5470 -1.1990 -1.1199
 6114TIP3   OH239900   5.750   1.185   2.735 -0.5049  0.3644 -0.4394
 6114TIP3    H139901   5.686   1.167   2.666 -0.4671 -0.5332 -0.2546
 6114TIP3    H239902   5.825   1.130   2.713 -0.0560  0.8971 -0.2769
 6115TIP3   OH239903   3.823   4.677   1.590  0.2178 -0.3902 -0.4176
 6115TIP3    H139904   3.737   4.671   1.631  0.9683  1.0130  1.5377
 6115TIP3    H239905   3.860   4.759   1.624  2.5849 -1.2784 -0.6542
 6116TIP3   OH239906   4.404   1.414   1.334  0.5721 -0.1209  0.2929
 6116TIP3    H139907   4.418   1.423   1.240  0.9780  0.4090  0.3987
 6116TIP3    H239908   4.309   1.420   1.345  0.4568 -0.9498 -0.1509
 6117TIP3   OH239909   1.503   0.813   2.007  0.2297  0.2847  0.5045
 6117TIP3    H139910   1.566   0.758   2.052  0.7268  0.4132 -0.0368
 6117TIP3    H239911   1.490   0.888   2.066  0.4416  0.1663  0.7001
 6118TIP3   OH239912   0.954   5.548   2.226  0.1661  0.2217 -0.1856
 6118TIP3    H139913   0.901   5.469   2.217  1.3433 -1.3457  3.9949
 6118TIP3    H239914   0.898   5.619   2.195 -2.1657 -1.9238 -1.1541
 6119TIP3   OH239915   1.553   2.961   2.949 -0.4445  0.2232 -0.1631
 6119TIP3    H139916   1.533   2.876   2.987  0.9336  1.1816  3.0501
 6119TIP3    H239917   1.648   2.961   2.939 -0.5711  0.8629 -1.5624
 6120TIP3   OH239918   4.476   0.856   7.634  0.2008  0.3898 -0.0703
 6120TIP3    H139919   4.539   0.786   7.623 -0.0385 -0.0081  0.9879
 6120TIP3    H239920   4.493   0.892   7.722 -2.0516 -0.8157  0.9588
 6121TIP3   OH239921   4.798   5.317   0.772  0.0394  0.1198 -0.4051
 6121TIP3    H139922   4.774   5.301   0.681  1.6029  1.1034 -1.0421
 6121TIP3    H239923   4.858   5.246   0.794 -0.6573 -0.3518  0.0156
 6122TIP3   OH239924   2.224   1.927   2.619 -0.0380  0.7779  0.1208
 6122TIP3    H139925   2.165   1.876   2.563  0.5750  0.7723 -0.5342
 6122TIP3    H239926   2.196   1.906   2.708 -0.4675  0.0997 -0.1625
 6123TIP3   OH239927   1.313   2.266   0.998  0.1323 -0.2061  0.0924
 6123TIP3    H139928   1.269   2.351   1.003 -0.3790 -0.3893 -0.9908
 6123TIP3    H239929   1.245   2.206   0.970  0.6260 -0.8741  0.3064
 6124TIP3   OH239930   5.438   3.940   0.800  0.5118  0.2524  0.3543
 6124TIP3    H139931   5.502   3.917   0.733  0.0612  0.7482 -0.2623
 6124TIP3    H239932   5.467   4.026   0.831  0.7870 -0.0285  0.8892
 6125TIP3   OH239933   2.939   5.371   0.611 -0.1623  0.2372 -0.2318
 6125TIP3    H139934   2.848   5.394   0.628 -0.4606 -1.8485  1.4605
 6125TIP3    H239935   2.988   5.410   0.683 -0.1702 -1.1595  0.5617
 6126TIP3   OH239936   0.392   4.244   0.266  0.0765  0.1743  0.2431
 6126TIP3    H139937   0.390   4.336   0.292 -2.1904 -0.1029  1.3056
 6126TIP3    H239938   0.390   4.246   0.170  1.5923  1.1817  0.1829
 6127TIP3   OH239939   4.120   6.788   2.955 -0.2477 -0.1738 -0.2328
 6127TIP3    H139940   4.060   6.788   2.881  0.3403  1.2448 -0.7284
 6127TIP3    H239941   4.204   6.761   2.918  0.1952  1.1579 -0.2270
 6128TIP3   OH239942   0.184   2.378   0.182  0.0083 -0.6102  0.0353
 6128TIP3    H139943   0.280   2.380   0.186 -0.0085 -0.6189  0.4894
 6128TIP3    H239944   0.164   2.302   0.128  0.2440 -1.1688  0.7217
 6129TIP3   OH239945   5.893   0.381   0.532  0.0085  0.4813  0.4060
 6129TIP3    H139946   5.808   0.377   0.489  0.5636  0.1413 -0.6993
 6129TIP3    H239947   5.938   0.301   0.505  0.9186  0.9633  0.4452
 6130TIP3   OH239948   6.390   0.117   1.841 -0.2746  0.9537 -0.1590
 6130TIP3    H139949   6.369   0.209   1.855 -0.3113  1.2207 -1.8253
 6130TIP3    H239950   6.408   0.110   1.748 -0.0906 -0.7002 -0.0310
 6131TIP3   OH239951   0.947   6.410   1.957  0.1444 -0.1385 -0.0076
 6131TIP3    H139952   0.996   6.489   1.978 -0.3477 -0.3615  2.3651
 6131TIP3    H239953   0.862   6.441   1.927  0.7719  0.2265 -1.4482
 6132TIP3   OH239954   0.989   2.117   2.013  0.1512 -0.6622 -0.0588
 6132TIP3    H139955   0.975   2.057   2.086  0.9373  0.7383  1.2938
 6132TIP3    H239956   0.903   2.125   1.972 -0.5125 -0.7772  1.2709
 6133TIP3   OH239957   3.421   6.206   6.919  0.2959  1.0222 -0.1286
 6133TIP3    H139958   3.394   6.151   6.992  0.6641  0.7050 -0.2297
 6133TIP3    H239959   3.383   6.164   6.841 -0.4512  1.5903 -0.0829
 6134TIP3   OH239960   6.069   1.943   7.708  0.5226  0.0413 -0.3631
 6134TIP3    H139961   6.137   1.945   7.641 -0.5047 -0.1722 -1.4335
 6134TIP3    H239962   6.011   1.871   7.682 -1.6440  1.8937 -1.0411
 6135TIP3   OH239963   1.065   0.441   0.843  0.1944  0.5952  0.0673
 6135TIP3    H139964   1.014   0.363   0.820  1.2571 -0.7920  2.0942
 6135TIP3    H239965   1.150   0.428   0.800 -0.0909  1.3885 -0.7754
 6136TIP3   OH239966   2.452   4.254   7.967 -0.0362  0.0489 -0.1301
 6136TIP3    H139967   2.468   4.164   7.939 -1.8583 -0.6751  0.9559
 6136TIP3    H239968   2.499   4.261   8.050 -0.2534 -0.0550  0.0030
 6137TIP3   OH239969   6.206   1.181   1.291  0.2704  0.0269 -0.0929
 6137TIP3    H139970   6.189   1.245   1.222 -0.1253 -0.2176 -0.2296
 6137TIP3    H239971   6.127   1.127   1.293 -0.1923  0.7128  1.3217
 6138TIP3   OH239972   0.520   1.906   2.175  0.0376 -0.2816 -0.2557
 6138TIP3    H139973   0.477   1.970   2.232  2.1118  0.1058  0.9611
 6138TIP3    H239974   0.506   1.822   2.219  0.8258 -0.1059  0.3461
 6139TIP3   OH239975   4.915   5.938   1.355  0.6064 -0.8106 -0.7407
 6139TIP3    H139976   4.834   5.989   1.363  0.5524 -1.1353  1.7651
 6139TIP3    H239977   4.890   5.850   1.383  2.0435 -0.5810  1.6178
 6140TIP3   OH239978   3.841   3.573   1.150  0.9165 -0.7173 -0.2421
 6140TIP3    H139979   3.845   3.649   1.092  2.5193 -0.8858 -0.4181
 6140TIP3    H239980   3.781   3.599   1.220 -1.8919 -0.8835 -2.4180
 6141TIP3   OH239981   0.574   2.452   2.285  0.1601  0.1908 -0.2975
 6141TIP3    H139982   0.586   2.528   2.229 -0.7903 -0.0975 -0.9275
 6141TIP3    H239983   0.613   2.380   2.237  1.3428  0.3117  0.4412
 6142TIP3   OH239984   1.861   6.068   1.171 -0.0286  0.4904  0.1091
 6142TIP3    H139985   1.846   6.154   1.210 -1.2303  1.5468 -2.4799
 6142TIP3    H239986   1.893   6.087   1.083 -2.3715 -1.6309 -1.3241
 6143TIP3   OH239987   1.926   3.629   1.643  0.1386 -0.0112  0.3796
 6143TIP3    H139988   1.873   3.622   1.722 -0.4247  4.2975  0.5901
 6143TIP3    H239989   2.015   3.606   1.671 -0.1081  1.0832  2.1905
 6144TIP3   OH239990   0.671   3.059   7.966 -0.0511  0.3273 -0.1189
 6144TIP3    H139991   0.722   3.008   8.029 -1.0242  1.3163  1.5404
 6144TIP3    H239992   0.590   3.009   7.954  0.1028  0.1758 -0.5348
 6145TIP3   OH239993   0.285   2.928   1.076  0.3013 -0.1105 -0.1192
 6145TIP3    H139994   0.231   2.849   1.071 -0.6597  0.4439  0.9667
 6145TIP3    H239995   0.313   2.944   0.986 -1.8464 -0.0902 -0.8423
 6146TIP3   OH239996   2.664   1.590   0.492 -0.6960  0.2274 -0.2735
 6146TIP3    H139997   2.642   1.661   0.553 -2.5289  0.8424 -1.5845
 6146TIP3    H239998   2.657   1.510   0.544  3.0670  0.9508  1.7128
 6147TIP3   OH239999   3.313   4.820   0.797 -0.0408 -0.3726  0.1692
 6147TIP3    H140000   3.283   4.908   0.775  0.9926  0.2141  1.0014
 6147TIP3    H240001   3.376   4.833   0.868  2.4021 -1.4997 -1.6687
 6148TIP3   OH240002   5.512   4.296   8.153 -0.1510  0.4204  0.6551
 6148TIP3    H140003   5.506   4.294   8.249 -0.3783  0.3801  0.6402
 6148TIP3    H240004   5.451   4.229   8.124 -1.1314  1.3621  0.4404
 6149TIP3   OH240005   2.117   6.540   0.020  0.4759 -0.2251  0.0040
 6149TIP3    H140006   2.211   6.519   0.014  0.1595 -2.1694  1.0961
 6149TIP3    H240007   2.073   6.462  -0.014 -0.7590  0.4404  0.0445
 6150TIP3   OH240008   1.251   4.121   2.475 -0.5860 -0.0833 -0.1822
 6150TIP3    H140009   1.189   4.049   2.464  0.0836 -0.4958 -1.3970
 6150TIP3    H240010   1.202   4.199   2.449 -0.3477 -0.5204 -2.0615
 6151TIP3   OH240011   6.476   6.055   0.669  0.1547 -0.3730 -0.1055
 6151TIP3    H140012   6.530   6.107   0.610  0.7738  0.8712  1.4975
 6151TIP3    H240013   6.520   5.970   0.674  1.0289  0.0686 -0.1271
 6152TIP3   OH240014   0.463   6.480   1.655  0.4562 -0.1394 -0.5958
 6152TIP3    H140015   0.529   6.410   1.659  2.0611  1.3694  0.8342
 6152TIP3    H240016   0.497   6.540   1.589  0.1941  0.3513 -0.2864
 6153TIP3   OH240017   6.672   4.809   1.775 -0.1367 -0.0424 -0.7950
 6153TIP3    H140018   6.629   4.831   1.692 -0.5377  0.2505 -0.5189
 6153TIP3    H240019   6.603   4.768   1.828 -0.8779  2.7514  0.6215
 6154TIP3   OH240020   6.805   5.834   0.759 -0.1645  0.0984 -0.0086
 6154TIP3    H140021   6.849   5.826   0.843  1.6359  2.7651 -0.5663
 6154TIP3    H240022   6.865   5.792   0.696  0.4362  1.5071 -0.4237
 6155TIP3   OH240023   2.107   4.681   2.870 -0.4108  0.2852 -0.0394
 6155TIP3    H140024   2.145   4.701   2.955  0.9138  2.7696 -1.1146
 6155TIP3    H240025   2.162   4.610   2.835  0.4642  0.8084  0.2594
 6156TIP3   OH240026   6.506   0.564   1.460  0.2578  0.3712 -0.2157
 6156TIP3    H140027   6.598   0.547   1.477 -0.4425 -1.6776  1.9577
 6156TIP3    H240028   6.500   0.660   1.451  2.4505  0.5933  0.2923
 6157TIP3   OH240029   2.485   6.622   0.086 -0.0230 -0.1257  0.2698
 6157TIP3    H140030   2.567   6.618   0.135 -0.4791 -1.4627  0.9833
 6157TIP3    H240031   2.480   6.538   0.041 -1.6938 -0.7391  1.4660
 6158TIP3   OH240032   4.599   3.216   0.303 -0.3779 -0.3372  0.0791
 6158TIP3    H140033   4.600   3.120   0.306 -0.0487 -0.2982  2.2856
 6158TIP3    H240034   4.651   3.238   0.226  0.5591 -1.9111  0.2221
 6159TIP3   OH240035   4.462   4.581   0.688 -0.0150 -0.3165  0.0306
 6159TIP3    H140036   4.475   4.489   0.667  1.7791 -0.3583  1.1084
 6159TIP3    H240037   4.473   4.585   0.783  2.0699  1.2827 -0.2117
 6160TIP3   OH240038   4.244   0.963   3.022 -0.1491 -0.1245  0.7137
 6160TIP3    H140039   4.155   0.939   2.998 -0.5531  0.6204  1.3955
 6160TIP3    H240040   4.236   1.050   3.061  0.7779 -0.3163  1.3869
 6161TIP3   OH240041   3.418   2.322   0.542 -0.1254  0.3024  0.0790
 6161TIP3    H140042   3.383   2.374   0.470 -0.7641 -0.5124 -0.2252
 6161TIP3    H240043   3.454   2.244   0.500  0.5994  0.3785  0.5392
 6162TIP3   OH240044   5.389   1.514   2.927  0.5406 -0.0312  0.1718
 6162TIP3    H140045   5.387   1.419   2.916  0.9413  0.0025 -0.2286
 6162TIP3    H240046   5.382   1.528   3.021 -0.6034 -0.4185  0.1607
 6163TIP3   OH240047   6.813   3.999   2.032  0.4984 -0.2650 -0.2742
 6163TIP3    H140048   6.726   4.019   2.066 -0.1138 -1.4822 -1.0573
 6163TIP3    H240049   6.822   4.056   1.955 -0.8096 -2.0694 -1.8745
 6164TIP3   OH240050   4.134   0.133   2.144 -0.3895  0.3308 -0.4876
 6164TIP3    H140051   4.220   0.150   2.184 -1.8173  1.2506  2.4614
 6164TIP3    H240052   4.099   0.059   2.194 -1.4112  0.0935 -1.5230
 6165TIP3   OH240053   6.706   6.223   8.472  0.2375  0.5065 -0.0501
 6165TIP3    H140054   6.794   6.224   8.434  1.5735  0.6967  2.7598
 6165TIP3    H240055   6.669   6.308   8.449  1.7572  1.4040  0.6534
 6166TIP3   OH240056   2.740   5.308   1.387 -0.1604  0.5006 -0.5088
 6166TIP3    H140057   2.795   5.380   1.353  0.1931  1.8345  2.5433
 6166TIP3    H240058   2.800   5.257   1.442 -1.5299  1.0216  1.5744
 6167TIP3   OH240059   4.695   5.408   0.098  0.0938  0.0303 -0.0290
 6167TIP3    H140060   4.746   5.328   0.102 -1.4932 -1.0577 -0.5331
 6167TIP3    H240061   4.679   5.422   0.005  0.6863  1.1746  0.0248
 6168TIP3   OH240062   5.251   6.237   7.803 -0.0194 -0.2860 -0.3660
 6168TIP3    H140063   5.263   6.162   7.745 -2.0855  0.5339 -2.0065
 6168TIP3    H240064   5.284   6.312   7.753 -0.4915  0.2337  0.0828
 6169TIP3   OH240065   3.682   1.723   2.750  0.0707 -0.5172  0.1228
 6169TIP3    H140066   3.625   1.787   2.793 -0.1374 -1.3621  1.1480
 6169TIP3    H240067   3.643   1.638   2.771  0.5669 -1.0039 -0.8870
 6170TIP3   OH240068   5.823   0.093   2.025 -0.8861  0.1053 -0.4443
 6170TIP3    H140069   5.874   0.105   2.106 -0.3679  0.2208 -0.7803
 6170TIP3    H240070   5.733   0.082   2.055 -0.3623 -2.8971  0.3792
 6171TIP3   OH240071   4.273   1.217   1.682  0.4210 -0.6428 -0.5329
 6171TIP3    H140072   4.359   1.186   1.651  0.2488  0.5104 -2.2807
 6171TIP3    H240073   4.211   1.178   1.621  0.0533  1.6499 -1.6917
 6172TIP3   OH240074   1.729   3.686   1.844  0.2641 -0.2214 -0.0852
 6172TIP3    H140075   1.650   3.721   1.802 -0.9582 -0.4966  1.8743
 6172TIP3    H240076   1.743   3.742   1.920  2.7026  0.5584 -0.9775
 6173TIP3   OH240077   4.763   2.969   1.389 -0.0070 -0.4842  0.4570
 6173TIP3    H140078   4.808   3.054   1.390 -0.8814  0.1218 -2.4718
 6173TIP3    H240079   4.796   2.924   1.467  2.1545  1.6697  0.9293
 6174TIP3   OH240080   6.496   2.281   2.034  0.2584  0.1576 -0.1129
 6174TIP3    H140081   6.555   2.333   2.088  1.8497  1.1144 -2.6089
 6174TIP3    H240082   6.551   2.249   1.963 -1.5726 -1.6940 -0.7865
 6175TIP3   OH240083   6.089   3.032   1.869 -0.5044  0.0139  0.1371
 6175TIP3    H140084   6.095   3.126   1.885  0.4447 -0.3199  2.1115
 6175TIP3    H240085   6.087   2.993   1.957 -1.8438 -1.7763 -0.6189
 6176TIP3   OH240086   2.334   0.596   1.886  0.8575 -0.3042  0.5289
 6176TIP3    H140087   2.259   0.559   1.934  0.2000  0.0558 -0.1914
 6176TIP3    H240088   2.389   0.521   1.865  0.4434 -0.6397  0.6306
 6177TIP3   OH240089   2.846   5.714   1.617 -0.4246  0.2888 -0.0861
 6177TIP3    H140090   2.808   5.793   1.656  1.4410  1.4231 -0.4189
 6177TIP3    H240091   2.859   5.736   1.525  0.0566 -0.4396 -0.2031
 6178TIP3   OH240092   2.271   5.471   0.722 -0.1977 -0.2004  0.1598
 6178TIP3    H140093   2.227   5.529   0.784 -0.5964  1.7164 -1.7983
 6178TIP3    H240094   2.239   5.383   0.744 -2.6251  0.7664  0.7767
 6179TIP3   OH240095   1.814   3.003   7.579 -0.6499  0.1717  0.1588
 6179TIP3    H140096   1.835   3.060   7.653 -1.0074  0.4261  0.0721
 6179TIP3    H240097   1.721   3.021   7.562 -0.7505 -0.4090  0.1023
 6180TIP3   OH240098   5.075   0.127   0.139 -0.6068  0.8415  0.4149
 6180TIP3    H140099   5.025   0.051   0.167 -1.0966  1.2662  0.7174
 6180TIP3    H240100   5.030   0.156   0.059  0.4946 -0.0822 -0.5813
 6181TIP3   OH240101   1.869   2.253   3.193  0.0160 -0.3225  0.3877
 6181TIP3    H140102   1.866   2.349   3.195  1.8267 -0.2260  1.4276
 6181TIP3    H240103   1.959   2.232   3.219 -0.1904 -2.3042 -0.3483
 6182TIP3   OH240104   0.454   2.778   1.299  0.0935 -0.0394  0.3326
 6182TIP3    H140105   0.535   2.807   1.255  0.9815  0.7984  2.4023
 6182TIP3    H240106   0.384   2.812   1.244  1.1544  1.1783 -0.3266
 6183TIP3   OH240107   2.943   1.791   2.313 -0.2558  0.5421  0.1871
 6183TIP3    H140108   2.854   1.771   2.286 -0.3758  1.3936 -0.0922
 6183TIP3    H240109   2.943   1.783   2.408 -0.3827 -0.3661  0.1235
 6184TIP3   OH240110   2.158   4.646   2.044  0.2214 -0.1783  0.1710
 6184TIP3    H140111   2.210   4.725   2.060  0.0343 -0.1225  0.5070
 6184TIP3    H240112   2.183   4.585   2.113 -0.5521  0.0480  0.6658
 6185TIP3   OH240113   4.127   1.224   3.042 -0.4530 -0.2870  0.0566
 6185TIP3    H140114   4.041   1.218   3.084  0.3555 -1.9436  1.6369
 6185TIP3    H240115   4.184   1.263   3.109  0.3611 -0.7877 -0.3213
 6186TIP3   OH240116   6.270   3.733   1.381  0.0802 -0.2477 -0.1365
 6186TIP3    H140117   6.363   3.749   1.364 -0.1371 -0.1146 -1.3102
 6186TIP3    H240118   6.260   3.748   1.475  1.0821  0.5031 -0.1303
 6187TIP3   OH240119   1.589   4.902   0.962 -0.5638 -0.4002  0.0300
 6187TIP3    H140120   1.616   4.810   0.962  0.4694 -0.1529 -1.8523
 6187TIP3    H240121   1.535   4.911   0.883  1.0906  1.0204 -1.0067
 6188TIP3   OH240122   3.301   6.478   2.831 -0.2964  0.4712 -0.1310
 6188TIP3    H140123   3.382   6.433   2.852 -0.8317 -0.7137 -0.4785
 6188TIP3    H240124   3.325   6.542   2.764  0.2450 -0.3202 -0.7113
 6189TIP3   OH240125   4.933   1.275   0.861 -0.6542  0.6912 -0.2448
 6189TIP3    H140126   4.940   1.196   0.808  0.6019 -0.6973  1.8539
 6189TIP3    H240127   4.855   1.261   0.914 -0.0216  0.4812  0.6544
 6190TIP3   OH240128   0.404   1.460   0.326 -0.1727 -0.2203 -0.3261
 6190TIP3    H140129   0.312   1.466   0.300 -0.4484  0.4396  0.7340
 6190TIP3    H240130   0.433   1.551   0.331  0.6767 -0.4354 -1.0669
 6191TIP3   OH240131   4.990   6.237   2.692  0.3100  0.0969  0.0959
 6191TIP3    H140132   4.984   6.210   2.783  0.0692 -1.6460 -0.3918
 6191TIP3    H240133   5.084   6.243   2.675  0.3798 -0.5781  0.2052
 6192TIP3   OH240134   0.694   0.686   7.480  0.2068 -0.0340 -0.0158
 6192TIP3    H140135   0.730   0.712   7.395  1.5013 -0.2526  0.4405
 6192TIP3    H240136   0.700   0.591   7.481  2.4611  0.0331  1.2035
 6193TIP3   OH240137   4.196   0.203   0.084 -0.1897  0.3216  0.2489
 6193TIP3    H140138   4.262   0.201   0.153 -1.5793 -1.6734  1.6235
 6193TIP3    H240139   4.122   0.250   0.123 -1.2170 -1.3500  0.4371
 6194TIP3   OH240140   6.604   4.065   2.201 -0.2167  0.1608  0.0691
 6194TIP3    H140141   6.518   4.107   2.201 -0.0027  0.6204 -0.5762
 6194TIP3    H240142   6.633   4.069   2.292 -1.0839 -0.4332  0.3852
 6195TIP3   OH240143   1.515   3.117   2.117 -0.5489  0.0772  0.0496
 6195TIP3    H140144   1.434   3.122   2.168 -1.4180  0.9519 -1.3367
 6195TIP3    H240145   1.544   3.208   2.109 -1.1970  0.1631 -2.0990
 6196TIP3   OH240146   0.222   6.496   2.890  0.8980 -0.4188  0.0070
 6196TIP3    H140147   0.137   6.464   2.860 -0.0883  1.1623  0.9890
 6196TIP3    H240148   0.255   6.547   2.816  1.6375 -2.0657 -0.8641
 6197TIP3   OH240149   6.585   2.349   2.665  0.1376  0.3434  0.3536
 6197TIP3    H140150   6.548   2.275   2.618 -1.5973  1.5194 -0.2462
 6197TIP3    H240151   6.668   2.367   2.621 -0.5034  0.1692 -0.9828
 6198TIP3   OH240152   5.905   2.715   8.454  0.5720  0.1779  0.0823
 6198TIP3    H140153   5.975   2.776   8.432  1.6530 -0.9165  0.3654
 6198TIP3    H240154   5.874   2.743   8.540 -1.4285  2.4769 -1.2821
 6199TIP3   OH240155   5.270   5.479   7.824  0.2187  0.4128 -0.3113
 6199TIP3    H140156   5.303   5.564   7.856 -0.0273  0.2068  0.5049
 6199TIP3    H240157   5.176   5.493   7.813 -0.2259 -0.3478  1.9307
 6200TIP3   OH240158   2.300   6.262   0.866 -0.3208 -0.1477 -0.4548
 6200TIP3    H140159   2.264   6.292   0.950 -0.5240 -0.2204 -0.5174
 6200TIP3    H240160   2.312   6.342   0.815 -0.5631 -0.1433 -0.5028
 6201TIP3   OH240161   3.674   3.061   1.457  0.6937  0.0915  0.2515
 6201TIP3    H140162   3.717   2.993   1.509  1.4029  0.1578 -0.2247
 6201TIP3    H240163   3.642   3.124   1.521  1.1492 -0.0548  0.6335
 6202TIP3   OH240164   5.733   4.020   0.759 -0.1566 -0.7546  0.1416
 6202TIP3    H140165   5.806   4.041   0.700  0.0350  0.1721  0.6816
 6202TIP3    H240166   5.683   4.101   0.763  1.1123 -0.0080  3.0471
 6203TIP3   OH240167   6.481   5.597   0.018  0.0869 -0.9077 -0.4923
 6203TIP3    H140168   6.524   5.592  -0.067  1.9970 -0.9337  0.4350
 6203TIP3    H240169   6.525   5.532   0.072 -0.2728 -0.0620  0.8740
 6204TIP3   OH240170   1.708   5.145   8.644  0.0124 -0.0971 -0.3929
 6204TIP3    H140171   1.666   5.139   8.557  2.4225 -0.2021 -1.6196
 6204TIP3    H240172   1.749   5.060   8.657  0.8555  0.3918  0.2110
 6205TIP3   OH240173   1.774   2.218   2.100  0.0819  0.6869 -0.0009
 6205TIP3    H140174   1.814   2.221   2.013  0.6136  1.2660  0.2548
 6205TIP3    H240175   1.845   2.195   2.159 -0.5502 -1.0397  0.1403
 6206TIP3   OH240176   2.145   2.866   0.546  0.0362  0.0401  0.0018
 6206TIP3    H140177   2.183   2.889   0.461 -0.7576 -0.6089 -0.5363
 6206TIP3    H240178   2.092   2.942   0.570 -0.6207 -0.2256 -0.6062
 6207TIP3   OH240179   5.253   6.758   1.016  0.0985 -0.5720  0.1119
 6207TIP3    H140180   5.264   6.853   1.015  0.0582 -0.5457  1.2645
 6207TIP3    H240181   5.163   6.744   0.987 -0.2099 -0.2051  0.8753
 6208TIP3   OH240182   4.850   3.862   8.441 -0.3625 -0.4603  0.5046
 6208TIP3    H140183   4.926   3.840   8.495 -0.7669  0.8331  1.6731
 6208TIP3    H240184   4.802   3.780   8.432  0.7684 -1.1239  0.4055
 6209TIP3   OH240185   0.611   0.982   7.734  0.4187  0.2373 -0.1371
 6209TIP3    H140186   0.612   0.970   7.639  0.7349  0.6883 -0.1965
 6209TIP3    H240187   0.541   1.046   7.748  1.3165  1.2850 -0.2242
 6210TIP3   OH240188   2.084   5.137   8.286 -0.0813  0.0133  0.2154
 6210TIP3    H140189   2.136   5.172   8.214  1.6706 -1.3135  0.7750
 6210TIP3    H240190   2.094   5.201   8.356  1.0935 -0.3706  0.4218
 6211TIP3   OH240191   1.840   5.071   7.145  0.0677  0.1583 -0.1358
 6211TIP3    H140192   1.896   5.130   7.194 -0.9125  1.3307 -0.3802
 6211TIP3    H240193   1.779   5.128   7.099  1.3243 -0.8495 -3.2754
 6212TIP3   OH240194   2.189   5.278   1.185  0.3747 -0.2432  0.2572
 6212TIP3    H140195   2.128   5.219   1.141  0.3681  1.0022 -1.5311
 6212TIP3    H240196   2.274   5.260   1.144  0.7840 -0.4375  1.1663
 6213TIP3   OH240197   0.005   6.671   2.533  0.3987 -0.2602 -0.1737
 6213TIP3    H140198   0.010   6.676   2.438 -0.7551  1.6069 -0.1882
 6213TIP3    H240199  -0.079   6.712   2.555 -0.2847 -2.3437  1.5616
 6214TIP3   OH240200   3.923   4.382   1.146  0.1320  0.0445 -0.2434
 6214TIP3    H140201   3.890   4.466   1.177  0.3265 -0.3161  1.0157
 6214TIP3    H240202   3.969   4.345   1.222  0.1510 -1.1404 -0.8104
 6215TIP3   OH240203   0.318   1.333   2.594  0.0639  0.0622 -0.1789
 6215TIP3    H140204   0.279   1.272   2.532  1.6640 -0.2432 -0.9040
 6215TIP3    H240205   0.411   1.335   2.573  0.2260  1.9832  0.4885
 6216TIP3   OH240206   3.483   0.452   1.670  0.3711 -0.3205 -0.0990
 6216TIP3    H140207   3.545   0.513   1.630 -0.6598  0.9423  0.1698
 6216TIP3    H240208   3.479   0.477   1.762 -2.3465  1.2946 -0.5622
 6217TIP3   OH240209   3.676   3.111   7.167 -0.0737  0.4973 -0.1196
 6217TIP3    H140210   3.705   3.143   7.252  0.4768  1.2294 -0.5674
 6217TIP3    H240211   3.611   3.044   7.187  1.0746 -0.3514  0.8879
 6218TIP3   OH240212   3.593   0.514   3.296  0.0243  0.3813  0.1600
 6218TIP3    H140213   3.578   0.422   3.275  1.6754  0.6290 -2.6681
 6218TIP3    H240214   3.584   0.559   3.211  1.8548  2.4371  0.9732
 6219TIP3   OH240215   3.184   0.133   0.171  0.2633 -0.2487 -0.1176
 6219TIP3    H140216   3.154   0.066   0.232  1.8164 -0.2656  0.6734
 6219TIP3    H240217   3.104   0.178   0.144 -0.4647  0.0173  2.2295
 6220TIP3   OH240218   5.550   5.990   1.078 -0.4234  0.3775 -0.2446
 6220TIP3    H140219   5.471   6.027   1.040 -1.4556 -0.6017  0.8996
 6220TIP3    H240220   5.621   6.030   1.028 -1.6448  0.8089 -1.7036
 6221TIP3   OH240221   5.242   0.538   7.765 -0.1314  0.1393 -0.2769
 6221TIP3    H140222   5.274   0.628   7.774 -0.4144  0.1755  0.4535
 6221TIP3    H240223   5.241   0.504   7.855 -0.0978 -0.5679 -0.5368
 6222TIP3   OH240224   6.343   1.947   0.772  0.0435  0.2562  0.0158
 6222TIP3    H140225   6.335   2.037   0.805  1.1951  0.5611 -0.4858
 6222TIP3    H240226   6.268   1.901   0.809  0.6306  0.8650  2.0960
 6223TIP3   OH240227   5.906   3.247   7.359 -0.2744 -0.0853 -0.1233
 6223TIP3    H140228   5.903   3.340   7.334 -2.2133 -0.5314 -1.7386
 6223TIP3    H240229   5.815   3.224   7.379  0.4524 -1.1693  2.2690
 6224TIP3   OH240230   3.508   2.188   2.869  0.4199  0.8503 -0.5379
 6224TIP3    H140231   3.578   2.174   2.806 -0.2970 -0.2427 -1.1365
 6224TIP3    H240232   3.539   2.147   2.950  0.1613 -0.3623 -1.0303
 6225TIP3   OH240233   6.734   0.679   8.123  0.5038  0.3687 -0.4018
 6225TIP3    H140234   6.725   0.758   8.175 -0.8063 -0.4194  0.6401
 6225TIP3    H240235   6.672   0.691   8.050  1.0342  0.7066 -0.8068
 6226TIP3   OH240236   0.998   5.309   0.351 -0.0860  0.2404  0.1820
 6226TIP3    H140237   0.985   5.250   0.276 -0.3518 -0.9822  1.1606
 6226TIP3    H240238   0.999   5.251   0.427 -2.3764  1.6590  1.4122
 6227TIP3   OH240239   5.830   3.777   3.460  0.2718  0.3770 -0.0388
 6227TIP3    H140240   5.742   3.812   3.474 -0.0106 -0.2060 -0.3531
 6227TIP3    H240241   5.819   3.704   3.400  0.9704  0.2821 -0.0697
 6228TIP3   OH240242   1.461   4.239   8.410  0.0300 -0.0893 -0.0730
 6228TIP3    H140243   1.376   4.283   8.416  0.0973 -0.0553  0.6973
 6228TIP3    H240244   1.454   4.184   8.331  0.4861  2.4397 -2.0047
 6229TIP3   OH240245   4.955   1.889   2.644 -0.6455  0.8769 -0.5133
 6229TIP3    H140246   4.864   1.862   2.635 -0.6587  0.7157  0.0630
 6229TIP3    H240247   4.999   1.853   2.567 -1.0981  1.0806 -0.8664
 6230TIP3   OH240248   2.208   3.108   2.810 -0.4989 -0.6851 -0.7628
 6230TIP3    H140249   2.261   3.178   2.848 -2.3239 -0.1065  0.8738
 6230TIP3    H240250   2.158   3.073   2.884 -0.7225 -2.7548 -1.8206
 6231TIP3   OH240251   3.998   5.499   2.182  0.5473 -0.7454  0.4885
 6231TIP3    H140252   4.058   5.522   2.111 -0.7517 -1.8224 -1.0352
 6231TIP3    H240253   4.004   5.404   2.188  1.9480 -0.5769  3.0949
 6232TIP3   OH240254   4.278   3.830   1.667  0.2941 -0.3596 -0.2693
 6232TIP3    H140255   4.200   3.794   1.625 -0.5633  1.2502 -0.1550
 6232TIP3    H240256   4.297   3.770   1.739  1.4869 -2.8969 -2.5135
 6233TIP3   OH240257   0.398   5.449   7.499  0.2300 -0.0706  0.2961
 6233TIP3    H140258   0.479   5.492   7.473 -0.4059  1.8161  1.2410
 6233TIP3    H240259   0.415   5.416   7.587  0.5877 -1.4372 -0.2734
 6234TIP3   OH240260   4.712   3.837   3.416 -0.2339 -0.4452  0.2091
 6234TIP3    H140261   4.746   3.808   3.501 -1.8072  1.5297  1.6307
 6234TIP3    H240262   4.762   3.915   3.395 -0.9568  0.0161  0.1633
 6235TIP3   OH240263   2.416   6.832   8.668  0.0492 -0.1786 -0.2410
 6235TIP3    H140264   2.391   6.812   8.578 -1.8208  1.5555 -0.1808
 6235TIP3    H240265   2.414   6.748   8.713  0.1332 -0.9401 -1.6243
 6236TIP3   OH240266   0.206   3.853   0.371 -0.0945  0.6340  0.2887
 6236TIP3    H140267   0.165   3.923   0.320 -0.9950  0.5935  0.9348
 6236TIP3    H240268   0.225   3.784   0.307 -1.1390  0.6194 -0.0192
 6237TIP3   OH240269   1.087   4.214   3.418 -0.1560  0.6313 -0.1684
 6237TIP3    H140270   1.135   4.297   3.416  1.0460  0.0006  0.7198
 6237TIP3    H240271   1.134   4.158   3.356 -0.6059  0.4323 -0.3299
 6238TIP3   OH240272   2.984   5.879   2.802 -1.0820 -0.4252 -0.3478
 6238TIP3    H140273   3.051   5.872   2.870  0.3344  0.0897 -1.6266
 6238TIP3    H240274   2.986   5.794   2.757  0.4081  0.3304 -1.8368
 6239TIP3   OH240275   1.245   1.589   0.043 -0.1065  0.2830  0.6787
 6239TIP3    H140276   1.158   1.629   0.048 -0.7494 -0.8817 -0.3598
 6239TIP3    H240277   1.305   1.657   0.074 -1.6581 -0.1588  5.3029
 6240TIP3   OH240278   6.605   0.391   8.614 -0.4956 -0.1284  0.5255
 6240TIP3    H140279   6.535   0.348   8.566 -1.8023  3.2958 -1.0175
 6240TIP3    H240280   6.657   0.434   8.546  0.4608  0.9808  1.9090
 6241TIP3   OH240281   2.204   6.253   8.588  0.3760  0.0214 -0.1942
 6241TIP3    H140282   2.261   6.179   8.610  0.5861  0.4510  0.7454
 6241TIP3    H240283   2.144   6.260   8.662 -0.2242  0.2380 -0.6893
 6242TIP3   OH240284   5.890   5.163   0.379 -0.2911  0.0323  0.6592
 6242TIP3    H140285   5.886   5.257   0.363  0.6909  0.1892  1.2656
 6242TIP3    H240286   5.965   5.133   0.328  0.3020 -0.1574  1.6134
 6243TIP3   OH240287   2.838   5.286   2.204 -0.1130  0.1938 -0.1195
 6243TIP3    H140288   2.893   5.350   2.159  0.8451  1.3274  2.4272
 6243TIP3    H240289   2.783   5.339   2.262 -2.1641 -1.1045 -0.7804
 6244TIP3   OH240290   2.449   1.288   0.172 -0.0853  0.4215 -0.0560
 6244TIP3    H140291   2.392   1.275   0.097 -0.7488 -1.2830  0.6894
 6244TIP3    H240292   2.392   1.324   0.240  0.0442  0.0872  0.2349
 6245TIP3   OH240293   5.725   3.866   0.135  0.1840  0.2427 -0.0584
 6245TIP3    H140294   5.660   3.890   0.069 -1.5704 -1.0284  1.1104
 6245TIP3    H240295   5.689   3.788   0.177  2.5925 -0.6258  0.5323
 6246TIP3   OH240296   5.990   2.242   7.069  0.2703  1.1271  0.4929
 6246TIP3    H140297   5.979   2.337   7.070 -0.7181  1.1304 -2.3031
 6246TIP3    H240298   6.083   2.229   7.049  0.3327  1.5225  0.5164
 6247TIP3   OH240299   0.828   1.714   8.283 -0.2965 -0.0313 -0.0661
 6247TIP3    H140300   0.911   1.703   8.235 -0.3782 -0.4836 -0.1031
 6247TIP3    H240301   0.761   1.709   8.215 -0.4191 -0.7651  0.1000
 6248TIP3   OH240302   3.743   1.823   1.536  0.4352 -0.5770 -0.2956
 6248TIP3    H140303   3.699   1.866   1.462  0.7869  0.9622  0.3561
 6248TIP3    H240304   3.786   1.747   1.496 -0.0271 -0.2261 -1.5320
 6249TIP3   OH240305   0.453   1.070   2.733 -0.4826  0.0939 -0.3900
 6249TIP3    H140306   0.442   0.984   2.773 -0.8913  0.9460  1.4808
 6249TIP3    H240307   0.381   1.122   2.768 -0.1529  1.2417 -1.3519
 6250TIP3   OH240308   3.876   6.347   1.745 -0.5449 -0.6959  0.0242
 6250TIP3    H140309   3.925   6.286   1.801  0.1797  0.5358  0.7798
 6250TIP3    H240310   3.785   6.323   1.758 -0.2797 -1.6532  0.2636
 6251TIP3   OH240311   3.411   5.838   8.611  0.0284 -0.3161  0.3288
 6251TIP3    H140312   3.352   5.791   8.670  1.5997 -2.4887  0.2954
 6251TIP3    H240313   3.435   5.773   8.545 -2.0683  2.1195 -3.1816
 6252TIP3   OH240314   4.756   2.295   0.446  0.1966 -0.5602 -0.1853
 6252TIP3    H140315   4.833   2.238   0.451  1.0962  0.6562  0.7018
 6252TIP3    H240316   4.772   2.350   0.369  0.2155 -0.3181 -0.0103
 6253TIP3   OH240317   3.577   0.177   1.574  0.0614  0.4875  0.0516
 6253TIP3    H140318   3.550   0.140   1.490 -0.5867  1.6174 -0.2537
 6253TIP3    H240319   3.503   0.158   1.633 -0.3706  1.4559 -0.1629
 6254TIP3   OH240320   6.247   2.690   0.521  0.7758 -0.0853 -0.3737
 6254TIP3    H140321   6.175   2.704   0.583  0.6110 -1.4820 -0.2066
 6254TIP3    H240322   6.309   2.635   0.568  2.3444  1.6806 -0.2659
 6255TIP3   OH240323   2.625   1.386   1.715  0.8136  0.2651 -0.3038
 6255TIP3    H140324   2.607   1.298   1.682 -0.7106  0.4651 -0.1157
 6255TIP3    H240325   2.576   1.391   1.797 -0.6865  1.8581 -1.2155
 6256TIP3   OH240326   2.077   1.050   7.858 -0.6270 -0.5540  0.2858
 6256TIP3    H140327   2.041   1.126   7.903 -0.6055 -0.6549  0.4764
 6256TIP3    H240328   2.010   1.026   7.794 -1.0555 -0.9451  0.8692
 6257TIP3   OH240329   6.834   5.469   2.712 -0.1259 -0.2900 -0.1057
 6257TIP3    H140330   6.794   5.545   2.670  1.7243  0.4083 -0.7124
 6257TIP3    H240331   6.781   5.395   2.683 -0.9581  0.5794 -0.8662
 6258TIP3   OH240332   3.422   3.108   7.374  0.0835 -0.4799 -0.4161
 6258TIP3    H140333   3.332   3.074   7.376 -0.0989 -0.0288 -0.8190
 6258TIP3    H240334   3.413   3.197   7.340  0.7890 -0.7711 -1.3862
 6259TIP3   OH240335   4.838   1.385   2.431  0.0241 -0.0336 -0.3360
 6259TIP3    H140336   4.868   1.396   2.340  0.4591 -0.5852 -0.2648
 6259TIP3    H240337   4.918   1.363   2.480 -0.4830 -1.5476 -0.1479
 6260TIP3   OH240338   4.977   2.244   0.685  0.2129  0.3589 -0.0563
 6260TIP3    H140339   4.962   2.166   0.632 -0.0381  1.0737 -1.0635
 6260TIP3    H240340   4.901   2.249   0.744  0.0468  0.0541 -0.2454
 6261TIP3   OH240341   6.103   0.318   2.463  0.2706 -0.2116 -0.3206
 6261TIP3    H140342   6.060   0.292   2.544  0.8035 -0.5321 -0.1340
 6261TIP3    H240343   6.079   0.410   2.451  1.5014  0.3236  1.0749
 6262TIP3   OH240344   2.387   2.689   0.149  0.3632 -0.2116 -0.2220
 6262TIP3    H140345   2.355   2.726   0.066 -0.3660 -1.7812 -0.6828
 6262TIP3    H240346   2.477   2.663   0.131  0.4423  0.1065 -0.2946
 6263TIP3   OH240347   1.419   1.478   2.944  0.2338  0.4993 -0.4710
 6263TIP3    H140348   1.486   1.488   2.876  2.1683 -0.4148  1.2247
 6263TIP3    H240349   1.383   1.566   2.954  1.8851  1.2531 -0.7502
 6264TIP3   OH240350   5.731   4.594   2.996  0.4651 -0.5888 -0.0602
 6264TIP3    H140351   5.659   4.623   3.051 -0.2716  0.8049 -1.6737
 6264TIP3    H240352   5.749   4.505   3.025 -1.4533 -0.7351  0.8200
 6265TIP3   OH240353   0.055   6.566   1.070 -0.6206  0.4639 -0.1710
 6265TIP3    H140354   0.022   6.604   1.151 -0.0446  1.0183 -0.1812
 6265TIP3    H240355   0.022   6.625   1.001  0.1923  0.9188 -0.1963
 6266TIP3   OH240356   3.188   4.162   0.777 -0.2248  0.1261 -0.7446
 6266TIP3    H140357   3.167   4.255   0.766 -1.0263  0.0760  0.2214
 6266TIP3    H240358   3.277   4.153   0.743 -0.0938  1.2717 -0.7386
 6267TIP3   OH240359   5.358   1.243   1.838 -0.5217 -0.2063 -0.0821
 6267TIP3    H140360   5.402   1.182   1.779 -0.5029 -0.0518 -0.2310
 6267TIP3    H240361   5.346   1.195   1.919  2.1177  0.4838  0.8141
 6268TIP3   OH240362   5.136   4.010   1.035  0.2275 -0.1211 -0.1353
 6268TIP3    H140363   5.126   4.030   1.128  0.6065 -0.4593 -0.0190
 6268TIP3    H240364   5.172   3.921   1.033 -0.7962 -0.5416 -0.6221
 6269TIP3   OH240365   2.313   3.902   1.950  0.1232  0.4263  0.2678
 6269TIP3    H140366   2.258   3.854   2.012  1.9632 -0.6874  1.1104
 6269TIP3    H240367   2.378   3.946   2.004  1.5731 -0.2896 -0.8126
 6270TIP3   OH240368   4.684   2.068   7.586 -0.3820  0.0583 -0.1953
 6270TIP3    H140369   4.668   1.975   7.570 -1.3857  0.1418  0.2243
 6270TIP3    H240370   4.666   2.110   7.502  0.1835 -0.1311 -0.4160
 6271TIP3   OH240371   5.052   4.279   7.145  0.5615  0.8102 -0.4704
 6271TIP3    H140372   5.082   4.194   7.112  0.0481  1.1911 -1.9719
 6271TIP3    H240373   5.125   4.311   7.198  1.7817  0.5651 -1.9427
 6272TIP3   OH240374   4.283   6.370   7.381  0.2239  0.4094  0.0681
 6272TIP3    H140375   4.220   6.298   7.387  0.1863  0.2305 -1.7953
 6272TIP3    H240376   4.236   6.446   7.415 -0.8074  0.1429 -0.6929
 6273TIP3   OH240377   1.600   2.045   0.306  0.5618  0.6430  0.0813
 6273TIP3    H140378   1.572   1.955   0.326  1.2844  0.6442  1.2406
 6273TIP3    H240379   1.680   2.056   0.357  0.4536  1.9725 -0.0092
 6274TIP3   OH240380   5.020   3.730   1.099 -0.1309  0.0206  0.4882
 6274TIP3    H140381   5.110   3.750   1.074  0.2020 -0.0506  1.5948
 6274TIP3    H240382   4.975   3.712   1.015  0.2184  2.5533 -0.3103
 6275TIP3   OH240383   4.796   2.105   7.154 -0.5658  0.3516 -0.1350
 6275TIP3    H140384   4.811   2.141   7.066  0.7834  1.0744  0.3651
 6275TIP3    H240385   4.706   2.073   7.151 -1.1639  1.9899 -1.2430
 6276TIP3   OH240386   1.532   6.497   1.373 -0.0304  0.5375  0.2501
 6276TIP3    H140387   1.496   6.408   1.373 -0.5198  0.7180 -0.4913
 6276TIP3    H240388   1.513   6.531   1.460 -1.3078  0.4665  0.0216
 6277TIP3   OH240389   5.127   0.820   1.784 -1.1970  0.5811  0.0214
 6277TIP3    H140390   5.209   0.794   1.827  0.5374  0.4804 -3.0074
 6277TIP3    H240391   5.063   0.755   1.813  0.7932 -1.7009 -0.3445
 6278TIP3   OH240392   2.084   6.011   0.340  0.4274 -0.3451  0.0511
 6278TIP3    H140393   2.059   5.919   0.335  0.5476 -0.4565  1.2314
 6278TIP3    H240394   2.002   6.057   0.361 -0.0653  0.1017 -2.4583
 6279TIP3   OH240395   4.030   3.552   7.707  0.3806 -0.6165 -0.2490
 6279TIP3    H140396   4.017   3.532   7.800  0.2377  0.3634 -0.0399
 6279TIP3    H240397   4.047   3.468   7.666 -1.4640 -1.3334  0.3484
 6280TIP3   OH240398   1.237   4.556   8.244  0.0752  0.3703 -0.2156
 6280TIP3    H140399   1.242   4.542   8.338  0.7176  1.6576 -0.0390
 6280TIP3    H240400   1.155   4.513   8.218 -0.3784  0.4592  1.0037
 6281TIP3   OH240401   4.223   1.863   2.731 -0.2221  0.3049  0.4548
 6281TIP3    H140402   4.137   1.867   2.689  0.9491  1.3422 -2.0986
 6281TIP3    H240403   4.222   1.934   2.795 -0.3046  2.4486 -1.7682
 6282TIP3   OH240404   6.365   0.283   8.165 -0.2219 -0.5518  0.2360
 6282TIP3    H140405   6.453   0.309   8.139 -0.3659  1.4199  1.4798
 6282TIP3    H240406   6.314   0.287   8.084  0.4232  0.2548 -0.1518
 6283TIP3   OH240407   1.048   2.077   1.480 -0.2530  0.7412  0.1460
 6283TIP3    H140408   1.075   2.159   1.438  3.0957 -0.8754 -1.2046
 6283TIP3    H240409   1.025   2.019   1.407 -0.5814 -0.1594  0.9427
 6284TIP3   OH240410   6.698   3.359   7.850 -0.6671  0.0539 -0.6108
 6284TIP3    H140411   6.706   3.322   7.762 -1.4099  0.2254 -0.7549
 6284TIP3    H240412   6.788   3.376   7.877 -0.2912 -1.8442 -0.5430
 6285TIP3   OH240413   6.765   1.847   7.790 -0.2625 -0.1034 -0.6805
 6285TIP3    H140414   6.699   1.882   7.731 -0.8187  0.4996  0.2646
 6285TIP3    H240415   6.759   1.752   7.781 -0.0194 -0.0197 -1.9067
 6286TIP3   OH240416   0.650   1.115   1.560 -0.0668  0.2275 -0.0809
 6286TIP3    H140417   0.706   1.188   1.583  1.7548 -0.8073 -0.9907
 6286TIP3    H240418   0.688   1.040   1.606 -1.0694 -0.4084 -0.2504
 6287TIP3   OH240419   3.831   1.051   2.849  0.4315 -0.2707 -0.7659
 6287TIP3    H140420   3.841   1.128   2.794 -0.0469  0.7332  0.4899
 6287TIP3    H240421   3.861   1.079   2.935 -0.2424 -1.3211 -0.1623
 6288TIP3   OH240422   5.002   4.264   0.222  0.8425 -0.1807  0.3508
 6288TIP3    H140423   5.067   4.236   0.157  1.0730 -1.0068  0.9120
 6288TIP3    H240424   4.953   4.333   0.179  0.9569 -0.7442 -0.7205
 6289TIP3   OH240425   4.605   1.872   0.177  0.5089  0.1656 -0.0468
 6289TIP3    H140426   4.578   1.886   0.268  0.9728  1.5066 -0.0946
 6289TIP3    H240427   4.621   1.960   0.143 -0.8877 -0.2230 -1.8340
 6290TIP3   OH240428   0.006   6.120   0.259  0.1495  0.1640 -0.3117
 6290TIP3    H140429  -0.044   6.148   0.182 -1.7978  0.1648  0.8837
 6290TIP3    H240430   0.083   6.177   0.260  0.7674 -0.4878 -2.7590
 6291TIP3   OH240431   0.991   6.783   7.980  0.2010 -0.1844 -0.4372
 6291TIP3    H140432   1.027   6.795   8.068  2.0442  0.1672 -1.2099
 6291TIP3    H240433   1.064   6.801   7.921 -1.1124  0.0296 -2.0719
 6292TIP3   OH240434   3.517   1.484   2.761  0.8485 -0.3680 -0.1840
 6292TIP3    H140435   3.458   1.439   2.700 -0.1874  0.3863  0.2370
 6292TIP3    H240436   3.489   1.456   2.848  0.7563  0.4097  0.0453
 6293TIP3   OH240437   6.061   3.275   0.602  0.5052  0.5638  0.3159
 6293TIP3    H140438   6.096   3.364   0.606 -0.6719  1.1700 -1.3375
 6293TIP3    H240439   6.052   3.249   0.693  1.0732  2.0607  0.8439
 6294TIP3   OH240440   3.583   2.259   3.511 -0.2250 -0.4895  0.6669
 6294TIP3    H140441   3.535   2.268   3.428  0.1508 -1.9473  0.2573
 6294TIP3    H240442   3.665   2.305   3.497  0.0985 -1.2461 -0.0160
 6295TIP3   OH240443   6.301   3.728   2.679 -0.0091 -0.0320 -0.1262
 6295TIP3    H140444   6.281   3.805   2.626  2.4391  0.2404 -0.7977
 6295TIP3    H240445   6.320   3.763   2.766  1.5038  0.2503 -0.5290
 6296TIP3   OH240446   0.991   2.882   2.108  0.0041 -0.4040 -0.2417
 6296TIP3    H140447   0.975   2.847   2.196  0.2627  0.4247  0.1440
 6296TIP3    H240448   1.005   2.976   2.122 -0.5724 -0.1615 -1.2411
 6297TIP3   OH240449   2.166   1.038   2.744  0.1685  0.0658 -0.4374
 6297TIP3    H140450   2.099   1.105   2.757  1.5108  1.0041  2.4481
 6297TIP3    H240451   2.144   0.969   2.807  1.9277  0.4856  0.7084
 6298TIP3   OH240452   0.224   1.645   1.819 -0.0422 -1.0536  0.2579
 6298TIP3    H140453   0.244   1.558   1.787 -0.3883 -1.5639  1.3803
 6298TIP3    H240454   0.179   1.631   1.902 -2.7341  0.0902 -0.8637
 6299TIP3   OH240455   2.892   0.829   0.464 -0.4649 -0.0328 -0.1230
 6299TIP3    H140456   2.909   0.747   0.510 -1.2762  0.0094  0.2677
 6299TIP3    H240457   2.897   0.896   0.531 -1.1055  0.0892 -0.1896
 6300TIP3   OH240458   4.781   1.205   3.439 -0.3173 -0.0082  0.7147
 6300TIP3    H140459   4.788   1.127   3.385  1.7844  0.5643  0.0602
 6300TIP3    H240460   4.699   1.246   3.410 -0.0891 -0.5817 -0.8714
 6301TIP3   OH240461   6.529   2.656   8.673  0.9207  0.2018  0.2726
 6301TIP3    H140462   6.515   2.712   8.750 -0.3327 -0.8468  0.8637
 6301TIP3    H240463   6.589   2.705   8.618  0.3428  1.8532  1.0383
 6302TIP3   OH240464   3.493   4.350   1.844 -0.2846 -0.3991 -0.4341
 6302TIP3    H140465   3.410   4.397   1.838 -0.1530 -0.3348 -5.0399
 6302TIP3    H240466   3.559   4.413   1.813  0.9473 -1.5256 -0.2070
 6303TIP3   OH240467   2.397   0.046   2.533 -0.0431  0.3699 -0.0606
 6303TIP3    H140468   2.437  -0.040   2.516 -0.8571 -0.2646  1.0996
 6303TIP3    H240469   2.368   0.041   2.624 -0.2334  1.8431 -0.0198
 6304TIP3   OH240470   3.990   3.481   7.986 -0.0263  0.6824  0.2305
 6304TIP3    H140471   4.084   3.482   8.002  0.3123  0.4090 -1.5206
 6304TIP3    H240472   3.952   3.527   8.060  1.7156  3.4320 -0.4626
 6305TIP3   OH240473   5.689   4.120   3.187  0.1297  0.1245 -0.4159
 6305TIP3    H140474   5.729   4.168   3.259 -0.2329  2.3503 -1.6046
 6305TIP3    H240475   5.598   4.149   3.187 -0.9244 -2.8299  0.5885
 6306TIP3   OH240476   3.560   1.558   0.229  0.2456  0.3849 -0.2002
 6306TIP3    H140477   3.640   1.545   0.278 -0.3776 -1.7763  0.3420
 6306TIP3    H240478   3.497   1.496   0.267 -1.2606  1.0235 -1.5031
 6307TIP3   OH240479   0.379   4.128   0.534  0.4913 -0.5534 -0.2234
 6307TIP3    H140480   0.413   4.041   0.555 -2.3540 -1.6304  0.3110
 6307TIP3    H240481   0.400   4.140   0.441  0.8508 -1.8406 -0.3311
 6308TIP3   OH240482   6.419   2.247   0.808  0.7830  0.0605 -0.7494
 6308TIP3    H140483   6.351   2.286   0.754 -1.2334 -2.2427 -0.0548
 6308TIP3    H240484   6.419   2.299   0.888 -1.4936 -0.9724 -0.0274
 6309TIP3   OH240485   5.964   3.367   7.670 -0.1799  0.4011  0.0994
 6309TIP3    H140486   5.896   3.432   7.651  0.7210  0.7359 -2.2730
 6309TIP3    H240487   5.921   3.282   7.656 -0.3336  0.5914 -0.6092
 6310TIP3   OH240488   0.836   3.792   7.966  0.4289  0.2719  0.9727
 6310TIP3    H140489   0.832   3.715   8.023 -0.9724 -1.1631 -0.9576
 6310TIP3    H240490   0.814   3.759   7.879 -0.4584  2.8995  0.1107
 6311TIP3   OH240491   4.741   6.443   8.510 -0.3774 -0.7424 -0.1681
 6311TIP3    H140492   4.786   6.360   8.494  0.8421  0.1732 -1.6673
 6311TIP3    H240493   4.696   6.463   8.428  0.6158  0.8385 -0.3601
 6312TIP3   OH240494   3.686   5.829   2.257  0.1617  0.1917 -0.1578
 6312TIP3    H140495   3.696   5.918   2.291  0.6279 -0.5132  1.6491
 6312TIP3    H240496   3.605   5.833   2.206 -0.0091  1.5770  0.1588
 6313TIP3   OH240497   3.237   6.339   2.273 -0.9185 -0.3059  0.5593
 6313TIP3    H140498   3.173   6.397   2.315 -0.3886  1.2813 -0.7015
 6313TIP3    H240499   3.185   6.275   2.227 -1.6416  0.9289 -0.3942
 6314TIP3   OH240500   5.011   3.124   1.291  0.4158  0.5929 -0.3391
 6314TIP3    H140501   5.060   3.048   1.260 -1.9507 -0.0772 -2.9079
 6314TIP3    H240502   4.992   3.105   1.383  2.0269 -0.6795 -0.2335
 6315TIP3   OH240503   1.224   1.838   0.776 -0.3986 -0.2228 -0.1237
 6315TIP3    H140504   1.318   1.851   0.764 -0.2131 -1.2074  0.1859
 6315TIP3    H240505   1.193   1.919   0.817 -0.0173  0.8329 -1.8242
 6316TIP3   OH240506   5.468   4.148   0.593 -0.0474  0.3474  0.4723
 6316TIP3    H140507   5.424   4.170   0.675  1.8900  1.0639  1.3808
 6316TIP3    H240508   5.526   4.222   0.576  1.3696 -0.8687 -0.2408
 6317TIP3   OH240509   6.022   2.295   3.842 -0.2795  0.0638  0.2166
 6317TIP3    H140510   5.967   2.293   3.764  2.4762  0.0681 -1.8992
 6317TIP3    H240511   6.011   2.383   3.877 -0.9149  0.3503 -0.6655
 6318TIP3   OH240512   5.758   5.727   1.416  0.0465  0.6803 -0.4215
 6318TIP3    H140513   5.744   5.635   1.439  1.3099  0.7220  0.6343
 6318TIP3    H240514   5.711   5.738   1.333  1.0593 -1.3222 -1.3565
 6319TIP3   OH240515   4.773   5.079   7.976 -0.4631 -0.1030 -0.4453
 6319TIP3    H140516   4.784   4.986   7.958 -0.3271  0.0155 -1.0033
 6319TIP3    H240517   4.706   5.108   7.915 -0.6845  0.1151 -0.1028
 6320TIP3   OH240518   1.612   3.973   0.394  0.2245 -0.2310  0.0752
 6320TIP3    H140519   1.692   3.974   0.446  0.8790  2.1954 -0.8506
 6320TIP3    H240520   1.543   4.001   0.453  0.1664 -1.4709  0.6390
 6321TIP3   OH240521   0.290   2.331   7.904 -0.1269  0.6328  0.1255
 6321TIP3    H140522   0.268   2.239   7.888 -0.6680  0.6323  0.8203
 6321TIP3    H240523   0.209   2.379   7.888 -0.5414  0.6995  2.1000
 6322TIP3   OH240524   4.508   0.804   7.320  0.4869  0.0964  0.6695
 6322TIP3    H140525   4.547   0.724   7.358  0.6208 -0.0294  0.2678
 6322TIP3    H240526   4.464   0.774   7.241 -0.2565  0.2739  1.0021
 6323TIP3   OH240527   2.655   0.145   1.943 -0.1419  0.1741  0.0097
 6323TIP3    H140528   2.654   0.142   1.848  1.1603  2.3938 -0.1363
 6323TIP3    H240529   2.744   0.170   1.966 -1.0775  2.3144  1.6495
 6324TIP3   OH240530   2.748   3.204   0.601  0.4064 -0.1934 -0.7186
 6324TIP3    H140531   2.784   3.241   0.521  1.6474 -0.5926 -0.3733
 6324TIP3    H240532   2.724   3.280   0.654 -1.1786  0.0756 -1.7629
 6325TIP3   OH240533   0.480   5.952   7.853  0.2268 -0.4849  0.0917
 6325TIP3    H140534   0.402   5.909   7.819 -0.6851  0.9452  0.2943
 6325TIP3    H240535   0.487   5.922   7.943 -0.0605 -0.6693  0.0522
 6326TIP3   OH240536   0.829   4.161   2.482 -0.2724  0.2086 -0.0213
 6326TIP3    H140537   0.877   4.226   2.534  0.0018  1.0836 -1.3259
 6326TIP3    H240538   0.745   4.151   2.528  1.0071 -1.1736  2.1592
 6327TIP3   OH240539   2.776   6.703   7.904 -0.0788 -0.3712 -0.0485
 6327TIP3    H140540   2.778   6.798   7.908  0.3876 -0.4151  1.5205
 6327TIP3    H240541   2.819   6.681   7.822 -0.1806  0.7692 -0.4137
 6328TIP3   OH240542   0.760   2.651   0.719  0.2897  0.2656  0.3690
 6328TIP3    H140543   0.800   2.707   0.652 -0.7155 -1.5860 -1.9304
 6328TIP3    H240544   0.669   2.643   0.693  0.2660 -1.9840  0.8787
 6329TIP3   OH240545   3.555   1.802   1.959 -0.7442 -0.4152 -0.2363
 6329TIP3    H140546   3.566   1.849   1.877 -1.1226 -1.0104 -0.6385
 6329TIP3    H240547   3.559   1.709   1.934  2.1349 -0.6595  0.8091
 6330TIP3   OH240548   6.044   0.287   1.060 -0.0337  0.4254  0.5915
 6330TIP3    H140549   6.013   0.299   0.970  3.1344  1.8489 -0.4640
 6330TIP3    H240550   6.071   0.196   1.064  1.0024  0.6714 -0.3552
 6331TIP3   OH240551   4.435   2.026   0.841  0.0141  0.4611 -0.4994
 6331TIP3    H140552   4.342   2.048   0.845  0.4608  2.5014 -0.2230
 6331TIP3    H240553   4.440   1.957   0.775 -1.8345 -0.7102  0.4708
 6332TIP3   OH240554   0.107   6.096   2.126  0.0354 -0.1663  0.0393
 6332TIP3    H140555   0.043   6.064   2.189 -0.0509  1.2678  0.7216
 6332TIP3    H240556   0.184   6.117   2.179  0.9856 -1.5654 -0.7252
 6333TIP3   OH240557   0.308   6.338   7.080 -0.1347 -0.0623  0.0195
 6333TIP3    H140558   0.319   6.425   7.118 -2.6505  0.3584 -0.0452
 6333TIP3    H240559   0.367   6.282   7.131 -1.4506  0.9309  2.8277
 6334TIP3   OH240560   3.377   3.816   0.103 -0.4866  0.1989 -0.2092
 6334TIP3    H140561   3.373   3.889   0.165  1.7374  1.1807 -1.1234
 6334TIP3    H240562   3.318   3.842   0.033 -0.1035  0.8881 -0.2851
 6335TIP3   OH240563   0.236   6.259   2.654  0.4262  0.1926  0.2681
 6335TIP3    H140564   0.247   6.172   2.692 -1.7127 -0.1178  0.3169
 6335TIP3    H240565   0.164   6.297   2.705  0.6861  1.6169 -0.3981
 6336TIP3   OH240566   1.031   3.972   2.423 -0.2057 -0.3965 -0.2180
 6336TIP3    H140567   0.961   4.036   2.415 -0.5006 -0.6527  0.2303
 6336TIP3    H240568   0.987   3.892   2.453  0.0834 -0.9441 -1.1879
 6337TIP3   OH240569   1.876   2.012   6.888  0.2701  0.3948  0.1789
 6337TIP3    H140570   1.846   2.063   6.813  0.6984 -1.8501 -1.6290
 6337TIP3    H240571   1.875   1.921   6.857  3.1683 -0.3701  1.9182
 6338TIP3   OH240572   5.783   4.844   8.051 -0.1952 -0.0126  0.4620
 6338TIP3    H140573   5.844   4.780   8.014 -0.4419 -1.2176  1.9969
 6338TIP3    H240574   5.820   4.929   8.029  1.9478 -0.7138  1.1436
 6339TIP3   OH240575   3.685   3.516   1.527  0.5718  0.0905 -1.0345
 6339TIP3    H140576   3.708   3.609   1.525 -0.1751  0.2908 -0.6280
 6339TIP3    H240577   3.697   3.490   1.618  0.7493 -0.2060 -1.1417
 6340TIP3   OH240578   1.326   3.464   2.657 -0.4000  0.0975 -0.6124
 6340TIP3    H140579   1.284   3.411   2.725  0.1069 -0.3215 -0.6185
 6340TIP3    H240580   1.389   3.519   2.704  0.3238 -0.5607 -0.7804
 6341TIP3   OH240581   3.272   6.691   8.510 -0.2432 -0.0860 -0.7435
 6341TIP3    H140582   3.253   6.701   8.417 -0.0601  0.0305 -0.7683
 6341TIP3    H240583   3.212   6.623   8.540 -0.2109 -0.2163 -0.9755
 6342TIP3   OH240584   5.438   4.245   1.406  0.0279 -0.1023 -0.0065
 6342TIP3    H140585   5.518   4.287   1.438  0.4756 -1.5043  0.7684
 6342TIP3    H240586   5.452   4.235   1.312  0.5899  0.0338  0.0618
 6343TIP3   OH240587   3.723   5.552   0.859 -0.2658 -0.5955  0.2593
 6343TIP3    H140588   3.793   5.529   0.799 -0.3019 -0.1374  0.0395
 6343TIP3    H240589   3.695   5.640   0.832  0.4780  0.1131  1.6432
 6344TIP3   OH240590   2.211   4.111   3.078  0.3763 -0.1245 -0.1121
 6344TIP3    H140591   2.167   4.195   3.095 -0.7020 -0.5678 -0.6486
 6344TIP3    H240592   2.271   4.101   3.152 -0.5909  0.3897  0.7747
 6345TIP3   OH240593   3.928   5.237   1.131 -0.4287 -0.2338 -0.4805
 6345TIP3    H140594   3.886   5.205   1.211 -1.0211  0.1020 -0.6538
 6345TIP3    H240595   3.868   5.304   1.097  1.1337  1.5958  0.2432
 6346TIP3   OH240596   1.841   2.347   7.021  0.0338  0.2063 -0.2725
 6346TIP3    H140597   1.932   2.371   7.036 -0.1412  0.0337  1.2737
 6346TIP3    H240598   1.844   2.257   6.989  0.4140  0.1944 -0.2092
 6347TIP3   OH240599   4.514   2.464   2.490  0.2289 -0.0744  0.1801
 6347TIP3    H140600   4.579   2.467   2.561  1.5775 -0.6727 -0.9912
 6347TIP3    H240601   4.564   2.484   2.411 -1.4038  1.3763 -0.5401
 6348TIP3   OH240602   0.604   2.370   0.948  0.2351 -0.6152 -0.1661
 6348TIP3    H140603   0.525   2.418   0.974  0.0334 -0.6498 -0.7116
 6348TIP3    H240604   0.576   2.278   0.945  0.7890 -0.8897  1.5644
 6349TIP3   OH240605   3.200   3.331   0.116 -0.0877 -0.1058 -0.8664
 6349TIP3    H140606   3.153   3.283   0.048 -1.2491 -0.1476 -0.0603
 6349TIP3    H240607   3.136   3.343   0.186  0.4548  1.7467 -0.6268
 6350TIP3   OH240608   2.833   5.111   8.167  0.3506 -0.2637  0.5532
 6350TIP3    H140609   2.866   5.200   8.184 -0.8023  0.5606 -1.2750
 6350TIP3    H240610   2.887   5.055   8.223  0.3477  1.6758  2.6508
 6351TIP3   OH240611   1.575   5.738   2.787 -0.0083 -0.4508  0.2384
 6351TIP3    H140612   1.611   5.806   2.731  0.0214 -0.1471  0.6220
 6351TIP3    H240613   1.638   5.665   2.781  0.6401  0.0474  0.8533
 6352TIP3   OH240614   6.480   3.734   3.397  0.5400 -0.0924 -0.0459
 6352TIP3    H140615   6.494   3.812   3.451  1.5288 -0.1687 -0.1765
 6352TIP3    H240616   6.438   3.672   3.456 -0.2743  0.5434  0.0525
 6353TIP3   OH240617   0.865   3.979   8.561 -0.4359  0.3176  0.3003
 6353TIP3    H140618   0.860   3.884   8.551 -3.5277  0.6016 -2.6625
 6353TIP3    H240619   0.795   4.000   8.623  0.2260  0.7255  0.9307
 6354TIP3   OH240620   0.924   5.884   1.483 -0.2669 -0.2143 -0.2164
 6354TIP3    H140621   0.856   5.857   1.544  1.1223 -1.5191  0.8236
 6354TIP3    H240622   0.950   5.971   1.512 -0.3066 -0.4183  0.4354
 6355TIP3   OH240623   3.543   1.960   2.589  0.2368 -0.6722 -0.9004
 6355TIP3    H140624   3.619   1.990   2.639 -0.1940  0.7908 -1.0736
 6355TIP3    H240625   3.481   1.928   2.656 -0.3490  1.2974 -0.4518
 6356TIP3   OH240626   4.425   1.313   0.997  0.2820 -0.3059 -0.0273
 6356TIP3    H140627   4.432   1.408   1.007  0.9014 -0.4038  0.5263
 6356TIP3    H240628   4.331   1.297   0.987  0.2007  0.3908 -0.4288
 6357TIP3   OH240629   6.260   6.065   0.314  0.1092  0.0599 -0.6629
 6357TIP3    H140630   6.176   6.109   0.302 -0.2443 -0.5228 -0.3505
 6357TIP3    H240631   6.322   6.117   0.263 -0.0788  1.5633  0.5759
 6358TIP3   OH240632   1.823   0.449   2.639  0.2060 -0.2056 -0.1981
 6358TIP3    H140633   1.843   0.374   2.695  1.4983  0.3281  0.0966
 6358TIP3    H240634   1.900   0.505   2.647 -1.1832  1.6856  0.4217
 6359TIP3   OH240635   5.424   6.648   7.768 -0.0123  0.6185  0.1124
 6359TIP3    H140636   5.434   6.616   7.858 -4.1572 -1.4348  0.0853
 6359TIP3    H240637   5.434   6.569   7.714 -0.4230  1.3010 -0.9807
 6360TIP3   OH240638   2.400   1.729   1.258  0.1499  0.1268 -0.5551
 6360TIP3    H140639   2.400   1.765   1.346  1.7319  0.1223 -0.5212
 6360TIP3    H240640   2.376   1.803   1.202 -1.6895 -0.0664 -0.1038
 6361TIP3   OH240641   6.548   5.711   3.224  0.2664 -0.0009 -0.1632
 6361TIP3    H140642   6.460   5.680   3.246 -0.1887  0.5698 -1.1275
 6361TIP3    H240643   6.602   5.686   3.300 -0.3295 -1.9822 -0.3421
 6362TIP3   OH240644   0.942   2.575   7.588 -0.2687  0.0109 -0.3227
 6362TIP3    H140645   0.902   2.556   7.503  0.2610 -0.0379 -0.5608
 6362TIP3    H240646   1.015   2.514   7.595 -0.3894 -0.0751  0.2270
 6363TIP3   OH240647   2.904   1.240   7.849  0.2101 -0.1192 -0.1907
 6363TIP3    H140648   2.964   1.184   7.898  1.7193  0.3025 -1.4824
 6363TIP3    H240649   2.931   1.329   7.870 -1.1270  0.1211  0.5885
 6364TIP3   OH240650   6.039   0.504   3.237 -0.1491  0.2878  0.2838
 6364TIP3    H140651   5.983   0.582   3.239  0.2451  0.5770  0.3180
 6364TIP3    H240652   5.980   0.431   3.222 -0.4774  0.6387 -0.1249
 6365TIP3   OH240653   4.401   0.005   8.205 -0.7199  0.8283 -0.4951
 6365TIP3    H140654   4.340  -0.068   8.194 -0.2610  0.2473  0.6748
 6365TIP3    H240655   4.487  -0.032   8.186 -0.3965  0.8492  0.8472
 6366TIP3   OH240656   1.364   4.152   1.040 -0.2363  0.2429  0.8198
 6366TIP3    H140657   1.325   4.069   1.011 -0.3029  0.8548 -0.9543
 6366TIP3    H240658   1.425   4.127   1.110 -0.2552 -1.2902  0.3222
 6367TIP3   OH240659   5.348   2.126   0.359  0.0670 -0.2400  0.0265
 6367TIP3    H140660   5.337   2.136   0.453 -1.1247  2.8712 -0.3316
 6367TIP3    H240661   5.304   2.043   0.339 -3.2652  0.9379  1.7520
 6368TIP3   OH240662   1.582   5.968   1.408  0.3784  0.1707  0.1438
 6368TIP3    H140663   1.567   5.911   1.484  1.5502 -0.6532 -0.2283
 6368TIP3    H240664   1.560   5.914   1.332  1.1820  0.3072 -0.1958
 6369TIP3   OH240665   0.093   6.659   8.465 -0.2007 -0.0297  0.1494
 6369TIP3    H140666   0.131   6.747   8.457 -2.2843  0.8690 -0.4291
 6369TIP3    H240667   0.169   6.601   8.466  1.1979  1.5228 -2.6885
 6370TIP3   OH240668   4.068   0.006   8.061 -0.2306 -0.6631  1.2134
 6370TIP3    H140669   4.150   0.009   8.012  0.0143  0.4294  1.6671
 6370TIP3    H240670   4.082   0.064   8.136 -1.2176 -0.9143  1.6067
 6371TIP3   OH240671   6.547   5.544   2.550 -0.2370 -0.0862 -0.2232
 6371TIP3    H140672   6.609   5.600   2.597  1.5340 -1.8382 -0.2938
 6371TIP3    H240673   6.586   5.532   2.464 -0.4630 -1.4903 -0.1642
 6372TIP3   OH240674   1.974   1.691   2.190 -0.1633 -0.2504 -0.4329
 6372TIP3    H140675   1.893   1.711   2.237 -0.6311  0.3559 -1.4906
 6372TIP3    H240676   1.948   1.627   2.124  0.2354 -0.1172 -0.7210
 6373TIP3   OH240677   6.737   4.563   8.308 -0.3054 -0.9280  0.2756
 6373TIP3    H140678   6.715   4.568   8.401  0.6459  2.9890  0.4735
 6373TIP3    H240679   6.662   4.603   8.264  0.3933 -0.3032 -0.3598
 6374TIP3   OH240680   6.565   5.933   2.005 -0.2024 -0.0843 -0.2438
 6374TIP3    H140681   6.487   5.879   2.017  0.8694 -1.3946  1.2922
 6374TIP3    H240682   6.531   6.021   1.987 -2.0488 -0.5015  0.9400
 6375TIP3   OH240683   0.771   3.314   7.344  0.7007 -0.6993  0.4311
 6375TIP3    H140684   0.694   3.290   7.395  0.7074  0.3187  0.9499
 6375TIP3    H240685   0.736   3.350   7.263  0.6946 -3.0300 -0.7019
 6376TIP3   OH240686   0.205   3.533   1.223 -0.1911  0.3427  0.7706
 6376TIP3    H140687   0.192   3.564   1.133 -1.4489 -1.2887  0.3275
 6376TIP3    H240688   0.145   3.459   1.231  0.7600 -0.2897  2.5807
 6377TIP3   OH240689   3.837   1.041   1.133  0.1291 -0.7280 -0.6856
 6377TIP3    H140690   3.931   1.025   1.137 -0.0297 -2.4317 -2.4260
 6377TIP3    H240691   3.802   0.997   1.210  0.6173 -1.3414 -0.8100
 6378TIP3   OH240692   4.354   1.591   1.119  0.1297  0.0060  0.2426
 6378TIP3    H140693   4.268   1.598   1.078  0.2378  2.4196  0.2712
 6378TIP3    H240694   4.393   1.677   1.107  1.6561 -0.3401  2.1952
 6379TIP3   OH240695   6.187   6.139   8.169  0.4022 -0.2498 -0.1753
 6379TIP3    H140696   6.283   6.136   8.161  0.3370 -1.0819 -0.8261
 6379TIP3    H240697   6.157   6.163   8.081 -0.0225 -1.1064 -0.2727
 6380TIP3   OH240698   2.363   3.080   2.504 -0.1744 -0.1192 -0.3723
 6380TIP3    H140699   2.408   3.105   2.584 -0.3791 -3.7926  1.0620
 6380TIP3    H240700   2.288   3.139   2.500  1.7042  2.4841  0.1112
 6381TIP3   OH240701   5.112   5.050   0.490  0.4818 -0.2559 -0.2958
 6381TIP3    H140702   5.179   4.982   0.498 -0.4983 -1.0405  2.5832
 6381TIP3    H240703   5.151   5.127   0.533 -0.3217 -0.6719  1.2587
 6382TIP3   OH240704   6.409   0.620   7.988 -0.0747  0.7784  0.2255
 6382TIP3    H140705   6.329   0.626   7.935  1.1911  0.3106 -1.8415
 6382TIP3    H240706   6.386   0.664   8.070 -2.9901 -0.8715  0.4246
 6383TIP3   OH240707   4.178   1.114   2.622 -0.3449 -0.1422  0.3193
 6383TIP3    H140708   4.183   1.136   2.716 -2.2384  0.6006  0.2971
 6383TIP3    H240709   4.172   1.019   2.620 -1.2457 -0.1129  1.0366
 6384TIP3   OH240710   5.087   6.082   7.525 -0.2361 -0.5151 -0.0966
 6384TIP3    H140711   5.043   6.046   7.447 -0.3414  0.4558 -0.5040
 6384TIP3    H240712   5.057   6.173   7.529 -1.4635 -0.9554  1.9973
 6385TIP3   OH240713   2.369   1.332   8.489 -0.3200  0.1003  0.0597
 6385TIP3    H140714   2.398   1.423   8.497 -0.3761  0.2426 -1.1396
 6385TIP3    H240715   2.321   1.314   8.570 -0.5645  1.2272  0.1773
 6386TIP3   OH240716   6.693   4.077   1.092 -0.3640  0.1906  1.0922
 6386TIP3    H140717   6.726   4.167   1.083 -1.8020  0.6293 -0.3721
 6386TIP3    H240718   6.603   4.081   1.059 -0.2558 -1.9112  0.3706
 6387TIP3   OH240719   5.669   1.237   1.465  0.1794 -0.1093  0.3640
 6387TIP3    H140720   5.737   1.223   1.531  0.0103 -2.6334  0.0974
 6387TIP3    H240721   5.705   1.199   1.385 -0.6296  0.6579 -0.3865
 6388TIP3   OH240722   5.116   3.209   8.465  0.6640 -0.3361  0.0011
 6388TIP3    H140723   5.126   3.300   8.492  0.9663 -0.3111 -0.2022
 6388TIP3    H240724   5.096   3.162   8.547  0.9576 -0.1609  0.1738
 6389TIP3   OH240725   5.630   3.310   3.541  0.0587 -0.0562 -0.0442
 6389TIP3    H140726   5.632   3.332   3.448 -0.7632 -0.7369 -0.2373
 6389TIP3    H240727   5.538   3.297   3.560  0.3772 -2.0784  0.3308
 6390TIP3   OH240728   0.927   5.199   1.837 -0.8521  0.1993  0.2976
 6390TIP3    H140729   0.856   5.260   1.817 -0.8925 -0.1118 -0.5374
 6390TIP3    H240730   0.896   5.115   1.806  0.6334  0.3858 -1.8820
 6391TIP3   OH240731   5.068   5.332   7.659  0.5916 -0.5938 -0.1236
 6391TIP3    H140732   5.051   5.240   7.639  0.4153 -0.5715 -0.0802
 6391TIP3    H240733   4.991   5.378   7.625  0.7833 -0.4379 -0.3428
 6392TIP3   OH240734   2.471   4.610   8.005  0.5697  0.3400 -0.3838
 6392TIP3    H140735   2.409   4.632   7.935 -0.0474  2.5467  0.7613
 6392TIP3    H240736   2.553   4.592   7.959 -0.3807 -0.6444 -1.7924
 6393TIP3   OH240737   2.280   6.071   8.368  0.2778  0.1094  0.4931
 6393TIP3    H140738   2.253   6.144   8.423 -0.1288 -1.3549  2.3546
 6393TIP3    H240739   2.219   6.001   8.390  0.5042 -0.7389 -1.3980
 6394TIP3   OH240740   2.707   5.940   7.150 -0.5133 -0.5926  0.2917
 6394TIP3    H140741   2.793   5.960   7.185 -1.2681  1.3062  1.2550
 6394TIP3    H240742   2.705   5.845   7.140  2.3008 -0.5774 -1.5391
 6395TIP3   OH240743   4.036   0.853   2.887 -0.3614 -0.1811 -0.0079
 6395TIP3    H140744   4.058   0.833   2.796  0.2466 -0.2065  0.1406
 6395TIP3    H240745   3.952   0.900   2.882  0.1659  0.7199 -0.6643
 6396TIP3   OH240746   3.180   5.417   1.359  0.8314  0.0873  0.4141
 6396TIP3    H140747   3.161   5.325   1.338  1.1472 -0.2763  1.6630
 6396TIP3    H240748   3.234   5.413   1.438 -0.2521  1.4049  1.2514
 6397TIP3   OH240749   4.384   3.457   0.687  0.6869 -0.5140 -0.0142
 6397TIP3    H140750   4.369   3.549   0.709 -0.2685 -0.6983  0.1249
 6397TIP3    H240751   4.468   3.458   0.641 -0.0042  0.6546 -1.3671
 6398TIP3   OH240752   1.257   3.155   8.071 -0.6914 -0.3553  0.2414
 6398TIP3    H140753   1.349   3.152   8.045 -0.3352  2.4024  0.9412
 6398TIP3    H240754   1.211   3.185   7.993 -0.7494  0.0260  0.4230
 6399TIP3   OH240755   3.012   3.312   1.133 -0.4884 -0.1517 -0.3842
 6399TIP3    H140756   2.999   3.398   1.093  0.5852 -0.3149 -1.1077
 6399TIP3    H240757   2.983   3.250   1.066  1.5606 -0.4372 -1.0551
 6400TIP3   OH240758   2.254   4.540   8.594  0.0983 -0.0416  0.1361
 6400TIP3    H140759   2.170   4.585   8.602 -0.5887 -1.3892  0.8774
 6400TIP3    H240760   2.234   4.461   8.543  1.0737  0.0046 -0.3362
 6401TIP3   OH240761   5.302   2.269   2.197 -0.0883 -0.2293  0.0199
 6401TIP3    H140762   5.310   2.180   2.229  4.2997 -0.4725 -1.1377
 6401TIP3    H240763   5.380   2.314   2.230 -0.8251  2.4633 -1.5479
 6402TIP3   OH240764   5.123   5.655   7.403 -0.0241  0.3595 -0.3301
 6402TIP3    H140765   5.195   5.597   7.427  1.9654  3.1151  0.8468
 6402TIP3    H240766   5.149   5.692   7.319 -1.5249 -0.7459 -1.3343
 6403TIP3   OH240767   3.408   4.657   2.914 -0.0418 -0.0862  0.1222
 6403TIP3    H140768   3.416   4.573   2.869 -0.5225 -0.0340 -0.0705
 6403TIP3    H240769   3.356   4.711   2.855 -2.2331 -0.5736  1.4501
 6404TIP3   OH240770   4.504   6.244   1.366 -0.0297  0.2770  0.0582
 6404TIP3    H140771   4.501   6.338   1.347 -2.3742 -0.1669 -2.4203
 6404TIP3    H240772   4.463   6.236   1.452  1.7943  1.6017  1.1244
 6405TIP3   OH240773   2.135   5.823   7.081 -0.3124  0.5261  0.3465
 6405TIP3    H140774   2.219   5.857   7.112 -0.7247  0.6826  1.3528
 6405TIP3    H240775   2.090   5.899   7.046 -0.6311  0.7517  1.2124
 6406TIP3   OH240776   6.730   1.614   2.151  0.5948 -0.6323 -0.1593
 6406TIP3    H140777   6.653   1.671   2.145  1.7340  0.8599 -1.4628
 6406TIP3    H240778   6.706   1.549   2.217 -2.1383 -0.8056 -1.1797
 6407TIP3   OH240779   1.747   4.210   0.333  0.1534  0.6197  0.4318
 6407TIP3    H140780   1.689   4.136   0.352 -1.0261  1.8235  1.7898
 6407TIP3    H240781   1.834   4.180   0.357  0.0232 -0.9700 -0.9008
 6408TIP3   OH240782   2.740   4.752   1.295 -0.1261 -0.0595 -0.4720
 6408TIP3    H140783   2.784   4.673   1.327  0.2378  0.2345 -0.2424
 6408TIP3    H240784   2.812   4.812   1.272 -0.4079  0.4809  0.0442
 6409TIP3   OH240785   4.747   6.791   1.287 -0.4454 -0.2360  0.1761
 6409TIP3    H140786   4.808   6.751   1.349  0.5206  1.7129  0.5796
 6409TIP3    H240787   4.661   6.762   1.316  0.0452 -0.0541  1.9397
 6410TIP3   OH240788   4.236   3.490   8.094  0.2645 -0.4427  0.1041
 6410TIP3    H140789   4.317   3.441   8.079 -0.6835 -2.0285 -0.0878
 6410TIP3    H240790   4.237   3.511   8.187  1.3290  0.4069 -0.0797
 6411TIP3   OH240791   4.048   3.886   3.218 -0.2003 -0.0718 -0.0213
 6411TIP3    H140792   4.034   3.793   3.232  1.8691 -0.2977  0.9177
 6411TIP3    H240793   4.116   3.890   3.150  0.2621  0.7311  0.4713
 6412TIP3   OH240794   4.686   6.797   8.089  0.4193 -0.3637 -0.5876
 6412TIP3    H140795   4.738   6.867   8.049  0.0402  1.4620  1.8665
 6412TIP3    H240796   4.750   6.731   8.114  1.2100  0.5037 -0.2506
 6413TIP3   OH240797   3.001   0.835   8.513  0.3760 -0.1175 -0.6236
 6413TIP3    H140798   3.078   0.807   8.562  1.6500  1.0137 -1.8916
 6413TIP3    H240799   3.029   0.914   8.468 -1.2055 -0.2827 -1.9793
 6414TIP3   OH240800   0.412   5.282   1.517  0.3041 -0.1517  0.1942
 6414TIP3    H140801   0.449   5.295   1.605 -2.2947  0.0487  1.3574
 6414TIP3    H240802   0.473   5.329   1.459  2.1744 -0.3859  1.8272
 6415TIP3   OH240803   2.825   6.223   2.049  0.1528 -0.0664 -0.0781
 6415TIP3    H140804   2.757   6.207   2.115  0.4327  1.3837  0.5944
 6415TIP3    H240805   2.904   6.184   2.087  0.7792  2.4689  1.4488
 6416TIP3   OH240806   1.035   5.456   7.928 -0.2055 -0.1012 -0.4356
 6416TIP3    H140807   0.969   5.524   7.938 -0.3656 -0.0432 -1.7958
 6416TIP3    H240808   1.069   5.468   7.840  0.3176 -1.2868 -0.4098
 6417TIP3   OH240809   1.232   1.846   7.890  0.9733 -0.5856 -0.0886
 6417TIP3    H140810   1.169   1.776   7.868 -0.1779  0.3562  0.1308
 6417TIP3    H240811   1.255   1.884   7.805  0.2225 -0.0764 -0.0703
 6418TIP3   OH240812   3.472   5.487   7.927  0.5371 -0.2097 -0.2636
 6418TIP3    H140813   3.480   5.581   7.945 -0.9572 -0.3986  1.6536
 6418TIP3    H240814   3.472   5.446   8.013 -0.5271 -1.8116 -0.9817
 6419TIP3   OH240815   1.712   0.634   2.167 -0.4134 -0.8019  0.2045
 6419TIP3    H140816   1.757   0.550   2.163 -0.0339 -0.5685 -0.5253
 6419TIP3    H240817   1.649   0.624   2.238 -0.1893 -1.6107  0.2963
 6420TIP3   OH240818   2.624   4.594   1.000  0.1743 -0.4355  0.4272
 6420TIP3    H140819   2.623   4.540   0.920  1.0793  1.2291 -0.7773
 6420TIP3    H240820   2.711   4.633   1.000 -1.6359  4.2945 -1.1329
 6421TIP3   OH240821   4.761   4.880   7.537 -0.6310 -0.2055 -0.1079
 6421TIP3    H140822   4.781   4.870   7.444  2.2183 -0.5745  0.4656
 6421TIP3    H240823   4.807   4.808   7.580  1.8697  2.3558  1.9746
 6422TIP3   OH240824   3.371   5.146   2.047  0.2473  0.3265 -0.2321
 6422TIP3    H140825   3.454   5.131   2.000  0.7872  2.0839  0.1030
 6422TIP3    H240826   3.377   5.088   2.124  0.4095 -0.7877 -1.0516
 6423TIP3   OH240827   5.483   6.011   0.341  0.5424 -0.2031  0.6209
 6423TIP3    H140828   5.416   5.943   0.333 -0.4749  0.9117 -1.1618
 6423TIP3    H240829   5.564   5.963   0.355 -0.5005 -1.6282  2.1684
 6424TIP3   OH240830   4.544   2.774   0.868  0.4323 -0.3297  0.5462
 6424TIP3    H140831   4.597   2.696   0.880 -0.6285 -1.1101  0.2632
 6424TIP3    H240832   4.532   2.782   0.774 -2.4466 -1.9332  0.6690
 6425TIP3   OH240833   5.669   2.003   3.718 -0.2643 -0.4149  0.4027
 6425TIP3    H140834   5.589   2.029   3.672 -1.4005 -2.3083  1.1739
 6425TIP3    H240835   5.676   2.066   3.790 -1.0198 -0.1581  0.2667
 6426TIP3   OH240836   4.149   2.092   8.220  0.1625  0.1843  0.0400
 6426TIP3    H140837   4.245   2.095   8.227  0.0607 -0.2529  2.2285
 6426TIP3    H240838   4.123   2.184   8.213  0.7093  0.3445  0.0470
 6427TIP3   OH240839   4.799   3.713   3.639  0.2488  0.7359 -0.6684
 6427TIP3    H140840   4.852   3.639   3.668 -0.2252  1.1454  1.4024
 6427TIP3    H240841   4.709   3.684   3.650  0.0135  2.1072  1.8202
 6428TIP3   OH240842   1.001   0.097   1.461 -0.5577 -0.2544 -0.0512
 6428TIP3    H140843   1.069   0.145   1.509 -0.4845 -0.8924  0.5010
 6428TIP3    H240844   0.944   0.165   1.427  1.3034  0.4264 -2.0487
 6429TIP3   OH240845   6.573   1.961   0.247 -0.3199  0.2493 -0.1655
 6429TIP3    H140846   6.499   1.972   0.306  0.7266  0.5303  1.1221
 6429TIP3    H240847   6.627   2.039   0.260  1.1108 -0.7635  0.2485
 6430TIP3   OH240848   4.639   6.443   1.149 -0.1229  0.2031  0.1821
 6430TIP3    H140849   4.565   6.390   1.121  1.0893 -1.2393 -0.4478
 6430TIP3    H240850   4.683   6.468   1.068  0.9154 -0.2364  0.5902
 6431TIP3   OH240851   4.504   5.824   1.255 -0.1996 -0.6887 -0.9042
 6431TIP3    H140852   4.519   5.793   1.166 -2.3280  2.7475 -2.6991
 6431TIP3    H240853   4.571   5.891   1.268 -0.5014 -0.4974 -0.2944
 6432TIP3   OH240854   2.480   4.988   0.352  0.2408  0.2014 -0.0785
 6432TIP3    H140855   2.411   5.034   0.304  0.6731  1.0339  0.0776
 6432TIP3    H240856   2.457   4.999   0.444 -0.1039 -0.6268 -0.0555
 6433TIP3   OH240857   4.748   0.195   2.359  0.3114  0.1850  0.7036
 6433TIP3    H140858   4.830   0.225   2.321  0.6603 -0.0018  1.2933
 6433TIP3    H240859   4.709   0.274   2.398 -0.1173  0.4043 -0.1555
 6434TIP3   OH240860   2.447   3.126   0.495  0.1624  0.2766  0.0817
 6434TIP3    H140861   2.404   3.077   0.565  1.7512  2.8679  3.1372
 6434TIP3    H240862   2.502   3.062   0.451  0.4551 -1.1672  2.3777
 6435TIP3   OH240863   3.583   6.218   1.730 -0.4465 -0.4707 -0.2970
 6435TIP3    H140864   3.521   6.261   1.671  1.1307  1.1867 -0.8275
 6435TIP3    H240865   3.549   6.129   1.739 -2.2799  0.0479 -1.4374
 6436TIP3   OH240866   4.981   2.841   0.082 -0.1577  0.2597  0.1340
 6436TIP3    H140867   5.011   2.874  -0.003  1.4789 -1.6387 -0.0989
 6436TIP3    H240868   5.057   2.850   0.140  0.2377 -2.4590  0.1849
 6437TIP3   OH240869   2.836   2.973   3.311  0.0628  0.5054  0.1370
 6437TIP3    H140870   2.748   2.937   3.299  0.6425 -0.4776 -1.3748
 6437TIP3    H240871   2.882   2.908   3.364  0.3129  0.3059 -0.3213
 6438TIP3   OH240872   0.899   2.693   2.643 -0.1053  0.0284 -0.2025
 6438TIP3    H140873   0.954   2.640   2.701 -0.6993  0.6227  0.9451
 6438TIP3    H240874   0.931   2.782   2.655 -1.6647  0.4713  0.9482
 6439TIP3   OH240875   3.464   1.151   8.428  0.2134  0.4943 -0.1587
 6439TIP3    H140876   3.514   1.100   8.491  0.3529  1.6997  0.7507
 6439TIP3    H240877   3.469   1.241   8.460 -2.0533  0.7537 -0.3302
 6440TIP3   OH240878   0.308   0.021   8.189  0.2144 -0.1491 -0.2921
 6440TIP3    H140879   0.212   0.027   8.190  0.1343 -0.4401 -1.9978
 6440TIP3    H240880   0.336   0.070   8.266 -1.2238  2.6061 -1.3460
 6441TIP3   OH240881   5.971   5.049   8.044 -0.0746 -0.5056  0.2279
 6441TIP3    H140882   6.049   5.029   7.992  0.0683 -0.4582  0.4235
 6441TIP3    H240883   5.990   5.132   8.086 -0.3009 -0.4103  0.1435
 6442TIP3   OH240884   5.551   5.425   1.768 -0.3322 -0.5985 -0.0107
 6442TIP3    H140885   5.604   5.404   1.845 -0.0292 -1.7795 -0.5277
 6442TIP3    H240886   5.551   5.521   1.764 -1.4848 -0.4474  2.2330
 6443TIP3   OH240887   6.518   0.740   7.488 -0.1975  0.0107  0.3980
 6443TIP3    H140888   6.440   0.714   7.439  0.1687  0.3082 -0.3719
 6443TIP3    H240889   6.503   0.832   7.510  0.0439  0.1460  0.0128
 6444TIP3   OH240890   4.525   5.239   8.480  0.1925 -0.2770  0.2179
 6444TIP3    H140891   4.452   5.235   8.543  0.3570 -0.3367  0.4061
 6444TIP3    H240892   4.568   5.322   8.500 -0.9935  0.7418 -1.2057
 6445TIP3   OH240893   5.323   5.512   8.385 -0.2071  0.5925  0.1436
 6445TIP3    H140894   5.405   5.502   8.337 -0.0872  0.4208  0.3839
 6445TIP3    H240895   5.340   5.583   8.447 -0.6634  1.4752 -0.7133
 6446TIP3   OH240896   6.165   3.606   1.827 -0.5547  0.2044  0.2930
 6446TIP3    H140897   6.071   3.591   1.836 -0.7421  0.5171 -0.9694
 6446TIP3    H240898   6.172   3.677   1.764  0.5484 -0.1979 -0.0560
 6447TIP3   OH240899   5.305   3.111   0.407 -0.0821 -0.5474  0.2087
 6447TIP3    H140900   5.241   3.166   0.452  1.1981  1.5903 -0.4568
 6447TIP3    H240901   5.277   3.112   0.315  0.8179  0.3296 -0.0706
 6448TIP3   OH240902   3.752   2.817   2.371  0.1149  0.3685  0.1632
 6448TIP3    H140903   3.661   2.810   2.401  0.6204  1.4111  2.0894
 6448TIP3    H240904   3.774   2.910   2.384  0.9209  0.5237 -1.9706
 6449TIP3   OH240905   4.842   3.938   0.708  0.1574  0.3401 -0.0082
 6449TIP3    H140906   4.860   3.867   0.770  0.4886  0.6195  0.2194
 6449TIP3    H240907   4.907   4.005   0.729  1.4200 -0.2564 -1.7744
 6450TIP3   OH240908   3.215   2.343   8.471 -0.5340 -0.1133 -0.3839
 6450TIP3    H140909   3.233   2.432   8.502  0.5910  0.3398 -2.1619
 6450TIP3    H240910   3.273   2.333   8.395 -0.5510 -2.4206 -0.1408
 6451TIP3   OH240911   4.265   4.854   0.695 -0.1103  0.2632  0.2764
 6451TIP3    H140912   4.332   4.923   0.696  0.7230 -0.5282  1.2743
 6451TIP3    H240913   4.279   4.806   0.776 -1.9506  0.1065  0.5391
 6452TIP3   OH240914   0.548   2.686   8.007  0.2041  0.1049 -0.4254
 6452TIP3    H140915   0.478   2.628   8.035  0.9922 -1.9168 -2.3675
 6452TIP3    H240916   0.516   2.725   7.926  0.0434  1.7775  0.4056
 6453TIP3   OH240917   4.112   4.282   7.945 -0.2147 -0.2155 -0.3314
 6453TIP3    H140918   4.093   4.313   7.856  2.0440 -0.3642 -0.9298
 6453TIP3    H240919   4.046   4.325   8.000  0.1594  2.3182 -1.6882
 6454TIP3   OH240920   1.473   3.237   0.131  0.1638 -0.3730 -0.0272
 6454TIP3    H140921   1.459   3.253   0.224  0.3997 -2.1908  0.3613
 6454TIP3    H240922   1.515   3.317   0.099  1.5956 -0.3222  1.7988
 6455TIP3   OH240923   0.038   0.235   0.416 -1.0139 -0.3681  0.0782
 6455TIP3    H140924  -0.054   0.246   0.440 -0.9571  1.8804 -0.4888
 6455TIP3    H240925   0.036   0.177   0.340 -1.9981 -0.0507 -0.1583
 6456TIP3   OH240926   2.682   3.961   0.502  0.5164 -0.3666 -0.3321
 6456TIP3    H140927   2.772   3.959   0.536 -0.0897  1.5026  1.6067
 6456TIP3    H240928   2.685   4.023   0.430  0.7335 -0.0917 -0.0878
 6457TIP3   OH240929   3.189   2.423   1.837  0.2765  0.1567  0.0817
 6457TIP3    H140930   3.147   2.389   1.916  1.0270 -0.3743  0.2637
 6457TIP3    H240931   3.181   2.518   1.844  0.6769  0.1321  1.0010
 6458TIP3   OH240932   1.592   5.862   8.421  0.0899  0.4795 -0.3505
 6458TIP3    H140933   1.618   5.814   8.500 -1.1845 -0.3441 -0.4021
 6458TIP3    H240934   1.529   5.926   8.452 -0.2810  0.2749 -0.6763
 6459TIP3   OH240935   6.070   1.963   0.656  0.2020  0.2805  0.0096
 6459TIP3    H140936   5.992   1.968   0.601  1.0100 -1.0509 -1.3161
 6459TIP3    H240937   6.060   2.036   0.718 -0.5396  2.1085 -2.1356
 6460TIP3   OH240938   0.184   0.812   7.266  0.6661 -0.3193 -0.6764
 6460TIP3    H140939   0.160   0.875   7.334 -0.2424  1.3341 -2.4585
 6460TIP3    H240940   0.235   0.746   7.313 -2.5513 -1.0304  2.2738
 6461TIP3   OH240941   0.495   1.260   0.163  0.0692  0.4427 -0.4884
 6461TIP3    H140942   0.559   1.213   0.217  1.4336  0.4353 -2.0342
 6461TIP3    H240943   0.468   1.333   0.217  0.0934 -0.5015  0.8534
 6462TIP3   OH240944   1.205   3.458   0.047 -0.6496 -0.1228  0.2657
 6462TIP3    H140945   1.128   3.461  -0.009 -1.3211 -0.7067  1.1347
 6462TIP3    H240946   1.242   3.371   0.034 -0.9568 -0.3578  0.9041
 6463TIP3   OH240947   3.634   1.978   8.433  0.3723  0.4042  0.2197
 6463TIP3    H140948   3.587   1.984   8.517  1.5909 -2.0453  1.1684
 6463TIP3    H240949   3.570   1.943   8.372  0.1096  0.0116  0.7148
 6464TIP3   OH240950   0.004   5.355   8.436  0.2658 -0.8231 -0.1682
 6464TIP3    H140951  -0.050   5.371   8.358 -0.3417 -3.0066 -0.2751
 6464TIP3    H240952   0.090   5.332   8.402  0.3020 -0.7106 -0.1521
 6465TIP3   OH240953   0.452   5.511   0.927 -0.0807  0.1657 -0.0974
 6465TIP3    H140954   0.376   5.510   0.986 -0.4499  1.9715 -0.4834
 6465TIP3    H240955   0.519   5.560   0.975  0.5474 -0.6312 -0.1344
 6466TIP3   OH240956   3.507   1.780   0.920  0.3284 -0.0854  0.5136
 6466TIP3    H140957   3.550   1.805   0.838  0.3628  1.5343  0.9870
 6466TIP3    H240958   3.427   1.833   0.922  0.7394  0.5305  1.9037
 6467TIP3   OH240959   5.983   3.496   8.365  0.1673 -0.9756 -0.0261
 6467TIP3    H140960   5.972   3.519   8.457 -0.1255 -0.2153 -0.2480
 6467TIP3    H240961   5.976   3.400   8.363  0.2158 -0.9982  0.7418
 6468TIP3   OH240962   3.464   3.759   0.983 -0.0159  0.3353 -0.4702
 6468TIP3    H140963   3.442   3.681   1.035 -0.7828  0.1875 -0.9946
 6468TIP3    H240964   3.559   3.759   0.979  0.0008 -1.4976 -1.7864
 6469TIP3   OH240965   6.579   5.025   2.437  0.3066  0.1407  0.2634
 6469TIP3    H140966   6.619   5.071   2.511 -0.0043  1.9731 -0.6554
 6469TIP3    H240967   6.492   4.999   2.470 -0.0922  1.5268  0.3672
 6470TIP3   OH240968   6.758   5.316   1.247 -0.4803  0.5015  0.4453
 6470TIP3    H140969   6.698   5.341   1.318  0.0604  0.5199  0.9076
 6470TIP3    H240970   6.841   5.301   1.291  0.1740  1.6551 -0.3280
 6471TIP3   OH240971   6.451   2.517   1.310  0.3328 -0.1076  0.1881
 6471TIP3    H140972   6.420   2.516   1.401 -0.4704 -0.4594 -0.0717
 6471TIP3    H240973   6.525   2.577   1.310 -0.8050  1.3473  0.7034
 6472TIP3   OH240974   0.723   2.843   7.737  0.0981 -0.2289 -0.4588
 6472TIP3    H140975   0.685   2.916   7.785  1.5367 -0.3139  0.8988
 6472TIP3    H240976   0.789   2.883   7.680  0.7737 -0.4058  0.1690
 6473TIP3   OH240977   4.700   2.995   8.546  0.4577  0.6266 -0.4777
 6473TIP3    H140978   4.698   3.088   8.569  1.7080  0.5332  0.1119
 6473TIP3    H240979   4.614   2.962   8.572  0.9191  1.0711  1.8949
 6474TIP3   OH240980   6.799   3.577   2.595 -0.0441  0.3524  0.6469
 6474TIP3    H140981   6.826   3.668   2.601  0.0287  0.3043  1.1069
 6474TIP3    H240982   6.856   3.531   2.657 -0.3802  0.0606  0.7433
 6475TIP3   OH240983   6.805   1.063   1.228  0.1127 -0.5131  0.4199
 6475TIP3    H140984   6.811   0.996   1.296 -0.3870 -1.1824 -0.1732
 6475TIP3    H240985   6.869   1.129   1.253  0.0646 -0.8351  1.4375
 6476TIP3   OH240986   0.365   0.308   0.263 -0.0168  0.0392  0.2363
 6476TIP3    H140987   0.340   0.310   0.171  0.8621 -0.5803 -0.0309
 6476TIP3    H240988   0.461   0.317   0.262 -0.0660  0.8730  1.1357
 6477TIP3   OH240989   6.138   1.930   0.984  1.0703 -0.3236 -0.3982
 6477TIP3    H140990   6.194   1.906   1.058  2.7405  0.6389 -1.3071
 6477TIP3    H240991   6.164   2.019   0.962  0.4713 -0.5348 -2.0493
 6478TIP3   OH240992   1.606   1.680   1.720  0.1805  0.1402 -0.6053
 6478TIP3    H140993   1.670   1.613   1.695  0.0232  0.4315 -1.8980
 6478TIP3    H240994   1.654   1.763   1.711  0.6296  0.2056  1.8034
 6479TIP3   OH240995   1.311   2.725   7.892  0.3694  0.0685 -0.7011
 6479TIP3    H140996   1.327   2.817   7.908 -0.3753  0.1190 -0.2102
 6479TIP3    H240997   1.236   2.723   7.833  0.1568 -0.2293 -0.4261
 6480TIP3   OH240998   2.490   2.505   8.546 -0.3944 -0.1834 -0.0119
 6480TIP3    H140999   2.433   2.428   8.552 -1.0498  0.2313 -0.8303
 6480TIP3    H241000   2.435   2.573   8.508  0.5850  0.2936 -0.6109
 6481TIP3   OH241001   5.510   1.729   8.198 -0.5287  0.5749 -0.1647
 6481TIP3    H141002   5.587   1.671   8.199 -0.5718  0.5028 -0.6485
 6481TIP3    H241003   5.538   1.806   8.249 -0.0878  0.6053 -0.4407
 6482TIP3   OH241004   2.123   5.360   8.437 -0.1629  0.2772  0.0930
 6482TIP3    H141005   2.075   5.367   8.519  1.7357  0.2443  1.2523
 6482TIP3    H241006   2.214   5.349   8.463  0.4497 -0.0832 -2.0226
 6483TIP3   OH241007   1.929   5.278   2.088  0.0877 -0.2573  1.2684
 6483TIP3    H141008   1.908   5.370   2.105 -0.0987 -0.2381  0.9403
 6483TIP3    H241009   1.942   5.240   2.175 -0.5225 -0.0836  1.4389
 6484TIP3   OH241010   3.322   4.827   8.443 -0.2101  0.3013 -0.5285
 6484TIP3    H141011   3.369   4.793   8.520 -0.7425 -0.3835 -0.5072
 6484TIP3    H241012   3.391   4.842   8.378  0.1348  0.0270 -0.2311
 6485TIP3   OH241013   5.596   4.840   3.505  0.1239  1.1759  0.7423
 6485TIP3    H141014   5.573   4.768   3.563 -0.6531 -0.6145 -1.5993
 6485TIP3    H241015   5.587   4.918   3.558 -0.2018 -0.3562  3.0770
 6486TIP3   OH241016   4.961   4.353   2.635  0.1442 -0.1083  0.4294
 6486TIP3    H141017   4.956   4.323   2.544  2.6448 -0.6492  0.4097
 6486TIP3    H241018   4.925   4.280   2.686  0.4409 -0.5678 -0.0081
 6487TIP3   OH241019   5.443   4.834   8.195  0.2196 -0.2654 -0.5109
 6487TIP3    H141020   5.500   4.763   8.167  1.7598  0.3913  0.7606
 6487TIP3    H241021   5.388   4.795   8.263 -0.1072 -0.6385 -0.9830
 6488TIP3   OH241022   5.182   2.558   3.639  0.5464 -0.0927  0.3645
 6488TIP3    H141023   5.259   2.503   3.655  2.9792  1.0673 -5.0767
 6488TIP3    H241024   5.126   2.506   3.582 -0.0723  0.9851 -0.0465
 6489TIP3   OH241025   1.032   4.249   7.666 -0.1301 -0.0828 -0.0311
 6489TIP3    H141026   1.108   4.305   7.649  0.5824 -0.8637  0.5528
 6489TIP3    H241027   0.961   4.311   7.685  0.2791  0.6592 -0.8382
 6490TIP3   OH241028   0.353   5.965   1.781 -0.0485 -0.1999 -0.3146
 6490TIP3    H141029   0.321   5.918   1.704 -0.0444  0.1140 -0.5110
 6490TIP3    H241030   0.389   5.897   1.838 -0.0370 -0.4305 -0.5967
 6491TIP3   OH241031   1.485   4.100   0.617  0.1378  0.3823  0.3246
 6491TIP3    H141032   1.479   4.192   0.593  3.5738  0.3361 -1.3026
 6491TIP3    H241033   1.546   4.099   0.691  1.0287 -0.6426 -0.4046
 6492TIP3   OH241034   3.929   1.314   7.814 -0.3610 -0.4557  0.2227
 6492TIP3    H141035   4.022   1.332   7.829 -0.2448 -1.9216  1.5667
 6492TIP3    H241036   3.919   1.316   7.719  0.7455  1.0099  0.1003
 6493TIP3   OH241037   4.767   2.189   8.025  0.3220  0.1620 -0.3124
 6493TIP3    H141038   4.680   2.192   7.985 -1.7939  1.7883  3.8601
 6493TIP3    H241039   4.789   2.281   8.041  0.3433 -0.3256  3.2366
 6494TIP3   OH241040   1.412   3.199   0.989 -0.0788  0.6995  0.2155
 6494TIP3    H141041   1.343   3.183   0.925  0.2730 -1.7852  0.3387
 6494TIP3    H241042   1.480   3.135   0.966  1.2860  1.7048  1.3338
 6495TIP3   OH241043   1.389   1.710   1.554  0.2928  0.3811  0.4941
 6495TIP3    H141044   1.412   1.798   1.522 -0.1392  0.3202  0.0153
 6495TIP3    H241045   1.463   1.685   1.610  1.4100  0.1832 -1.0233
 6496TIP3   OH241046   4.755   5.709   7.720 -0.2468  0.8024 -0.0154
 6496TIP3    H141047   4.720   5.699   7.632  0.3563  3.9627 -0.7495
 6496TIP3    H241048   4.847   5.684   7.712 -0.6469 -0.7990  0.2226
 6497TIP3   OH241049   5.877   1.536   8.520 -0.2095  0.0728 -0.5153
 6497TIP3    H141050   5.859   1.490   8.602  0.0076 -0.8844 -0.9798
 6497TIP3    H241051   5.793   1.576   8.496 -0.4047 -0.0721 -0.0789
 6498TIP3   OH241052   2.412   6.427   1.877  0.3911  0.3001 -0.4042
 6498TIP3    H141053   2.406   6.431   1.781 -0.9365 -0.5665 -0.3892
 6498TIP3    H241054   2.506   6.421   1.895  0.9176  3.4040 -1.4766
 6499TIP3   OH241055   3.147   6.379   8.430 -0.8558 -0.0511  0.1877
 6499TIP3    H141056   3.231   6.334   8.420 -1.6693 -1.9258  1.1532
 6499TIP3    H241057   3.150   6.452   8.368  0.6765 -1.2741 -1.2602
 6500TIP3   OH241058   5.198   5.472   1.783  0.2123  0.3014  0.3273
 6500TIP3    H141059   5.103   5.462   1.791  0.1642 -0.0795 -0.6065
 6500TIP3    H241060   5.210   5.535   1.713  0.6439  1.7740  1.6628
 6501TIP3   OH241061   1.050   2.324   2.278  0.4417 -0.5607 -0.1471
 6501TIP3    H141062   1.105   2.246   2.285  2.3074  0.5597 -1.3898
 6501TIP3    H241063   0.984   2.301   2.213  1.3411 -0.9298 -0.9534
 6502TIP3   OH241064   4.118   1.349   2.785  0.6532 -0.2261 -0.0515
 6502TIP3    H141065   4.142   1.319   2.873 -0.4856 -0.3331  0.2368
 6502TIP3    H241066   4.174   1.426   2.770  0.8990 -0.2399  0.7428
 6503TIP3   OH241067   0.372   3.985   2.204  0.4625  0.0721 -0.7500
 6503TIP3    H141068   0.351   4.069   2.164  2.2048  0.3835 -1.0689
 6503TIP3    H241069   0.412   4.007   2.288  0.7744 -0.4411 -0.7586
 6504TIP3   OH241070   1.009   4.226   2.073  0.4498 -0.1131  0.6348
 6504TIP3    H141071   0.965   4.209   2.156 -0.6580 -2.1547 -0.2849
 6504TIP3    H241072   1.098   4.194   2.086  1.0338  1.8027  1.7405
 6505TIP3   OH241073   6.726   4.631   2.302 -0.8207  0.0826  0.1103
 6505TIP3    H141074   6.683   4.666   2.380 -0.3382 -0.0062  0.4186
 6505TIP3    H241075   6.718   4.700   2.236 -1.2590  0.1445  0.2236
 6506TIP3   OH241076   1.847   4.258   3.196  0.0193 -0.9571 -0.5113
 6506TIP3    H141077   1.872   4.209   3.275 -0.1595  0.3475  0.3704
 6506TIP3    H241078   1.927   4.303   3.170 -0.5248  0.6105  0.4097
 6507TIP3   OH241079   5.700   1.263   1.129  0.4543  0.2550 -0.3413
 6507TIP3    H141080   5.629   1.320   1.159  0.9043  0.2756  0.7184
 6507TIP3    H241081   5.657   1.184   1.097 -0.1893  1.1867 -1.9032
 6508TIP3   OH241082   5.871   2.812   2.753  0.4279 -0.0836 -0.4584
 6508TIP3    H141083   5.902   2.756   2.682  0.9804  0.1382 -0.3983
 6508TIP3    H241084   5.920   2.784   2.830  0.7940  0.5407 -0.4507
 6509TIP3   OH241085   2.095   6.587   0.616  0.1771  0.2646  0.1418
 6509TIP3    H141086   2.059   6.608   0.530  2.3952  1.3443 -0.5924
 6509TIP3    H241087   2.029   6.618   0.678 -1.0011  0.4146 -1.1369
 6510TIP3   OH241088   2.401   5.815   1.111 -0.9065 -0.4377  0.7221
 6510TIP3    H141089   2.481   5.866   1.122 -0.2425 -1.3997  0.5472
 6510TIP3    H241090   2.331   5.874   1.136 -0.1120  0.3144  1.2328
 6511TIP3   OH241091   0.755   3.591   8.156 -0.0542 -0.3694  0.0421
 6511TIP3    H141092   0.747   3.643   8.236 -0.0589  2.4984 -1.7093
 6511TIP3    H241093   0.666   3.566   8.133 -0.2150  0.2057  0.0493
 6512TIP3   OH241094   1.899   1.329   2.541  0.7243 -0.3128 -0.3874
 6512TIP3    H141095   1.869   1.278   2.466  1.7043 -0.8485 -0.4374
 6512TIP3    H241096   1.994   1.316   2.542  0.9345  1.0517 -0.0516
 6513TIP3   OH241097   0.357   6.515   8.486  0.0151 -0.3475  0.2649
 6513TIP3    H141098   0.417   6.469   8.544  0.2418 -0.9509 -0.4360
 6513TIP3    H241099   0.380   6.485   8.398 -1.9596 -1.3524  0.0373
 6514TIP3   OH241100   3.748   1.511   7.899 -0.0430 -0.6305  0.1123
 6514TIP3    H141101   3.823   1.461   7.868  0.4497 -0.3820  0.8764
 6514TIP3    H241102   3.760   1.516   7.994 -0.5402  0.1980  0.1390
 6515TIP3   OH241103   6.148   2.422   0.299 -0.3447  0.4820  0.0998
 6515TIP3    H141104   6.115   2.453   0.384  0.7936 -1.1348  1.1778
 6515TIP3    H241105   6.086   2.354   0.273 -0.0956  0.2334  0.1575
 6516TIP3   OH241106   6.278   0.470   0.183 -0.0430 -0.4110 -0.2088
 6516TIP3    H141107   6.251   0.475   0.275 -0.8474  1.6676 -0.4867
 6516TIP3    H241108   6.367   0.505   0.183  0.2624 -1.1748 -0.1306
 6517TIP3   OH241109   3.636   4.996   2.288  0.1364 -0.3477 -0.5949
 6517TIP3    H141110   3.683   4.996   2.204 -1.5203 -0.2440 -1.5863
 6517TIP3    H241111   3.645   5.085   2.321  0.6939 -0.3515 -0.7290
 6518TIP3   OH241112   4.471   2.947   1.304 -0.2286 -0.2722  0.3607
 6518TIP3    H141113   4.480   2.868   1.250 -0.2374  1.1234 -1.7739
 6518TIP3    H241114   4.560   2.964   1.335  0.1060 -0.1709 -0.6081
 6519TIP3   OH241115   3.706   0.067   0.207  0.6791  0.9328 -0.3806
 6519TIP3    H141116   3.801   0.058   0.210  0.6229 -0.2937 -1.3578
 6519TIP3    H241117   3.683   0.049   0.116 -0.4999  1.1723 -0.1498
 6520TIP3   OH241118   2.927   1.822   1.890  1.0166 -0.2522 -0.6291
 6520TIP3    H141119   2.925   1.785   1.802  1.0519 -0.1103 -0.6911
 6520TIP3    H241120   3.003   1.881   1.889  0.6127  0.2711 -0.7140
 6521TIP3   OH241121   3.335   1.865   2.737  0.6147 -0.1746  0.6100
 6521TIP3    H141122   3.251   1.899   2.769 -1.1269 -2.9714 -0.5549
 6521TIP3    H241123   3.381   1.836   2.816 -0.3213 -0.2001  1.1659
 6522TIP3   OH241124   3.308   2.299   0.121 -0.3250 -0.1813  0.1055
 6522TIP3    H141125   3.384   2.243   0.136 -0.6156 -0.9317 -1.0190
 6522TIP3    H241126   3.238   2.238   0.098 -1.5082  0.4370  1.9336
 6523TIP3   OH241127   3.433   5.440   2.479  0.1088 -0.1763 -0.0737
 6523TIP3    H141128   3.415   5.464   2.570  0.3044 -1.9042  0.4564
 6523TIP3    H241129   3.522   5.472   2.464 -0.2362  0.8691  0.0582
 6524TIP3   OH241130   1.408   0.788   0.030  0.1240 -0.4930 -0.0230
 6524TIP3    H141131   1.316   0.811   0.016  0.9740  1.9547 -2.4603
 6524TIP3    H241132   1.432   0.835   0.110 -0.1744  0.8315 -0.6869
 6525TIP3   OH241133   1.407   2.405   7.300  0.1593  0.4615  0.1692
 6525TIP3    H141134   1.488   2.434   7.257 -0.2755  0.8808 -0.3734
 6525TIP3    H241135   1.405   2.310   7.286 -0.0296  0.5995 -0.8504
 6526TIP3   OH241136   4.605   4.907   0.337  0.3251 -0.5568  0.5789
 6526TIP3    H141137   4.693   4.891   0.301  0.2356  0.7949 -0.3117
 6526TIP3    H241138   4.594   4.839   0.404  1.7677 -1.1839  0.2256
 6527TIP3   OH241139   5.524   6.489   0.206 -0.1536 -0.2749  0.3323
 6527TIP3    H141140   5.542   6.446   0.123 -2.2215  1.0503 -0.8926
 6527TIP3    H241141   5.437   6.458   0.231 -0.5174  1.0442  0.8192
 6528TIP3   OH241142   1.342   0.223   8.365 -0.9115 -0.0999  0.3982
 6528TIP3    H141143   1.265   0.192   8.318 -0.0068  0.0507 -1.2321
 6528TIP3    H241144   1.350   0.315   8.342 -0.0783 -0.1888  0.2890
 6529TIP3   OH241145   3.584   3.628   2.120  0.1597  0.6859 -0.2318
 6529TIP3    H141146   3.656   3.588   2.070  0.6208  0.7125  0.4064
 6529TIP3    H241147   3.512   3.566   2.111  0.8646 -0.3128  0.7376
 6530TIP3   OH241148   3.571   0.032   7.611  0.2739  0.2112 -0.8353
 6530TIP3    H141149   3.588   0.115   7.654  0.7745  0.7352 -1.9793
 6530TIP3    H241150   3.564   0.055   7.518 -0.4695 -0.9043 -1.0709
 6531TIP3   OH241151   5.523   3.919   3.490 -0.1534 -0.1520 -0.1998
 6531TIP3    H141152   5.516   3.833   3.450 -1.0154 -0.9119  1.4750
 6531TIP3    H241153   5.468   3.913   3.568 -1.4470  2.3849 -0.8134
 6532TIP3   OH241154   0.345   4.038   3.442 -0.0533 -0.7269  0.0543
 6532TIP3    H141155   0.434   4.058   3.471 -0.4605  0.3311  0.6203
 6532TIP3    H241156   0.325   4.105   3.377  0.0997 -1.8626 -1.1940
 6533TIP3   OH241157   2.250   0.825   1.279 -0.4079  0.5999 -0.5370
 6533TIP3    H141158   2.184   0.757   1.285  0.3818 -0.0744  3.2655
 6533TIP3    H241159   2.299   0.805   1.199 -0.9013 -2.6644 -0.1300
 6534TIP3   OH241160   1.848   0.237   1.041 -0.5381 -0.0535  0.2421
 6534TIP3    H141161   1.942   0.223   1.031 -0.3895  1.7909 -1.5505
 6534TIP3    H241162   1.811   0.148   1.046  1.0336 -0.9150 -1.9688
 6535TIP3   OH241163   1.857   1.544   8.033 -0.3602  0.4683 -0.0143
 6535TIP3    H141164   1.769   1.540   7.995  0.0339 -0.2885 -0.8830
 6535TIP3    H241165   1.843   1.570   8.124 -1.4752  0.3978 -0.1575
 6536TIP3   OH241166   0.998   2.023   7.589  0.0533  0.5935  0.0015
 6536TIP3    H141167   1.086   1.990   7.607 -0.7161 -2.4197 -1.1036
 6536TIP3    H241168   0.999   2.047   7.497 -0.2671  0.5427 -0.0191
 6537TIP3   OH241169   3.585   5.930   1.822  0.3900 -0.2787 -0.0818
 6537TIP3    H141170   3.524   5.924   1.748  2.4491 -0.6114 -1.8657
 6537TIP3    H241171   3.530   5.917   1.899 -2.2983  2.4615 -1.3121
 6538TIP3   OH241172   2.414   3.385   7.352 -0.1493 -0.1745  0.1285
 6538TIP3    H141173   2.498   3.414   7.317 -0.2402  1.6048  1.2636
 6538TIP3    H241174   2.363   3.360   7.275  1.5135 -1.6592 -0.5542
 6539TIP3   OH241175   2.144   1.415   7.822 -0.1066  0.0315  0.5421
 6539TIP3    H141176   2.067   1.433   7.877 -0.3209 -0.3819  0.3809
 6539TIP3    H241177   2.113   1.349   7.760  0.9410 -1.7156  1.7751
 6540TIP3   OH241178   4.176   6.670   1.305  0.1918  0.1275  0.3535
 6540TIP3    H141179   4.109   6.656   1.373 -0.3878  1.7421  0.1465
 6540TIP3    H241180   4.159   6.600   1.241  0.8863 -1.5643  1.9279
 6541TIP3   OH241181   5.000   6.476   2.278  0.5034 -0.2033  0.9100
 6541TIP3    H141182   4.917   6.474   2.326  0.4456 -1.7048  0.8009
 6541TIP3    H241183   5.066   6.454   2.345  0.5183 -1.4416  0.5150
 6542TIP3   OH241184   2.937   5.297   8.320  0.2806  0.3587 -0.3912
 6542TIP3    H141185   2.888   5.369   8.357  0.2056  1.1430 -1.9507
 6542TIP3    H241186   2.958   5.241   8.395  0.9226  2.3163  0.9702
 6543TIP3   OH241187   0.388   5.478   3.376  0.0002  0.1854 -0.1358
 6543TIP3    H141188   0.404   5.447   3.465 -1.1007  0.9722  0.3745
 6543TIP3    H241189   0.466   5.529   3.354  1.0496 -1.4303 -0.3195
 6544TIP3   OH241190   1.595   5.715   0.454 -0.0622 -0.2053  0.0724
 6544TIP3    H141191   1.546   5.668   0.387  0.0657  0.0402 -0.1945
 6544TIP3    H241192   1.583   5.663   0.533 -0.3961 -0.3778 -0.0894
 6545TIP3   OH241193   6.231   5.159   3.225 -0.3333 -0.5873 -0.2394
 6545TIP3    H141194   6.163   5.101   3.191 -0.9425  0.3087 -0.5875
 6545TIP3    H241195   6.254   5.123   3.310 -1.4574 -0.7224  0.0113
 6546TIP3   OH241196   5.371   0.284   7.157  0.0045 -0.4273  0.2685
 6546TIP3    H141197   5.417   0.225   7.097  0.6443  0.3844 -0.0662
 6546TIP3    H241198   5.281   0.285   7.124  0.3846  0.1508 -0.8228
 6547TIP3   OH241199   2.565   5.743   7.743  0.2629 -0.4309 -0.6049
 6547TIP3    H141200   2.564   5.680   7.815 -0.1810  0.0052 -0.2286
 6547TIP3    H241201   2.586   5.827   7.784 -2.6767  0.3606 -0.5348
 6548TIP3   OH241202   3.759   5.223   8.286 -0.1638 -0.8360 -0.2193
 6548TIP3    H141203   3.709   5.148   8.318  0.2106 -1.2163 -0.5029
 6548TIP3    H241204   3.733   5.231   8.194  0.4183 -1.1534 -0.4212
 6549TIP3   OH241205   6.733   5.900   7.073 -0.2725 -0.1203 -0.2555
 6549TIP3    H141206   6.802   5.959   7.041 -1.1331  0.1057 -1.7659
 6549TIP3    H241207   6.687   5.951   7.139  0.7679 -0.1487  0.5243
 6550TIP3   OH241208   1.104   2.064   0.892  0.3195 -0.3737  0.0795
 6550TIP3    H141209   1.066   2.107   0.815  0.3103  0.0687  0.3236
 6550TIP3    H241210   1.049   2.093   0.965  1.7541  1.2086  0.6136
 6551TIP3   OH241211   0.562   3.049   0.872  0.3766 -0.0031  0.1250
 6551TIP3    H141212   0.490   3.042   0.809  1.0767  0.3923 -0.7466
 6551TIP3    H241213   0.553   3.136   0.910  0.0542 -0.1777  0.4582
 6552TIP3   OH241214   0.871   6.486   8.637 -0.4509  0.0709  0.0980
 6552TIP3    H141215   0.920   6.551   8.587 -0.6239 -0.5232 -0.8836
 6552TIP3    H241216   0.805   6.536   8.685 -0.1073  0.6845 -0.0693
 6553TIP3   OH241217   6.235   6.361   7.688  0.6204  0.1138 -0.0269
 6553TIP3    H141218   6.208   6.273   7.714 -1.5596 -0.4219 -3.4422
 6553TIP3    H241219   6.312   6.348   7.633 -1.2099 -0.1270 -2.7305
 6554TIP3   OH241220   1.424   6.712   2.205  0.4506 -0.0709 -0.0138
 6554TIP3    H141221   1.336   6.695   2.238 -0.6367  1.9863 -1.6299
 6554TIP3    H241222   1.478   6.719   2.284 -1.1765  0.3190  1.1089
 6555TIP3   OH241223   4.331   1.522   2.726  0.2370 -0.1178 -0.1065
 6555TIP3    H141224   4.371   1.605   2.752 -0.4234  1.2275 -3.0192
 6555TIP3    H241225   4.394   1.483   2.666  0.4662 -1.7065  1.1217
 6556TIP3   OH241226   3.945   4.631   0.269  0.3399 -0.7922  0.4556
 6556TIP3    H141227   3.996   4.561   0.310  1.3062  0.5087  1.5659
 6556TIP3    H241228   3.988   4.646   0.185  1.2535 -0.3510  0.9839
 6557TIP3   OH241229   0.480   3.570   1.077 -0.0773  0.0204  0.2866
 6557TIP3    H141230   0.396   3.548   1.117  1.0544  1.8843  4.1556
 6557TIP3    H241231   0.472   3.663   1.055  1.1423  0.4363  1.4528
 6558TIP3   OH241232   3.735   2.436   1.467  0.4687  0.2970 -0.4489
 6558TIP3    H141233   3.647   2.462   1.442  0.7293 -0.5308 -2.3851
 6558TIP3    H241234   3.767   2.509   1.520 -0.6419  1.5724 -1.4618
 6559TIP3   OH241235   3.314   2.629   1.655  0.0942  0.0258 -0.2981
 6559TIP3    H141236   3.372   2.565   1.615 -0.7649  0.0422 -1.6518
 6559TIP3    H241237   3.227   2.605   1.623 -0.7197 -0.2386  1.9769
 6560TIP3   OH241238   0.413   2.166   0.803 -0.1960 -0.4939 -0.9990
 6560TIP3    H141239   0.356   2.191   0.731  2.5379  2.5931 -2.3473
 6560TIP3    H241240   0.479   2.109   0.763  0.2506 -0.3114 -0.5358
 6561TIP3   OH241241   4.107   3.005   0.040 -0.4398 -0.3886  0.2914
 6561TIP3    H141242   4.052   3.071  -0.001 -0.8841 -0.5511  0.6244
 6561TIP3    H241243   4.137   2.950  -0.033  0.2227  0.3815 -0.0352
 6562TIP3   OH241244   4.677   4.126   2.390  0.1407  0.3114  0.2493
 6562TIP3    H141245   4.745   4.192   2.402 -0.4900  1.4106 -1.8433
 6562TIP3    H241246   4.595   4.174   2.398 -0.4333 -0.8208  1.7581
 6563TIP3   OH241247   0.844   6.588   1.686  0.2866 -0.1000  0.4537
 6563TIP3    H141248   0.908   6.659   1.689  1.0335 -0.7365 -0.1165
 6563TIP3    H241249   0.764   6.629   1.653  0.3045  0.7557  1.4149
 6564TIP3   OH241250   6.217   4.771   1.817  0.4005  0.7078 -0.0974
 6564TIP3    H141251   6.277   4.721   1.762 -1.0581  0.1350 -1.2058
 6564TIP3    H241252   6.228   4.733   1.905  1.5295  0.5135 -0.3129
 6565TIP3   OH241253   3.420   2.265   1.902 -0.4416 -0.3202  0.5184
 6565TIP3    H141254   3.343   2.297   1.854 -1.1275 -2.0275  0.4001
 6565TIP3    H241255   3.417   2.311   1.986 -0.6785  0.8058 -0.0797
 6566TIP3   OH241256   3.560   3.818   7.937 -0.7111  0.2567  0.5493
 6566TIP3    H141257   3.596   3.822   8.026 -0.2546 -0.1467  0.3899
 6566TIP3    H241258   3.467   3.834   7.948 -0.8526 -0.8862  1.2408
 6567TIP3   OH241259   4.589   2.226   7.791 -0.1852  0.0361 -0.0561
 6567TIP3    H141260   4.599   2.315   7.758  1.7203  0.4134  1.3404
 6567TIP3    H241261   4.633   2.171   7.727 -1.8119 -0.0245 -1.1901
 6568TIP3   OH241262   0.169   0.962   0.084  0.8444 -0.2988  0.1683
 6568TIP3    H141263   0.258   0.982   0.056  1.1772  0.0996  1.4375
 6568TIP3    H241264   0.178   0.934   0.175 -0.3274 -0.2285  0.3242
 6569TIP3   OH241265   6.717   2.794   1.676 -0.2622  0.2527  0.2649
 6569TIP3    H141266   6.750   2.883   1.672 -1.3426  0.6254 -1.1768
 6569TIP3    H241267   6.626   2.800   1.646 -0.3465 -1.3252  0.0809
 6570TIP3   OH241268   3.589   3.523   3.228  0.3923  0.1190 -0.0193
 6570TIP3    H141269   3.516   3.545   3.170  0.0665 -0.6866  0.0801
 6570TIP3    H241270   3.553   3.528   3.316  0.7445  0.7865  0.0961
 6571TIP3   OH241271   3.297   2.174   1.036 -0.2770 -0.0514 -1.3187
 6571TIP3    H141272   3.350   2.199   0.960  1.0837 -0.4727 -0.5436
 6571TIP3    H241273   3.269   2.257   1.074 -0.5100  0.1697 -1.9657
 6572TIP3   OH241274   6.102   4.370   2.073  0.0309 -0.1370 -0.3376
 6572TIP3    H141275   6.038   4.321   2.125 -0.9912  2.6213  1.2560
 6572TIP3    H241276   6.054   4.400   1.997  0.5443 -1.2163 -1.1094
 6573TIP3   OH241277   4.981   3.118   2.626 -0.2569  0.7207  0.5566
 6573TIP3    H141278   4.973   3.052   2.695  1.9020 -0.6130 -0.3518
 6573TIP3    H241279   4.946   3.198   2.665 -1.9332 -0.6678  2.0992
 6574TIP3   OH241280   6.583   2.336   7.759 -0.1635  0.2153  0.2597
 6574TIP3    H141281   6.627   2.276   7.819 -0.5194 -0.1260  0.1810
 6574TIP3    H241282   6.652   2.397   7.732  0.0982  0.1057  0.6742
 6575TIP3   OH241283   1.362   0.540   8.261  0.3536 -0.1537  0.0646
 6575TIP3    H141284   1.292   0.549   8.196 -0.2054  2.4536  0.9238
 6575TIP3    H241285   1.443   0.541   8.210 -0.1450 -1.5869 -0.8122
 6576TIP3   OH241286   3.276   5.058   1.510 -0.2576 -0.1147  0.0326
 6576TIP3    H141287   3.209   5.075   1.577 -0.0293  2.0443 -0.2075
 6576TIP3    H241288   3.226   5.039   1.431 -0.5287 -1.5820  0.5153
 6577TIP3   OH241289   0.543   0.896   0.338  0.0045  0.0903 -0.5422
 6577TIP3    H141290   0.472   0.915   0.400  0.4017  0.3480 -0.1611
 6577TIP3    H241291   0.623   0.910   0.388  0.3279 -0.9721 -0.7456
 6578TIP3   OH241292   5.040   1.500   1.153  0.5170 -0.5537  0.5266
 6578TIP3    H141293   5.056   1.540   1.238  0.6597  0.1794  0.1667
 6578TIP3    H241294   5.017   1.574   1.096 -3.0435 -1.3614  0.6960
 6579TIP3   OH241295   1.275   0.003   1.986  0.3571 -0.5252  0.4382
 6579TIP3    H141296   1.326  -0.030   2.060 -1.0484  1.6606  2.5182
 6579TIP3    H241297   1.269   0.097   2.001 -0.9142 -0.1551 -1.9066
 6580TIP3   OH241298   6.547   1.279   1.361  0.1218 -0.7686 -0.1878
 6580TIP3    H141299   6.550   1.207   1.424 -0.5343 -1.4165 -0.8824
 6580TIP3    H241300   6.527   1.238   1.278 -0.3833  0.2342 -0.5810
 6581TIP3   OH241301   3.149   3.412   0.570  0.7807 -0.3347  0.0890
 6581TIP3    H141302   3.235   3.375   0.548  1.4361  0.3195  1.4476
 6581TIP3    H241303   3.122   3.362   0.648  0.0527 -0.3496 -0.1748
 6582TIP3   OH241304   3.180   1.503   1.460  0.0762 -0.2775 -0.1850
 6582TIP3    H141305   3.141   1.564   1.397 -0.9843 -0.4865  0.2623
 6582TIP3    H241306   3.265   1.543   1.481  0.2278  0.0485 -1.3622
 6583TIP3   OH241307   6.073   5.335   7.890  0.0857 -0.2578 -0.5749
 6583TIP3    H141308   6.126   5.398   7.842 -1.1487  0.6233 -0.8375
 6583TIP3    H241309   6.012   5.300   7.825 -0.4381 -0.3710 -0.0380
 6584TIP3   OH241310   0.913   1.508   1.077 -0.7942 -0.4153 -0.3302
 6584TIP3    H141311   0.848   1.575   1.100  0.0290  0.3622 -0.2423
 6584TIP3    H241312   0.863   1.426   1.079 -1.4486 -0.0194  1.2342
 6585TIP3   OH241313   2.717   0.576   2.010  0.2391  0.3657  0.1932
 6585TIP3    H141314   2.658   0.651   2.000 -1.3727 -0.7162  1.0337
 6585TIP3    H241315   2.726   0.565   2.105  2.4593  0.9596  0.0912
 6586TIP3   OH241316   5.211   0.060   0.469 -0.0436 -0.6149  0.0301
 6586TIP3    H141317   5.158   0.139   0.468  2.9265  1.5650  1.5693
 6586TIP3    H241318   5.152  -0.009   0.438 -3.5887  1.6322  1.2699
 6587TIP3   OH241319   6.338   3.297   0.204 -0.3563  0.2161 -0.0701
 6587TIP3    H141320   6.270   3.297   0.136 -0.6345  1.2472  0.1885
 6587TIP3    H241321   6.301   3.349   0.275  0.4319  0.2084  0.3583
 6588TIP3   OH241322   6.605   5.957   8.644 -0.2849  0.0854  0.0058
 6588TIP3    H141323   6.640   5.923   8.561 -0.5936 -2.0192  0.6950
 6588TIP3    H241324   6.546   6.028   8.617  1.1495  0.8126 -1.4246
 6589TIP3   OH241325   5.632   5.358   8.551 -0.2569  0.2761  0.0394
 6589TIP3    H141326   5.714   5.392   8.586  0.1205 -0.5178 -0.0373
 6589TIP3    H241327   5.565   5.419   8.581  0.2299  0.3552  0.9947
 6590TIP3   OH241328   1.769   6.725   8.347  0.4006  0.2294  0.0913
 6590TIP3    H141329   1.813   6.646   8.317  0.9361  0.3437  0.5692
 6590TIP3    H241330   1.833   6.795   8.335  0.6962  0.2615  1.6126
 6591TIP3   OH241331   2.754   4.551   1.832 -0.2756  0.2308 -0.6335
 6591TIP3    H141332   2.683   4.616   1.826 -0.6365 -0.2252 -1.6434
 6591TIP3    H241333   2.747   4.516   1.921 -2.4206 -0.9837 -1.1978
 6592TIP3   OH241334   1.760   2.090   7.633 -0.2892 -0.6605 -0.5052
 6592TIP3    H141335   1.710   2.127   7.560  0.2323  0.5433 -0.2684
 6592TIP3    H241336   1.694   2.072   7.700 -0.5140  0.3039 -0.4452
 6593TIP3   OH241337   4.186   4.898   0.213  0.4747  0.0031  0.6391
 6593TIP3    H141338   4.206   4.842   0.289  2.2865  0.2934  0.4307
 6593TIP3    H241339   4.240   4.976   0.227 -2.3342  1.9847  1.1587
 6594TIP3   OH241340   0.761   0.872   1.710  0.0036  0.0718  0.2109
 6594TIP3    H141341   0.852   0.858   1.685 -0.1652 -1.2341  0.2344
 6594TIP3    H241342   0.746   0.811   1.782 -0.5651  1.1366  1.0328
 6595TIP3   OH241343   3.648   1.356   8.249  0.6566  0.2294 -0.1773
 6595TIP3    H141344   3.554   1.351   8.233  0.7231 -0.9374 -0.2850
 6595TIP3    H241345   3.656   1.398   8.335  0.0552  0.4855 -0.2449
 6596TIP3   OH241346   5.484   2.209   0.119 -0.0484 -0.1981 -0.0522
 6596TIP3    H141347   5.438   2.261   0.185 -1.8031 -1.2263 -0.3967
 6596TIP3    H241348   5.477   2.119   0.151 -1.0676 -0.7310 -1.6740
 6597TIP3   OH241349   5.550   5.539   2.489  0.2551 -0.5654 -0.3334
 6597TIP3    H141350   5.564   5.467   2.551 -1.3465  0.1908  0.9973
 6597TIP3    H241351   5.605   5.610   2.522  0.2513 -0.5244 -0.4163
 6598TIP3   OH241352   0.319   0.719   0.881  0.6847 -0.1088 -0.6513
 6598TIP3    H141353   0.389   0.657   0.862 -0.0415 -0.9646 -0.5654
 6598TIP3    H241354   0.264   0.718   0.803  0.2287 -0.1768 -0.3333
 6599TIP3   OH241355   1.512   4.027   8.226  0.3016 -0.6459 -0.0118
 6599TIP3    H141356   1.576   3.966   8.188  1.5966 -0.0842  1.1783
 6599TIP3    H241357   1.442   3.971   8.259  1.4074 -1.5176  0.9603
 6600TIP3   OH241358   0.211   5.177   7.982  0.3426 -0.4598  0.1522
 6600TIP3    H141359   0.214   5.259   7.933  1.6970 -0.0367  0.8817
 6600TIP3    H241360   0.268   5.118   7.932  1.3644 -0.1639  0.9232
 6601TIP3   OH241361   0.326   1.739   0.056  0.5201 -0.6261  0.1022
 6601TIP3    H141362   0.390   1.794   0.101  0.4781  0.7379 -1.4346
 6601TIP3    H241363   0.375   1.661   0.030  1.0316 -0.5210  0.7445
 6602TIP3   OH241364   6.432   4.375   1.830 -0.1576 -0.1404  0.1801
 6602TIP3    H141365   6.460   4.307   1.768 -0.3303  0.8932 -1.0713
 6602TIP3    H241366   6.460   4.457   1.790  2.4576  0.4619  2.9323
 6603TIP3   OH241367   0.182   4.966   0.014 -0.4092  0.0952 -0.2832
 6603TIP3    H141368   0.107   5.004  -0.033 -1.5510 -0.2780  1.1690
 6603TIP3    H241369   0.223   5.040   0.058 -0.4058  0.1762 -0.4212
 6604TIP3   OH241370   5.084   0.222   0.772  0.3167  0.1505 -0.2068
 6604TIP3    H141371   5.162   0.238   0.719 -0.0147  1.8789 -0.2334
 6604TIP3    H241372   5.085   0.291   0.838 -0.7126 -0.3628  0.3770
 6605TIP3   OH241373   6.262   3.248   3.079  0.2289  0.2220 -0.0012
 6605TIP3    H141374   6.345   3.242   3.033  1.0160 -0.4014  1.4143
 6605TIP3    H241375   6.233   3.157   3.090 -0.2517  0.3877  0.1805
 6606TIP3   OH241376   1.560   4.224   2.477  0.2590  0.5251 -0.3538
 6606TIP3    H141377   1.507   4.248   2.553 -0.2631 -1.9024  0.1398
 6606TIP3    H241378   1.641   4.274   2.487 -0.6207  1.8062  0.6641
 6607TIP3   OH241379   3.608   6.004   8.009  0.2802 -0.9715  0.3274
 6607TIP3    H141380   3.550   6.079   7.995  0.1561 -1.1748 -0.2850
 6607TIP3    H241381   3.694   6.035   7.983  0.0486 -1.3512 -0.9860
 6608TIP3   OH241382   6.080   4.438   1.244 -0.5740 -0.4049  0.4275
 6608TIP3    H141383   6.166   4.444   1.286 -0.2577  0.5870 -0.3403
 6608TIP3    H241384   6.092   4.371   1.176 -0.3245 -0.0676  0.1358
 6609TIP3   OH241385   2.496   1.019   0.460 -0.2208 -0.6533 -0.3762
 6609TIP3    H141386   2.538   1.007   0.546  0.2944  0.9121 -0.3819
 6609TIP3    H241387   2.454   1.105   0.466  0.6556 -0.0877 -2.0336
 6610TIP3   OH241388   6.038   1.183   2.316  0.6363  0.0929 -0.5740
 6610TIP3    H141389   6.035   1.108   2.375  3.1542 -0.2103 -0.7348
 6610TIP3    H241390   6.116   1.232   2.343 -0.9810  2.7844 -0.3860
 6611TIP3   OH241391   3.677   3.003   7.735  0.3295 -0.3640  0.0567
 6611TIP3    H141392   3.620   2.951   7.677 -0.6150  0.1726  0.4807
 6611TIP3    H241393   3.662   3.093   7.709  1.1406 -0.2214  0.0592
 6612TIP3   OH241394   5.742   5.090   7.830  0.4644  0.1459 -0.1439
 6612TIP3    H141395   5.837   5.095   7.824  0.5154 -0.7821 -0.3268
 6612TIP3    H241396   5.713   5.069   7.741  0.2439 -1.3122  0.2352
 6613TIP3   OH241397   3.888   2.246   2.912  0.4760  0.3246  0.2216
 6613TIP3    H141398   3.877   2.329   2.958 -0.7323  0.3322 -0.0260
 6613TIP3    H241399   3.953   2.264   2.844 -2.0813  2.1047 -2.0169
 6614TIP3   OH241400   1.630   0.287   7.619 -0.0746 -0.3214 -0.5828
 6614TIP3    H141401   1.620   0.379   7.643  2.0517  0.4842 -2.4569
 6614TIP3    H241402   1.711   0.284   7.569 -0.2060 -3.2039 -0.7593
 6615TIP3   OH241403   1.473   4.752   8.482  0.5795  1.0261 -0.1608
 6615TIP3    H141404   1.568   4.752   8.470  0.7573  1.6341  1.1463
 6615TIP3    H241405   1.439   4.793   8.402  1.5840  3.0566  0.3933
 6616TIP3   OH241406   5.505   5.640   0.577  0.3437 -0.3946 -0.0951
 6616TIP3    H141407   5.542   5.621   0.491 -1.4095 -0.2896 -0.9002
 6616TIP3    H241408   5.479   5.732   0.572  0.0111 -0.4561  0.4708
 6617TIP3   OH241409   1.229   1.484   0.780  0.3385 -0.2052  0.0670
 6617TIP3    H141410   1.272   1.554   0.829  0.6933  0.4179 -1.0944
 6617TIP3    H241411   1.281   1.407   0.797  0.7121  0.1034  0.3285
 6618TIP3   OH241412   3.943   4.483   7.401 -0.6548  0.0089 -0.3963
 6618TIP3    H141413   3.934   4.578   7.412 -0.4030  0.2304 -1.9331
 6618TIP3    H241414   3.936   4.469   7.307 -0.0607 -1.4390 -0.2466
 6619TIP3   OH241415   2.777   6.712   8.689  0.0949  0.4635  0.4785
 6619TIP3    H141416   2.732   6.701   8.773  1.3811 -0.7549  1.0568
 6619TIP3    H241417   2.719   6.670   8.625  0.9572 -2.4387  1.4248
 6620TIP3   OH241418   3.468   6.400   7.684  0.5548 -0.5660  0.1316
 6620TIP3    H141419   3.531   6.359   7.743  1.8921 -0.5222 -1.2154
 6620TIP3    H241420   3.475   6.351   7.603 -1.5297 -0.8712  0.0691
 6621TIP3   OH241421   6.061   0.558   2.821 -0.0561  0.4448  0.5451
 6621TIP3    H141422   6.131   0.499   2.849 -1.2792 -2.5398 -2.1168
 6621TIP3    H241423   6.094   0.599   2.742 -0.5628  0.5751  0.3994
 6622TIP3   OH241424   1.998   0.958   1.042  0.8341 -0.3434 -0.5479
 6622TIP3    H141425   1.903   0.965   1.055  1.0139  1.4588  0.0322
 6622TIP3    H241426   2.036   1.012   1.111  2.3827 -2.4416  0.3502
 6623TIP3   OH241427   3.505   0.305   8.048  0.0584 -0.1902 -0.0224
 6623TIP3    H141428   3.581   0.253   8.074  1.2830 -0.0952 -2.9421
 6623TIP3    H241429   3.448   0.305   8.124  1.9652 -2.1760  1.5316
 6624TIP3   OH241430   4.864   3.406   7.502 -0.1931 -0.2764  0.1862
 6624TIP3    H141431   4.772   3.431   7.513 -0.2706 -1.5079  4.1002
 6624TIP3    H241432   4.861   3.316   7.469 -0.3612 -0.0072 -0.5336
 6625TIP3   OH241433   2.881   1.358   0.687  0.1984  0.4889  0.8292
 6625TIP3    H141434   2.907   1.432   0.742 -0.6763 -0.5310  2.7374
 6625TIP3    H241435   2.786   1.363   0.684  0.2333  0.6484 -0.8577
 6626TIP3   OH241436   5.879   5.883   8.372  0.2115  0.2429  0.0113
 6626TIP3    H141437   5.972   5.872   8.354  0.1298 -1.6577  0.5211
 6626TIP3    H241438   5.837   5.815   8.318 -0.7206 -0.0506  1.0798
 6627TIP3   OH241439   3.549   0.877   7.899 -0.0790  0.8442 -1.1617
 6627TIP3    H141440   3.586   0.791   7.918 -0.6744  0.9218  0.5431
 6627TIP3    H241441   3.564   0.890   7.805 -1.2523 -1.7342 -1.7884
 6628TIP3   OH241442   1.095   0.906   0.977  0.7244  0.2496  0.3264
 6628TIP3    H141443   1.145   0.837   0.933  0.2357 -0.8456  1.4362
 6628TIP3    H241444   1.162   0.964   1.013  1.1378  0.4234 -0.6669
 6629TIP3   OH241445   0.922   4.751   1.341  0.9167  0.5097 -0.4203
 6629TIP3    H141446   0.959   4.810   1.407 -0.5586 -1.2772  2.1577
 6629TIP3    H241447   0.990   4.685   1.327  1.3666  1.0805 -0.9818
 6630TIP3   OH241448   6.576   5.732   0.406 -0.0217 -0.4514  0.7320
 6630TIP3    H141449   6.488   5.696   0.393 -0.7584  1.8739 -1.3199
 6630TIP3    H241450   6.592   5.723   0.500 -2.6919 -0.4260  1.2571
 6631TIP3   OH241451   0.120   0.592   0.207 -0.5966  0.0679  0.7989
 6631TIP3    H141452   0.162   0.582   0.121 -0.5860 -2.4033  1.0210
 6631TIP3    H241453   0.027   0.600   0.187 -0.4908  0.6459  0.5191
 6632TIP3   OH241454   5.549   6.741   2.509 -0.0069  0.1016 -0.6360
 6632TIP3    H141455   5.642   6.750   2.532  0.3571 -2.3260 -0.8412
 6632TIP3    H241456   5.527   6.823   2.465  0.8411  2.5143  3.0190
 6633TIP3   OH241457   4.585   6.150   0.719 -0.2154  0.4429 -0.3455
 6633TIP3    H141458   4.566   6.096   0.643 -1.6052 -0.9797  0.9326
 6633TIP3    H241459   4.650   6.100   0.769  1.6609  1.9577 -1.1641
 6634TIP3   OH241460   1.524   2.212   2.195 -0.2194 -0.0779  0.1282
 6634TIP3    H141461   1.615   2.190   2.172 -0.7229 -0.7507 -1.3344
 6634TIP3    H241462   1.477   2.206   2.112 -1.9940 -1.6858  1.2012
 6635TIP3   OH241463   6.626   1.854   0.810 -0.1736 -0.2062 -0.2277
 6635TIP3    H141464   6.539   1.878   0.780 -0.6568  1.7244  2.3206
 6635TIP3    H241465   6.686   1.906   0.756 -0.8648  1.3033  0.3935
 6636TIP3   OH241466   1.341   3.970   1.855 -0.0399  0.0069 -0.5645
 6636TIP3    H141467   1.270   4.010   1.904  0.8923  0.9132  0.1061
 6636TIP3    H241468   1.421   4.008   1.893  0.7560 -0.0571 -2.0726
 6637TIP3   OH241469   6.418   2.133   1.668 -0.0104  0.8844 -0.2884
 6637TIP3    H141470   6.389   2.144   1.578 -1.6737 -1.7194 -0.1886
 6637TIP3    H241471   6.358   2.068   1.705  1.6011  0.6663  2.2198
 6638TIP3   OH241472   3.242   3.866   2.772  0.4899 -0.4061  0.3482
 6638TIP3    H141473   3.209   3.955   2.778  1.3246 -0.0801  0.3146
 6638TIP3    H241474   3.218   3.825   2.855  0.2821 -0.0898  0.4443
 6639TIP3   OH241475   3.847   2.709   7.939  0.4992  0.1424 -0.1385
 6639TIP3    H141476   3.859   2.781   7.878 -2.5982 -0.1243 -1.2554
 6639TIP3    H241477   3.858   2.630   7.886 -1.7634 -0.0943 -0.3418
 6640TIP3   OH241478   3.336   2.486   3.502  0.0064 -0.1656  0.5501
 6640TIP3    H141479   3.366   2.398   3.480 -2.3879 -0.7938 -0.5756
 6640TIP3    H241480   3.373   2.542   3.433  2.8016  0.0617  2.1135
 6641TIP3   OH241481   1.885   2.255   7.340  0.0912 -0.5324  0.4393
 6641TIP3    H141482   1.968   2.260   7.387 -0.9276  2.2284  2.1883
 6641TIP3    H241483   1.901   2.305   7.259  0.5153 -1.3004  0.0331
 6642TIP3   OH241484   3.268   4.700   3.256 -0.0827  0.0712  0.6456
 6642TIP3    H141485   3.203   4.711   3.187  0.1160  1.8625  0.6859
 6642TIP3    H241486   3.306   4.614   3.240 -2.1102 -0.8293  0.3468
 6643TIP3   OH241487   2.846   5.162   2.492  0.2652 -0.2587  0.5408
 6643TIP3    H141488   2.868   5.239   2.439  1.2821 -0.2045  1.0172
 6643TIP3    H241489   2.930   5.130   2.523  0.0023 -2.3449 -0.6906
 6644TIP3   OH241490   4.702   0.118   3.328 -0.1658  0.4622 -0.7444
 6644TIP3    H141491   4.718   0.049   3.392  0.0324  0.4687 -0.7876
 6644TIP3    H241492   4.748   0.090   3.250  0.8258  1.1600 -0.4273
 6645TIP3   OH241493   0.008   4.258   7.378 -0.0846  0.5434  0.0128
 6645TIP3    H141494   0.001   4.175   7.332 -0.5019  0.7840 -0.3647
 6645TIP3    H241495   0.010   4.235   7.470  0.9033  0.0435 -0.1201
 6646TIP3   OH241496   5.454   1.714   0.576 -0.1436 -0.1120 -0.2009
 6646TIP3    H141497   5.524   1.778   0.591  0.5925 -1.3307  2.2188
 6646TIP3    H241498   5.424   1.731   0.487  1.3891  2.2303 -0.3583
 6647TIP3   OH241499   0.643   4.389   1.938  0.2730 -0.0627  0.0787
 6647TIP3    H141500   0.663   4.325   1.869  1.1037  0.3459 -0.0728
 6647TIP3    H241501   0.561   4.429   1.910 -0.5207 -1.4024  0.4277
 6648TIP3   OH241502   3.415   3.455   1.478  0.5004 -0.3577  0.7034
 6648TIP3    H141503   3.449   3.435   1.391  1.1462  0.1670  0.8244
 6648TIP3    H241504   3.489   3.496   1.523  0.0656 -0.3137  1.3851
 6649TIP3   OH241505   3.735   3.781   0.962  0.1220  0.3373  0.1002
 6649TIP3    H141506   3.791   3.834   1.019 -0.3408  0.6776  0.2543
 6649TIP3    H241507   3.795   3.732   0.907  0.6011 -0.5667  1.3855
 6650TIP3   OH241508   2.873   1.458   1.839  0.2553 -0.0295  0.3450
 6650TIP3    H141509   2.787   1.464   1.796  1.0053 -2.0213 -1.6139
 6650TIP3    H241510   2.935   1.488   1.773  1.1537  0.9318  1.5775
 6651TIP3   OH241511   0.291   0.242   8.732  0.4468  0.0774 -0.5197
 6651TIP3    H141512   0.330   0.178   8.672  1.0162  0.1246 -0.2050
 6651TIP3    H241513   0.204   0.259   8.696  0.5699 -0.3245 -1.0126
 6652TIP3   OH241514   6.580   5.065   0.722 -0.0761  0.6128 -0.3241
 6652TIP3    H141515   6.661   5.070   0.772 -0.4473 -0.4074  0.4229
 6652TIP3    H241516   6.534   4.990   0.759 -2.2191  2.2500  0.5204
 6653TIP3   OH241517   0.359   4.492   1.929 -0.0690 -0.0369  0.0171
 6653TIP3    H141518   0.339   4.451   2.013 -0.7748  1.0730  0.4049
 6653TIP3    H241519   0.331   4.427   1.864  0.9603 -1.1227  0.6147
 6654TIP3   OH241520   5.409   3.427   3.196  0.4654 -0.0278 -0.3965
 6654TIP3    H141521   5.378   3.517   3.189 -0.3201  0.0571  2.7935
 6654TIP3    H241522   5.500   3.435   3.225  0.1435 -0.2237  0.7027
 6655TIP3   OH241523   1.969   4.415   1.383  0.4598  0.0008  0.0634
 6655TIP3    H141524   2.026   4.351   1.339  1.6525  0.3003  1.1046
 6655TIP3    H241525   2.008   4.425   1.470 -1.3697  0.0144  0.9275
 6656TIP3   OH241526   4.528   1.913   8.241 -0.3106 -0.3509 -0.0389
 6656TIP3    H141527   4.590   1.880   8.305  0.2644  0.4556 -0.1771
 6656TIP3    H241528   4.540   1.856   8.165 -0.8529 -1.1779  0.4754
 6657TIP3   OH241529   3.817   3.017   7.983 -0.2585  0.3493 -0.0292
 6657TIP3    H141530   3.735   3.010   7.934  0.1182  1.0177 -0.7876
 6657TIP3    H241531   3.790   3.038   8.072 -0.8970  4.2276 -0.9382
 6658TIP3   OH241532   4.092   5.829   8.056 -0.3464 -0.0346 -0.1615
 6658TIP3    H141533   4.068   5.868   8.140 -0.0093 -0.4501  0.1283
 6658TIP3    H241534   4.009   5.824   8.008 -0.3050  1.5476 -0.4250
 6659TIP3   OH241535   4.701   6.115   8.733 -0.4123  0.8017  0.2297
 6659TIP3    H141536   4.773   6.177   8.719  0.0092  0.2780  0.0380
 6659TIP3    H241537   4.740   6.043   8.783 -0.8990  0.6926  0.4630
 6660TIP3   OH241538   4.505   5.459   7.713 -0.4351  0.2653  0.1585
 6660TIP3    H141539   4.582   5.434   7.763 -1.4069 -1.0332  1.0625
 6660TIP3    H241540   4.514   5.414   7.629  0.2624  0.9222 -0.1294
 6661TIP3   OH241541   0.174   1.825   2.324  0.3570  0.4265 -0.5366
 6661TIP3    H141542   0.247   1.848   2.382 -0.7793  0.1739  1.0788
 6661TIP3    H241543   0.116   1.900   2.326 -2.3111 -1.4087  3.0608
 6662TIP3   OH241544   4.766   2.942   8.266  0.2926  0.2570  0.3284
 6662TIP3    H141545   4.752   2.944   8.361 -2.8536  2.9946 -0.0401
 6662TIP3    H241546   4.679   2.927   8.229  1.4650 -0.8580 -2.2060
 6663TIP3   OH241547   1.681   5.793   1.143  0.3185 -0.7837  0.6108
 6663TIP3    H141548   1.723   5.755   1.066  0.7796 -0.4032  0.6695
 6663TIP3    H241549   1.702   5.886   1.138 -0.8833 -0.5044  0.4028
 6664TIP3   OH241550   0.019   3.251   1.154 -0.6112 -0.1590  0.1392
 6664TIP3    H141551   0.085   3.256   1.085 -0.2788  0.8974  0.5141
 6664TIP3    H241552  -0.039   3.180   1.126  0.2887 -0.6501 -0.5363
 6665TIP3   OH241553   2.953   4.722   7.463 -0.0488 -0.5041  0.6252
 6665TIP3    H141554   3.045   4.698   7.450  0.7620  1.9111  1.3575
 6665TIP3    H241555   2.956   4.810   7.500 -2.7068  0.0998 -0.3633
 6666TIP3   OH241556   4.874   2.614   2.317 -0.2524 -0.3885 -0.0182
 6666TIP3    H141557   4.939   2.546   2.296 -0.5560 -0.3301 -1.2166
 6666TIP3    H241558   4.908   2.656   2.396  1.7083  0.2956 -1.1587
 6667TIP3   OH241559   5.309   5.695   1.226  0.5430 -0.5970  0.6000
 6667TIP3    H141560   5.402   5.703   1.249  0.4961 -1.1313  0.9980
 6667TIP3    H241561   5.284   5.782   1.195  0.4242  0.3741  3.2254
 6668TIP3   OH241562   0.561   6.222   7.999 -0.1778  0.5380 -0.1450
 6668TIP3    H141563   0.578   6.130   8.019 -0.8750  0.4498  0.0685
 6668TIP3    H241564   0.536   6.222   7.906 -0.6260  0.4495 -0.0257
 6669TIP3   OH241565   0.857   0.963   3.398  0.0567 -0.3373 -0.5706
 6669TIP3    H141566   0.844   0.879   3.354  0.9334 -0.0283 -1.4788
 6669TIP3    H241567   0.839   1.028   3.330 -1.1057  0.2436  0.2544
 6670TIP3   OH241568   5.838   4.503   0.294  0.2417  0.5695 -0.1503
 6670TIP3    H141569   5.810   4.553   0.370  1.5792  1.8532 -0.4487
 6670TIP3    H241570   5.926   4.536   0.275 -0.3123  0.8130 -2.6942
 6671TIP3   OH241571   4.295   2.651   7.961 -0.4514 -0.4022 -0.1943
 6671TIP3    H141572   4.359   2.706   7.916  1.0063 -1.4213  0.5524
 6671TIP3    H241573   4.220   2.709   7.976  0.6437  1.0968 -0.2799
 6672TIP3   OH241574   3.648   4.200   2.740 -0.0287  0.1749 -0.4307
 6672TIP3    H141575   3.696   4.157   2.811 -1.3870 -1.1884 -0.2836
 6672TIP3    H241576   3.652   4.137   2.668 -2.1991 -0.3728 -0.1539
 6673TIP3   OH241577   5.673   4.605   2.493  0.3628 -0.1639  0.1212
 6673TIP3    H141578   5.662   4.583   2.585 -0.9795 -1.4894 -0.3199
 6673TIP3    H241579   5.723   4.686   2.494  0.8032 -0.4022  1.9940
 6674TIP3   OH241580   0.231   1.664   8.561  0.0839 -0.2360 -0.4962
 6674TIP3    H141581   0.250   1.734   8.623  1.1309  0.6176 -1.7330
 6674TIP3    H241582   0.254   1.584   8.608 -0.7952  0.2507  0.8102
 6675TIP3   OH241583   4.458   6.312   1.002 -0.1553 -0.0666  0.6676
 6675TIP3    H141584   4.390   6.269   1.054 -2.4806  2.2236 -0.2581
 6675TIP3    H241585   4.464   6.260   0.922 -0.0192 -0.8909  1.2013
 6676TIP3   OH241586   3.883   4.144   2.281  0.2979  0.2511 -0.0538
 6676TIP3    H141587   3.969   4.174   2.311  0.4007 -0.8455  0.7838
 6676TIP3    H241588   3.822   4.175   2.348  0.1304  0.3590 -0.2543
 6677TIP3   OH241589   5.371   6.798   2.886  0.1019 -0.7988 -0.6193
 6677TIP3    H141590   5.296   6.809   2.944 -0.4103 -0.1715 -1.3761
 6677TIP3    H241591   5.357   6.712   2.845 -0.0067 -0.8445 -0.4881
 6678TIP3   OH241592   3.594   2.058   7.516  0.1323 -0.0297  0.1420
 6678TIP3    H141593   3.608   2.150   7.539  0.5377 -0.2952  0.9980
 6678TIP3    H241594   3.596   2.012   7.600 -2.3596 -0.5630 -0.0057
 6679TIP3   OH241595   5.560   5.907   8.441 -0.0083  0.1733 -1.0204
 6679TIP3    H141596   5.530   5.907   8.532 -0.1177  3.0682 -0.9890
 6679TIP3    H241597   5.655   5.890   8.447 -0.4642 -2.9454 -0.7093
 6680TIP3   OH241598   3.510   4.571   2.562 -0.2569 -0.1024  0.1731
 6680TIP3    H141599   3.417   4.588   2.543 -0.6264 -1.1874  0.8673
 6680TIP3    H241600   3.548   4.658   2.574 -1.2195  0.3611  0.0114
 6681TIP3   OH241601   0.009   6.253   1.865 -0.3584 -0.5131  0.3413
 6681TIP3    H141602   0.039   6.254   1.956  1.1008 -0.6243 -0.1236
 6681TIP3    H241603   0.083   6.219   1.815 -0.5909  0.9778 -1.0985
 6682TIP3   OH241604   3.989   3.995   2.082 -0.0009 -0.5191 -0.0347
 6682TIP3    H141605   3.951   4.040   2.157  1.1385  1.0502 -0.3612
 6682TIP3    H241606   3.923   4.004   2.013 -0.4949 -0.8434  0.3882
 6683TIP3   OH241607   5.746   0.160   7.609  0.1786  0.0013 -0.5281
 6683TIP3    H141608   5.824   0.206   7.575  1.3673 -2.0109 -0.6907
 6683TIP3    H241609   5.674   0.221   7.593  1.4313  1.1605 -2.1618
 6684TIP3   OH241610   5.900   1.361   2.156  0.4939 -0.0593  0.1726
 6684TIP3    H141611   5.960   1.301   2.199  1.3094 -0.1475 -1.0330
 6684TIP3    H241612   5.880   1.319   2.072  1.1551  1.3543 -0.7390
 6685TIP3   OH241613   5.546   1.061   0.996 -0.1486  1.4225  0.4771
 6685TIP3    H141614   5.462   1.024   1.025  2.2527 -3.6513  2.0779
 6685TIP3    H241615   5.553   1.036   0.904 -0.6235  2.5344  0.1193
 6686TIP3   OH241616   1.709   2.375   0.549 -0.0634  0.2288 -0.1386
 6686TIP3    H141617   1.657   2.425   0.612  1.3690  0.6072  0.7983
 6686TIP3    H241618   1.789   2.427   0.537  0.5821 -0.8564 -0.6907
 6687TIP3   OH241619   0.078   1.214   0.027  0.2836  0.2113 -0.3950
 6687TIP3    H141620   0.004   1.233   0.084 -1.4852 -1.4882 -1.9541
 6687TIP3    H241621   0.115   1.133   0.060  1.7351  1.2070  0.5620
 6688TIP3   OH241622   5.986   0.066   3.334 -0.0490 -0.6105  0.4865
 6688TIP3    H141623   6.076   0.062   3.366  0.2878  0.0022 -0.3576
 6688TIP3    H241624   5.989   0.026   3.247 -0.6845 -1.0176  0.6475
 6689TIP3   OH241625   2.443   1.407   2.708 -0.3198  0.3088  0.0508
 6689TIP3    H141626   2.418   1.447   2.791  2.0252  0.5987  0.7088
 6689TIP3    H241627   2.418   1.471   2.642 -2.6026 -0.1087  0.4288
 6690TIP3   OH241628   0.175   6.833   2.800  0.0489  0.0164  0.1918
 6690TIP3    H141629   0.194   6.748   2.759 -2.3914 -0.0393 -1.0188
 6690TIP3    H241630   0.249   6.848   2.859  2.4208 -1.1740 -2.2556
 6691TIP3   OH241631   1.671   1.320   8.620 -0.0618  0.0058  0.2387
 6691TIP3    H141632   1.706   1.248   8.566 -0.1391 -0.4370  0.7660
 6691TIP3    H241633   1.601   1.279   8.671 -0.4089  0.5661  0.2162
 6692TIP3   OH241634   0.149   6.268   7.856 -0.3821 -0.4944  0.1033
 6692TIP3    H141635   0.204   6.210   7.804 -0.6989  0.3324 -1.2295
 6692TIP3    H241636   0.188   6.355   7.845 -1.0821 -0.1360  0.3569
 6693TIP3   OH241637   0.694   3.257   1.542 -0.4658 -0.1356 -0.4912
 6693TIP3    H141638   0.750   3.249   1.620  0.1425  0.0981 -0.8970
 6693TIP3    H241639   0.690   3.168   1.506 -0.3543 -0.1498 -0.4678
 6694TIP3   OH241640   3.027   0.437   0.379 -0.0840  0.3920  0.4543
 6694TIP3    H141641   3.062   0.511   0.329  0.2278 -0.0365  0.0242
 6694TIP3    H241642   3.089   0.426   0.451  0.2142  0.1709  0.1714
 6695TIP3   OH241643   0.767   2.022   1.535  0.0089  0.3060  0.4143
 6695TIP3    H141644   0.850   2.066   1.516  0.4001 -0.1231  1.1159
 6695TIP3    H241645   0.702   2.093   1.535  0.2180  0.5281 -1.0062
 6696TIP3   OH241646   0.485   3.893   0.602 -0.9356 -0.3099  0.0061
 6696TIP3    H141647   0.481   3.879   0.697 -1.6777 -0.4607 -0.0413
 6696TIP3    H241648   0.506   3.807   0.566  0.3524 -0.0536  0.0837
 6697TIP3   OH241649   4.930   0.013   7.638 -0.1526 -0.7709 -0.8514
 6697TIP3    H141650   4.980   0.080   7.592 -0.3447  0.6933  0.9535
 6697TIP3    H241651   4.839   0.034   7.620 -0.2542  0.2406  0.6856
 6698TIP3   OH241652   3.432   1.346   2.336 -0.4950 -0.2963  0.3934
 6698TIP3    H141653   3.500   1.352   2.403 -0.6615  2.1675  0.4543
 6698TIP3    H241654   3.439   1.258   2.301  0.5277 -1.1904  2.6844
 6699TIP3   OH241655   4.311   5.124   0.306 -0.3107  0.5166  0.3247
 6699TIP3    H141656   4.278   5.166   0.386 -0.2030 -0.9623  1.1866
 6699TIP3    H241657   4.379   5.064   0.338 -0.5426 -0.3890 -0.8325
 6700TIP3   OH241658   4.194   0.644   8.644  0.2335  0.5470 -0.3849
 6700TIP3    H141659   4.198   0.739   8.648  1.5601  0.4818  0.5605
 6700TIP3    H241660   4.235   0.615   8.725 -1.8244 -0.8286  0.2513
 6701TIP3   OH241661   2.697   1.761   1.172 -0.8807 -0.2940 -0.7011
 6701TIP3    H141662   2.621   1.717   1.210 -1.1255  0.1048 -0.7236
 6701TIP3    H241663   2.695   1.848   1.210  0.1961 -0.6235  0.1374
 6702TIP3   OH241664   1.868   3.593   7.608  0.2582  0.7555  0.5496
 6702TIP3    H141665   1.928   3.665   7.589 -0.7170  1.9520  1.7904
 6702TIP3    H241666   1.902   3.554   7.689  1.3574 -0.8839 -0.6317
 6703TIP3   OH241667   1.335   0.703   2.757  0.3146  0.4331 -0.0643
 6703TIP3    H141668   1.327   0.791   2.722  0.8923  0.4514 -0.1475
 6703TIP3    H241669   1.258   0.657   2.724  0.5817  0.5969 -0.9288
 6704TIP3   OH241670   2.232   6.196   1.236  0.1490 -0.4217  0.3517
 6704TIP3    H141671   2.229   6.266   1.301  0.3350 -1.3576  1.4099
 6704TIP3    H241672   2.324   6.192   1.210  0.2133 -0.5169  0.5862
 6705TIP3   OH241673   4.985   0.677   1.322  0.0026 -0.6511  0.2654
 6705TIP3    H141674   5.004   0.765   1.287 -1.2508 -0.3793  0.2272
 6705TIP3    H241675   4.928   0.693   1.397  1.7729 -1.3085  1.8496
 6706TIP3   OH241676   4.087   3.250   1.295 -0.3379  0.3195 -0.3677
 6706TIP3    H141677   4.020   3.293   1.348  0.6382  0.7416  0.5567
 6706TIP3    H241678   4.086   3.297   1.211 -0.0533  1.4377  0.2401
 6707TIP3   OH241679   0.543   5.490   0.645  0.0016 -0.1479 -0.2559
 6707TIP3    H141680   0.506   5.498   0.732  0.1494  1.3478 -0.3168
 6707TIP3    H241681   0.493   5.418   0.605 -2.4120  1.3405 -0.1160
 6708TIP3   OH241682   0.855   3.636   0.960  0.6641 -0.0634 -0.1695
 6708TIP3    H141683   0.784   3.638   0.896  0.5164 -1.4725 -0.0724
 6708TIP3    H241684   0.811   3.624   1.044  0.9582  0.0873  0.0070
 6709TIP3   OH241685   5.717   0.332   1.865 -0.0698  0.4821 -0.3809
 6709TIP3    H141686   5.728   0.405   1.927  1.3316  0.2408 -0.3184
 6709TIP3    H241687   5.737   0.254   1.916 -0.5800  0.1258 -0.7165
 6710TIP3   OH241688   0.455   0.307   1.631  0.1812 -0.3152  0.3773
 6710TIP3    H141689   0.497   0.387   1.598  1.0002 -1.3367 -1.1942
 6710TIP3    H241690   0.373   0.338   1.671 -0.1273  1.2109 -1.2807
 6711TIP3   OH241691   1.797   1.741   1.439 -0.1422 -0.3164  0.2307
 6711TIP3    H141692   1.842   1.787   1.510 -0.9918  0.5653  0.2208
 6711TIP3    H241693   1.768   1.659   1.478  0.4348 -0.3681  0.5601
 6712TIP3   OH241694   1.741   2.907   0.688 -0.4121 -0.1280 -0.2012
 6712TIP3    H141695   1.645   2.903   0.692 -0.4037  0.1881  0.3762
 6712TIP3    H241696   1.762   3.000   0.695 -0.0197 -0.2863  0.9001
 6713TIP3   OH241697   0.578   5.152   0.045  0.2244 -0.2745 -0.0353
 6713TIP3    H141698   0.538   5.100   0.114  0.5979 -1.2774 -0.5639
 6713TIP3    H241699   0.534   5.237   0.051 -0.4838 -0.6807  0.7502
 6714TIP3   OH241700   1.019   6.725   1.021  0.1905  0.2213  0.2650
 6714TIP3    H141701   1.010   6.816   1.048 -0.3050  0.3511 -0.3366
 6714TIP3    H241702   0.958   6.714   0.949 -2.1923 -1.4006  2.3318
 6715TIP3   OH241703   4.737   6.328   7.306  1.0755  0.2548 -0.0019
 6715TIP3    H141704   4.763   6.414   7.272  1.7129 -0.0861 -0.3975
 6715TIP3    H241705   4.661   6.304   7.254  0.7698  0.6663  0.2461
 6716TIP3   OH241706   0.234   3.027   8.596 -0.1810 -0.8444 -0.6541
 6716TIP3    H141707   0.270   3.045   8.509  1.7050  1.0993  0.4255
 6716TIP3    H241708   0.311   3.014   8.652 -1.2950 -0.8707  0.9489
 6717TIP3   OH241709   3.801   6.439   1.146  0.1507  0.4450  0.2328
 6717TIP3    H141710   3.814   6.507   1.213 -1.2053  3.3498 -2.2000
 6717TIP3    H241711   3.888   6.401   1.133  1.1933  2.3950  1.0583
 6718TIP3   OH241712   5.766   2.589   2.022 -0.3477  0.4324 -0.0451
 6718TIP3    H141713   5.694   2.541   1.982 -1.5293  1.2058  1.0852
 6718TIP3    H241714   5.844   2.537   2.001 -1.3617 -1.0655 -0.2692
 6719TIP3   OH241715   6.558   4.174   2.479 -0.2309 -0.3046 -0.4903
 6719TIP3    H141716   6.479   4.215   2.443 -0.2941  0.8132  0.8447
 6719TIP3    H241717   6.624   4.244   2.478  0.3935 -0.8782 -0.4422
 6720TIP3   OH241718   0.737   4.476   1.006 -0.0017 -0.0493 -0.2846
 6720TIP3    H141719   0.649   4.513   1.019  0.9142  1.5877  1.7898
 6720TIP3    H241720   0.789   4.549   0.973  1.0198 -0.4653  0.3646
 6721TIP3   OH241721   5.649   3.341   2.080 -0.5057  0.0173  0.2832
 6721TIP3    H141722   5.609   3.393   2.150 -3.1696 -2.3833  0.7395
 6721TIP3    H241723   5.689   3.266   2.126  2.2606  0.9167 -0.4413
 6722TIP3   OH241724   5.735   6.693   7.663 -0.1442  0.8914  0.1671
 6722TIP3    H141725   5.691   6.765   7.617  0.2180  1.2075  0.3166
 6722TIP3    H241726   5.666   6.627   7.674 -0.2864  0.8852 -0.6636
 6723TIP3   OH241727   2.343   5.579   1.919  0.4461 -0.5533  0.0335
 6723TIP3    H141728   2.416   5.589   1.858 -0.4984 -0.9715 -1.1991
 6723TIP3    H241729   2.359   5.496   1.963  1.6070  0.1786  1.0454
 6724TIP3   OH241730   5.533   5.606   0.984  0.1143 -0.3980 -0.1785
 6724TIP3    H141731   5.442   5.579   0.972  0.3999 -2.5858  1.9177
 6724TIP3    H241732   5.582   5.558   0.917 -0.2895  1.3241 -1.7746
 6725TIP3   OH241733   3.640   5.161   1.082 -0.2608 -0.1735 -0.7128
 6725TIP3    H141734   3.691   5.091   1.123 -0.0779 -0.3198 -1.1932
 6725TIP3    H241735   3.663   5.158   0.990  1.0435  1.6185 -0.4925
 6726TIP3   OH241736   3.917   4.695   2.521  0.1735  0.3753 -0.3114
 6726TIP3    H141737   3.826   4.704   2.491  0.2168  1.3538 -0.1802
 6726TIP3    H241738   3.970   4.728   2.448  0.2638  3.1478  0.9010
 6727TIP3   OH241739   3.023   5.335   2.925  0.2439  0.0036  0.2044
 6727TIP3    H141740   2.962   5.264   2.942 -0.9104  1.3002  1.8253
 6727TIP3    H241741   3.027   5.384   3.007 -0.0559  2.5861 -1.1814
 6728TIP3   OH241742   0.901   6.046   0.367 -0.2642  0.2481  0.3286
 6728TIP3    H141743   0.910   6.057   0.272 -1.3556  0.2656  0.2091
 6728TIP3    H241744   0.806   6.051   0.382 -0.2422 -1.4145  1.2085
 6729TIP3   OH241745   1.340   4.407   0.972  0.0842  0.4264  0.1704
 6729TIP3    H141746   1.350   4.313   0.983 -0.7257  0.4347  1.0807
 6729TIP3    H241747   1.420   4.444   1.010  0.3125  0.1157 -0.0052
 6730TIP3   OH241748   2.984   5.237   7.383 -0.0805  0.4468 -0.1615
 6730TIP3    H141749   3.008   5.314   7.434 -1.4411 -0.4467  1.9533
 6730TIP3    H241750   3.055   5.228   7.319  2.4799  0.8280  2.4400
 6731TIP3   OH241751   6.823   2.025   0.717 -0.9621  0.0773 -0.0655
 6731TIP3    H141752   6.792   2.115   0.723 -0.1284  0.4998 -1.5640
 6731TIP3    H241753   6.799   1.997   0.628  1.2696 -0.1804 -0.6439
 6732TIP3   OH241754   1.550   5.864   2.401 -0.1376 -0.0800 -0.5399
 6732TIP3    H141755   1.630   5.811   2.408  0.4383  0.5918 -1.6687
 6732TIP3    H241756   1.480   5.806   2.431  0.8043 -0.5719  0.8066
 6733TIP3   OH241757   1.026   4.508   1.747  0.1464  0.6076  0.7561
 6733TIP3    H141758   1.091   4.438   1.752 -0.1686  0.1010 -1.3988
 6733TIP3    H241759   0.979   4.502   1.830  1.1603 -0.7013  1.2754
 6734TIP3   OH241760   2.174   2.164   8.178  0.4656  0.2723  0.1527
 6734TIP3    H141761   2.144   2.198   8.094  0.6375  0.3314  0.1154
 6734TIP3    H241762   2.122   2.210   8.243  0.1658  0.0558  0.0676
 6735TIP3   OH241763   0.838   4.213   1.174 -0.1145 -0.4866  0.0410
 6735TIP3    H141764   0.929   4.223   1.202  0.2447  1.6565 -1.6656
 6735TIP3    H241765   0.843   4.159   1.095 -0.2152  0.3697 -0.5567
 6736TIP3   OH241766   5.353   4.847   3.212  0.5165  0.3609  0.6901
 6736TIP3    H141767   5.390   4.773   3.261  0.0913  1.2164  2.3915
 6736TIP3    H241768   5.399   4.924   3.246 -0.1663  1.0455  0.1043
 6737TIP3   OH241769   4.624   4.691   0.492  0.0258 -0.0804  0.0473
 6737TIP3    H141770   4.589   4.640   0.419  1.7664 -0.2457 -0.7306
 6737TIP3    H241771   4.576   4.660   0.569  0.3311 -2.1843 -0.5559
 6738TIP3   OH241772   5.862   4.517   1.945 -0.1118  0.4148  0.4358
 6738TIP3    H141773   5.880   4.598   1.896  2.2349 -0.1619  0.1933
 6738TIP3    H241774   5.883   4.447   1.884 -0.4312 -0.3615  1.2005
 6739TIP3   OH241775   3.716   1.406   1.501 -0.4355 -0.4663  0.0579
 6739TIP3    H141776   3.661   1.335   1.536 -1.1333  0.0259 -0.0042
 6739TIP3    H241777   3.661   1.447   1.434  0.3770 -0.5511 -0.6672
 6740TIP3   OH241778   4.769   1.421   1.196  0.4853  0.1881 -0.0540
 6740TIP3    H141779   4.848   1.454   1.154  0.1696  0.4006 -0.4868
 6740TIP3    H241780   4.781   1.442   1.289  1.5483 -1.0015  0.1153
 6741TIP3   OH241781   1.618   1.879   0.749 -0.1797  0.2536  0.6267
 6741TIP3    H141782   1.698   1.915   0.709 -0.7235  0.9119  0.1001
 6741TIP3    H241783   1.556   1.952   0.746 -1.3093 -0.7205 -0.4360
 6742TIP3   OH241784   4.181   6.599   2.695 -0.0887  0.0962  0.0681
 6742TIP3    H141785   4.248   6.627   2.758 -1.6053  1.5467  1.1240
 6742TIP3    H241786   4.231   6.566   2.620  1.8036  1.4982  0.6302
 6743TIP3   OH241787   4.071   6.293   1.241 -0.3527 -0.4486  0.5191
 6743TIP3    H141788   4.155   6.285   1.196  0.2635 -0.8171  1.6823
 6743TIP3    H241789   4.094   6.294   1.334 -1.3941  2.2838  0.8460
 6744TIP3   OH241790   4.280   1.860   7.876  0.1467  0.4846  0.0660
 6744TIP3    H141791   4.319   1.934   7.829  2.4698 -0.0382  1.0279
 6744TIP3    H241792   4.249   1.802   7.806 -0.5127  1.7073 -0.7154
 6745TIP3   OH241793   5.490   0.323   1.713  0.4786  0.1577 -0.0878
 6745TIP3    H141794   5.554   0.316   1.785  0.5328 -0.5352 -0.1903
 6745TIP3    H241795   5.531   0.382   1.650  1.5454 -1.1460 -0.6665
 6746TIP3   OH241796   4.802   1.777   0.678  0.0897  0.0481 -0.5057
 6746TIP3    H141797   4.738   1.749   0.744  0.7493  0.0254  0.1399
 6746TIP3    H241798   4.783   1.723   0.602 -2.1425  1.6341 -1.1488
 6747TIP3   OH241799   0.403   2.573   0.967 -0.5381  0.5252  0.3256
 6747TIP3    H141800   0.398   2.543   0.877 -0.8374 -0.1352  0.5559
 6747TIP3    H241801   0.351   2.509   1.017  1.0429 -0.1151  1.2111
 6748TIP3   OH241802   4.260   0.689   7.579  0.4441 -0.1392  0.0225
 6748TIP3    H141803   4.263   0.766   7.522 -0.2051 -0.4530 -0.4450
 6748TIP3    H241804   4.346   0.688   7.621  0.1620  1.3409  0.7221
 6749TIP3   OH241805   3.932   1.969   0.567 -0.1610 -0.0290  0.3861
 6749TIP3    H141806   3.906   2.034   0.632  0.6212  0.0310  0.6373
 6749TIP3    H241807   3.972   2.020   0.496  0.5393 -0.2348  0.6255
 6750TIP3   OH241808   6.624   3.371   3.297 -0.8423 -0.0393  0.2128
 6750TIP3    H141809   6.597   3.280   3.286  0.0659 -0.4587  1.3278
 6750TIP3    H241810   6.719   3.367   3.309 -0.6490  1.1488 -0.7210
 6751TIP3   OH241811   6.249   1.774   3.112 -0.0209  0.7335 -0.0507
 6751TIP3    H141812   6.252   1.702   3.175  2.2333  1.1486  0.3977
 6751TIP3    H241813   6.156   1.790   3.098 -0.5675 -0.6511  1.6886
 6752TIP3   OH241814   3.736   0.346   2.036  0.0515  0.3907  0.7200
 6752TIP3    H141815   3.775   0.395   2.109  1.2351  1.0230 -0.2844
 6752TIP3    H241816   3.809   0.296   2.000 -0.5331  0.0302  0.0202
 6753TIP3   OH241817   6.213   2.319   0.605 -0.4517  0.2071 -0.1175
 6753TIP3    H141818   6.266   2.328   0.527 -0.8491  3.1510 -0.1645
 6753TIP3    H241819   6.137   2.375   0.589 -1.2720 -0.2624  1.8060
 6754TIP3   OH241820   3.955   5.800   2.220 -0.2292  0.8724 -0.1813
 6754TIP3    H141821   3.970   5.720   2.168  2.1455  2.8369 -2.8493
 6754TIP3    H241822   3.860   5.808   2.224 -0.5248 -1.5385 -0.6595
 6755TIP3   OH241823   4.004   1.160   8.569  0.1471 -0.0957 -0.4693
 6755TIP3    H141824   4.009   1.253   8.549  1.0244 -0.5064 -2.3660
 6755TIP3    H241825   3.918   1.149   8.610  0.0277  1.5214 -0.2144
 6756TIP3   OH241826   3.678   2.520   1.129 -0.1184 -0.9047  0.1415
 6756TIP3    H141827   3.591   2.559   1.115  0.8865  1.0214 -1.0816
 6756TIP3    H241828   3.678   2.442   1.074 -0.9007 -0.6760 -0.2058
 6757TIP3   OH241829   1.603   3.221   8.127 -0.1472  0.2511  0.5045
 6757TIP3    H141830   1.686   3.268   8.137 -0.1026  0.4011 -0.4338
 6757TIP3    H241831   1.539   3.276   8.172 -0.0579  1.1231 -0.3904
 6758TIP3   OH241832   5.900   4.758   8.570 -0.0965  0.2182  0.6660
 6758TIP3    H141833   5.812   4.776   8.605  0.3267 -0.1896  2.0241
 6758TIP3    H241834   5.888   4.752   8.476 -1.1632  2.3495  0.6029
 6759TIP3   OH241835   2.733   4.790   7.315 -0.2213 -0.0579  0.0790
 6759TIP3    H141836   2.733   4.881   7.286 -0.8909 -0.1099 -0.0897
 6759TIP3    H241837   2.816   4.780   7.361  1.1564 -0.1077 -2.2415
 6760TIP3   OH241838   6.827   3.560   0.894  0.8652  0.5275 -0.1702
 6760TIP3    H141839   6.845   3.645   0.932  2.5130  0.5098 -0.7896
 6760TIP3    H241840   6.846   3.571   0.800 -0.8069 -0.0175 -0.6007
 6761TIP3   OH241841   6.220   6.775   8.067  0.5144  0.1236 -0.0326
 6761TIP3    H141842   6.156   6.846   8.056  0.9210  0.5210  0.1272
 6761TIP3    H241843   6.194   6.709   8.004 -0.0622  0.2829  0.0353
 6762TIP3   OH241844   1.553   2.068   8.280  0.9958  0.1275 -0.6198
 6762TIP3    H141845   1.601   2.003   8.331  0.1913 -0.4441 -0.5723
 6762TIP3    H241846   1.493   2.017   8.225  0.2362  0.8263 -0.4657
 6763TIP3   OH241847   3.571   3.248   1.081  0.9161  0.3135 -0.4083
 6763TIP3    H141848   3.561   3.157   1.110 -0.6305  0.2568 -0.9995
 6763TIP3    H241849   3.486   3.288   1.100  0.7338  0.9681 -2.3587
 6764TIP3   OH241850   4.561   0.446   8.167 -0.0759  0.8388  0.0644
 6764TIP3    H141851   4.556   0.414   8.076  0.4095 -0.9977  0.6390
 6764TIP3    H241852   4.654   0.441   8.189 -0.4487 -1.4745  1.5175
 6765TIP3   OH241853   1.794   4.567   2.425 -0.2785 -0.4295  0.0975
 6765TIP3    H141854   1.720   4.619   2.457 -1.0785 -0.0306 -2.2639
 6765TIP3    H241855   1.867   4.629   2.426 -0.7735  0.1851 -0.8070
 6766TIP3   OH241856   3.179   4.230   7.414  0.1766 -0.1108 -0.2084
 6766TIP3    H141857   3.256   4.281   7.436  0.1231 -0.3780  0.6270
 6766TIP3    H241858   3.120   4.242   7.489 -2.0060  2.7534 -2.1644
 6767TIP3   OH241859   1.360   4.844   8.259 -0.2595  0.0323 -0.4206
 6767TIP3    H141860   1.347   4.789   8.181 -0.1853 -0.3127 -0.1914
 6767TIP3    H241861   1.273   4.878   8.279 -0.6461 -1.4233  0.4819
 6768TIP3   OH241862   5.436   3.840   8.423  0.0837 -0.2320 -0.1198
 6768TIP3    H141863   5.482   3.807   8.346 -0.7185  0.4096 -0.9031
 6768TIP3    H241864   5.361   3.887   8.387 -2.7467 -3.3998  1.1041
 6769TIP3   OH241865   1.690   6.421   1.114 -0.5135  0.2869  0.1981
 6769TIP3    H141866   1.602   6.421   1.151 -0.9755  2.8034 -0.6856
 6769TIP3    H241867   1.747   6.395   1.186 -1.7439  1.2777  1.5972
 6770TIP3   OH241868   5.894   2.438   8.447  0.0610  0.8498  0.3298
 6770TIP3    H141869   5.891   2.534   8.456 -1.5064  0.9033 -0.4019
 6770TIP3    H241870   5.814   2.408   8.488 -0.7069  0.0781 -1.5991
 6771TIP3   OH241871   3.293   1.218   1.286 -0.0158 -0.1351 -0.1551
 6771TIP3    H141872   3.229   1.271   1.238  0.2413  0.4976  0.1941
 6771TIP3    H241873   3.258   1.213   1.375 -0.1899 -0.8117 -0.2532
 6772TIP3   OH241874   1.258   4.090   2.125  0.1429  0.0521 -0.7523
 6772TIP3    H141875   1.337   4.143   2.119 -0.2640  1.1022  1.7572
 6772TIP3    H241876   1.287   4.009   2.167 -0.0190  0.2517 -0.2476
 6773TIP3   OH241877   0.070   0.126   1.000  0.2313  0.4826  0.2613
 6773TIP3    H141878   0.052   0.043   0.954 -0.4926 -0.5698  2.3043
 6773TIP3    H241879   0.140   0.167   0.949  0.6488 -1.4072 -0.7897
 6774TIP3   OH241880   3.770   3.055   3.114 -0.7146 -1.2802 -0.0014
 6774TIP3    H141881   3.860   3.042   3.144 -0.4438  0.5261  0.0542
 6774TIP3    H241882   3.729   3.107   3.183 -1.1810 -0.2857 -1.0183
 6775TIP3   OH241883   4.178   1.946   0.936 -0.8545  0.5729  0.1341
 6775TIP3    H141884   4.190   1.876   1.000  0.9845  0.7318  0.0037
 6775TIP3    H241885   4.095   1.988   0.962 -1.9138 -1.4950  0.3172
 6776TIP3   OH241886   5.886   4.182   8.720 -0.2721 -0.0612  0.2416
 6776TIP3    H141887   5.973   4.169   8.684  0.3224  3.6948 -0.0651
 6776TIP3    H241888   5.901   4.219   8.807 -1.6101 -0.7134  0.7785
 6777TIP3   OH241889   1.035   0.811   1.662  0.0250  0.3789 -0.0639
 6777TIP3    H141890   1.095   0.826   1.735 -0.7985 -1.0289  0.9358
 6777TIP3    H241891   1.049   0.720   1.637 -1.2116  0.2303 -0.2665
 6778TIP3   OH241892   1.046   3.370   1.863 -0.1267 -0.2136  0.2299
 6778TIP3    H141893   1.138   3.367   1.890 -0.3399  0.6728  1.1421
 6778TIP3    H241894   1.046   3.420   1.781  0.1402  0.4235  0.6100
 6779TIP3   OH241895   5.947   6.783   1.045 -0.5842 -0.4718  0.0455
 6779TIP3    H141896   5.939   6.792   0.951  1.1713 -0.2160 -0.1111
 6779TIP3    H241897   5.874   6.833   1.081 -0.3687  0.7366 -1.1419
 6780TIP3   OH241898   1.287   4.226   0.387 -0.5256 -0.3433 -0.1424
 6780TIP3    H141899   1.238   4.223   0.469 -1.5580  1.1453 -0.6591
 6780TIP3    H241900   1.255   4.151   0.337  0.6323 -1.6875  1.0609
 6781TIP3   OH241901   2.166   2.746   6.944 -0.5624 -0.7722 -0.3359
 6781TIP3    H141902   2.219   2.666   6.944  1.1773  0.3204  0.9917
 6781TIP3    H241903   2.108   2.736   7.020 -0.0930 -0.6263  0.0453
 6782TIP3   OH241904   4.607   4.638   2.212 -0.5634 -0.3686  0.5361
 6782TIP3    H141905   4.530   4.596   2.251  0.1868 -1.4629  0.8636
 6782TIP3    H241906   4.591   4.634   2.117 -0.5073 -1.3898  0.5628
 6783TIP3   OH241907   2.324   3.202   8.612 -0.0491  0.4309  0.3676
 6783TIP3    H141908   2.293   3.123   8.569  2.7535 -1.7596  1.9941
 6783TIP3    H241909   2.365   3.253   8.542  0.7626 -1.0406 -0.2725
 6784TIP3   OH241910   2.178   0.468   2.060  0.1095  0.3323  0.3047
 6784TIP3    H141911   2.166   0.378   2.031  0.2315  0.6043 -0.6403
 6784TIP3    H241912   2.095   0.511   2.041  0.0605  0.4317  0.7272
 6785TIP3   OH241913   2.237   0.180   7.695 -0.2611 -0.1271 -0.3270
 6785TIP3    H141914   2.165   0.164   7.756 -0.3318  0.8025 -0.1459
 6785TIP3    H241915   2.253   0.274   7.702 -1.5685  0.4003 -3.1881
 6786TIP3   OH241916   4.180   4.963   1.424  0.3164  0.6409  0.2252
 6786TIP3    H141917   4.094   5.004   1.410 -0.4430 -1.4139 -1.5443
 6786TIP3    H241918   4.225   4.974   1.341  0.7984 -0.4592  0.3298
 6787TIP3   OH241919   6.101   0.029   8.319  0.3013  0.2978 -0.7467
 6787TIP3    H141920   6.163  -0.033   8.280  0.5224  0.5636 -0.8219
 6787TIP3    H241921   6.042   0.053   8.247  0.2122  0.1741 -0.7164
 6788TIP3   OH241922   3.627   5.261   7.464 -0.0686  0.0216 -0.2183
 6788TIP3    H141923   3.592   5.309   7.538 -0.7778 -0.8064 -0.0083
 6788TIP3    H241924   3.701   5.315   7.434 -1.7571  2.0813 -0.9940
 6789TIP3   OH241925   3.439   5.882   7.730 -0.0685  0.1739  0.1706
 6789TIP3    H141926   3.376   5.950   7.754 -2.3875 -1.1738 -1.5869
 6789TIP3    H241927   3.459   5.899   7.638 -0.8825 -1.5295 -0.3827
 6790TIP3   OH241928   0.355   2.041   3.004  0.0314 -0.5582  0.4083
 6790TIP3    H141929   0.399   1.981   3.064  1.8653 -0.6139 -0.8919
 6790TIP3    H241930   0.409   2.120   3.006 -0.0494 -0.4555 -0.9136
 6791TIP3   OH241931   0.750   2.370   3.054  0.3463 -0.5564 -0.1050
 6791TIP3    H141932   0.731   2.449   3.003  0.2873 -0.1221  0.5838
 6791TIP3    H241933   0.845   2.366   3.058  0.3438 -0.3200  0.1730
 6792TIP3   OH241934   6.017   3.313   2.984  0.6471  0.4619 -0.1537
 6792TIP3    H141935   5.961   3.317   3.061  0.0356 -1.7585 -0.4199
 6792TIP3    H241936   6.105   3.299   3.019  0.7057  1.6551  0.1930
 6793TIP3   OH241937   5.178   6.407   1.029 -1.0792 -0.8433 -0.5312
 6793TIP3    H141938   5.103   6.463   1.050 -1.5355 -1.5305 -0.2864
 6793TIP3    H241939   5.244   6.430   1.095 -0.9381  0.0102 -0.9601
 6794TIP3   OH241940   4.882   1.345   3.664  0.0217 -0.5407  0.1872
 6794TIP3    H141941   4.970   1.322   3.692 -0.4641 -0.6272  1.7874
 6794TIP3    H241942   4.855   1.273   3.607  1.0748 -0.3579 -0.5794
 6795TIP3   OH241943   1.625   6.818   1.405  0.0140 -0.2868 -0.0911
 6795TIP3    H141944   1.649   6.749   1.466  0.3749 -0.3502 -0.3015
 6795TIP3    H241945   1.549   6.783   1.357  0.9509 -1.0448 -1.0558
 6796TIP3   OH241946   1.155   2.377   7.224  0.4907  0.6937 -0.1575
 6796TIP3    H141947   1.237   2.390   7.272  1.0873 -1.6571 -0.4310
 6796TIP3    H241948   1.181   2.374   7.132  0.0874 -0.0013 -0.2527
 6797TIP3   OH241949   6.126   6.185   8.450 -0.3939  0.3120 -0.0832
 6797TIP3    H141950   6.086   6.270   8.465 -2.1749 -0.4601 -0.2501
 6797TIP3    H241951   6.114   6.169   8.356 -1.0911 -0.5842  0.1381
 6798TIP3   OH241952   5.130   2.939   7.815 -0.1980  0.1024 -0.1784
 6798TIP3    H141953   5.112   2.909   7.726 -0.9678  1.2353 -0.4196
 6798TIP3    H241954   5.190   3.012   7.804 -1.1935  0.9954  0.1308
 6799TIP3   OH241955   1.502   0.483   7.793 -0.0341  0.2011 -0.7722
 6799TIP3    H141956   1.566   0.538   7.748 -0.6741  0.5873 -1.2330
 6799TIP3    H241957   1.532   0.479   7.884 -0.2937  1.8081 -0.5967
 6800TIP3   OH241958   0.266   5.207   0.137 -0.2017 -0.4907  0.7422
 6800TIP3    H141959   0.207   5.246   0.202 -0.3269 -2.4184  1.8520
 6800TIP3    H241960   0.232   5.238   0.053 -0.8116  1.0439  1.5123
 6801TIP3   OH241961   1.377   4.568   2.047  0.3872 -0.4474 -0.3907
 6801TIP3    H141962   1.314   4.620   2.096 -0.2812 -1.6407  0.0714
 6801TIP3    H241963   1.450   4.555   2.108  0.5389 -0.0742 -0.4948
 6802TIP3   OH241964   0.391   4.694   7.688  0.4286  0.0984 -0.1190
 6802TIP3    H141965   0.479   4.660   7.707  1.5860  1.2964 -2.8811
 6802TIP3    H241966   0.372   4.664   7.600 -1.2463  1.2251 -0.1836
 6803TIP3   OH241967   2.409   0.150   0.651 -0.3035 -0.4047  0.7278
 6803TIP3    H141968   2.352   0.075   0.671 -0.0413 -0.8868 -0.2794
 6803TIP3    H241969   2.466   0.157   0.727 -1.2937 -0.2941  1.4905
 6804TIP3   OH241970   0.862   0.786   0.100 -0.1907  0.6775 -0.3324
 6804TIP3    H141971   0.846   0.794   0.006 -1.3174  3.2896 -0.0035
 6804TIP3    H241972   0.814   0.706   0.125  0.9345 -0.6318 -2.0590
 6805TIP3   OH241973   5.137   4.697   8.596  0.3743  0.2880 -0.3468
 6805TIP3    H141974   5.074   4.627   8.614 -1.6651  2.1840  0.3843
 6805TIP3    H241975   5.083   4.772   8.575  2.3741  2.3620  1.4336
 6806TIP3   OH241976   3.914   0.651   7.503  0.1149  0.0625  0.4358
 6806TIP3    H141977   3.900   0.725   7.443 -1.0850  1.6144  2.4942
 6806TIP3    H241978   3.828   0.637   7.543  0.4947 -2.0393  0.6017
 6807TIP3   OH241979   4.294   4.467   1.097 -0.5483  0.3895  0.6716
 6807TIP3    H141980   4.307   4.498   1.187 -0.4762  1.5504  0.2746
 6807TIP3    H241981   4.338   4.382   1.095 -0.4160  0.4143  1.6860
 6808TIP3   OH241982   5.636   5.861   8.123 -0.0779  0.6952 -0.3235
 6808TIP3    H141983   5.613   5.931   8.184 -2.0297  0.1516 -0.3496
 6808TIP3    H241984   5.702   5.809   8.169 -1.5456  0.2683  1.3917
 6809TIP3   OH241985   5.857   3.029   1.097 -0.3931 -0.5280  0.2221
 6809TIP3    H141986   5.812   2.994   1.021  0.0538 -0.9692  0.1555
 6809TIP3    H241987   5.945   2.990   1.094  0.1476  0.6464  0.1048
 6810TIP3   OH241988   6.000   3.821   2.622 -0.3631 -0.2039 -0.1156
 6810TIP3    H141989   6.037   3.748   2.572 -0.3708 -0.9381  0.9101
 6810TIP3    H241990   5.941   3.780   2.685 -1.4551  0.8112 -0.4415
 6811TIP3   OH241991   0.603   5.989   8.138  0.5123 -0.6455 -0.3556
 6811TIP3    H141992   0.625   5.898   8.160  0.8891 -0.3512  0.5674
 6811TIP3    H241993   0.671   6.040   8.182 -0.0836  0.1150 -0.3001
 6812TIP3   OH241994   6.028   2.358   2.259 -0.5662 -0.6993  0.8160
 6812TIP3    H141995   6.096   2.292   2.243 -1.6650 -1.7075  0.1610
 6812TIP3    H241996   6.069   2.419   2.320  2.4454  1.0483 -2.4817
 6813TIP3   OH241997   2.463   6.381   6.956 -0.2789  0.1524  0.1723
 6813TIP3    H141998   2.446   6.287   6.945  0.2042  0.0668  0.1209
 6813TIP3    H241999   2.417   6.405   7.036 -1.1901  0.0789 -0.3203
 6814TIP3   OH242000   6.493   1.714   2.082  0.0427  0.2264  0.0370
 6814TIP3    H142001   6.441   1.662   2.143 -0.1709 -0.7357 -0.9349
 6814TIP3    H242002   6.493   1.663   2.001  1.9491  0.5342 -0.1987
 6815TIP3   OH242003   2.626   2.672   2.421  0.6280  0.2835 -0.2092
 6815TIP3    H142004   2.688   2.744   2.411  0.8976  0.1001  0.1454
 6815TIP3    H242005   2.680   2.593   2.421  0.5671  0.1904  1.5828
 6816TIP3   OH242006   1.415   1.682   8.309  0.3954 -0.1810  0.3369
 6816TIP3    H142007   1.395   1.624   8.382  0.3643 -1.6378 -0.7670
 6816TIP3    H242008   1.476   1.746   8.345  0.4212 -0.8940  1.6180
 6817TIP3   OH242009   2.343   1.097   1.392  0.1065 -0.2129  0.1591
 6817TIP3    H142010   2.382   1.023   1.347  0.8010  0.9425 -1.2246
 6817TIP3    H242011   2.418   1.142   1.432 -0.2352  0.0694  0.4823
 6818TIP3   OH242012   0.038   5.913   1.924  0.0975 -0.3299  0.5086
 6818TIP3    H142013  -0.050   5.909   1.962  0.1913 -0.0326  0.7592
 6818TIP3    H242014   0.091   5.955   1.991  0.0587  1.1035 -0.3148
 6819TIP3   OH242015   4.140   3.233   0.560  0.8570  0.1962  0.2043
 6819TIP3    H142016   4.193   3.159   0.591  2.2086  1.3904  0.8411
 6819TIP3    H242017   4.053   3.217   0.598  1.3972 -0.5400  1.1951
 6820TIP3   OH242018   4.907   2.096   8.246 -0.6224  0.0781 -0.3018
 6820TIP3    H142019   4.899   2.134   8.159 -0.3168  0.5879 -0.1165
 6820TIP3    H242020   4.865   2.160   8.304  0.1689  0.2944  0.0543
 6821TIP3   OH242021   5.180   0.618   2.864  0.5944 -0.0169 -0.0461
 6821TIP3    H142022   5.164   0.683   2.932  2.1918 -0.8126  1.1742
 6821TIP3    H242023   5.271   0.633   2.837  0.1245 -0.0037 -1.7166
 6822TIP3   OH242024   2.260   6.704   7.977  0.1913 -0.2598 -0.2682
 6822TIP3    H142025   2.283   6.651   7.901  1.2372 -1.6864  0.9894
 6822TIP3    H242026   2.319   6.780   7.973  1.1041 -0.9578 -0.2160
 6823TIP3   OH242027   3.931   6.047   0.972 -0.1469  0.1725 -0.8529
 6823TIP3    H142028   3.902   6.089   1.053  0.5049  1.0455 -1.0626
 6823TIP3    H242029   4.008   5.996   0.997 -1.6252 -1.9790 -0.3399
 6824TIP3   OH242030   3.716   4.137   8.103  0.0871 -0.1943  0.4671
 6824TIP3    H142031   3.766   4.185   8.168  1.5697  0.5161 -1.1296
 6824TIP3    H242032   3.674   4.205   8.049 -1.3708 -0.7649  0.8163
 6825TIP3   OH242033   3.967   6.114   0.345  0.0936  0.6795 -0.1275
 6825TIP3    H142034   4.015   6.081   0.269 -1.1302 -0.0951 -0.6031
 6825TIP3    H242035   3.997   6.060   0.418 -1.0861 -0.8279 -0.6957
 6826TIP3   OH242036   1.843   2.842   0.082  0.0983  0.3343 -0.1714
 6826TIP3    H142037   1.889   2.923   0.060 -0.5180  0.7878  0.1629
 6826TIP3    H242038   1.857   2.832   0.176 -3.3524  2.4311  0.7704
 6827TIP3   OH242039   5.435   6.182   0.698  0.1488 -0.3170  0.0666
 6827TIP3    H142040   5.344   6.192   0.728  0.1096 -0.2938 -0.0586
 6827TIP3    H242041   5.485   6.165   0.778  0.2565  1.1266  0.3357
 6828TIP3   OH242042   1.869   0.901   8.337  0.0217 -0.4056  0.1481
 6828TIP3    H142043   1.901   0.938   8.254 -0.1125 -1.6907 -0.4925
 6828TIP3    H242044   1.816   0.971   8.375 -0.6692 -0.1044 -1.2960
 6829TIP3   OH242045   6.782   3.846   0.997  0.2060 -0.0199  0.1905
 6829TIP3    H142046   6.762   3.927   1.044 -0.1547 -0.7601  1.3494
 6829TIP3    H242047   6.725   3.848   0.920 -1.2974 -0.0832  1.2484
 6830TIP3   OH242048   0.682   1.448   8.135 -0.2946  1.0455 -0.5521
 6830TIP3    H142049   0.652   1.530   8.174  2.4084  1.1625  1.5592
 6830TIP3    H242050   0.612   1.386   8.154 -1.9102  2.5624 -1.2662
 6831TIP3   OH242051   0.592   3.312   8.535  0.3530 -0.2380 -0.0165
 6831TIP3    H142052   0.517   3.284   8.483  0.0159 -0.8743  0.7915
 6831TIP3    H242053   0.612   3.400   8.503 -1.2456  0.2726  0.3047
 6832TIP3   OH242054   0.726   3.131   1.911 -0.3015  0.1789 -0.3146
 6832TIP3    H142055   0.685   3.072   1.974 -0.5864 -0.5339 -1.1473
 6832TIP3    H242056   0.815   3.097   1.900  0.2742  1.2425  0.8771
 6833TIP3   OH242057   4.021   5.145   2.499 -1.2200 -0.5255 -0.9287
 6833TIP3    H142058   3.972   5.113   2.575 -0.1173  0.2618  0.1746
 6833TIP3    H242059   4.099   5.186   2.537 -0.7247  0.0690 -2.4944
 6834TIP3   OH242060   2.488   1.087   8.434 -0.5916 -0.3359 -0.7416
 6834TIP3    H142061   2.583   1.085   8.444 -0.4850 -0.0905 -1.6031
 6834TIP3    H242062   2.464   1.177   8.454 -0.7004 -0.5056 -0.0934
 6835TIP3   OH242063   5.781   5.570   2.922 -0.2771 -0.0929 -0.0536
 6835TIP3    H142064   5.710   5.633   2.908  0.7379  1.5058  1.5790
 6835TIP3    H242065   5.811   5.587   3.011  1.8883 -1.0051 -0.5433
 6836TIP3   OH242066   1.890   5.791   1.396  0.2417  0.6576 -0.2691
 6836TIP3    H142067   1.908   5.836   1.314 -0.7110 -0.7748 -1.3002
 6836TIP3    H242068   1.831   5.720   1.373  2.5363 -1.8862  1.0311
 6837TIP3   OH242069   6.333   6.149   8.611  0.1314  0.5640  0.0139
 6837TIP3    H142070   6.248   6.141   8.568  1.5264  0.3974 -2.9239
 6837TIP3    H242071   6.386   6.202   8.551  1.7503  1.8441  2.3816
 6838TIP3   OH242072   2.418   3.769   3.124  0.3267 -0.1911  0.0531
 6838TIP3    H142073   2.354   3.812   3.067 -0.5635  0.3115  1.3521
 6838TIP3    H242074   2.396   3.676   3.119 -1.4894  0.0923  1.5380
 6839TIP3   OH242075   5.704   4.330   2.142 -0.2998  0.2188 -0.3921
 6839TIP3    H142076   5.799   4.317   2.133 -0.4552  0.1785 -2.6264
 6839TIP3    H242077   5.695   4.416   2.182  0.7387  1.4043 -2.4967
 6840TIP3   OH242078   3.073   4.285   1.708  0.3186 -0.5298 -0.1813
 6840TIP3    H142079   3.068   4.307   1.801 -1.8548 -1.1609 -0.0880
 6840TIP3    H242080   3.166   4.269   1.692  0.9585  1.2198  1.4648
 6841TIP3   OH242081   1.684   3.862   1.005 -0.4224  0.1152 -0.0190
 6841TIP3    H142082   1.606   3.871   1.061 -0.2711 -0.1933  0.2475
 6841TIP3    H242083   1.683   3.770   0.978 -0.5281  0.2770 -0.5806
 6842TIP3   OH242084   4.428   0.436   2.185 -0.4221 -0.1892 -0.1316
 6842TIP3    H142085   4.482   0.497   2.234  0.3895  0.2305 -1.4918
 6842TIP3    H242086   4.347   0.428   2.236 -0.2283  1.4043  0.4670
 6843TIP3   OH242087   1.420   3.628   0.558  0.0709 -0.0312  0.2704
 6843TIP3    H142088   1.396   3.699   0.617  0.5249  0.0344  0.3783
 6843TIP3    H242089   1.515   3.620   0.567 -0.1230 -1.7066  1.4778
 6844TIP3   OH242090   4.057   4.399   7.656  0.1730 -0.2888  0.1026
 6844TIP3    H142091   4.064   4.494   7.647  1.0213 -0.5151 -2.2360
 6844TIP3    H242092   4.012   4.370   7.577  0.8187 -1.9094  0.2858
 6845TIP3   OH242093   0.022   2.941   0.631  0.0264 -0.1548  0.0076
 6845TIP3    H142094  -0.012   2.915   0.545 -2.0515 -1.0423  1.0370
 6845TIP3    H242095  -0.005   3.033   0.640  2.4629  0.7907 -1.2629
 6846TIP3   OH242096   6.657   5.035   1.275  0.1180 -0.3173 -0.6003
 6846TIP3    H142097   6.658   5.122   1.234 -1.3200  0.4941  0.9487
 6846TIP3    H242098   6.724   5.040   1.343  0.4411 -0.6410 -0.8896
 6847TIP3   OH242099   2.707   6.533   8.235  0.0681 -0.0731 -0.5061
 6847TIP3    H142100   2.791   6.511   8.195  0.3803  1.7341 -0.9465
 6847TIP3    H242101   2.660   6.579   8.165 -0.9150 -0.2309  0.0385
 6848TIP3   OH242102   6.431   2.844   8.404  0.0014  0.2359  0.4574
 6848TIP3    H142103   6.409   2.899   8.479 -1.6627 -1.0760  0.9973
 6848TIP3    H242104   6.518   2.873   8.377  0.2925  1.2928  2.3872
 6849TIP3   OH242105   4.751   2.150   8.733 -0.7678 -0.0689  0.2611
 6849TIP3    H142106   4.720   2.227   8.781 -0.4712  1.8137 -2.3496
 6849TIP3    H242107   4.676   2.122   8.681 -0.5582 -0.9042  0.3922
 6850TIP3   OH242108   0.624   3.455   1.805 -0.2012  0.2313 -0.2705
 6850TIP3    H142109   0.662   3.453   1.892 -2.5900 -0.7282  0.8435
 6850TIP3    H242110   0.549   3.514   1.813  0.8089  1.9433 -2.3250
 6851TIP3   OH242111   2.003   3.647   2.056 -0.3569  0.2807  0.0190
 6851TIP3    H142112   2.065   3.719   2.069  1.7524 -1.5346  0.6886
 6851TIP3    H242113   1.933   3.664   2.119  0.6453  1.1642  0.9383
 6852TIP3   OH242114   3.252   2.829   0.523 -0.2697 -0.5899 -0.0753
 6852TIP3    H142115   3.315   2.793   0.461  2.6251  1.5114  1.3997
 6852TIP3    H242116   3.225   2.912   0.484 -0.1004 -0.2689  0.4840
 6853TIP3   OH242117   1.345   6.747   1.553  0.2021  0.2132  0.2470
 6853TIP3    H142118   1.377   6.666   1.593  1.0601  0.3683 -0.1049
 6853TIP3    H242119   1.398   6.816   1.592 -0.6410  0.6416  0.6750
 6854TIP3   OH242120   6.403   4.519   0.622 -0.1525 -0.0343 -0.0878
 6854TIP3    H142121   6.472   4.557   0.568  0.1082 -0.0574  0.2233
 6854TIP3    H242122   6.322   4.561   0.592  0.1298  0.7555  0.2450
 6855TIP3   OH242123   0.045   2.280   0.389  0.6757 -0.8002 -0.0952
 6855TIP3    H142124  -0.036   2.270   0.339  0.9507 -2.7338 -0.2159
 6855TIP3    H242125   0.109   2.309   0.325 -0.0791  1.6939  0.1820
 6856TIP3   OH242126   3.972   1.853   1.110  0.1220  0.0173  0.4218
 6856TIP3    H142127   4.012   1.808   1.185 -1.4009 -1.6472  0.2841
 6856TIP3    H242128   3.955   1.942   1.142 -2.3034 -1.1833  2.7810
 6857TIP3   OH242129   2.655   3.663   8.490 -0.0146  0.1422 -0.2612
 6857TIP3    H142130   2.625   3.643   8.578  1.0143  0.5069  0.1841
 6857TIP3    H242131   2.675   3.578   8.451  0.8308  0.0584  0.3392
 6858TIP3   OH242132   6.031   5.011   3.145  0.1193 -0.0433 -0.8532
 6858TIP3    H142133   5.974   5.080   3.109  0.7868  0.3353 -1.2052
 6858TIP3    H242134   6.007   4.933   3.096 -2.6114 -0.7989  1.4010
 6859TIP3   OH242135   0.697   2.815   2.430  0.7782 -0.0424 -0.1957
 6859TIP3    H142136   0.740   2.767   2.501  2.6431  0.0589 -1.1858
 6859TIP3    H242137   0.686   2.750   2.360  1.0803  0.3850 -0.6496
 6860TIP3   OH242138   6.229   0.203   0.107  0.0493  0.3302 -0.4035
 6860TIP3    H142139   6.287   0.156   0.047  0.5151  0.1764  0.1634
 6860TIP3    H242140   6.282   0.276   0.139 -0.0876  0.2291  0.0645
 6861TIP3   OH242141   4.603   3.185   8.201 -0.4042  0.7481  0.3962
 6861TIP3    H142142   4.517   3.169   8.241  0.0067  1.2496  1.5341
 6861TIP3    H242143   4.654   3.227   8.270  0.6081  0.9139 -0.4221
 6862TIP3   OH242144   1.524   4.044   1.220  0.0567 -0.0147 -0.3615
 6862TIP3    H142145   1.594   4.069   1.281  1.4155 -1.3066 -1.3063
 6862TIP3    H242146   1.457   4.005   1.276 -0.5581  2.4038  0.7187
 6863TIP3   OH242147   1.624   3.418   1.772  0.1155  0.0955 -0.7622
 6863TIP3    H142148   1.560   3.466   1.825  0.2239 -0.7737  0.1862
 6863TIP3    H242149   1.598   3.326   1.781  0.3741 -0.1033 -1.9178
 6864TIP3   OH242150   6.098   3.750   2.931  0.6230  0.0404  0.2009
 6864TIP3    H142151   6.148   3.684   2.978  0.3356 -1.6154 -1.6641
 6864TIP3    H242152   6.008   3.718   2.934  0.2963  0.9378  0.2024
 6865TIP3   OH242153   2.820   6.300   8.556  0.2986 -0.7943 -0.2817
 6865TIP3    H142154   2.862   6.282   8.640  0.6681 -2.4802 -0.7919
 6865TIP3    H242155   2.845   6.390   8.536  1.2939 -0.8110  0.7869
 6866TIP3   OH242156   5.291   1.821   2.000  0.0394 -0.1706 -0.1876
 6866TIP3    H142157   5.353   1.870   1.947  0.9488 -1.3585 -0.2777
 6866TIP3    H242158   5.296   1.861   2.086 -0.1622  0.6715 -0.5605
 6867TIP3   OH242159   4.982   0.209   8.308 -0.1493  0.1886 -0.0764
 6867TIP3    H142160   5.057   0.269   8.304 -0.6480  0.8805  0.7010
 6867TIP3    H242161   5.008   0.136   8.253  0.5967  0.9817 -0.8125
 6868TIP3   OH242162   3.023   6.754   0.242 -0.1799  0.5112  0.5417
 6868TIP3    H142163   2.989   6.816   0.176  2.2971  0.0339 -1.3521
 6868TIP3    H242164   2.947   6.731   0.295 -2.1480  1.6546 -1.5888
 6869TIP3   OH242165   5.508   3.677   3.387 -0.1996 -0.0253 -0.3684
 6869TIP3    H142166   5.548   3.597   3.351  2.0590  1.9281 -2.5234
 6869TIP3    H242167   5.436   3.696   3.327  0.0839  0.2401 -0.6282
 6870TIP3   OH242168   2.008   1.111   2.118 -0.0597  0.3788  0.6936
 6870TIP3    H142169   2.083   1.053   2.107 -0.1338  0.1028  1.6176
 6870TIP3    H242170   1.934   1.052   2.132 -0.2576  0.6790  0.9163
 6871TIP3   OH242171   4.686   5.332   1.057 -0.1586  0.2369 -0.2669
 6871TIP3    H142172   4.745   5.360   0.987 -0.6989 -2.5923 -2.0107
 6871TIP3    H242173   4.607   5.385   1.044  0.2168  0.6357 -0.9872
 6872TIP3   OH242174   2.654   4.194   1.611  0.1717 -0.2017  0.0015
 6872TIP3    H142175   2.699   4.276   1.591 -2.3389  1.0470 -1.0195
 6872TIP3    H242176   2.695   4.162   1.692  0.5748  2.6201  1.0112
 6873TIP3   OH242177   3.930   1.688   0.735  0.0970  0.6516 -0.0605
 6873TIP3    H142178   3.985   1.713   0.809 -1.0581  1.2724  0.6275
 6873TIP3    H242179   3.865   1.628   0.772 -0.6978  1.2270 -0.4822
 6874TIP3   OH242180   2.050   1.813   2.442  0.0350  0.2977 -0.2042
 6874TIP3    H142181   2.048   1.765   2.359  3.0575 -1.9624  0.8518
 6874TIP3    H242182   2.003   1.757   2.504 -2.5520  2.1517 -0.3357
 6875TIP3   OH242183   0.974   5.159   1.298 -0.0568 -0.2032  0.0579
 6875TIP3    H142184   0.906   5.098   1.327 -1.2795  0.1785 -1.7947
 6875TIP3    H242185   1.052   5.105   1.285 -0.8931 -1.2510 -0.7611
 6876TIP3   OH242186   0.064   4.927   1.983 -0.3465 -0.3153  0.3650
 6876TIP3    H142187   0.111   4.849   2.012 -0.5537 -0.1918  1.0501
 6876TIP3    H242188  -0.001   4.894   1.921  1.0539 -0.4135 -1.1094
 6877TIP3   OH242189   4.460   4.841   7.855 -0.1036  0.4194  0.3802
 6877TIP3    H142190   4.546   4.802   7.864 -0.2045  0.3456  1.0554
 6877TIP3    H242191   4.467   4.898   7.778  0.6463  0.6831  0.6356
 6878TIP3   OH242192   3.045   4.462   0.704 -0.1580 -0.3296 -0.3361
 6878TIP3    H142193   3.124   4.495   0.661  0.3639 -0.2690  0.6244
 6878TIP3    H242194   3.036   4.518   0.782 -0.3108 -1.2691  0.3352
 6879TIP3   OH242195   2.820   4.296   0.730 -0.2917  0.1713 -0.5965
 6879TIP3    H142196   2.817   4.253   0.815  0.8331 -0.5489 -0.9076
 6879TIP3    H242197   2.912   4.291   0.703 -0.4835  1.1115 -1.4857
 6880TIP3   OH242198   3.125   1.498   0.348  0.4300 -0.0320  0.9475
 6880TIP3    H142199   3.059   1.560   0.381  0.3538 -0.6353  1.9495
 6880TIP3    H242200   3.154   1.537   0.265 -0.3021  0.8624  1.0900
 6881TIP3   OH242201   5.779   4.371   0.722 -0.2867 -0.1730 -0.5854
 6881TIP3    H142202   5.834   4.446   0.701 -1.8063  1.0878 -0.2179
 6881TIP3    H242203   5.711   4.406   0.780 -1.4437 -1.6750 -0.9737
 6882TIP3   OH242204   5.303   3.769   2.474  0.1411 -0.2696 -0.2217
 6882TIP3    H142205   5.326   3.862   2.467 -1.2593  0.0521 -0.7354
 6882TIP3    H242206   5.386   3.726   2.494  1.3748  0.7559 -2.7113
 6883TIP3   OH242207   4.874   1.071   2.420 -0.7984  0.2936 -0.3354
 6883TIP3    H142208   4.846   1.098   2.333  0.8055 -0.6085 -1.1831
 6883TIP3    H242209   4.795   1.072   2.473 -1.6820  1.5324 -1.6233
 6884TIP3   OH242210   6.762   2.934   0.387  0.1453 -0.1823 -0.0164
 6884TIP3    H142211   6.784   3.007   0.330 -0.0287  0.9370  1.2916
 6884TIP3    H242212   6.668   2.943   0.403  0.3022 -0.1259  0.9161
 6885TIP3   OH242213   2.732   1.417   8.621 -0.1413 -0.1727  0.4963
 6885TIP3    H142214   2.820   1.378   8.618  0.0732  0.3432 -0.5352
 6885TIP3    H242215   2.710   1.421   8.714  1.1295  0.1340  0.8035
 6886TIP3   OH242216   2.412   5.326   1.960  0.0621  0.3792 -0.1854
 6886TIP3    H142217   2.498   5.290   1.981 -0.5740 -0.5417  0.9382
 6886TIP3    H242218   2.351   5.253   1.975 -1.0397  1.3536  0.2080
 6887TIP3   OH242219   1.489   3.856   3.183  0.8140  0.2237 -0.3005
 6887TIP3    H142220   1.451   3.808   3.257  1.3054  1.0289  0.4984
 6887TIP3    H242221   1.548   3.793   3.142 -1.0093 -0.9018 -1.2966
 6888TIP3   OH242222   0.519   0.770   2.396 -0.0647 -0.0672 -0.1498
 6888TIP3    H142223   0.433   0.788   2.435  0.1407  1.7089 -0.4368
 6888TIP3    H242224   0.511   0.681   2.361 -1.6608 -0.0797  0.1587
 6889TIP3   OH242225   6.351   5.089   2.961  0.4179  0.3036  0.0106
 6889TIP3    H142226   6.431   5.134   2.989  1.2193 -0.6115 -0.6874
 6889TIP3    H242227   6.291   5.097   3.034  0.6152  2.2711 -0.0015
 6890TIP3   OH242228   1.488   4.896   7.184 -0.0368  0.0018  0.0339
 6890TIP3    H142229   1.532   4.838   7.247 -1.3402 -1.3440 -0.2459
 6890TIP3    H242230   1.459   4.970   7.237  0.5474 -0.2042  0.6556
 6891TIP3   OH242231   2.972   2.908   2.623 -0.4204 -0.2198  0.1123
 6891TIP3    H142232   2.980   2.882   2.715 -0.5137  0.3404  0.2828
 6891TIP3    H242233   3.007   2.997   2.620  1.8629 -1.0671 -0.8360
 6892TIP3   OH242234   0.741   0.674   7.903 -0.0881 -0.4469 -0.2857
 6892TIP3    H142235   0.758   0.580   7.908  0.8719 -0.2317  1.3147
 6892TIP3    H242236   0.683   0.684   7.828  1.2393 -2.0873 -1.6026
 6893TIP3   OH242237   1.530   3.934   1.519  0.0676 -0.5791  0.2565
 6893TIP3    H142238   1.569   4.017   1.490  0.3302 -0.2837  1.4170
 6893TIP3    H242239   1.604   3.885   1.556 -0.0413 -1.4390 -0.6273
 6894TIP3   OH242240   1.099   5.611   8.262 -0.2603 -0.4394 -0.0600
 6894TIP3    H142241   1.153   5.682   8.228  0.3710 -0.8195  0.1377
 6894TIP3    H242242   1.129   5.534   8.215 -0.2701 -0.7428  0.4244
 6895TIP3   OH242243   0.466   0.633   2.059 -0.4752 -1.1633 -0.8158
 6895TIP3    H142244   0.455   0.625   2.154  1.1134 -2.0909 -0.6831
 6895TIP3    H242245   0.486   0.726   2.045 -0.7368 -1.0162 -0.2488
 6896TIP3   OH242246   4.487   5.614   8.255  0.7596 -0.2948  0.0348
 6896TIP3    H142247   4.575   5.624   8.291  0.9983 -1.1864 -0.2675
 6896TIP3    H242248   4.430   5.614   8.331  1.2921 -2.5509  0.5033
 6897TIP3   OH242249   0.621   3.751   2.112 -0.8918  0.1629 -0.4043
 6897TIP3    H142250   0.555   3.820   2.105 -0.4217  0.4883 -1.9185
 6897TIP3    H242251   0.703   3.794   2.089 -0.0810 -0.1961  1.6228
 6898TIP3   OH242252   5.026   6.001   8.639 -0.0588 -0.1679 -0.0522
 6898TIP3    H142253   4.931   6.005   8.632 -0.2479 -0.2301  1.9929
 6898TIP3    H242254   5.048   6.055   8.715  1.4428 -0.9070  0.0918
 6899TIP3   OH242255   1.631   3.247   7.694 -0.7742 -0.4566 -0.3874
 6899TIP3    H142256   1.687   3.212   7.764 -1.1154  0.0586  0.1538
 6899TIP3    H242257   1.692   3.271   7.624 -0.1763  1.0454  0.5885
 6900TIP3   OH242258   0.886   2.801   1.431  0.0753  0.1201  0.1214
 6900TIP3    H142259   0.890   2.795   1.526  0.0498  0.4090  0.1397
 6900TIP3    H242260   0.850   2.888   1.413  2.1943  0.9874 -0.1895
 6901TIP3   OH242261   2.513   1.887   0.928 -0.0644 -0.1047  0.1295
 6901TIP3    H142262   2.510   1.971   0.882  1.1271 -0.0346  0.1568
 6901TIP3    H242263   2.573   1.901   1.002 -1.1595 -0.5064  1.1342
 6902TIP3   OH242264   3.359   0.581   3.481  0.1757 -0.3194 -0.0221
 6902TIP3    H142265   3.426   0.564   3.415 -0.4684 -0.3294 -0.6918
 6902TIP3    H242266   3.305   0.501   3.481 -0.0059 -0.1996  0.3045
 6903TIP3   OH242267   0.311   2.009   8.649 -0.4143  0.2364 -0.2826
 6903TIP3    H142268   0.366   1.942   8.690 -0.8018 -0.1498 -0.3895
 6903TIP3    H242269   0.374   2.068   8.606 -0.0646  0.0128 -0.0856
 6904TIP3   OH242270   5.603   5.754   1.187  0.2189  0.2996 -0.0339
 6904TIP3    H142271   5.598   5.840   1.144  0.7622  0.2707 -0.1549
 6904TIP3    H242272   5.567   5.693   1.124 -2.2389  0.7108  0.8592
 6905TIP3   OH242273   5.924   4.273   8.397  0.0251  0.1435 -0.2592
 6905TIP3    H142274   5.957   4.354   8.357  0.8668 -0.7512 -1.4601
 6905TIP3    H242275   6.002   4.224   8.421 -0.4291  0.7541  2.9276
 6906TIP3   OH242276   0.739   1.868   2.038  0.0083 -0.2679  0.7238
 6906TIP3    H142277   0.786   1.889   2.119  0.2777  1.9835  0.0455
 6906TIP3    H242278   0.648   1.889   2.058  0.2004  1.1707  0.2145
 6907TIP3   OH242279   1.447   0.346   2.291  0.1016  0.0051  0.1280
 6907TIP3    H142280   1.381   0.415   2.296 -0.5018 -0.2873 -2.3003
 6907TIP3    H242281   1.515   0.373   2.353 -0.4527  2.4252 -0.2088
 6908TIP3   OH242282   3.486   4.965   8.672  0.0403  0.2074  0.2901
 6908TIP3    H142283   3.482   4.872   8.695  2.2445  0.4177  1.9119
 6908TIP3    H242284   3.517   5.008   8.752 -0.4597  2.2914 -0.5724
 6909TIP3   OH242285   6.775   5.613   7.097 -0.2086  0.0320  0.4770
 6909TIP3    H142286   6.810   5.638   7.183  1.0136  0.9421 -0.2636
 6909TIP3    H242287   6.760   5.696   7.052 -0.0506 -0.4574 -0.5050
 6910TIP3   OH242288   0.529   4.275   3.081 -0.1857 -0.1843 -0.5930
 6910TIP3    H142289   0.621   4.290   3.103 -0.0947 -0.7401 -0.5711
 6910TIP3    H242290   0.528   4.188   3.042 -0.4911  0.4033 -1.9586
 6911TIP3   OH242291   2.355   1.268   2.338  0.0361  0.0337  0.3269
 6911TIP3    H142292   2.412   1.191   2.329  0.2169  0.1686  0.3201
 6911TIP3    H242293   2.300   1.265   2.260  0.2105  0.0469  0.2018
 6912TIP3   OH242294   0.865   3.730   0.040  0.5120  0.2750 -0.2793
 6912TIP3    H142295   0.794   3.793   0.052  0.2190  0.3401 -2.0791
 6912TIP3    H242296   0.855   3.699  -0.051  3.8170  1.5753 -1.2237
 6913TIP3   OH242297   6.019   2.511   7.787 -0.3373 -0.2567 -0.4645
 6913TIP3    H142298   5.987   2.543   7.703  0.5768  0.5232 -0.5348
 6913TIP3    H242299   5.975   2.566   7.852 -0.4426 -0.3256 -0.4783
 6914TIP3   OH242300   2.454   5.189   1.691  0.6682 -0.1932 -0.4135
 6914TIP3    H142301   2.510   5.163   1.764  1.1694 -1.7220 -1.3017
 6914TIP3    H242302   2.491   5.272   1.660  2.5621 -1.2611 -1.0934
 6915TIP3   OH242303   0.311   3.818   1.974 -0.0211  0.3244 -0.5126
 6915TIP3    H142304   0.217   3.807   1.965  0.0752 -0.2649 -0.9077
 6915TIP3    H242305   0.324   3.857   2.060 -0.6768  1.1931 -0.7990
 6916TIP3   OH242306   6.097   2.055   2.039 -0.2991  0.2299  0.2353
 6916TIP3    H142307   6.127   2.145   2.025  0.1520 -0.1127 -1.1245
 6916TIP3    H242308   6.170   2.000   2.010 -0.5335 -0.5826  1.1489
 6917TIP3   OH242309   1.322   6.240   2.929 -0.1168 -0.0874  0.4159
 6917TIP3    H142310   1.230   6.266   2.936 -0.0715 -0.0314  0.8366
 6917TIP3    H242311   1.359   6.299   2.864 -0.1056  0.6566  1.0883
 6918TIP3   OH242312   3.161   3.016   7.325 -0.2134 -0.4055 -0.1508
 6918TIP3    H142313   3.114   3.061   7.254  0.2547 -0.3878 -0.4576
 6918TIP3    H242314   3.096   2.959   7.365 -0.3720 -0.7634 -0.8968
 6919TIP3   OH242315   1.256   2.170   1.269 -0.2325  0.4200 -0.7366
 6919TIP3    H142316   1.335   2.117   1.275 -1.1169 -0.8665 -0.0021
 6919TIP3    H242317   1.252   2.198   1.177  1.2288  0.7967 -0.7041
 6920TIP3   OH242318   1.134   6.623   2.524 -0.1553  0.0988 -0.1107
 6920TIP3    H142319   1.153   6.650   2.614  2.1271  0.7010 -0.7187
 6920TIP3    H242320   1.218   6.594   2.488 -0.5070  1.9413 -2.7330
 6921TIP3   OH242321   6.597   3.439   0.957 -0.1969  0.4272  0.1582
 6921TIP3    H142322   6.618   3.360   1.007  0.1993  0.1599 -0.4076
 6921TIP3    H242323   6.683   3.477   0.936 -0.3833  0.9548  0.3418
 6922TIP3   OH242324   3.490   6.460   8.063 -0.4305  0.0625 -0.4207
 6922TIP3    H142325   3.548   6.510   8.006  0.4211 -0.2637  0.1400
 6922TIP3    H242326   3.530   6.466   8.150 -2.3990  1.6872  0.4741
 6923TIP3   OH242327   3.573   1.262   1.252  0.4774  0.3633  0.5690
 6923TIP3    H142328   3.630   1.186   1.244  0.1991  0.1087  0.9405
 6923TIP3    H242329   3.486   1.229   1.228  0.2796  0.4550  1.1445
 6924TIP3   OH242330   5.641   4.820   1.954 -0.1834  0.5394 -0.1735
 6924TIP3    H142331   5.671   4.876   1.883 -1.4216  1.4988  0.0158
 6924TIP3    H242332   5.632   4.879   2.029 -1.1458  0.0357  0.1300
 6925TIP3   OH242333   4.926   5.406   1.756  0.3132  0.4410 -0.2412
 6925TIP3    H142334   4.947   5.343   1.687 -0.7064 -1.0875  0.7771
 6925TIP3    H242335   4.881   5.477   1.711 -1.1787 -0.9639 -1.0543
 6926TIP3   OH242336   5.622   6.516   1.389 -0.0429 -0.2992  0.2631
 6926TIP3    H142337   5.633   6.421   1.397  1.1052 -0.0991  1.1981
 6926TIP3    H242338   5.683   6.542   1.320 -0.8528 -0.3037 -0.4858
 6927TIP3   OH242339   3.271   0.603   2.811  0.2226 -0.0551  0.3639
 6927TIP3    H142340   3.305   0.513   2.803 -0.0896 -0.1756  0.3846
 6927TIP3    H242341   3.336   0.648   2.864 -1.4364 -1.2412  3.6686
 6928TIP3   OH242342   4.118   4.626   0.007 -0.0872 -0.6230  0.6983
 6928TIP3    H142343   4.178   4.587  -0.056  0.9164 -0.7785  1.6982
 6928TIP3    H242344   4.033   4.625  -0.036  0.5904 -0.5538 -0.7012
 6929TIP3   OH242345   5.261   0.369   1.878 -0.0475 -0.9602  0.7934
 6929TIP3    H142346   5.335   0.315   1.848  0.2169  0.1456 -0.6764
 6929TIP3    H242347   5.290   0.459   1.862 -1.3221 -0.4796  1.1449
 6930TIP3   OH242348   2.443   2.309   7.765 -0.2335  0.2425 -0.0111
 6930TIP3    H142349   2.534   2.285   7.744  0.2983  1.8681  0.2968
 6930TIP3    H242350   2.394   2.285   7.686  0.7168  0.6204 -0.7508
 6931TIP3   OH242351   0.879   3.017   7.578 -0.4014 -0.3035 -0.7783
 6931TIP3    H142352   0.872   3.079   7.650 -1.8374 -1.2074 -0.0878
 6931TIP3    H242353   0.946   3.054   7.520 -2.0865  2.5772 -1.0833
 6932TIP3   OH242354   5.246   2.947   8.342 -0.3212  0.4224  0.3671
 6932TIP3    H142355   5.279   2.974   8.427 -1.1273  0.8867  0.5439
 6932TIP3    H242356   5.271   3.018   8.282 -1.0420  0.8153  0.5175
 6933TIP3   OH242357   2.546   2.692   1.556  0.2194 -0.4706 -0.0868
 6933TIP3    H142358   2.503   2.769   1.519  2.5342  0.1652 -1.7080
 6933TIP3    H242359   2.612   2.728   1.615  0.6556 -1.2424 -0.0933
 6934TIP3   OH242360   3.857   0.514   8.177  0.1092 -0.0958  0.1727
 6934TIP3    H142361   3.805   0.479   8.249 -0.5359  1.5361  0.5400
 6934TIP3    H242362   3.936   0.549   8.218 -0.1761  0.6739  0.0759
 6935TIP3   OH242363   5.981   0.362   8.239  0.2436 -1.2294 -0.4123
 6935TIP3    H142364   6.044   0.421   8.281  0.1875 -0.0451 -1.9049
 6935TIP3    H242365   6.027   0.327   8.163  0.0558 -2.6627  0.1025
 6936TIP3   OH242366   4.560   0.210   1.967  0.7723  0.3375  0.4976
 6936TIP3    H142367   4.476   0.165   1.960  0.7346  0.7016 -2.1505
 6936TIP3    H242368   4.542   0.283   2.026 -0.9317  0.7104 -0.4178
 6937TIP3   OH242369   3.635   3.893   8.204 -0.1833  0.3424  0.2758
 6937TIP3    H142370   3.677   3.973   8.174  0.3632 -0.3622 -0.8926
 6937TIP3    H242371   3.555   3.923   8.248  0.0666  1.5275 -0.0494
 6938TIP3   OH242372   3.626   3.353   0.237 -0.0447 -0.0621 -0.1222
 6938TIP3    H142373   3.700   3.414   0.226  1.9780 -2.2161  0.7160
 6938TIP3    H242374   3.561   3.383   0.174  1.3711  2.1667 -0.6460
 6939TIP3   OH242375   5.760   6.452   0.406 -0.0314 -0.3931 -0.2869
 6939TIP3    H142376   5.750   6.386   0.474 -1.3686  0.6899  0.6167
 6939TIP3    H242377   5.677   6.452   0.359 -0.3764  1.1643  0.2521
 6940TIP3   OH242378   1.923   6.490   8.249  0.5763  0.1933  0.2596
 6940TIP3    H142379   1.885   6.428   8.187  0.6722  0.8997 -0.5163
 6940TIP3    H242380   1.997   6.443   8.287 -0.7313 -1.0248  1.4409
 6941TIP3   OH242381   4.934   5.953   0.701  0.4814 -0.2344 -0.1864
 6941TIP3    H142382   4.966   5.959   0.611  0.4013  1.3671 -0.1292
 6941TIP3    H242383   5.013   5.933   0.753  0.7264 -0.0615 -0.4888
 6942TIP3   OH242384   4.920   5.528   0.314  0.0713 -0.1388  0.6715
 6942TIP3    H142385   4.892   5.474   0.240 -0.7522 -0.9753  1.5457
 6942TIP3    H242386   4.860   5.503   0.385  0.7691  0.7070  1.5880
 6943TIP3   OH242387   3.722   3.631   0.114  0.1334 -0.5819 -0.0738
 6943TIP3    H142388   3.778   3.709   0.118  3.9790 -3.0434 -0.3815
 6943TIP3    H242389   3.710   3.605   0.205  0.5430 -0.7069 -0.0543
 6944TIP3   OH242390   3.086   0.410   1.974 -0.4941 -0.0139 -0.4760
 6944TIP3    H142391   3.104   0.499   2.003 -1.0007 -0.4297  1.2604
 6944TIP3    H242392   3.122   0.405   1.885 -0.9021  2.0386 -0.7871
 6945TIP3   OH242393   1.786   4.431   7.947 -0.6217  0.0805 -0.2693
 6945TIP3    H142394   1.789   4.360   8.011 -0.1593  1.5997  1.4782
 6945TIP3    H242395   1.845   4.498   7.983 -1.0391  1.3439 -1.8514
 6946TIP3   OH242396   3.690   6.165   0.771  0.0680 -0.0948  0.1261
 6946TIP3    H142397   3.643   6.215   0.703 -0.6638  0.1033  0.7630
 6946TIP3    H242398   3.621   6.129   0.826  0.6586 -0.2377  0.7860
 6947TIP3   OH242399   3.803   4.969   8.024  0.0747 -0.2699  0.5567
 6947TIP3    H142400   3.729   5.023   7.997  0.9782  2.4510  2.9769
 6947TIP3    H242401   3.861   4.968   7.947 -0.7479  0.7831 -0.1025
 6948TIP3   OH242402   4.375   1.499   0.218  0.4096  0.1851  0.5720
 6948TIP3    H142403   4.457   1.486   0.265 -0.2377  0.8160  1.9232
 6948TIP3    H242404   4.307   1.479   0.282 -0.5082  1.7448  0.1357
 6949TIP3   OH242405   5.741   3.477   1.264 -0.0315  0.1818 -0.0935
 6949TIP3    H142406   5.653   3.499   1.294  0.7193  0.6813  1.8978
 6949TIP3    H242407   5.737   3.384   1.242 -0.6695 -0.2135  1.5694
 6950TIP3   OH242408   1.517   3.169   0.709  0.0339  0.2478  0.0205
 6950TIP3    H142409   1.440   3.121   0.737  0.0704 -0.1194 -0.4922
 6950TIP3    H242410   1.485   3.230   0.642  0.2326 -0.1228 -0.4195
 6951TIP3   OH242411   1.297   2.171   7.564  0.3609 -0.0521 -0.7349
 6951TIP3    H142412   1.351   2.198   7.490 -0.5241  1.7419 -0.7947
 6951TIP3    H242413   1.332   2.086   7.590  1.4750 -0.1519 -2.4245
 6952TIP3   OH242414   2.407   2.093   2.498  0.2649  0.1583 -0.6444
 6952TIP3    H142415   2.400   2.173   2.551 -0.9228 -0.7334  0.6298
 6952TIP3    H242416   2.349   2.030   2.542 -1.1097 -0.5280 -3.2562
 6953TIP3   OH242417   5.727   1.719   0.623 -0.1009  0.4598 -0.2023
 6953TIP3    H142418   5.660   1.651   0.615  0.5341 -0.0579 -1.4156
 6953TIP3    H242419   5.754   1.736   0.533  0.9071  1.1585  0.2195
 6954TIP3   OH242420   0.189   3.470   2.068 -0.5613 -0.3992 -0.1244
 6954TIP3    H142421   0.138   3.549   2.089  0.2963  0.0275  0.4155
 6954TIP3    H242422   0.187   3.465   1.973  1.2033  1.5419 -0.3265
 6955TIP3   OH242423   5.838   2.348   2.998 -0.2914  0.4165  0.4191
 6955TIP3    H142424   5.924   2.355   3.038  0.5665 -0.7945 -1.1073
 6955TIP3    H242425   5.809   2.259   3.017  0.1317 -0.1837 -1.5362
 6956TIP3   OH242426   4.925   2.709   7.799  0.5617  0.1332  1.0394
 6956TIP3    H142427   4.995   2.739   7.857  0.5012  1.7494  0.3334
 6956TIP3    H242428   4.950   2.743   7.713 -2.5138  3.5250  1.2237
 6957TIP3   OH242429   1.204   3.471   2.175  0.7214 -0.3956  0.5815
 6957TIP3    H142430   1.203   3.474   2.271  0.0472 -3.0608  0.7308
 6957TIP3    H242431   1.113   3.486   2.149  0.4293 -1.9742  0.5528
 6958TIP3   OH242432   6.684   6.362   7.169 -0.4955 -0.0388 -0.6696
 6958TIP3    H142433   6.610   6.347   7.111  0.6277 -0.7260 -2.0031
 6958TIP3    H242434   6.753   6.305   7.134 -0.6184 -2.9225  3.0954
 6959TIP3   OH242435   5.163   2.440   3.121  0.1860  0.0688 -0.3701
 6959TIP3    H142436   5.083   2.482   3.089  1.1503  1.3557 -1.1655
 6959TIP3    H242437   5.142   2.416   3.212 -1.2274 -0.0116 -0.6899
 6960TIP3   OH242438   4.391   3.976   0.450 -0.5045 -0.0085 -0.0749
 6960TIP3    H142439   4.379   3.988   0.544  1.6497 -0.1885  0.2752
 6960TIP3    H242440   4.477   3.936   0.441  0.8319  2.9013 -2.2332
 6961TIP3   OH242441   1.140   3.870   0.039 -0.0788 -0.1824  0.1480
 6961TIP3    H142442   1.168   3.895  -0.049 -1.4902 -0.8955 -0.5403
 6961TIP3    H242443   1.047   3.851   0.030 -0.1954 -0.5240  1.7499
 6962TIP3   OH242444   0.974   1.904   1.268 -0.5025  0.0125  0.3021
 6962TIP3    H142445   1.019   1.858   1.197 -1.0018 -0.1489  0.0854
 6962TIP3    H242446   0.892   1.856   1.279 -0.9341  0.7205  0.2230
 6963TIP3   OH242447   4.930   5.082   0.701 -0.1945  0.5461  0.6070
 6963TIP3    H142448   4.858   5.022   0.683  1.3818 -1.3711  0.3249
 6963TIP3    H242449   4.994   5.064   0.632  0.3383  2.6220  0.4853
 6964TIP3   OH242450   3.951   0.806   0.239 -0.3712 -0.0169 -0.8728
 6964TIP3    H142451   3.880   0.766   0.288 -0.6136  3.2717  1.8596
 6964TIP3    H242452   3.907   0.858   0.171 -0.3581 -0.4940 -1.2496
 6965TIP3   OH242453   1.156   5.177   2.339  0.2545 -0.1740 -0.5226
 6965TIP3    H142454   1.136   5.135   2.256  1.6638  1.0288 -1.5358
 6965TIP3    H242455   1.239   5.137   2.366 -0.3004 -0.7098  0.4364
 6966TIP3   OH242456   5.057   0.632   8.657  0.2494  0.2965  0.0237
 6966TIP3    H142457   5.059   0.701   8.723  2.7000 -0.5966  1.0106
 6966TIP3    H242458   4.975   0.585   8.675  0.2111  0.8853  1.5700
 6967TIP3   OH242459   1.388   5.341   0.832  0.0274 -0.2382 -0.2829
 6967TIP3    H142460   1.339   5.325   0.913  1.3895 -2.0510  0.2690
 6967TIP3    H242461   1.454   5.406   0.855  0.6190 -0.9876  0.1880
 6968TIP3   OH242462   6.700   2.061   2.218  0.1519  0.4949 -0.1901
 6968TIP3    H142463   6.657   2.140   2.251 -0.8194 -0.2878  0.5045
 6968TIP3    H242464   6.789   2.088   2.197  0.0783  1.5905  0.8241
 6969TIP3   OH242465   0.691   5.888   3.109 -0.2679 -0.0848 -0.0345
 6969TIP3    H142466   0.736   5.950   3.052 -0.8349 -0.7201 -1.2232
 6969TIP3    H242467   0.754   5.816   3.120 -0.2762 -0.1054 -0.1220
 6970TIP3   OH242468   4.836   4.783   2.217 -0.2905 -0.1863 -0.5704
 6970TIP3    H142469   4.817   4.851   2.152 -0.2550 -0.9945 -1.4561
 6970TIP3    H242470   4.752   4.738   2.230  0.1973 -1.6380 -1.9991
 6971TIP3   OH242471   4.664   1.963   1.993  0.3635  0.1120 -0.1590
 6971TIP3    H142472   4.722   1.931   1.924  2.9048 -1.1707  2.3642
 6971TIP3    H242473   4.634   1.884   2.037 -0.4693  0.9171  0.7443
 6972TIP3   OH242474   6.249   4.144   2.818  0.5368  0.1353 -0.0266
 6972TIP3    H142475   6.155   4.122   2.822  0.6103 -0.0729  0.5943
 6972TIP3    H242476   6.293   4.066   2.852  0.8947  0.5459  0.4558
 6973TIP3   OH242477   4.828   1.481   8.036  0.5699 -0.1102 -0.1947
 6973TIP3    H142478   4.821   1.405   7.978 -0.1338  0.7636 -1.2973
 6973TIP3    H242479   4.921   1.487   8.057  1.0168  0.1279 -2.0625
 6974TIP3   OH242480   4.028   6.736   2.263  0.5715  0.1421 -0.1574
 6974TIP3    H142481   4.067   6.684   2.193  0.8546 -1.6540  1.2332
 6974TIP3    H242482   3.943   6.694   2.278 -0.1956  1.5383 -0.5069
 6975TIP3   OH242483   6.679   3.083   1.722  0.1451 -0.0645 -0.8373
 6975TIP3    H142484   6.728   3.086   1.804  0.3586 -0.1692 -0.9612
 6975TIP3    H242485   6.726   3.143   1.663  0.1353 -0.1766 -0.9603
 6976TIP3   OH242486   4.751   5.788   2.064 -0.5112 -0.0578 -0.1524
 6976TIP3    H142487   4.813   5.812   2.133  0.6038 -0.1603 -1.0871
 6976TIP3    H242488   4.730   5.871   2.021 -0.8608 -0.0523  0.0281
 6977TIP3   OH242489   6.734   0.118   1.217 -0.2691  0.2554  1.1045
 6977TIP3    H142490   6.758   0.025   1.210 -0.3943  0.2524  0.6633
 6977TIP3    H242491   6.776   0.159   1.141 -0.5492  0.4872  1.0721
 6978TIP3   OH242492   6.326   2.983   3.505 -0.0005  0.5320 -0.6060
 6978TIP3    H142493   6.290   2.901   3.541  1.7460 -0.0090 -0.0185
 6978TIP3    H242494   6.269   3.051   3.542 -1.0549 -0.3408 -0.5391
 6979TIP3   OH242495   1.385   4.907   7.908 -0.1573  0.0401  0.0862
 6979TIP3    H142496   1.476   4.938   7.906  0.3015 -1.0560  1.6190
 6979TIP3    H242497   1.386   4.828   7.854  0.7943 -2.1426  3.0022
 6980TIP3   OH242498   4.067   3.811   2.891 -0.2358  0.0132 -0.1948
 6980TIP3    H142499   4.042   3.733   2.940 -1.1626  0.4074 -0.0215
 6980TIP3    H242500   4.130   3.856   2.948  0.4363 -0.6822 -0.3721
 6981TIP3   OH242501   3.550   2.409   8.300  0.1386  0.6226 -0.2382
 6981TIP3    H142502   3.622   2.450   8.348 -1.0096  0.7927  1.4249
 6981TIP3    H242503   3.565   2.432   8.208  1.2175  2.1466  0.2904
 6982TIP3   OH242504   2.192   2.045   1.659 -0.6232 -0.2922  0.5073
 6982TIP3    H142505   2.270   2.055   1.714 -1.6492 -0.6022  2.0748
 6982TIP3    H242506   2.166   2.135   1.638  0.0924 -0.1847  0.0462
 6983TIP3   OH242507   1.752   1.172   3.399  0.0616 -0.0712  0.2237
 6983TIP3    H142508   1.708   1.099   3.355  0.7734 -0.1886 -0.3260
 6983TIP3    H242509   1.709   1.250   3.364 -0.2588 -0.2069  0.3105
 6984TIP3   OH242510   5.154   3.739   1.945  0.3667 -0.0791  0.5783
 6984TIP3    H142511   5.202   3.799   1.889 -1.3529  1.5671  0.7643
 6984TIP3    H242512   5.083   3.706   1.890  0.1065 -0.3608  1.0777
 6985TIP3   OH242513   2.525   4.494   2.373  0.1476  0.3274  0.4846
 6985TIP3    H142514   2.602   4.447   2.339  0.1597  0.3774  0.4415
 6985TIP3    H242515   2.561   4.560   2.431  0.0591 -0.6074  1.6412
 6986TIP3   OH242516   0.602   0.839   8.086  0.7847 -0.3164  0.5137
 6986TIP3    H142517   0.625   0.783   8.011  0.3030  1.8469 -1.3627
 6986TIP3    H242518   0.681   0.890   8.102 -0.0000  1.3234 -0.5462
 6987TIP3   OH242519   5.365   3.024   8.061  0.3002 -0.5486 -0.2871
 6987TIP3    H142520   5.375   3.045   7.968  0.3696 -1.9772 -0.6159
 6987TIP3    H242521   5.299   2.956   8.063  1.6809 -1.9248  0.5127
 6988TIP3   OH242522   2.811   4.371   8.696  0.6234  0.7441 -0.4014
 6988TIP3    H142523   2.879   4.398   8.635  0.0474  1.4746 -0.7309
 6988TIP3    H242524   2.747   4.442   8.695  0.4295  0.6176  0.7932
 6989TIP3   OH242525   5.290   6.675   3.213  0.5546  0.4701 -0.3910
 6989TIP3    H142526   5.216   6.693   3.154  0.5574  1.5039 -0.0952
 6989TIP3    H242527   5.259   6.602   3.267  0.3590 -0.1530 -1.3209
 6990TIP3   OH242528   0.594   2.389   0.530  0.1732  0.0931 -0.3596
 6990TIP3    H142529   0.499   2.402   0.524 -0.0499 -1.5916 -1.0032
 6990TIP3    H242530   0.609   2.305   0.486  2.2872  1.5438 -2.6076
 6991TIP3   OH242531   0.096   5.887   1.058 -0.1795  0.1314 -0.6021
 6991TIP3    H142532   0.045   5.956   1.015  0.9569  0.1174 -2.0545
 6991TIP3    H242533   0.094   5.910   1.150 -1.4771  1.0009 -0.8131
 6992TIP3   OH242534   0.420   3.650   0.481 -0.0464  0.3650  0.2538
 6992TIP3    H142535   0.334   3.609   0.469 -0.7133  1.6586  0.4277
 6992TIP3    H242536   0.476   3.579   0.511 -1.3264 -0.2884  1.2042
 6993TIP3   OH242537   4.628   3.800   2.952  0.1528 -1.0980 -0.3874
 6993TIP3    H142538   4.592   3.886   2.974 -1.2076 -0.8975 -3.0001
 6993TIP3    H242539   4.614   3.748   3.031 -0.5908  0.5967  0.6628
 6994TIP3   OH242540   1.462   1.314   1.469  0.1038  0.0895  1.0552
 6994TIP3    H142541   1.390   1.328   1.531 -0.6047  0.0304  0.2568
 6994TIP3    H242542   1.507   1.236   1.502 -1.9442 -1.6470 -0.0144
 6995TIP3   OH242543   1.337   1.963   1.561  0.6806  0.1078 -0.5253
 6995TIP3    H142544   1.321   1.994   1.650  1.2035  1.4383 -0.8732
 6995TIP3    H242545   1.250   1.938   1.529  0.4268  0.0058  0.2197
 6996TIP3   OH242546   1.332   2.622   1.216  0.5824  0.3856 -0.8490
 6996TIP3    H142547   1.287   2.562   1.156 -0.2017 -1.4303  1.3993
 6996TIP3    H242548   1.264   2.650   1.277  1.3216  2.3069 -0.8414
 6997TIP3   OH242549   5.002   4.884   1.906 -0.3642 -0.2713 -0.0405
 6997TIP3    H142550   5.036   4.972   1.918 -0.0942 -0.1627 -1.4377
 6997TIP3    H242551   5.080   4.829   1.896 -0.5330 -0.6486  0.6313
 6998TIP3   OH242552   3.899   3.662   8.263  0.4630 -0.1687 -0.1888
 6998TIP3    H142553   3.881   3.734   8.202  0.0602 -1.2699 -1.4270
 6998TIP3    H242554   3.894   3.702   8.350 -1.0818  1.0387 -0.7778
 6999TIP3   OH242555   2.517   0.838   8.736  0.1640 -0.2646  0.6942
 6999TIP3    H142556   2.607   0.833   8.703  0.1619  0.5907  0.5338
 6999TIP3    H242557   2.466   0.872   8.662 -0.6438 -2.4593  0.1790
 7000TIP3   OH242558   5.483   3.406   1.376 -0.3555 -0.5626  0.2492
 7000TIP3    H142559   5.519   3.318   1.364 -1.1069 -1.2576  2.5616
 7000TIP3    H242560   5.390   3.392   1.395 -1.0903  0.9474 -1.8583
 7001TIP3   OH242561   2.873   2.407   7.923 -0.3955 -0.1443 -0.0127
 7001TIP3    H142562   2.858   2.501   7.915 -1.6656 -0.4304 -1.2122
 7001TIP3    H242563   2.830   2.368   7.847 -0.2447 -1.7423  0.6700
 7002TIP3   OH242564   3.063   5.442   0.841 -0.0053  0.1186  0.3531
 7002TIP3    H142565   3.091   5.533   0.836  1.7141 -0.4399 -2.0521
 7002TIP3    H242566   3.134   5.396   0.886 -1.3710  0.0720  2.5869
 7003TIP3   OH242567   5.183   3.251   7.540  0.0756  0.1335  0.5414
 7003TIP3    H142568   5.258   3.193   7.554  1.6278  2.0370  0.7011
 7003TIP3    H242569   5.152   3.230   7.452 -1.1972 -2.7421  1.5611
 7004TIP3   OH242570   3.971   2.735   1.296  0.2743 -0.3345  0.3357
 7004TIP3    H142571   3.975   2.685   1.214  0.6024  0.6666 -0.2873
 7004TIP3    H242572   3.878   2.740   1.317  0.0873  0.3248 -0.5840
 7005TIP3   OH242573   0.732   1.332   7.264 -0.1650  0.1731 -0.2362
 7005TIP3    H142574   0.649   1.372   7.291  0.3579  1.0993  0.0741
 7005TIP3    H242575   0.799   1.387   7.305  0.6304  0.3579 -1.7208
 7006TIP3   OH242576   2.379   0.832   3.095 -0.2229 -0.8172  0.1981
 7006TIP3    H142577   2.467   0.854   3.125 -0.1146 -1.1841  0.1574
 7006TIP3    H242578   2.321   0.858   3.167 -0.1058 -0.3570  0.1286
 7007TIP3   OH242579   2.278   0.564   0.806  0.6864  0.9774 -0.5641
 7007TIP3    H142580   2.243   0.499   0.745  1.8853  0.3986 -0.6792
 7007TIP3    H242581   2.206   0.624   0.822 -0.4218 -0.3169 -0.5624
 7008TIP3   OH242582   2.433   5.737   8.172 -0.1541  0.0708  0.7604
 7008TIP3    H142583   2.510   5.743   8.229 -1.2441  0.2180  2.2918
 7008TIP3    H242584   2.375   5.676   8.217 -2.1189  2.0994  1.1479
 7009TIP3   OH242585   3.667   6.260   8.315  0.4389 -0.3903 -0.0341
 7009TIP3    H142586   3.685   6.266   8.221  0.5597  0.0188  0.0115
 7009TIP3    H242587   3.654   6.351   8.342 -0.2583 -0.5608  0.2174
 7010TIP3   OH242588   3.671   4.765   7.661  0.3267  0.2922 -0.2957
 7010TIP3    H142589   3.609   4.838   7.659  0.4409  0.3822 -0.6871
 7010TIP3    H242590   3.621   4.692   7.698 -0.0413  0.3416 -0.6818
 7011TIP3   OH242591   3.869   2.099   8.388 -0.6459 -0.1188  0.3223
 7011TIP3    H142592   3.916   2.041   8.329  1.2099 -0.0045  1.6014
 7011TIP3    H242593   3.778   2.070   8.383 -0.2361 -1.2651 -1.1922
 7012TIP3   OH242594   1.033   2.213   2.793 -0.2599  0.0370  0.2856
 7012TIP3    H142595   1.124   2.187   2.780 -0.2030  0.3001  0.1504
 7012TIP3    H242596   0.987   2.132   2.813 -0.4001 -0.4271 -1.7534
 7013TIP3   OH242597   1.767   1.268   0.490  0.5039  0.2131 -0.4724
 7013TIP3    H142598   1.797   1.336   0.550  0.2068 -0.4970  0.5052
 7013TIP3    H242599   1.846   1.217   0.471  0.3717 -0.3084  0.3220
 7014TIP3   OH242600   6.806   4.519   8.045  0.4233 -0.4095 -0.3532
 7014TIP3    H142601   6.785   4.537   8.137 -0.2309 -1.2267 -0.3331
 7014TIP3    H242602   6.806   4.605   8.003 -1.5014 -0.2250 -0.0430
 7015TIP3   OH242603   5.092   3.550   2.651 -0.6453  0.0265 -0.0778
 7015TIP3    H142604   5.141   3.519   2.575  3.1450  1.8112  1.3968
 7015TIP3    H242605   5.039   3.623   2.617 -0.6813 -0.5633 -1.3432
 7016TIP3   OH242606   0.068   2.726   1.161  0.3767 -0.4642 -0.2475
 7016TIP3    H142607   0.100   2.754   1.247  1.8561 -1.1847 -0.5297
 7016TIP3    H242608   0.009   2.796   1.133  0.8586  0.3824  0.7991
 7017TIP3   OH242609   3.749   5.129   0.818  0.0365  0.6968 -0.8040
 7017TIP3    H142610   3.805   5.177   0.757  1.2791  1.2915  0.7595
 7017TIP3    H242611   3.761   5.037   0.795  1.3114  0.8468 -0.7792
 7018TIP3   OH242612   0.142   6.329   8.584 -0.0126 -0.2226  0.4745
 7018TIP3    H142613   0.232   6.361   8.588 -0.0022  0.0253 -1.0676
 7018TIP3    H242614   0.124   6.321   8.490 -1.6328 -0.1804  0.7610
 7019TIP3   OH242615   1.645   5.931   0.754 -0.2067 -0.0832  0.7994
 7019TIP3    H142616   1.712   5.870   0.785  0.8545  0.7697  0.2571
 7019TIP3    H242617   1.562   5.890   0.777  0.3665 -2.9108 -1.6727
 7020TIP3   OH242618   2.372   4.232   1.469  0.5647 -0.8309 -0.2751
 7020TIP3    H142619   2.411   4.171   1.531 -0.5946 -2.0836 -0.7298
 7020TIP3    H242620   2.424   4.312   1.478  1.9362 -1.7733  0.5472
 7021TIP3   OH242621   1.494   4.171   7.939  0.4698  0.0923  0.2173
 7021TIP3    H142622   1.399   4.158   7.944  0.4702 -0.9031 -1.5429
 7021TIP3    H242623   1.531   4.100   7.992  0.2586 -1.2962 -1.4342
 7022TIP3   OH242624   6.144   5.389   3.156 -0.1522  0.0793 -0.1399
 7022TIP3    H142625   6.093   5.398   3.237 -1.4872 -0.3607 -0.9111
 7022TIP3    H242626   6.194   5.308   3.168  0.0098  0.2597  0.4285
 7023TIP3   OH242627   1.145   5.847   2.980 -0.2056  0.8805 -0.0322
 7023TIP3    H142628   1.214   5.912   2.993 -0.9840  1.4231  1.7201
 7023TIP3    H242629   1.148   5.827   2.887  0.5501  2.8682 -0.4867
 7024TIP3   OH242630   6.528   2.905   7.653 -0.2235  0.0020 -0.0284
 7024TIP3    H142631   6.589   2.851   7.603 -0.9707 -0.0147 -0.9526
 7024TIP3    H242632   6.442   2.865   7.638 -0.4921  0.0932  1.1501
 7025TIP3   OH242633   0.150   3.187   2.997 -0.2858 -0.4549 -0.2365
 7025TIP3    H142634   0.059   3.185   2.967  0.1669 -1.4367 -1.6511
 7025TIP3    H242635   0.181   3.098   2.983  0.7915 -0.2244  0.6125
 7026TIP3   OH242636   4.096   6.442   7.688  0.0112 -0.0066  0.2218
 7026TIP3    H142637   4.147   6.498   7.746 -2.3295  1.8634  0.6060
 7026TIP3    H242638   4.084   6.493   7.609 -1.8836 -0.0143  0.4430
 7027TIP3   OH242639   0.700   4.022   7.588 -0.1065 -0.3804 -0.2891
 7027TIP3    H142640   0.642   4.037   7.514  0.2368 -0.3672 -0.5604
 7027TIP3    H242641   0.696   4.103   7.639 -0.9034 -0.6622  0.1000
 7028TIP3   OH242642   0.089   5.394   7.133  0.4604 -0.4408 -0.2601
 7028TIP3    H142643   0.024   5.455   7.098 -0.5593 -1.4998 -0.2810
 7028TIP3    H242644   0.173   5.434   7.113 -0.1627  1.5133  0.7157
 7029TIP3   OH242645   5.210   3.745   7.379  0.2002 -0.0735 -0.3431
 7029TIP3    H142646   5.164   3.673   7.422  0.1134  1.5932  2.6239
 7029TIP3    H242647   5.261   3.703   7.309 -1.2639 -2.7157  0.0500
 7030TIP3   OH242648   5.799   6.796   1.407  0.5489  0.4179 -0.4495
 7030TIP3    H142649   5.803   6.717   1.353  1.7250 -0.8443  1.3684
 7030TIP3    H242650   5.842   6.863   1.354  1.7004 -0.7719 -1.1056
 7031TIP3   OH242651   3.349   1.342   8.158 -0.7228 -0.2793 -0.1078
 7031TIP3    H142652   3.351   1.247   8.150  0.1496 -0.2248 -0.5744
 7031TIP3    H242653   3.255   1.363   8.166 -0.9201 -1.1683  0.0054
 7032TIP3   OH242654   1.696   6.435   7.967 -0.0735 -0.4312  0.3851
 7032TIP3    H142655   1.665   6.400   8.051 -1.8664 -2.2882 -0.9596
 7032TIP3    H242656   1.617   6.466   7.924  0.9019  1.0025 -0.4560
 7033TIP3   OH242657   4.148   0.802   8.140 -0.1454 -0.1044 -0.1705
 7033TIP3    H142658   4.139   0.736   8.209  2.5140  0.8308  1.1945
 7033TIP3    H242659   4.239   0.796   8.113 -0.8208  0.3951 -2.8323
 7034TIP3   OH242660   4.359   6.536   1.921 -0.3118 -0.2617 -0.3579
 7034TIP3    H142661   4.341   6.504   1.833  0.8554  2.2973 -1.6636
 7034TIP3    H242662   4.432   6.482   1.952 -2.4324 -2.9579  0.2379
 7035TIP3   OH242663   5.742   4.195   0.492 -0.1522 -0.0520 -0.5980
 7035TIP3    H142664   5.800   4.122   0.515 -0.2523 -0.2172 -0.8652
 7035TIP3    H242665   5.756   4.259   0.561 -0.6630 -0.6554  0.0798
 7036TIP3   OH242666   2.648   6.302   0.725  0.3254  0.1695  0.1847
 7036TIP3    H142667   2.604   6.356   0.659  0.1254 -0.8728 -0.5526
 7036TIP3    H242668   2.610   6.215   0.714  0.0310  0.0430  1.9248
 7037TIP3   OH242669   5.394   1.179   8.505  0.1791 -0.4064  0.2246
 7037TIP3    H142670   5.418   1.132   8.585  0.1669  0.7495  0.9387
 7037TIP3    H242671   5.477   1.191   8.458  0.1315 -1.4147 -0.1261
 7038TIP3   OH242672   3.402   2.222   1.445  0.4692  0.1074  0.0743
 7038TIP3    H142673   3.311   2.243   1.465  0.4109 -0.1909  0.1325
 7038TIP3    H242674   3.430   2.165   1.517  1.7861  2.9629  2.0135
 7039TIP3   OH242675   2.340   4.350   8.284 -0.2855 -0.0360  0.3945
 7039TIP3    H142676   2.291   4.316   8.359  0.9110 -1.4011  0.5882
 7039TIP3    H242677   2.391   4.275   8.252  1.5388  1.2753  0.0860
 7040TIP3   OH242678   0.449   3.676   0.218  0.5458 -0.2867  0.4110
 7040TIP3    H142679   0.467   3.696   0.310  2.5423 -1.7221  0.4037
 7040TIP3    H242680   0.358   3.646   0.217 -0.2941  2.0644  1.4666
 7041TIP3   OH242681   3.429   0.983   3.347 -0.1732  0.3707  0.7439
 7041TIP3    H142682   3.432   1.050   3.416 -0.7095 -0.3447  1.4832
 7041TIP3    H242683   3.517   0.945   3.347  0.3867  1.5926 -0.2344
 7042TIP3   OH242684   0.302   2.935   0.432  0.6539 -0.7103  0.2227
 7042TIP3    H142685   0.382   2.886   0.414  0.2863 -0.4787 -2.5158
 7042TIP3    H242686   0.232   2.871   0.425  0.3902 -0.3537 -0.5416
 7043TIP3   OH242687   5.532   5.887   8.711  0.3739 -0.4768 -0.1225
 7043TIP3    H142688   5.604   5.868   8.771 -0.3370 -1.2919  0.5048
 7043TIP3    H242689   5.523   5.982   8.714  0.7907 -0.4468  0.5413
 7044TIP3   OH242690   2.652   1.280   1.308 -0.0649 -0.4190 -0.2404
 7044TIP3    H142691   2.652   1.365   1.351  0.7615  1.1085 -2.9915
 7044TIP3    H242692   2.573   1.282   1.253  0.7180 -0.7823 -1.4136
 7045TIP3   OH242693   4.190   3.611   2.672 -0.1143  0.5397  0.6626
 7045TIP3    H142694   4.208   3.615   2.578  0.2562  1.6632  0.7697
 7045TIP3    H242695   4.255   3.669   2.711 -1.6547  1.8185  1.4177
 7046TIP3   OH242696   1.507   5.037   6.941  1.0861  0.1323  0.2076
 7046TIP3    H142697   1.556   5.118   6.953 -0.9268  1.4662 -0.1870
 7046TIP3    H242698   1.490   5.006   7.030  1.1635  0.5814  0.3838
 7047TIP3   OH242699   0.585   5.945   2.786 -0.4908 -0.0190  0.6055
 7047TIP3    H142700   0.572   5.945   2.691 -0.0780 -1.2838  0.5283
 7047TIP3    H242701   0.522   5.881   2.819  0.9475 -1.3612  0.9024
 7048TIP3   OH242702   1.496   0.797   2.328 -0.0344 -0.5200  0.3436
 7048TIP3    H142703   1.417   0.835   2.366 -0.2086 -0.0225 -0.4714
 7048TIP3    H242704   1.543   0.872   2.290  0.0768 -0.9876 -0.4839
 7049TIP3   OH242705   1.444   5.773   0.110 -1.2975 -0.2261  0.5976
 7049TIP3    H142706   1.480   5.696   0.153 -3.9738 -2.5744 -0.9930
 7049TIP3    H242707   1.391   5.816   0.177 -1.3186 -0.8903  1.0077
 7050TIP3   OH242708   4.589   3.418   2.582  0.5305  0.4019  0.1089
 7050TIP3    H142709   4.559   3.330   2.605  0.9126 -0.1756 -1.4999
 7050TIP3    H242710   4.540   3.476   2.641 -3.1014 -0.5255 -1.7030
 7051TIP3   OH242711   5.556   0.860   7.741 -0.5288 -0.4251  0.0635
 7051TIP3    H142712   5.467   0.831   7.760 -0.5930  0.7995  1.8649
 7051TIP3    H242713   5.612   0.787   7.769 -0.8922 -0.6088  0.3112
 7052TIP3   OH242714   3.648   2.174   2.269  0.2156  0.1590 -0.2687
 7052TIP3    H142715   3.716   2.160   2.204  0.0373 -2.8918  0.0474
 7052TIP3    H242716   3.619   2.086   2.294 -1.7996  1.2576  1.7668
 7053TIP3   OH242717   2.229   5.440   8.134  0.1741  0.2917  0.3046
 7053TIP3    H142718   2.234   5.445   8.229  2.2011  1.1949  0.1953
 7053TIP3    H242719   2.189   5.524   8.108  0.9093  0.6501  0.3072
 7054TIP3   OH242720   0.160   2.054   0.911  0.4976 -0.5935 -0.0488
 7054TIP3    H142721   0.127   2.046   0.821 -0.4618 -2.0419  0.3908
 7054TIP3    H242722   0.246   2.095   0.902  0.4017 -0.6722 -1.6210
 7055LIG      O42723   6.442   1.030   0.368  0.1239  0.1486 -0.1216
 7055LIG      N42724   6.143   1.138   0.619 -0.4621  0.8239  0.3482
 7055LIG     C142725   6.452   0.799   0.417 -0.1710 -0.4739  0.7054
 7055LIG     C242726   6.357   0.918   0.393 -0.0057 -0.3914  0.1938
 7055LIG     C342727   6.531   0.749   0.286  0.0917 -0.4237  0.4896
 7055LIG     C442728   6.559   0.806   0.521  0.0390 -0.2840 -0.5194
 7055LIG     C542729   6.281   0.961   0.518  0.2081 -0.1111 -0.4135
 7055LIG     C642730   6.609   0.621   0.300 -0.1281 -0.2977 -0.4610
 7055LIG     C742731   6.650   0.682   0.540 -0.3813 -0.5823 -0.3848
 7055LIG     C842732   6.716   0.637   0.408  0.0542  0.2054  0.7105
 7055LIG     C942733   6.194   1.089   0.490 -0.2382  0.4230  0.0814
 7055LIG    C1042734   6.260   0.884   0.277  0.8421 -0.8924 -0.3202
 7055LIG    C1142735   6.073   1.266   0.594  0.2157 -0.0174 -0.5091
 7055LIG    C1242736   6.076   1.048   0.721  0.9860  0.6702  0.0673
 7055LIG    C1342737   5.927   1.232   0.538  0.0974 -0.5837 -0.2353
 7055LIG    C1442738   5.941   1.014   0.669  0.8132 -0.2238  0.2546
 7055LIG    C1542739   5.852   1.133   0.630 -0.0820 -0.1126  0.1525
 7055LIG    C1642740   6.150   0.798   0.294 -0.2062 -0.0824 -0.6670
 7055LIG    C1742741   6.249   0.971   0.160  1.0634 -0.0649 -0.1958
 7055LIG    C1842742   6.047   0.794   0.205  0.7107  0.1118  0.4092
 7055LIG    C1942743   6.146   0.968   0.064 -0.0019  0.3987 -0.1912
 7055LIG    C2042744   6.046   0.874   0.093 -0.2190 -0.0080  0.4428
 7055LIG     H142745   6.382   0.716   0.437 -1.9346  0.2975 -1.7469
 7055LIG     H242746   6.598   0.832   0.254  0.3203 -1.0374 -0.6862
 7055LIG     H342747   6.459   0.746   0.201 -0.1735 -1.8805  0.7353
 7055LIG     H442748   6.513   0.836   0.618  1.5372  2.8017 -0.6144
 7055LIG     H542749   6.631   0.888   0.497  2.3744 -2.5516 -1.7032
 7055LIG     H642750   6.351   0.984   0.601  0.9389 -1.0399 -0.7422
 7055LIG     H742751   6.212   0.879   0.548  0.1708 -1.2415 -3.2660
 7055LIG     H842752   6.658   0.587   0.207  0.6854  1.7653 -0.8466
 7055LIG     H942753   6.546   0.539   0.342  1.7639 -2.1594 -1.0711
 7055LIG    H1042754   6.586   0.598   0.574 -5.2993  2.3475 -1.5447
 7055LIG    H1142755   6.724   0.703   0.620 -2.0826  2.3164  0.5713
 7055LIG    H1242756   6.775   0.721   0.366  1.4213 -0.6752  0.7959
 7055LIG    H1342757   6.778   0.546   0.425  0.4777  0.0509 -1.3574
 7055LIG    H1442758   6.255   1.169   0.442 -0.5708  0.2951 -0.5710
 7055LIG    H1542759   6.113   1.061   0.419  0.8176 -0.7292 -0.7232
 7055LIG    H1642760   6.136   1.335   0.534  1.1356 -0.8800 -0.5580
 7055LIG    H1742761   6.054   1.313   0.693 -0.4946 -0.9071 -0.2022
 7055LIG    H1842762   6.060   1.116   0.808  0.4329  0.7918 -0.1301
 7055LIG    H1942763   6.138   0.959   0.746 -0.0590 -0.2326 -0.4694
 7055LIG    H2042764   6.496   0.998   0.295  0.6114 -0.5574  0.5304
 7055LIG    H2142765   5.937   1.182   0.440  0.5599 -2.0333  0.5190
 7055LIG    H2242766   5.870   1.328   0.539  0.2378 -0.5014  0.4297
 7055LIG    H2342767   5.884   0.947   0.736  0.1819  0.3228  0.2752
 7055LIG    H2442768   5.950   0.957   0.574  2.4318  0.2581  0.0823
 7055LIG    H2542769   5.762   1.091   0.580 -1.0338  1.3763  0.5522
 7055LIG    H2642770   5.806   1.185   0.716 -3.6349 -0.8937 -1.1028
 7055LIG    H2742771   6.152   0.731   0.379  2.5798  1.1339  0.3614
 7055LIG    H2842772   6.321   1.051   0.167  3.4437 -2.0399 -0.6061
 7055LIG    H2942773   5.962   0.732   0.226 -0.2899  1.3135  0.0059
 7055LIG    H3042774   6.136   1.049  -0.007 -1.4140 -0.1010 -0.6070
 7055LIG    H3142775   5.951   0.882   0.042 -0.4545  1.0883  1.0214
   6.83772   6.83772   8.73759
