Title
42775
    1SAPS     N    1   3.886   4.737   8.032 -0.1381 -0.2592  0.0256
    1SAPS   HN1    2   3.982   4.707   8.062 -0.6978  0.6232  3.1158
    1SAPS   HN2    3   3.857   4.668   7.960  2.5231 -1.2509 -0.2209
    1SAPS   HN3    4   3.896   4.828   7.983  0.1632 -1.0379 -1.4142
    1SAPS   C12    5   3.793   4.730   8.144 -0.8297 -0.0544  0.0599
    1SAPS  H12A    6   3.694   4.729   8.101 -0.5388 -0.0817 -0.6115
    1SAPS   C13    7   3.810   4.607   8.243 -0.5436 -1.2343  0.2806
    1SAPS  O13A    8   3.903   4.520   8.223 -0.1074  0.0759 -0.2580
    1SAPS  O13B    9   3.727   4.584   8.335  0.7906 -0.4676  0.2236
    1SAPS   C11   10   3.808   4.862   8.220  0.3280 -0.9598 -0.0880
    1SAPS  H11A   11   3.915   4.882   8.244  0.1027  2.5717 -1.4321
    1SAPS  H11B   12   3.765   4.858   8.322 -0.7028 -2.2361 -0.5474
    1SAPS     P   13   3.616   5.028   8.134 -0.1529 -0.0962  0.3104
    1SAPS   O13   14   3.539   4.978   8.252  0.3353 -0.2514 -0.1625
    1SAPS   O14   15   3.617   5.177   8.111  0.1799  0.4466  0.3058
    1SAPS   O12   16   3.760   4.973   8.134 -0.2033 -0.6100  0.1712
    1SAPS   O11   17   3.557   4.946   8.011  0.2124  0.0641 -0.0258
    1SAPS    C1   18   3.617   4.940   7.886 -0.6547 -0.2205 -0.1061
    1SAPS    HA   19   3.720   4.979   7.874  0.1288 -2.1791 -0.2211
    1SAPS    HB   20   3.622   4.835   7.849  0.1826 -0.8040  1.5653
    1SAPS    C2   21   3.538   5.023   7.777  0.7472  0.4249  0.1922
    1SAPS    HS   22   3.524   5.123   7.824  0.5460  0.7955 -0.6250
    1SAPS   O21   23   3.414   4.959   7.740  0.5825  0.0259  0.0392
    1SAPS   C21   24   3.317   5.051   7.715  0.2778  0.3102  0.8970
    1SAPS   O22   25   3.318   5.170   7.736  0.2527 -0.6096  0.9321
    1SAPS   C22   26   3.186   4.983   7.670 -0.0661  0.6304 -0.2103
    1SAPS   H2R   27   3.187   4.875   7.697 -0.7349  1.3640  3.2255
    1SAPS   H2S   28   3.108   5.024   7.738  0.8142 -1.3926  2.1803
    1SAPS    C3   29   3.623   5.038   7.647 -0.3388  0.2484 -0.5374
    1SAPS    HX   30   3.642   4.937   7.604  0.3328  0.0930  0.1038
    1SAPS    HY   31   3.724   5.076   7.674 -0.8222  0.2188  1.4591
    1SAPS   O31   32   3.555   5.108   7.538  0.1159  0.6716  0.1512
    1SAPS   C31   33   3.569   5.242   7.543 -0.9139  0.4227  1.0065
    1SAPS   O32   34   3.624   5.299   7.638  0.4095 -0.0265  0.0936
    1SAPS   C32   35   3.487   5.311   7.431  0.4600  0.6895  0.0474
    1SAPS   H2X   36   3.388   5.328   7.479 -0.8180  1.7235 -2.7478
    1SAPS   H2Y   37   3.472   5.236   7.351  1.3240 -0.0807  0.5805
    1SAPS   C23   38   3.164   5.018   7.522  0.3781 -0.3184 -0.3241
    1SAPS   H3R   39   3.165   5.128   7.510  2.1031 -0.5276 -2.6046
    1SAPS   H3S   40   3.063   4.984   7.490  0.8442 -0.4199 -1.7574
    1SAPS   C24   41   3.268   4.959   7.431 -0.3081  0.8116  0.0861
    1SAPS   H4R   42   3.372   4.992   7.451 -0.3292  1.0345 -0.1666
    1SAPS   H4S   43   3.249   4.997   7.328 -0.9376 -1.1248 -0.5688
    1SAPS   C25   44   3.273   4.808   7.441 -0.5714  0.8479  0.0607
    1SAPS   H5R   45   3.306   4.771   7.539 -2.6208  1.0057  0.8599
    1SAPS   C26   46   3.250   4.715   7.344  0.1289 -0.1133 -0.2783
    1SAPS   H6R   47   3.265   4.609   7.370 -1.5782 -0.5757 -1.0305
    1SAPS   C27   48   3.201   4.742   7.204 -0.5980  0.6918  0.1319
    1SAPS   H7R   49   3.288   4.770   7.140 -0.3782  2.4604  1.1312
    1SAPS   H7S   50   3.128   4.825   7.196 -1.0855  0.2747  0.2419
    1SAPS   C28   51   3.124   4.624   7.149  0.4136 -0.1087 -0.2402
    1SAPS   H8R   52   3.087   4.557   7.227  1.3559 -0.3315  0.0226
    1SAPS   C29   53   3.086   4.602   7.021 -0.0523  0.1948 -0.1453
    1SAPS   H9R   54   3.009   4.523   7.014  1.4148 -1.3681  0.5895
    1SAPS  C210   55   3.106   4.684   6.895 -0.5825 -0.3059  0.1799
    1SAPS  H10R   56   3.216   4.688   6.878 -1.0366  0.4986 -3.4599
    1SAPS  H10S   57   3.080   4.789   6.920  2.8459  0.3661  1.5757
    1SAPS  C211   58   3.038   4.633   6.771 -0.1194  0.1228 -1.2068
    1SAPS  H11R   59   3.002   4.530   6.763 -0.9522  0.3873 -0.9654
    1SAPS  C212   60   3.022   4.711   6.664  0.2167  1.0376 -0.5835
    1SAPS  H12R   61   2.974   4.660   6.579  0.2352 -0.7866  0.4425
    1SAPS  C213   62   3.084   4.840   6.629  0.2894 -0.1545  0.0289
    1SAPS  H13R   63   3.180   4.817   6.578 -0.0075  1.9333 -1.6077
    1SAPS  H13S   64   3.115   4.906   6.714  2.2806  0.2565 -0.9514
    1SAPS  C214   65   2.990   4.919   6.540 -0.1812 -0.4847  0.0842
    1SAPS  H14R   66   2.924   4.990   6.591 -1.5094  0.3272 -2.5842
    1SAPS  C215   67   2.985   4.914   6.406  0.1164  0.5717 -0.4292
    1SAPS  H15R   68   2.911   4.976   6.353  0.1196  0.5907 -0.4117
    1SAPS  C216   69   3.039   4.807   6.316 -0.1504 -0.1836  0.0972
    1SAPS  H16R   70   3.086   4.729   6.379  0.3739 -2.4978 -2.9148
    1SAPS  H16S   71   3.125   4.839   6.253  0.2798 -2.7483 -0.7195
    1SAPS  C217   72   2.927   4.738   6.236 -0.6179 -0.4120  0.1101
    1SAPS  H17R   73   2.841   4.708   6.300 -1.1767 -1.8362 -1.2293
    1SAPS  H17S   74   2.954   4.638   6.194 -0.8974 -0.4324 -0.0282
    1SAPS  C218   75   2.884   4.826   6.121 -0.3772 -0.3031  0.5136
    1SAPS  H18R   76   2.967   4.847   6.050  0.8647 -0.1111  1.9850
    1SAPS  H18S   77   2.851   4.921   6.167 -0.6520 -0.5364  0.7983
    1SAPS  C219   78   2.776   4.757   6.038  0.6508 -0.1549 -0.0544
    1SAPS  H19R   79   2.682   4.753   6.097  0.4151 -0.0892 -0.4216
    1SAPS  H19S   80   2.815   4.657   6.011  1.2945 -0.1396  0.7890
    1SAPS  C220   81   2.745   4.831   5.903  0.4742  0.0082 -0.2415
    1SAPS  H20R   82   2.660   4.785   5.848 -2.9254  0.9049  3.7545
    1SAPS  H20S   83   2.835   4.832   5.839  1.5482 -0.4288  1.2022
    1SAPS  H20T   84   2.725   4.936   5.932  0.1407 -1.0243  4.0330
    1SAPS   C33   85   3.539   5.444   7.381 -1.0062 -0.0426 -0.0250
    1SAPS   H3X   86   3.569   5.507   7.468 -0.3746 -0.8372  0.3457
    1SAPS   H3Y   87   3.460   5.493   7.320 -1.2883 -0.6387 -0.1374
    1SAPS   C34   88   3.657   5.421   7.285  0.0379  0.4148  0.3283
    1SAPS   H4X   89   3.600   5.375   7.202 -1.8799  1.3212  1.0667
    1SAPS   H4Y   90   3.722   5.337   7.318 -1.0277 -0.2785  0.7245
    1SAPS   C35   91   3.733   5.547   7.246 -0.3884  0.6377 -0.3596
    1SAPS   H5X   92   3.772   5.590   7.341  0.2900 -1.0692  0.1672
    1SAPS   H5Y   93   3.655   5.615   7.205  0.1245  1.3737 -0.1293
    1SAPS   C36   94   3.854   5.518   7.162 -0.4866  0.0844  0.1702
    1SAPS   H6X   95   3.900   5.423   7.197  0.2949  0.5210  0.3696
    1SAPS   H6Y   96   3.931   5.598   7.164  1.4347 -1.6878  1.6757
    1SAPS   C37   97   3.825   5.482   7.009  0.3386 -0.2284 -0.1439
    1SAPS   H7X   98   3.739   5.411   7.009  1.1389 -1.2261 -0.3781
    1SAPS   H7Y   99   3.902   5.410   6.972 -1.4441 -2.4854  0.2708
    1SAPS   C38  100   3.803   5.594   6.905  0.1328  0.0714  0.1430
    1SAPS   H8X  101   3.905   5.626   6.875  0.4295 -1.2820 -0.3671
    1SAPS   H8Y  102   3.736   5.675   6.939  1.0666  1.4408 -1.1415
    1SAPS   C39  103   3.743   5.528   6.781  0.3911 -0.1036 -0.5884
    1SAPS   H9X  104   3.688   5.605   6.723 -0.2331  0.4083  0.6541
    1SAPS   H9Y  105   3.674   5.443   6.801  1.2145 -0.6193  0.1315
    1SAPS  C310  106   3.842   5.467   6.681  0.0785 -0.0152  0.0716
    1SAPS  H10X  107   3.894   5.374   6.711  1.8758  1.0872  0.5228
    1SAPS  H10Y  108   3.924   5.537   6.654 -1.8321  2.2798 -0.1407
    1SAPS  C311  109   3.776   5.416   6.549  0.3687 -0.1770  0.9039
    1SAPS  H11X  110   3.735   5.509   6.505 -1.4297 -1.1599  0.4007
    1SAPS  H11Y  111   3.695   5.351   6.588  0.5715 -1.0124 -0.0349
    1SAPS  C312  112   3.861   5.345   6.443 -0.4708  0.3653  0.0542
    1SAPS  H12X  113   3.879   5.239   6.469 -1.3340  0.0121 -0.7605
    1SAPS  H12Y  114   3.963   5.390   6.439 -0.3424  0.0840  0.1169
    1SAPS  C313  115   3.790   5.342   6.310 -0.2370 -0.5098 -0.1170
    1SAPS  H13X  116   3.775   5.448   6.280 -2.0693 -0.1264  1.9024
    1SAPS  H13Y  117   3.683   5.313   6.311 -0.6854  1.0173  1.1304
    1SAPS  C314  118   3.870   5.256   6.212 -0.0688  0.0835  0.0203
    1SAPS  H14X  119   3.805   5.235   6.124  0.1905  0.3317 -0.2321
    1SAPS  H14Y  120   3.896   5.157   6.255 -0.3596  0.4985  1.1673
    1SAPS  C315  121   3.998   5.314   6.156  0.3745  0.5320  0.2594
    1SAPS  H15X  122   4.070   5.350   6.232 -0.5362 -0.3526  1.5869
    1SAPS  H15Y  123   3.968   5.389   6.080 -0.7348  0.7369  0.8772
    1SAPS  C316  124   4.076   5.202   6.073  0.0015 -0.8360 -0.1323
    1SAPS  H16X  125   4.115   5.116   6.132  1.6690  0.6783  1.0704
    1SAPS  H16Y  126   4.174   5.246   6.045 -0.2913 -0.2735 -0.2903
    1SAPS  C317  127   4.002   5.166   5.943  0.3110 -0.2185 -0.3554
    1SAPS  H17X  128   3.967   5.255   5.888  1.3825  0.2533 -0.3045
    1SAPS  H17Y  129   3.911   5.109   5.972 -0.0730  0.0805 -0.9712
    1SAPS  C318  130   4.076   5.071   5.850 -0.3054  0.3536 -0.6190
    1SAPS  H18X  131   4.165   5.123   5.810  0.5596 -1.5370 -1.2591
    1SAPS  H18Y  132   4.015   5.033   5.765 -0.8176  0.8444 -0.4785
    1SAPS  H18Z  133   4.113   4.979   5.901 -0.4740  0.1611 -0.8411
    2SAPS     N  134   2.510   1.571   8.046  0.0588 -0.1533 -0.1831
    2SAPS   HN1  135   2.537   1.636   7.970  2.9240 -0.5804  0.3148
    2SAPS   HN2  136   2.409   1.555   8.032 -0.7828  2.2860  2.2861
    2SAPS   HN3  137   2.511   1.619   8.138  0.0992  0.3101 -0.4242
    2SAPS   C12  138   2.586   1.449   8.049 -0.2533  0.5067  0.8041
    2SAPS  H12A  139   2.690   1.469   8.066 -0.6246  2.2212  1.2704
    2SAPS   C13  140   2.532   1.360   8.170  1.0106  0.0798  0.8096
    2SAPS  O13A  141   2.466   1.414   8.260 -0.2690  0.4289 -0.0095
    2SAPS  O13B  142   2.581   1.243   8.183 -0.1059 -0.3202  0.4195
    2SAPS   C11  143   2.572   1.371   7.917  0.0439  0.0328 -0.8374
    2SAPS  H11A  144   2.469   1.332   7.902 -0.4638  1.0288 -0.0789
    2SAPS  H11B  145   2.635   1.281   7.924  2.0648  1.3790 -0.8947
    2SAPS     P  146   2.755   1.441   7.752 -0.1164  0.0305  0.0148
    2SAPS   O13  147   2.829   1.545   7.832 -0.1912 -0.5613 -0.1094
    2SAPS   O14  148   2.809   1.303   7.751  0.1283  0.2416  0.4821
    2SAPS   O12  149   2.604   1.451   7.801  0.2997  0.3576  0.6075
    2SAPS   O11  150   2.745   1.510   7.607  0.1799  0.3544  0.4960
    2SAPS    C1  151   2.874   1.526   7.540  0.5599  0.3936  0.1507
    2SAPS    HA  152   2.897   1.634   7.536 -2.4210  1.1495  0.9268
    2SAPS    HB  153   2.960   1.491   7.602 -0.9300 -0.8111  1.6392
    2SAPS    C2  154   2.890   1.471   7.397  0.1906 -0.2943 -0.4174
    2SAPS    HS  155   2.984   1.515   7.358  0.4161 -0.7080 -0.3386
    2SAPS   O21  156   2.783   1.494   7.300 -0.1827 -0.3130 -0.0667
    2SAPS   C21  157   2.754   1.608   7.263 -0.3434 -0.4623 -0.4711
    2SAPS   O22  158   2.818   1.712   7.293 -0.6679  0.4955  0.6599
    2SAPS   C22  159   2.648   1.597   7.155 -0.5091 -0.0669 -0.8126
    2SAPS   H2R  160   2.677   1.520   7.081 -0.6034 -1.3607  0.4571
    2SAPS   H2S  161   2.556   1.566   7.209 -1.4677  2.1225 -1.0692
    2SAPS    C3  162   2.930   1.322   7.407 -0.5118  0.1832  0.5981
    2SAPS    HX  163   2.851   1.266   7.461 -0.2959 -0.0271  0.6963
    2SAPS    HY  164   3.021   1.312   7.469 -0.4321 -0.8072  0.3527
    2SAPS   O31  165   2.966   1.278   7.278 -0.3540  0.2100  0.0438
    2SAPS   C31  166   2.889   1.187   7.215 -0.4080  0.5817 -0.0377
    2SAPS   O32  167   2.780   1.151   7.258 -0.9305  0.0256  0.3373
    2SAPS   C32  168   2.941   1.141   7.083  0.0479  0.0136 -0.0249
    2SAPS   H2X  169   3.051   1.125   7.084 -0.0826 -0.9766  0.1070
    2SAPS   H2Y  170   2.917   1.228   7.018  1.3179  1.9812  2.0028
    2SAPS   C23  171   2.609   1.733   7.087 -0.5504  0.5740  0.0025
    2SAPS   H3R  172   2.688   1.746   7.010  1.8883  1.1288  2.4686
    2SAPS   H3S  173   2.622   1.814   7.161 -0.9863 -1.7322  2.7698
    2SAPS   C24  174   2.472   1.742   7.022 -0.7539 -0.1221 -0.1556
    2SAPS   H4R  175   2.398   1.742   7.104 -0.6494  3.0466  0.0845
    2SAPS   H4S  176   2.460   1.649   6.963 -0.0053 -0.5746  0.4019
    2SAPS   C25  177   2.449   1.871   6.941  0.5915  0.3801 -0.6476
    2SAPS   H5R  178   2.461   1.959   7.006  0.4042 -1.4514  2.0046
    2SAPS   C26  179   2.425   1.894   6.807  0.0583 -0.1016 -0.0984
    2SAPS   H6R  180   2.422   1.999   6.772  1.5690 -0.2266 -0.6771
    2SAPS   C27  181   2.395   1.798   6.693 -0.2446 -0.3500  0.4959
    2SAPS   H7R  182   2.291   1.762   6.707 -0.6589  0.6206 -0.0583
    2SAPS   H7S  183   2.464   1.712   6.705  1.3896  0.8055 -0.2377
    2SAPS   C28  184   2.416   1.858   6.552  0.1638  0.5560 -0.5312
    2SAPS   H8R  185   2.472   1.952   6.561  1.0863 -0.2126  4.3854
    2SAPS   C29  186   2.385   1.793   6.430 -0.1563 -0.2424  0.7470
    2SAPS   H9R  187   2.400   1.855   6.340 -0.6848 -0.1794  0.6945
    2SAPS  C210  188   2.300   1.672   6.424  0.1001  0.0155  1.1214
    2SAPS  H10R  189   2.215   1.695   6.357  0.1383 -0.4538  0.9068
    2SAPS  H10S  190   2.262   1.639   6.523  0.2922  0.4917  1.3584
    2SAPS  C211  191   2.371   1.545   6.381  0.1389 -0.2316  0.0262
    2SAPS  H11R  192   2.435   1.498   6.457 -0.2568  2.1437  1.9429
    2SAPS  C212  193   2.369   1.489   6.256  0.0482  0.2624  0.2669
    2SAPS  H12R  194   2.431   1.402   6.230 -0.2168 -0.4380  1.8564
    2SAPS  C213  195   2.278   1.541   6.154 -0.2750 -0.0033  0.1150
    2SAPS  H13R  196   2.328   1.523   6.056  2.1695  2.1978  0.8442
    2SAPS  H13S  197   2.289   1.651   6.157  3.1408 -0.2344 -0.2657
    2SAPS  C214  198   2.135   1.487   6.178  0.6468  0.3436 -0.0503
    2SAPS  H14R  199   2.107   1.469   6.283  0.7547  2.4038  0.3808
    2SAPS  C215  200   2.044   1.471   6.083  0.2972  0.7211  0.0473
    2SAPS  H15R  201   1.955   1.417   6.120  1.4793 -1.0514  0.4590
    2SAPS  C216  202   2.063   1.497   5.931  0.2644  0.2244 -0.1094
    2SAPS  H16R  203   2.156   1.553   5.909  1.3822 -0.6693  2.0097
    2SAPS  H16S  204   1.978   1.556   5.891  0.2992  0.2449 -0.1521
    2SAPS  C217  205   2.051   1.361   5.858 -0.4649  0.1529 -0.4572
    2SAPS  H17R  206   1.957   1.309   5.884 -0.7344  0.6378 -0.4579
    2SAPS  H17S  207   2.135   1.296   5.889  0.1454  0.7722 -0.7723
    2SAPS  C218  208   2.069   1.374   5.710  0.0247  0.5112  0.3031
    2SAPS  H18R  209   2.078   1.269   5.674 -1.1607  0.5075 -0.0492
    2SAPS  H18S  210   2.171   1.417   5.708  0.4769 -0.4478  1.6224
    2SAPS  C219  211   1.970   1.455   5.635  0.1475  0.1074  0.6750
    2SAPS  H19R  212   1.951   1.561   5.662 -3.0276  0.3651 -1.9278
    2SAPS  H19S  213   1.870   1.409   5.646  0.4495 -0.7780 -0.1394
    2SAPS  C220  214   2.013   1.467   5.486 -0.9631 -0.9317  0.0922
    2SAPS  H20R  215   2.005   1.377   5.422  1.0935  0.2435 -1.9944
    2SAPS  H20S  216   2.119   1.499   5.481 -1.2634  0.3339  1.2982
    2SAPS  H20T  217   1.950   1.548   5.442  2.7500  2.3847  0.3417
    2SAPS   C33  218   2.879   1.010   7.036  0.2559 -0.0616  0.2936
    2SAPS   H3X  219   2.822   0.965   7.120 -2.0037  3.3727  0.8065
    2SAPS   H3Y  220   2.963   0.945   7.004  0.9347  0.3044  1.2593
    2SAPS   C34  221   2.783   1.041   6.918 -0.1774  0.0647  0.5435
    2SAPS   H4X  222   2.731   1.139   6.932 -2.1818 -0.8453 -0.1556
    2SAPS   H4Y  223   2.718   0.955   6.893  0.4913  0.4297 -2.9036
    2SAPS   C35  224   2.869   1.055   6.790  0.5689 -0.4333 -0.8362
    2SAPS   H5X  225   2.903   0.950   6.777 -1.0570 -1.3539  1.6877
    2SAPS   H5Y  226   2.962   1.114   6.807  1.3421 -1.4913 -1.2429
    2SAPS   C36  227   2.794   1.090   6.664 -0.3238 -0.2025 -0.3243
    2SAPS   H6X  228   2.753   1.193   6.665 -0.6001 -0.2911 -1.2819
    2SAPS   H6Y  229   2.702   1.029   6.660 -0.1964 -0.5102  0.9598
    2SAPS   C37  230   2.875   1.077   6.538 -0.2725 -0.1442 -0.0071
    2SAPS   H7X  231   2.924   0.977   6.533 -2.2333 -1.1014 -1.7118
    2SAPS   H7Y  232   2.951   1.157   6.532 -0.3048 -0.0930  0.2587
    2SAPS   C38  233   2.783   1.108   6.421  0.4021 -1.1691  1.0710
    2SAPS   H8X  234   2.733   1.205   6.438  2.1927  0.4070 -1.9477
    2SAPS   H8Y  235   2.711   1.023   6.422 -1.3335  0.1693 -1.3977
    2SAPS   C39  236   2.862   1.122   6.290 -0.0881 -0.3470  0.1810
    2SAPS   H9X  237   2.885   1.022   6.246  0.9053 -0.2726  0.5120
    2SAPS   H9Y  238   2.949   1.183   6.320  0.4569 -0.9879 -0.0648
    2SAPS  C310  239   2.770   1.189   6.178 -0.0795 -0.2685 -0.6907
    2SAPS  H10X  240   2.767   1.299   6.195  0.3878  0.1840 -3.2231
    2SAPS  H10Y  241   2.664   1.157   6.191 -0.1272  0.6957  1.8259
    2SAPS  C311  242   2.816   1.164   6.035 -0.2612  0.2565 -0.2993
    2SAPS  H11X  243   2.927   1.165   6.030  0.0068 -2.5830  2.2227
    2SAPS  H11Y  244   2.779   1.243   5.965 -1.0537 -1.6613 -2.1496
    2SAPS  C312  245   2.762   1.027   5.989  0.2937 -0.0846  0.7505
    2SAPS  H12X  246   2.651   1.024   5.987  0.0556  3.7580 -0.0992
    2SAPS  H12Y  247   2.797   0.953   6.064  1.2816 -0.4379 -0.0275
    2SAPS  C313  248   2.823   0.990   5.854  0.0231 -0.7492  0.1674
    2SAPS  H13X  249   2.933   0.983   5.862  0.1164  0.5039  0.2045
    2SAPS  H13Y  250   2.806   1.069   5.777  0.4579 -0.5434  0.2785
    2SAPS  C314  251   2.772   0.855   5.796  0.1347 -0.4303 -0.7732
    2SAPS  H14X  252   2.671   0.860   5.750  0.5891 -1.2033 -1.8961
    2SAPS  H14Y  253   2.746   0.793   5.884 -0.1625  1.1732  0.3061
    2SAPS  C315  254   2.860   0.779   5.699 -0.2636  0.1966 -0.0627
    2SAPS  H15X  255   2.806   0.684   5.680 -1.2419  0.8934 -0.8607
    2SAPS  H15Y  256   2.958   0.745   5.737  0.1796 -0.3751 -1.6477
    2SAPS  C316  257   2.885   0.852   5.567  0.1222  0.0946  0.0570
    2SAPS  H16X  258   2.924   0.953   5.588 -0.4232  0.0202  1.5749
    2SAPS  H16Y  259   2.792   0.862   5.506  0.1754 -0.3267 -0.0972
    2SAPS  C317  260   2.985   0.769   5.479 -0.3553  0.3000 -0.4107
    2SAPS  H17X  261   2.943   0.669   5.450 -0.4010  0.3281 -0.4424
    2SAPS  H17Y  262   3.071   0.751   5.546 -0.4348 -0.4880 -0.5055
    2SAPS  C318  263   3.026   0.845   5.355  0.1005  0.4315 -0.1033
    2SAPS  H18X  264   3.112   0.794   5.307  0.1953 -0.7162  1.2291
    2SAPS  H18Y  265   3.044   0.952   5.380 -1.5998  0.8667 -0.6275
    2SAPS  H18Z  266   2.943   0.856   5.282  0.0425 -1.5282 -0.3892
    3SAPS     N  267   4.090   0.901   7.705 -0.0275  0.4997 -0.1624
    3SAPS   HN1  268   4.064   0.916   7.606 -1.6216 -0.1883  0.1202
    3SAPS   HN2  269   4.066   0.803   7.733 -0.9941  0.9518  0.6348
    3SAPS   HN3  270   4.016   0.964   7.742  0.2382  1.3383 -1.0299
    3SAPS   C12  271   4.222   0.958   7.763 -0.0816  0.3327 -0.4820
    3SAPS  H12A  272   4.222   1.060   7.728 -2.0822 -0.1773 -2.2178
    3SAPS   C13  273   4.220   0.958   7.912  0.2300 -0.1768  0.0218
    3SAPS  O13A  274   4.122   0.916   7.982 -0.6910  0.4781  0.2008
    3SAPS  O13B  275   4.322   1.002   7.970  0.2702 -0.6912  0.1391
    3SAPS   C11  276   4.328   0.860   7.711 -0.0230 -0.2813 -0.3725
    3SAPS  H11A  277   4.295   0.755   7.726 -0.9974 -0.2654 -2.1343
    3SAPS  H11B  278   4.414   0.856   7.781 -0.6445 -3.0621  0.3595
    3SAPS     P  279   4.494   0.805   7.516 -0.0798 -0.0689  0.0329
    3SAPS   O13  280   4.627   0.832   7.571  0.6040  0.0493 -0.2670
    3SAPS   O14  281   4.455   0.662   7.504  0.2880  0.0176  0.4512
    3SAPS   O12  282   4.368   0.887   7.582 -0.1841 -0.1954 -0.3006
    3SAPS   O11  283   4.491   0.863   7.378 -0.5137  0.3225  0.8323
    3SAPS    C1  284   4.362   0.877   7.303  0.0434 -0.0404 -0.5134
    3SAPS    HA  285   4.281   0.812   7.342 -0.5346 -0.0987 -1.7500
    3SAPS    HB  286   4.340   0.985   7.313  2.0561  0.1942  2.8010
    3SAPS    C2  287   4.382   0.820   7.159 -0.2695 -0.1127  0.0647
    3SAPS    HS  288   4.401   0.711   7.172  1.5865  0.2341  0.5019
    3SAPS   O21  289   4.482   0.887   7.084 -0.0566 -0.3067 -0.1179
    3SAPS   C21  290   4.538   0.810   6.982  0.1729 -0.1664  0.8284
    3SAPS   O22  291   4.504   0.698   6.955  0.3706  0.2817  0.5253
    3SAPS   C22  292   4.665   0.886   6.925  0.0029  0.1700 -0.4559
    3SAPS   H2R  293   4.725   0.898   7.018 -2.8239 -1.2433  1.7479
    3SAPS   H2S  294   4.718   0.822   6.852  2.7934  0.8292  0.8828
    3SAPS    C3  295   4.246   0.840   7.089  0.2598  0.5446  1.1717
    3SAPS    HX  296   4.215   0.946   7.094 -0.6302  0.5168 -1.8053
    3SAPS    HY  297   4.176   0.786   7.156  0.3294 -0.8354  0.1855
    3SAPS   O31  298   4.240   0.786   6.952  0.1417  0.2463  0.8068
    3SAPS   C31  299   4.199   0.667   6.939  0.2389  0.3543 -0.3973
    3SAPS   O32  300   4.162   0.598   7.032 -0.3485  0.0828  0.0673
    3SAPS   C32  301   4.192   0.635   6.794 -0.3766 -0.4223  0.2708
    3SAPS   H2X  302   4.296   0.652   6.757 -1.6156  1.0974 -2.7924
    3SAPS   H2Y  303   4.119   0.707   6.751  0.0810  0.4259  0.8565
    3SAPS   C23  304   4.647   1.025   6.869  0.3379  0.1151  0.4922
    3SAPS   H3R  305   4.739   1.080   6.842 -1.0708  2.1385 -0.4518
    3SAPS   H3S  306   4.605   1.088   6.950 -0.0000  0.7534 -0.1637
    3SAPS   C24  307   4.561   1.018   6.739 -0.4803  0.1664 -0.1728
    3SAPS   H4R  308   4.468   0.963   6.764 -0.2137  0.2098  0.9294
    3SAPS   H4S  309   4.621   0.971   6.658  0.2159 -2.6015  1.8391
    3SAPS   C25  310   4.519   1.162   6.702 -0.2579 -0.2511  0.0164
    3SAPS   H5R  311   4.483   1.222   6.787  2.2637  1.1387  0.1789
    3SAPS   C26  312   4.542   1.229   6.592 -0.8669 -0.0403 -0.2673
    3SAPS   H6R  313   4.499   1.331   6.590  0.9175  0.7544 -0.1154
    3SAPS   C27  314   4.590   1.186   6.454 -0.4935 -0.2513 -0.1053
    3SAPS   H7R  315   4.512   1.200   6.376  0.3556  1.4732 -0.7074
    3SAPS   H7S  316   4.610   1.077   6.453  3.2749  0.2738  1.2226
    3SAPS   C28  317   4.719   1.241   6.392  0.5211 -0.4088  0.3821
    3SAPS   H8R  318   4.769   1.307   6.464 -0.8291  0.8722  0.1888
    3SAPS   C29  319   4.777   1.213   6.273 -0.4659 -0.2063 -0.3058
    3SAPS   H9R  320   4.868   1.270   6.247 -1.2414  0.7304 -1.0434
    3SAPS  C210  321   4.723   1.124   6.168 -0.8128 -0.1493  0.2927
    3SAPS  H10R  322   4.671   1.035   6.211 -2.0406 -0.2489 -1.3147
    3SAPS  H10S  323   4.811   1.090   6.109 -1.0334  3.7979 -2.7000
    3SAPS  C211  324   4.630   1.189   6.076  0.0806 -0.8631 -0.7795
    3SAPS  H11R  325   4.532   1.180   6.124  0.2169 -2.3442 -0.7155
    3SAPS  C212  326   4.649   1.246   5.956  0.3892 -0.8759  0.4558
    3SAPS  H12R  327   4.561   1.281   5.900  0.3491 -0.3904  0.8192
    3SAPS  C213  328   4.781   1.271   5.882 -0.5704  0.6028  0.1017
    3SAPS  H13R  329   4.820   1.180   5.833 -1.0380 -0.7759  2.1755
    3SAPS  H13S  330   4.864   1.298   5.951  1.0291 -1.3508 -0.9701
    3SAPS  C214  331   4.768   1.390   5.790  0.3489  0.2791 -0.2237
    3SAPS  H14R  332   4.673   1.445   5.798 -0.4587 -0.9018 -1.1555
    3SAPS  C215  333   4.851   1.432   5.700 -0.5344 -0.4402  0.3396
    3SAPS  H15R  334   4.830   1.532   5.658  2.6984  1.1481  2.1118
    3SAPS  C216  335   4.977   1.361   5.662 -0.7074 -0.8231 -0.5122
    3SAPS  H16R  336   5.002   1.384   5.556 -0.0948 -0.8258 -0.3748
    3SAPS  H16S  337   4.988   1.253   5.684  3.1569 -0.1085  2.0570
    3SAPS  C217  338   5.096   1.409   5.736  0.3752  0.0400 -0.4377
    3SAPS  H17R  339   5.180   1.346   5.700 -0.9790 -1.0406 -1.8540
    3SAPS  H17S  340   5.083   1.403   5.846  3.7642 -3.5091 -0.0457
    3SAPS  C218  341   5.142   1.546   5.687 -0.9717 -0.2957  0.2410
    3SAPS  H18R  342   5.070   1.629   5.700  0.7028  1.2976 -0.2550
    3SAPS  H18S  343   5.157   1.548   5.577  1.8893  0.9789  0.5803
    3SAPS  C219  344   5.276   1.594   5.751  0.4206 -0.5664  0.9516
    3SAPS  H19R  345   5.296   1.700   5.727 -2.4259  0.3986  2.4121
    3SAPS  H19S  346   5.243   1.599   5.857 -2.7080 -0.1356  0.0631
    3SAPS  C220  347   5.384   1.497   5.718 -0.4693  0.7365  0.2734
    3SAPS  H20R  348   5.476   1.547   5.757 -0.6170  0.3974  1.0633
    3SAPS  H20S  349   5.389   1.470   5.610  0.6568  0.0309  0.4813
    3SAPS  H20T  350   5.381   1.404   5.778  1.9220  1.3074  1.4305
    3SAPS   C33  351   4.150   0.492   6.757  0.1711  0.1085 -0.2423
    3SAPS   H3X  352   4.040   0.482   6.768  0.3706  0.2344  2.4770
    3SAPS   H3Y  353   4.202   0.420   6.824  1.1527  0.0456 -1.0527
    3SAPS   C34  354   4.170   0.442   6.609  0.1778  0.1382 -0.4355
    3SAPS   H4X  355   4.144   0.335   6.615 -1.3126  0.5600  2.2772
    3SAPS   H4Y  356   4.281   0.448   6.601 -0.0102  1.5719 -3.1443
    3SAPS   C35  357   4.115   0.533   6.514 -0.1319  0.1400 -0.4653
    3SAPS   H5X  358   4.005   0.521   6.526  0.1796 -1.0289  1.8369
    3SAPS   H5Y  359   4.157   0.629   6.554  2.1288 -1.5726  1.6130
    3SAPS   C36  360   4.158   0.512   6.375 -0.5517  0.0178  0.5992
    3SAPS   H6X  361   4.268   0.493   6.375 -0.3733  0.8458 -1.3062
    3SAPS   H6Y  362   4.141   0.609   6.323  0.5329  1.1766  2.3016
    3SAPS   C37  363   4.084   0.398   6.297 -0.1697  0.7338 -0.3591
    3SAPS   H7X  364   4.000   0.441   6.237 -0.2610 -0.8977 -1.4680
    3SAPS   H7Y  365   4.043   0.325   6.371  0.7189  0.9795  0.3816
    3SAPS   C38  366   4.176   0.309   6.217  0.1273  1.3842 -0.2871
    3SAPS   H8X  367   4.116   0.238   6.157  3.5245 -2.3956  0.3318
    3SAPS   H8Y  368   4.237   0.244   6.283 -0.0638  0.3293 -1.1174
    3SAPS   C39  369   4.260   0.385   6.111  0.1667 -0.5358  0.6775
    3SAPS   H9X  370   4.345   0.328   6.068  0.0156  1.9711 -3.4359
    3SAPS   H9Y  371   4.299   0.477   6.160 -0.1817 -0.6128  1.1029
    3SAPS  C310  372   4.168   0.430   5.994 -0.0593 -0.2045 -0.1436
    3SAPS  H10X  373   4.106   0.518   6.023 -0.5200 -0.1359 -1.2854
    3SAPS  H10Y  374   4.103   0.347   5.959  0.0400 -0.8244  1.0925
    3SAPS  C311  375   4.252   0.460   5.866  0.0223 -0.0470  0.6897
    3SAPS  H11X  376   4.310   0.369   5.843 -1.1674 -1.2126  2.0900
    3SAPS  H11Y  377   4.317   0.547   5.889 -0.0842  0.6096 -1.2836
    3SAPS  C312  378   4.172   0.509   5.740  0.0507  0.5786  0.3584
    3SAPS  H12X  379   4.253   0.554   5.680  1.2561 -2.8090 -0.7706
    3SAPS  H12Y  380   4.101   0.586   5.777  0.7656  1.3246  0.1971
    3SAPS  C313  381   4.098   0.396   5.671  0.0274 -0.1093  0.9275
    3SAPS  H13X  382   4.008   0.375   5.732 -0.5523 -0.1544  0.0693
    3SAPS  H13Y  383   4.172   0.313   5.675  0.8827  0.2596 -2.9011
    3SAPS  C314  384   4.062   0.409   5.522 -0.9128 -0.2428 -0.4088
    3SAPS  H14X  385   4.145   0.444   5.457 -0.0197  2.3159  1.9343
    3SAPS  H14Y  386   3.982   0.485   5.508 -0.2752  0.3006 -1.1861
    3SAPS  C315  387   3.998   0.279   5.468  0.4356 -0.0897 -0.3924
    3SAPS  H15X  388   3.905   0.257   5.523  1.6346  1.0637  2.2533
    3SAPS  H15Y  389   4.062   0.191   5.485  0.3175  0.0542  0.8384
    3SAPS  C316  390   3.977   0.275   5.317 -0.3735  0.2446  0.2644
    3SAPS  H16X  391   4.080   0.267   5.276  1.2889 -1.7496  4.2404
    3SAPS  H16Y  392   3.942   0.368   5.268 -0.0246 -0.2168 -0.8894
    3SAPS  C317  393   3.888   0.162   5.266  0.5070  0.0986  0.1403
    3SAPS  H17X  394   3.792   0.157   5.321  0.4595  2.2228  0.3658
    3SAPS  H17Y  395   3.938   0.063   5.264  0.1434 -0.0851  0.1961
    3SAPS  C318  396   3.845   0.184   5.121 -0.6147 -0.0313 -0.2265
    3SAPS  H18X  397   3.790   0.280   5.108 -2.8425 -1.3939 -1.5396
    3SAPS  H18Y  398   3.780   0.105   5.078 -1.1477  0.6660 -0.7229
    3SAPS  H18Z  399   3.934   0.192   5.054 -0.6739 -3.3336 -0.8340
    4SAPS     N  400   1.074   5.219   7.955 -0.3034 -0.1801 -0.2308
    4SAPS   HN1  401   1.083   5.126   8.001  1.0466 -0.6067 -1.2770
    4SAPS   HN2  402   0.993   5.266   7.999 -1.4495 -2.2619  0.0255
    4SAPS   HN3  403   1.042   5.203   7.857 -0.7193 -1.6841  0.1228
    4SAPS   C12  404   1.200   5.306   7.966  0.2737 -0.2749  0.4081
    4SAPS  H12A  405   1.240   5.300   7.866 -0.6105 -0.6240  0.0697
    4SAPS   C13  406   1.160   5.449   8.009 -0.7612  0.7796  0.0278
    4SAPS  O13A  407   1.046   5.482   8.045  0.2902  0.0035 -0.1319
    4SAPS  O13B  408   1.252   5.533   7.978 -0.2100  0.0901 -0.1131
    4SAPS   C11  409   1.296   5.245   8.055 -0.0356  0.4615  0.0368
    4SAPS  H11A  410   1.258   5.261   8.158 -2.1728  1.8210 -0.8745
    4SAPS  H11B  411   1.392   5.298   8.039  0.3834  0.0260  1.0480
    4SAPS     P  412   1.451   5.044   8.020 -0.3027 -0.1718  0.2532
    4SAPS   O13  413   1.560   5.122   8.085  0.0937  0.4941  0.0109
    4SAPS   O14  414   1.437   4.906   8.061 -0.3058  0.4217  0.1774
    4SAPS   O12  415   1.306   5.107   8.033 -0.7365  0.5279 -0.1949
    4SAPS   O11  416   1.466   5.059   7.861 -0.0856  0.2302 -0.0581
    4SAPS    C1  417   1.359   4.997   7.787  0.1434 -0.2091 -0.7277
    4SAPS    HA  418   1.360   4.887   7.803  3.0051  0.0745  1.8284
    4SAPS    HB  419   1.263   5.040   7.824 -0.0144 -0.3860 -0.9264
    4SAPS    C2  420   1.369   5.015   7.633 -0.4144 -0.2126 -0.0036
    4SAPS    HS  421   1.283   4.952   7.601 -1.0657  0.3043  0.6652
    4SAPS   O21  422   1.496   4.966   7.579 -0.3715 -0.3562 -0.3019
    4SAPS   C21  423   1.505   4.835   7.555  0.1850 -0.6445  0.1314
    4SAPS   O22  424   1.411   4.755   7.562 -0.1218  0.3124 -0.3862
    4SAPS   C22  425   1.647   4.812   7.496  0.5847 -0.8245 -0.2658
    4SAPS   H2R  426   1.718   4.898   7.501 -1.4454  0.9681 -0.6688
    4SAPS   H2S  427   1.686   4.735   7.566 -2.0950 -0.6670  1.5722
    4SAPS    C3  428   1.339   5.163   7.589 -0.6974 -0.3537  0.5582
    4SAPS    HX  429   1.412   5.224   7.647  0.0897 -0.0173 -0.7635
    4SAPS    HY  430   1.244   5.206   7.629 -0.3385  3.0416 -1.7794
    4SAPS   O31  431   1.366   5.197   7.451  0.0831  0.1957  0.2606
    4SAPS   C31  432   1.274   5.154   7.371  0.4738 -0.0922 -0.2632
    4SAPS   O32  433   1.175   5.088   7.410  0.0768  0.1910  0.3569
    4SAPS   C32  434   1.313   5.175   7.219 -0.0271 -0.4485 -0.3738
    4SAPS   H2X  435   1.345   5.081   7.168 -1.4705 -0.1448 -1.9444
    4SAPS   H2Y  436   1.390   5.255   7.222  0.1595 -0.6120 -0.7077
    4SAPS   C23  437   1.642   4.773   7.347  0.7143  0.0403  0.1256
    4SAPS   H3R  438   1.603   4.669   7.354 -0.7215  0.6534  2.4013
    4SAPS   H3S  439   1.746   4.757   7.311  0.3501  0.8938 -1.3637
    4SAPS   C24  440   1.566   4.862   7.256  0.2196 -0.1449  0.7320
    4SAPS   H4R  441   1.459   4.872   7.281 -0.4933 -0.2308 -1.9584
    4SAPS   H4S  442   1.566   4.826   7.150 -1.7541  2.1501 -0.1388
    4SAPS   C25  443   1.630   4.998   7.250 -0.2718  0.5102 -0.2164
    4SAPS   H5R  444   1.665   5.043   7.344 -0.7653 -0.3377  0.3859
    4SAPS   C26  445   1.652   5.066   7.141  0.0504 -0.1036  0.2024
    4SAPS   H6R  446   1.689   5.169   7.154  0.3612 -0.3642  1.4879
    4SAPS   C27  447   1.623   5.030   6.999  0.1303  0.7476  0.6848
    4SAPS   H7R  448   1.602   5.124   6.945  0.9494  0.1981 -0.6219
    4SAPS   H7S  449   1.528   4.972   6.989 -0.0663  1.0471  0.8001
    4SAPS   C28  450   1.738   4.950   6.937  0.7896 -0.3715 -0.4813
    4SAPS   H8R  451   1.836   4.999   6.952  0.5042 -0.1231  0.6286
    4SAPS   C29  452   1.727   4.847   6.849  0.2020 -0.0890  0.3937
    4SAPS   H9R  453   1.822   4.794   6.833 -0.4794 -1.2944  0.1693
    4SAPS  C210  454   1.604   4.779   6.792  0.0219 -0.4119  0.0896
    4SAPS  H10R  455   1.530   4.854   6.756  0.5920 -0.6834 -1.7338
    4SAPS  H10S  456   1.566   4.712   6.872  0.9153 -0.3310  0.5999
    4SAPS  C211  457   1.653   4.698   6.678  0.1757 -0.0879  0.5408
    4SAPS  H11R  458   1.632   4.742   6.579  0.6651 -3.0195 -0.9605
    4SAPS  C212  459   1.721   4.584   6.684  0.4525 -0.6866 -0.0275
    4SAPS  H12R  460   1.734   4.534   6.587  1.5577 -0.6172  0.0678
    4SAPS  C213  461   1.763   4.505   6.798 -0.7682  0.1625 -0.9051
    4SAPS  H13R  462   1.716   4.404   6.796  0.1730 -0.3226  0.2124
    4SAPS  H13S  463   1.726   4.544   6.896  0.5678 -0.3696 -0.1677
    4SAPS  C214  464   1.905   4.464   6.801  0.1006 -0.7635  0.5649
    4SAPS  H14R  465   1.941   4.396   6.722  0.6461  1.9162 -1.6559
    4SAPS  C215  466   1.984   4.487   6.907  0.3938  0.6549  0.3439
    4SAPS  H15R  467   2.091   4.466   6.889 -0.0388 -0.5586 -0.9929
    4SAPS  C216  468   1.948   4.555   7.036  0.4093  0.3232 -0.0453
    4SAPS  H16R  469   1.855   4.503   7.066  1.6035 -0.5375  2.4499
    4SAPS  H16S  470   1.940   4.665   7.023  0.9364  0.1396 -2.5007
    4SAPS  C217  471   2.047   4.498   7.143  0.3471 -0.9147 -0.3779
    4SAPS  H17R  472   2.151   4.496   7.104  0.5431  0.7792 -0.0039
    4SAPS  H17S  473   2.026   4.391   7.163  0.8783 -1.0368 -0.4526
    4SAPS  C218  474   2.027   4.562   7.288  0.1755 -0.6653 -0.6075
    4SAPS  H18R  475   1.937   4.517   7.335  1.0856 -1.6051  0.2734
    4SAPS  H18S  476   2.013   4.670   7.266 -0.4360 -0.8186 -1.0108
    4SAPS  C219  477   2.155   4.546   7.376  0.7111  0.0826  0.5093
    4SAPS  H19R  478   2.233   4.573   7.301 -0.6236 -1.6645 -1.6453
    4SAPS  H19S  479   2.178   4.442   7.409  0.1080 -0.2536 -0.1153
    4SAPS  C220  480   2.139   4.642   7.492 -0.2411 -0.2938  0.4087
    4SAPS  H20R  481   2.131   4.741   7.443 -0.6605 -1.0952 -1.2150
    4SAPS  H20S  482   2.234   4.644   7.549  0.8128  0.7896 -1.2898
    4SAPS  H20T  483   2.054   4.620   7.560  1.1409  0.7122  2.5766
    4SAPS   C33  484   1.198   5.236   7.130 -0.6438  0.9294 -0.2158
    4SAPS   H3X  485   1.154   5.325   7.181 -0.5346  0.1619  1.2459
    4SAPS   H3Y  486   1.118   5.160   7.118 -0.1120  0.1256  1.1299
    4SAPS   C34  487   1.243   5.269   6.989 -0.4189  1.2257  0.2917
    4SAPS   H4X  488   1.345   5.312   6.994 -0.6749  1.9005 -0.0858
    4SAPS   H4Y  489   1.187   5.353   6.942  0.3975  0.9189 -1.2939
    4SAPS   C35  490   1.246   5.151   6.897 -0.2793  0.1240 -0.0233
    4SAPS   H5X  491   1.144   5.116   6.870 -0.5203  0.3719  0.5436
    4SAPS   H5Y  492   1.309   5.073   6.945  0.1061  1.3535  1.5644
    4SAPS   C36  493   1.317   5.180   6.761 -0.5418  0.2225 -0.2681
    4SAPS   H6X  494   1.311   5.089   6.698 -1.8621  1.4373 -2.0056
    4SAPS   H6Y  495   1.418   5.220   6.786 -1.8231  2.0880  2.3553
    4SAPS   C37  496   1.251   5.293   6.677  0.0931  0.2195  0.3815
    4SAPS   H7X  497   1.233   5.379   6.744  0.5761  1.3482 -0.8832
    4SAPS   H7Y  498   1.156   5.255   6.635  0.4241  0.3338 -0.4954
    4SAPS   C38  499   1.334   5.330   6.556 -0.3180  0.3000  0.7003
    4SAPS   H8X  500   1.337   5.238   6.494  0.6754  0.5922  0.3088
    4SAPS   H8Y  501   1.436   5.345   6.596 -0.7475 -1.4254  2.6103
    4SAPS   C39  502   1.289   5.447   6.475  0.1877 -0.4911  0.9157
    4SAPS   H9X  503   1.291   5.537   6.541  0.3960  1.4919 -1.6262
    4SAPS   H9Y  504   1.184   5.437   6.440  1.0801 -1.8740 -1.7114
    4SAPS  C310  505   1.376   5.479   6.349  0.0184 -0.7568 -1.0217
    4SAPS  H10X  506   1.482   5.496   6.379 -1.3026  0.9654  3.6607
    4SAPS  H10Y  507   1.342   5.574   6.303 -0.1145 -0.7906 -0.9947
    4SAPS  C311  508   1.359   5.375   6.231 -0.7504  0.5244 -0.0891
    4SAPS  H11X  509   1.411   5.281   6.259  0.2682  0.7619 -1.0969
    4SAPS  H11Y  510   1.399   5.421   6.138 -0.9735  0.5802 -0.1591
    4SAPS  C312  511   1.216   5.337   6.188  0.3301  0.4152 -0.0793
    4SAPS  H12X  512   1.158   5.293   6.272  0.6047 -0.7918 -0.5024
    4SAPS  H12Y  513   1.224   5.260   6.109 -1.6525 -0.6375  0.6630
    4SAPS  C313  514   1.140   5.457   6.125  0.0995 -1.3727  0.2333
    4SAPS  H13X  515   1.210   5.480   6.041 -1.5542 -1.7559 -1.3022
    4SAPS  H13Y  516   1.137   5.549   6.187 -3.2707 -1.9941  1.1809
    4SAPS  C314  517   0.992   5.442   6.071 -0.0550  0.8611 -0.0443
    4SAPS  H14X  518   0.924   5.463   6.156 -1.1622 -1.1991 -0.3495
    4SAPS  H14Y  519   0.967   5.337   6.046  0.9731  1.2289 -3.0283
    4SAPS  C315  520   0.975   5.522   5.948  0.5646 -0.6577  0.3935
    4SAPS  H15X  521   1.003   5.627   5.968 -0.2616 -0.7167  2.0398
    4SAPS  H15Y  522   0.865   5.521   5.929  0.5187  4.2909 -0.8789
    4SAPS  C316  523   1.050   5.465   5.827  0.0580  0.3625 -0.6298
    4SAPS  H16X  524   1.042   5.354   5.832 -1.6228  0.2984 -3.1472
    4SAPS  H16Y  525   1.154   5.500   5.844 -0.7647  2.2540  0.9199
    4SAPS  C317  526   0.988   5.515   5.692 -0.1363 -0.5367 -0.0323
    4SAPS  H17X  527   1.068   5.510   5.615  0.4896  0.8553  0.4925
    4SAPS  H17Y  528   0.958   5.620   5.712  1.8881  0.1165 -0.1342
    4SAPS  C318  529   0.871   5.425   5.649  0.0111  0.2338 -0.1635
    4SAPS  H18X  530   0.828   5.458   5.552 -1.5076 -1.8721 -0.2773
    4SAPS  H18Y  531   0.788   5.436   5.721 -0.7285 -0.0125 -0.9679
    4SAPS  H18Z  532   0.895   5.316   5.647 -0.6048  0.0588  1.1835
    5SAPS     N  533   4.226   0.523   7.488  0.3026  0.1736 -0.2223
    5SAPS   HN1  534   4.159   0.589   7.443 -1.4024 -2.6814 -2.1407
    5SAPS   HN2  535   4.314   0.573   7.512  0.3445  0.1867 -0.4005
    5SAPS   HN3  536   4.243   0.455   7.411  0.0105  1.8262 -1.8231
    5SAPS   C12  537   4.170   0.456   7.608 -0.5015 -0.0977  0.9813
    5SAPS  H12A  538   4.245   0.393   7.654 -0.2704  0.9932  2.1536
    5SAPS   C13  539   4.116   0.549   7.717  0.0220  0.2245 -0.8277
    5SAPS  O13A  540   4.032   0.644   7.692 -0.1751  0.8718 -0.1714
    5SAPS  O13B  541   4.098   0.489   7.832 -0.1594  0.1260  0.0552
    5SAPS   C11  542   4.051   0.370   7.563  0.5911  0.6353 -0.2452
    5SAPS  H11A  543   3.973   0.428   7.509  0.1582 -0.3625 -0.7218
    5SAPS  H11B  544   4.016   0.320   7.655  1.6331 -2.0686 -1.2351
    5SAPS     P  545   4.100   0.124   7.476 -0.1377 -0.1471 -0.0408
    5SAPS   O13  546   4.191   0.080   7.581 -0.9631 -0.4399 -0.4141
    5SAPS   O14  547   3.958   0.075   7.492 -0.1053 -0.3088 -0.3691
    5SAPS   O12  548   4.098   0.279   7.468 -0.2791 -0.4997  1.1148
    5SAPS   O11  549   4.156   0.090   7.332 -0.1898 -0.2012  0.3667
    5SAPS    C1  550   4.077   0.155   7.232 -0.1863 -0.1527 -0.0974
    5SAPS    HA  551   3.970   0.177   7.251 -0.6714 -0.7725 -1.9410
    5SAPS    HB  552   4.120   0.255   7.211 -0.0583 -0.1070  0.3834
    5SAPS    C2  553   4.080   0.069   7.105 -0.2842 -0.4835  0.0620
    5SAPS    HS  554   4.010  -0.016   7.123 -3.6035  2.4264  2.0891
    5SAPS   O21  555   4.212   0.021   7.067  0.4160 -0.0994 -0.2341
    5SAPS   C21  556   4.316   0.101   7.040  0.5179  0.0663  0.3350
    5SAPS   O22  557   4.316   0.220   7.029 -0.4517 -0.1884 -0.1113
    5SAPS   C22  558   4.430   0.009   7.025  0.3625  1.1838 -0.3549
    5SAPS   H2R  559   4.481   0.005   7.124 -0.7559 -0.4227  0.2112
    5SAPS   H2S  560   4.400  -0.096   7.008  1.3109  1.0024 -0.9794
    5SAPS    C3  561   4.012   0.146   6.992 -0.1490 -0.2198  0.2771
    5SAPS    HX  562   4.080   0.234   6.984 -2.0871  1.2730 -0.4724
    5SAPS    HY  563   3.906   0.164   7.019 -0.2776  0.8762 -0.8552
    5SAPS   O31  564   4.015   0.073   6.863  0.5165 -0.8676 -0.0998
    5SAPS   C31  565   3.927  -0.029   6.853  0.2264 -0.1710 -0.5750
    5SAPS   O32  566   3.834  -0.049   6.929 -0.0822 -0.4129 -0.1797
    5SAPS   C32  567   3.945  -0.101   6.720  0.2131  0.2068  0.6499
    5SAPS   H2X  568   3.861  -0.173   6.708 -0.6083  1.4575 -1.6129
    5SAPS   H2Y  569   4.044  -0.151   6.713 -0.0401 -0.1483 -0.7284
    5SAPS   C23  570   4.522   0.040   6.906  0.9294 -0.3697  0.1119
    5SAPS   H3R  571   4.620   0.005   6.944  1.2016  2.1894  2.0363
    5SAPS   H3S  572   4.552   0.142   6.875  1.5543 -0.3724  0.6982
    5SAPS   C24  573   4.484  -0.039   6.776  0.5003 -0.2409  0.7602
    5SAPS   H4R  574   4.475  -0.146   6.805  0.4931 -0.1104  1.2492
    5SAPS   H4S  575   4.566  -0.030   6.702 -0.7267 -1.2159 -0.7760
    5SAPS   C25  576   4.355   0.008   6.725  0.3412 -0.7720 -0.3086
    5SAPS   H5R  577   4.295   0.064   6.798  0.8779 -3.6878  2.6016
    5SAPS   C26  578   4.338   0.015   6.589 -0.8017 -0.1214 -0.1011
    5SAPS   H6R  579   4.237   0.042   6.553 -0.3985 -0.5555 -1.6198
    5SAPS   C27  580   4.424  -0.043   6.485  0.4509  0.0422  0.0555
    5SAPS   H7R  581   4.489  -0.117   6.537 -1.1765 -1.4364  0.1116
    5SAPS   H7S  582   4.495   0.029   6.441  0.8342  1.0443  2.1838
    5SAPS   C28  583   4.346  -0.121   6.373  0.2796 -0.3733 -0.3656
    5SAPS   H8R  584   4.257  -0.162   6.423  1.3005 -1.1760  0.8300
    5SAPS   C29  585   4.364  -0.117   6.236  0.6180  0.5789  0.5907
    5SAPS   H9R  586   4.302  -0.180   6.170 -0.7505  2.2821  0.1595
    5SAPS  C210  587   4.468  -0.033   6.171 -0.4771  0.2708  0.9628
    5SAPS  H10R  588   4.559  -0.033   6.234  0.5425 -5.1260 -0.0280
    5SAPS  H10S  589   4.422   0.069   6.168  1.8909  1.3900  0.7627
    5SAPS  C211  590   4.496  -0.090   6.030  0.2171 -0.6400  0.3320
    5SAPS  H11R  591   4.550  -0.186   6.026  0.3749 -0.5040 -1.0770
    5SAPS  C212  592   4.468  -0.045   5.908  0.0259  0.0395  0.3165
    5SAPS  H12R  593   4.513  -0.100   5.824  1.1013  0.6468  0.4897
    5SAPS  C213  594   4.395   0.082   5.869 -0.2011  1.0911 -0.3798
    5SAPS  H13R  595   4.477   0.155   5.852 -0.3309  1.5360  0.7901
    5SAPS  H13S  596   4.328   0.113   5.952 -1.5830 -2.2020 -0.1003
    5SAPS  C214  597   4.312   0.047   5.745  0.0467  0.4095 -0.1986
    5SAPS  H14R  598   4.207   0.021   5.762  0.3239  0.3736  1.6638
    5SAPS  C215  599   4.357   0.057   5.617 -0.1965  0.5126 -0.9106
    5SAPS  H15R  600   4.295   0.015   5.536 -1.4737 -1.3884  0.9497
    5SAPS  C216  601   4.501   0.102   5.578  0.2070 -0.2670  0.6205
    5SAPS  H16R  602   4.579   0.029   5.610 -0.1642 -0.0718  2.0124
    5SAPS  H16S  603   4.517   0.198   5.630 -4.8465 -0.1124  2.3902
    5SAPS  C217  604   4.525   0.130   5.429  0.2432 -0.9784  0.2410
    5SAPS  H17R  605   4.462   0.211   5.387  1.9492 -0.5638 -1.7488
    5SAPS  H17S  606   4.521   0.041   5.362  2.1887 -2.4091  1.8913
    5SAPS  C218  607   4.670   0.179   5.392 -0.3723 -0.4333 -0.1964
    5SAPS  H18R  608   4.746   0.101   5.412  0.4793  0.2610 -0.6501
    5SAPS  H18S  609   4.704   0.266   5.453  0.9564  0.7240 -2.4326
    5SAPS  C219  610   4.665   0.214   5.238  0.2910 -0.0420 -0.1399
    5SAPS  H19R  611   4.747   0.288   5.224  1.0918 -0.3278  2.4739
    5SAPS  H19S  612   4.568   0.264   5.216  1.4377  3.3247  1.6394
    5SAPS  C220  613   4.710   0.097   5.153 -0.3618 -0.6403  0.0711
    5SAPS  H20R  614   4.814   0.078   5.188  0.4860  2.7858 -0.2447
    5SAPS  H20S  615   4.712   0.120   5.045 -0.5894 -0.2231  0.1556
    5SAPS  H20T  616   4.643   0.009   5.167  0.6289 -1.4269 -0.0378
    5SAPS   C33  617   3.919  -0.022   6.592  0.5081 -0.0390  0.3372
    5SAPS   H3X  618   3.997   0.058   6.590  2.7174 -2.0036  2.1499
    5SAPS   H3Y  619   3.819   0.023   6.605  0.1581 -0.4744 -0.7050
    5SAPS   C34  620   3.931  -0.111   6.467 -0.5609  0.2898 -0.4872
    5SAPS   H4X  621   3.836  -0.168   6.459 -1.3998  0.9181  3.1902
    5SAPS   H4Y  622   4.014  -0.184   6.483 -0.7907  0.1203 -0.0420
    5SAPS   C35  623   3.942  -0.029   6.343  0.3554 -0.2697 -1.4636
    5SAPS   H5X  624   3.954  -0.093   6.253 -3.5376 -2.6141 -0.5471
    5SAPS   H5Y  625   4.033   0.034   6.333 -0.2724  0.7074 -1.1420
    5SAPS   C36  626   3.818   0.057   6.308  0.7251 -0.2829 -0.0533
    5SAPS   H6X  627   3.828   0.152   6.366  0.5992 -0.5478  0.4023
    5SAPS   H6Y  628   3.731  -0.006   6.336  0.3588 -0.8703 -2.3221
    5SAPS   C37  629   3.813   0.080   6.156  0.3522 -0.4685 -0.7472
    5SAPS   H7X  630   3.784  -0.022   6.122  2.4887 -0.7070 -1.9845
    5SAPS   H7Y  631   3.911   0.110   6.114 -0.2301  1.2185 -0.9765
    5SAPS   C38  632   3.704   0.178   6.111  0.6935  0.2339 -0.1177
    5SAPS   H8X  633   3.612   0.142   6.161  1.0510  0.3712  0.6555
    5SAPS   H8Y  634   3.691   0.161   6.002 -0.3838  1.5618 -0.2165
    5SAPS   C39  635   3.721   0.331   6.128 -0.2661 -0.0002 -0.2269
    5SAPS   H9X  636   3.824   0.361   6.097 -0.4097 -0.4753 -1.1968
    5SAPS   H9Y  637   3.710   0.369   6.232  1.1328  4.1417 -1.3685
    5SAPS  C310  638   3.606   0.401   6.054 -1.0768 -0.2750  0.1644
    5SAPS  H10X  639   3.608   0.506   6.091  1.0416 -0.3743  0.4631
    5SAPS  H10Y  640   3.504   0.359   6.067 -3.0314  3.5147 -1.3578
    5SAPS  C311  641   3.629   0.429   5.897 -0.9107  0.5851 -0.0653
    5SAPS  H11X  642   3.614   0.329   5.851 -0.1811  1.3584 -2.0909
    5SAPS  H11Y  643   3.731   0.471   5.883 -1.4856  1.5506 -1.5711
    5SAPS  C312  644   3.536   0.530   5.840  0.2217 -0.1726 -0.5611
    5SAPS  H12X  645   3.538   0.618   5.908  2.0016 -2.2539  2.3333
    5SAPS  H12Y  646   3.431   0.496   5.850  1.2013 -3.1996  0.9262
    5SAPS  C313  647   3.580   0.559   5.697  0.5098 -0.2869 -0.4939
    5SAPS  H13X  648   3.553   0.471   5.634 -2.0023 -1.8492  2.4949
    5SAPS  H13Y  649   3.689   0.580   5.690  0.4900  0.0670  0.2300
    5SAPS  C314  650   3.506   0.682   5.645  0.4684 -0.3535  0.4444
    5SAPS  H14X  651   3.516   0.755   5.728  2.3110 -1.0709  0.9090
    5SAPS  H14Y  652   3.404   0.644   5.625  0.4194 -0.2082  0.4217
    5SAPS  C315  653   3.567   0.747   5.516  0.7890 -0.3679 -0.2615
    5SAPS  H15X  654   3.654   0.810   5.545 -0.8738  1.5605  0.8347
    5SAPS  H15Y  655   3.492   0.815   5.468  0.4402 -0.7112 -0.2106
    5SAPS  C316  656   3.611   0.648   5.405 -0.2277 -0.1479  0.0289
    5SAPS  H16X  657   3.538   0.565   5.391 -2.0197  1.6143 -1.7548
    5SAPS  H16Y  658   3.710   0.615   5.441  0.6056 -0.3300 -2.2327
    5SAPS  C317  659   3.627   0.721   5.265 -0.1747  0.0352 -0.1931
    5SAPS  H17X  660   3.711   0.794   5.272 -0.1432  0.0009 -0.2176
    5SAPS  H17Y  661   3.536   0.777   5.235  1.5015  1.6255 -2.7359
    5SAPS  C318  662   3.666   0.622   5.156 -0.1588 -0.1824  0.0413
    5SAPS  H18X  663   3.579   0.556   5.132  1.6710 -2.5699 -0.3850
    5SAPS  H18Y  664   3.747   0.550   5.182 -0.6296 -0.6363  0.2808
    5SAPS  H18Z  665   3.696   0.674   5.063  1.5877  0.2895  0.8336
    6SAPS     N  666   1.064   1.155   7.561  0.0169 -0.0847  0.4472
    6SAPS   HN1  667   1.152   1.200   7.592 -0.4837  1.9106 -0.8874
    6SAPS   HN2  668   0.984   1.190   7.618  0.7163 -0.0064  1.3977
    6SAPS   HN3  669   1.064   1.054   7.589  0.9094 -0.2623 -0.1563
    6SAPS   C12  670   1.044   1.156   7.416  0.7545 -0.3280  0.5919
    6SAPS  H12A  671   1.066   1.256   7.380  0.3563 -0.0404  1.1517
    6SAPS   C13  672   1.118   1.051   7.326  0.2137  0.7236  0.1558
    6SAPS  O13A  673   1.206   0.981   7.370  0.0188 -0.1982 -0.8221
    6SAPS  O13B  674   1.100   1.067   7.200 -0.6894 -0.3733  0.0714
    6SAPS   C11  675   0.889   1.149   7.377 -0.0464  0.1442  0.1267
    6SAPS  H11A  676   0.889   1.159   7.266  0.6894 -0.1049  0.1002
    6SAPS  H11B  677   0.832   1.234   7.420 -0.3940 -0.7089  1.4364
    6SAPS     P  678   0.690   1.018   7.495 -0.4950  0.5726 -0.4349
    6SAPS   O13  679   0.719   0.912   7.592 -0.0205 -0.2408  0.5973
    6SAPS   O14  680   0.642   1.149   7.548 -0.1023 -0.0968  0.1928
    6SAPS   O12  681   0.820   1.032   7.409  0.4722  0.2213 -0.9266
    6SAPS   O11  682   0.586   0.965   7.386  0.2185  0.4253 -0.1348
    6SAPS    C1  683   0.531   0.826   7.405 -0.6526 -0.1259 -0.5416
    6SAPS    HA  684   0.612   0.751   7.394 -0.3230  0.3037 -1.1430
    6SAPS    HB  685   0.489   0.816   7.507 -0.9184  2.4615 -0.3329
    6SAPS    C2  686   0.426   0.781   7.308  0.2058  0.0791  0.6965
    6SAPS    HS  687   0.477   0.776   7.209  3.5342 -0.8232  2.3005
    6SAPS   O21  688   0.323   0.881   7.314 -0.1356  0.3982  1.0821
    6SAPS   C21  689   0.342   0.977   7.232  1.1868  0.3292  0.3052
    6SAPS   O22  690   0.410   0.982   7.129  0.4245 -0.3618  0.4039
    6SAPS   C22  691   0.248   1.087   7.271  0.8537 -0.4752 -0.1754
    6SAPS   H2R  692   0.144   1.050   7.254 -0.5812  3.0719 -0.0332
    6SAPS   H2S  693   0.271   1.094   7.380 -2.1255  1.0193  0.4647
    6SAPS    C3  694   0.363   0.641   7.337 -0.0011  0.7684  0.4273
    6SAPS    HX  695   0.331   0.622   7.442 -0.9506  0.4015  0.0845
    6SAPS    HY  696   0.444   0.569   7.313  1.1358  1.9440  0.6827
    6SAPS   O31  697   0.251   0.618   7.249 -0.1868  0.5301  0.4171
    6SAPS   C31  698   0.127   0.646   7.286 -0.4285 -0.4132 -0.0642
    6SAPS   O32  699   0.097   0.683   7.399  0.1337  0.7045 -0.1520
    6SAPS   C32  700   0.033   0.623   7.173  0.6549 -0.2674  0.1248
    6SAPS   H2X  701  -0.070   0.599   7.209 -0.4820  0.0246 -2.6910
    6SAPS   H2Y  702   0.068   0.537   7.111  1.1668 -1.6671  2.2226
    6SAPS   C23  703   0.260   1.226   7.189  0.3590  0.9560  0.2548
    6SAPS   H3R  704   0.368   1.241   7.167  0.9206 -2.9359 -0.3602
    6SAPS   H3S  705   0.223   1.305   7.257  1.3367  1.6367  0.0091
    6SAPS   C24  706   0.180   1.223   7.052 -0.3912 -0.3331  0.3708
    6SAPS   H4R  707   0.069   1.230   7.060 -0.1621  2.5668  3.1162
    6SAPS   H4S  708   0.208   1.124   7.013  0.7782  0.1330  0.0070
    6SAPS   C25  709   0.217   1.338   6.967 -0.2051 -0.2733 -0.8686
    6SAPS   H5R  710   0.185   1.434   7.010  0.5044 -0.5021  0.2011
    6SAPS   C26  711   0.301   1.342   6.864 -0.1169 -0.3052  0.1236
    6SAPS   H6R  712   0.307   1.427   6.795 -1.7286 -0.1191  0.1807
    6SAPS   C27  713   0.366   1.216   6.816  0.8392 -0.4290 -0.5845
    6SAPS   H7R  714   0.309   1.173   6.731  0.4319 -0.1655 -0.4501
    6SAPS   H7S  715   0.365   1.139   6.895 -2.1141 -1.3754 -1.4116
    6SAPS   C28  716   0.506   1.250   6.784 -0.1819  0.3909 -0.2712
    6SAPS   H8R  717   0.579   1.228   6.863  0.9667  0.0065 -1.3860
    6SAPS   C29  718   0.557   1.291   6.668 -0.0508 -0.8439  0.1286
    6SAPS   H9R  719   0.661   1.324   6.658 -0.2790  0.1216  0.8229
    6SAPS  C210  720   0.447   1.332   6.568 -0.2771  0.1567  0.3249
    6SAPS  H10R  721   0.349   1.357   6.613  0.3637  0.1893  1.7386
    6SAPS  H10S  722   0.430   1.242   6.504  3.6404 -0.7604  0.2793
    6SAPS  C211  723   0.478   1.452   6.483 -0.7893 -0.0492 -0.7750
    6SAPS  H11R  724   0.480   1.549   6.534  1.0172 -0.3168 -0.2793
    6SAPS  C212  725   0.496   1.463   6.347 -0.3138  0.3407 -1.3783
    6SAPS  H12R  726   0.529   1.556   6.298  0.4776 -0.4125 -2.3033
    6SAPS  C213  727   0.500   1.348   6.250  0.2881 -0.2148 -0.2080
    6SAPS  H13R  728   0.552   1.258   6.292 -0.2943 -0.9069 -0.9374
    6SAPS  H13S  729   0.574   1.372   6.172  0.2171 -0.1224 -0.2469
    6SAPS  C214  730   0.365   1.293   6.198 -0.0154 -0.6472  0.6161
    6SAPS  H14R  731   0.352   1.187   6.224  2.4976 -1.2885 -0.4972
    6SAPS  C215  732   0.272   1.359   6.121  0.0116  0.5107 -0.3777
    6SAPS  H15R  733   0.179   1.310   6.088 -0.2806 -0.6041  1.9426
    6SAPS  C216  734   0.277   1.503   6.071 -0.4266  0.4432  0.1048
    6SAPS  H16R  735   0.382   1.537   6.062 -0.3446  0.4926  1.1408
    6SAPS  H16S  736   0.239   1.573   6.149 -0.3292  0.3734  0.2149
    6SAPS  C217  737   0.191   1.517   5.946 -0.2549  1.0073  0.3955
    6SAPS  H17R  738   0.092   1.486   5.985  0.5020 -1.0358  0.8427
    6SAPS  H17S  739   0.227   1.438   5.877  0.0842 -2.3916  4.0722
    6SAPS  C218  740   0.173   1.655   5.880  1.0481 -0.2121 -0.2316
    6SAPS  H18R  741   0.132   1.716   5.963 -0.5147 -0.5502 -0.7206
    6SAPS  H18S  742   0.094   1.634   5.805  0.9527  1.4300 -0.6209
    6SAPS  C219  743   0.295   1.727   5.819 -0.1016  0.0425 -0.3843
    6SAPS  H19R  744   0.340   1.653   5.750 -0.4360  0.3497 -0.9408
    6SAPS  H19S  745   0.361   1.751   5.905  0.9088 -1.4309 -0.7166
    6SAPS  C220  746   0.263   1.866   5.744 -0.0371  0.5222 -0.3290
    6SAPS  H20R  747   0.365   1.911   5.739 -0.3683  1.4733  0.9120
    6SAPS  H20S  748   0.198   1.930   5.807 -0.4435  1.0042 -1.2171
    6SAPS  H20T  749   0.222   1.856   5.641 -0.6708  0.2752 -0.0537
    6SAPS   C33  750   0.010   0.751   7.083 -0.0023 -0.7561  0.4656
    6SAPS   H3X  751   0.024   0.835   7.154  0.7165 -2.5926  2.6301
    6SAPS   H3Y  752  -0.095   0.755   7.047  0.5200  3.0930 -1.1049
    6SAPS   C34  753   0.110   0.765   6.967  0.5316  0.1335 -0.3709
    6SAPS   H4X  754   0.100   0.680   6.896 -0.3724 -0.2814  0.2240
    6SAPS   H4Y  755   0.213   0.749   7.003  0.1309 -0.8181  0.4081
    6SAPS   C35  756   0.091   0.897   6.890  0.3746 -0.2818  0.1113
    6SAPS   H5X  757   0.174   0.969   6.910 -0.6535  1.3188 -1.1636
    6SAPS   H5Y  758  -0.009   0.942   6.905 -0.3872 -1.3343 -1.5680
    6SAPS   C36  759   0.077   0.879   6.741 -0.6621 -0.5256 -0.1541
    6SAPS   H6X  760   0.023   0.968   6.702 -1.5854 -1.6896 -1.6670
    6SAPS   H6Y  761   0.001   0.805   6.707 -0.0624 -1.4084  0.3997
    6SAPS   C37  762   0.214   0.864   6.670  0.0666  0.1776 -0.0966
    6SAPS   H7X  763   0.282   0.803   6.734  0.5942  0.6801 -0.1759
    6SAPS   H7Y  764   0.273   0.957   6.661 -0.3264  0.2932 -1.6886
    6SAPS   C38  765   0.197   0.828   6.525 -0.0900  0.1782  0.4071
    6SAPS   H8X  766   0.126   0.744   6.511 -0.6498  0.3482  2.0242
    6SAPS   H8Y  767   0.292   0.779   6.493 -0.3555 -0.9015  1.2205
    6SAPS   C39  768   0.146   0.938   6.438 -0.3046 -0.4362  1.0482
    6SAPS   H9X  769   0.194   1.035   6.464 -1.0616  0.0283  0.7456
    6SAPS   H9Y  770   0.041   0.954   6.468 -0.0987  3.6206  0.2426
    6SAPS  C310  771   0.144   0.920   6.282  0.1036 -0.1156  0.3265
    6SAPS  H10X  772   0.122   0.814   6.257  1.8185 -0.7740  1.4364
    6SAPS  H10Y  773   0.244   0.956   6.249  1.3974 -1.0532  2.9533
    6SAPS  C311  774   0.026   0.999   6.210 -0.3772  0.1865  1.2893
    6SAPS  H11X  775   0.060   1.105   6.218  1.7153 -0.3221 -0.3019
    6SAPS  H11Y  776  -0.065   0.975   6.270 -0.8067 -0.1398  0.5130
    6SAPS  C312  777   0.012   0.965   6.058 -1.0611 -0.6397 -0.7187
    6SAPS  H12X  778  -0.036   0.865   6.058 -1.9704 -0.2106 -0.0806
    6SAPS  H12Y  779   0.118   0.960   6.023 -1.0693 -0.1790 -0.8223
    6SAPS  C313  780  -0.068   1.055   5.975  0.5107 -0.5165 -0.1420
    6SAPS  H13X  781  -0.051   1.164   5.986 -0.5266 -0.2689 -0.8022
    6SAPS  H13Y  782  -0.175   1.041   6.000  0.0888 -1.5199 -2.2590
    6SAPS  C314  783  -0.074   1.020   5.825 -0.8192 -0.4187  0.0958
    6SAPS  H14X  784  -0.109   0.915   5.811 -0.0901 -0.5271 -0.9973
    6SAPS  H14Y  785   0.030   1.024   5.786 -1.4461 -0.6920 -1.6919
    6SAPS  C315  786  -0.172   1.114   5.750 -0.0193  0.3809 -0.3856
    6SAPS  H15X  787  -0.276   1.104   5.786 -0.1048  3.3438  0.4588
    6SAPS  H15Y  788  -0.171   1.080   5.644 -0.7114 -2.0187  0.3226
    6SAPS  C316  789  -0.125   1.265   5.751  0.3970 -0.2977 -0.2662
    6SAPS  H16X  790  -0.017   1.273   5.727  0.5846 -0.0794  0.6337
    6SAPS  H16Y  791  -0.137   1.292   5.858 -1.5286 -0.0438 -0.5038
    6SAPS  C317  792  -0.211   1.348   5.660 -0.5632  0.3223  0.1913
    6SAPS  H17X  793  -0.316   1.327   5.690  0.6628 -2.7980  2.8958
    6SAPS  H17Y  794  -0.198   1.312   5.556 -1.1802 -0.2942  0.3193
    6SAPS  C318  795  -0.178   1.498   5.668 -0.4081  0.0136  0.7430
    6SAPS  H18X  796  -0.081   1.523   5.621  1.8899 -4.4072  2.5264
    6SAPS  H18Y  797  -0.163   1.523   5.776  2.4198  0.3961  0.3436
    6SAPS  H18Z  798  -0.263   1.557   5.629  0.3713  1.5489  1.2647
    7SAPS     N  799   3.586   1.575   7.989  0.4328  0.2208 -0.2199
    7SAPS   HN1  800   3.543   1.670   7.978 -2.3459 -0.8509  0.4478
    7SAPS   HN2  801   3.537   1.528   8.067  1.3350 -1.1631 -0.4564
    7SAPS   HN3  802   3.681   1.601   8.020  0.4319 -1.1998  1.0911
    7SAPS   C12  803   3.601   1.485   7.867  0.0829 -0.9257  0.9686
    7SAPS  H12A  804   3.630   1.562   7.797 -1.6923 -0.3410  0.8526
    7SAPS   C13  805   3.709   1.375   7.884  0.1478 -0.1108  0.2697
    7SAPS  O13A  806   3.795   1.393   7.975  0.2021  0.4913 -0.2399
    7SAPS  O13B  807   3.734   1.289   7.791  0.2969 -0.2525  0.0030
    7SAPS   C11  808   3.474   1.423   7.817  0.3706 -0.4206  0.5458
    7SAPS  H11A  809   3.443   1.353   7.897  0.7884 -0.4842  0.6538
    7SAPS  H11B  810   3.490   1.351   7.734 -2.2238  0.2250 -0.6123
    7SAPS     P  811   3.262   1.505   7.682  0.3441 -0.4080 -0.0115
    7SAPS   O13  812   3.178   1.391   7.730 -0.1337 -0.0226 -0.0579
    7SAPS   O14  813   3.199   1.638   7.660 -1.0124 -0.0879 -0.4468
    7SAPS   O12  814   3.371   1.523   7.792 -0.4986 -0.2083  0.0908
    7SAPS   O11  815   3.340   1.465   7.551  0.4817  0.2581  0.5160
    7SAPS    C1  816   3.452   1.546   7.513 -0.0707  0.0066  0.3305
    7SAPS    HA  817   3.504   1.596   7.597 -1.4643  1.6582  0.2752
    7SAPS    HB  818   3.527   1.473   7.475  0.6384  1.8746 -2.1367
    7SAPS    C2  819   3.413   1.637   7.395 -0.8362 -0.2082  0.4157
    7SAPS    HS  820   3.324   1.701   7.418  1.2371  3.9762 -2.0575
    7SAPS   O21  821   3.387   1.551   7.283  0.2555 -0.4180 -0.6269
    7SAPS   C21  822   3.298   1.611   7.188 -0.3752  0.5265 -0.4480
    7SAPS   O22  823   3.230   1.708   7.213  0.0972 -0.3451  0.2065
    7SAPS   C22  824   3.293   1.529   7.055  0.2352  0.4103 -0.2342
    7SAPS   H2R  825   3.316   1.598   6.971  1.2427  1.4623  0.8761
    7SAPS   H2S  826   3.379   1.459   7.056 -0.5123 -0.8632  5.1032
    7SAPS    C3  827   3.525   1.742   7.362  0.3338  0.2350 -0.5824
    7SAPS    HX  828   3.603   1.684   7.309  0.1563  1.1213 -1.8496
    7SAPS    HY  829   3.575   1.780   7.454  1.8938  0.6304 -1.5509
    7SAPS   O31  830   3.480   1.852   7.272 -0.5122 -0.5441 -0.6070
    7SAPS   C31  831   3.414   1.946   7.335  0.8613 -0.7588  0.3213
    7SAPS   O32  832   3.395   1.949   7.456  0.2137  0.2649 -0.1061
    7SAPS   C32  833   3.376   2.065   7.238 -0.1564 -0.2700  0.3712
    7SAPS   H2X  834   3.388   2.163   7.290  1.4741 -0.6080  0.6618
    7SAPS   H2Y  835   3.267   2.051   7.221 -0.2037 -0.7862  1.1109
    7SAPS   C23  836   3.163   1.445   7.027  0.7303 -0.8284 -0.6437
    7SAPS   H3R  837   3.157   1.351   7.086 -0.7237  1.7419  3.8294
    7SAPS   H3S  838   3.179   1.398   6.928  2.0120 -2.3405  0.2341
    7SAPS   C24  839   3.027   1.525   7.029  0.9173 -0.1514 -0.3486
    7SAPS   H4R  840   3.019   1.559   7.134 -1.9149  0.4552 -0.6749
    7SAPS   H4S  841   2.949   1.450   7.007 -0.5289  0.8535  1.1462
    7SAPS   C25  842   3.030   1.644   6.940  0.2280 -0.6150  0.4779
    7SAPS   H5R  843   3.117   1.709   6.953 -2.1577  3.3033 -1.2277
    7SAPS   C26  844   2.953   1.678   6.837 -0.3041  0.0752  0.0667
    7SAPS   H6R  845   2.965   1.777   6.790 -0.8586 -0.3692 -1.0532
    7SAPS   C27  846   2.853   1.576   6.790  0.0427  0.3838  0.2380
    7SAPS   H7R  847   2.775   1.549   6.865 -0.8306 -0.0885 -0.8130
    7SAPS   H7S  848   2.901   1.476   6.781  0.5190  0.5664  0.7262
    7SAPS   C28  849   2.775   1.613   6.665 -0.0002 -0.1932 -1.1269
    7SAPS   H8R  850   2.683   1.671   6.687  1.1310  1.1577  0.2648
    7SAPS   C29  851   2.797   1.554   6.547  0.4253 -0.5423  0.3799
    7SAPS   H9R  852   2.727   1.574   6.465  1.3526  1.3507 -0.0256
    7SAPS  C210  853   2.901   1.461   6.501  0.6083  0.6653 -0.9743
    7SAPS  H10R  854   2.845   1.399   6.428 -0.8285  0.1695  0.4937
    7SAPS  H10S  855   2.921   1.384   6.579 -3.6290 -1.0627 -1.3565
    7SAPS  C211  856   3.010   1.544   6.442 -0.5093 -0.2323 -0.0037
    7SAPS  H11R  857   3.086   1.584   6.510 -0.8902 -0.2087  0.4136
    7SAPS  C212  858   3.034   1.565   6.313  0.0180 -0.7665  0.4116
    7SAPS  H12R  859   3.124   1.623   6.287 -1.4545  1.5485  0.2300
    7SAPS  C213  860   2.949   1.511   6.194 -1.2942 -0.6046 -0.2638
    7SAPS  H13R  861   2.842   1.504   6.220 -1.0918  0.2960  0.9006
    7SAPS  H13S  862   2.980   1.405   6.185  0.9249 -0.1038  0.6860
    7SAPS  C214  863   2.970   1.572   6.054 -0.5626  0.4991 -0.0918
    7SAPS  H14R  864   3.073   1.578   6.017 -0.4454  0.7988  0.2768
    7SAPS  C215  865   2.885   1.637   5.974  0.4080 -0.1474 -0.3070
    7SAPS  H15R  866   2.915   1.677   5.876  1.4309 -1.8354 -0.7312
    7SAPS  C216  867   2.742   1.674   6.002 -0.2295 -0.1366 -0.6873
    7SAPS  H16R  868   2.735   1.785   6.014 -1.5368 -0.3157  0.4523
    7SAPS  H16S  869   2.714   1.631   6.100  0.0400 -2.5737 -1.6037
    7SAPS  C217  870   2.629   1.634   5.907 -0.7971 -0.0211  0.3925
    7SAPS  H17R  871   2.648   1.676   5.806 -1.6404 -0.1410  0.1732
    7SAPS  H17S  872   2.538   1.692   5.933 -0.3353 -0.1864  2.5072
    7SAPS  C218  873   2.622   1.477   5.886  0.7028 -0.3316 -0.4304
    7SAPS  H18R  874   2.596   1.438   5.987  0.7744 -0.5483 -0.4941
    7SAPS  H18S  875   2.722   1.439   5.857 -0.0286 -2.8811  0.0950
    7SAPS  C219  876   2.512   1.432   5.783  0.1113 -0.2747  0.2819
    7SAPS  H19R  877   2.545   1.461   5.681  1.3300  0.1119  0.7720
    7SAPS  H19S  878   2.417   1.488   5.796  0.7357  0.5030  1.7056
    7SAPS  C220  879   2.462   1.284   5.775  0.2706 -0.1172  0.2245
    7SAPS  H20R  880   2.412   1.252   5.869 -2.3408  2.1784 -0.2585
    7SAPS  H20S  881   2.554   1.225   5.757  0.2775  0.4008 -1.6893
    7SAPS  H20T  882   2.391   1.265   5.692 -0.8809  2.2684  0.5923
    7SAPS   C33  883   3.434   2.070   7.088 -1.0261  0.0989  0.1455
    7SAPS   H3X  884   3.373   2.150   7.042 -1.7079  1.0090  2.4831
    7SAPS   H3Y  885   3.425   1.967   7.046 -1.8024  0.8753 -1.6782
    7SAPS   C34  886   3.590   2.108   7.099  0.0174 -0.0872  0.0654
    7SAPS   H4X  887   3.635   2.060   7.189 -0.6459  0.5029  0.7313
    7SAPS   H4Y  888   3.597   2.218   7.114  0.2415 -0.2058  0.8946
    7SAPS   C35  889   3.664   2.075   6.973 -0.2326  0.3572  0.4000
    7SAPS   H5X  890   3.652   1.965   6.964 -0.3853  0.3586  0.5806
    7SAPS   H5Y  891   3.769   2.104   6.995 -0.5648  1.7543  0.2614
    7SAPS   C36  892   3.603   2.143   6.845 -0.0832 -0.0696  0.4528
    7SAPS   H6X  893   3.607   2.254   6.849 -0.1179  0.0154 -1.0478
    7SAPS   H6Y  894   3.496   2.112   6.846  0.6996 -3.1162  1.6733
    7SAPS   C37  895   3.674   2.096   6.710 -0.2401  0.2347  0.1861
    7SAPS   H7X  896   3.683   1.986   6.723 -2.7665  0.0330  0.8076
    7SAPS   H7Y  897   3.769   2.152   6.694 -0.8216  1.2423  0.1871
    7SAPS   C38  898   3.586   2.126   6.588  0.3093  0.6510  0.3567
    7SAPS   H8X  899   3.556   2.232   6.572  3.7853  1.7217 -0.0719
    7SAPS   H8Y  900   3.496   2.062   6.586 -0.0262  1.1414 -1.1443
    7SAPS   C39  901   3.661   2.091   6.462  0.1632 -0.0568  0.1924
    7SAPS   H9X  902   3.695   1.986   6.473 -3.4961 -1.2071  2.4468
    7SAPS   H9Y  903   3.748   2.158   6.450 -0.5377  0.6356 -1.3135
    7SAPS  C310  904   3.570   2.106   6.342  0.8638  0.4131 -0.0462
    7SAPS  H10X  905   3.512   2.201   6.348  0.2287  0.3164 -2.9935
    7SAPS  H10Y  906   3.492   2.027   6.348  0.8646  0.4779  0.9022
    7SAPS  C311  907   3.639   2.094   6.208  0.1738  0.2742  0.1470
    7SAPS  H11X  908   3.691   1.996   6.207 -0.9989 -0.3858  0.4730
    7SAPS  H11Y  909   3.725   2.163   6.200  0.3961 -0.1258 -0.9759
    7SAPS  C312  910   3.543   2.119   6.088 -0.0109 -0.0451  0.2286
    7SAPS  H12X  911   3.494   2.215   6.114 -0.3802  0.2440 -1.4301
    7SAPS  H12Y  912   3.478   2.029   6.073 -0.5358  0.0563  1.6830
    7SAPS  C313  913   3.632   2.133   5.963  0.0048  0.4672  0.0293
    7SAPS  H13X  914   3.670   2.035   5.926 -1.4939  0.8538 -2.8074
    7SAPS  H13Y  915   3.715   2.202   5.991  1.4605 -1.6656  1.1968
    7SAPS  C314  916   3.548   2.214   5.858 -0.1373  0.1721  0.1501
    7SAPS  H14X  917   3.512   2.310   5.901 -0.0529  0.8391 -1.2062
    7SAPS  H14Y  918   3.450   2.163   5.848 -1.8595  2.7459  2.3635
    7SAPS  C315  919   3.626   2.232   5.727  0.5770 -0.0397 -0.0989
    7SAPS  H15X  920   3.702   2.311   5.748  1.9262 -1.1233 -0.7240
    7SAPS  H15Y  921   3.563   2.277   5.648  0.1254 -0.4769  0.0043
    7SAPS  C316  922   3.697   2.108   5.674  0.4580 -0.0676 -1.0271
    7SAPS  H16X  923   3.775   2.078   5.747 -0.9437  0.0777  0.5920
    7SAPS  H16Y  924   3.756   2.136   5.584  1.2633 -1.1865 -0.8751
    7SAPS  C317  925   3.612   1.980   5.657 -0.1287 -0.3657  0.4963
    7SAPS  H17X  926   3.537   1.999   5.578  0.8696  1.7100 -0.0244
    7SAPS  H17Y  927   3.564   1.937   5.748 -0.6575 -2.2300 -0.6179
    7SAPS  C318  928   3.695   1.862   5.595  0.2580 -0.0849  0.1491
    7SAPS  H18X  929   3.773   1.819   5.661  0.0069  2.4606  2.2484
    7SAPS  H18Y  930   3.745   1.906   5.506 -0.8505  0.5668 -0.1816
    7SAPS  H18Z  931   3.618   1.785   5.571  0.5299 -0.2634 -0.1550
    8SAPS     N  932   0.667   2.253   7.848  0.0574 -0.1756 -0.5987
    8SAPS   HN1  933   0.580   2.225   7.800 -1.6213  0.8975  1.6218
    8SAPS   HN2  934   0.656   2.354   7.869 -3.4050 -0.8002  1.3521
    8SAPS   HN3  935   0.755   2.229   7.797 -0.8685  0.0769 -2.3455
    8SAPS   C12  936   0.672   2.183   7.980 -0.0041  0.3460  0.5418
    8SAPS  H12A  937   0.777   2.183   8.006 -0.1518 -1.5902  1.3114
    8SAPS   C13  938   0.590   2.237   8.094  0.3016  0.4494 -0.0884
    8SAPS  O13A  939   0.517   2.338   8.073 -0.2943 -0.4178 -0.2119
    8SAPS  O13B  940   0.602   2.182   8.207 -0.5118  0.2498 -1.1002
    8SAPS   C11  941   0.634   2.032   7.944 -0.6955  0.1586  0.5334
    8SAPS  H11A  942   0.525   2.020   7.928 -0.1705 -1.0511 -2.7783
    8SAPS  H11B  943   0.656   1.966   8.030 -2.6588  1.0631  1.8239
    8SAPS     P  944   0.836   1.913   7.812  0.2800  0.1365  0.4209
    8SAPS   O13  945   0.947   1.989   7.867  0.0023  0.4299 -0.1096
    8SAPS   O14  946   0.813   1.779   7.877 -0.5735  0.7929 -0.2639
    8SAPS   O12  947   0.700   1.989   7.824  0.0010 -0.0877 -0.1622
    8SAPS   O11  948   0.851   1.892   7.659  0.1023 -0.4430  0.3903
    8SAPS    C1  949   0.773   1.965   7.559  0.2801  0.3778 -0.6795
    8SAPS    HA  950   0.683   1.909   7.526 -0.0955  1.1033 -0.9230
    8SAPS    HB  951   0.724   2.059   7.595 -1.2258  0.0315 -1.7328
    8SAPS    C2  952   0.875   2.006   7.449 -0.0229 -0.0225 -0.6885
    8SAPS    HS  953   0.916   1.915   7.399  0.3198  1.0126 -2.3614
    8SAPS   O21  954   0.983   2.082   7.511  0.1525  0.4640 -0.3206
    8SAPS   C21  955   1.108   2.038   7.488 -0.1741 -0.1797 -0.6761
    8SAPS   O22  956   1.134   1.969   7.393  0.7232 -0.4319  0.3896
    8SAPS   C22  957   1.208   2.101   7.585 -0.7529  0.1712 -0.2779
    8SAPS   H2R  958   1.202   2.208   7.558 -0.1430 -0.1237 -1.6770
    8SAPS   H2S  959   1.170   2.092   7.689 -0.6545  1.9975 -0.0625
    8SAPS    C3  960   0.807   2.089   7.339  0.3643  0.2399  0.0457
    8SAPS    HX  961   0.889   2.105   7.265 -0.6605  1.2990 -0.8942
    8SAPS    HY  962   0.777   2.195   7.354 -1.2323 -0.3467  1.2482
    8SAPS   O31  963   0.697   2.010   7.286  0.1922 -0.0319  0.0064
    8SAPS   C31  964   0.725   1.921   7.191  0.7910  0.5456  0.6783
    8SAPS   O32  965   0.831   1.903   7.137 -0.0485  0.2379  0.0309
    8SAPS   C32  966   0.595   1.855   7.158  0.3290 -0.3657  0.2170
    8SAPS   H2X  967   0.507   1.921   7.173 -1.0372 -2.4134  1.9156
    8SAPS   H2Y  968   0.576   1.774   7.232 -2.6733 -0.7153 -0.7958
    8SAPS   C23  969   1.343   2.037   7.565 -0.3546 -0.3028 -0.0591
    8SAPS   H3R  970   1.365   2.008   7.460  1.1894 -0.5577  0.2990
    8SAPS   H3S  971   1.342   1.944   7.627  0.7539  0.5372  1.2805
    8SAPS   C24  972   1.455   2.119   7.630 -0.8373 -0.1465  0.9542
    8SAPS   H4R  973   1.449   2.109   7.741  2.6516  2.4980  1.5595
    8SAPS   H4S  974   1.437   2.227   7.614 -3.7282 -0.6083  0.5306
    8SAPS   C25  975   1.597   2.075   7.584 -0.0084 -0.8544  0.1898
    8SAPS   H5R  976   1.652   2.010   7.653  0.1091 -0.7789  0.1676
    8SAPS   C26  977   1.658   2.114   7.473  0.8779 -0.4650  0.0523
    8SAPS   H6R  978   1.754   2.065   7.447  1.3289 -0.4524  1.5710
    8SAPS   C27  979   1.607   2.206   7.368  0.1907 -0.6600  0.1989
    8SAPS   H7R  980   1.500   2.225   7.388  0.5437  0.5210  1.1005
    8SAPS   H7S  981   1.615   2.158   7.268  0.3266 -0.4992  0.1309
    8SAPS   C28  982   1.677   2.344   7.386  0.7226 -0.0845 -0.0672
    8SAPS   H8R  983   1.711   2.377   7.485  0.2404  1.7245 -0.4747
    8SAPS   C29  984   1.711   2.422   7.281  1.0333 -0.3592  0.1792
    8SAPS   H9R  985   1.772   2.510   7.305  0.6715 -0.6206  2.2947
    8SAPS  C210  986   1.665   2.393   7.139 -0.1857 -0.1018  0.6975
    8SAPS  H10R  987   1.556   2.378   7.129 -0.0630 -0.9113  0.4680
    8SAPS  H10S  988   1.708   2.299   7.099  0.0816  0.7106 -1.0137
    8SAPS  C211  989   1.702   2.498   7.034 -0.7237  0.0909  0.9055
    8SAPS  H11R  990   1.810   2.506   7.011 -0.6470 -0.5509  1.0207
    8SAPS  C212  991   1.624   2.572   6.960 -0.1862 -0.4853  1.3737
    8SAPS  H12R  992   1.677   2.647   6.899  0.7398 -1.4843  0.9115
    8SAPS  C213  993   1.470   2.577   6.949  0.1371  0.0041  0.2805
    8SAPS  H13R  994   1.430   2.508   7.026 -1.6221 -0.0679 -0.6419
    8SAPS  H13S  995   1.423   2.529   6.860  0.4428 -0.8381  0.5632
    8SAPS  C214  996   1.424   2.718   6.972  0.0870 -0.1181  0.3180
    8SAPS  H14R  997   1.404   2.748   7.076  1.0252  1.9116 -0.0417
    8SAPS  C215  998   1.384   2.803   6.879  0.5706 -0.6982 -0.2652
    8SAPS  H15R  999   1.352   2.905   6.905  0.6798 -0.5835 -0.5737
    8SAPS  C216 1000   1.388   2.786   6.727 -0.2491  0.5889  0.1127
    8SAPS  H16R 1001   1.281   2.788   6.697  0.3785 -0.9253 -2.4900
    8SAPS  H16S 1002   1.441   2.690   6.712 -0.7263  0.6697 -2.3817
    8SAPS  C217 1003   1.461   2.889   6.645  0.3432  0.1425  0.2754
    8SAPS  H17R 1004   1.411   2.987   6.665 -2.4446 -1.3412  1.1467
    8SAPS  H17S 1005   1.435   2.850   6.544 -0.2921 -1.5673  1.0704
    8SAPS  C218 1006   1.608   2.891   6.697 -0.1924 -0.0605  0.9140
    8SAPS  H18R 1007   1.644   2.786   6.700 -1.6764 -0.6533 -0.5537
    8SAPS  H18S 1008   1.602   2.927   6.802 -1.3573 -1.4707  1.3853
    8SAPS  C219 1009   1.705   2.974   6.614 -0.0254 -0.4834  0.0232
    8SAPS  H19R 1010   1.807   2.967   6.658 -0.7161 -2.3383  1.4528
    8SAPS  H19S 1011   1.670   3.079   6.611  1.6690  0.2527  2.7384
    8SAPS  C220 1012   1.715   2.925   6.468  0.1084 -0.4053 -0.0280
    8SAPS  H20R 1013   1.755   2.821   6.471 -0.5493 -0.6618  0.0898
    8SAPS  H20S 1014   1.785   2.995   6.419 -1.7799  1.9230  0.4067
    8SAPS  H20T 1015   1.618   2.918   6.415 -0.2367  0.0880  0.5216
    8SAPS   C33 1016   0.572   1.812   7.006 -0.5638  0.6534 -0.3132
    8SAPS   H3X 1017   0.603   1.887   6.930 -1.3162 -0.1428 -1.4342
    8SAPS   H3Y 1018   0.461   1.807   6.999 -0.6311 -0.6818  1.2253
    8SAPS   C34 1019   0.634   1.676   6.992  0.0556 -0.0228  0.3208
    8SAPS   H4X 1020   0.576   1.605   7.056  0.5989 -0.6590  0.1221
    8SAPS   H4Y 1021   0.735   1.671   7.037 -0.6722  0.8611  2.1329
    8SAPS   C35 1022   0.640   1.617   6.848 -0.1049 -0.4433  0.2145
    8SAPS   H5X 1023   0.534   1.601   6.818 -0.1694  0.9603 -0.4068
    8SAPS   H5Y 1024   0.696   1.522   6.840  0.0462 -0.3493  0.1539
    8SAPS   C36 1025   0.683   1.705   6.733  0.9346 -0.4825 -0.8051
    8SAPS   H6X 1026   0.616   1.793   6.729 -0.0027 -1.1801 -0.6526
    8SAPS   H6Y 1027   0.675   1.657   6.633  0.8412  0.9252 -1.5026
    8SAPS   C37 1028   0.828   1.758   6.729 -0.3977 -0.7241  0.0186
    8SAPS   H7X 1029   0.892   1.669   6.713  1.2080  0.7633 -2.4251
    8SAPS   H7Y 1030   0.844   1.815   6.824  1.5420 -1.0740 -0.0592
    8SAPS   C38 1031   0.865   1.851   6.609 -0.1126  0.2720  0.4181
    8SAPS   H8X 1032   0.961   1.900   6.636 -1.3770  1.2836  3.4473
    8SAPS   H8Y 1033   0.794   1.936   6.604  1.1851  1.3296 -1.9436
    8SAPS   C39 1034   0.882   1.771   6.481  0.4654 -0.2038  0.2592
    8SAPS   H9X 1035   0.795   1.705   6.460 -0.7144  1.2990  0.2503
    8SAPS   H9Y 1036   0.975   1.710   6.480  0.7894  0.2813 -0.5088
    8SAPS  C310 1037   0.888   1.866   6.362  0.1066  0.3577 -0.6794
    8SAPS  H10X 1038   0.968   1.939   6.387 -0.3500  0.9681 -0.9611
    8SAPS  H10Y 1039   0.789   1.917   6.353  1.0991  2.2602 -1.4473
    8SAPS  C311 1040   0.921   1.804   6.232  0.0604  0.1459  0.3320
    8SAPS  H11X 1041   1.007   1.735   6.220  0.0262  0.4724 -2.4589
    8SAPS  H11Y 1042   0.945   1.886   6.161 -1.7609  0.4837  0.0492
    8SAPS  C312 1043   0.806   1.721   6.173 -0.5667  0.6527 -0.1571
    8SAPS  H12X 1044   0.715   1.767   6.217  1.0968  1.3811  2.8283
    8SAPS  H12Y 1045   0.796   1.615   6.204  1.0356  0.3845 -0.4608
    8SAPS  C313 1046   0.809   1.721   6.018 -0.6394  0.4460  0.2820
    8SAPS  H13X 1047   0.885   1.653   5.974 -2.7516 -0.6440 -1.9275
    8SAPS  H13Y 1048   0.832   1.829   6.007 -2.9822  0.8876 -1.0248
    8SAPS  C314 1049   0.675   1.694   5.951 -0.6811  0.2446 -0.1398
    8SAPS  H14X 1050   0.605   1.761   6.005 -0.8058 -1.1220  1.4667
    8SAPS  H14Y 1051   0.645   1.589   5.975 -0.6731  0.8086  2.6583
    8SAPS  C315 1052   0.679   1.735   5.805 -0.4146 -0.3184  0.2186
    8SAPS  H15X 1053   0.588   1.696   5.755  0.2345 -0.3972 -0.9387
    8SAPS  H15Y 1054   0.759   1.687   5.745 -0.5827 -0.3538  0.0246
    8SAPS  C316 1055   0.672   1.887   5.782  0.5520  0.9715 -0.5868
    8SAPS  H16X 1056   0.753   1.933   5.842 -0.3549  1.7660  0.0642
    8SAPS  H16Y 1057   0.576   1.930   5.820 -0.5027 -0.8616 -1.0316
    8SAPS  C317 1058   0.688   1.917   5.631  0.1192 -0.2388 -0.0293
    8SAPS  H17X 1059   0.781   1.868   5.593 -0.0060  1.2666 -2.5173
    8SAPS  H17Y 1060   0.712   2.024   5.620  1.5633 -0.5135  0.2279
    8SAPS  C318 1061   0.575   1.882   5.534 -0.2250  0.1592  0.2198
    8SAPS  H18X 1062   0.485   1.944   5.555 -0.5954 -0.5018  0.6205
    8SAPS  H18Y 1063   0.551   1.775   5.552  0.1699 -0.1401 -0.9310
    8SAPS  H18Z 1064   0.610   1.890   5.429  0.0707 -2.2013  0.0659
    9SAPS     N 1065   6.596   0.494   8.295  0.0162 -0.0489 -0.2283
    9SAPS   HN1 1066   6.570   0.577   8.351  1.2428  1.7513 -2.1732
    9SAPS   HN2 1067   6.519   0.442   8.248 -0.1770  0.7625 -0.8334
    9SAPS   HN3 1068   6.649   0.426   8.355 -0.1441 -0.5249 -0.6218
    9SAPS   C12 1069   6.688   0.538   8.188 -0.5384  0.5323 -0.2172
    9SAPS  H12A 1070   6.637   0.611   8.126  0.3426  1.1570 -0.2389
    9SAPS   C13 1071   6.825   0.596   8.237 -0.2954 -0.0166  0.5335
    9SAPS  O13A 1072   6.843   0.608   8.357  0.5519 -0.2391  0.4268
    9SAPS  O13B 1073   6.927   0.588   8.161 -0.4229 -0.3777 -0.2757
    9SAPS   C11 1074   6.714   0.418   8.086 -0.1558 -0.1907 -0.6934
    9SAPS  H11A 1075   6.777   0.348   8.145  1.6159  1.6207 -0.3410
    9SAPS  H11B 1076   6.773   0.442   7.995 -1.5530 -0.4412 -1.7123
    9SAPS     P 1077   6.533   0.378   7.904 -0.1624 -0.5361 -0.5424
    9SAPS   O13 1078   6.394   0.420   7.933 -0.3116  0.2735  0.3785
    9SAPS   O14 1079   6.609   0.465   7.817  0.5121 -0.7929  0.0037
    9SAPS   O12 1080   6.598   0.347   8.048  0.7569  0.3453  0.4854
    9SAPS   O11 1081   6.522   0.230   7.837 -0.0442 -0.5164 -0.2604
    9SAPS    C1 1082   6.642   0.160   7.808 -0.4706 -0.1431  0.2673
    9SAPS    HA 1083   6.733   0.223   7.803 -0.3552 -0.3915 -1.3370
    9SAPS    HB 1084   6.662   0.082   7.884  2.4207 -0.5315 -0.7916
    9SAPS    C2 1085   6.632   0.086   7.677  0.6542 -0.0261 -0.0504
    9SAPS    HS 1086   6.717   0.016   7.663 -0.9841 -1.9048 -1.2157
    9SAPS   O21 1087   6.616   0.181   7.565 -0.0822 -0.6124 -0.1520
    9SAPS   C21 1088   6.730   0.231   7.526  0.0388  0.0255  0.4059
    9SAPS   O22 1089   6.844   0.198   7.566 -0.0120 -0.0147 -1.0441
    9SAPS   C22 1090   6.700   0.342   7.422 -0.4785  0.5829 -0.8455
    9SAPS   H2R 1091   6.607   0.399   7.444 -0.2087  0.8585 -0.4103
    9SAPS   H2S 1092   6.787   0.409   7.437  1.0622 -1.2869 -1.0006
    9SAPS    C3 1093   6.495   0.005   7.681  0.0587  0.1112  0.2123
    9SAPS    HX 1094   6.416   0.078   7.656  0.2594 -0.4730 -2.5204
    9SAPS    HY 1095   6.485  -0.023   7.788 -0.4745  2.4768  0.8200
    9SAPS   O31 1096   6.504  -0.106   7.586  0.0765  0.6017  0.6632
    9SAPS   C31 1097   6.550  -0.219   7.642  0.2332 -0.3065  0.0675
    9SAPS   O32 1098   6.584  -0.239   7.758 -0.3679  0.4006 -0.7448
    9SAPS   C32 1099   6.547  -0.334   7.532  0.5620 -0.3808  0.9529
    9SAPS   H2X 1100   6.448  -0.383   7.520  0.7602 -1.1087  2.1496
    9SAPS   H2Y 1101   6.608  -0.419   7.571 -1.3516 -1.9748  0.6275
    9SAPS   C23 1102   6.719   0.272   7.286  0.0956  0.3587 -0.3901
    9SAPS   H3R 1103   6.806   0.204   7.293  1.7428  2.3646 -0.5067
    9SAPS   H3S 1104   6.741   0.355   7.216 -0.2384  0.2331 -0.6510
    9SAPS   C24 1105   6.591   0.209   7.229  0.0144 -0.5612  1.1240
    9SAPS   H4R 1106   6.531   0.148   7.300 -1.3333 -0.4238  0.1469
    9SAPS   H4S 1107   6.615   0.142   7.143 -2.4865 -0.9970  0.6936
    9SAPS   C25 1108   6.490   0.315   7.188 -0.9227 -0.2131  0.3965
    9SAPS   H5R 1109   6.440   0.362   7.273  1.7326  0.8813  1.4727
    9SAPS   C26 1110   6.479   0.371   7.064  0.0588  0.1923 -0.3330
    9SAPS   H6R 1111   6.398   0.444   7.053 -1.4212 -1.6659 -2.8480
    9SAPS   C27 1112   6.557   0.343   6.937  0.3288  0.8100 -0.2090
    9SAPS   H7R 1113   6.490   0.288   6.867 -1.1175  0.4615  1.3984
    9SAPS   H7S 1114   6.641   0.275   6.959 -0.5294 -0.5619 -1.0304
    9SAPS   C28 1115   6.602   0.475   6.866 -0.0344  0.0854 -0.7138
    9SAPS   H8R 1116   6.627   0.555   6.938  0.4801  0.3392 -1.1667
    9SAPS   C29 1117   6.577   0.517   6.744 -0.8709 -0.5504  0.0831
    9SAPS   H9R 1118   6.615   0.614   6.712 -1.6846  0.0757  0.9583
    9SAPS  C210 1119   6.495   0.453   6.642  0.0536 -0.6773  0.2543
    9SAPS  H10R 1120   6.419   0.526   6.608 -0.0109 -1.0785 -0.4826
    9SAPS  H10S 1121   6.446   0.363   6.687 -0.4873  0.0062  1.0854
    9SAPS  C211 1122   6.583   0.408   6.526  0.3175 -1.0483 -0.3325
    9SAPS  H11R 1123   6.677   0.362   6.560  1.4339  0.4516 -1.2105
    9SAPS  C212 1124   6.565   0.425   6.392 -0.0244  0.5850  0.2409
    9SAPS  H12R 1125   6.631   0.369   6.324  0.4177  1.8199 -0.3671
    9SAPS  C213 1126   6.451   0.494   6.319  0.1676 -0.6742 -0.3978
    9SAPS  H13R 1127   6.362   0.513   6.382  0.2504 -1.6939  0.0460
    9SAPS  H13S 1128   6.417   0.432   6.233  2.2863  0.3268 -2.0680
    9SAPS  C214 1129   6.497   0.630   6.260  0.8722  0.4216 -0.0519
    9SAPS  H14R 1130   6.505   0.705   6.340  4.1931  0.3640 -0.2005
    9SAPS  C215 1131   6.501   0.670   6.132 -0.5977  0.1306 -0.0221
    9SAPS  H15R 1132   6.524   0.775   6.111  0.4046  0.5079  2.5975
    9SAPS  C216 1133   6.491   0.582   6.014 -0.7714 -0.0054  0.4916
    9SAPS  H16R 1134   6.483   0.474   6.041  0.1883  0.1680  1.5311
    9SAPS  H16S 1135   6.583   0.583   5.952  0.1105  1.5108  1.7321
    9SAPS  C217 1136   6.367   0.623   5.925 -0.7220 -0.5411  0.7141
    9SAPS  H17R 1137   6.277   0.596   5.984 -1.2764 -4.5553 -1.5880
    9SAPS  H17S 1138   6.381   0.550   5.842  0.0339 -1.0018  1.2290
    9SAPS  C218 1139   6.363   0.765   5.861 -1.0884 -0.5321 -0.8709
    9SAPS  H18R 1140   6.455   0.789   5.805 -0.1127  2.5537  1.8158
    9SAPS  H18S 1141   6.352   0.841   5.941  2.3840  0.4423 -1.1835
    9SAPS  C219 1142   6.238   0.771   5.779  0.5994 -0.1146  0.6513
    9SAPS  H19R 1143   6.196   0.873   5.772 -0.2069 -0.4205  0.9299
    9SAPS  H19S 1144   6.160   0.707   5.826 -0.2485 -0.5072 -1.1828
    9SAPS  C220 1145   6.248   0.728   5.630 -0.0831  0.8693  0.2749
    9SAPS  H20R 1146   6.345   0.771   5.596  1.9513 -1.3707  2.7932
    9SAPS  H20S 1147   6.161   0.767   5.572 -0.3587 -0.9630 -0.6497
    9SAPS  H20T 1148   6.249   0.618   5.616  0.8073  0.8195  0.6773
    9SAPS   C33 1149   6.591  -0.285   7.395 -0.2343  0.1771  1.1826
    9SAPS   H3X 1150   6.539  -0.194   7.358 -0.0361 -0.5077 -0.9638
    9SAPS   H3Y 1151   6.568  -0.370   7.326 -0.6986  0.9555  0.3554
    9SAPS   C34 1152   6.742  -0.257   7.394  0.2418 -0.4099  0.2856
    9SAPS   H4X 1153   6.788  -0.344   7.445  1.9057  1.3914  2.0091
    9SAPS   H4Y 1154   6.750  -0.173   7.467  0.9347  0.6812 -1.0119
    9SAPS   C35 1155   6.804  -0.231   7.261  0.3939  0.3549 -0.4734
    9SAPS   H5X 1156   6.787  -0.323   7.201 -3.0201  1.9194 -2.2380
    9SAPS   H5Y 1157   6.913  -0.209   7.267  0.4010 -0.0350  1.2256
    9SAPS   C36 1158   6.735  -0.123   7.167  0.7808 -0.4947  0.5935
    9SAPS   H6X 1159   6.759  -0.024   7.212  3.3644  0.1320 -1.8844
    9SAPS   H6Y 1160   6.627  -0.148   7.160  0.7077 -0.3056  1.0128
    9SAPS   C37 1161   6.802  -0.126   7.025  0.4723 -0.1010  0.5931
    9SAPS   H7X 1162   6.783  -0.227   6.983  0.9799  0.3188 -0.7072
    9SAPS   H7Y 1163   6.912  -0.112   7.027  0.8343 -2.6780  1.4881
    9SAPS   C38 1164   6.740  -0.025   6.922 -0.3170 -0.5194 -0.1107
    9SAPS   H8X 1165   6.744   0.078   6.963 -2.1469  0.3475 -1.9318
    9SAPS   H8Y 1166   6.632  -0.053   6.915 -0.2599 -1.0547  0.9743
    9SAPS   C39 1167   6.805  -0.045   6.779  0.4272  0.3631 -0.2659
    9SAPS   H9X 1168   6.757  -0.135   6.736  0.2514  0.3141  0.0244
    9SAPS   H9Y 1169   6.913  -0.063   6.793  0.3948 -0.4338 -0.9810
    9SAPS  C310 1170   6.775   0.083   6.699 -0.1638  0.0629  0.1356
    9SAPS  H10X 1171   6.845   0.167   6.718  0.1959 -0.6502  2.1500
    9SAPS  H10Y 1172   6.673   0.113   6.733 -0.3748 -0.2605 -0.2020
    9SAPS  C311 1173   6.738   0.048   6.555  0.6613 -0.4959 -0.6903
    9SAPS  H11X 1174   6.666   0.122   6.514  0.9461  0.1884 -0.0002
    9SAPS  H11Y 1175   6.687  -0.050   6.561  2.8612 -1.8450 -2.6943
    9SAPS  C312 1176   6.863   0.046   6.462  0.1223  0.4649  0.0464
    9SAPS  H12X 1177   6.928  -0.037   6.497  0.2824  1.1171  1.3931
    9SAPS  H12Y 1178   6.921   0.139   6.479 -1.0180  1.3286 -0.6549
    9SAPS  C313 1179   6.838   0.056   6.312  0.2343 -0.3692  0.3819
    9SAPS  H13X 1180   6.931   0.093   6.263 -0.5607 -0.8879 -1.6191
    9SAPS  H13Y 1181   6.759   0.130   6.287  0.6725  0.1373  0.4808
    9SAPS  C314 1182   6.779  -0.068   6.240  0.1572  0.0544  0.0838
    9SAPS  H14X 1183   6.682  -0.092   6.288  0.6662 -0.6958  0.7704
    9SAPS  H14Y 1184   6.856  -0.146   6.260  0.8705  0.1280 -2.1246
    9SAPS  C315 1185   6.779  -0.050   6.087 -0.4480 -0.6295  0.0915
    9SAPS  H15X 1186   6.885  -0.035   6.056 -0.6143  1.2543  0.2811
    9SAPS  H15Y 1187   6.723   0.040   6.055  1.7227  0.5953 -0.5296
    9SAPS  C316 1188   6.720  -0.166   6.004  0.0774  0.5648  0.2055
    9SAPS  H16X 1189   6.615  -0.176   6.037  0.2767  0.4036  0.8115
    9SAPS  H16Y 1190   6.765  -0.265   6.026 -0.6083  0.0671 -0.5876
    9SAPS  C317 1191   6.727  -0.143   5.852 -0.0595 -0.6713 -0.2976
    9SAPS  H17X 1192   6.655  -0.060   5.835  0.1648 -0.1457  1.1420
    9SAPS  H17Y 1193   6.679  -0.233   5.808 -1.6829 -0.6567  1.2864
    9SAPS  C318 1194   6.866  -0.106   5.800  0.2374 -0.6147  0.1737
    9SAPS  H18X 1195   6.861  -0.084   5.691  0.2383  0.7090  0.4290
    9SAPS  H18Y 1196   6.947  -0.180   5.820  0.0503 -1.2669 -1.3408
    9SAPS  H18Z 1197   6.904  -0.015   5.851  1.1054  1.0561 -3.1702
   10SAPS     N 1198   1.042   6.307   7.691  0.0966  0.4885  0.0837
   10SAPS   HN1 1199   0.962   6.241   7.696  1.4453 -1.4195 -1.8485
   10SAPS   HN2 1200   1.023   6.369   7.610  0.8235 -1.9379 -2.0649
   10SAPS   HN3 1201   1.121   6.250   7.655  0.0786 -0.2565  1.1739
   10SAPS   C12 1202   1.076   6.375   7.824  0.2213 -0.2213 -0.0342
   10SAPS  H12A 1203   0.982   6.405   7.868  1.1344  3.9806 -0.5658
   10SAPS   C13 1204   1.159   6.288   7.924 -0.6991 -0.3800 -0.4712
   10SAPS  O13A 1205   1.185   6.171   7.896 -0.0469 -0.3405  0.0457
   10SAPS  O13B 1206   1.156   6.323   8.040  0.4415  0.3606 -0.7556
   10SAPS   C11 1207   1.149   6.509   7.802 -0.5866 -0.7847 -0.0220
   10SAPS  H11A 1208   1.249   6.481   7.763 -0.2755  0.8174 -0.4371
   10SAPS  H11B 1209   1.130   6.552   7.902  0.0795  0.0375 -0.2471
   10SAPS     P 1210   1.157   6.723   7.646  0.1602  0.0656 -0.3602
   10SAPS   O13 1211   1.197   6.821   7.753 -0.6869  0.2994  0.5661
   10SAPS   O14 1212   1.268   6.687   7.560 -0.4717 -0.3241 -0.1674
   10SAPS   O12 1213   1.082   6.601   7.708  0.1701 -0.2958 -0.2147
   10SAPS   O11 1214   1.049   6.792   7.556 -0.0722 -0.7068 -0.6712
   10SAPS    C1 1215   0.910   6.789   7.591 -0.2296 -0.1160 -0.5240
   10SAPS    HA 1216   0.902   6.793   7.701  2.4757  0.8092 -0.2708
   10SAPS    HB 1217   0.858   6.878   7.548  0.4586  1.1747  1.1818
   10SAPS    C2 1218   0.834   6.665   7.537 -0.4028  1.1549  0.6609
   10SAPS    HS 1219   0.870   6.588   7.608  0.1022 -0.2206 -1.0162
   10SAPS   O21 1220   0.871   6.633   7.407 -0.5105 -0.0529  0.7770
   10SAPS   C21 1221   0.943   6.526   7.386  0.0822 -0.1360 -0.1450
   10SAPS   O22 1222   0.973   6.442   7.471  0.2015  0.0498  0.6789
   10SAPS   C22 1223   0.989   6.517   7.240 -0.1565  0.3037  0.1854
   10SAPS   H2R 1224   0.906   6.518   7.166  1.9422 -3.2112 -2.5025
   10SAPS   H2S 1225   1.060   6.602   7.227 -0.3783  0.3393 -0.8675
   10SAPS    C3 1226   0.675   6.674   7.534  0.2230  0.4911 -0.3284
   10SAPS    HX 1227   0.652   6.682   7.643  0.3199 -1.4557 -0.1301
   10SAPS    HY 1228   0.634   6.573   7.511  2.0257 -0.4830  0.4998
   10SAPS   O31 1229   0.615   6.783   7.468 -0.0784  0.0494  0.8199
   10SAPS   C31 1230   0.552   6.745   7.349 -0.8051 -0.0614 -0.4258
   10SAPS   O32 1231   0.562   6.636   7.294  0.1682  0.1537  0.7708
   10SAPS   C32 1232   0.447   6.859   7.322 -0.0517 -0.6022  0.2533
   10SAPS   H2X 1233   0.472   6.946   7.386 -0.6116  0.5150 -0.9967
   10SAPS   H2Y 1234   0.345   6.821   7.343  0.1043 -0.5765  1.1109
   10SAPS   C23 1235   1.087   6.393   7.217  0.5682 -0.3618  0.1189
   10SAPS   H3R 1236   1.030   6.298   7.207 -0.0262  0.1178 -1.2053
   10SAPS   H3S 1237   1.159   6.377   7.301 -0.2713 -0.8283  0.7735
   10SAPS   C24 1238   1.170   6.414   7.097  0.1367 -0.6335 -0.2980
   10SAPS   H4R 1239   1.252   6.339   7.099  0.1031 -0.6537  1.1519
   10SAPS   H4S 1240   1.220   6.514   7.101 -0.7071 -0.1443 -1.5254
   10SAPS   C25 1241   1.087   6.409   6.961  0.1689 -0.8519  0.0159
   10SAPS   H5R 1242   0.995   6.468   6.964  1.1221  0.7400 -1.1105
   10SAPS   C26 1243   1.108   6.345   6.836 -0.4049  0.0206 -0.1755
   10SAPS   H6R 1244   1.027   6.351   6.762 -0.0861  0.2547 -0.5063
   10SAPS   C27 1245   1.227   6.259   6.805  0.6320 -0.4898 -0.2174
   10SAPS   H7R 1246   1.306   6.271   6.882 -1.4186 -0.1075  1.9328
   10SAPS   H7S 1247   1.261   6.285   6.702 -2.4997  0.2782 -1.1771
   10SAPS   C28 1248   1.180   6.114   6.818 -0.0562  0.1640 -0.1004
   10SAPS   H8R 1249   1.115   6.079   6.900 -1.3899 -1.0431 -1.6145
   10SAPS   C29 1250   1.215   6.017   6.736  0.1746  0.5393  0.2808
   10SAPS   H9R 1251   1.178   5.917   6.762  1.6989 -0.1358 -0.0078
   10SAPS  C210 1252   1.296   6.012   6.606 -0.2234 -0.7370  0.3310
   10SAPS  H10R 1253   1.325   5.907   6.589 -0.5967 -0.7676 -0.1169
   10SAPS  H10S 1254   1.390   6.069   6.623 -0.3119  0.8115 -3.3946
   10SAPS  C211 1255   1.223   6.084   6.495  0.4396 -0.2984 -0.1436
   10SAPS  H11R 1256   1.139   6.150   6.522  2.2218  1.6748  0.7987
   10SAPS  C212 1257   1.235   6.050   6.370  1.2194  0.2168  0.0745
   10SAPS  H12R 1258   1.170   6.092   6.291  0.6688 -0.1889  0.3045
   10SAPS  C213 1259   1.332   5.957   6.311 -0.2338 -0.6582  0.6590
   10SAPS  H13R 1260   1.393   5.912   6.391  2.2602  3.4616  1.3803
   10SAPS  H13S 1261   1.403   6.018   6.251 -0.3616  0.4129  1.5604
   10SAPS  C214 1262   1.272   5.845   6.233 -0.2977 -0.3356 -0.1086
   10SAPS  H14R 1263   1.247   5.755   6.292  0.8695  0.0804  1.0783
   10SAPS  C215 1264   1.264   5.829   6.098 -0.0310 -0.2325 -0.5174
   10SAPS  H15R 1265   1.211   5.740   6.061 -1.6852  0.2883  0.5321
   10SAPS  C216 1266   1.298   5.921   5.989 -0.1875  0.0133  0.7052
   10SAPS  H16R 1267   1.409   5.925   5.978 -0.3614 -0.2314 -1.7492
   10SAPS  H16S 1268   1.255   6.022   6.004  3.5014  1.8280  0.1744
   10SAPS  C217 1269   1.243   5.875   5.848  0.3318  0.3262  0.1573
   10SAPS  H17R 1270   1.270   5.768   5.846 -1.2643 -0.1298  0.7780
   10SAPS  H17S 1271   1.288   5.936   5.767  0.0829 -0.1925 -0.3775
   10SAPS  C218 1272   1.092   5.892   5.833 -0.4031 -0.3846 -0.1903
   10SAPS  H18R 1273   1.027   5.851   5.913 -2.8248 -2.1311 -2.8594
   10SAPS  H18S 1274   1.059   5.826   5.750 -2.5958 -2.6736  2.3479
   10SAPS  C219 1275   1.053   6.032   5.814 -0.2002 -0.1722  0.1156
   10SAPS  H19R 1276   1.080   6.095   5.902  0.1074 -0.7929  0.4683
   10SAPS  H19S 1277   0.943   6.018   5.817 -0.1592 -0.3982  1.7004
   10SAPS  C220 1278   1.105   6.096   5.683 -0.6685 -0.4132 -0.3272
   10SAPS  H20R 1279   1.204   6.134   5.715 -0.7315 -0.4812 -0.0540
   10SAPS  H20S 1280   1.047   6.183   5.646  0.4564  0.5051  0.0317
   10SAPS  H20T 1281   1.116   6.026   5.597  0.0651  0.9309 -1.3582
   10SAPS   C33 1282   0.441   6.898   7.164 -1.1021 -0.3180  0.2928
   10SAPS   H3X 1283   0.403   6.813   7.103  0.0090  0.0244 -0.8953
   10SAPS   H3Y 1284   0.543   6.911   7.124 -1.0932 -1.6680 -0.1625
   10SAPS   C34 1285   0.358   7.016   7.125  0.0162 -0.7320 -0.4913
   10SAPS   H4X 1286   0.385   7.111   7.176 -0.4741 -0.0654 -1.4541
   10SAPS   H4Y 1287   0.252   6.993   7.148  0.2834 -1.2247  0.2959
   10SAPS   C35 1288   0.356   7.047   6.979  0.0919 -0.1314 -0.1016
   10SAPS   H5X 1289   0.309   6.962   6.925  0.9052 -0.3869 -0.4155
   10SAPS   H5Y 1290   0.457   7.071   6.940  0.0337  0.3093  0.0076
   10SAPS   C36 1291   0.283   7.179   6.947 -0.6301 -0.0918 -0.2024
   10SAPS   H6X 1292   0.328   7.260   7.009 -1.5563 -1.5196  2.4957
   10SAPS   H6Y 1293   0.178   7.170   6.981 -0.7058  1.7392  0.1712
   10SAPS   C37 1294   0.288   7.223   6.806  0.0980 -0.4829  0.4165
   10SAPS   H7X 1295   0.285   7.334   6.806 -1.5922 -0.4857 -0.8371
   10SAPS   H7Y 1296   0.187   7.203   6.763  0.6727  0.5759 -1.5501
   10SAPS   C38 1297   0.404   7.173   6.721 -0.1230 -0.3314  0.0084
   10SAPS   H8X 1298   0.391   7.063   6.714  1.3748 -0.5359  0.1446
   10SAPS   H8Y 1299   0.496   7.190   6.780 -1.4575  1.6671  1.6829
   10SAPS   C39 1300   0.412   7.222   6.573  0.3071  0.4766  0.0759
   10SAPS   H9X 1301   0.507   7.195   6.522  0.2628 -0.1270  0.3082
   10SAPS   H9Y 1302   0.410   7.333   6.571  0.0514  0.4744  0.2343
   10SAPS  C310 1303   0.301   7.173   6.487 -0.0564  0.3301 -0.5405
   10SAPS  H10X 1304   0.197   7.195   6.522 -0.3784 -0.2949 -1.0775
   10SAPS  H10Y 1305   0.299   7.062   6.476 -0.1791  0.2134  0.5416
   10SAPS  C311 1306   0.310   7.221   6.342 -0.1952 -0.2509  0.4565
   10SAPS  H11X 1307   0.405   7.181   6.301 -0.6486 -1.1396  0.2563
   10SAPS  H11Y 1308   0.296   7.327   6.313  0.4730 -0.5289 -0.9834
   10SAPS  C312 1309   0.203   7.143   6.255 -0.1494  0.6263 -1.1802
   10SAPS  H12X 1310   0.100   7.168   6.287 -0.1298  1.1644 -1.5213
   10SAPS  H12Y 1311   0.228   7.035   6.254  1.7614  1.0276 -1.9106
   10SAPS  C313 1312   0.217   7.193   6.108  0.5963 -0.0480  0.3779
   10SAPS  H13X 1313   0.322   7.181   6.073  0.8221 -0.6034  1.2174
   10SAPS  H13Y 1314   0.195   7.301   6.114  0.5041 -0.1262  1.5842
   10SAPS  C314 1315   0.113   7.113   6.013 -0.3102 -0.5793  0.8603
   10SAPS  H14X 1316   0.004   7.130   6.029 -0.5805  0.0338 -1.4079
   10SAPS  H14Y 1317   0.135   7.004   6.010  0.1408 -0.4658 -0.7890
   10SAPS  C315 1318   0.140   7.162   5.866 -0.2457 -0.0131  0.3166
   10SAPS  H15X 1319   0.243   7.130   5.840 -1.0404 -2.1253 -0.4442
   10SAPS  H15Y 1320   0.148   7.273   5.864  1.0775 -0.0741 -2.4444
   10SAPS  C316 1321   0.038   7.121   5.764 -0.4300 -0.2009 -0.5937
   10SAPS  H16X 1322   0.073   7.163   5.667  1.7068  1.9535  0.9810
   10SAPS  H16Y 1323  -0.060   7.166   5.792 -0.3296 -0.6445  0.5200
   10SAPS  C317 1324   0.030   6.968   5.749 -0.6492 -0.8657  0.0938
   10SAPS  H17X 1325  -0.012   6.925   5.843  0.2597  0.4672  1.1345
   10SAPS  H17Y 1326   0.128   6.918   5.730  0.5265  0.5943  1.9519
   10SAPS  C318 1327  -0.074   6.928   5.644 -0.1289  0.0640 -0.1172
   10SAPS  H18X 1328  -0.173   6.969   5.674  0.3467  0.9655  0.2505
   10SAPS  H18Y 1329  -0.079   6.818   5.636  3.1586 -0.1291 -1.0807
   10SAPS  H18Z 1330  -0.045   6.971   5.545  2.0165  0.3690  0.5892
   11SAPS     N 1331   2.353   5.912   2.959 -0.2781  0.2953 -0.2164
   11SAPS   HN1 1332   2.281   5.838   2.963  0.6229 -0.5715  0.3591
   11SAPS   HN2 1333   2.329   5.982   2.885  0.9444  0.8531 -0.1058
   11SAPS   HN3 1334   2.447   5.873   2.940  0.6556  1.0499  2.4118
   11SAPS   C12 1335   2.340   5.999   3.080 -0.7320  0.4702  0.6438
   11SAPS  H12A 1336   2.385   5.939   3.158  1.0099 -1.0779 -1.4663
   11SAPS   C13 1337   2.426   6.124   3.063  0.8044  0.3700  0.0215
   11SAPS  O13A 1338   2.498   6.139   2.962 -0.4725  0.1479 -0.1870
   11SAPS  O13B 1339   2.416   6.209   3.151  0.0771  0.0107  0.0202
   11SAPS   C11 1340   2.195   6.033   3.106  0.0365  0.3694 -0.1143
   11SAPS  H11A 1341   2.163   6.092   3.017  1.0670  1.4083  0.1793
   11SAPS  H11B 1342   2.190   6.104   3.191  0.8291 -0.8718  1.0133
   11SAPS     P 1343   2.066   5.849   3.249  0.0389  0.1185 -0.2628
   11SAPS   O13 1344   1.929   5.800   3.227 -0.2519  0.3673  0.1343
   11SAPS   O14 1345   2.173   5.746   3.276 -0.7329 -0.3402 -1.2705
   11SAPS   O12 1346   2.103   5.924   3.121 -1.2628  0.5727  0.3048
   11SAPS   O11 1347   2.075   5.969   3.349 -0.1091  0.0020 -0.1540
   11SAPS    C1 1348   1.973   6.066   3.350 -0.4673  0.1439 -0.3478
   11SAPS    HA 1349   2.014   6.170   3.350 -1.8343  0.7047 -0.2149
   11SAPS    HB 1350   1.901   6.065   3.265 -2.5243  2.0608  1.2384
   11SAPS    C2 1351   1.882   6.072   3.477 -0.1885  0.1472 -0.4204
   11SAPS    HS 1352   1.842   6.175   3.484 -0.6215  0.1044 -1.9755
   11SAPS   O21 1353   1.940   6.028   3.598  0.1270 -0.2551  0.7002
   11SAPS   C21 1354   2.014   6.114   3.663  0.8218 -0.4339  0.0661
   11SAPS   O22 1355   2.028   6.230   3.627  0.0859  0.2081 -0.0864
   11SAPS   C22 1356   2.090   6.056   3.787  0.4819 -0.1789  0.5964
   11SAPS   H2R 1357   2.029   5.978   3.837  1.3973 -0.1358  1.8068
   11SAPS   H2S 1358   2.180   5.996   3.759  1.4333  1.7981 -0.8557
   11SAPS    C3 1359   1.746   5.985   3.457  0.8818  0.1600  0.0662
   11SAPS    HX 1360   1.780   5.884   3.424 -0.9110 -0.3192 -0.4548
   11SAPS    HY 1361   1.688   6.035   3.376 -1.8850 -0.6375  1.4479
   11SAPS   O31 1362   1.680   5.976   3.581  0.1472  0.4594 -0.3645
   11SAPS   C31 1363   1.581   6.056   3.599  0.0819 -0.2507 -0.2645
   11SAPS   O32 1364   1.550   6.151   3.532  0.2687  0.0127 -0.1286
   11SAPS   C32 1365   1.506   6.024   3.735  0.8425  0.1154 -0.0807
   11SAPS   H2X 1366   1.463   6.124   3.757  0.0332  0.1497 -1.6960
   11SAPS   H2Y 1367   1.587   6.004   3.808  0.8395 -1.2064 -0.4131
   11SAPS   C23 1368   2.117   6.168   3.884 -0.4781 -0.2069  0.2531
   11SAPS   H3R 1369   2.187   6.243   3.842 -0.8448 -0.5249 -0.9712
   11SAPS   H3S 1370   2.180   6.119   3.961 -1.7025 -1.9232  0.2354
   11SAPS   C24 1371   1.988   6.206   3.949 -0.1262 -0.2501 -0.3425
   11SAPS   H4R 1372   1.903   6.217   3.878  2.7325  1.7451 -3.7849
   11SAPS   H4S 1373   1.991   6.302   4.005 -1.2733 -1.0472  1.1462
   11SAPS   C25 1374   1.938   6.097   4.048  0.1825 -0.7720  0.2103
   11SAPS   H5R 1375   1.874   6.025   3.994  1.2072 -1.3408 -0.2705
   11SAPS   C26 1376   1.964   6.080   4.179 -0.0813  0.2821  0.1324
   11SAPS   H6R 1377   1.911   6.001   4.233  1.8556 -1.2176 -0.0424
   11SAPS   C27 1378   2.054   6.171   4.259  1.2936  0.4864  0.2556
   11SAPS   H7R 1379   1.991   6.220   4.337  1.1764 -0.2367  0.6237
   11SAPS   H7S 1380   2.105   6.249   4.198  0.3423  0.2206 -0.9032
   11SAPS   C28 1381   2.153   6.070   4.311 -0.3139  0.1846 -0.8480
   11SAPS   H8R 1382   2.213   6.017   4.236 -1.0995 -1.5864 -0.2661
   11SAPS   C29 1383   2.186   6.061   4.444 -0.2772 -0.4384  0.0019
   11SAPS   H9R 1384   2.278   6.008   4.472  1.0351  0.7836 -1.7852
   11SAPS  C210 1385   2.138   6.136   4.569  0.2532 -0.2890  0.5285
   11SAPS  H10R 1386   2.097   6.059   4.638 -0.1408 -1.2919 -0.7833
   11SAPS  H10S 1387   2.062   6.214   4.548  0.8846  0.5093  1.1374
   11SAPS  C211 1388   2.256   6.200   4.640 -0.8960  0.1069 -0.3232
   11SAPS  H11R 1389   2.278   6.304   4.611  0.3907  0.1366  0.6789
   11SAPS  C212 1390   2.318   6.142   4.744  0.0733  0.2022  0.6163
   11SAPS  H12R 1391   2.392   6.210   4.788  0.5501  0.5757 -0.7079
   11SAPS  C213 1392   2.298   6.008   4.815 -0.3348  0.3999  0.3395
   11SAPS  H13R 1393   2.225   5.950   4.755  0.4607  0.2075 -0.4629
   11SAPS  H13S 1394   2.250   6.020   4.915  0.6139 -1.9733  1.1667
   11SAPS  C214 1395   2.435   5.948   4.821  0.0246 -0.0677 -0.1718
   11SAPS  H14R 1396   2.450   5.874   4.740  1.3816  0.1134 -0.1039
   11SAPS  C215 1397   2.526   5.970   4.919  0.0733  0.5550 -0.2910
   11SAPS  H15R 1398   2.622   5.918   4.907 -0.6698 -1.0481  0.5296
   11SAPS  C216 1399   2.512   6.065   5.035  0.0149  0.5214 -0.3169
   11SAPS  H16R 1400   2.410   6.109   5.031 -0.0506  0.3409 -0.6609
   11SAPS  H16S 1401   2.594   6.140   5.023  1.2995 -0.9397 -1.0333
   11SAPS  C217 1402   2.528   5.995   5.165 -0.0702  0.0612 -0.4509
   11SAPS  H17R 1403   2.637   5.990   5.185 -0.0503 -1.3416 -0.8559
   11SAPS  H17S 1404   2.483   5.894   5.169 -0.0500  0.0785  0.7976
   11SAPS  C218 1405   2.472   6.079   5.294  0.0627  0.1045  0.2509
   11SAPS  H18R 1406   2.364   6.100   5.278  0.1730  1.1423  0.7950
   11SAPS  H18S 1407   2.530   6.171   5.276  1.5302 -0.9401 -0.5179
   11SAPS  C219 1408   2.494   6.019   5.428 -1.5829 -0.1145 -0.6195
   11SAPS  H19R 1409   2.601   5.990   5.424 -1.7750 -0.9315 -0.0732
   11SAPS  H19S 1410   2.444   5.920   5.429 -1.8527  0.0230 -0.4032
   11SAPS  C220 1411   2.461   6.111   5.539 -0.0615 -0.3449 -0.1775
   11SAPS  H20R 1412   2.357   6.141   5.511 -0.5793 -1.2875  0.6979
   11SAPS  H20S 1413   2.528   6.200   5.543 -1.2418  0.5491  0.4466
   11SAPS  H20T 1414   2.458   6.056   5.636 -0.7135 -0.4026 -0.2229
   11SAPS   C33 1415   1.409   5.908   3.722 -0.7682  0.2767  0.5213
   11SAPS   H3X 1416   1.350   5.909   3.627  0.5653 -0.5805 -0.3583
   11SAPS   H3Y 1417   1.323   5.926   3.790 -0.5153  0.2645  0.8466
   11SAPS   C34 1418   1.469   5.768   3.754 -0.5134 -0.3565 -0.2747
   11SAPS   H4X 1419   1.549   5.752   3.678  0.1652 -0.3520  0.4302
   11SAPS   H4Y 1420   1.387   5.694   3.739 -0.0545 -0.6671 -1.3181
   11SAPS   C35 1421   1.538   5.760   3.894 -0.7776  0.3696  0.1481
   11SAPS   H5X 1422   1.621   5.828   3.924 -2.3762  2.7959 -0.5487
   11SAPS   H5Y 1423   1.596   5.667   3.880 -0.8027  0.5419 -1.2233
   11SAPS   C36 1424   1.432   5.756   4.002  0.3179 -0.2222 -0.2035
   11SAPS   H6X 1425   1.364   5.673   3.970  0.3084  0.3398 -1.7291
   11SAPS   H6Y 1426   1.380   5.853   4.016  0.1491 -0.3523  0.0781
   11SAPS   C37 1427   1.492   5.711   4.143  0.4801 -0.4556 -0.1148
   11SAPS   H7X 1428   1.563   5.791   4.173  0.2840 -0.6479  0.8675
   11SAPS   H7Y 1429   1.553   5.620   4.120  0.5122 -0.1762 -1.1754
   11SAPS   C38 1430   1.389   5.673   4.240  0.2439 -0.3901 -0.0628
   11SAPS   H8X 1431   1.381   5.563   4.249  1.8436 -0.5267 -0.1170
   11SAPS   H8Y 1432   1.294   5.716   4.203  0.7610  1.8857  1.0482
   11SAPS   C39 1433   1.418   5.749   4.371  0.7766  0.4501  0.2183
   11SAPS   H9X 1434   1.410   5.860   4.368  0.8802  0.4413 -0.6901
   11SAPS   H9Y 1435   1.524   5.726   4.395  0.9264  0.0681 -0.7776
   11SAPS  C310 1436   1.325   5.704   4.487  0.1826 -0.5038  0.3089
   11SAPS  H10X 1437   1.288   5.599   4.487 -2.2731  0.2765 -0.6655
   11SAPS  H10Y 1438   1.221   5.741   4.472  0.2491  0.0372  1.1142
   11SAPS  C311 1439   1.364   5.769   4.616 -0.4319 -0.3100 -0.2646
   11SAPS  H11X 1440   1.284   5.773   4.693  0.8534  0.3392  1.0934
   11SAPS  H11Y 1441   1.394   5.873   4.592 -2.1570 -0.4849 -3.7307
   11SAPS  C312 1442   1.490   5.708   4.696 -0.0598 -0.4259 -0.1881
   11SAPS  H12X 1443   1.587   5.731   4.647 -0.6114  0.3939 -0.9363
   11SAPS  H12Y 1444   1.485   5.598   4.691  0.2218 -0.4097 -0.9145
   11SAPS  C313 1445   1.505   5.746   4.843 -0.0129  0.0844 -0.9170
   11SAPS  H13X 1446   1.417   5.703   4.894 -0.0845 -0.9645 -1.8910
   11SAPS  H13Y 1447   1.504   5.855   4.867  0.5417  0.1013 -0.9367
   11SAPS  C314 1448   1.629   5.683   4.920  0.2697 -0.2125 -0.2369
   11SAPS  H14X 1449   1.723   5.705   4.865 -0.3303  0.6135 -0.9435
   11SAPS  H14Y 1450   1.625   5.572   4.931  0.7971 -0.3130 -1.0354
   11SAPS  C315 1451   1.638   5.743   5.062  1.0507 -0.5443 -0.0066
   11SAPS  H15X 1452   1.536   5.752   5.104  1.2821  0.6172  0.3587
   11SAPS  H15Y 1453   1.684   5.844   5.065  1.0533 -0.5137 -0.8850
   11SAPS  C316 1454   1.718   5.652   5.157  0.5000  0.2074  0.5624
   11SAPS  H16X 1455   1.823   5.636   5.122  0.0642 -0.4447 -0.5346
   11SAPS  H16Y 1456   1.672   5.551   5.161 -1.1799  0.8912 -0.4917
   11SAPS  C317 1457   1.715   5.713   5.298 -0.2431 -0.2558 -0.5946
   11SAPS  H17X 1458   1.608   5.726   5.321 -0.2096  0.0396 -0.6027
   11SAPS  H17Y 1459   1.753   5.818   5.296 -0.8079 -0.0265  0.3013
   11SAPS  C318 1460   1.785   5.623   5.391  0.3872  0.3389 -0.8465
   11SAPS  H18X 1461   1.732   5.526   5.404  0.1525  0.6654  1.0240
   11SAPS  H18Y 1462   1.799   5.670   5.491 -1.7012  0.0338 -0.3632
   11SAPS  H18Z 1463   1.887   5.602   5.355 -0.7286 -2.4574 -2.6436
   12SAPS     N 1464   2.362   5.572   3.347 -0.1949 -0.3897  0.0164
   12SAPS   HN1 1465   2.431   5.621   3.409 -0.0268  0.4193 -0.7981
   12SAPS   HN2 1466   2.293   5.644   3.320 -0.7485 -0.4356  1.2521
   12SAPS   HN3 1467   2.310   5.504   3.407  0.8655  0.4255  1.9797
   12SAPS   C12 1468   2.425   5.524   3.219 -0.0958 -0.0216 -0.2469
   12SAPS  H12A 1469   2.512   5.462   3.235 -0.7747 -1.1421 -0.7369
   12SAPS   C13 1470   2.331   5.451   3.119  0.4783  0.1456  0.3806
   12SAPS  O13A 1471   2.212   5.428   3.147  1.1097 -0.8516 -0.2466
   12SAPS  O13B 1472   2.391   5.388   3.023  0.2785 -0.1996  0.0138
   12SAPS   C11 1473   2.481   5.642   3.144  0.4273  0.4116 -0.6256
   12SAPS  H11A 1474   2.391   5.703   3.121 -0.3375 -0.8985 -1.2174
   12SAPS  H11B 1475   2.535   5.605   3.055 -2.0287 -2.4483 -1.0694
   12SAPS     P 1476   2.713   5.733   3.208 -0.2877 -0.0656  0.0856
   12SAPS   O13 1477   2.769   5.605   3.155 -0.1173  0.0571 -0.6884
   12SAPS   O14 1478   2.740   5.858   3.134  0.4664  0.0997 -0.2988
   12SAPS   O12 1479   2.561   5.722   3.233  0.0696  0.4300  0.4023
   12SAPS   O11 1480   2.770   5.757   3.354  0.2431 -0.2644  0.3083
   12SAPS    C1 1481   2.837   5.653   3.423  0.3732 -0.1445  0.1395
   12SAPS    HA 1482   2.869   5.575   3.351 -0.8014  0.8073 -1.4817
   12SAPS    HB 1483   2.931   5.694   3.464 -0.5215 -0.4037  2.6182
   12SAPS    C2 1484   2.757   5.597   3.547  0.3212  0.2419 -0.3127
   12SAPS    HS 1485   2.664   5.558   3.501 -0.4692 -0.0312  1.4126
   12SAPS   O21 1486   2.720   5.704   3.639  0.0138 -0.3348 -0.3422
   12SAPS   C21 1487   2.609   5.775   3.608 -0.3918 -0.0511  0.1852
   12SAPS   O22 1488   2.531   5.749   3.515 -0.2472 -0.4593 -0.0100
   12SAPS   C22 1489   2.584   5.882   3.706 -0.6698 -0.3585 -0.5952
   12SAPS   H2R 1490   2.648   5.969   3.677  0.0664  0.2071  2.3698
   12SAPS   H2S 1491   2.478   5.915   3.710  0.1545  2.5412 -0.1828
   12SAPS    C3 1492   2.829   5.484   3.628  0.1007 -0.3515  0.1063
   12SAPS    HX 1493   2.919   5.520   3.682 -0.3227  0.0308  0.5590
   12SAPS    HY 1494   2.866   5.407   3.557 -0.7235 -0.8771  0.2296
   12SAPS   O31 1495   2.738   5.422   3.726  0.0392 -0.8330  0.0338
   12SAPS   C31 1496   2.747   5.459   3.852  0.3914 -0.2430  0.0526
   12SAPS   O32 1497   2.809   5.556   3.892 -0.0323 -0.0532 -0.5935
   12SAPS   C32 1498   2.662   5.369   3.939  0.8993  0.2609 -1.1567
   12SAPS   H2X 1499   2.680   5.267   3.900  1.7613 -0.1671  0.2546
   12SAPS   H2Y 1500   2.552   5.384   3.944  0.7528 -0.7210 -1.3117
   12SAPS   C23 1501   2.624   5.847   3.848 -0.2983 -0.2595 -0.5255
   12SAPS   H3R 1502   2.619   5.939   3.910  0.2953 -1.3809  1.2698
   12SAPS   H3S 1503   2.732   5.822   3.861 -0.2733  0.1976  0.1753
   12SAPS   C24 1504   2.537   5.729   3.893 -0.0032 -0.1927 -0.0818
   12SAPS   H4R 1505   2.578   5.680   3.984 -0.1019  3.1806  1.9357
   12SAPS   H4S 1506   2.524   5.655   3.811  0.0707 -0.1307 -0.1505
   12SAPS   C25 1507   2.400   5.784   3.940  0.3106 -0.1130 -0.3858
   12SAPS   H5R 1508   2.329   5.786   3.856 -0.7220  0.4641  0.4688
   12SAPS   C26 1509   2.369   5.841   4.060  0.0177 -0.3414  0.1958
   12SAPS   H6R 1510   2.261   5.862   4.064  0.2038  0.9984 -0.9003
   12SAPS   C27 1511   2.455   5.855   4.188  0.7867  0.1982  0.3013
   12SAPS   H7R 1512   2.497   5.956   4.203  0.5188  0.2858  0.4680
   12SAPS   H7S 1513   2.548   5.803   4.156 -0.5841 -0.6836 -2.5617
   12SAPS   C28 1514   2.383   5.810   4.313  0.0800 -0.0143  0.2918
   12SAPS   H8R 1515   2.274   5.826   4.304  0.4636  3.6989  0.8904
   12SAPS   C29 1516   2.445   5.749   4.417  0.3147  0.1971 -0.1615
   12SAPS   H9R 1517   2.386   5.720   4.505  0.4461  0.2949 -0.0421
   12SAPS  C210 1518   2.592   5.719   4.429  0.2104 -0.4231 -0.2553
   12SAPS  H10R 1519   2.635   5.697   4.328  2.3782 -1.9269  0.9096
   12SAPS  H10S 1520   2.599   5.623   4.484 -1.7510  1.3394  3.3968
   12SAPS  C211 1521   2.666   5.823   4.510  0.3327  0.2862  0.9562
   12SAPS  H11R 1522   2.624   5.924   4.495  0.7816  0.0971 -2.0571
   12SAPS  C212 1523   2.773   5.803   4.590 -0.3894 -0.3098  0.5392
   12SAPS  H12R 1524   2.833   5.889   4.624 -0.2496  0.8711 -2.3736
   12SAPS  C213 1525   2.834   5.666   4.618 -0.1245  0.6160  0.1771
   12SAPS  H13R 1526   2.945   5.677   4.609 -0.3060  1.6558 -1.1672
   12SAPS  H13S 1527   2.800   5.585   4.551 -1.0598  1.9223 -0.9739
   12SAPS  C214 1528   2.792   5.632   4.758  1.0785  0.0033  0.0651
   12SAPS  H14R 1529   2.685   5.604   4.759  0.9848  0.0923 -2.4040
   12SAPS  C215 1530   2.862   5.650   4.872  0.5037 -0.2429 -0.7082
   12SAPS  H15R 1531   2.808   5.620   4.963  0.9618 -0.7801 -0.6082
   12SAPS  C216 1532   3.000   5.709   4.906  0.1425  1.0904  0.2439
   12SAPS  H16R 1533   3.067   5.727   4.820  0.0527  2.2249  0.3966
   12SAPS  H16S 1534   3.054   5.622   4.948 -0.7764  0.2518 -0.2782
   12SAPS  C217 1535   3.001   5.824   5.005 -0.0957  0.5264  0.0707
   12SAPS  H17R 1536   3.107   5.851   5.025 -1.3065  4.1740  2.4886
   12SAPS  H17S 1537   2.962   5.792   5.104  0.2427  0.6039  0.2311
   12SAPS  C218 1538   2.931   5.950   4.954 -0.2616  0.2243  0.3021
   12SAPS  H18R 1539   2.927   6.020   5.041 -0.6514  1.0461 -0.3613
   12SAPS  H18S 1540   2.823   5.930   4.933 -0.6085  0.8301  1.3975
   12SAPS  C219 1541   3.016   6.025   4.851  0.1320 -0.2805 -0.2584
   12SAPS  H19R 1542   3.036   5.970   4.756 -0.6496  0.7345 -1.0400
   12SAPS  H19S 1543   3.121   6.032   4.888  0.5035  0.8603 -1.4396
   12SAPS  C220 1544   2.984   6.166   4.815  0.2559  0.2243  0.5875
   12SAPS  H20R 1545   2.945   6.222   4.903 -0.1028 -0.3946  0.8287
   12SAPS  H20S 1546   2.908   6.183   4.736  2.5065  4.2427 -0.9912
   12SAPS  H20T 1547   3.074   6.219   4.778  0.0485  0.8590  0.9561
   12SAPS   C33 1548   2.718   5.384   4.085  0.0791 -0.1192  1.3526
   12SAPS   H3X 1549   2.667   5.473   4.128  0.0645  1.8165 -2.2876
   12SAPS   H3Y 1550   2.827   5.403   4.092 -0.2094  2.0751  0.6279
   12SAPS   C34 1551   2.686   5.261   4.172  0.0993 -0.2158 -0.6726
   12SAPS   H4X 1552   2.758   5.177   4.160 -1.8722 -2.6402  2.6787
   12SAPS   H4Y 1553   2.586   5.214   4.164 -1.0353  1.8791  0.3970
   12SAPS   C35 1554   2.679   5.303   4.323 -0.0327 -0.0725 -1.0480
   12SAPS   H5X 1555   2.630   5.402   4.325 -0.0000 -0.0245 -2.1745
   12SAPS   H5Y 1556   2.780   5.331   4.362  0.5146 -0.9771 -1.7748
   12SAPS   C36 1557   2.627   5.191   4.412  0.1041 -0.2544 -0.0008
   12SAPS   H6X 1558   2.704   5.110   4.415  1.1973  0.6960 -1.1723
   12SAPS   H6Y 1559   2.535   5.150   4.366  0.1259  0.0613 -0.3257
   12SAPS   C37 1560   2.609   5.238   4.564 -0.3997  0.6144 -0.4464
   12SAPS   H7X 1561   2.525   5.309   4.581  0.2545  1.1072  0.9492
   12SAPS   H7Y 1562   2.698   5.301   4.588 -1.0928  0.9879  1.2977
   12SAPS   C38 1563   2.595   5.115   4.654 -0.6651  0.1715  0.5828
   12SAPS   H8X 1564   2.690   5.057   4.658 -0.9511 -0.6210 -2.0265
   12SAPS   H8Y 1565   2.514   5.055   4.608 -0.2901  0.7766 -0.9411
   12SAPS   C39 1566   2.554   5.160   4.801  0.0699 -0.2152 -0.2340
   12SAPS   H9X 1567   2.461   5.219   4.783  0.6091  0.0894 -2.2415
   12SAPS   H9Y 1568   2.638   5.220   4.840 -0.1774 -1.7176  2.9125
   12SAPS  C310 1569   2.542   5.041   4.880  0.1228 -0.1560 -0.7566
   12SAPS  H10X 1570   2.641   4.992   4.860  0.9034  1.2980 -0.5909
   12SAPS  H10Y 1571   2.460   4.978   4.840 -0.3234  1.2698 -2.1754
   12SAPS  C311 1572   2.513   5.077   5.029 -0.0103  1.0179  0.9521
   12SAPS  H11X 1573   2.439   5.160   5.040 -1.8460 -0.2748 -1.0072
   12SAPS  H11Y 1574   2.612   5.092   5.079  0.0756  2.6063  0.3785
   12SAPS  C312 1575   2.460   4.949   5.102 -0.4150 -0.2667  0.5060
   12SAPS  H12X 1576   2.350   4.938   5.085 -0.0106 -1.2323 -1.8892
   12SAPS  H12Y 1577   2.464   4.951   5.213 -0.0656  0.1770  0.4863
   12SAPS  C313 1578   2.525   4.810   5.065 -0.9424 -0.3087  0.8002
   12SAPS  H13X 1579   2.629   4.849   5.077 -1.6576  1.5445  1.2280
   12SAPS  H13Y 1580   2.501   4.781   4.960  2.1993 -0.9961  0.1499
   12SAPS  C314 1581   2.498   4.700   5.164  0.2739 -0.4603  0.4568
   12SAPS  H14X 1582   2.545   4.723   5.262 -0.1683 -1.7065  0.9804
   12SAPS  H14Y 1583   2.548   4.607   5.131 -0.5315  0.4150 -3.7687
   12SAPS  C315 1584   2.351   4.669   5.176  0.4408 -0.5525  0.1165
   12SAPS  H15X 1585   2.320   4.639   5.074  0.1275  0.6027 -0.1473
   12SAPS  H15Y 1586   2.292   4.761   5.194  1.2366  0.9152 -3.8536
   12SAPS  C316 1587   2.305   4.561   5.278 -0.1741 -0.2472  0.4539
   12SAPS  H16X 1588   2.393   4.500   5.307  0.1940  0.5583  1.0681
   12SAPS  H16Y 1589   2.232   4.495   5.227  1.2914 -0.8476 -0.9582
   12SAPS  C317 1590   2.253   4.625   5.407 -0.0094 -0.1355 -0.2107
   12SAPS  H17X 1591   2.220   4.545   5.476  0.9672 -0.0190  0.4058
   12SAPS  H17Y 1592   2.159   4.679   5.379 -0.6431 -0.0877  1.8592
   12SAPS  C318 1593   2.338   4.718   5.492 -0.2077 -0.6035  0.0257
   12SAPS  H18X 1594   2.286   4.735   5.589  1.3842 -1.2499  1.0275
   12SAPS  H18Y 1595   2.369   4.810   5.439 -0.3414 -0.6771 -0.1811
   12SAPS  H18Z 1596   2.435   4.666   5.504 -0.7371 -1.9855 -1.3003
   13SAPS     N 1597   1.989   5.573   3.072 -0.0486 -0.4095  0.2388
   13SAPS   HN1 1598   1.986   5.636   3.154  2.0119 -0.9771  0.8247
   13SAPS   HN2 1599   2.056   5.495   3.090 -0.2854 -0.8793 -0.8448
   13SAPS   HN3 1600   2.025   5.631   2.994  2.4854 -0.0343  1.5687
   13SAPS   C12 1601   1.862   5.500   3.037 -0.1135 -0.4053  0.1084
   13SAPS  H12A 1602   1.787   5.574   3.012  0.7614  0.4575 -0.0046
   13SAPS   C13 1603   1.858   5.408   2.915  0.1923 -0.2757 -0.7952
   13SAPS  O13A 1604   1.975   5.388   2.869 -1.1615 -0.4580 -0.1468
   13SAPS  O13B 1605   1.770   5.319   2.910  0.6015  0.0925 -0.1938
   13SAPS   C11 1606   1.818   5.417   3.161 -0.2355 -0.1727 -0.0503
   13SAPS  H11A 1607   1.863   5.315   3.159  3.4932  1.2958 -0.0111
   13SAPS  H11B 1608   1.710   5.410   3.138 -0.0075 -0.5864 -1.0182
   13SAPS     P 1609   1.828   5.405   3.423  0.0859  0.2846 -0.0805
   13SAPS   O13 1610   1.697   5.354   3.451  0.0537  0.1649  0.1702
   13SAPS   O14 1611   1.943   5.306   3.429 -0.2451 -0.3147  0.2962
   13SAPS   O12 1612   1.838   5.487   3.289  0.2355 -0.0624  0.3930
   13SAPS   O11 1613   1.855   5.518   3.524  0.0492 -0.2769 -0.9283
   13SAPS    C1 1614   1.935   5.631   3.515 -0.4249 -0.4529 -1.2478
   13SAPS    HA 1615   2.025   5.615   3.451  1.1837  2.7287 -0.0295
   13SAPS    HB 1616   1.878   5.720   3.482 -0.0432  0.2464 -0.0653
   13SAPS    C2 1617   1.987   5.678   3.664  0.3906  0.1776  0.4411
   13SAPS    HS 1618   2.060   5.760   3.650 -0.8785  1.1716 -0.6493
   13SAPS   O21 1619   2.043   5.563   3.740  0.7320  0.1042  0.2937
   13SAPS   C21 1620   2.153   5.512   3.686  0.6676 -0.1587  0.0296
   13SAPS   O22 1621   2.230   5.566   3.615 -0.4457  0.0779  0.2308
   13SAPS   C22 1622   2.185   5.375   3.756 -0.4269 -0.0333  0.0088
   13SAPS   H2R 1623   2.086   5.325   3.766 -1.1199  1.1284 -0.7792
   13SAPS   H2S 1624   2.247   5.322   3.680 -0.8339  2.5512 -2.2928
   13SAPS    C3 1625   1.857   5.721   3.746  0.1022  0.1414  0.4874
   13SAPS    HX 1626   1.788   5.634   3.748 -0.4494  0.4624 -1.7969
   13SAPS    HY 1627   1.792   5.798   3.698  1.8042  0.3008 -1.7575
   13SAPS   O31 1628   1.889   5.759   3.887  0.1373 -0.1134  0.4286
   13SAPS   C31 1629   1.868   5.660   3.979 -0.4695 -0.2881 -0.1787
   13SAPS   O32 1630   1.831   5.548   3.952  0.3389 -0.3597 -0.2339
   13SAPS   C32 1631   1.886   5.724   4.120  0.3423  1.3487 -0.3627
   13SAPS   H2X 1632   1.798   5.791   4.129 -1.6391 -1.2014  0.2193
   13SAPS   H2Y 1633   1.982   5.781   4.120  0.2890  1.5051 -2.0918
   13SAPS   C23 1634   2.262   5.374   3.894  0.6836 -0.1780 -0.0572
   13SAPS   H3R 1635   2.335   5.457   3.897  2.3298 -1.4934 -1.3790
   13SAPS   H3S 1636   2.320   5.279   3.898  0.1442 -0.5885 -1.3702
   13SAPS   C24 1637   2.173   5.382   4.022 -0.1098  0.5574  0.2135
   13SAPS   H4R 1638   2.104   5.296   4.029 -0.4435  0.8476  0.5065
   13SAPS   H4S 1639   2.105   5.470   4.014 -0.5887  0.0008 -3.1755
   13SAPS   C25 1640   2.267   5.386   4.142 -0.2550  0.3158  0.1828
   13SAPS   H5R 1641   2.325   5.477   4.160 -2.0000  1.0752  2.3866
   13SAPS   C26 1642   2.283   5.291   4.229  0.0960 -0.4981  0.5237
   13SAPS   H6R 1643   2.364   5.315   4.300  1.6237  2.5363 -2.0244
   13SAPS   C27 1644   2.198   5.170   4.246  0.0694  0.4054 -0.4892
   13SAPS   H7R 1645   2.258   5.092   4.297  1.5325  0.3305 -2.2545
   13SAPS   H7S 1646   2.170   5.127   4.148 -1.0208  2.2391 -1.0404
   13SAPS   C28 1647   2.068   5.182   4.325 -0.6454 -0.3632 -0.2765
   13SAPS   H8R 1648   1.976   5.199   4.267 -3.2207 -2.6803  2.7525
   13SAPS   C29 1649   2.058   5.187   4.456  0.1416  0.7930  0.0584
   13SAPS   H9R 1650   1.959   5.198   4.501 -0.4498 -1.6239 -0.5341
   13SAPS  C210 1651   2.161   5.138   4.552 -0.7844 -0.4588 -0.6851
   13SAPS  H10R 1652   2.263   5.143   4.509  0.3192  2.1449  1.9005
   13SAPS  H10S 1653   2.137   5.030   4.568  0.7359 -1.0035 -1.8529
   13SAPS  C211 1654   2.170   5.223   4.683  0.4356  0.9965  0.0982
   13SAPS  H11R 1655   2.194   5.330   4.677  1.3414  0.7718 -0.3502
   13SAPS  C212 1656   2.143   5.183   4.812  0.1232  0.0790  0.0534
   13SAPS  H12R 1657   2.143   5.254   4.897  3.0636  1.4448 -0.9291
   13SAPS  C213 1658   2.109   5.044   4.860 -0.4271 -0.3834  0.6248
   13SAPS  H13R 1659   2.195   5.001   4.916  0.1961 -0.3609 -0.2873
   13SAPS  H13S 1660   2.108   4.976   4.772  2.2343  0.2832 -0.0155
   13SAPS  C214 1661   1.984   5.028   4.938 -0.1469  0.6393  0.3829
   13SAPS  H14R 1662   1.893   5.004   4.882 -0.2976  2.2862 -0.1347
   13SAPS  C215 1663   1.968   5.043   5.068 -0.2503  0.4128  0.1042
   13SAPS  H15R 1664   1.872   5.035   5.121 -0.5339  0.9247 -0.3226
   13SAPS  C216 1665   2.091   5.080   5.155  0.1612 -0.5229 -0.1865
   13SAPS  H16R 1666   2.180   5.128   5.108  2.3475 -1.6783  2.4371
   13SAPS  H16S 1667   2.146   4.990   5.191  1.1949  0.3476  0.4991
   13SAPS  C217 1668   2.066   5.172   5.271 -0.1563  1.3003 -0.0181
   13SAPS  H17R 1669   2.016   5.270   5.253  0.1008  1.7664  1.6259
   13SAPS  H17S 1670   2.161   5.203   5.320 -0.4256 -1.4080  2.4370
   13SAPS  C218 1671   1.990   5.097   5.377 -0.5122 -0.0702 -0.5358
   13SAPS  H18R 1672   1.916   5.045   5.313 -0.1457 -0.0910 -0.9490
   13SAPS  H18S 1673   1.937   5.173   5.440 -1.7086  0.8134 -2.5011
   13SAPS  C219 1674   2.094   5.025   5.473  0.2113 -0.4257  1.1547
   13SAPS  H19R 1675   2.174   5.101   5.488  0.6639 -0.3523 -1.1512
   13SAPS  H19S 1676   2.147   4.944   5.420 -0.6713  1.0344 -2.2634
   13SAPS  C220 1677   2.025   4.980   5.598 -0.7503 -0.8206  0.1314
   13SAPS  H20R 1678   2.097   4.934   5.669  0.1955 -0.9371 -0.8736
   13SAPS  H20S 1679   1.941   4.910   5.575 -0.8748 -1.5819  2.6796
   13SAPS  H20T 1680   1.983   5.065   5.655  1.3726  0.7514 -0.5406
   13SAPS   C33 1681   1.889   5.615   4.238 -0.1055 -0.5304  0.2076
   13SAPS   H3X 1682   1.972   5.541   4.232 -1.2051 -1.8634  0.8921
   13SAPS   H3Y 1683   1.790   5.566   4.237 -0.8411  0.8125  2.0845
   13SAPS   C34 1684   1.927   5.694   4.372 -0.1431 -0.0503  0.3233
   13SAPS   H4X 1685   1.840   5.761   4.386 -0.4437 -0.6539  1.4515
   13SAPS   H4Y 1686   2.021   5.746   4.343 -0.4216  0.3149  0.0753
   13SAPS   C35 1687   1.950   5.601   4.487  0.0706  0.6036  0.2670
   13SAPS   H5X 1688   2.037   5.537   4.462 -0.0690  0.8669 -0.9720
   13SAPS   H5Y 1689   1.866   5.527   4.492 -0.6692  1.3437 -0.7650
   13SAPS   C36 1690   1.967   5.671   4.620  0.2092  0.2508  0.7566
   13SAPS   H6X 1691   1.867   5.708   4.650  0.4415  1.4510  0.1236
   13SAPS   H6Y 1692   2.035   5.758   4.607  0.5632  0.3038  2.7597
   13SAPS   C37 1693   2.025   5.586   4.726  1.1014  0.5937  0.1134
   13SAPS   H7X 1694   2.118   5.540   4.687 -0.1985 -1.2528 -0.9874
   13SAPS   H7Y 1695   1.962   5.497   4.745  2.0879 -0.2915 -0.6872
   13SAPS   C38 1696   2.038   5.672   4.852  0.4876 -0.4907  0.2850
   13SAPS   H8X 1697   1.935   5.707   4.875  0.6233  0.0277  0.1231
   13SAPS   H8Y 1698   2.104   5.759   4.831 -0.3307  0.2236  0.6048
   13SAPS   C39 1699   2.092   5.597   4.971  0.1013 -0.3355 -0.4141
   13SAPS   H9X 1700   2.056   5.492   4.965 -0.3688 -0.1212 -1.8934
   13SAPS   H9Y 1701   2.072   5.642   5.071  0.2371 -1.7869  0.2781
   13SAPS  C310 1702   2.249   5.596   4.959  0.3142  0.2572 -0.2805
   13SAPS  H10X 1703   2.292   5.697   4.970  3.2759 -1.0908  2.0408
   13SAPS  H10Y 1704   2.264   5.562   4.854 -0.5116 -2.9921  0.5101
   13SAPS  C311 1705   2.334   5.508   5.056  0.8649  0.1449  0.8394
   13SAPS  H11X 1706   2.283   5.413   5.083  1.3143 -0.8748 -1.6291
   13SAPS  H11Y 1707   2.337   5.560   5.154  0.1824  0.6844  0.5821
   13SAPS  C312 1708   2.474   5.484   5.010 -0.6908  0.5325 -0.3812
   13SAPS  H12X 1709   2.510   5.574   4.956 -2.0378  0.9198 -0.6791
   13SAPS  H12Y 1710   2.470   5.398   4.940 -1.1529  0.1035  0.1576
   13SAPS  C313 1711   2.571   5.444   5.119 -0.6486 -0.8250  0.2274
   13SAPS  H13X 1712   2.666   5.420   5.067  1.4608  0.3798  3.2087
   13SAPS  H13Y 1713   2.527   5.358   5.174  0.6475 -2.1385 -0.7158
   13SAPS  C314 1714   2.611   5.548   5.223  0.2498 -0.3472  0.4057
   13SAPS  H14X 1715   2.533   5.573   5.298 -0.9547  0.9515 -1.2060
   13SAPS  H14Y 1716   2.619   5.644   5.169 -0.2463 -0.3383  0.3399
   13SAPS  C315 1717   2.745   5.521   5.288 -0.2449 -0.3596  0.2185
   13SAPS  H15X 1718   2.815   5.495   5.206 -1.4775 -0.6094 -0.7817
   13SAPS  H15Y 1719   2.746   5.438   5.362  1.2458  1.3078  2.2113
   13SAPS  C316 1720   2.808   5.644   5.350  0.2801 -0.3340 -0.9562
   13SAPS  H16X 1721   2.748   5.677   5.438  2.1208 -2.3474  1.1650
   13SAPS  H16Y 1722   2.805   5.730   5.279 -0.8966  1.6429  1.3487
   13SAPS  C317 1723   2.943   5.613   5.411  0.3351  0.3413 -0.0504
   13SAPS  H17X 1724   2.990   5.713   5.423 -1.6764  1.4065 -0.5382
   13SAPS  H17Y 1725   3.019   5.567   5.344  1.5225 -0.7813  1.9625
   13SAPS  C318 1726   2.943   5.528   5.540  0.5689  0.4555 -0.5249
   13SAPS  H18X 1727   2.905   5.425   5.525 -0.0848  0.7621 -1.0544
   13SAPS  H18Y 1728   2.864   5.566   5.608  2.1713  1.3557  0.9303
   13SAPS  H18Z 1729   3.038   5.519   5.598  1.2515 -4.1399 -1.9610
   14SAPS     N 1730   2.772   6.088   2.992  0.5346 -0.2724 -0.0849
   14SAPS   HN1 1731   2.776   5.996   3.040 -1.0846 -0.6072 -0.5034
   14SAPS   HN2 1732   2.764   6.164   3.063 -0.2407  1.1441 -1.6068
   14SAPS   HN3 1733   2.679   6.094   2.945 -0.9251  1.3281  2.7278
   14SAPS   C12 1734   2.883   6.110   2.893  0.3279  0.0941 -0.5224
   14SAPS  H12A 1735   2.953   6.028   2.908 -0.7968 -0.4985  2.0737
   14SAPS   C13 1736   2.841   6.101   2.744  0.2844  0.1901 -0.0276
   14SAPS  O13A 1737   2.722   6.079   2.711  0.1921  0.2131  0.4047
   14SAPS  O13B 1738   2.929   6.108   2.655  0.6428  0.0021 -0.1470
   14SAPS   C11 1739   2.961   6.245   2.917 -0.1250  0.2956 -0.0970
   14SAPS  H11A 1740   2.881   6.313   2.879 -0.5899  0.1002  0.5108
   14SAPS  H11B 1741   3.050   6.260   2.853  0.7365 -0.8841  0.7860
   14SAPS     P 1742   3.116   6.228   3.127  0.0438 -0.4535 -0.1363
   14SAPS   O13 1743   3.212   6.210   3.020  0.3671  0.1622 -0.2644
   14SAPS   O14 1744   3.145   6.323   3.235 -0.3956 -0.2918 -0.2385
   14SAPS   O12 1745   2.980   6.270   3.059 -0.1279 -0.0567  0.2710
   14SAPS   O11 1746   3.091   6.086   3.191  0.1796 -0.0277  0.1450
   14SAPS    C1 1747   2.996   6.055   3.291 -0.3902  0.3467  0.1245
   14SAPS    HA 1748   2.892   6.067   3.253 -1.0739 -0.0702  1.7676
   14SAPS    HB 1749   3.010   5.946   3.308  1.3991  0.7217  1.3470
   14SAPS    C2 1750   3.002   6.116   3.430 -0.1919 -1.0494  0.1319
   14SAPS    HS 1751   2.969   6.221   3.437  1.6879 -0.3678 -0.7499
   14SAPS   O21 1752   3.129   6.088   3.489 -0.7493 -0.0235  0.7316
   14SAPS   C21 1753   3.176   6.180   3.571 -1.5382  0.2056 -0.3952
   14SAPS   O22 1754   3.137   6.295   3.589  0.4401  0.0710  0.4643
   14SAPS   C22 1755   3.303   6.119   3.649 -0.1714 -0.0733 -0.3876
   14SAPS   H2R 1756   3.269   6.034   3.711  1.2864 -0.3571  0.0413
   14SAPS   H2S 1757   3.364   6.086   3.563 -0.4631 -0.8416 -0.3099
   14SAPS    C3 1758   2.894   6.040   3.515 -0.0495  0.3212  0.5961
   14SAPS    HX 1759   2.923   5.935   3.540 -1.3056 -1.3043 -3.8324
   14SAPS    HY 1760   2.800   6.035   3.456 -0.0182  0.3584  0.5432
   14SAPS   O31 1761   2.874   6.113   3.645 -0.0340  0.0808  0.8469
   14SAPS   C31 1762   2.802   6.223   3.640  0.2427  0.4014 -1.0970
   14SAPS   O32 1763   2.729   6.265   3.551 -0.2208  0.2522 -0.1557
   14SAPS   C32 1764   2.805   6.289   3.769 -0.2637 -0.0276 -1.1707
   14SAPS   H2X 1765   2.769   6.394   3.765  0.1603  0.1156 -1.2436
   14SAPS   H2Y 1766   2.911   6.291   3.802 -0.3270  0.0615 -0.9693
   14SAPS   C23 1767   3.389   6.220   3.738  0.6213  1.1459  0.0774
   14SAPS   H3R 1768   3.409   6.305   3.669  0.6609  0.2038 -1.1151
   14SAPS   H3S 1769   3.487   6.173   3.758  0.5734  1.6509  1.5915
   14SAPS   C24 1770   3.328   6.272   3.868 -0.5365 -0.1916 -0.4115
   14SAPS   H4R 1771   3.235   6.331   3.855  0.5335  1.6051 -0.2815
   14SAPS   H4S 1772   3.394   6.355   3.903  0.2980 -0.0777 -2.1435
   14SAPS   C25 1773   3.328   6.163   3.974 -0.5319  0.5509 -0.2628
   14SAPS   H5R 1774   3.427   6.130   4.011 -1.0591 -2.1708 -1.0400
   14SAPS   C26 1775   3.219   6.100   4.019  0.1704  0.1965 -0.0855
   14SAPS   H6R 1776   3.230   6.031   4.104  0.6557 -0.3456 -0.5810
   14SAPS   C27 1777   3.077   6.139   3.986 -0.1866 -0.4020 -0.4134
   14SAPS   H7R 1778   3.080   6.166   3.879  1.3448  1.6691  0.0964
   14SAPS   H7S 1779   3.044   6.224   4.050  0.2919 -1.9467  2.0424
   14SAPS   C28 1780   2.982   6.021   4.006  0.0520 -0.4502 -0.1595
   14SAPS   H8R 1781   2.998   5.928   3.949  3.4023  0.1886 -0.4729
   14SAPS   C29 1782   2.889   6.007   4.099 -0.0622  0.0122  0.9641
   14SAPS   H9R 1783   2.824   5.919   4.083  1.2012 -0.3662 -2.8551
   14SAPS  C210 1784   2.844   6.108   4.198 -0.9437  0.4074 -0.3399
   14SAPS  H10R 1785   2.734   6.125   4.197 -0.9551  0.4452 -2.4655
   14SAPS  H10S 1786   2.881   6.212   4.185  0.4068  0.3769  2.4859
   14SAPS  C211 1787   2.909   6.061   4.335  0.1254  0.5215  0.6188
   14SAPS  H11R 1788   2.884   5.957   4.359 -0.0174  0.2434 -0.6723
   14SAPS  C212 1789   3.007   6.116   4.408  0.0275 -0.0708  0.9225
   14SAPS  H12R 1790   3.035   6.063   4.500  0.2810 -0.0742  0.8457
   14SAPS  C213 1791   3.070   6.248   4.397 -0.3260 -0.2116  0.6654
   14SAPS  H13R 1792   3.102   6.266   4.291  1.3999 -0.4309  1.1132
   14SAPS  H13S 1793   3.163   6.242   4.458 -0.2337 -0.3361  0.5130
   14SAPS  C214 1794   2.988   6.371   4.431  0.2388  0.4151 -0.6915
   14SAPS  H14R 1795   2.887   6.378   4.389 -0.0410 -0.0786 -0.1090
   14SAPS  C215 1796   3.025   6.467   4.525  0.2354  0.0530 -0.1345
   14SAPS  H15R 1797   2.953   6.550   4.538  1.1133  0.9067 -0.6059
   14SAPS  C216 1798   3.159   6.473   4.581  0.0956  0.4236 -0.4681
   14SAPS  H16R 1799   3.224   6.422   4.507  1.2149  1.6045 -0.3230
   14SAPS  H16S 1800   3.164   6.425   4.681  1.0600 -0.3326 -0.8601
   14SAPS  C217 1801   3.202   6.615   4.599  0.0359 -0.4279  0.1492
   14SAPS  H17R 1802   3.169   6.675   4.512 -0.2259 -0.6776  0.0768
   14SAPS  H17S 1803   3.313   6.617   4.596  0.1586 -2.3569 -4.0230
   14SAPS  C218 1804   3.157   6.684   4.731  0.2148 -0.5557 -0.2910
   14SAPS  H18R 1805   3.178   6.616   4.816 -3.2970 -0.4142  0.8527
   14SAPS  H18S 1806   3.046   6.686   4.738  0.1958 -1.0957 -0.3376
   14SAPS  C219 1807   3.204   6.829   4.766 -0.1539  0.4681  0.2127
   14SAPS  H19R 1808   3.313   6.830   4.744 -0.6438 -1.5652 -2.9302
   14SAPS  H19S 1809   3.174   6.854   4.870 -3.7424 -0.1118 -0.5432
   14SAPS  C220 1810   3.157   6.943   4.671 -0.3076 -0.3511  0.0467
   14SAPS  H20R 1811   3.215   7.032   4.701  0.7691 -1.3401  1.0028
   14SAPS  H20S 1812   3.049   6.966   4.687 -0.7141 -1.0160 -1.4506
   14SAPS  H20T 1813   3.158   6.923   4.561 -1.6953 -0.3045 -0.0021
   14SAPS   C33 1814   2.721   6.233   3.890  0.0239 -0.5416  0.2001
   14SAPS   H3X 1815   2.771   6.269   3.982 -0.5718  1.7101 -0.2790
   14SAPS   H3Y 1816   2.725   6.123   3.879  3.1329 -0.5108  0.0877
   14SAPS   C34 1817   2.579   6.278   3.890 -0.4356  0.2791 -0.6824
   14SAPS   H4X 1818   2.539   6.231   3.983 -0.5032  3.2700  0.9230
   14SAPS   H4Y 1819   2.530   6.237   3.799  0.5678  0.9042 -1.5124
   14SAPS   C35 1820   2.555   6.433   3.891  0.9021  0.3692 -0.4868
   14SAPS   H5X 1821   2.552   6.463   3.784 -0.3629 -0.7952 -0.8124
   14SAPS   H5Y 1822   2.635   6.477   3.955 -1.4255  1.1080  2.1102
   14SAPS   C36 1823   2.418   6.482   3.951 -0.0041  0.6838 -0.2033
   14SAPS   H6X 1824   2.344   6.402   3.930  1.9860 -1.7818  1.4672
   14SAPS   H6Y 1825   2.379   6.575   3.905  0.3069  0.8019 -0.2338
   14SAPS   C37 1826   2.432   6.512   4.103 -0.4001  0.0798 -0.3818
   14SAPS   H7X 1827   2.337   6.557   4.137 -1.4090 -1.6079 -0.8443
   14SAPS   H7Y 1828   2.509   6.591   4.113  1.5298 -1.9091  1.5982
   14SAPS   C38 1829   2.471   6.395   4.190  0.2154 -0.2898 -0.0933
   14SAPS   H8X 1830   2.555   6.336   4.147  1.0082  2.4550 -2.6202
   14SAPS   H8Y 1831   2.384   6.327   4.200  0.9462 -1.0892  1.2989
   14SAPS   C39 1832   2.511   6.456   4.324 -1.1223 -0.0023 -0.5589
   14SAPS   H9X 1833   2.424   6.497   4.380  0.6458  1.3187  1.4037
   14SAPS   H9Y 1834   2.597   6.525   4.315  2.0807 -3.6031 -0.3866
   14SAPS  C310 1835   2.556   6.345   4.422  0.9688 -0.1023  1.0256
   14SAPS  H10X 1836   2.641   6.293   4.372  0.5991  0.2824 -0.0269
   14SAPS  H10Y 1837   2.478   6.267   4.437  0.0073  0.7033  0.3168
   14SAPS  C311 1838   2.581   6.401   4.564 -0.0973 -0.6678  0.3899
   14SAPS  H11X 1839   2.475   6.420   4.592 -0.3200 -0.0639 -0.7953
   14SAPS  H11Y 1840   2.625   6.503   4.548 -3.4156  0.4622 -2.9965
   14SAPS  C312 1841   2.659   6.307   4.655  0.0028  0.6627  0.3013
   14SAPS  H12X 1842   2.760   6.293   4.610 -0.7400  0.6023 -1.4400
   14SAPS  H12Y 1843   2.622   6.204   4.639  1.8352 -0.1518  0.9364
   14SAPS  C313 1844   2.660   6.344   4.801  0.2612 -0.2299  0.4036
   14SAPS  H13X 1845   2.695   6.257   4.860 -0.9870 -1.6284 -0.8514
   14SAPS  H13Y 1846   2.559   6.378   4.834  0.3171 -1.3143  1.7710
   14SAPS  C314 1847   2.756   6.469   4.825  0.9027 -0.0721  0.1677
   14SAPS  H14X 1848   2.719   6.544   4.752 -1.3555 -1.6997 -0.4959
   14SAPS  H14Y 1849   2.855   6.429   4.793  0.5304 -1.0189  0.1554
   14SAPS  C315 1850   2.757   6.513   4.966  0.2691 -0.6503 -0.9826
   14SAPS  H15X 1851   2.796   6.443   5.043 -0.8951  2.3643  2.6805
   14SAPS  H15Y 1852   2.653   6.541   4.993  0.8300  0.8615 -0.3062
   14SAPS  C316 1853   2.827   6.652   4.989  0.7100  0.3591  0.3667
   14SAPS  H16X 1854   2.796   6.719   4.906 -0.6092 -1.1348 -0.3852
   14SAPS  H16Y 1855   2.938   6.646   4.980  0.8590  2.2429  0.4915
   14SAPS  C317 1856   2.799   6.701   5.129  0.0451 -0.1485  0.0465
   14SAPS  H17X 1857   2.754   6.626   5.198  0.3761 -0.3612  0.0273
   14SAPS  H17Y 1858   2.735   6.792   5.127 -0.1963 -0.1675  2.6651
   14SAPS  C318 1859   2.930   6.741   5.193  0.0685  0.6251  0.6292
   14SAPS  H18X 1860   2.983   6.644   5.205 -1.6903 -0.6582 -1.2495
   14SAPS  H18Y 1861   2.921   6.800   5.286  0.0955  0.8516  0.4898
   14SAPS  H18Z 1862   2.989   6.807   5.125 -0.2479 -0.9245 -1.2602
   15SAPS     N 1863   0.932   6.652   2.900  0.2656 -0.3635 -0.0544
   15SAPS   HN1 1864   0.919   6.551   2.921 -4.3291 -0.0943 -0.5274
   15SAPS   HN2 1865   1.035   6.663   2.904  0.1277  0.8977  1.7899
   15SAPS   HN3 1866   0.888   6.700   2.982 -0.5192  0.6060 -1.0096
   15SAPS   C12 1867   0.873   6.696   2.773  0.1219 -0.2401  0.7117
   15SAPS  H12A 1868   0.906   6.799   2.767  0.8779 -0.5247 -0.1615
   15SAPS   C13 1869   0.921   6.629   2.641 -0.1082 -0.7409  0.1825
   15SAPS  O13A 1870   0.986   6.523   2.653  0.2951  0.2679  0.2702
   15SAPS  O13B 1871   0.887   6.682   2.531  0.3855  0.0344  0.2967
   15SAPS   C11 1872   0.714   6.697   2.785  0.0603  0.2891  0.0144
   15SAPS  H11A 1873   0.689   6.594   2.818  0.1233  1.0312  2.5215
   15SAPS  H11B 1874   0.679   6.711   2.680 -0.0266 -1.6891 -0.2704
   15SAPS     P 1875   0.521   6.796   2.922  0.3859  0.0622  0.2512
   15SAPS   O13 1876   0.504   6.883   3.038  0.0190 -0.0547  0.0019
   15SAPS   O14 1877   0.445   6.816   2.797 -0.0912 -0.2688  0.0019
   15SAPS   O12 1878   0.671   6.791   2.889  0.2904  0.0258  0.1289
   15SAPS   O11 1879   0.497   6.647   2.976  1.0032 -0.4691  0.3157
   15SAPS    C1 1880   0.567   6.595   3.082 -0.0018 -0.6611  0.0209
   15SAPS    HA 1881   0.653   6.543   3.035 -0.9506 -1.3300 -1.0188
   15SAPS    HB 1882   0.594   6.675   3.155 -1.8919  0.7807 -0.7900
   15SAPS    C2 1883   0.486   6.496   3.167 -0.3613 -1.3319  0.0324
   15SAPS    HS 1884   0.440   6.425   3.095 -0.2204 -0.6510 -0.7448
   15SAPS   O21 1885   0.388   6.579   3.239 -0.4200 -0.2589 -0.2832
   15SAPS   C21 1886   0.272   6.592   3.186 -0.2862  0.3617  0.0855
   15SAPS   O22 1887   0.235   6.537   3.083  0.4444  0.4163 -0.1689
   15SAPS   C22 1888   0.183   6.676   3.279 -0.2470 -0.0431  0.0933
   15SAPS   H2R 1889   0.236   6.726   3.363 -0.8034  1.3971 -0.3721
   15SAPS   H2S 1890   0.132   6.755   3.219 -1.8538  0.7890  2.4247
   15SAPS    C3 1891   0.585   6.425   3.257 -0.4060 -0.4823  0.2246
   15SAPS    HX 1892   0.660   6.499   3.293  0.5868 -1.1652 -0.3650
   15SAPS    HY 1893   0.653   6.364   3.193 -0.7274 -0.7981  0.1821
   15SAPS   O31 1894   0.527   6.346   3.356  0.1914 -0.2870  0.1051
   15SAPS   C31 1895   0.585   6.319   3.472 -0.2756 -0.9780 -0.2481
   15SAPS   O32 1896   0.698   6.355   3.501 -0.3038 -0.2684  0.0979
   15SAPS   C32 1897   0.486   6.237   3.547 -0.1194 -0.5662  0.0555
   15SAPS   H2X 1898   0.479   6.138   3.497 -0.4470  0.2193 -1.4922
   15SAPS   H2Y 1899   0.387   6.289   3.547  0.9819  1.6619 -0.8322
   15SAPS   C23 1900   0.082   6.585   3.337 -0.2254 -0.3337 -0.5443
   15SAPS   H3R 1901   0.027   6.525   3.261 -1.7005 -0.0727  0.2730
   15SAPS   H3S 1902   0.000   6.643   3.385 -0.2132 -0.5683 -0.2338
   15SAPS   C24 1903   0.156   6.495   3.449 -0.2964 -0.3172  0.5139
   15SAPS   H4R 1904   0.244   6.536   3.505  0.4655 -1.0503 -0.1237
   15SAPS   H4S 1905   0.198   6.408   3.394 -1.9781 -0.5745 -0.4085
   15SAPS   C25 1906   0.047   6.451   3.540 -0.1939 -1.3793  0.3169
   15SAPS   H5R 1907  -0.042   6.412   3.489 -2.2445 -0.8636  3.2609
   15SAPS   C26 1908   0.052   6.445   3.671 -0.3007 -0.3923  0.3392
   15SAPS   H6R 1909  -0.035   6.414   3.731 -0.2928  2.7885  2.2650
   15SAPS   C27 1910   0.174   6.492   3.748 -0.7562 -0.1945  0.5163
   15SAPS   H7R 1911   0.213   6.591   3.715 -2.7709  0.8463  1.1087
   15SAPS   H7S 1912   0.256   6.418   3.736 -0.4213  0.4774 -1.9605
   15SAPS   C28 1913   0.136   6.512   3.899 -0.1185  0.8263  0.8960
   15SAPS   H8R 1914   0.107   6.614   3.925 -0.0375  2.0553 -3.2585
   15SAPS   C29 1915   0.165   6.420   3.997  0.1057 -0.0184 -0.7017
   15SAPS   H9R 1916   0.129   6.433   4.100 -0.7286  1.4481 -1.1522
   15SAPS  C210 1917   0.238   6.287   3.971  0.3147  0.8275  0.0284
   15SAPS  H10R 1918   0.336   6.280   4.023 -0.0873  2.5893  1.1045
   15SAPS  H10S 1919   0.261   6.255   3.867 -0.3185 -1.5498  0.5590
   15SAPS  C211 1920   0.140   6.183   4.022  0.0384  0.9282  0.2975
   15SAPS  H11R 1921   0.095   6.117   3.947  2.3904 -1.2517  0.6657
   15SAPS  C212 1922   0.128   6.150   4.147  0.2289 -0.0239  0.3019
   15SAPS  H12R 1923   0.069   6.062   4.175 -0.4515 -0.3162 -1.8764
   15SAPS  C213 1924   0.183   6.229   4.261 -0.1279 -0.0491  0.0957
   15SAPS  H13R 1925   0.258   6.307   4.233  0.5620 -0.8832 -0.4537
   15SAPS  H13S 1926   0.249   6.163   4.322  0.7951  1.1366  0.4313
   15SAPS  C214 1927   0.078   6.284   4.353  0.3229  0.2514  0.1509
   15SAPS  H14R 1928  -0.026   6.249   4.341  0.7548 -2.6041  3.1754
   15SAPS  C215 1929   0.116   6.346   4.467 -0.5769  0.7145 -0.9216
   15SAPS  H15R 1930   0.044   6.377   4.545  1.4113 -3.4473  3.0255
   15SAPS  C216 1931   0.256   6.385   4.509 -0.1405  0.2583  0.2268
   15SAPS  H16R 1932   0.295   6.473   4.454 -0.5465  0.7573  0.7216
   15SAPS  H16S 1933   0.325   6.298   4.501 -0.4787 -0.4346  3.3417
   15SAPS  C217 1934   0.258   6.416   4.660 -0.1239 -0.7484 -0.3653
   15SAPS  H17R 1935   0.167   6.471   4.690  0.1222 -0.8528  0.6017
   15SAPS  H17S 1936   0.350   6.475   4.680 -1.0279  0.1724  1.2499
   15SAPS  C218 1937   0.258   6.297   4.752 -0.0853  0.3889  0.3143
   15SAPS  H18R 1938   0.315   6.210   4.714  1.7715  1.5170  0.4190
   15SAPS  H18S 1939   0.151   6.271   4.764  0.3979 -0.9609  2.2641
   15SAPS  C219 1940   0.294   6.331   4.892  0.7745 -0.0938 -0.2140
   15SAPS  H19R 1941   0.388   6.390   4.900  2.4718 -2.7165  0.7127
   15SAPS  H19S 1942   0.315   6.230   4.934  2.2682 -0.5832 -1.9692
   15SAPS  C220 1943   0.184   6.407   4.965 -0.2341  0.5179 -0.3529
   15SAPS  H20R 1944   0.089   6.349   4.954 -0.5847  1.3808 -2.4794
   15SAPS  H20S 1945   0.163   6.509   4.926 -3.2856  0.6407  1.3006
   15SAPS  H20T 1946   0.211   6.412   5.072 -1.6335  1.8648 -0.0264
   15SAPS   C33 1947   0.534   6.210   3.691 -0.0375  0.1283 -0.2760
   15SAPS   H3X 1948   0.453   6.150   3.737  2.3645 -2.7250  0.5509
   15SAPS   H3Y 1949   0.540   6.309   3.740  0.0015 -0.0562  0.0975
   15SAPS   C34 1950   0.658   6.132   3.716 -0.4910 -0.1912 -0.0451
   15SAPS   H4X 1951   0.747   6.196   3.702 -0.2977  0.3230  2.9628
   15SAPS   H4Y 1952   0.660   6.043   3.649 -1.4359  0.1552 -0.5626
   15SAPS   C35 1953   0.662   6.079   3.861 -0.5673  0.3863 -0.0636
   15SAPS   H5X 1954   0.759   6.033   3.889 -1.1298 -0.6217  0.2436
   15SAPS   H5Y 1955   0.585   6.000   3.873  0.1212 -0.2653  0.1855
   15SAPS   C36 1956   0.634   6.190   3.967 -0.3731 -0.4425  0.1742
   15SAPS   H6X 1957   0.546   6.253   3.944  0.0181  0.9564  2.2299
   15SAPS   H6Y 1958   0.728   6.248   3.963 -0.4980 -0.0042  2.2325
   15SAPS   C37 1959   0.613   6.129   4.105 -0.0342 -0.5298  1.0091
   15SAPS   H7X 1960   0.699   6.063   4.126  1.3492  0.6947 -0.5355
   15SAPS   H7Y 1961   0.517   6.073   4.108 -0.8768  0.8471  0.6017
   15SAPS   C38 1962   0.606   6.235   4.214 -0.2581  0.5055  0.2917
   15SAPS   H8X 1963   0.516   6.297   4.197  0.3180  0.7124 -2.2822
   15SAPS   H8Y 1964   0.694   6.302   4.211 -1.2650  1.9638  1.5659
   15SAPS   C39 1965   0.611   6.175   4.349  0.6523  0.5940 -0.4759
   15SAPS   H9X 1966   0.697   6.105   4.340 -1.5522 -2.2067 -1.0501
   15SAPS   H9Y 1967   0.522   6.114   4.376  1.6659 -2.0624 -2.6533
   15SAPS  C310 1968   0.658   6.272   4.461 -0.5816 -0.5323 -0.3513
   15SAPS  H10X 1969   0.585   6.355   4.469 -0.1909 -0.3500  2.1936
   15SAPS  H10Y 1970   0.758   6.308   4.429 -0.7113  0.7104  0.5448
   15SAPS  C311 1971   0.645   6.213   4.607 -0.4805 -0.1282  0.4733
   15SAPS  H11X 1972   0.646   6.104   4.590 -0.2122 -0.2075  0.9591
   15SAPS  H11Y 1973   0.552   6.240   4.662 -2.0529 -0.5793 -1.8162
   15SAPS  C312 1974   0.775   6.253   4.690 -0.0991  0.3054 -0.0092
   15SAPS  H12X 1975   0.791   6.362   4.697 -0.4390  0.4522 -1.3580
   15SAPS  H12Y 1976   0.863   6.204   4.644  1.0126 -0.2532  2.5302
   15SAPS  C313 1977   0.762   6.209   4.837 -0.0691 -0.0983  0.2909
   15SAPS  H13X 1978   0.864   6.182   4.873 -0.0212 -0.4153 -0.0839
   15SAPS  H13Y 1979   0.704   6.115   4.829 -1.0674  0.4169  1.1963
   15SAPS  C314 1980   0.690   6.310   4.924  0.2047 -0.4131  0.1141
   15SAPS  H14X 1981   0.587   6.299   4.885  0.9867 -2.3848 -1.5731
   15SAPS  H14Y 1982   0.712   6.412   4.888  0.6720  0.9959  3.8780
   15SAPS  C315 1983   0.684   6.292   5.080 -0.6823 -0.0683  0.4231
   15SAPS  H15X 1984   0.770   6.351   5.119  1.4974 -1.0424 -2.5237
   15SAPS  H15Y 1985   0.704   6.184   5.097 -0.9361 -0.0345  0.9720
   15SAPS  C316 1986   0.558   6.342   5.134  0.7504 -0.0509 -0.1258
   15SAPS  H16X 1987   0.474   6.275   5.104  1.3786 -1.5661  1.3554
   15SAPS  H16Y 1988   0.549   6.450   5.111  2.7560 -0.1899 -1.8872
   15SAPS  C317 1989   0.547   6.326   5.289  0.6188 -0.2918 -0.2807
   15SAPS  H17X 1990   0.630   6.392   5.323 -2.1596  3.8151 -0.7819
   15SAPS  H17Y 1991   0.557   6.216   5.306 -1.1209 -0.4660 -0.2292
   15SAPS  C318 1992   0.415   6.369   5.347  0.2345 -0.1608 -0.1951
   15SAPS  H18X 1993   0.448   6.455   5.409  1.7670 -1.1310  0.4092
   15SAPS  H18Y 1994   0.380   6.291   5.418  0.4300 -0.7300 -0.7178
   15SAPS  H18Z 1995   0.342   6.402   5.270 -0.4218 -0.7605  0.1635
   16SAPS     N 1996   2.069   2.091   3.447  0.1912 -0.7514 -0.1153
   16SAPS   HN1 1997   2.130   2.043   3.517 -1.2155 -4.7197 -1.3610
   16SAPS   HN2 1998   2.054   2.194   3.454 -0.5104 -0.6405 -2.6213
   16SAPS   HN3 1999   1.976   2.046   3.443  0.2461 -0.8113 -0.7510
   16SAPS   C12 2000   2.149   2.067   3.330  0.2891  0.0829 -0.1098
   16SAPS  H12A 2001   2.082   2.085   3.247 -0.7321  0.4700  0.7766
   16SAPS   C13 2002   2.267   2.167   3.300 -0.4693  0.6370  0.1846
   16SAPS  O13A 2003   2.284   2.257   3.389  0.1771 -0.7995 -0.1268
   16SAPS  O13B 2004   2.346   2.150   3.199 -0.0541 -0.1684 -0.0334
   16SAPS   C11 2005   2.190   1.913   3.309  0.6330 -0.2085 -0.5143
   16SAPS  H11A 2006   2.272   1.898   3.382 -0.1314  1.6067  0.8006
   16SAPS  H11B 2007   2.239   1.898   3.210  0.6758 -0.5363 -0.4443
   16SAPS     P 2008   2.091   1.688   3.421 -0.6882 -0.3733 -0.0137
   16SAPS   O13 2009   1.962   1.677   3.484  0.3066 -0.2181 -0.9216
   16SAPS   O14 2010   2.131   1.571   3.337  0.4351  0.0372 -0.0590
   16SAPS   O12 2011   2.081   1.819   3.330  0.4470  0.2013  0.1302
   16SAPS   O11 2012   2.207   1.718   3.525 -0.2210 -0.1014 -0.3154
   16SAPS    C1 2013   2.295   1.609   3.566 -0.2308 -0.7828  0.4054
   16SAPS    HA 2014   2.337   1.548   3.484  2.7435 -1.2074  2.1088
   16SAPS    HB 2015   2.386   1.632   3.624  0.4268 -1.7802 -0.2162
   16SAPS    C2 2016   2.215   1.509   3.652 -0.2748  0.0225 -0.3062
   16SAPS    HS 2017   2.138   1.459   3.588 -0.5643  1.8270 -1.4426
   16SAPS   O21 2018   2.159   1.587   3.758  0.2319 -0.0933 -0.0060
   16SAPS   C21 2019   2.037   1.554   3.803 -0.0882 -0.2006  0.5107
   16SAPS   O22 2020   1.979   1.453   3.774 -0.1009 -0.5764  0.2915
   16SAPS   C22 2021   1.995   1.657   3.909 -0.1516  0.0148  0.1359
   16SAPS   H2R 2022   2.075   1.733   3.914  0.5664 -0.7831  1.4965
   16SAPS   H2S 2023   1.895   1.688   3.872  0.5674  0.7887 -1.2296
   16SAPS    C3 2024   2.307   1.401   3.718  0.5762 -0.0092  0.4503
   16SAPS    HX 2025   2.256   1.322   3.777 -1.3138 -0.6456 -1.8462
   16SAPS    HY 2026   2.369   1.456   3.792  0.9532 -1.1768  1.0193
   16SAPS   O31 2027   2.387   1.336   3.618  0.1068 -0.3188 -0.1578
   16SAPS   C31 2028   2.319   1.242   3.544  0.4871 -1.0057  0.3653
   16SAPS   O32 2029   2.199   1.214   3.548  0.3118 -0.1071 -0.2142
   16SAPS   C32 2030   2.432   1.166   3.478 -0.0244 -0.2085 -0.2139
   16SAPS   H2X 2031   2.501   1.133   3.558  0.3376  0.7566 -0.1186
   16SAPS   H2Y 2032   2.488   1.229   3.406 -1.4184  0.2499 -0.9286
   16SAPS   C23 2033   1.989   1.612   4.055 -0.0905  0.9455 -0.4702
   16SAPS   H3R 2034   1.916   1.528   4.059  0.3935  0.5115 -0.5857
   16SAPS   H3S 2035   1.946   1.699   4.109  1.1860  0.5412  1.2857
   16SAPS   C24 2036   2.121   1.577   4.124  0.4785 -0.1645 -0.3843
   16SAPS   H4R 2037   2.103   1.602   4.231 -1.1277  1.5981 -0.9976
   16SAPS   H4S 2038   2.200   1.648   4.092  1.4739 -0.7966  0.5919
   16SAPS   C25 2039   2.175   1.444   4.109  0.3452  0.5671 -0.1896
   16SAPS   H5R 2040   2.229   1.423   4.015  2.4997 -2.9513  1.5692
   16SAPS   C26 2041   2.144   1.339   4.184 -0.0666 -0.0012  0.4395
   16SAPS   H6R 2042   2.202   1.246   4.171  0.2891  0.5519 -2.7962
   16SAPS   C27 2043   2.066   1.333   4.314  0.5519 -0.4508  0.0918
   16SAPS   H7R 2044   2.019   1.434   4.321 -0.8298 -0.8823 -2.0247
   16SAPS   H7S 2045   2.136   1.342   4.399  0.6215 -0.7593  0.0662
   16SAPS   C28 2046   1.956   1.228   4.319 -0.2391 -0.1126  0.1796
   16SAPS   H8R 2047   1.902   1.215   4.224  1.5852 -2.0918 -0.7073
   16SAPS   C29 2048   1.895   1.183   4.431 -0.2617 -0.6069 -0.2893
   16SAPS   H9R 2049   1.807   1.117   4.432 -2.4546  1.8838  4.2525
   16SAPS  C210 2050   1.931   1.213   4.575 -0.4021 -0.5424 -0.2429
   16SAPS  H10R 2051   2.028   1.266   4.582 -0.4629 -0.4627 -0.0061
   16SAPS  H10S 2052   1.937   1.121   4.637 -1.0738  0.7779  1.8909
   16SAPS  C211 2053   1.815   1.300   4.633  1.0585  0.0051 -0.5902
   16SAPS  H11R 2054   1.728   1.321   4.568  1.2365 -0.4200 -0.9749
   16SAPS  C212 2055   1.820   1.334   4.765 -0.1695 -0.7258  0.1615
   16SAPS  H12R 2056   1.746   1.404   4.805  1.6446  1.1205  0.4267
   16SAPS  C213 2057   1.943   1.307   4.851  0.2454  0.1404  0.0506
   16SAPS  H13R 2058   2.024   1.342   4.783 -0.3333  0.5081 -0.4531
   16SAPS  H13S 2059   1.959   1.197   4.857 -1.4587 -0.2821 -2.0949
   16SAPS  C214 2060   1.934   1.384   4.981 -0.1718 -0.9287  0.9102
   16SAPS  H14R 2061   1.882   1.480   4.982 -1.6474 -1.6990  0.3802
   16SAPS  C215 2062   2.006   1.351   5.089 -0.0700 -0.5333  0.1564
   16SAPS  H15R 2063   1.985   1.410   5.180  0.3986 -2.1442  1.3675
   16SAPS  C216 2064   2.074   1.217   5.103  0.3855 -0.6589 -0.0008
   16SAPS  H16R 2065   2.141   1.204   5.015  1.4950  1.2629  0.4940
   16SAPS  H16S 2066   2.006   1.135   5.132  0.6309  0.0447  2.8148
   16SAPS  C217 2067   2.177   1.237   5.220  0.5934  0.0980  0.4112
   16SAPS  H17R 2068   2.228   1.139   5.234 -1.1886 -0.6508  1.9305
   16SAPS  H17S 2069   2.123   1.261   5.313 -1.4537  0.5015 -0.8254
   16SAPS  C218 2070   2.279   1.350   5.201  0.4757  0.1424 -0.4968
   16SAPS  H18R 2071   2.221   1.443   5.223  2.0706  0.4367  3.2132
   16SAPS  H18S 2072   2.331   1.357   5.103 -0.2127  2.3830 -0.7720
   16SAPS  C219 2073   2.388   1.347   5.302 -0.0452 -0.4045 -0.5984
   16SAPS  H19R 2074   2.440   1.250   5.290 -0.3750 -0.6883  0.1771
   16SAPS  H19S 2075   2.332   1.348   5.399 -1.6790 -0.6780 -1.5088
   16SAPS  C220 2076   2.489   1.463   5.303 -0.2745  0.2405 -0.3376
   16SAPS  H20R 2077   2.584   1.451   5.360 -0.0164  0.8216 -0.6404
   16SAPS  H20S 2078   2.434   1.547   5.351 -1.0685 -1.4010  1.8327
   16SAPS  H20T 2079   2.514   1.494   5.200  1.2120  0.4549  0.0608
   16SAPS   C33 2080   2.378   1.038   3.403 -0.6789 -0.1439 -0.1424
   16SAPS   H3X 2081   2.449   0.999   3.327 -1.1550  0.0799 -0.7174
   16SAPS   H3Y 2082   2.282   1.066   3.355  0.2170  2.2870 -0.6898
   16SAPS   C34 2083   2.373   0.918   3.499 -0.2396  0.8337  0.3176
   16SAPS   H4X 2084   2.466   0.899   3.555  0.5515 -1.4939 -1.6105
   16SAPS   H4Y 2085   2.362   0.829   3.433  1.3063  0.5086  0.4749
   16SAPS   C35 2086   2.263   0.921   3.607  0.0075  0.0374 -0.1832
   16SAPS   H5X 2087   2.169   0.964   3.566  1.0765  1.7082 -1.0090
   16SAPS   H5Y 2088   2.308   0.977   3.691 -2.3931 -0.4093  1.4708
   16SAPS   C36 2089   2.235   0.780   3.664  0.5014  0.3457 -0.3846
   16SAPS   H6X 2090   2.200   0.803   3.766  2.8294 -1.6816  0.9785
   16SAPS   H6Y 2091   2.331   0.725   3.676 -0.0277 -0.4875  0.1748
   16SAPS   C37 2092   2.135   0.697   3.582 -0.8587 -0.9157 -0.3760
   16SAPS   H7X 2093   2.159   0.694   3.474 -0.9130  1.2354 -0.5025
   16SAPS   H7Y 2094   2.043   0.760   3.578 -1.0483 -1.1847 -0.2811
   16SAPS   C38 2095   2.104   0.563   3.634  0.1138  0.2753 -0.5011
   16SAPS   H8X 2096   2.190   0.501   3.602  0.1534 -0.6342  1.2724
   16SAPS   H8Y 2097   2.015   0.517   3.586  0.5904 -2.5525  1.1243
   16SAPS   C39 2098   2.082   0.552   3.786  0.6087 -1.0551  0.4711
   16SAPS   H9X 2099   2.024   0.644   3.811  1.3625 -0.6720  0.8503
   16SAPS   H9Y 2100   2.176   0.558   3.846 -1.1336 -1.1164  3.3701
   16SAPS  C310 2101   2.014   0.419   3.828  0.8145  0.2592 -0.5191
   16SAPS  H10X 2102   2.076   0.328   3.827 -2.1594 -2.0023  1.5721
   16SAPS  H10Y 2103   1.934   0.400   3.754 -0.8165  2.0360  0.6719
   16SAPS  C311 2104   1.939   0.409   3.960  0.4958  0.0218 -0.0702
   16SAPS  H11X 2105   1.873   0.320   3.959  0.4816  0.0091  0.8017
   16SAPS  H11Y 2106   1.867   0.491   3.980  0.6253 -0.6532  4.2194
   16SAPS  C312 2107   2.027   0.401   4.083 -0.0632 -0.0269  0.2723
   16SAPS  H12X 2108   2.086   0.495   4.095  1.6766 -0.9627 -0.5733
   16SAPS  H12Y 2109   2.103   0.326   4.053  1.2216  1.8290 -1.3913
   16SAPS  C313 2110   1.955   0.354   4.209 -0.4301  0.0899  0.4173
   16SAPS  H13X 2111   1.894   0.266   4.180 -0.6431  0.5922 -0.7107
   16SAPS  H13Y 2112   1.877   0.427   4.241 -0.7178  1.1239 -2.3091
   16SAPS  C314 2113   2.043   0.326   4.325 -0.5948  0.0556 -0.2277
   16SAPS  H14X 2114   2.112   0.408   4.354 -1.1938  0.1769  0.9132
   16SAPS  H14Y 2115   2.110   0.239   4.305 -1.8792 -0.9178 -0.4636
   16SAPS  C315 2116   1.961   0.271   4.447  0.1181  0.5019  0.2795
   16SAPS  H15X 2117   1.896   0.193   4.403 -0.2160  0.5347  0.7040
   16SAPS  H15Y 2118   1.887   0.345   4.485 -2.4690 -1.5000 -0.6014
   16SAPS  C316 2119   2.035   0.228   4.572 -0.4503  0.1666  0.1125
   16SAPS  H16X 2120   2.122   0.162   4.553 -1.2949 -0.4466 -1.9017
   16SAPS  H16Y 2121   1.973   0.170   4.644  0.3870  0.3958  1.0313
   16SAPS  C317 2122   2.087   0.351   4.648  0.4583 -0.0989 -0.0735
   16SAPS  H17X 2123   2.012   0.432   4.666 -0.1693  0.3226 -3.7507
   16SAPS  H17Y 2124   2.166   0.408   4.594  1.9276 -1.1223  0.9208
   16SAPS  C318 2125   2.160   0.318   4.781 -0.1868  0.3567 -0.0460
   16SAPS  H18X 2126   2.248   0.253   4.771 -0.6324 -0.2036 -0.3756
   16SAPS  H18Y 2127   2.099   0.268   4.859  3.1098 -3.3755  0.4280
   16SAPS  H18Z 2128   2.185   0.413   4.833 -0.6934  1.5105 -1.8194
   17SAPS     N 2129   0.061   6.086   2.359 -0.7478  0.1204  0.6563
   17SAPS   HN1 2130   0.110   6.122   2.444  2.4387 -0.2546 -0.8885
   17SAPS   HN2 2131   0.075   5.984   2.345 -1.3495 -0.1263  1.6913
   17SAPS   HN3 2132   0.095   6.128   2.270 -0.4560 -0.8104  0.3255
   17SAPS   C12 2133  -0.087   6.111   2.372  0.1757 -0.2964 -0.1581
   17SAPS  H12A 2134  -0.095   6.217   2.356  0.4431 -0.3244 -0.5102
   17SAPS   C13 2135  -0.177   6.044   2.257 -0.9042 -0.4566  0.3852
   17SAPS  O13A 2136  -0.124   5.972   2.170 -0.0826 -0.8156  0.2914
   17SAPS  O13B 2137  -0.307   6.041   2.278  0.2552  0.0174  1.3983
   17SAPS   C11 2138  -0.131   6.083   2.519 -0.0851  0.2981 -0.3631
   17SAPS  H11A 2139  -0.103   5.979   2.544  2.7739  1.4552  1.7711
   17SAPS  H11B 2140  -0.241   6.081   2.535 -0.0987  0.1768 -0.4735
   17SAPS     P 2141  -0.121   6.280   2.696  0.1740 -0.1452 -0.0604
   17SAPS   O13 2142  -0.053   6.289   2.822 -0.4290  0.3042 -0.5126
   17SAPS   O14 2143  -0.134   6.404   2.619 -0.4395  0.3729  0.3265
   17SAPS   O12 2144  -0.055   6.163   2.611 -0.0378  0.2313 -0.0197
   17SAPS   O11 2145  -0.269   6.222   2.723  0.1851 -0.2449 -0.0922
   17SAPS    C1 2146  -0.383   6.295   2.761 -0.0709  0.0674  0.5706
   17SAPS    HA 2147  -0.415   6.360   2.676  1.9794  1.4663  0.8143
   17SAPS    HB 2148  -0.462   6.216   2.761  0.5285 -0.5501 -0.2406
   17SAPS    C2 2149  -0.368   6.370   2.896  0.1151 -0.6892  0.0341
   17SAPS    HS 2150  -0.297   6.455   2.883 -2.2913  1.8187  2.1600
   17SAPS   O21 2151  -0.336   6.271   2.990 -0.2034 -0.4284 -0.3129
   17SAPS   C21 2152  -0.235   6.306   3.066 -0.4669  0.3956 -0.1599
   17SAPS   O22 2153  -0.180   6.415   3.076  0.1685  0.8984  0.0307
   17SAPS   C22 2154  -0.209   6.175   3.154  0.1124 -0.1172  0.6781
   17SAPS   H2R 2155  -0.306   6.126   3.174 -0.8444  1.1409 -0.5792
   17SAPS   H2S 2156  -0.142   6.111   3.093 -2.9179 -1.3178 -1.6792
   17SAPS    C3 2157  -0.500   6.436   2.935 -0.4299 -0.0643 -0.2212
   17SAPS    HX 2158  -0.589   6.370   2.923  0.8691 -1.5664 -2.3726
   17SAPS    HY 2159  -0.514   6.522   2.866  2.0746  0.5648 -0.0235
   17SAPS   O31 2160  -0.501   6.476   3.071 -0.0051  0.1132  0.2539
   17SAPS   C31 2161  -0.445   6.594   3.089  0.2972  0.2442  0.5303
   17SAPS   O32 2162  -0.392   6.661   3.000  0.0848 -0.0294  0.3466
   17SAPS   C32 2163  -0.472   6.635   3.241 -1.0278  0.2990  0.0146
   17SAPS   H2X 2164  -0.571   6.591   3.267  0.3443 -2.4093  1.0776
   17SAPS   H2Y 2165  -0.475   6.746   3.247 -0.2358  0.3342 -0.0765
   17SAPS   C23 2166  -0.135   6.209   3.282  0.4280 -0.1138  0.4870
   17SAPS   H3R 2167  -0.207   6.249   3.356 -1.6389 -0.2561 -1.3446
   17SAPS   H3S 2168  -0.059   6.289   3.274 -0.4929  0.7000 -0.5058
   17SAPS   C24 2169  -0.049   6.092   3.333 -0.1480  0.3002  0.2207
   17SAPS   H4R 2170   0.035   6.071   3.263 -0.1933 -0.6519  0.4318
   17SAPS   H4S 2171  -0.118   6.004   3.340 -0.3513  0.5602  2.2173
   17SAPS   C25 2172   0.017   6.114   3.466 -0.2811  0.1995  0.4639
   17SAPS   H5R 2173   0.109   6.171   3.449 -0.4990  0.6127  0.6773
   17SAPS   C26 2174  -0.034   6.097   3.595 -0.0942 -0.0024  0.5874
   17SAPS   H6R 2175   0.035   6.124   3.677  1.8062 -0.0015 -0.9344
   17SAPS   C27 2176  -0.159   6.017   3.620 -0.1842 -0.4355 -0.2363
   17SAPS   H7R 2177  -0.191   5.965   3.527 -1.0663  0.3727 -0.3984
   17SAPS   H7S 2178  -0.233   6.100   3.622  0.6748  0.4488 -2.1635
   17SAPS   C28 2179  -0.147   5.924   3.739 -0.7057 -0.0064 -1.0012
   17SAPS   H8R 2180  -0.101   5.825   3.724 -0.3813 -0.3406  1.6725
   17SAPS   C29 2181  -0.207   5.945   3.861 -0.5206 -0.5436 -0.2089
   17SAPS   H9R 2182  -0.189   5.869   3.939  1.2517 -0.9759 -0.9728
   17SAPS  C210 2183  -0.281   6.071   3.900  0.7731  0.4063  0.1122
   17SAPS  H10R 2184  -0.387   6.041   3.914  0.4898  0.7724 -1.0472
   17SAPS  H10S 2185  -0.278   6.151   3.822 -0.3423  1.0729  0.7365
   17SAPS  C211 2186  -0.230   6.137   4.023 -0.3076 -0.1090  0.7240
   17SAPS  H11R 2187  -0.178   6.232   4.007 -0.7993  0.4577  2.3145
   17SAPS  C212 2188  -0.231   6.081   4.147  0.3131 -0.3032  0.0793
   17SAPS  H12R 2189  -0.204   6.133   4.240  0.4856 -0.6126  0.2039
   17SAPS  C213 2190  -0.290   5.953   4.182  0.2824  0.3478  0.2299
   17SAPS  H13R 2191  -0.208   5.880   4.195  0.8571  0.9267 -0.0871
   17SAPS  H13S 2192  -0.356   5.907   4.106  0.4048 -1.2235  1.0361
   17SAPS  C214 2193  -0.387   5.953   4.300 -0.3921  0.5759 -0.1248
   17SAPS  H14R 2194  -0.492   5.977   4.276 -0.4079  1.9011  1.1111
   17SAPS  C215 2195  -0.353   5.916   4.428  0.7359  0.1459  0.3573
   17SAPS  H15R 2196  -0.433   5.912   4.504  0.5085 -1.2910  0.0805
   17SAPS  C216 2197  -0.218   5.857   4.467  0.0209 -0.4685  0.2517
   17SAPS  H16R 2198  -0.157   5.815   4.385  0.7579  0.1921  0.4513
   17SAPS  H16S 2199  -0.234   5.793   4.557  2.3407 -2.2771 -0.5340
   17SAPS  C217 2200  -0.117   5.962   4.523 -0.0295 -0.7322 -0.7815
   17SAPS  H17R 2201  -0.080   6.025   4.439  1.5904 -0.7145 -0.0823
   17SAPS  H17S 2202  -0.031   5.909   4.569 -0.2697 -0.8943 -0.5147
   17SAPS  C218 2203  -0.176   6.058   4.631 -0.2405 -0.3259 -0.1546
   17SAPS  H18R 2204  -0.285   6.070   4.614 -0.1995 -0.1750 -0.3131
   17SAPS  H18S 2205  -0.136   6.162   4.625 -1.1102 -0.0235 -0.9701
   17SAPS  C219 2206  -0.148   6.012   4.774  0.5396  0.1886  0.3299
   17SAPS  H19R 2207  -0.041   6.033   4.798  0.6817 -0.9256  0.7299
   17SAPS  H19S 2208  -0.158   5.902   4.785 -1.5951  0.2865 -0.1157
   17SAPS  C220 2209  -0.236   6.080   4.878 -0.2380  0.3623  0.7344
   17SAPS  H20R 2210  -0.213   6.043   4.980  1.1224 -2.8632 -0.5794
   17SAPS  H20S 2211  -0.346   6.079   4.867 -0.1154 -1.0121 -0.8209
   17SAPS  H20T 2212  -0.202   6.186   4.875 -1.2965  0.7054 -1.6339
   17SAPS   C33 2213  -0.364   6.568   3.328  0.1296 -0.7064  0.0384
   17SAPS   H3X 2214  -0.260   6.601   3.305  0.5544 -0.3010  2.2829
   17SAPS   H3Y 2215  -0.365   6.457   3.323  0.8350 -0.6689 -1.1541
   17SAPS   C34 2216  -0.383   6.622   3.475 -0.2506 -0.5150 -0.5992
   17SAPS   H4X 2217  -0.486   6.587   3.498 -0.7110  0.0926 -1.6677
   17SAPS   H4Y 2218  -0.388   6.733   3.467  0.0236 -0.5905 -2.3092
   17SAPS   C35 2219  -0.288   6.574   3.582 -0.0297  0.2366 -0.1666
   17SAPS   H5X 2220  -0.184   6.602   3.554 -0.4049  2.7118  0.6163
   17SAPS   H5Y 2221  -0.283   6.464   3.594 -0.8707 -0.2627 -3.5506
   17SAPS   C36 2222  -0.312   6.648   3.715  0.4405  0.4117 -0.1441
   17SAPS   H6X 2223  -0.419   6.646   3.744  0.3044 -0.1210 -0.6617
   17SAPS   H6Y 2224  -0.278   6.754   3.706 -0.8843  0.8139 -0.6348
   17SAPS   C37 2225  -0.238   6.579   3.833 -0.3777  0.7673  0.0260
   17SAPS   H7X 2226  -0.127   6.583   3.834 -0.2149 -1.4273  2.8017
   17SAPS   H7Y 2227  -0.265   6.471   3.830  0.2175  0.5752 -4.3928
   17SAPS   C38 2228  -0.280   6.636   3.966 -0.0042 -0.0604 -0.8598
   17SAPS   H8X 2229  -0.383   6.599   3.987  0.2620 -0.1236  0.4024
   17SAPS   H8Y 2230  -0.269   6.747   3.963 -0.1981 -0.0536 -2.6071
   17SAPS   C39 2231  -0.195   6.579   4.083  0.1222  0.4716  0.1604
   17SAPS   H9X 2232  -0.091   6.611   4.065 -0.0288  0.8150 -0.1182
   17SAPS   H9Y 2233  -0.194   6.468   4.082 -0.9315  0.4313  0.9008
   17SAPS  C310 2234  -0.254   6.614   4.220  0.4198  0.3338  0.9548
   17SAPS  H10X 2235  -0.356   6.570   4.210 -0.9057  3.5863 -1.5137
   17SAPS  H10Y 2236  -0.257   6.725   4.221  1.0516  0.3517  0.8583
   17SAPS  C311 2237  -0.185   6.556   4.346  0.4902  0.9964  0.0320
   17SAPS  H11X 2238  -0.080   6.591   4.341  1.7281 -2.3109  0.3284
   17SAPS  H11Y 2239  -0.192   6.447   4.325  0.2598  0.7140  1.4532
   17SAPS  C312 2240  -0.249   6.585   4.479 -0.1563  0.6987  0.1312
   17SAPS  H12X 2241  -0.358   6.567   4.468 -0.1443  1.9985 -3.2012
   17SAPS  H12Y 2242  -0.231   6.694   4.492  0.6049  0.7711 -1.3590
   17SAPS  C313 2243  -0.182   6.518   4.596  0.1942  0.7147 -1.1048
   17SAPS  H13X 2244  -0.073   6.539   4.607 -0.2172  1.6743  1.9890
   17SAPS  H13Y 2245  -0.208   6.410   4.597  3.5804 -0.3635  3.1513
   17SAPS  C314 2246  -0.241   6.577   4.723 -0.2460  0.2651 -0.0233
   17SAPS  H14X 2247  -0.349   6.604   4.720 -0.6091 -1.1785 -1.0793
   17SAPS  H14Y 2248  -0.191   6.675   4.734 -0.3266  0.2512  0.4609
   17SAPS  C315 2249  -0.205   6.489   4.847 -0.3530 -0.6422 -0.9623
   17SAPS  H15X 2250  -0.094   6.485   4.852 -0.3122 -0.9887 -1.9791
   17SAPS  H15Y 2251  -0.257   6.391   4.851 -1.0525 -0.2412  0.7440
   17SAPS  C316 2252  -0.242   6.569   4.975  0.1810 -0.7849  0.7586
   17SAPS  H16X 2253  -0.349   6.543   4.992 -0.2781 -0.4393 -1.3125
   17SAPS  H16Y 2254  -0.237   6.678   4.956 -1.9912 -0.8951 -0.9377
   17SAPS  C317 2255  -0.176   6.546   5.108 -0.7392 -0.6933 -0.4663
   17SAPS  H17X 2256  -0.090   6.616   5.110 -1.0807 -0.1551 -2.6640
   17SAPS  H17Y 2257  -0.142   6.441   5.100  2.2274  0.2192 -0.8043
   17SAPS  C318 2258  -0.265   6.575   5.230  0.1480  0.2486 -0.2574
   17SAPS  H18X 2259  -0.369   6.547   5.202  0.4641 -2.2553  0.7367
   17SAPS  H18Y 2260  -0.263   6.682   5.259 -0.4527 -0.3207  2.0344
   17SAPS  H18Z 2261  -0.238   6.508   5.314 -1.0405 -1.3812 -1.1146
   18SAPS     N 2262   2.156   5.210   2.977  0.1635  0.2002  0.8355
   18SAPS   HN1 2263   2.102   5.263   2.906 -0.6425 -0.9640  0.5416
   18SAPS   HN2 2264   2.091   5.176   3.052 -0.3968 -0.5051  0.0515
   18SAPS   HN3 2265   2.215   5.281   3.025 -0.7367  0.7292  1.1861
   18SAPS   C12 2266   2.246   5.108   2.910  0.1411  0.4430 -0.2185
   18SAPS  H12A 2267   2.172   5.038   2.874  1.3185 -0.1794 -1.5251
   18SAPS   C13 2268   2.328   5.135   2.782  0.2910 -0.3410  0.6088
   18SAPS  O13A 2269   2.279   5.219   2.702 -0.5784 -0.3815  0.0784
   18SAPS  O13B 2270   2.393   5.034   2.730  0.4345  0.1159 -0.2069
   18SAPS   C11 2271   2.351   5.056   3.019  0.0446 -0.1484  0.0996
   18SAPS  H11A 2272   2.411   5.144   3.052  2.1305 -0.5604 -2.3122
   18SAPS  H11B 2273   2.415   4.979   2.972 -2.5726 -1.8158 -0.9914
   18SAPS     P 2274   2.361   4.990   3.272  0.1030  0.2478  0.3074
   18SAPS   O13 2275   2.302   5.097   3.355 -0.2281 -0.2386 -0.2987
   18SAPS   O14 2276   2.338   4.853   3.320  1.1593 -0.3004 -0.2265
   18SAPS   O12 2277   2.292   4.996   3.131 -0.2531 -0.0548 -0.4150
   18SAPS   O11 2278   2.513   5.017   3.238 -0.2723 -0.4521  0.1625
   18SAPS    C1 2279   2.596   4.914   3.171  0.0820 -0.1153 -0.5020
   18SAPS    HA 2280   2.562   4.809   3.186  3.5122 -1.1701  0.9688
   18SAPS    HB 2281   2.613   4.932   3.063 -0.0505  0.7779 -0.3760
   18SAPS    C2 2282   2.734   4.904   3.236 -0.0628  0.1578 -0.2703
   18SAPS    HS 2283   2.786   4.807   3.218 -0.3994 -0.3233  1.2731
   18SAPS   O21 2284   2.735   4.934   3.379 -0.0967  0.1360  0.0810
   18SAPS   C21 2285   2.654   4.850   3.448  0.4348  0.0479 -0.0717
   18SAPS   O22 2286   2.612   4.745   3.409  0.1324  0.0902  0.3079
   18SAPS   C22 2287   2.642   4.913   3.592  0.4751  0.6673  0.1314
   18SAPS   H2R 2288   2.747   4.925   3.626 -0.2070  3.1015  1.5869
   18SAPS   H2S 2289   2.586   5.009   3.590 -0.6069  0.0525 -1.0989
   18SAPS    C3 2290   2.839   5.005   3.173 -0.7385  0.3994 -0.2832
   18SAPS    HX 2291   2.795   5.104   3.148 -1.4537 -0.1596 -1.3410
   18SAPS    HY 2292   2.854   4.952   3.076  2.0980 -2.5087  1.5453
   18SAPS   O31 2293   2.964   5.016   3.244  0.5034  0.4939 -0.2263
   18SAPS   C31 2294   2.974   5.116   3.330  0.2188  0.2464  0.4020
   18SAPS   O32 2295   2.884   5.187   3.377  0.2551  0.1002  0.1810
   18SAPS   C32 2296   3.118   5.126   3.372  0.4890  0.5680  0.0314
   18SAPS   H2X 2297   3.178   5.157   3.283 -0.3642 -0.0548 -0.7857
   18SAPS   H2Y 2298   3.156   5.033   3.419  2.4281  0.3146 -1.8826
   18SAPS   C23 2299   2.576   4.811   3.691 -0.0063  0.3558 -0.3525
   18SAPS   H3R 2300   2.639   4.720   3.685  0.2523  0.3704  1.5330
   18SAPS   H3S 2301   2.473   4.779   3.666 -0.3931 -0.7568  2.3321
   18SAPS   C24 2302   2.579   4.838   3.841  0.5025 -0.9962 -0.4461
   18SAPS   H4R 2303   2.687   4.849   3.865  0.2680 -0.4318  0.4156
   18SAPS   H4S 2304   2.534   4.752   3.895  0.3385  0.4693  1.8975
   18SAPS   C25 2305   2.505   4.963   3.881  0.5650  0.2002  0.2831
   18SAPS   H5R 2306   2.537   5.058   3.837 -1.2758 -0.0668 -1.8523
   18SAPS   C26 2307   2.392   4.976   3.954 -0.5923  0.4651  0.5971
   18SAPS   H6R 2308   2.358   5.078   3.975 -0.1649  1.0504 -1.3024
   18SAPS   C27 2309   2.322   4.861   4.017  0.9844 -0.4613 -0.6749
   18SAPS   H7R 2310   2.293   4.898   4.118 -1.1771  0.0015 -1.4104
   18SAPS   H7S 2311   2.404   4.790   4.041 -0.5725 -1.5497  1.8870
   18SAPS   C28 2312   2.208   4.796   3.942 -0.1818  0.1430  0.1316
   18SAPS   H8R 2313   2.225   4.778   3.835 -2.0669 -1.6682  0.0669
   18SAPS   C29 2314   2.082   4.757   3.988 -0.2797 -0.1416  0.3340
   18SAPS   H9R 2315   2.010   4.719   3.914  0.5357 -0.9024 -0.0883
   18SAPS  C210 2316   2.020   4.774   4.122  0.2201  0.3692  0.1156
   18SAPS  H10R 2317   2.101   4.760   4.197  1.4093  1.1523 -0.9903
   18SAPS  H10S 2318   1.944   4.693   4.134  1.5466 -1.4175 -2.5227
   18SAPS  C211 2319   1.948   4.903   4.142  0.0946  0.3573 -0.4800
   18SAPS  H11R 2320   1.997   4.989   4.094  1.0046 -0.3632 -0.8625
   18SAPS  C212 2321   1.838   4.919   4.226 -0.1394  0.1622  0.2029
   18SAPS  H12R 2322   1.794   5.020   4.236  0.3244  0.2493  1.7000
   18SAPS  C213 2323   1.773   4.808   4.312  0.0188 -1.0091  0.7321
   18SAPS  H13R 2324   1.741   4.722   4.249  0.1997 -0.6790  0.1822
   18SAPS  H13S 2325   1.684   4.861   4.351  0.4678  0.8618 -0.6720
   18SAPS  C214 2326   1.849   4.744   4.425  0.4160 -0.0362 -0.2652
   18SAPS  H14R 2327   1.957   4.765   4.428  0.5934 -0.9926  0.7341
   18SAPS  C215 2328   1.798   4.660   4.508  0.1979 -0.0584  0.5696
   18SAPS  H15R 2329   1.867   4.613   4.579  1.5472  2.0193  0.7321
   18SAPS  C216 2330   1.652   4.628   4.532  0.8588  0.3403 -0.1020
   18SAPS  H16R 2331   1.627   4.520   4.538 -1.5167  0.7654 -0.9540
   18SAPS  H16S 2332   1.592   4.669   4.448 -0.8018 -0.0273  0.8617
   18SAPS  C217 2333   1.595   4.690   4.661 -0.4677  0.1501 -0.4174
   18SAPS  H17R 2334   1.485   4.685   4.681 -0.2627 -0.5602  0.6030
   18SAPS  H17S 2335   1.626   4.797   4.663 -0.9400  0.4336 -3.4000
   18SAPS  C218 2336   1.641   4.615   4.788  0.4213 -0.2995 -0.8314
   18SAPS  H18R 2337   1.748   4.638   4.808  0.3327 -2.1426  2.5046
   18SAPS  H18S 2338   1.638   4.506   4.769  1.2113 -0.9034  2.0407
   18SAPS  C219 2339   1.552   4.643   4.910 -0.5725 -0.2791  0.2110
   18SAPS  H19R 2340   1.600   4.587   4.993  1.4148  1.2487  0.1849
   18SAPS  H19S 2341   1.448   4.610   4.892 -1.0898  0.2351  2.0042
   18SAPS  C220 2342   1.544   4.790   4.968 -0.0010 -0.3568 -0.5659
   18SAPS  H20R 2343   1.509   4.788   5.073  2.3669 -3.5260  0.3374
   18SAPS  H20S 2344   1.501   4.863   4.897  2.2450 -0.4011 -2.0990
   18SAPS  H20T 2345   1.649   4.828   4.971 -0.1058 -0.1094  0.3568
   18SAPS   C33 2346   3.128   5.244   3.463  0.6945  0.8519 -0.5661
   18SAPS   H3X 2347   3.055   5.328   3.454 -0.8404 -0.3029  0.5873
   18SAPS   H3Y 2348   3.226   5.297   3.460  2.1386 -1.4435  1.8201
   18SAPS   C34 2349   3.110   5.200   3.609 -0.2903 -0.2711  0.6052
   18SAPS   H4X 2350   3.155   5.099   3.622 -0.5312 -0.3880  0.5358
   18SAPS   H4Y 2351   3.004   5.188   3.639 -0.4267 -1.5564 -0.2975
   18SAPS   C35 2352   3.187   5.282   3.718  0.7120  1.3098  0.3850
   18SAPS   H5X 2353   3.143   5.383   3.731 -1.6998  0.5590 -1.2984
   18SAPS   H5Y 2354   3.287   5.301   3.673  0.7016 -1.3738 -0.9545
   18SAPS   C36 2355   3.224   5.204   3.848  0.0222 -0.7489 -0.0003
   18SAPS   H6X 2356   3.313   5.250   3.896 -1.1671  0.5911  1.0220
   18SAPS   H6Y 2357   3.247   5.097   3.829 -1.8894 -1.6639  2.3810
   18SAPS   C37 2358   3.115   5.224   3.962  0.9604 -0.5223 -0.1545
   18SAPS   H7X 2359   3.030   5.152   3.963  0.8281 -0.3623  0.0159
   18SAPS   H7Y 2360   3.082   5.330   3.955  2.8199  0.1531  0.7277
   18SAPS   C38 2361   3.177   5.216   4.100 -0.1938  0.0306  0.6238
   18SAPS   H8X 2362   3.268   5.281   4.102 -0.8085  1.0845 -1.8997
   18SAPS   H8Y 2363   3.207   5.114   4.132 -0.3673  0.1016  1.0239
   18SAPS   C39 2364   3.085   5.265   4.207  0.6187 -0.1867 -0.5290
   18SAPS   H9X 2365   2.989   5.211   4.196  0.1221  0.7948 -1.2011
   18SAPS   H9Y 2366   3.061   5.373   4.200 -0.7600 -0.4473 -0.1201
   18SAPS  C310 2367   3.145   5.261   4.350  0.3018  0.6398 -0.2706
   18SAPS  H10X 2368   3.217   5.344   4.368 -1.2981  1.7364  1.4948
   18SAPS  H10Y 2369   3.206   5.169   4.354 -2.5894 -1.7095 -3.7879
   18SAPS  C311 2370   3.040   5.275   4.458  0.4932 -0.3096 -0.3621
   18SAPS  H11X 2371   2.972   5.187   4.455  2.8190 -2.3758  2.0356
   18SAPS  H11Y 2372   2.979   5.365   4.435  1.5196  0.6282  0.4552
   18SAPS  C312 2373   3.099   5.288   4.597  0.5449  0.0770 -0.2266
   18SAPS  H12X 2374   3.153   5.385   4.605  0.0891  0.5830 -2.6474
   18SAPS  H12Y 2375   3.153   5.195   4.625  0.7581 -0.0776 -1.1475
   18SAPS  C313 2376   2.972   5.286   4.690 -0.0933  0.1398 -0.7509
   18SAPS  H13X 2377   2.907   5.197   4.676  0.8311 -0.8746  1.1379
   18SAPS  H13Y 2378   2.911   5.377   4.671 -0.3558  0.7446  2.4809
   18SAPS  C314 2379   3.020   5.299   4.836  0.7911  0.1628  0.4864
   18SAPS  H14X 2380   3.047   5.404   4.857 -0.3145  0.6883 -0.6170
   18SAPS  H14Y 2381   3.105   5.230   4.855 -2.6649 -4.6938  0.1431
   18SAPS  C315 2382   2.917   5.248   4.941  0.5378 -0.0666  0.5796
   18SAPS  H15X 2383   2.860   5.159   4.908 -0.2542  1.1197 -1.4050
   18SAPS  H15Y 2384   2.842   5.330   4.943 -0.1323 -0.5714 -1.6770
   18SAPS  C316 2385   2.966   5.241   5.083 -0.2242 -0.2649  0.6356
   18SAPS  H16X 2386   2.986   5.341   5.126 -1.8678  0.3568  0.0268
   18SAPS  H16Y 2387   3.056   5.176   5.079 -0.9655 -1.2784 -0.0790
   18SAPS  C317 2388   2.873   5.177   5.187  0.5748  0.1885  0.2624
   18SAPS  H17X 2389   2.838   5.089   5.130 -0.9071  2.2668 -2.2598
   18SAPS  H17Y 2390   2.793   5.250   5.209  0.3633  0.1085 -0.2289
   18SAPS  C318 2391   2.956   5.151   5.311  0.0289  0.2267 -0.7112
   18SAPS  H18X 2392   3.033   5.073   5.293 -0.1285  0.4499 -2.5915
   18SAPS  H18Y 2393   2.884   5.107   5.383  0.7750  0.4091  0.1651
   18SAPS  H18Z 2394   2.991   5.247   5.354 -1.6713 -0.3398  2.2235
   19SAPS     N 2395   2.890   2.783   2.994 -0.6804 -0.1441 -0.4070
   19SAPS   HN1 2396   2.845   2.697   3.033 -0.5320 -0.3541 -0.6892
   19SAPS   HN2 2397   2.891   2.844   3.078  2.6507 -0.4942 -0.0771
   19SAPS   HN3 2398   2.831   2.820   2.916  0.3576 -0.7477 -1.5186
   19SAPS   C12 2399   3.026   2.762   2.943  0.2589 -0.2514 -0.0030
   19SAPS  H12A 2400   3.071   2.716   3.030  0.3533  1.4751  0.9007
   19SAPS   C13 2401   3.037   2.681   2.809 -0.1413  0.5553 -0.5009
   19SAPS  O13A 2402   2.953   2.592   2.772  0.1936 -0.4202  0.3481
   19SAPS  O13B 2403   3.148   2.687   2.750 -0.2342 -0.2410 -0.5645
   19SAPS   C11 2404   3.099   2.896   2.928 -0.1237  0.0806 -0.3106
   19SAPS  H11A 2405   3.083   2.936   2.825  0.7914  0.5537 -0.2796
   19SAPS  H11B 2406   3.207   2.869   2.933 -0.3387 -0.4897  2.4801
   19SAPS     P 2407   3.104   3.144   3.013 -0.0117 -0.3915 -0.5389
   19SAPS   O13 2408   3.250   3.136   2.980  0.0108  1.1306 -0.1055
   19SAPS   O14 2409   3.010   3.195   2.913 -0.1114 -0.3453  0.0483
   19SAPS   O12 2410   3.060   2.988   3.030 -0.0350  0.5572 -0.1088
   19SAPS   O11 2411   3.087   3.211   3.151  0.6469 -0.2366  0.2279
   19SAPS    C1 2412   2.968   3.183   3.230 -0.2700 -0.5938 -0.1478
   19SAPS    HA 2413   2.893   3.255   3.190  0.5729 -0.2379 -1.1189
   19SAPS    HB 2414   2.931   3.080   3.215  1.5113 -1.6305  2.0928
   19SAPS    C2 2415   2.994   3.189   3.382  0.4938 -0.0092 -0.3016
   19SAPS    HS 2416   2.898   3.210   3.435  1.2820  2.1013  0.4137
   19SAPS   O21 2417   3.095   3.288   3.422  0.7345 -0.4182 -0.3386
   19SAPS   C21 2418   3.047   3.409   3.413  0.1528 -0.0689 -0.2029
   19SAPS   O22 2419   2.939   3.447   3.378  0.2603 -0.5095  0.5936
   19SAPS   C22 2420   3.154   3.503   3.450 -0.6057  0.0451 -0.5895
   19SAPS   H2R 2421   3.238   3.460   3.507  0.8087  3.0294 -0.2257
   19SAPS   H2S 2422   3.190   3.540   3.352  2.3420  1.1519  0.7929
   19SAPS    C3 2423   3.045   3.046   3.429  0.0377  0.6911  0.1019
   19SAPS    HX 2424   3.133   3.025   3.364  0.8747  2.4922  0.6097
   19SAPS    HY 2425   2.963   2.971   3.420  1.2844 -0.5346 -1.7912
   19SAPS   O31 2426   3.095   3.036   3.565 -0.2131  0.1873  0.4784
   19SAPS   C31 2427   3.008   3.042   3.661 -0.4918 -0.0096 -0.5228
   19SAPS   O32 2428   2.890   3.062   3.647  0.3134 -0.1349 -0.2035
   19SAPS   C32 2429   3.080   2.988   3.784  0.5019 -0.1684 -0.0346
   19SAPS   H2X 2430   3.066   3.068   3.861 -0.6578 -1.2969  0.9780
   19SAPS   H2Y 2431   3.189   2.987   3.759  0.0184  0.1887 -2.2902
   19SAPS   C23 2432   3.087   3.628   3.517 -0.1938 -0.7036  0.0402
   19SAPS   H3R 2433   3.024   3.692   3.452  0.5797  1.3216  1.2052
   19SAPS   H3S 2434   3.176   3.693   3.527 -0.4178 -0.5414  1.1489
   19SAPS   C24 2435   3.015   3.592   3.649 -0.7324  0.0413 -0.5995
   19SAPS   H4R 2436   2.924   3.536   3.618 -0.6156 -0.3326 -0.2759
   19SAPS   H4S 2437   2.979   3.686   3.695  0.3625 -0.4974  1.4991
   19SAPS   C25 2438   3.102   3.518   3.744 -0.0070  0.1193  0.5552
   19SAPS   H5R 2439   3.209   3.508   3.720 -0.3933 -1.3700 -0.6672
   19SAPS   C26 2440   3.061   3.466   3.860 -0.4019  0.3160  0.3112
   19SAPS   H6R 2441   3.140   3.429   3.927  1.2911  2.0056 -0.6270
   19SAPS   C27 2442   2.921   3.476   3.919  0.5299  0.1487 -0.4286
   19SAPS   H7R 2443   2.844   3.509   3.846 -1.7552 -0.5224  1.5544
   19SAPS   H7S 2444   2.911   3.550   4.002 -1.7868  0.6331 -1.0883
   19SAPS   C28 2445   2.885   3.331   3.948  0.2994  0.1004  0.7342
   19SAPS   H8R 2446   2.885   3.261   3.863 -0.5163 -1.1234  1.6993
   19SAPS   C29 2447   2.859   3.277   4.074 -0.0160  0.7601  0.5773
   19SAPS   H9R 2448   2.810   3.179   4.065  2.2349 -0.3512 -0.3674
   19SAPS  C210 2449   2.852   3.345   4.206 -0.4645  0.0404 -0.5484
   19SAPS  H10R 2450   2.751   3.326   4.248 -0.2996 -0.3130 -0.3064
   19SAPS  H10S 2451   2.855   3.455   4.200  0.4125  0.0233 -0.4417
   19SAPS  C211 2452   2.964   3.284   4.294  0.1838 -0.3247  0.3865
   19SAPS  H11R 2453   3.066   3.284   4.253 -0.4697  0.6958 -1.3439
   19SAPS  C212 2454   2.948   3.226   4.413 -0.1242  0.1578  0.7367
   19SAPS  H12R 2455   3.039   3.202   4.470  0.1628 -0.0146  0.2151
   19SAPS  C213 2456   2.817   3.215   4.482  0.0543  0.0404 -0.1376
   19SAPS  H13R 2457   2.748   3.155   4.419  0.8720  0.4409 -1.4660
   19SAPS  H13S 2458   2.770   3.314   4.497 -1.2889 -0.6243  0.2092
   19SAPS  C214 2459   2.809   3.134   4.608  0.4080 -0.0013  0.0598
   19SAPS  H14R 2460   2.790   3.025   4.600  0.5668 -0.0756  0.6543
   19SAPS  C215 2461   2.820   3.176   4.729  0.0081  0.3882  0.0429
   19SAPS  H15R 2462   2.819   3.103   4.812 -0.1367  1.8854  1.4257
   19SAPS  C216 2463   2.853   3.317   4.775 -0.4080 -0.1025 -0.1102
   19SAPS  H16R 2464   2.812   3.389   4.701 -0.0843  1.8729  1.5615
   19SAPS  H16S 2465   2.964   3.322   4.782 -0.4057  1.2114 -0.9118
   19SAPS  C217 2466   2.797   3.338   4.917  0.1990  0.5254 -0.3114
   19SAPS  H17R 2467   2.689   3.311   4.913  0.6009 -1.9281  1.9893
   19SAPS  H17S 2468   2.816   3.441   4.952  0.8442 -0.3320  2.0638
   19SAPS  C218 2469   2.876   3.262   5.027 -0.1809  0.5661 -0.2550
   19SAPS  H18R 2470   2.980   3.298   5.012  0.0228 -0.1214 -0.5288
   19SAPS  H18S 2471   2.862   3.152   5.013 -1.5638  0.7167 -0.1912
   19SAPS  C219 2472   2.841   3.315   5.166 -0.4090 -0.1282  0.0074
   19SAPS  H19R 2473   2.896   3.410   5.184  2.1200 -1.6621  0.7581
   19SAPS  H19S 2474   2.891   3.240   5.231  1.6349 -1.4219 -2.8452
   19SAPS  C220 2475   2.684   3.311   5.194  0.4259  0.3805  0.0829
   19SAPS  H20R 2476   2.634   3.225   5.145 -2.6333  1.3610  1.2219
   19SAPS  H20S 2477   2.637   3.403   5.154  1.0041 -0.3187 -2.3458
   19SAPS  H20T 2478   2.667   3.316   5.304 -0.9061  1.2004 -0.1399
   19SAPS   C33 2479   3.027   2.858   3.837 -0.1398  0.1933 -0.2726
   19SAPS   H3X 2480   3.038   2.776   3.762  0.1961 -0.0994  0.0933
   19SAPS   H3Y 2481   2.922   2.872   3.868 -1.1306 -0.4984 -2.9899
   19SAPS   C34 2482   3.125   2.816   3.951  0.1103  0.0189 -0.4052
   19SAPS   H4X 2483   3.224   2.804   3.901  1.6627 -0.7739  2.5920
   19SAPS   H4Y 2484   3.090   2.715   3.980 -2.3269  0.0752 -2.7449
   19SAPS   C35 2485   3.132   2.909   4.070  0.6025 -0.4808  0.2445
   19SAPS   H5X 2486   3.180   3.004   4.037 -0.1707 -0.7378 -1.7631
   19SAPS   H5Y 2487   3.193   2.864   4.151 -0.5670 -2.8197 -0.0874
   19SAPS   C36 2488   2.991   2.947   4.124 -0.1528 -0.0435  0.0897
   19SAPS   H6X 2489   2.908   2.933   4.051  0.0866  1.5708 -0.5439
   19SAPS   H6Y 2490   2.999   3.050   4.165 -0.3527 -0.0503  0.1521
   19SAPS   C37 2491   2.933   2.862   4.244 -0.9919  0.2126  0.3722
   19SAPS   H7X 2492   2.826   2.887   4.258 -1.1953 -1.0756  1.2582
   19SAPS   H7Y 2493   2.989   2.896   4.333  1.2544 -1.5882 -0.2720
   19SAPS   C38 2494   2.936   2.714   4.227 -0.3203 -0.7194  0.4934
   19SAPS   H8X 2495   3.037   2.679   4.197 -0.8476  0.1045 -2.5125
   19SAPS   H8Y 2496   2.880   2.679   4.138  2.3222 -0.3957 -1.4372
   19SAPS   C39 2497   2.896   2.642   4.361  0.5240  0.3883  0.8976
   19SAPS   H9X 2498   2.953   2.681   4.448 -0.8556  2.4814  0.9413
   19SAPS   H9Y 2499   2.900   2.532   4.350  0.8253  0.4479  0.3902
   19SAPS  C310 2500   2.740   2.660   4.379 -0.4377  1.1855 -0.1271
   19SAPS  H10X 2501   2.694   2.597   4.299  0.4673  0.4349 -0.0788
   19SAPS  H10Y 2502   2.710   2.766   4.366 -0.4938  1.2719  0.6725
   19SAPS  C311 2503   2.698   2.605   4.522  0.1388 -0.4754  0.6799
   19SAPS  H11X 2504   2.734   2.502   4.545 -2.0880 -1.3291  0.5698
   19SAPS  H11Y 2505   2.587   2.597   4.517  0.1798 -0.2597 -1.0611
   19SAPS  C312 2506   2.724   2.712   4.629 -0.2281  0.2797  0.6123
   19SAPS  H12X 2507   2.692   2.811   4.589 -1.9282  0.3418  2.0100
   19SAPS  H12Y 2508   2.834   2.709   4.646 -0.0683 -1.2972 -0.4501
   19SAPS  C313 2509   2.643   2.699   4.756 -0.0858  0.5559 -0.2855
   19SAPS  H13X 2510   2.686   2.609   4.805  2.0519  2.2863  1.1748
   19SAPS  H13Y 2511   2.538   2.676   4.728  0.4781 -1.1975 -1.1077
   19SAPS  C314 2512   2.657   2.819   4.851 -0.1801 -0.1898 -0.1287
   19SAPS  H14X 2513   2.627   2.912   4.799 -1.2539 -1.1767 -1.3377
   19SAPS  H14Y 2514   2.763   2.836   4.878  0.3221 -0.7886 -1.6434
   19SAPS  C315 2515   2.560   2.810   4.975 -0.4074 -0.5015  0.1757
   19SAPS  H15X 2516   2.588   2.723   5.038  0.7023 -1.0295 -0.9873
   19SAPS  H15Y 2517   2.455   2.791   4.944 -0.5099  0.4688 -0.0781
   19SAPS  C316 2518   2.580   2.940   5.059  0.1652  0.3901 -0.9517
   19SAPS  H16X 2519   2.562   3.032   5.000 -0.5382  1.2276  0.5193
   19SAPS  H16Y 2520   2.682   2.955   5.099 -1.6603  2.0589  3.9324
   19SAPS  C317 2521   2.490   2.933   5.189  0.4901 -0.1349  0.9047
   19SAPS  H17X 2522   2.539   2.996   5.266 -1.9158  1.4230  1.2617
   19SAPS  H17Y 2523   2.514   2.832   5.226  1.9447 -0.0700  0.2195
   19SAPS  C318 2524   2.342   2.946   5.159  0.2750  0.0073  0.0410
   19SAPS  H18X 2525   2.319   3.055   5.166 -2.3369 -0.4015 -1.0426
   19SAPS  H18Y 2526   2.273   2.903   5.234 -1.0391  0.4734 -0.8679
   19SAPS  H18Z 2527   2.315   2.903   5.060  0.3422  0.4406 -0.1691
   20SAPS     N 2528   3.133   2.320   2.987  0.2895  0.6830 -0.0822
   20SAPS   HN1 2529   3.121   2.332   2.884  3.6775  2.0351 -0.4588
   20SAPS   HN2 2530   3.046   2.346   3.037  1.4591  0.3989  2.2157
   20SAPS   HN3 2531   3.208   2.378   3.029 -0.1344  0.3326  1.1800
   20SAPS   C12 2532   3.165   2.183   3.011 -0.1104  0.6421 -0.0805
   20SAPS  H12A 2533   3.169   2.175   3.118 -0.3568  1.8693  0.0275
   20SAPS   C13 2534   3.073   2.072   2.944 -0.1059  0.0248 -0.2438
   20SAPS  O13A 2535   2.973   2.111   2.885  0.2277 -0.4421 -0.1146
   20SAPS  O13B 2536   3.095   1.951   2.976  0.7072 -0.3985  0.4734
   20SAPS   C11 2537   3.305   2.163   2.962  0.1049  0.7562  0.1770
   20SAPS  H11A 2538   3.296   2.154   2.852  1.0119 -1.4165  0.2224
   20SAPS  H11B 2539   3.327   2.058   2.991 -2.2441  0.0462 -0.3848
   20SAPS     P 2540   3.452   2.272   3.157 -0.4164 -0.0577  0.4335
   20SAPS   O13 2541   3.587   2.337   3.155  0.0553  0.0038 -0.0554
   20SAPS   O14 2542   3.335   2.341   3.219 -0.3329 -0.9972 -0.2776
   20SAPS   O12 2543   3.406   2.250   3.004 -0.4317 -0.3805 -0.5720
   20SAPS   O11 2544   3.470   2.128   3.214  0.4143 -0.1834  0.3283
   20SAPS    C1 2545   3.414   2.072   3.338 -0.0293 -0.1096  1.1991
   20SAPS    HA 2546   3.308   2.103   3.344 -0.3452 -0.9350  0.1462
   20SAPS    HB 2547   3.422   1.962   3.325  0.9433  0.2576 -2.6742
   20SAPS    C2 2548   3.477   2.131   3.473 -0.1198  0.9146  0.0118
   20SAPS    HS 2549   3.440   2.055   3.546  0.0137 -0.3571 -1.1963
   20SAPS   O21 2550   3.439   2.269   3.499  0.2343 -0.3711 -0.0675
   20SAPS   C21 2551   3.316   2.299   3.530  0.7583  0.2540 -0.0689
   20SAPS   O22 2552   3.221   2.225   3.560  0.1389 -0.2244 -0.0360
   20SAPS   C22 2553   3.305   2.453   3.520  0.0984  0.9516 -0.1047
   20SAPS   H2R 2554   3.408   2.484   3.494 -0.4822  0.5074 -3.3427
   20SAPS   H2S 2555   3.238   2.472   3.434  0.7449  1.0134 -0.6042
   20SAPS    C3 2556   3.636   2.136   3.484  0.2034  0.2774 -0.5148
   20SAPS    HX 2557   3.668   2.209   3.407 -0.9290  0.5111 -0.7878
   20SAPS    HY 2558   3.673   2.032   3.467  0.9924  0.3244  0.7349
   20SAPS   O31 2559   3.672   2.178   3.615 -0.2061 -0.1043 -0.2687
   20SAPS   C31 2560   3.787   2.231   3.637 -0.0425 -0.2179 -0.0339
   20SAPS   O32 2561   3.874   2.241   3.553 -0.6524 -0.3528 -0.4330
   20SAPS   C32 2562   3.798   2.270   3.786 -0.2800 -0.9643  0.3981
   20SAPS   H2X 2563   3.792   2.180   3.851 -1.4120 -1.5387 -0.4632
   20SAPS   H2Y 2564   3.702   2.321   3.807 -0.0735  0.1886 -1.2616
   20SAPS   C23 2565   3.260   2.523   3.652 -0.1937  0.0628 -0.4246
   20SAPS   H3R 2566   3.197   2.450   3.707  0.8498  0.3939  1.2829
   20SAPS   H3S 2567   3.204   2.616   3.630 -0.8154 -0.3066 -0.4447
   20SAPS   C24 2568   3.368   2.568   3.751  0.8756 -0.0403  0.1684
   20SAPS   H4R 2569   3.340   2.651   3.819 -1.6345 -0.1465 -0.6394
   20SAPS   H4S 2570   3.446   2.612   3.685 -2.5934  4.7040 -1.3792
   20SAPS   C25 2571   3.420   2.448   3.823 -0.1862 -0.3805 -0.2218
   20SAPS   H5R 2572   3.489   2.385   3.765  0.2459  0.8984 -1.1515
   20SAPS   C26 2573   3.401   2.414   3.949  0.5867  1.1689 -0.2698
   20SAPS   H6R 2574   3.435   2.313   3.978  3.0461  2.5848  2.2627
   20SAPS   C27 2575   3.322   2.502   4.045 -0.2246  0.3223 -0.3935
   20SAPS   H7R 2576   3.222   2.519   4.000 -0.2198 -1.4101 -1.1125
   20SAPS   H7S 2577   3.372   2.602   4.047 -0.0737  0.2809 -1.3859
   20SAPS   C28 2578   3.307   2.434   4.178  0.5503 -0.7114  0.4383
   20SAPS   H8R 2579   3.273   2.330   4.163  0.9849 -0.9483  1.0562
   20SAPS   C29 2580   3.314   2.498   4.297 -0.3830  0.4016  0.6018
   20SAPS   H9R 2581   3.305   2.436   4.388  2.8657 -1.5239 -0.2088
   20SAPS  C210 2582   3.343   2.639   4.330  0.1621  0.2992 -0.7710
   20SAPS  H10R 2583   3.321   2.698   4.238  0.9778 -0.2691 -1.3503
   20SAPS  H10S 2584   3.454   2.643   4.336  0.1559 -0.8419  3.3388
   20SAPS  C211 2585   3.270   2.700   4.455  0.8814  0.1252 -0.5277
   20SAPS  H11R 2586   3.169   2.739   4.438  0.3452 -1.3262 -0.7665
   20SAPS  C212 2587   3.330   2.721   4.573  1.1492 -0.6265 -0.3695
   20SAPS  H12R 2588   3.261   2.755   4.651 -1.2963 -4.2667 -0.6943
   20SAPS  C213 2589   3.468   2.667   4.606 -0.2096 -0.0659 -0.3096
   20SAPS  H13R 2590   3.538   2.752   4.592  0.2302  0.0784  2.3793
   20SAPS  H13S 2591   3.502   2.591   4.533  3.8484  0.0885  1.1766
   20SAPS  C214 2592   3.478   2.602   4.746  0.3491 -0.7180  0.3162
   20SAPS  H14R 2593   3.455   2.494   4.747 -2.8720 -0.2699 -2.5261
   20SAPS  C215 2594   3.492   2.670   4.861 -0.7044  0.0275 -0.0725
   20SAPS  H15R 2595   3.483   2.624   4.960 -4.2598  2.4336  0.9371
   20SAPS  C216 2596   3.499   2.817   4.862  0.1749  0.0545  0.3995
   20SAPS  H16R 2597   3.450   2.866   4.774  1.1851 -1.0855 -0.8427
   20SAPS  H16S 2598   3.608   2.835   4.853 -0.0610  2.5546  1.6016
   20SAPS  C217 2599   3.441   2.873   4.992 -1.0635 -0.3473 -0.5510
   20SAPS  H17R 2600   3.469   2.980   5.001  0.6544 -0.8270  0.1295
   20SAPS  H17S 2601   3.480   2.814   5.077  0.0940  2.5942  1.1036
   20SAPS  C218 2602   3.284   2.869   4.989 -0.3160  0.9840 -0.0328
   20SAPS  H18R 2603   3.255   2.764   4.964  0.4379  0.4497  1.2165
   20SAPS  H18S 2604   3.235   2.929   4.909 -1.8238  1.0964  0.9220
   20SAPS  C219 2605   3.231   2.933   5.112  0.9717  0.1916 -0.4151
   20SAPS  H19R 2606   3.270   3.037   5.115 -0.7608  0.9181 -1.1780
   20SAPS  H19S 2607   3.271   2.888   5.206 -1.2714 -1.4113 -0.1311
   20SAPS  C220 2608   3.077   2.928   5.124  0.2663 -0.1542  0.1609
   20SAPS  H20R 2609   3.033   2.830   5.098 -1.3900  0.1836  1.4797
   20SAPS  H20S 2610   3.036   3.009   5.060  0.1519  0.7497  1.3346
   20SAPS  H20T 2611   3.034   2.957   5.223 -0.9323  0.4554 -0.5047
   20SAPS   C33 2612   3.917   2.357   3.832 -1.3120 -0.4709  0.4265
   20SAPS   H3X 2613   3.889   2.412   3.924 -1.5016  0.8431 -0.3866
   20SAPS   H3Y 2614   3.943   2.428   3.751  2.3163 -0.6740  1.2638
   20SAPS   C34 2615   4.047   2.273   3.860  0.2215  0.3493  0.2725
   20SAPS   H4X 2616   4.134   2.341   3.849 -0.6798  1.5619  0.3868
   20SAPS   H4Y 2617   4.064   2.202   3.776  0.4695 -0.0229  0.6353
   20SAPS   C35 2618   4.045   2.200   3.998  0.5758 -0.2784 -0.5373
   20SAPS   H5X 2619   4.121   2.120   3.983 -1.0148 -1.6381 -1.7342
   20SAPS   H5Y 2620   3.949   2.145   4.013  1.1920 -0.7711  2.1543
   20SAPS   C36 2621   4.071   2.286   4.123  0.7226  0.6417  0.6643
   20SAPS   H6X 2622   3.973   2.334   4.141  0.6652  0.2916  1.3209
   20SAPS   H6Y 2623   4.152   2.359   4.103 -1.0860  2.3235 -0.7628
   20SAPS   C37 2624   4.103   2.214   4.253 -0.3321  0.3448  0.2758
   20SAPS   H7X 2625   4.199   2.160   4.238 -0.7379 -0.2947 -0.0658
   20SAPS   H7Y 2626   4.019   2.141   4.263 -0.3735  0.3627  0.0742
   20SAPS   C38 2627   4.089   2.303   4.377 -0.2982  0.0839  0.4558
   20SAPS   H8X 2628   3.985   2.343   4.378 -0.5180 -0.4231  2.6346
   20SAPS   H8Y 2629   4.161   2.387   4.378 -0.6451  0.3786  1.4227
   20SAPS   C39 2630   4.106   2.224   4.505 -0.0880 -0.3987 -0.5881
   20SAPS   H9X 2631   4.200   2.164   4.506  0.0196 -0.5469 -4.4931
   20SAPS   H9Y 2632   4.024   2.150   4.502 -1.9529  1.5912 -2.6788
   20SAPS  C310 2633   4.120   2.313   4.628  0.1261  0.6236 -0.9580
   20SAPS  H10X 2634   4.027   2.373   4.643 -2.5766 -3.4303  0.2518
   20SAPS  H10Y 2635   4.195   2.394   4.613 -2.8484  3.6104 -0.8569
   20SAPS  C311 2636   4.132   2.235   4.763  0.1942  0.3457  0.4901
   20SAPS  H11X 2637   4.219   2.166   4.771 -0.9535 -1.2335 -0.3319
   20SAPS  H11Y 2638   4.043   2.170   4.772  0.9610 -0.5106  2.4994
   20SAPS  C312 2639   4.139   2.329   4.878  0.4769  0.4111 -0.1158
   20SAPS  H12X 2640   4.037   2.372   4.887  1.3559  2.8803 -1.0442
   20SAPS  H12Y 2641   4.211   2.412   4.861 -0.5567  1.0164 -1.7627
   20SAPS  C313 2642   4.179   2.249   5.005  0.2815  0.2653  0.0784
   20SAPS  H13X 2643   4.222   2.318   5.081  2.1417  0.0845 -0.7584
   20SAPS  H13Y 2644   4.262   2.178   4.987 -1.4448 -2.4554  2.2204
   20SAPS  C314 2645   4.067   2.172   5.071  0.7992 -0.3163  0.6206
   20SAPS  H14X 2646   4.011   2.110   4.998  1.8753  0.7605 -1.1857
   20SAPS  H14Y 2647   3.996   2.246   5.114 -1.2049 -0.6374 -1.8740
   20SAPS  C315 2648   4.109   2.082   5.181 -0.0074  0.1421  0.0937
   20SAPS  H15X 2649   4.153   1.995   5.128 -0.0694 -0.7468  1.4603
   20SAPS  H15Y 2650   4.014   2.057   5.232 -0.9376  2.1932 -0.5185
   20SAPS  C316 2651   4.211   2.155   5.282 -0.2068  0.3664 -0.0346
   20SAPS  H16X 2652   4.160   2.253   5.287 -0.1747  0.3573  0.5180
   20SAPS  H16Y 2653   4.309   2.173   5.232 -0.3098 -0.6565 -0.6361
   20SAPS  C317 2654   4.235   2.077   5.410 -0.2217 -0.3829  0.3994
   20SAPS  H17X 2655   4.241   1.969   5.384 -0.1336 -0.4889  0.8439
   20SAPS  H17Y 2656   4.148   2.083   5.480  0.3783  1.5376  1.0222
   20SAPS  C318 2657   4.364   2.110   5.473 -0.1282  0.2092  0.0194
   20SAPS  H18X 2658   4.381   2.216   5.446 -1.1371  0.8871  1.8943
   20SAPS  H18Y 2659   4.439   2.034   5.443  0.8337  1.2707 -0.3354
   20SAPS  H18Z 2660   4.364   2.101   5.584  2.6606 -0.8416  0.0243
   21CHL1    C3 2661   0.136   5.625   7.308 -0.7367  0.1164  0.4601
   21CHL1    H3 2662   0.038   5.610   7.258 -1.4022 -0.5467  1.8936
   21CHL1    O3 2663   0.105   5.621   7.445 -0.6702  0.0726  0.3185
   21CHL1   H3' 2664   0.075   5.533   7.471 -1.2718  0.6252  1.5769
   21CHL1    C4 2665   0.247   5.519   7.258  0.2444 -0.1300  0.0675
   21CHL1   H4A 2666   0.341   5.543   7.312  1.0969  1.1185 -1.8747
   21CHL1   H4B 2667   0.221   5.416   7.291 -1.3740  0.2130 -0.0292
   21CHL1    C5 2668   0.277   5.523   7.104 -0.2662 -0.5322  0.6068
   21CHL1    C6 2669   0.283   5.414   7.023  0.2846  0.5439 -0.6400
   21CHL1    H6 2670   0.265   5.312   7.062 -2.5780  0.8809 -0.9248
   21CHL1    C7 2671   0.310   5.419   6.873  0.5757 -0.5185 -0.0110
   21CHL1   H7A 2672   0.379   5.342   6.833 -0.8442 -1.6083 -0.4826
   21CHL1   H7B 2673   0.215   5.383   6.828  0.1502  0.0684  0.4036
   21CHL1    C8 2674   0.346   5.569   6.828  0.3345 -0.4208 -0.2374
   21CHL1    H8 2675   0.453   5.581   6.857  0.2230 -1.6130  0.7569
   21CHL1   C14 2676   0.339   5.583   6.680 -0.3749  0.5790  0.8675
   21CHL1   H14 2677   0.230   5.573   6.659 -0.3257  0.6230  0.5910
   21CHL1   C15 2678   0.395   5.463   6.597  0.2852 -0.4661  0.0733
   21CHL1  H15A 2679   0.490   5.435   6.646  0.7333  0.6596 -0.1203
   21CHL1  H15B 2680   0.323   5.379   6.595  0.4146 -0.5678 -0.7654
   21CHL1   C16 2681   0.423   5.536   6.462  0.0449 -0.0042  0.6498
   21CHL1  H16A 2682   0.531   5.536   6.434 -0.6947 -2.3338 -2.7753
   21CHL1  H16B 2683   0.379   5.477   6.380  4.8330 -1.0188 -1.5466
   21CHL1   C17 2684   0.369   5.683   6.464  0.4086 -0.2742 -1.0491
   21CHL1   H17 2685   0.262   5.687   6.435  0.6450  0.6603 -1.8226
   21CHL1   C13 2686   0.378   5.719   6.618 -0.0043  0.0841 -0.1018
   21CHL1   C18 2687   0.522   5.771   6.656  0.3664  0.6470 -0.2488
   21CHL1  H18A 2688   0.593   5.700   6.607 -0.5157  1.5135 -2.9243
   21CHL1  H18B 2689   0.535   5.873   6.614  3.3968  0.4999  0.0643
   21CHL1  H18C 2690   0.553   5.773   6.763  1.8556  0.8861 -0.6598
   21CHL1   C12 2691   0.280   5.823   6.673  0.4105 -0.2835  0.0948
   21CHL1  H12A 2692   0.293   5.928   6.641  2.1515 -0.3893  0.3530
   21CHL1  H12B 2693   0.184   5.792   6.627  0.5330  0.1819 -0.4764
   21CHL1   C11 2694   0.279   5.823   6.824  0.8276  0.4750 -0.0717
   21CHL1  H11A 2695   0.369   5.877   6.862  0.1360 -0.5336  3.2885
   21CHL1  H11B 2696   0.186   5.871   6.861 -0.0409 -0.3065 -1.1863
   21CHL1    C9 2697   0.266   5.683   6.900 -0.2206  0.5487  0.2610
   21CHL1    H9 2698   0.161   5.656   6.877  0.4404 -1.3648 -0.7443
   21CHL1   C10 2699   0.289   5.673   7.056  0.5639 -0.1812 -0.5312
   21CHL1   C19 2700   0.433   5.724   7.090  0.1261  0.9105 -0.2009
   21CHL1  H19A 2701   0.504   5.644   7.060 -0.8141 -0.0692  0.1268
   21CHL1  H19B 2702   0.461   5.813   7.028 -1.4885  0.7940 -1.1476
   21CHL1  H19C 2703   0.437   5.763   7.194 -1.4029  2.2281 -0.5887
   21CHL1    C1 2704   0.194   5.770   7.123 -0.5994  0.8115  0.2035
   21CHL1   H1A 2705   0.226   5.874   7.097  4.1911 -0.3985  0.3114
   21CHL1   H1B 2706   0.092   5.764   7.080 -0.6395  0.3075  0.3625
   21CHL1    C2 2707   0.183   5.768   7.275 -0.1827 -0.4159 -0.5025
   21CHL1   H2A 2708   0.108   5.848   7.296  0.7245  0.8086 -1.7496
   21CHL1   H2B 2709   0.276   5.801   7.328 -0.9029 -1.7767  1.7716
   21CHL1   C20 2710   0.426   5.780   6.365  0.2769 -0.1829 -0.0976
   21CHL1   H20 2711   0.537   5.786   6.377  0.4818 -0.7875 -1.5221
   21CHL1   C21 2712   0.361   5.916   6.371 -0.2064  0.4797 -0.2991
   21CHL1  H21A 2713   0.400   5.960   6.465 -2.0596  2.2544 -0.2919
   21CHL1  H21B 2714   0.250   5.918   6.377 -0.2301  3.3675 -0.0332
   21CHL1  H21C 2715   0.390   5.967   6.276  2.5803 -1.9259 -0.8498
   21CHL1   C22 2716   0.419   5.726   6.218  0.6488  0.2017  0.6557
   21CHL1  H22A 2717   0.471   5.803   6.157 -0.3817 -0.4854 -1.1634
   21CHL1  H22B 2718   0.468   5.626   6.215  0.7681  0.2759  0.0751
   21CHL1   C23 2719   0.282   5.706   6.160  0.0813  0.2524 -0.9604
   21CHL1  H23A 2720   0.232   5.614   6.199  1.2611 -0.5796 -1.3537
   21CHL1  H23B 2721   0.224   5.795   6.193  1.6171  1.7018 -2.0069
   21CHL1   C24 2722   0.281   5.689   6.007  0.2632 -0.4814  0.3145
   21CHL1  H24A 2723   0.331   5.772   5.954  0.8355 -1.8505 -1.3741
   21CHL1  H24B 2724   0.349   5.602   5.991  0.3479 -0.7406  1.8441
   21CHL1   C25 2725   0.144   5.672   5.948 -0.1614  0.3711  0.6264
   21CHL1   H25 2726   0.096   5.578   5.982  0.1733  0.2550  0.7912
   21CHL1   C26 2727   0.051   5.784   5.981 -0.3734  1.1008 -0.4254
   21CHL1  H26A 2728  -0.029   5.790   5.904  0.5723  0.3967 -1.5046
   21CHL1  H26B 2729   0.018   5.760   6.084  3.0312 -0.4418  0.4650
   21CHL1  H26C 2730   0.105   5.880   5.969  1.9685  0.0579  0.9646
   21CHL1   C27 2731   0.158   5.666   5.798 -0.3120 -0.1481 -0.5612
   21CHL1  H27A 2732   0.061   5.672   5.744 -0.9959 -2.8530  0.2455
   21CHL1  H27B 2733   0.209   5.760   5.766 -1.3996  0.3843 -0.7529
   21CHL1  H27C 2734   0.217   5.581   5.757  0.1064 -0.4735  0.6867
   22CHL1    C3 2735   2.973   6.414   6.540 -0.7644 -0.1713  0.4333
   22CHL1    H3 2736   3.083   6.421   6.527 -1.0005  0.5717 -1.5883
   22CHL1    O3 2737   2.953   6.441   6.680  0.2059 -0.1692 -0.4637
   22CHL1   H3' 2738   2.917   6.529   6.692  1.0063 -0.0398  1.2379
   22CHL1    C4 2739   2.905   6.527   6.461 -0.2377 -0.7528 -0.3598
   22CHL1   H4A 2740   2.804   6.540   6.505  0.9364 -0.4610  2.4598
   22CHL1   H4B 2741   2.957   6.622   6.486 -1.5688 -0.1760  0.3452
   22CHL1    C5 2742   2.914   6.497   6.313 -0.3093  0.2677 -0.0988
   22CHL1    C6 2743   2.961   6.588   6.232  0.4165  0.3112  0.7827
   22CHL1    H6 2744   2.986   6.689   6.269 -1.1209  1.1814 -0.4428
   22CHL1    C7 2745   2.969   6.576   6.078  0.8127 -0.1371  0.1535
   22CHL1   H7A 2746   2.932   6.671   6.033 -2.2051 -2.3456 -2.5529
   22CHL1   H7B 2747   3.072   6.567   6.039 -0.1609  0.0383 -2.7277
   22CHL1    C8 2748   2.897   6.448   6.020 -0.1236 -0.1626 -0.2957
   22CHL1    H8 2749   2.788   6.468   6.021 -0.0017  0.7328  1.8090
   22CHL1   C14 2750   2.940   6.408   5.885  0.3462  0.0981  0.3168
   22CHL1   H14 2751   3.046   6.380   5.905 -0.0018 -1.6564 -0.1852
   22CHL1   C15 2752   2.954   6.513   5.766 -0.3167  0.0840 -0.0950
   22CHL1  H15A 2753   2.865   6.579   5.766 -2.8746 -3.1076 -0.4616
   22CHL1  H15B 2754   3.053   6.563   5.773  1.8559 -3.9947  2.4342
   22CHL1   C16 2755   2.932   6.433   5.633 -0.0667 -0.5369 -0.8926
   22CHL1  H16A 2756   2.839   6.471   5.584 -1.7712 -0.9495  1.7975
   22CHL1  H16B 2757   3.014   6.436   5.558  0.2263 -0.1939 -0.5644
   22CHL1   C17 2758   2.920   6.283   5.675 -0.0719 -0.0740 -0.5064
   22CHL1   H17 2759   3.023   6.245   5.691  0.6506  1.0283 -2.2683
   22CHL1   C13 2760   2.866   6.288   5.824  0.1667 -0.5915  0.0347
   22CHL1   C18 2761   2.718   6.323   5.823 -0.2108 -0.4753 -0.2238
   22CHL1  H18A 2762   2.703   6.414   5.760  1.3008  0.5140  0.7662
   22CHL1  H18B 2763   2.657   6.236   5.791 -0.9266 -0.0568 -0.0135
   22CHL1  H18C 2764   2.674   6.338   5.924 -0.7099 -1.8754 -0.2138
   22CHL1   C12 2765   2.899   6.165   5.913  0.6852  0.0169 -0.8222
   22CHL1  H12A 2766   2.839   6.080   5.872 -0.0574  0.5467 -0.8533
   22CHL1  H12B 2767   3.007   6.143   5.904  0.6034 -1.5068  1.2679
   22CHL1   C11 2768   2.859   6.198   6.062 -0.4668 -0.2489  0.1340
   22CHL1  H11A 2769   2.748   6.210   6.064 -0.3947  0.4899  0.0257
   22CHL1  H11B 2770   2.888   6.110   6.122  3.4051  1.7193  1.4875
   22CHL1    C9 2771   2.916   6.331   6.121 -0.5692  0.3143 -0.5371
   22CHL1    H9 2772   3.026   6.312   6.122 -0.6726 -0.4431  1.3979
   22CHL1   C10 2773   2.875   6.350   6.264 -0.4735 -0.3230  0.6909
   22CHL1   C19 2774   2.718   6.334   6.273 -0.6877  1.1719 -0.7238
   22CHL1  H19A 2775   2.694   6.227   6.255  1.5805  0.6394 -0.9474
   22CHL1  H19B 2776   2.682   6.367   6.373 -0.2521  0.3057 -0.2709
   22CHL1  H19C 2777   2.660   6.383   6.192  1.4248  2.5196 -1.5171
   22CHL1    C1 2778   2.938   6.244   6.356  1.0194 -0.4734  0.9632
   22CHL1   H1A 2779   2.876   6.152   6.341  0.6799 -0.1929  0.6245
   22CHL1   H1B 2780   3.046   6.235   6.330  0.7987  1.3481 -0.7907
   22CHL1    C2 2781   2.924   6.276   6.508 -0.3381 -0.1561 -0.2796
   22CHL1   H2A 2782   2.959   6.192   6.572  0.6443 -0.0173 -0.6202
   22CHL1   H2B 2783   2.814   6.275   6.523 -1.1933  1.3822 -4.8210
   22CHL1   C20 2784   2.862   6.199   5.565 -0.0190 -0.7375 -0.3256
   22CHL1   H20 2785   2.755   6.227   5.555  0.3313 -0.0014 -2.8116
   22CHL1   C21 2786   2.857   6.055   5.613  0.6627 -0.3686  0.6091
   22CHL1  H21A 2787   2.777   6.033   5.687  0.0158 -0.2012 -0.0218
   22CHL1  H21B 2788   2.959   6.024   5.642  0.8840  0.5668  0.8587
   22CHL1  H21C 2789   2.830   6.004   5.518  0.5630  1.0315 -0.1540
   22CHL1   C22 2790   2.918   6.210   5.422 -0.2870  0.2105  0.2897
   22CHL1  H22A 2791   2.876   6.130   5.357  0.8897 -0.3280  0.1605
   22CHL1  H22B 2792   2.889   6.302   5.367  1.0395 -0.5136 -1.7403
   22CHL1   C23 2793   3.069   6.191   5.408  0.2449  0.5032 -0.1903
   22CHL1  H23A 2794   3.107   6.292   5.434 -0.0230  0.8598 -1.1433
   22CHL1  H23B 2795   3.112   6.126   5.487  2.8832  0.0849 -1.8490
   22CHL1   C24 2796   3.115   6.147   5.264 -0.3971 -0.3286  0.5374
   22CHL1  H24A 2797   3.078   6.044   5.244  1.0238 -0.6420 -0.6535
   22CHL1  H24B 2798   3.070   6.212   5.186 -2.9438  1.3190  3.1474
   22CHL1   C25 2799   3.271   6.137   5.246  0.2961 -1.1653  0.8574
   22CHL1   H25 2800   3.304   6.242   5.262 -1.1371 -0.6411  0.5376
   22CHL1   C26 2801   3.341   6.039   5.342 -0.6683 -0.4232  0.0808
   22CHL1  H26A 2802   3.448   6.070   5.342 -0.9675  0.7540 -1.4466
   22CHL1  H26B 2803   3.301   6.039   5.445 -2.9328  0.2959 -0.7388
   22CHL1  H26C 2804   3.319   5.940   5.297  1.7210 -0.6015 -0.8162
   22CHL1   C27 2805   3.321   6.118   5.095  0.2255 -0.6930 -0.5656
   22CHL1  H27A 2806   3.298   6.020   5.047  1.6671 -1.7342  0.7957
   22CHL1  H27B 2807   3.269   6.199   5.039 -0.5036  1.1850  2.5776
   22CHL1  H27C 2808   3.430   6.138   5.087 -0.2804  2.1662 -1.5375
   23CHL1    C3 2809   0.164   4.393   7.234 -0.5795 -0.0130  0.3849
   23CHL1    H3 2810   0.080   4.326   7.208  0.7240 -1.6299  0.1632
   23CHL1    O3 2811   0.172   4.418   7.373 -0.3146 -0.6283  0.3399
   23CHL1   H3' 2812   0.159   4.511   7.392 -0.7950 -1.0064  2.0916
   23CHL1    C4 2813   0.295   4.329   7.185  0.0713  0.1557  0.0431
   23CHL1   H4A 2814   0.386   4.387   7.212  0.0926 -0.6691  1.9106
   23CHL1   H4B 2815   0.318   4.234   7.239  2.4995  1.2241  1.0343
   23CHL1    C5 2816   0.294   4.302   7.036  0.3387  0.7500  0.0371
   23CHL1    C6 2817   0.326   4.187   6.982 -0.0668  0.8154 -0.2314
   23CHL1    H6 2818   0.356   4.114   7.058  0.3409  1.9447  0.7203
   23CHL1    C7 2819   0.327   4.146   6.839  0.1431 -0.2867 -0.2567
   23CHL1   H7A 2820   0.417   4.088   6.810 -0.9494 -1.8516 -0.5891
   23CHL1   H7B 2821   0.234   4.091   6.816  0.6495 -1.7765  1.0780
   23CHL1    C8 2822   0.331   4.276   6.751 -0.2694 -0.0977  0.6805
   23CHL1    H8 2823   0.435   4.316   6.758  0.1054 -0.3859 -2.0744
   23CHL1   C14 2824   0.295   4.234   6.607  0.1302 -0.8712 -0.0610
   23CHL1   H14 2825   0.187   4.208   6.608  0.5287 -2.6974 -1.1721
   23CHL1   C15 2826   0.365   4.113   6.550 -0.7688 -0.6295  0.4284
   23CHL1  H15A 2827   0.474   4.133   6.557 -1.0333  1.1649 -0.0003
   23CHL1  H15B 2828   0.333   4.014   6.586  0.0520 -0.4838  1.6252
   23CHL1   C16 2829   0.329   4.118   6.405 -0.6388  0.4125 -0.0358
   23CHL1  H16A 2830   0.420   4.106   6.343 -1.7062  0.2398 -1.6517
   23CHL1  H16B 2831   0.265   4.028   6.387 -2.2999  1.0546  2.2067
   23CHL1   C17 2832   0.260   4.260   6.384  0.2031  0.0213 -0.1796
   23CHL1   H17 2833   0.152   4.241   6.404  0.1255 -0.8280 -1.2383
   23CHL1   C13 2834   0.293   4.347   6.505  0.5513 -0.3675  0.0132
   23CHL1   C18 2835   0.428   4.411   6.472  0.4488 -0.1414  0.3380
   23CHL1  H18A 2836   0.418   4.478   6.383 -0.9717 -0.0976  0.5045
   23CHL1  H18B 2837   0.481   4.462   6.555  2.1340 -0.5924 -0.4197
   23CHL1  H18C 2838   0.503   4.338   6.435  0.0186 -0.2634 -0.3158
   23CHL1   C12 2839   0.185   4.438   6.552  0.4613 -0.7165  0.8547
   23CHL1  H12A 2840   0.178   4.523   6.482  1.3092 -0.5489  0.9637
   23CHL1  H12B 2841   0.087   4.385   6.552  0.3713 -0.6125 -0.9561
   23CHL1   C11 2842   0.224   4.494   6.698 -0.3100 -0.4524  0.3288
   23CHL1  H11A 2843   0.320   4.544   6.676 -1.1240  1.1905  0.3521
   23CHL1  H11B 2844   0.153   4.573   6.733  0.5289 -0.1378  1.3645
   23CHL1    C9 2845   0.232   4.375   6.799  0.3399 -0.4004 -0.4007
   23CHL1    H9 2846   0.132   4.326   6.800 -0.9364  2.0253  0.8072
   23CHL1   C10 2847   0.249   4.423   6.947 -0.0466  0.5092 -0.3795
   23CHL1   C19 2848   0.360   4.526   6.940 -0.3967 -0.5785 -1.2062
   23CHL1  H19A 2849   0.409   4.549   7.038  1.3424 -0.4179 -2.0644
   23CHL1  H19B 2850   0.447   4.482   6.887  3.3639 -0.0545  3.7631
   23CHL1  H19C 2851   0.328   4.621   6.893 -1.2283 -0.2428 -0.0187
   23CHL1    C1 2852   0.122   4.486   7.004  0.6459 -0.0775 -0.2148
   23CHL1   H1A 2853   0.108   4.578   6.944  1.0611  0.3633  0.3549
   23CHL1   H1B 2854   0.034   4.423   6.979  0.6049 -0.4925  0.9208
   23CHL1    C2 2855   0.140   4.517   7.153  0.1638  0.2588 -0.0700
   23CHL1   H2A 2856   0.050   4.572   7.187 -0.2956 -0.4730 -0.0987
   23CHL1   H2B 2857   0.219   4.593   7.175 -1.0221  0.7149  3.3476
   23CHL1   C20 2858   0.274   4.315   6.241 -0.2843  1.1633 -0.0780
   23CHL1   H20 2859   0.381   4.341   6.231 -0.0810  0.6500  0.6594
   23CHL1   C21 2860   0.187   4.444   6.230  0.5068 -0.3447  0.2748
   23CHL1  H21A 2861   0.193   4.477   6.124 -1.0430  0.4178  0.3966
   23CHL1  H21B 2862   0.227   4.522   6.298  2.2748 -1.1077  0.1473
   23CHL1  H21C 2863   0.085   4.408   6.257  0.0801 -0.7216 -1.6580
   23CHL1   C22 2864   0.237   4.209   6.136  0.9010 -0.0399  0.3064
   23CHL1  H22A 2865   0.279   4.108   6.153  1.3920  0.1462  0.2385
   23CHL1  H22B 2866   0.127   4.201   6.130  0.8338 -0.5314  1.9393
   23CHL1   C23 2867   0.289   4.246   5.991 -0.0850 -0.3912 -0.2011
   23CHL1  H23A 2868   0.249   4.345   5.960 -0.2703 -0.7785 -1.2338
   23CHL1  H23B 2869   0.400   4.255   5.999 -0.0825  0.4305 -0.9861
   23CHL1   C24 2870   0.266   4.140   5.883 -0.4148  0.1276  0.1876
   23CHL1  H24A 2871   0.299   4.174   5.783  0.5180 -0.5030  0.2715
   23CHL1  H24B 2872   0.328   4.054   5.915  1.7290  1.7553  0.6851
   23CHL1   C25 2873   0.127   4.075   5.866  0.3696 -0.0452  0.4210
   23CHL1   H25 2874   0.104   4.015   5.957 -3.2362 -0.0967 -0.3871
   23CHL1   C26 2875   0.019   4.177   5.826 -0.0947  0.0039 -0.4431
   23CHL1  H26A 2876  -0.067   4.132   5.771  1.2773 -1.1039 -1.7338
   23CHL1  H26B 2877  -0.012   4.220   5.924  0.2714  2.1271 -1.2068
   23CHL1  H26C 2878   0.064   4.253   5.760 -2.2317 -0.4211 -2.5413
   23CHL1   C27 2879   0.124   3.967   5.752  0.4018  0.1719 -0.5413
   23CHL1  H27A 2880   0.188   3.884   5.788 -0.7272  0.4383  2.3966
   23CHL1  H27B 2881   0.019   3.930   5.759  0.7634 -0.6236  1.2370
   23CHL1  H27C 2882   0.160   4.018   5.660 -2.2033  2.6405 -0.3383
   24CHL1    C3 2883   3.414   6.515   6.961  0.4936  0.4145  0.1543
   24CHL1    H3 2884   3.364   6.419   6.988  0.3595  0.5416  0.3721
   24CHL1    O3 2885   3.428   6.587   7.081 -0.1563  0.0602  0.1619
   24CHL1   H3' 2886   3.460   6.671   7.048  1.6215 -0.0773  1.3593
   24CHL1    C4 2887   3.545   6.495   6.886 -0.4114 -0.0858 -0.5981
   24CHL1   H4A 2888   3.597   6.593   6.877  0.4309 -0.5891 -1.4178
   24CHL1   H4B 2889   3.614   6.431   6.945 -1.0142  1.3496  1.7731
   24CHL1    C5 2890   3.536   6.452   6.744 -0.1801  1.0475  0.2584
   24CHL1    C6 2891   3.608   6.342   6.703 -0.5795  0.6503 -0.1054
   24CHL1    H6 2892   3.656   6.291   6.788 -1.0924 -1.0088 -0.7718
   24CHL1    C7 2893   3.612   6.287   6.568  0.3652  0.3987  0.8195
   24CHL1   H7A 2894   3.721   6.284   6.544  0.4780 -0.2276  1.3906
   24CHL1   H7B 2895   3.578   6.183   6.551 -0.7603  0.8211  0.3738
   24CHL1    C8 2896   3.545   6.389   6.468  0.4128  0.2156  1.1892
   24CHL1    H8 2897   3.615   6.475   6.462 -0.7884  1.1951  0.6425
   24CHL1   C14 2898   3.516   6.308   6.335 -0.7765 -0.4665 -0.3218
   24CHL1   H14 2899   3.434   6.240   6.367 -2.1343  1.3145  0.1147
   24CHL1   C15 2900   3.636   6.233   6.276 -0.6077 -0.6248 -0.2157
   24CHL1  H15A 2901   3.726   6.297   6.280 -2.3228  1.9191  0.3889
   24CHL1  H15B 2902   3.643   6.142   6.339 -0.1200 -0.2452  0.2925
   24CHL1   C16 2903   3.593   6.203   6.137  0.5581  0.4149  0.4151
   24CHL1  H16A 2904   3.666   6.251   6.069  1.8234  2.3597  2.9544
   24CHL1  H16B 2905   3.573   6.098   6.107  0.3923  1.0894 -2.0197
   24CHL1   C17 2906   3.459   6.279   6.113 -0.5487  0.7422  0.0443
   24CHL1   H17 2907   3.377   6.207   6.137  1.6751 -2.7115 -1.8003
   24CHL1   C13 2908   3.459   6.388   6.224 -0.1987  0.1217 -0.5842
   24CHL1   C18 2909   3.559   6.505   6.188 -0.5498 -0.1353 -0.6216
   24CHL1  H18A 2910   3.515   6.559   6.101 -0.4644 -2.8511 -2.4909
   24CHL1  H18B 2911   3.579   6.569   6.276  1.5967  0.4979 -1.4970
   24CHL1  H18C 2912   3.659   6.469   6.157 -0.9080 -1.2026 -0.5796
   24CHL1   C12 2913   3.321   6.434   6.279  0.8663 -0.1335 -0.5828
   24CHL1  H12A 2914   3.256   6.485   6.204 -2.5939 -1.6388  1.1643
   24CHL1  H12B 2915   3.263   6.341   6.301  2.8353 -1.2488  0.1225
   24CHL1   C11 2916   3.342   6.517   6.408  0.2703  0.4212 -0.2860
   24CHL1  H11A 2917   3.395   6.609   6.374 -0.7921  0.4300 -2.0284
   24CHL1  H11B 2918   3.241   6.547   6.444 -1.1586 -1.9375 -2.0334
   24CHL1    C9 2919   3.416   6.447   6.523 -0.0326 -1.0453  1.2757
   24CHL1    H9 2920   3.353   6.358   6.546  0.4484 -1.6847  0.1860
   24CHL1   C10 2921   3.434   6.532   6.649  0.3896  0.3785  0.2331
   24CHL1   C19 2922   3.500   6.675   6.614  0.3719 -0.0381  0.2539
   24CHL1  H19A 2923   3.521   6.726   6.711  0.6049 -1.8357  1.1988
   24CHL1  H19B 2924   3.598   6.672   6.562 -0.3100 -0.5402 -1.0311
   24CHL1  H19C 2925   3.433   6.733   6.548 -0.5243 -0.0362  1.1473
   24CHL1    C1 2926   3.303   6.553   6.730  0.3654  0.3625  0.1654
   24CHL1   H1A 2927   3.244   6.628   6.673  2.3924  0.2537 -2.2899
   24CHL1   H1B 2928   3.249   6.457   6.746  0.1533  0.0983 -1.8253
   24CHL1    C2 2929   3.322   6.600   6.875  0.1749  0.1045  0.4100
   24CHL1   H2A 2930   3.224   6.612   6.925 -0.2492 -0.0453 -0.3713
   24CHL1   H2B 2931   3.364   6.701   6.857  1.3756 -0.5673 -0.7378
   24CHL1   C20 2932   3.442   6.311   5.965 -0.1845  0.0883 -0.4069
   24CHL1   H20 2933   3.520   6.381   5.929 -2.0731  2.0829 -0.8685
   24CHL1   C21 2934   3.310   6.386   5.952  0.5794  0.1644  0.1369
   24CHL1  H21A 2935   3.311   6.493   5.982  2.0419  0.1681  0.1395
   24CHL1  H21B 2936   3.235   6.335   6.015  0.6292 -0.2686 -0.1566
   24CHL1  H21C 2937   3.275   6.391   5.847  1.8643 -1.5298 -0.4169
   24CHL1   C22 2938   3.449   6.181   5.882  0.3979 -0.4130  0.6373
   24CHL1  H22A 2939   3.541   6.121   5.895 -0.4515 -2.4322 -1.9834
   24CHL1  H22B 2940   3.370   6.114   5.923  1.1023 -1.7655 -0.1518
   24CHL1   C23 2941   3.447   6.206   5.732 -0.5488  0.5905  0.1756
   24CHL1  H23A 2942   3.424   6.109   5.684 -0.4887  0.8859 -0.4573
   24CHL1  H23B 2943   3.362   6.271   5.703 -1.6323 -1.5781 -1.8282
   24CHL1   C24 2944   3.583   6.262   5.682 -0.3114 -0.0289 -0.2653
   24CHL1  H24A 2945   3.577   6.371   5.701  1.0887  0.1265 -0.6017
   24CHL1  H24B 2946   3.661   6.200   5.731 -2.3755 -3.2167 -0.7119
   24CHL1   C25 2947   3.605   6.235   5.526 -0.1598 -0.1217 -0.2160
   24CHL1   H25 2948   3.584   6.126   5.517 -1.1769  0.1937 -2.5960
   24CHL1   C26 2949   3.515   6.327   5.439  0.0246 -0.0493  0.4543
   24CHL1  H26A 2950   3.527   6.306   5.330 -0.3174 -2.1133  0.7659
   24CHL1  H26B 2951   3.409   6.301   5.462 -0.8547  1.3705 -1.6110
   24CHL1  H26C 2952   3.536   6.432   5.469  0.4964  0.1807 -0.6272
   24CHL1   C27 2953   3.748   6.277   5.482 -0.8294  0.5548  0.0326
   24CHL1  H27A 2954   3.819   6.208   5.531  1.8683  3.2334  0.1627
   24CHL1  H27B 2955   3.773   6.281   5.374 -0.5790  0.7931  0.0987
   24CHL1  H27C 2956   3.786   6.373   5.524  2.8313  0.0285 -1.6958
   25CHL1    C3 2957   4.318   2.798   7.134  1.3839 -0.7810  0.9394
   25CHL1    H3 2958   4.380   2.705   7.130  1.7536 -0.5965  1.9005
   25CHL1    O3 2959   4.307   2.834   7.270 -0.0669  0.1635  0.0846
   25CHL1   H3' 2960   4.257   2.916   7.271 -1.1689 -0.4126 -1.7071
   25CHL1    C4 2961   4.402   2.917   7.072  0.6410  0.6180 -0.7032
   25CHL1   H4A 2962   4.347   3.007   7.104 -0.1497 -0.7922  2.2446
   25CHL1   H4B 2963   4.501   2.919   7.123 -0.4818  0.7430  1.5870
   25CHL1    C5 2964   4.424   2.902   6.922  0.1831  0.3281 -0.1892
   25CHL1    C6 2965   4.545   2.897   6.861  0.0464 -0.4356 -0.0166
   25CHL1    H6 2966   4.636   2.914   6.920 -1.0095  2.3176  1.0057
   25CHL1    C7 2967   4.571   2.873   6.712 -0.5687  0.1649 -0.0131
   25CHL1   H7A 2968   4.655   2.938   6.679 -1.1166  0.6083 -0.5397
   25CHL1   H7B 2969   4.611   2.770   6.699 -0.3414  0.3115 -0.5116
   25CHL1    C8 2970   4.447   2.899   6.626  0.5275  0.3653  0.0305
   25CHL1    H8 2971   4.423   3.008   6.625 -0.3238  0.2372  1.9253
   25CHL1   C14 2972   4.469   2.840   6.486 -1.1586 -0.9658  0.3577
   25CHL1   H14 2973   4.483   2.732   6.510  2.9421 -0.5742  0.4057
   25CHL1   C15 2974   4.585   2.879   6.389 -0.2209  0.1272 -0.1170
   25CHL1  H15A 2975   4.597   2.989   6.382 -1.2156  0.1577 -1.8530
   25CHL1  H15B 2976   4.687   2.838   6.407 -0.8062 -0.9864  0.7723
   25CHL1   C16 2977   4.546   2.838   6.248  0.8670 -1.2263 -0.3640
   25CHL1  H16A 2978   4.535   2.928   6.185  0.0427  0.3674  1.9357
   25CHL1  H16B 2979   4.607   2.760   6.197  1.2701 -1.5263  0.5485
   25CHL1   C17 2980   4.405   2.772   6.270 -0.2016  0.2707  0.0635
   25CHL1   H17 2981   4.425   2.670   6.309 -0.1856  0.0613 -0.4802
   25CHL1   C13 2982   4.338   2.842   6.394 -0.4372 -0.0507 -0.2343
   25CHL1   C18 2983   4.300   2.989   6.358  0.6468  0.4126  0.4367
   25CHL1  H18A 2984   4.207   2.985   6.298  0.6380 -0.6225  0.5125
   25CHL1  H18B 2985   4.270   3.046   6.449 -0.1993  1.4546 -0.4740
   25CHL1  H18C 2986   4.368   3.056   6.301 -0.5908  0.6410 -0.8226
   25CHL1   C12 2987   4.229   2.764   6.460 -0.8397 -0.0480 -0.7292
   25CHL1  H12A 2988   4.129   2.760   6.414 -1.2129 -2.6770  0.1467
   25CHL1  H12B 2989   4.280   2.668   6.483  0.2786  1.2643  3.2329
   25CHL1   C11 2990   4.199   2.822   6.605  0.5166 -0.0019 -0.1486
   25CHL1  H11A 2991   4.152   2.922   6.590  1.3551  0.4669  0.2786
   25CHL1  H11B 2992   4.127   2.751   6.649 -0.4470  0.5708 -0.7522
   25CHL1    C9 2993   4.328   2.831   6.694 -0.2103  0.4753  0.0706
   25CHL1    H9 2994   4.352   2.723   6.698  1.0712  0.7691  1.2084
   25CHL1   C10 2995   4.294   2.872   6.842  0.0615 -0.1878  0.5175
   25CHL1   C19 2996   4.228   3.012   6.835  0.5359  0.1972  0.0457
   25CHL1  H19A 2997   4.119   2.997   6.824 -0.0391  1.0804  3.3890
   25CHL1  H19B 2998   4.247   3.074   6.925  1.6136 -0.1022  0.0436
   25CHL1  H19C 2999   4.275   3.072   6.754  1.6568 -1.8625 -0.9106
   25CHL1    C1 3000   4.206   2.767   6.909  0.1305 -0.2611 -0.3293
   25CHL1   H1A 3001   4.104   2.767   6.866  0.3630  0.8541 -0.9156
   25CHL1   H1B 3002   4.256   2.668   6.899  0.7115 -0.3584  2.5504
   25CHL1    C2 3003   4.189   2.794   7.062  0.7779 -0.2410 -0.3271
   25CHL1   H2A 3004   4.131   2.710   7.107 -0.4362 -0.2836 -1.8862
   25CHL1   H2B 3005   4.123   2.882   7.079  0.5334 -0.7282  1.4672
   25CHL1   C20 3006   4.306   2.769   6.156  0.0331 -0.0032  0.6377
   25CHL1   H20 3007   4.203   2.786   6.195 -0.3696  4.3989 -1.7365
   25CHL1   C21 3008   4.309   2.624   6.094 -0.5101  0.4433 -0.1291
   25CHL1  H21A 3009   4.236   2.615   6.011 -0.6755 -0.5836  0.1153
   25CHL1  H21B 3010   4.296   2.545   6.170 -0.6859 -0.7198 -1.3251
   25CHL1  H21C 3011   4.409   2.601   6.051  0.5783  1.4887  1.6958
   25CHL1   C22 3012   4.324   2.882   6.052  0.0804 -0.3833  0.4575
   25CHL1  H22A 3013   4.326   2.988   6.085 -2.3629 -0.4454  1.0066
   25CHL1  H22B 3014   4.422   2.872   6.000  0.3613  2.2751  0.3189
   25CHL1   C23 3015   4.210   2.892   5.948  0.4157 -0.0041  0.0365
   25CHL1  H23A 3016   4.213   2.800   5.886 -0.0198  1.6597 -2.6095
   25CHL1  H23B 3017   4.111   2.907   5.997 -0.0117  0.2516 -0.8888
   25CHL1   C24 3018   4.232   3.003   5.846  0.2384 -0.4061 -0.1147
   25CHL1  H24A 3019   4.222   3.110   5.876 -3.1931 -1.3176  2.6757
   25CHL1  H24B 3020   4.340   2.989   5.824  0.3002 -0.4315  0.2002
   25CHL1   C25 3021   4.165   2.960   5.715  0.1605  0.3583 -0.5260
   25CHL1   H25 3022   4.204   2.862   5.681  1.0937  1.1378 -1.8153
   25CHL1   C26 3023   4.013   2.948   5.724 -0.6696  0.3877 -0.1467
   25CHL1  H26A 3024   4.002   2.863   5.794  0.7387 -0.9810 -1.4986
   25CHL1  H26B 3025   3.973   3.036   5.778 -1.2956  1.8986 -2.8613
   25CHL1  H26C 3026   3.964   2.918   5.629 -1.2444 -0.8570  0.5210
   25CHL1   C27 3027   4.194   3.058   5.596  0.1930  0.6544  0.4029
   25CHL1  H27A 3028   4.301   3.064   5.565 -0.2006  1.1984 -0.9193
   25CHL1  H27B 3029   4.147   3.015   5.505 -1.2282 -0.3456  1.5651
   25CHL1  H27C 3030   4.159   3.161   5.619 -0.2697  0.6606 -0.2951
   26CHL1    C3 3031   1.920   6.035   6.922  0.0358  0.1209  0.3405
   26CHL1    H3 3032   1.895   5.931   6.894  1.3691 -0.6160  1.7505
   26CHL1    O3 3033   1.972   6.036   7.051 -0.3304  0.7045 -0.7502
   26CHL1   H3' 3034   1.895   6.011   7.103 -0.1744  0.1456 -0.7731
   26CHL1    C4 3035   2.024   6.092   6.819  0.0884 -0.0101 -0.4019
   26CHL1   H4A 3036   2.054   6.184   6.873 -0.4305 -1.8728  3.3892
   26CHL1   H4B 3037   2.107   6.018   6.819  2.9294  2.7998  3.1819
   26CHL1    C5 3038   1.979   6.126   6.682 -0.1167  1.0544 -0.1272
   26CHL1    C6 3039   2.046   6.076   6.569  0.6612  0.0125 -0.1061
   26CHL1    H6 3040   2.137   6.017   6.589  1.4276  0.2396 -2.5944
   26CHL1    C7 3041   2.008   6.082   6.428 -0.1573 -0.6073 -0.0967
   26CHL1   H7A 3042   2.098   6.112   6.370 -0.5917  0.6127 -0.1866
   26CHL1   H7B 3043   1.961   5.988   6.392 -3.2007  0.3911  1.0106
   26CHL1    C8 3044   1.883   6.192   6.418  0.2260  0.9359  0.6434
   26CHL1    H8 3045   1.932   6.292   6.419 -0.4474  1.4140  4.6602
   26CHL1   C14 3046   1.813   6.173   6.289  0.8870  0.0407 -0.8332
   26CHL1   H14 3047   1.768   6.072   6.298  1.4652 -0.2071 -0.6807
   26CHL1   C15 3048   1.901   6.170   6.165 -0.2049  0.5281  0.1852
   26CHL1  H15A 3049   1.990   6.235   6.181  0.6100 -0.6109  0.3362
   26CHL1  H15B 3050   1.942   6.071   6.140 -1.5287  0.7089 -3.2022
   26CHL1   C16 3051   1.821   6.218   6.047 -0.3254  0.4542 -0.0386
   26CHL1  H16A 3052   1.850   6.320   6.014 -0.9818  1.1430  1.4279
   26CHL1  H16B 3053   1.816   6.149   5.960 -3.4662  0.8619 -0.3193
   26CHL1   C17 3054   1.676   6.235   6.107 -0.7038 -0.4013 -0.4249
   26CHL1   H17 3055   1.637   6.131   6.115  0.2522 -1.0243 -2.9168
   26CHL1   C13 3056   1.706   6.272   6.258  0.3229  0.8046 -0.4388
   26CHL1   C18 3057   1.753   6.424   6.265 -0.8425 -0.1533 -0.5511
   26CHL1  H18A 3058   1.840   6.425   6.195 -0.9420  0.1852 -0.6725
   26CHL1  H18B 3059   1.685   6.506   6.234 -0.9020  0.0469  0.1097
   26CHL1  H18C 3060   1.792   6.449   6.366  0.0687  0.3698 -1.0115
   26CHL1   C12 3061   1.593   6.256   6.364 -0.2999  0.4108  0.0645
   26CHL1  H12A 3062   1.517   6.334   6.344  0.5511  2.0566  2.6874
   26CHL1  H12B 3063   1.544   6.158   6.350 -1.6962  0.7676  2.0277
   26CHL1   C11 3064   1.649   6.276   6.511  0.4662 -0.1610  1.2230
   26CHL1  H11A 3065   1.685   6.381   6.522  1.6323 -0.0899 -2.1380
   26CHL1  H11B 3066   1.568   6.254   6.583 -2.3370 -2.1910 -2.2253
   26CHL1    C9 3067   1.781   6.187   6.530 -0.2074  0.5071  0.1854
   26CHL1    H9 3068   1.745   6.082   6.524 -0.6882  0.6658  0.2501
   26CHL1   C10 3069   1.845   6.196   6.672  0.0831 -0.3073 -0.4821
   26CHL1   C19 3070   1.859   6.347   6.699 -0.4426 -0.0961 -0.2009
   26CHL1  H19A 3071   1.759   6.394   6.706  0.5025  1.9464  0.3464
   26CHL1  H19B 3072   1.911   6.357   6.797 -1.0103 -1.1839  0.2259
   26CHL1  H19C 3073   1.921   6.387   6.616 -0.4039 -3.4704 -1.9902
   26CHL1    C1 3074   1.741   6.124   6.769 -0.0278  0.5539 -0.2371
   26CHL1   H1A 3075   1.646   6.181   6.781 -1.2237 -1.6503  1.6709
   26CHL1   H1B 3076   1.705   6.027   6.729  1.8573 -0.6492  0.8584
   26CHL1    C2 3077   1.791   6.103   6.913 -0.2629 -0.1620  0.2410
   26CHL1   H2A 3078   1.711   6.062   6.977  0.5263 -0.7184  0.8891
   26CHL1   H2B 3079   1.817   6.207   6.945  1.3315 -0.1277 -1.0261
   26CHL1   C20 3080   1.584   6.320   6.023  0.0943 -0.1302  0.3276
   26CHL1   H20 3081   1.606   6.424   6.055  0.1688 -0.3061  0.8611
   26CHL1   C21 3082   1.437   6.280   6.034 -0.0485 -0.4908  0.0596
   26CHL1  H21A 3083   1.391   6.298   6.134  0.9721  0.7184  0.3335
   26CHL1  H21B 3084   1.426   6.170   6.021  0.7651 -0.8123  1.8201
   26CHL1  H21C 3085   1.382   6.333   5.954  1.4036 -1.3554 -1.5975
   26CHL1   C22 3086   1.618   6.325   5.871  0.0614 -1.1785  0.4370
   26CHL1  H22A 3087   1.544   6.404   5.846  0.0786 -1.0017  0.9242
   26CHL1  H22B 3088   1.719   6.370   5.861 -0.7607  0.7252  0.1925
   26CHL1   C23 3089   1.608   6.200   5.791  0.5908 -0.7487 -0.2875
   26CHL1  H23A 3090   1.685   6.127   5.824  1.4291 -1.3808 -3.3629
   26CHL1  H23B 3091   1.516   6.140   5.809  0.1752  0.4639  1.9842
   26CHL1   C24 3092   1.618   6.223   5.640 -1.3892 -0.2321 -0.2220
   26CHL1  H24A 3093   1.542   6.291   5.594 -0.9658  0.2647 -0.2026
   26CHL1  H24B 3094   1.717   6.274   5.632 -2.0358  0.9643 -0.9252
   26CHL1   C25 3095   1.632   6.087   5.561 -0.3417  0.0810  0.3544
   26CHL1   H25 3096   1.690   6.019   5.626 -0.7395 -2.4981 -1.8066
   26CHL1   C26 3097   1.500   6.033   5.542 -0.2547 -0.6268 -0.6318
   26CHL1  H26A 3098   1.482   5.994   5.644 -0.1127  0.0073 -0.3573
   26CHL1  H26B 3099   1.429   6.117   5.528 -0.3869 -0.0807  2.5402
   26CHL1  H26C 3100   1.492   5.947   5.472  3.4968 -0.4559 -1.4699
   26CHL1   C27 3101   1.709   6.108   5.430  0.1144  0.1642 -0.2629
   26CHL1  H27A 3102   1.710   6.204   5.374  0.0419 -0.7069 -1.8321
   26CHL1  H27B 3103   1.815   6.078   5.444 -0.0710 -0.1620  0.4642
   26CHL1  H27C 3104   1.676   6.032   5.355  0.1204  2.0924 -2.3277
   27CHL1    C3 3105   6.483   4.244   7.152 -0.4944  0.4967  0.1532
   27CHL1    H3 3106   6.495   4.353   7.139  2.2238  0.0865 -1.5926
   27CHL1    O3 3107   6.528   4.211   7.279  0.2503 -0.4388  0.4167
   27CHL1   H3' 3108   6.495   4.122   7.294  1.4038 -0.9425  0.0504
   27CHL1    C4 3109   6.336   4.232   7.117  0.0174  0.3906 -0.4256
   27CHL1   H4A 3110   6.310   4.126   7.135  0.0630  0.0629 -2.1614
   27CHL1   H4B 3111   6.285   4.305   7.183  0.2649  0.7664 -0.6469
   27CHL1    C5 3112   6.307   4.262   6.971 -0.2976  0.1017 -0.1587
   27CHL1    C6 3113   6.231   4.368   6.936  0.0487  0.0676  0.7133
   27CHL1    H6 3114   6.185   4.420   7.021 -1.3688 -0.8765  0.5529
   27CHL1    C7 3115   6.188   4.401   6.799  0.1045  0.4976  0.7480
   27CHL1   H7A 3116   6.078   4.401   6.787  0.2947 -0.1943 -1.3019
   27CHL1   H7B 3117   6.225   4.503   6.774  5.0158 -0.9156  1.1589
   27CHL1    C8 3118   6.232   4.303   6.692 -0.3211 -0.0275 -0.2963
   27CHL1    H8 3119   6.171   4.211   6.702 -0.4383 -0.1689 -1.9856
   27CHL1   C14 3120   6.222   4.368   6.552 -0.1606 -0.0401 -0.2303
   27CHL1   H14 3121   6.290   4.456   6.555 -1.3031  0.8502  0.6583
   27CHL1   C15 3122   6.094   4.445   6.506 -0.0475 -0.1090 -0.2009
   27CHL1  H15A 3123   6.009   4.381   6.537  0.7719 -1.7896 -1.2369
   27CHL1  H15B 3124   6.095   4.537   6.569 -0.2238 -1.6069  2.1049
   27CHL1   C16 3125   6.111   4.453   6.358 -0.3360  0.3924  0.4820
   27CHL1  H16A 3126   6.039   4.387   6.305  0.3940  1.5791 -2.2198
   27CHL1  H16B 3127   6.108   4.557   6.317 -2.1169  0.1568 -0.0821
   27CHL1   C17 3128   6.251   4.391   6.317  0.3310  0.7102 -0.2059
   27CHL1   H17 3129   6.327   4.471   6.328 -1.3352  2.2778  0.6236
   27CHL1   C13 3130   6.270   4.288   6.435 -0.8962 -0.3500  0.0616
   27CHL1   C18 3131   6.172   4.170   6.418 -0.1714  0.6198  0.2230
   27CHL1  H18A 3132   6.196   4.096   6.339  1.1400 -0.5843  1.6888
   27CHL1  H18B 3133   6.190   4.111   6.510  2.2249 -1.1913 -1.3039
   27CHL1  H18C 3134   6.066   4.202   6.427 -0.6831 -1.3903  2.2082
   27CHL1   C12 3135   6.416   4.245   6.464  0.3793 -0.4567 -0.0528
   27CHL1  H12A 3136   6.452   4.188   6.376  1.4860 -2.0865  1.4002
   27CHL1  H12B 3137   6.479   4.336   6.458 -2.7365  1.9336  0.4990
   27CHL1   C11 3138   6.433   4.177   6.604 -0.6866  0.1047  0.0522
   27CHL1  H11A 3139   6.391   4.075   6.603 -0.1989 -0.1500  1.9197
   27CHL1  H11B 3140   6.542   4.164   6.622 -0.6210  0.3410 -0.1766
   27CHL1    C9 3141   6.376   4.264   6.721  0.4296  1.3145 -0.7825
   27CHL1    H9 3142   6.434   4.359   6.726 -0.8199  2.0679 -0.0492
   27CHL1   C10 3143   6.389   4.190   6.860 -0.3061  0.2904 -0.0956
   27CHL1   C19 3144   6.323   4.050   6.862 -0.2421 -0.1005  0.2977
   27CHL1  H19A 3145   6.397   3.991   6.803  0.5143  0.4939  0.6386
   27CHL1  H19B 3146   6.323   4.013   6.967  0.6960  1.9091  1.0476
   27CHL1  H19C 3147   6.224   4.050   6.811  0.8472 -1.9460 -2.0129
   27CHL1    C1 3148   6.534   4.191   6.900  0.2246  0.7204  0.6440
   27CHL1   H1A 3149   6.590   4.112   6.846 -0.7353  0.8210 -0.5491
   27CHL1   H1B 3150   6.586   4.285   6.873  2.0490 -0.7106 -1.1083
   27CHL1    C2 3151   6.567   4.167   7.047  0.2723  0.9270 -0.3717
   27CHL1   H2A 3152   6.674   4.173   7.075  0.2118 -2.2548  0.8305
   27CHL1   H2B 3153   6.541   4.060   7.060  0.5175  0.6184 -2.0794
   27CHL1   C20 3154   6.234   4.332   6.171  0.3852  0.7215 -0.1600
   27CHL1   H20 3155   6.152   4.257   6.168  0.4092  0.5099  2.3666
   27CHL1   C21 3156   6.373   4.262   6.130 -0.4197  0.0902  0.6799
   27CHL1  H21A 3157   6.457   4.335   6.138 -1.2888  1.2428 -0.4302
   27CHL1  H21B 3158   6.364   4.241   6.021  2.4942  2.4367 -0.1615
   27CHL1  H21C 3159   6.398   4.165   6.178  0.5950 -0.6840 -1.2802
   27CHL1   C22 3160   6.185   4.445   6.073 -0.2448 -0.0496  0.4823
   27CHL1  H22A 3161   6.126   4.524   6.124  1.4767  0.3062  2.0412
   27CHL1  H22B 3162   6.278   4.491   6.035  0.6798 -1.2949  1.1680
   27CHL1   C23 3163   6.103   4.382   5.956 -0.9167 -0.2479 -0.1582
   27CHL1  H23A 3164   6.168   4.316   5.893  2.4718  0.8994  1.8464
   27CHL1  H23B 3165   6.025   4.319   6.003  1.2000 -0.7125  3.0327
   27CHL1   C24 3166   6.051   4.497   5.863 -0.1330  0.6366  0.0681
   27CHL1  H24A 3167   6.008   4.575   5.930 -1.6835 -0.9786  1.0204
   27CHL1  H24B 3168   6.132   4.533   5.795 -0.6410 -1.6301 -1.8505
   27CHL1   C25 3169   5.948   4.445   5.762 -0.2537  0.4533  1.1197
   27CHL1   H25 3170   5.986   4.348   5.723 -2.5243  0.1143 -0.3948
   27CHL1   C26 3171   5.809   4.417   5.826  0.1461  0.6013  0.0180
   27CHL1  H26A 3172   5.721   4.385   5.767 -0.7290  1.1357  1.0024
   27CHL1  H26B 3173   5.834   4.342   5.905  1.3759  0.5877 -0.3710
   27CHL1  H26C 3174   5.787   4.514   5.876  0.0141  0.7380 -0.3050
   27CHL1   C27 3175   5.934   4.544   5.647  0.6790 -0.2950  0.0172
   27CHL1  H27A 3176   5.888   4.642   5.670  2.3829  0.6121 -0.2813
   27CHL1  H27B 3177   5.873   4.494   5.568  1.3607  0.0414 -0.7306
   27CHL1  H27C 3178   6.032   4.560   5.597  0.9718 -3.6262 -0.7618
   28CHL1    C3 3179   4.138   4.681   7.206  0.2736 -0.2947 -0.0121
   28CHL1    H3 3180   4.081   4.588   7.183 -1.5419  0.8451 -0.2988
   28CHL1    O3 3181   4.123   4.712   7.345 -0.1112 -0.2156  0.4608
   28CHL1   H3' 3182   4.190   4.779   7.360 -1.1614  1.0204 -0.2145
   28CHL1    C4 3183   4.283   4.653   7.175 -0.5796  0.2024  0.4088
   28CHL1   H4A 3184   4.344   4.743   7.201  1.0115 -1.2118  1.7973
   28CHL1   H4B 3185   4.315   4.568   7.238 -1.0162 -2.5385 -2.7558
   28CHL1    C5 3186   4.301   4.621   7.029  0.3489 -0.3354 -0.1773
   28CHL1    C6 3187   4.355   4.509   6.991  0.1529  0.1962 -0.3701
   28CHL1    H6 3188   4.394   4.450   7.075  1.3737  0.0588 -1.0180
   28CHL1    C7 3189   4.386   4.462   6.851  0.1952  0.0742 -0.8051
   28CHL1   H7A 3190   4.493   4.435   6.839  0.0865 -0.4448 -0.6329
   28CHL1   H7B 3191   4.331   4.369   6.823 -2.3772  1.4830 -0.6706
   28CHL1    C8 3192   4.364   4.576   6.746  0.5493  0.1502 -0.5203
   28CHL1    H8 3193   4.443   4.654   6.754  0.9977 -0.4347  1.6518
   28CHL1   C14 3194   4.352   4.518   6.606  0.4465  0.0936 -0.2927
   28CHL1   H14 3195   4.259   4.457   6.605  1.9521 -2.3302 -0.5257
   28CHL1   C15 3196   4.461   4.418   6.558 -0.2762  0.2449 -0.1390
   28CHL1  H15A 3197   4.567   4.447   6.575 -0.4294  0.8067 -0.1404
   28CHL1  H15B 3198   4.439   4.323   6.610 -0.3771  0.0536 -0.5238
   28CHL1   C16 3199   4.439   4.421   6.406 -0.6263  0.9540  0.3841
   28CHL1  H16A 3200   4.533   4.429   6.349  0.2930  0.6269  1.7897
   28CHL1  H16B 3201   4.389   4.328   6.372 -0.0323  1.7801 -3.0931
   28CHL1   C17 3202   4.342   4.533   6.377 -0.0869 -0.1080 -0.4536
   28CHL1   H17 3203   4.239   4.492   6.370  0.0077 -0.1705 -1.6595
   28CHL1   C13 3204   4.339   4.627   6.503  0.0983  0.4365 -0.7677
   28CHL1   C18 3205   4.459   4.724   6.491 -0.3448  0.3204  0.4073
   28CHL1  H18A 3206   4.463   4.790   6.580 -1.0613 -0.9357  1.3960
   28CHL1  H18B 3207   4.557   4.672   6.489 -0.4886  0.0085  1.0854
   28CHL1  H18C 3208   4.445   4.791   6.403  0.5066  1.5399  1.1710
   28CHL1   C12 3209   4.202   4.706   6.530  0.4280  0.1717  0.0341
   28CHL1  H12A 3210   4.193   4.797   6.466  0.4999  0.5197  0.5159
   28CHL1  H12B 3211   4.111   4.644   6.518  1.4674 -1.1010 -1.8984
   28CHL1   C11 3212   4.209   4.768   6.674 -0.2141 -0.1018 -0.1373
   28CHL1  H11A 3213   4.292   4.842   6.673 -0.7571  0.5009 -0.4548
   28CHL1  H11B 3214   4.116   4.822   6.701  0.6486  1.0675  0.5878
   28CHL1    C9 3215   4.239   4.659   6.780 -0.3210 -0.5135 -0.2925
   28CHL1    H9 3216   4.155   4.587   6.787  0.5867 -1.4954  1.0999
   28CHL1   C10 3217   4.242   4.719   6.928  0.2986  0.8355  0.2736
   28CHL1   C19 3218   4.326   4.856   6.936  0.5011  0.0960 -0.1956
   28CHL1  H19A 3219   4.433   4.830   6.919  0.7737 -0.0169  1.5621
   28CHL1  H19B 3220   4.289   4.935   6.867  0.2669 -1.3485 -1.8048
   28CHL1  H19C 3221   4.321   4.905   7.035 -0.9119  0.2821 -0.3404
   28CHL1    C1 3222   4.096   4.755   6.972  0.0784  0.1346 -0.6558
   28CHL1   H1A 3223   4.063   4.841   6.909  1.4140  0.3253 -1.1260
   28CHL1   H1B 3224   4.035   4.664   6.951 -1.0559 -0.2479  3.4548
   28CHL1    C2 3225   4.076   4.790   7.123  0.0037  0.0958  0.3832
   28CHL1   H2A 3226   3.970   4.807   7.152 -0.2411  0.6149 -0.7558
   28CHL1   H2B 3227   4.126   4.887   7.142  1.3247 -0.0768 -1.8595
   28CHL1   C20 3228   4.370   4.592   6.241 -0.6199 -0.2727  0.5083
   28CHL1   H20 3229   4.462   4.652   6.254 -0.2224 -1.3578  3.2606
   28CHL1   C21 3230   4.264   4.693   6.197  0.4741  0.1594 -0.3257
   28CHL1  H21A 3231   4.286   4.747   6.103  3.3978 -1.7653 -0.8491
   28CHL1  H21B 3232   4.270   4.780   6.267  0.0393  0.6360 -0.8687
   28CHL1  H21C 3233   4.160   4.654   6.206  0.1801  1.1248  0.8320
   28CHL1   C22 3234   4.392   4.488   6.121 -0.2582 -0.0441  0.1206
   28CHL1  H22A 3235   4.472   4.414   6.141 -0.9121 -0.9839 -0.6402
   28CHL1  H22B 3236   4.299   4.428   6.114  0.2432 -0.9054  0.6945
   28CHL1   C23 3237   4.428   4.561   5.984  0.1806 -0.2254 -0.2277
   28CHL1  H23A 3238   4.344   4.629   5.956 -1.0669 -1.0796  1.3282
   28CHL1  H23B 3239   4.518   4.621   6.013  0.4640 -0.8606  0.2277
   28CHL1   C24 3240   4.462   4.466   5.880 -0.1353  0.5428  0.0569
   28CHL1  H24A 3241   4.555   4.408   5.899 -0.5856 -0.9071 -1.8986
   28CHL1  H24B 3242   4.388   4.390   5.849  0.2084  0.2841 -0.1394
   28CHL1   C25 3243   4.507   4.537   5.746  0.4956  0.2863  0.4424
   28CHL1   H25 3244   4.425   4.609   5.725 -0.1959  0.1700  2.5413
   28CHL1   C26 3245   4.637   4.613   5.770 -0.2220 -0.0192  0.5337
   28CHL1  H26A 3246   4.638   4.684   5.856  2.8693 -0.0036  0.6085
   28CHL1  H26B 3247   4.713   4.537   5.800  0.4559  0.5811  0.3886
   28CHL1  H26C 3248   4.658   4.665   5.674 -0.8191 -1.5353 -0.4398
   28CHL1   C27 3249   4.523   4.447   5.624 -0.1625 -0.6657 -0.1567
   28CHL1  H27A 3250   4.600   4.369   5.641  0.9126  0.4349  0.1368
   28CHL1  H27B 3251   4.426   4.396   5.604 -1.2187  1.0295  0.4122
   28CHL1  H27C 3252   4.552   4.502   5.532 -0.8899 -1.5461 -0.9386
   29CHL1    C3 3253   6.345   6.154   7.100 -0.7695 -0.0820  0.4356
   29CHL1    H3 3254   6.300   6.057   7.071  0.5776 -0.5954 -0.0181
   29CHL1    O3 3255   6.323   6.169   7.238  0.1057  0.3469  0.7343
   29CHL1   H3' 3256   6.413   6.169   7.272  0.4313 -1.3424 -0.0262
   29CHL1    C4 3257   6.505   6.156   7.071  0.3594  0.8071  0.3413
   29CHL1   H4A 3258   6.556   6.251   7.097  1.8309  0.0833  0.1941
   29CHL1   H4B 3259   6.552   6.078   7.136 -0.6359  0.2081  0.3549
   29CHL1    C5 3260   6.531   6.129   6.920  0.3147 -0.6423 -0.0853
   29CHL1    C6 3261   6.602   6.023   6.872 -0.1491  0.2484  0.0496
   29CHL1    H6 3262   6.649   5.946   6.935 -0.1647 -1.0611 -1.4998
   29CHL1    C7 3263   6.630   5.999   6.725 -0.0820  0.3014  0.9834
   29CHL1   H7A 3264   6.730   5.959   6.700  0.4514  2.3067 -0.2811
   29CHL1   H7B 3265   6.554   5.930   6.681  0.4517  1.2133 -1.5221
   29CHL1    C8 3266   6.616   6.126   6.643  0.6777 -0.1765 -0.4629
   29CHL1    H8 3267   6.692   6.204   6.664 -0.2043  0.7388 -0.6066
   29CHL1   C14 3268   6.618   6.094   6.493  0.1261 -0.0537  0.4673
   29CHL1   H14 3269   6.529   6.028   6.484 -0.1216  0.1306  1.3998
   29CHL1   C15 3270   6.740   6.022   6.437 -0.0299 -0.8335 -0.4226
   29CHL1  H15A 3271   6.836   6.056   6.483  0.0918 -1.1389 -0.4478
   29CHL1  H15B 3272   6.734   5.919   6.477  1.3189 -0.0303  2.0881
   29CHL1   C16 3273   6.728   6.039   6.288  0.0905 -0.1833  0.3971
   29CHL1  H16A 3274   6.808   6.094   6.235  0.2172 -1.2394 -0.5575
   29CHL1  H16B 3275   6.706   5.942   6.238 -2.4672  0.9887 -0.9351
   29CHL1   C17 3276   6.606   6.136   6.266  1.0595 -0.2594 -0.4083
   29CHL1   H17 3277   6.519   6.066   6.267  2.1747 -1.6931  1.3808
   29CHL1   C13 3278   6.589   6.210   6.403 -0.3315  0.6218  0.3532
   29CHL1   C18 3279   6.691   6.323   6.411 -0.6318 -0.1138 -0.3712
   29CHL1  H18A 3280   6.660   6.407   6.346  0.6552 -0.4886 -1.5172
   29CHL1  H18B 3281   6.702   6.356   6.516 -2.5727 -1.6870  0.3875
   29CHL1  H18C 3282   6.790   6.280   6.382 -0.6555 -0.4174 -0.0092
   29CHL1   C12 3283   6.445   6.264   6.438  0.3955 -0.2404 -0.0510
   29CHL1  H12A 3284   6.419   6.342   6.363 -0.0105  0.0257  0.3606
   29CHL1  H12B 3285   6.372   6.185   6.409  1.1335 -0.6007 -0.9721
   29CHL1   C11 3286   6.442   6.317   6.585  0.0841 -0.2748  0.2601
   29CHL1  H11A 3287   6.524   6.392   6.589  0.2609 -0.4529  0.0116
   29CHL1  H11B 3288   6.345   6.364   6.611  0.1599 -0.0483  0.1288
   29CHL1    C9 3289   6.479   6.200   6.681 -0.8265  0.5643  0.3975
   29CHL1    H9 3290   6.408   6.119   6.655  1.2306 -0.1598 -3.8867
   29CHL1   C10 3291   6.467   6.234   6.832  0.9023  0.3358  0.5073
   29CHL1   C19 3292   6.531   6.363   6.851 -0.6844  0.2487 -0.4823
   29CHL1  H19A 3293   6.467   6.444   6.810  0.1756  0.6936 -0.9762
   29CHL1  H19B 3294   6.541   6.385   6.959  1.0505 -2.5731  0.0411
   29CHL1  H19C 3295   6.629   6.378   6.800  0.2838 -0.6047  1.0557
   29CHL1    C1 3296   6.316   6.241   6.870  0.1774 -0.2711 -0.2275
   29CHL1   H1A 3297   6.269   6.328   6.819 -0.0700 -1.0885 -1.4372
   29CHL1   H1B 3298   6.261   6.148   6.843 -0.8939 -0.4621  2.2903
   29CHL1    C2 3299   6.293   6.267   7.016  0.6281  0.5225  0.4545
   29CHL1   H2A 3300   6.184   6.266   7.037  0.2417  0.5250 -1.4455
   29CHL1   H2B 3301   6.338   6.364   7.047  0.0324  0.1266  2.7722
   29CHL1   C20 3302   6.607   6.202   6.130 -0.1037  0.1056  0.3255
   29CHL1   H20 3303   6.699   6.263   6.140  1.1407 -1.3844 -1.4653
   29CHL1   C21 3304   6.480   6.295   6.090  1.3681  0.3822  0.1585
   29CHL1  H21A 3305   6.494   6.345   5.991  0.1073  0.5977  0.0744
   29CHL1  H21B 3306   6.468   6.370   6.171 -2.9879 -0.6872  0.7774
   29CHL1  H21C 3307   6.387   6.234   6.086  2.4165 -1.3318  0.7503
   29CHL1   C22 3308   6.634   6.114   6.007 -0.5566  0.7750 -0.6101
   29CHL1  H22A 3309   6.726   6.061   6.040  0.5239  2.4440 -0.8317
   29CHL1  H22B 3310   6.547   6.046   6.001 -0.1654  0.0340  1.3645
   29CHL1   C23 3311   6.658   6.186   5.867 -1.0724  0.6409  0.5841
   29CHL1  H23A 3312   6.560   6.220   5.827 -0.1075  2.1711 -0.5933
   29CHL1  H23B 3313   6.723   6.275   5.881 -0.1101 -0.0820  0.7585
   29CHL1   C24 3314   6.730   6.083   5.774  1.3718 -0.3531 -0.2849
   29CHL1  H24A 3315   6.824   6.052   5.823  1.6293  1.4139  0.3912
   29CHL1  H24B 3316   6.661   5.997   5.763 -0.2054  0.9142 -0.7383
   29CHL1   C25 3317   6.759   6.142   5.634 -0.0379  0.8836 -0.1807
   29CHL1   H25 3318   6.831   6.224   5.654 -1.2926  1.9048  0.3024
   29CHL1   C26 3319   6.825   6.033   5.548 -0.1088  0.4389  0.4297
   29CHL1  H26A 3320   6.758   5.947   5.531 -1.9673  2.3140 -2.8696
   29CHL1  H26B 3321   6.852   6.083   5.452  0.4292  0.4342  0.5731
   29CHL1  H26C 3322   6.916   6.008   5.606  0.4489  1.5624  0.0821
   29CHL1   C27 3323   6.644   6.205   5.563 -0.7036  0.3698 -0.5215
   29CHL1  H27A 3324   6.702   6.261   5.487  0.9315 -1.2703 -0.5522
   29CHL1  H27B 3325   6.575   6.126   5.525 -1.6208  0.3575  1.0866
   29CHL1  H27C 3326   6.591   6.285   5.619  1.1804  1.4799 -0.2293
   30CHL1    C3 3327   2.311   0.278   6.750  0.0590  1.6492  0.0412
   30CHL1    H3 3328   2.261   0.179   6.758 -0.1425  1.5468 -2.0138
   30CHL1    O3 3329   2.292   0.317   6.883  0.2291  0.5703  0.4353
   30CHL1   H3' 3330   2.336   0.245   6.929 -0.7142 -1.7165 -1.9669
   30CHL1    C4 3331   2.458   0.263   6.718  0.6486 -0.1715 -0.3230
   30CHL1   H4A 3332   2.515   0.358   6.725  0.1002  0.1435 -0.0495
   30CHL1   H4B 3333   2.494   0.185   6.787 -0.6853 -1.1683 -0.7136
   30CHL1    C5 3334   2.470   0.213   6.578 -1.1894  1.0459  0.6151
   30CHL1    C6 3335   2.533   0.094   6.553  0.5668 -0.5837  0.2832
   30CHL1    H6 3336   2.580   0.033   6.632  1.7048 -1.7842 -1.2404
   30CHL1    C7 3337   2.552   0.051   6.414  0.4624  0.3436 -0.7133
   30CHL1   H7A 3338   2.659   0.023   6.405  0.5776 -0.1729  1.7676
   30CHL1   H7B 3339   2.479  -0.032   6.406 -0.3130  1.0497 -1.1415
   30CHL1    C8 3340   2.523   0.147   6.296  0.3425  0.7462  0.2526
   30CHL1    H8 3341   2.610   0.216   6.289  0.2570  0.9157  0.8142
   30CHL1   C14 3342   2.516   0.074   6.156  0.6728 -0.3727  0.4146
   30CHL1   H14 3343   2.428   0.008   6.166 -0.6668  1.3430  0.2750
   30CHL1   C15 3344   2.626  -0.021   6.113 -0.1690  0.6756 -0.0517
   30CHL1  H15A 3345   2.726   0.026   6.129 -0.0133  0.9103 -1.5410
   30CHL1  H15B 3346   2.624  -0.118   6.168  1.1616  0.0067 -1.1043
   30CHL1   C16 3347   2.599  -0.040   5.960 -0.5199 -0.3452 -0.3817
   30CHL1  H16A 3348   2.695  -0.024   5.906  0.6899 -0.6529  1.5716
   30CHL1  H16B 3349   2.570  -0.145   5.943 -2.6510 -0.2384  1.9897
   30CHL1   C17 3350   2.499   0.073   5.915 -0.0479  0.3803 -0.4744
   30CHL1   H17 3351   2.396   0.031   5.909  0.5977 -1.7052  1.7468
   30CHL1   C13 3352   2.495   0.175   6.038 -0.5130 -0.1113  0.6213
   30CHL1   C18 3353   2.619   0.275   6.030  0.8345  0.0029 -0.7736
   30CHL1  H18A 3354   2.702   0.207   6.000  0.5107 -0.3488 -0.8776
   30CHL1  H18B 3355   2.605   0.354   5.953 -0.8902 -0.1230 -0.6289
   30CHL1  H18C 3356   2.632   0.330   6.126 -1.7817  1.8535 -1.3572
   30CHL1   C12 3357   2.357   0.235   6.070  0.6512 -0.4074  0.2347
   30CHL1  H12A 3358   2.320   0.298   5.985  0.4127  2.4280  2.2887
   30CHL1  H12B 3359   2.284   0.153   6.085  0.3759 -0.3434 -0.6943
   30CHL1   C11 3360   2.363   0.309   6.204  0.7887 -0.3504 -0.0086
   30CHL1  H11A 3361   2.433   0.395   6.201 -3.4358  3.5013  1.0328
   30CHL1  H11B 3362   2.268   0.359   6.228  1.4685  0.4486  1.1047
   30CHL1    C9 3363   2.396   0.222   6.325 -0.2738  0.6103 -0.7855
   30CHL1    H9 3364   2.318   0.145   6.345 -1.1614  2.1561  2.3872
   30CHL1   C10 3365   2.399   0.300   6.465 -0.0076 -1.1761 -0.1295
   30CHL1   C19 3366   2.483   0.430   6.452 -0.3481  0.7486  0.1756
   30CHL1  H19A 3367   2.590   0.408   6.431 -0.1837  1.6857 -0.0073
   30CHL1  H19B 3368   2.444   0.501   6.376 -0.8210  0.3912  0.0734
   30CHL1  H19C 3369   2.473   0.482   6.550 -1.0706 -0.3545  0.7225
   30CHL1    C1 3370   2.257   0.340   6.510 -0.2832  0.1145  0.5186
   30CHL1   H1A 3371   2.230   0.426   6.445  3.0989  0.9219 -0.0103
   30CHL1   H1B 3372   2.205   0.244   6.491 -1.0711  0.9121 -1.6487
   30CHL1    C2 3373   2.237   0.379   6.658 -0.0206  0.5744  0.5559
   30CHL1   H2A 3374   2.126   0.379   6.666 -0.2488 -1.8997 -1.3421
   30CHL1   H2B 3375   2.281   0.480   6.672  1.6790 -0.3852  2.9718
   30CHL1   C20 3376   2.526   0.123   5.770  0.6845 -1.0301  0.0528
   30CHL1   H20 3377   2.620   0.181   5.770 -0.1294  0.3624  1.3358
   30CHL1   C21 3378   2.421   0.233   5.744  0.3751 -0.8333  0.0096
   30CHL1  H21A 3379   2.423   0.258   5.635 -0.7903  0.3393  0.2346
   30CHL1  H21B 3380   2.436   0.320   5.812  0.3934 -1.0139  0.2379
   30CHL1  H21C 3381   2.319   0.194   5.759  0.6065 -2.0319 -1.2915
   30CHL1   C22 3382   2.523   0.016   5.657 -0.5756  0.0807  0.2054
   30CHL1  H22A 3383   2.593  -0.066   5.685  2.1715  2.3229  0.2357
   30CHL1  H22B 3384   2.426  -0.039   5.656 -0.2640 -0.4808  0.4688
   30CHL1   C23 3385   2.555   0.069   5.515  0.3590 -0.0781  0.4436
   30CHL1  H23A 3386   2.476   0.135   5.474  1.5055  0.5398 -0.8421
   30CHL1  H23B 3387   2.650   0.125   5.521  1.5545 -1.8794 -0.6483
   30CHL1   C24 3388   2.573  -0.040   5.409  0.4233 -0.2064  0.2831
   30CHL1  H24A 3389   2.580   0.014   5.311 -1.5428 -0.4244 -0.0235
   30CHL1  H24B 3390   2.671  -0.091   5.422  0.5224  0.0273  0.4728
   30CHL1   C25 3391   2.460  -0.150   5.400  0.0091  0.1827 -0.3924
   30CHL1   H25 3392   2.467  -0.189   5.504  0.5742 -1.6850 -1.1036
   30CHL1   C26 3393   2.318  -0.093   5.389  0.2886  0.4764 -0.5640
   30CHL1  H26A 3394   2.246  -0.177   5.389 -0.7712  1.3575 -0.1018
   30CHL1  H26B 3395   2.303  -0.024   5.475  1.9649 -1.0533  1.0358
   30CHL1  H26C 3396   2.316  -0.040   5.292 -0.4721  0.3754 -0.6087
   30CHL1   C27 3397   2.491  -0.261   5.299  0.2171  0.1603 -0.9141
   30CHL1  H27A 3398   2.507  -0.220   5.197  2.2689 -0.1310 -0.7431
   30CHL1  H27B 3399   2.576  -0.325   5.330  0.0153  0.1906 -0.2790
   30CHL1  H27C 3400   2.403  -0.328   5.284  0.5898 -0.6347  0.2761
   31CHL1    C3 3401   6.201   0.118   7.380  0.1364 -0.5078 -0.6183
   31CHL1    H3 3402   6.280   0.195   7.365 -1.2050  1.1724  0.5204
   31CHL1    O3 3403   6.166   0.107   7.516 -0.4050 -0.1070 -0.3761
   31CHL1   H3' 3404   6.138   0.016   7.518 -0.1947 -0.3356 -3.2939
   31CHL1    C4 3405   6.067   0.138   7.307 -0.2094  0.1127 -0.1307
   31CHL1   H4A 3406   6.003   0.050   7.330  0.7438 -0.6757 -0.4464
   31CHL1   H4B 3407   6.017   0.234   7.333  2.6311  1.3446  1.1657
   31CHL1    C5 3408   6.099   0.141   7.160  0.5622 -1.0558 -0.0053
   31CHL1    C6 3409   6.072   0.252   7.089 -0.5817 -0.3580 -0.4180
   31CHL1    H6 3410   6.033   0.335   7.149 -0.4501 -2.2712  2.4831
   31CHL1    C7 3411   6.098   0.272   6.942  0.0283  0.1898 -0.3136
   31CHL1   H7A 3412   6.008   0.306   6.887  0.4826 -0.6208 -1.6009
   31CHL1   H7B 3413   6.184   0.338   6.917  0.5507 -0.0100  0.8687
   31CHL1    C8 3414   6.120   0.129   6.873 -0.5318 -0.2829 -0.4808
   31CHL1    H8 3415   6.023   0.075   6.865 -0.8735 -0.5572  3.4517
   31CHL1   C14 3416   6.180   0.158   6.729  0.5519 -0.3463 -0.0026
   31CHL1   H14 3417   6.274   0.209   6.756  0.5691 -0.0702 -0.5634
   31CHL1   C15 3418   6.094   0.249   6.640 -0.4017 -0.2788 -0.1376
   31CHL1  H15A 3419   5.991   0.208   6.639 -0.4516 -0.1699  0.2384
   31CHL1  H15B 3420   6.096   0.354   6.676 -0.8713 -0.3219  0.0220
   31CHL1   C16 3421   6.164   0.237   6.504 -0.0579  0.0811  0.3915
   31CHL1  H16A 3422   6.097   0.218   6.417  2.1703 -0.8194 -1.2265
   31CHL1  H16B 3423   6.203   0.336   6.472  1.0509 -1.0047 -1.8582
   31CHL1   C17 3424   6.270   0.118   6.515  0.5167 -0.6345  0.1272
   31CHL1   H17 3425   6.369   0.163   6.536  0.8229 -0.4955 -1.4877
   31CHL1   C13 3426   6.228   0.037   6.647  0.2321 -0.6530  0.8724
   31CHL1   C18 3427   6.100  -0.049   6.611 -0.3761  0.5527 -0.3573
   31CHL1  H18A 3428   6.040   0.001   6.532  0.4588  2.0435 -0.0725
   31CHL1  H18B 3429   6.130  -0.152   6.579 -1.1950  1.0178 -2.8222
   31CHL1  H18C 3430   6.030  -0.051   6.697 -1.5376  1.5768 -1.2482
   31CHL1   C12 3431   6.329  -0.031   6.737 -0.9793  0.4391  0.2509
   31CHL1  H12A 3432   6.383  -0.114   6.686 -1.0524  0.5715 -0.0434
   31CHL1  H12B 3433   6.406   0.044   6.764 -0.1245 -0.4014  0.2107
   31CHL1   C11 3434   6.275  -0.073   6.875 -0.1528 -0.4483 -0.2151
   31CHL1  H11A 3435   6.198  -0.151   6.852  3.2017 -3.3498 -2.6190
   31CHL1  H11B 3436   6.353  -0.129   6.931 -0.8269 -0.8554  0.3480
   31CHL1    C9 3437   6.223   0.050   6.960 -0.3260 -0.5025 -0.6845
   31CHL1    H9 3438   6.301   0.129   6.975 -1.2487 -0.0033  2.2894
   31CHL1   C10 3439   6.166   0.021   7.100 -0.0215  0.8603 -0.0369
   31CHL1   C19 3440   6.051  -0.091   7.086  0.1129  0.7825 -0.2780
   31CHL1  H19A 3441   5.966  -0.059   7.022  2.4237  1.9660 -2.9850
   31CHL1  H19B 3442   6.102  -0.183   7.051  1.7728  0.8929  1.6353
   31CHL1  H19C 3443   6.013  -0.128   7.183  2.4994 -0.3104  0.3143
   31CHL1    C1 3444   6.279  -0.029   7.188  0.4620 -0.1483 -0.3380
   31CHL1   H1A 3445   6.304  -0.134   7.163  0.0778 -0.3577  0.1518
   31CHL1   H1B 3446   6.371   0.025   7.156 -1.1183  2.2086 -1.2026
   31CHL1    C2 3447   6.254  -0.019   7.339 -0.0545 -0.2665 -0.0065
   31CHL1   H2A 3448   6.347  -0.037   7.396 -0.3409  0.8437  0.8326
   31CHL1   H2B 3449   6.172  -0.091   7.361 -1.3796  1.5533  1.2183
   31CHL1   C20 3450   6.284   0.037   6.393  0.2928 -0.2839 -0.2436
   31CHL1   H20 3451   6.184  -0.003   6.365  0.4543 -1.3820  0.6691
   31CHL1   C21 3452   6.386  -0.074   6.413  0.2980 -0.3135  0.2717
   31CHL1  H21A 3453   6.483  -0.041   6.454  0.9394 -2.0052  0.1738
   31CHL1  H21B 3454   6.406  -0.129   6.319 -1.7545 -4.3733  1.9555
   31CHL1  H21C 3455   6.335  -0.154   6.471 -2.4347 -0.6140 -2.3138
   31CHL1   C22 3456   6.353   0.127   6.283 -0.2425 -0.1960  0.0565
   31CHL1  H22A 3457   6.318   0.232   6.296  1.1871  0.1836  1.1498
   31CHL1  H22B 3458   6.464   0.133   6.283 -0.2850  0.8794  0.9799
   31CHL1   C23 3459   6.290   0.099   6.145  0.4680  0.7997 -0.1989
   31CHL1  H23A 3460   6.320  -0.001   6.109  0.3166  0.2904  1.0512
   31CHL1  H23B 3461   6.179   0.103   6.152  0.5236  0.5210  1.1582
   31CHL1   C24 3462   6.338   0.195   6.043 -0.5953 -0.0317 -0.2191
   31CHL1  H24A 3463   6.299   0.297   6.064  1.7942  0.7726  0.5628
   31CHL1  H24B 3464   6.448   0.209   6.038 -0.7759  1.0765 -2.6567
   31CHL1   C25 3465   6.290   0.167   5.899 -0.1296 -0.2771  0.0326
   31CHL1   H25 3466   6.179   0.158   5.900 -0.2925  1.2693 -1.1549
   31CHL1   C26 3467   6.321   0.283   5.813 -0.2385 -0.4321 -0.5807
   31CHL1  H26A 3468   6.267   0.370   5.856  2.3265  0.3828  1.2514
   31CHL1  H26B 3469   6.425   0.321   5.821  0.4552 -2.4386  0.5555
   31CHL1  H26C 3470   6.298   0.267   5.705  2.1200 -1.2661 -1.0121
   31CHL1   C27 3471   6.336   0.033   5.832  0.2389 -0.0583  0.0027
   31CHL1  H27A 3472   6.280   0.000   5.742 -1.2452  1.0759  0.4834
   31CHL1  H27B 3473   6.444   0.033   5.806  0.4797 -0.6178  0.9638
   31CHL1  H27C 3474   6.325  -0.047   5.907  0.8824  0.7219  0.9554
   32CHL1    C3 3475   2.325   5.729   6.975  0.4809 -0.8365  0.5949
   32CHL1    H3 3476   2.347   5.835   6.947 -1.7405 -0.5125 -0.1427
   32CHL1    O3 3477   2.286   5.725   7.109 -0.2177  0.2802  0.7953
   32CHL1   H3' 3478   2.262   5.810   7.147  0.4470 -0.3572  2.7883
   32CHL1    C4 3479   2.210   5.667   6.893 -0.1097  0.0848  0.2140
   32CHL1   H4A 3480   2.166   5.581   6.948 -1.2131  1.2176  1.1645
   32CHL1   H4B 3481   2.133   5.747   6.905 -0.8826 -0.9915  3.2026
   32CHL1    C5 3482   2.226   5.641   6.749 -0.2071 -0.6701  0.9618
   32CHL1    C6 3483   2.154   5.700   6.654 -0.6304 -0.5865  0.2638
   32CHL1    H6 3484   2.064   5.760   6.679 -0.7542 -0.1400 -1.1614
   32CHL1    C7 3485   2.181   5.666   6.501  0.2588  0.0304 -0.0949
   32CHL1   H7A 3486   2.087   5.645   6.447  0.5582  1.2345 -1.1531
   32CHL1   H7B 3487   2.224   5.760   6.460  0.1164 -0.5370 -1.5874
   32CHL1    C8 3488   2.261   5.539   6.472 -0.7433  0.3132 -0.0879
   32CHL1    H8 3489   2.204   5.449   6.502 -0.7828 -0.1300 -1.4360
   32CHL1   C14 3490   2.285   5.527   6.323  0.0476 -0.6457  0.5723
   32CHL1   H14 3491   2.333   5.622   6.293 -2.5528  0.8519  0.7823
   32CHL1   C15 3492   2.171   5.509   6.227  0.3139  0.3370 -0.0703
   32CHL1  H15A 3493   2.094   5.440   6.268 -0.7555  0.9760 -0.9454
   32CHL1  H15B 3494   2.112   5.602   6.219 -2.4622 -1.3924 -1.4936
   32CHL1   C16 3495   2.238   5.459   6.099  0.5919  0.3361  0.3041
   32CHL1  H16A 3496   2.190   5.365   6.066  1.4495 -0.4541  1.2623
   32CHL1  H16B 3497   2.216   5.541   6.027 -3.3763 -1.3051 -0.6538
   32CHL1   C17 3498   2.383   5.435   6.129 -0.0675 -0.0012  0.0896
   32CHL1   H17 3499   2.439   5.529   6.115 -0.0955  0.1384  0.8672
   32CHL1   C13 3500   2.386   5.423   6.283  1.1682 -0.4517  0.2713
   32CHL1   C18 3501   2.327   5.287   6.323 -0.6623  0.3614 -0.0715
   32CHL1  H18A 3502   2.219   5.285   6.296 -0.6908 -0.9973  0.0678
   32CHL1  H18B 3503   2.384   5.213   6.263  2.3422  1.4087  1.2987
   32CHL1  H18C 3504   2.328   5.257   6.430 -2.0749  0.7291  0.0651
   32CHL1   C12 3505   2.516   5.464   6.360  0.0164 -0.8948  0.8720
   32CHL1  H12A 3506   2.602   5.395   6.343 -0.7781 -1.6152 -0.3668
   32CHL1  H12B 3507   2.541   5.568   6.331 -0.3406 -0.5694  1.7073
   32CHL1   C11 3508   2.502   5.469   6.510  0.8075  0.7101  0.1346
   32CHL1  H11A 3509   2.495   5.364   6.545 -2.9227  1.6176  2.6142
   32CHL1  H11B 3510   2.596   5.505   6.557  0.7305  0.6754  0.3150
   32CHL1    C9 3511   2.385   5.558   6.557  0.0999 -0.1854  0.0237
   32CHL1    H9 3512   2.418   5.662   6.533 -3.0181  1.4867  2.2682
   32CHL1   C10 3513   2.355   5.560   6.703  0.2248  0.5097 -0.9837
   32CHL1   C19 3514   2.341   5.406   6.752  0.1995  0.0134 -0.1194
   32CHL1  H19A 3515   2.441   5.359   6.739  1.4259  2.6722 -0.9901
   32CHL1  H19B 3516   2.312   5.401   6.859  1.6093 -0.9968  0.2544
   32CHL1  H19C 3517   2.264   5.352   6.693  0.8653 -0.0076 -0.9933
   32CHL1    C1 3518   2.474   5.628   6.786 -0.5894 -0.5363  0.5671
   32CHL1   H1A 3519   2.558   5.558   6.766 -0.1962  0.8787 -3.7436
   32CHL1   H1B 3520   2.487   5.731   6.746  0.2844 -0.2996  1.4161
   32CHL1    C2 3521   2.458   5.652   6.946 -0.0515  0.8832  0.8900
   32CHL1   H2A 3522   2.546   5.697   6.995 -0.2280  0.9084  1.1882
   32CHL1   H2B 3523   2.443   5.554   6.996 -1.3053 -0.5618 -2.0998
   32CHL1   C20 3524   2.452   5.321   6.041 -0.4408  0.1068 -0.6765
   32CHL1   H20 3525   2.399   5.225   6.064 -1.6510  1.0193  0.4830
   32CHL1   C21 3526   2.599   5.303   6.082 -0.3035 -0.1910  0.4989
   32CHL1  H21A 3527   2.643   5.405   6.072 -3.2357  1.0694 -0.5584
   32CHL1  H21B 3528   2.660   5.232   6.022  0.3060  0.8196 -0.1144
   32CHL1  H21C 3529   2.612   5.272   6.188 -0.1535 -0.9890  0.2506
   32CHL1   C22 3530   2.448   5.344   5.885  0.0241  0.0437 -0.4103
   32CHL1  H22A 3531   2.349   5.389   5.862 -0.8039 -0.7969  1.3175
   32CHL1  H22B 3532   2.531   5.416   5.866 -1.2706  1.7030 -0.0146
   32CHL1   C23 3533   2.477   5.216   5.799  0.1082 -0.2129  0.8585
   32CHL1  H23A 3534   2.578   5.178   5.826  0.7953 -1.0671 -2.4559
   32CHL1  H23B 3535   2.403   5.136   5.821 -1.1681  0.7933  0.3910
   32CHL1   C24 3536   2.461   5.245   5.652 -0.2054 -0.1501  0.3900
   32CHL1  H24A 3537   2.364   5.298   5.642 -0.5397 -0.2016  2.9078
   32CHL1  H24B 3538   2.540   5.312   5.610 -1.8352  0.1398 -2.4990
   32CHL1   C25 3539   2.465   5.129   5.552  0.3521 -0.1676  0.0141
   32CHL1   H25 3540   2.378   5.061   5.562  2.1350 -2.5649  0.0292
   32CHL1   C26 3541   2.469   5.200   5.418 -0.3116  0.0051 -0.0271
   32CHL1  H26A 3542   2.483   5.119   5.344 -1.1356  0.0890 -0.2889
   32CHL1  H26B 3543   2.372   5.246   5.389 -1.0369 -0.9058  0.8906
   32CHL1  H26C 3544   2.558   5.263   5.396  0.5291 -1.6395 -1.5909
   32CHL1   C27 3545   2.589   5.049   5.567  0.5194 -0.2272  0.1629
   32CHL1  H27A 3546   2.679   5.110   5.543 -0.2055  0.8031 -0.0074
   32CHL1  H27B 3547   2.587   5.012   5.671 -0.6541  0.6768  0.4811
   32CHL1  H27C 3548   2.584   4.965   5.494 -0.4704  0.1118 -0.1770
   33CHL1    C3 3549   0.697   3.883   7.116  0.2635  0.4320  0.0986
   33CHL1    H3 3550   0.638   3.971   7.082  1.6439  1.1076 -0.6169
   33CHL1    O3 3551   0.734   3.890   7.255 -0.5020  0.3841  0.6366
   33CHL1   H3' 3552   0.824   3.924   7.262 -0.2649 -0.4507  1.7758
   33CHL1    C4 3553   0.596   3.760   7.092 -0.2959 -0.3022  0.2809
   33CHL1   H4A 3554   0.636   3.664   7.130  0.1598  0.3589  1.5109
   33CHL1   H4B 3555   0.503   3.771   7.153 -0.8919  0.2875 -0.6953
   33CHL1    C5 3556   0.565   3.744   6.946  0.1013  1.4610  0.6407
   33CHL1    C6 3557   0.442   3.750   6.898 -0.3373 -0.3192 -0.0319
   33CHL1    H6 3558   0.371   3.763   6.981  1.2628  2.9456  0.9624
   33CHL1    C7 3559   0.391   3.734   6.757  0.0001  0.2881 -0.0752
   33CHL1   H7A 3560   0.322   3.648   6.753  1.1651 -0.6421 -1.2762
   33CHL1   H7B 3561   0.345   3.824   6.711 -0.8825 -0.5770 -0.9355
   33CHL1    C8 3562   0.511   3.691   6.666 -0.1926 -0.2177  0.5538
   33CHL1    H8 3563   0.524   3.582   6.681  1.2646  0.0409  1.4272
   33CHL1   C14 3564   0.470   3.707   6.522 -0.0011 -0.2706 -0.5588
   33CHL1   H14 3565   0.447   3.816   6.517 -0.9214 -0.4278 -0.1294
   33CHL1   C15 3566   0.345   3.636   6.469  0.3739 -0.2770 -0.3386
   33CHL1  H15A 3567   0.350   3.530   6.502  0.0158 -0.2869 -0.3166
   33CHL1  H15B 3568   0.253   3.679   6.514 -0.5930 -1.3309 -1.2706
   33CHL1   C16 3569   0.351   3.658   6.317  0.1041  0.6285 -0.1047
   33CHL1  H16A 3570   0.327   3.565   6.261 -1.4299  1.4753 -0.9324
   33CHL1  H16B 3571   0.282   3.738   6.283  0.4354  1.0455  0.1952
   33CHL1   C17 3572   0.495   3.699   6.293  0.7498  0.3154 -0.1717
   33CHL1   H17 3573   0.500   3.809   6.283 -1.2778  0.4701  0.1952
   33CHL1   C13 3574   0.573   3.675   6.421 -0.1620 -0.1533 -0.3555
   33CHL1   C18 3575   0.613   3.526   6.428 -0.9945  0.0973  0.0481
   33CHL1  H18A 3576   0.707   3.509   6.372 -1.6961  0.5519 -1.3137
   33CHL1  H18B 3577   0.645   3.484   6.526  1.5161  2.1972  0.2409
   33CHL1  H18C 3578   0.538   3.462   6.377 -0.4464 -1.2471  0.8838
   33CHL1   C12 3579   0.697   3.771   6.451 -0.1716  0.3148  0.7469
   33CHL1  H12A 3580   0.787   3.757   6.387  0.3690 -0.2843  1.6076
   33CHL1  H12B 3581   0.662   3.873   6.428  0.4383  0.4078  0.1781
   33CHL1   C11 3582   0.754   3.745   6.591  0.5452 -0.3268  0.2081
   33CHL1  H11A 3583   0.794   3.642   6.581  0.9433  0.0537 -3.3435
   33CHL1  H11B 3584   0.834   3.821   6.603  0.2680  0.1721 -0.9779
   33CHL1    C9 3585   0.643   3.766   6.693 -0.3666  0.8903 -1.2988
   33CHL1    H9 3586   0.613   3.872   6.679  1.4147  1.6759  0.3759
   33CHL1   C10 3587   0.684   3.739   6.848 -0.4765 -0.5940  0.7256
   33CHL1   C19 3588   0.752   3.609   6.862  0.4978 -0.3122  0.6163
   33CHL1  H19A 3589   0.695   3.523   6.821 -0.2603  0.1230  0.7412
   33CHL1  H19B 3590   0.841   3.613   6.795 -0.4931 -1.0855 -0.7867
   33CHL1  H19C 3591   0.787   3.586   6.965 -0.0210 -1.9411  0.4558
   33CHL1    C1 3592   0.788   3.846   6.889 -0.4074  0.2868  0.4248
   33CHL1   H1A 3593   0.882   3.820   6.836 -1.3105 -0.7280 -0.7595
   33CHL1   H1B 3594   0.751   3.949   6.870  0.3429  0.1458 -2.1663
   33CHL1    C2 3595   0.826   3.861   7.037 -0.8385  0.1634 -0.1083
   33CHL1   H2A 3596   0.895   3.947   7.055 -1.7070  0.5482  1.5658
   33CHL1   H2B 3597   0.870   3.764   7.069  0.5640  0.2748 -1.5446
   33CHL1   C20 3598   0.559   3.649   6.159  0.6617 -0.0066  0.0042
   33CHL1   H20 3599   0.546   3.538   6.156 -2.5945  0.2748  0.5679
   33CHL1   C21 3600   0.708   3.680   6.132  0.1469 -0.6917  0.0045
   33CHL1  H21A 3601   0.764   3.642   6.220 -0.8547 -0.2375  0.8597
   33CHL1  H21B 3602   0.728   3.789   6.127  1.0751 -0.6649  2.6941
   33CHL1  H21C 3603   0.734   3.623   6.040 -2.2259 -0.6149 -0.7832
   33CHL1   C22 3604   0.470   3.705   6.047 -0.2697 -0.8972  0.0699
   33CHL1  H22A 3605   0.365   3.670   6.058 -0.6841 -0.1053 -1.1316
   33CHL1  H22B 3606   0.471   3.816   6.053  1.0622 -0.9507  1.5160
   33CHL1   C23 3607   0.513   3.663   5.903 -0.2352  0.7452  0.4288
   33CHL1  H23A 3608   0.607   3.717   5.882  1.6212 -2.5637 -0.4182
   33CHL1  H23B 3609   0.537   3.555   5.908  0.4862  0.8470 -0.5785
   33CHL1   C24 3610   0.410   3.702   5.797  0.0142  0.5362  0.9367
   33CHL1  H24A 3611   0.331   3.626   5.814  1.6377 -1.1483  1.2475
   33CHL1  H24B 3612   0.365   3.801   5.819 -0.7142  0.4405 -0.0686
   33CHL1   C25 3613   0.454   3.700   5.647  0.3912 -0.9044  0.3059
   33CHL1   H25 3614   0.501   3.600   5.634 -0.1713 -1.0917 -0.2955
   33CHL1   C26 3615   0.336   3.699   5.555  0.0461  0.1912  0.1607
   33CHL1  H26A 3616   0.252   3.649   5.608  0.6336  0.3537  1.2654
   33CHL1  H26B 3617   0.301   3.795   5.512  0.6026 -0.0719 -0.9273
   33CHL1  H26C 3618   0.350   3.651   5.455 -0.6069 -0.6311  0.4483
   33CHL1   C27 3619   0.553   3.815   5.615  0.0151  0.3921  0.6881
   33CHL1  H27A 3620   0.585   3.818   5.509 -0.7628  0.5603  0.4570
   33CHL1  H27B 3621   0.500   3.908   5.643 -2.9160 -0.8005 -0.4658
   33CHL1  H27C 3622   0.645   3.801   5.676 -1.2655 -0.5848  2.4838
   34CHL1    C3 3623   0.789   6.659   6.839 -0.6189 -0.2716 -0.5002
   34CHL1    H3 3624   0.804   6.555   6.803 -1.6197 -0.5034 -0.2710
   34CHL1    O3 3625   0.823   6.662   6.977 -0.1256  0.0331  0.4981
   34CHL1   H3' 3626   0.814   6.754   7.005  2.7510 -0.1369  2.3531
   34CHL1    C4 3627   0.895   6.747   6.769 -0.6834  0.4279  0.3834
   34CHL1   H4A 3628   0.891   6.850   6.811  0.3725  0.0059  1.5971
   34CHL1   H4B 3629   0.997   6.716   6.800 -1.7569 -3.3810  0.5914
   34CHL1    C5 3630   0.863   6.765   6.618  0.2841 -0.4845 -0.7344
   34CHL1    C6 3631   0.953   6.739   6.525 -0.2501  0.2059 -0.5347
   34CHL1    H6 3632   1.056   6.716   6.556  0.4154 -0.5659 -3.0750
   34CHL1    C7 3633   0.929   6.757   6.377 -0.1261  0.8635  0.5544
   34CHL1   H7A 3634   1.012   6.820   6.337  0.6958  0.1363  1.0799
   34CHL1   H7B 3635   0.936   6.657   6.330 -0.7054  1.0475  0.0676
   34CHL1    C8 3636   0.794   6.828   6.337 -0.5650 -0.7037 -0.3833
   34CHL1    H8 3637   0.816   6.935   6.357  1.7793 -1.3864  1.1810
   34CHL1   C14 3638   0.755   6.803   6.193 -0.4540  0.0835 -0.3618
   34CHL1   H14 3639   0.739   6.693   6.185 -1.0095  0.0922  0.4791
   34CHL1   C15 3640   0.866   6.840   6.094 -0.0246 -0.0285 -0.8620
   34CHL1  H15A 3641   0.930   6.930   6.107  0.7756 -0.5877 -0.8115
   34CHL1  H15B 3642   0.936   6.754   6.095 -1.5078 -1.3122  1.5539
   34CHL1   C16 3643   0.786   6.850   5.963 -0.2281 -0.7519 -0.5724
   34CHL1  H16A 3644   0.811   6.948   5.917  0.5163  0.4520  2.2231
   34CHL1  H16B 3645   0.814   6.773   5.887 -1.9653 -1.8872 -0.1227
   34CHL1   C17 3646   0.632   6.842   5.998  0.0522  0.5555  0.3202
   34CHL1   H17 3647   0.601   6.738   5.973 -2.7505  1.9771 -2.7959
   34CHL1   C13 3648   0.628   6.877   6.149 -0.3848 -0.1638  0.4502
   34CHL1   C18 3649   0.641   7.033   6.155  0.0388 -0.0420 -0.2172
   34CHL1  H18A 3650   0.539   7.077   6.163  0.9352  2.7691 -2.3835
   34CHL1  H18B 3651   0.690   7.057   6.251  0.5313 -0.9242 -0.2454
   34CHL1  H18C 3652   0.690   7.086   6.071  1.3491  0.1886  0.6693
   34CHL1   C12 3653   0.509   6.826   6.232 -0.2416  0.3206  0.3233
   34CHL1  H12A 3654   0.419   6.883   6.200  0.2957  1.7520  1.2674
   34CHL1  H12B 3655   0.499   6.715   6.228  0.4531  0.2534  0.2755
   34CHL1   C11 3656   0.541   6.859   6.383 -0.1242 -0.2703  0.2060
   34CHL1  H11A 3657   0.552   6.967   6.404  1.8752 -0.2250 -0.8588
   34CHL1  H11B 3658   0.460   6.819   6.448 -0.2405  2.1187  1.6183
   34CHL1    C9 3659   0.680   6.798   6.434 -0.0602  0.0269  0.0335
   34CHL1    H9 3660   0.656   6.692   6.409 -1.1607  0.8470 -2.7476
   34CHL1   C10 3661   0.719   6.814   6.583  0.1072  0.0725 -0.1353
   34CHL1   C19 3662   0.716   6.966   6.618  0.1244  0.0458 -0.4333
   34CHL1  H19A 3663   0.799   7.014   6.562 -0.6567  1.6743 -0.2514
   34CHL1  H19B 3664   0.616   7.012   6.601  0.3348  0.2489 -1.1597
   34CHL1  H19C 3665   0.731   6.974   6.728 -0.6092 -0.8043 -0.2614
   34CHL1    C1 3666   0.614   6.737   6.672  0.0149  0.1497  0.2321
   34CHL1   H1A 3667   0.516   6.788   6.655  0.0402 -0.2639 -1.3329
   34CHL1   H1B 3668   0.594   6.636   6.630 -2.0996  1.1336 -1.3772
   34CHL1    C2 3669   0.647   6.712   6.815 -0.1675 -0.1468 -0.6235
   34CHL1   H2A 3670   0.565   6.652   6.860 -1.2158 -0.9987 -3.4548
   34CHL1   H2B 3671   0.633   6.805   6.875  0.0665 -1.2616  1.2364
   34CHL1   C20 3672   0.546   6.930   5.904  0.7666  0.5255 -0.2909
   34CHL1   H20 3673   0.575   7.037   5.904  0.7909  0.5205 -0.6295
   34CHL1   C21 3674   0.393   6.908   5.937 -0.3235  0.5403  0.0942
   34CHL1  H21A 3675   0.329   6.950   5.856  0.1323 -0.2114 -0.6652
   34CHL1  H21B 3676   0.370   6.972   6.024  0.5792 -1.3683  1.8212
   34CHL1  H21C 3677   0.373   6.804   5.971  2.7945  0.1555  1.1013
   34CHL1   C22 3678   0.584   6.879   5.763 -0.9021 -0.1034 -0.6199
   34CHL1  H22A 3679   0.693   6.891   5.744 -1.1351 -0.0635 -2.0203
   34CHL1  H22B 3680   0.559   6.771   5.759  0.1055 -0.3443 -0.6828
   34CHL1   C23 3681   0.510   6.950   5.652  0.3976 -0.8216  0.3350
   34CHL1  H23A 3682   0.403   6.923   5.654  0.4078 -0.9819 -0.9440
   34CHL1  H23B 3683   0.525   7.057   5.678 -0.4258 -0.4644 -0.6269
   34CHL1   C24 3684   0.566   6.932   5.518  0.0053  0.4864 -0.1607
   34CHL1  H24A 3685   0.674   6.953   5.528  0.5669 -1.1495 -2.1436
   34CHL1  H24B 3686   0.543   6.826   5.494 -0.8001  0.3885  0.9976
   34CHL1   C25 3687   0.509   7.032   5.413 -0.2963  0.0496  0.5612
   34CHL1   H25 3688   0.530   7.136   5.448  2.7360  0.1376 -1.1216
   34CHL1   C26 3689   0.586   7.013   5.276  0.8686 -0.0362 -0.2691
   34CHL1  H26A 3690   0.558   6.912   5.239 -1.6759  0.8211 -0.8858
   34CHL1  H26B 3691   0.555   7.094   5.207  1.9046  0.4780 -0.1445
   34CHL1  H26C 3692   0.695   7.023   5.290  0.5647  1.6106  1.2340
   34CHL1   C27 3693   0.361   7.003   5.389 -0.3863  0.2308 -0.0896
   34CHL1  H27A 3694   0.316   7.079   5.322 -2.3114 -1.7382 -1.1734
   34CHL1  H27B 3695   0.357   6.909   5.331  0.8429  0.6126 -0.8107
   34CHL1  H27C 3696   0.308   7.003   5.487  3.6072  2.8190  2.3416
   35CHL1    C3 3697   2.902   2.304   7.122  0.0483  0.3668  0.4308
   35CHL1    H3 3698   2.822   2.366   7.077  1.2456  1.2650 -0.5535
   35CHL1    O3 3699   2.895   2.319   7.261 -0.0571  0.3501  0.7476
   35CHL1   H3' 3700   2.842   2.250   7.300 -0.8360 -0.2466 -1.2267
   35CHL1    C4 3701   2.870   2.157   7.084  0.2585  0.1050 -0.1998
   35CHL1   H4A 3702   2.923   2.077   7.140 -0.6416 -1.0147 -0.8931
   35CHL1   H4B 3703   2.767   2.143   7.122  0.2105 -0.3309 -0.4745
   35CHL1    C5 3704   2.884   2.131   6.933  0.0115  0.2374  0.4465
   35CHL1    C6 3705   2.771   2.086   6.869 -0.5342 -0.0840  0.5296
   35CHL1    H6 3706   2.680   2.063   6.926  0.0956 -0.2862  1.4822
   35CHL1    C7 3707   2.768   2.073   6.725 -0.1256 -0.2921  0.2397
   35CHL1   H7A 3708   2.721   1.977   6.695  1.4878 -1.4486  1.2314
   35CHL1   H7B 3709   2.711   2.158   6.682 -0.3503 -1.4711 -1.9072
   35CHL1    C8 3710   2.913   2.075   6.659  0.0130  0.3257  0.4767
   35CHL1    H8 3711   2.958   1.979   6.693  1.7817  1.0740  0.3138
   35CHL1   C14 3712   2.908   2.070   6.505  0.1840 -0.2720 -0.4369
   35CHL1   H14 3713   2.859   2.164   6.474 -0.5710  0.2441  2.0968
   35CHL1   C15 3714   2.807   1.961   6.439  0.3743 -0.8560 -0.2625
   35CHL1  H15A 3715   2.821   1.862   6.486  3.0430 -0.3012  0.2737
   35CHL1  H15B 3716   2.703   2.000   6.445  0.1437 -0.9474 -2.5319
   35CHL1   C16 3717   2.862   1.960   6.296  0.4731 -0.0996  0.3925
   35CHL1  H16A 3718   2.890   1.857   6.266  1.0072 -0.3475  1.6958
   35CHL1  H16B 3719   2.783   1.996   6.226 -0.1673  0.8050  1.5507
   35CHL1   C17 3720   2.985   2.055   6.286 -0.0931 -0.0145 -0.3022
   35CHL1   H17 3721   2.946   2.157   6.266 -1.6339 -0.7518 -1.1687
   35CHL1   C13 3722   3.044   2.058   6.432  0.2036  0.1743 -0.0559
   35CHL1   C18 3723   3.111   1.919   6.456 -0.0118  0.5076 -0.8782
   35CHL1  H18A 3724   3.211   1.914   6.408  2.5394  0.7406  3.7434
   35CHL1  H18B 3725   3.124   1.899   6.565  0.6009  1.6996 -0.7206
   35CHL1  H18C 3726   3.041   1.839   6.423 -0.1161  0.2230 -0.0172
   35CHL1   C12 3727   3.121   2.186   6.482  0.2604 -0.3327  0.0745
   35CHL1  H12A 3728   3.224   2.180   6.442 -0.6940 -0.2777 -2.6475
   35CHL1  H12B 3729   3.064   2.274   6.444 -2.0085 -1.4540  0.6822
   35CHL1   C11 3730   3.140   2.192   6.636 -0.0990 -0.0338 -0.0307
   35CHL1  H11A 3731   3.201   2.104   6.666  1.1559  1.0523  0.7717
   35CHL1  H11B 3732   3.202   2.276   6.675  1.6759 -2.3184  2.4258
   35CHL1    C9 3733   3.007   2.182   6.715  0.2713  0.0229  0.7748
   35CHL1    H9 3734   2.947   2.271   6.686  0.6559  0.0023 -0.1012
   35CHL1   C10 3735   3.015   2.181   6.866 -0.6094  0.1219 -0.0619
   35CHL1   C19 3736   3.119   2.071   6.911  0.1272 -0.5417 -0.5732
   35CHL1  H19A 3737   3.093   1.966   6.882  2.4269 -0.6998 -2.2998
   35CHL1  H19B 3738   3.213   2.096   6.859 -0.2134 -0.6870 -1.2782
   35CHL1  H19C 3739   3.130   2.075   7.021 -1.0531  1.4793 -0.4839
   35CHL1    C1 3740   3.052   2.325   6.919  0.6659 -0.4634  0.0754
   35CHL1   H1A 3741   3.157   2.335   6.884  1.0011  1.8360  1.5622
   35CHL1   H1B 3742   2.990   2.408   6.880  0.0663 -0.7815  0.3290
   35CHL1    C2 3743   3.042   2.343   7.070 -0.0642  0.6627  0.6003
   35CHL1   H2A 3744   3.065   2.444   7.109 -0.4611  1.0590 -0.1629
   35CHL1   H2B 3745   3.124   2.279   7.109  0.1983  0.4613 -0.2396
   35CHL1   C20 3746   3.080   2.024   6.166  0.2110 -0.1528  0.1540
   35CHL1   H20 3747   3.118   1.921   6.182 -1.4310 -0.6671  1.0323
   35CHL1   C21 3748   3.195   2.130   6.165 -0.0083  0.2667 -0.2152
   35CHL1  H21A 3749   3.151   2.232   6.176  0.6156  0.2944  2.4955
   35CHL1  H21B 3750   3.268   2.132   6.081 -1.5658 -0.0219 -1.6334
   35CHL1  H21C 3751   3.251   2.101   6.256 -0.2737 -0.8605 -0.3931
   35CHL1   C22 3752   3.008   2.019   6.028  0.6797  0.2959 -0.3330
   35CHL1  H22A 3753   2.925   1.944   6.023 -1.1022  2.1237  0.3091
   35CHL1  H22B 3754   2.954   2.114   6.007 -0.8037 -0.6104 -0.7982
   35CHL1   C23 3755   3.101   1.993   5.910  0.5012 -0.4500  0.4197
   35CHL1  H23A 3756   3.168   2.081   5.896  0.8660 -0.8540 -0.4559
   35CHL1  H23B 3757   3.153   1.895   5.917  0.1396 -0.7616 -0.9282
   35CHL1   C24 3758   3.028   1.980   5.768 -0.0843 -0.7310  0.1966
   35CHL1  H24A 3759   2.948   1.903   5.772  1.3281 -2.2217  0.8984
   35CHL1  H24B 3760   2.992   2.077   5.729 -2.3295 -1.6493 -0.1742
   35CHL1   C25 3761   3.130   1.924   5.663 -0.4554 -0.3873 -0.3846
   35CHL1   H25 3762   3.173   1.832   5.708  3.0744  1.1124 -0.3358
   35CHL1   C26 3763   3.055   1.890   5.538  0.6378  0.6505 -0.7135
   35CHL1  H26A 3764   3.116   1.871   5.448  1.9957 -1.5638  0.5741
   35CHL1  H26B 3765   2.997   1.795   5.547  0.1072  0.9723 -0.7350
   35CHL1  H26C 3766   2.981   1.973   5.533  1.6852  2.2657  4.2095
   35CHL1   C27 3767   3.256   2.015   5.644  0.1361  0.1334 -0.9171
   35CHL1  H27A 3768   3.301   2.024   5.745 -2.9031 -1.3818  0.7175
   35CHL1  H27B 3769   3.331   1.968   5.577 -0.4384 -2.0970 -0.0913
   35CHL1  H27C 3770   3.222   2.116   5.612 -1.7860 -0.5584 -1.1891
   36CHL1    C3 3771   5.866   4.708   7.176  0.2597 -0.1136  0.0661
   36CHL1    H3 3772   5.969   4.749   7.172  0.4619 -0.6173 -3.5369
   36CHL1    O3 3773   5.831   4.673   7.309  0.3716 -0.8794  0.1308
   36CHL1   H3' 3774   5.748   4.625   7.309  1.1899 -2.5468  2.6181
   36CHL1    C4 3775   5.772   4.817   7.129  0.2564 -0.0571  0.1085
   36CHL1   H4A 3776   5.668   4.779   7.135 -0.5808  2.1876  0.7568
   36CHL1   H4B 3777   5.786   4.900   7.202 -0.9318 -0.1912  0.5024
   36CHL1    C5 3778   5.807   4.851   6.983  0.0019  0.1716  0.0415
   36CHL1    C6 3779   5.842   4.971   6.954  0.4635  0.2831 -0.3757
   36CHL1    H6 3780   5.856   5.046   7.033  2.4024  0.3665 -0.7468
   36CHL1    C7 3781   5.861   5.017   6.812  0.0875 -0.0787  0.2449
   36CHL1   H7A 3782   5.820   5.119   6.800 -0.0973 -0.0738  0.8805
   36CHL1   H7B 3783   5.968   5.037   6.790 -0.6793  1.6437 -2.3249
   36CHL1    C8 3784   5.800   4.921   6.710 -0.2555  0.2196 -0.2027
   36CHL1    H8 3785   5.689   4.916   6.718 -0.1155 -2.5351  1.0111
   36CHL1   C14 3786   5.849   4.959   6.573 -0.1637 -0.0345  0.2492
   36CHL1   H14 3787   5.959   4.949   6.567 -0.1077  0.5976  0.1253
   36CHL1   C15 3788   5.816   5.107   6.525  0.3147  0.0057 -0.4277
   36CHL1  H15A 3789   5.716   5.142   6.561  0.3689 -0.6397  0.3725
   36CHL1  H15B 3790   5.890   5.181   6.562  2.5466 -1.6994 -1.3237
   36CHL1   C16 3791   5.824   5.092   6.379  0.0847  0.1607  0.2753
   36CHL1  H16A 3792   5.732   5.115   6.322  0.9714  0.5475 -1.0374
   36CHL1  H16B 3793   5.898   5.168   6.347  0.3888 -0.6647 -1.0571
   36CHL1   C17 3794   5.868   4.942   6.347 -0.0785 -0.0183  0.3757
   36CHL1   H17 3795   5.978   4.948   6.357 -0.1023  1.0749  0.0882
   36CHL1   C13 3796   5.810   4.862   6.458 -0.8136 -0.2774 -0.0066
   36CHL1   C18 3797   5.661   4.852   6.445  0.2795 -0.1757  0.1326
   36CHL1  H18A 3798   5.639   4.808   6.345  1.7310 -0.9085  0.1055
   36CHL1  H18B 3799   5.608   4.788   6.517 -1.7956  0.9969 -0.2771
   36CHL1  H18C 3800   5.606   4.948   6.443 -0.1655 -0.4276  0.2009
   36CHL1   C12 3801   5.869   4.730   6.486  0.4780  0.0093 -0.6414
   36CHL1  H12A 3802   5.850   4.649   6.411  1.6733 -1.1669  0.2710
   36CHL1  H12B 3803   5.979   4.747   6.485  0.6012 -0.0798  2.6129
   36CHL1   C11 3804   5.829   4.682   6.627  0.6050  0.1185  0.6485
   36CHL1  H11A 3805   5.720   4.663   6.624  0.6841 -0.4222  0.9577
   36CHL1  H11B 3806   5.870   4.581   6.652 -0.8183 -0.6767 -0.0514
   36CHL1    C9 3807   5.849   4.781   6.743 -0.3927  0.2094  0.7003
   36CHL1    H9 3808   5.959   4.783   6.759 -0.4093  0.3553  0.7993
   36CHL1   C10 3809   5.802   4.736   6.887 -0.3625  0.7943  0.3897
   36CHL1   C19 3810   5.655   4.679   6.868 -0.0908  0.0023 -0.0864
   36CHL1  H19A 3811   5.586   4.745   6.812  0.0858  0.2889  0.0302
   36CHL1  H19B 3812   5.664   4.581   6.818  0.8119 -1.0470  1.9763
   36CHL1  H19C 3813   5.599   4.665   6.963 -2.2448  1.6670 -1.0392
   36CHL1    C1 3814   5.902   4.627   6.943  0.4502 -0.5558  0.6994
   36CHL1   H1A 3815   5.894   4.534   6.882  2.1769  0.0481 -0.5287
   36CHL1   H1B 3816   6.000   4.678   6.943 -0.6697  1.7539 -0.1887
   36CHL1    C2 3817   5.871   4.583   7.087  0.0875 -0.2910  0.1156
   36CHL1   H2A 3818   5.947   4.513   7.127  0.6925  0.5591  0.4902
   36CHL1   H2B 3819   5.769   4.541   7.087  0.3851 -1.2183 -2.5997
   36CHL1   C20 3820   5.845   4.901   6.194  0.4751 -0.6207 -0.8067
   36CHL1   H20 3821   5.736   4.901   6.173 -0.0205 -0.1193  1.4620
   36CHL1   C21 3822   5.917   4.765   6.164  0.0720 -0.4716  0.4446
   36CHL1  H21A 3823   6.024   4.770   6.193  0.2998  1.9736 -0.5080
   36CHL1  H21B 3824   5.906   4.753   6.054 -4.4509 -3.1519  0.9325
   36CHL1  H21C 3825   5.856   4.682   6.205 -2.1937  0.4038 -0.9257
   36CHL1   C22 3826   5.922   5.016   6.119 -0.7395 -0.3978 -0.0751
   36CHL1  H22A 3827   5.860   5.108   6.107 -0.5094 -0.1101  0.8885
   36CHL1  H22B 3828   6.015   5.047   6.171 -2.2836  1.1633  1.9585
   36CHL1   C23 3829   5.965   4.990   5.969 -0.5512 -0.7729  0.0723
   36CHL1  H23A 3830   6.036   4.906   5.957  1.4888  0.7818  0.7203
   36CHL1  H23B 3831   5.871   4.969   5.915  0.3708 -2.9982 -0.7611
   36CHL1   C24 3832   6.044   5.103   5.898  0.1102 -0.5166 -0.2385
   36CHL1  H24A 3833   5.984   5.193   5.924  0.2210 -0.1972 -1.0634
   36CHL1  H24B 3834   6.146   5.105   5.942  0.3073 -0.3997 -0.6970
   36CHL1   C25 3835   6.048   5.087   5.745 -0.5524 -0.0400 -0.4936
   36CHL1   H25 3836   5.950   5.111   5.699 -0.6928 -0.9011 -0.6611
   36CHL1   C26 3837   6.150   5.201   5.705  0.3037  0.6614 -0.6375
   36CHL1  H26A 3838   6.171   5.217   5.598 -0.3908  3.1934 -0.4456
   36CHL1  H26B 3839   6.119   5.300   5.744  1.1072  0.5445  0.3445
   36CHL1  H26C 3840   6.244   5.165   5.753 -0.0184  2.1484  1.2421
   36CHL1   C27 3841   6.106   4.954   5.686 -0.5979  0.4569 -0.1917
   36CHL1  H27A 3842   6.206   4.928   5.726 -1.2802  0.9394  1.9930
   36CHL1  H27B 3843   6.041   4.872   5.724 -2.7213  2.4477  0.7233
   36CHL1  H27C 3844   6.100   4.955   5.575 -4.2787  2.7251 -0.1572
   37CHL1    C3 3845   0.742   0.185   3.379 -0.4566 -0.2623  0.0682
   37CHL1    H3 3846   0.848   0.200   3.408 -1.3871  2.7347  2.4607
   37CHL1    O3 3847   0.731   0.193   3.239 -0.3125 -0.0800  0.6679
   37CHL1   H3' 3848   0.639   0.172   3.219  0.3102 -1.7401 -0.7258
   37CHL1    C4 3849   0.694   0.051   3.427 -0.5120 -0.1099  0.4953
   37CHL1   H4A 3850   0.590   0.054   3.389 -0.7223  3.6706  0.9296
   37CHL1   H4B 3851   0.746  -0.032   3.375 -0.3340 -0.0715  0.6116
   37CHL1    C5 3852   0.695   0.040   3.577  0.1905 -0.0762  0.1772
   37CHL1    C6 3853   0.745  -0.072   3.627 -0.3211  0.3153 -0.5431
   37CHL1    H6 3854   0.772  -0.152   3.557  0.6575 -0.3148  0.5304
   37CHL1    C7 3855   0.745  -0.103   3.778 -0.3703 -0.1220 -0.2712
   37CHL1   H7A 3856   0.708  -0.205   3.798 -0.5214 -0.1964 -0.9121
   37CHL1   H7B 3857   0.851  -0.081   3.806 -0.4220  2.1328 -1.6076
   37CHL1    C8 3858   0.663  -0.003   3.863 -0.3682  0.2415  0.4635
   37CHL1    H8 3859   0.557  -0.039   3.861  0.2561 -1.6985 -0.0926
   37CHL1   C14 3860   0.720  -0.010   4.008  0.5186 -0.1398  0.4950
   37CHL1   H14 3861   0.826   0.022   4.003  0.5469 -0.3651 -2.1518
   37CHL1   C15 3862   0.706  -0.145   4.083  0.3999 -0.5830  0.6740
   37CHL1  H15A 3863   0.602  -0.181   4.069  0.2171  0.3235 -0.4376
   37CHL1  H15B 3864   0.775  -0.222   4.042 -0.9968 -0.3058 -2.4825
   37CHL1   C16 3865   0.735  -0.101   4.227  0.0892  0.1805  0.0381
   37CHL1  H16A 3866   0.650  -0.134   4.289 -1.4595  1.0433 -1.5488
   37CHL1  H16B 3867   0.829  -0.149   4.263  0.5488  0.7359 -0.3815
   37CHL1   C17 3868   0.727   0.061   4.236  0.0668  0.0643 -0.1115
   37CHL1   H17 3869   0.831   0.099   4.240 -0.0710  0.3669  2.3254
   37CHL1   C13 3870   0.665   0.102   4.100  0.1186  1.0141 -0.1271
   37CHL1   C18 3871   0.509   0.082   4.106 -0.3754 -0.2290  0.2857
   37CHL1  H18A 3872   0.468   0.003   4.172 -0.8177  0.8311  1.3259
   37CHL1  H18B 3873   0.461   0.177   4.138 -1.3015 -0.9933  1.2448
   37CHL1  H18C 3874   0.471   0.048   4.007 -1.6657  0.7353  0.4242
   37CHL1   C12 3875   0.706   0.226   4.042  0.2439 -0.4601  0.1113
   37CHL1  H12A 3876   0.677   0.313   4.105 -3.1358 -1.2711 -0.1223
   37CHL1  H12B 3877   0.814   0.224   4.019  0.0923  1.6502 -1.0372
   37CHL1   C11 3878   0.641   0.252   3.910  0.1060 -1.1530 -0.0900
   37CHL1  H11A 3879   0.530   0.254   3.905  0.0277  1.1470  1.0285
   37CHL1  H11B 3880   0.662   0.354   3.871  1.8784 -1.7030 -0.6667
   37CHL1    C9 3881   0.683   0.139   3.812  0.3073  0.0117 -1.0158
   37CHL1    H9 3882   0.793   0.154   3.810  0.2778  0.2168 -3.1491
   37CHL1   C10 3883   0.635   0.156   3.660 -0.3302 -0.9469 -0.1486
   37CHL1   C19 3884   0.482   0.167   3.654 -0.1523 -0.3019 -0.3335
   37CHL1  H19A 3885   0.437   0.069   3.682 -0.5478  0.1736  0.7305
   37CHL1  H19B 3886   0.439   0.244   3.721 -1.5836 -2.6389  1.6245
   37CHL1  H19C 3887   0.442   0.185   3.552 -1.9400  1.8044  0.6695
   37CHL1    C1 3888   0.695   0.290   3.602  0.6670  0.1606  0.7919
   37CHL1   H1A 3889   0.634   0.369   3.650  0.8654  0.0769  1.1821
   37CHL1   H1B 3890   0.801   0.306   3.633  0.5476  1.4674  0.5902
   37CHL1    C2 3891   0.674   0.300   3.452 -0.1425 -0.0233  0.2607
   37CHL1   H2A 3892   0.713   0.398   3.417 -1.9714  0.6709  0.0753
   37CHL1   H2B 3893   0.566   0.299   3.425  0.2443  3.0742 -1.9507
   37CHL1   C20 3894   0.673   0.112   4.372  0.1935 -0.1454 -0.3903
   37CHL1   H20 3895   0.579   0.054   4.388 -0.3615  0.5322 -1.0512
   37CHL1   C21 3896   0.637   0.263   4.376 -0.6950 -1.0983 -0.5832
   37CHL1  H21A 3897   0.550   0.282   4.310  0.2920  0.7230 -1.4143
   37CHL1  H21B 3898   0.723   0.326   4.344  1.6688 -3.0673  1.4357
   37CHL1  H21C 3899   0.606   0.294   4.479 -1.3283 -1.7119 -0.5819
   37CHL1   C22 3900   0.783   0.081   4.478 -0.5420  0.0811  0.5235
   37CHL1  H22A 3901   0.819  -0.022   4.463 -2.0880 -0.2268 -1.6014
   37CHL1  H22B 3902   0.864   0.153   4.456 -0.4168 -0.2584 -0.1312
   37CHL1   C23 3903   0.738   0.113   4.618 -0.1742  0.8407 -0.3391
   37CHL1  H23A 3904   0.825   0.088   4.682 -0.6852 -0.0853  0.0126
   37CHL1  H23B 3905   0.721   0.223   4.627  0.9454  1.4502 -3.7316
   37CHL1   C24 3906   0.625   0.026   4.666  0.0872  0.6221 -0.3885
   37CHL1  H24A 3907   0.536   0.060   4.610  0.0146  1.7773  0.3889
   37CHL1  H24B 3908   0.645  -0.081   4.646 -0.1186  0.8600 -1.9739
   37CHL1   C25 3909   0.605   0.051   4.814  0.5124  0.2943 -0.2100
   37CHL1   H25 3910   0.703   0.041   4.867  0.8554 -0.3917 -0.9463
   37CHL1   C26 3911   0.558   0.197   4.848  0.0563  0.5289 -0.0092
   37CHL1  H26A 3912   0.522   0.212   4.952  0.6705 -0.5350  0.3726
   37CHL1  H26B 3913   0.649   0.260   4.838  0.2518  0.2254 -0.1640
   37CHL1  H26C 3914   0.487   0.230   4.769 -0.1890  0.9566  0.3889
   37CHL1   C27 3915   0.501  -0.040   4.875 -0.0004  0.1401 -1.0049
   37CHL1  H27A 3916   0.476  -0.017   4.981 -2.7911 -0.9227 -1.3551
   37CHL1  H27B 3917   0.405  -0.026   4.821 -0.3638  0.8876 -0.1871
   37CHL1  H27C 3918   0.522  -0.147   4.857 -0.8842 -0.1120 -0.5810
   38CHL1    C3 3919   0.110   2.476   6.882  0.8789 -0.7400 -0.5052
   38CHL1    H3 3920   0.054   2.381   6.891 -0.7917  0.3505  1.8278
   38CHL1    O3 3921   0.156   2.503   7.011 -0.6509 -0.6935 -0.8198
   38CHL1   H3' 3922   0.206   2.585   7.011  1.2875 -1.8167 -1.7586
   38CHL1    C4 3923   0.220   2.478   6.780 -0.2807  0.4704  1.0677
   38CHL1   H4A 3924   0.281   2.571   6.784  1.4070 -0.2580 -2.9561
   38CHL1   H4B 3925   0.289   2.395   6.808  0.1771 -0.4438 -2.2957
   38CHL1    C5 3926   0.182   2.468   6.632  0.3458 -0.7510  0.0242
   38CHL1    C6 3927   0.233   2.376   6.559 -0.3191 -0.6385  0.4198
   38CHL1    H6 3928   0.311   2.311   6.602 -0.4491 -1.1010 -0.0358
   38CHL1    C7 3929   0.200   2.356   6.414 -0.0146 -0.2815 -0.4105
   38CHL1   H7A 3930   0.292   2.346   6.352 -0.6458 -2.5110 -1.0468
   38CHL1   H7B 3931   0.144   2.262   6.400  0.3641 -0.1653 -3.3154
   38CHL1    C8 3932   0.124   2.482   6.355 -0.0127 -0.7074 -0.3172
   38CHL1    H8 3933   0.197   2.564   6.342 -1.6638  0.6936 -1.1394
   38CHL1   C14 3934   0.060   2.448   6.226  0.4505 -0.0075  0.6314
   38CHL1   H14 3935  -0.020   2.378   6.255  1.2247 -0.5147  1.6246
   38CHL1   C15 3936   0.134   2.377   6.111 -0.5951  0.3909 -0.0089
   38CHL1  H15A 3937   0.236   2.420   6.110  0.2339 -1.4584  0.5341
   38CHL1  H15B 3938   0.153   2.268   6.128  0.4670  0.4932 -0.4754
   38CHL1   C16 3939   0.054   2.418   5.982  0.6491 -0.0015  0.1737
   38CHL1  H16A 3940   0.120   2.468   5.909 -0.5291 -0.1537 -1.0257
   38CHL1  H16B 3941   0.005   2.342   5.918 -2.4368  1.4539  0.6152
   38CHL1   C17 3942  -0.057   2.519   6.028 -0.7913 -0.0108 -0.4075
   38CHL1   H17 3943  -0.147   2.463   6.063 -2.5539  2.1602 -1.2013
   38CHL1   C13 3944  -0.010   2.576   6.165 -0.4057 -0.1118 -0.2630
   38CHL1   C18 3945   0.099   2.680   6.137  0.2161  0.1916  0.1292
   38CHL1  H18A 3946   0.140   2.720   6.231  0.1915 -3.0897  1.6627
   38CHL1  H18B 3947   0.175   2.644   6.065 -1.8482 -1.1332 -1.5388
   38CHL1  H18C 3948   0.059   2.770   6.085  1.9928 -0.0367 -1.7525
   38CHL1   C12 3949  -0.119   2.624   6.269  0.3337  0.2340  0.0839
   38CHL1  H12A 3950  -0.168   2.710   6.220  0.1973 -1.0269 -2.1287
   38CHL1  H12B 3951  -0.200   2.552   6.293  0.6457 -1.2703 -2.8999
   38CHL1   C11 3952  -0.055   2.662   6.400  0.0241  0.4624 -0.2754
   38CHL1  H11A 3953   0.013   2.748   6.381  1.8712 -0.7865  0.5000
   38CHL1  H11B 3954  -0.143   2.696   6.460 -1.2981  0.4556 -2.1267
   38CHL1    C9 3955   0.018   2.542   6.460 -0.5769 -0.1380 -0.6725
   38CHL1    H9 3956  -0.057   2.463   6.480 -2.6735  2.0645  0.6922
   38CHL1   C10 3957   0.077   2.574   6.601  0.4814  0.1924 -0.0578
   38CHL1   C19 3958   0.148   2.717   6.585  0.7455 -0.3036 -0.2285
   38CHL1  H19A 3959   0.206   2.726   6.491  1.7061  1.0321  0.4645
   38CHL1  H19B 3960   0.063   2.788   6.588  1.6368  0.7552  0.4949
   38CHL1  H19C 3961   0.216   2.746   6.668  0.4048  0.4810 -0.2214
   38CHL1    C1 3962  -0.037   2.570   6.714  0.3030  0.0279 -0.5766
   38CHL1   H1A 3963  -0.108   2.649   6.680 -0.3930 -0.4899 -0.3457
   38CHL1   H1B 3964  -0.096   2.476   6.709 -1.5473  1.1797 -1.5161
   38CHL1    C2 3965   0.011   2.595   6.854 -0.3115  0.3818  0.5840
   38CHL1   H2A 3966  -0.078   2.602   6.919 -0.1047  1.2225  0.7872
   38CHL1   H2B 3967   0.066   2.692   6.855  1.3727 -0.4467 -1.6066
   38CHL1   C20 3968  -0.111   2.608   5.918  0.1857 -0.1488  0.3369
   38CHL1   H20 3969  -0.034   2.685   5.897 -0.3954 -0.0594 -1.6577
   38CHL1   C21 3970  -0.232   2.685   5.966 -0.3042  0.1876  0.0295
   38CHL1  H21A 3971  -0.281   2.743   5.884  1.3619  1.5144 -0.0926
   38CHL1  H21B 3972  -0.198   2.766   6.033 -3.2282  0.2532  1.5799
   38CHL1  H21C 3973  -0.309   2.621   6.013  0.0423 -1.0022 -0.9358
   38CHL1   C22 3974  -0.148   2.535   5.781 -0.5460  0.0049 -0.0720
   38CHL1  H22A 3975  -0.056   2.481   5.749  0.6371  1.4360  0.8190
   38CHL1  H22B 3976  -0.229   2.459   5.791  0.9742 -1.6194  0.4876
   38CHL1   C23 3977  -0.189   2.624   5.653  0.1941  0.2461 -1.1917
   38CHL1  H23A 3978  -0.279   2.686   5.672  0.5717  0.0439  1.8258
   38CHL1  H23B 3979  -0.108   2.697   5.633  0.0378  0.9867  0.6274
   38CHL1   C24 3980  -0.213   2.535   5.526  1.0603 -0.1240 -0.8000
   38CHL1  H24A 3981  -0.207   2.599   5.436 -1.3424  0.0731 -0.8809
   38CHL1  H24B 3982  -0.122   2.472   5.518  1.5195  0.6323 -1.7692
   38CHL1   C25 3983  -0.338   2.444   5.516  1.3244  0.0380 -0.1066
   38CHL1   H25 3984  -0.338   2.370   5.599 -2.6420  1.2103  1.1270
   38CHL1   C26 3985  -0.465   2.534   5.528 -0.0033 -0.1145 -0.1163
   38CHL1  H26A 3986  -0.476   2.585   5.430 -0.3043  0.2989  0.1288
   38CHL1  H26B 3987  -0.551   2.468   5.552  0.7929 -1.1034  0.1220
   38CHL1  H26C 3988  -0.461   2.604   5.614  1.2793  1.7648 -1.6487
   38CHL1   C27 3989  -0.336   2.359   5.385 -0.0454  0.0954  0.4327
   38CHL1  H27A 3990  -0.352   2.420   5.294  0.7240  2.2941  1.6973
   38CHL1  H27B 3991  -0.236   2.316   5.362  0.8157  1.6688  1.0965
   38CHL1  H27C 3992  -0.411   2.278   5.393  1.3155 -1.1071  1.5152
   39CHL1    C3 3993   5.892   1.549   7.137 -0.5249  0.7184 -0.6670
   39CHL1    H3 3994   5.842   1.464   7.086 -0.4991  0.8195 -0.8612
   39CHL1    O3 3995   5.892   1.532   7.279  0.0819 -0.4841 -0.3470
   39CHL1   H3' 3996   5.986   1.528   7.296  0.7797  0.5910 -3.2856
   39CHL1    C4 3997   6.042   1.553   7.094  0.0159  0.2445  0.0952
   39CHL1   H4A 3998   6.098   1.633   7.147  1.6755 -0.5698 -0.3629
   39CHL1   H4B 3999   6.091   1.457   7.120 -0.3901  0.0637  0.2029
   39CHL1    C5 4000   6.063   1.580   6.948  0.7317 -0.6796 -0.4928
   39CHL1    C6 4001   6.133   1.501   6.875 -0.3938  0.7958  0.4178
   39CHL1    H6 4002   6.183   1.410   6.912  0.9085  0.2071 -2.4452
   39CHL1    C7 4003   6.165   1.531   6.729 -0.2032  0.5465  0.3297
   39CHL1   H7A 4004   6.272   1.504   6.713 -0.3134  0.1268  0.2663
   39CHL1   H7B 4005   6.121   1.453   6.663 -1.7901 -0.0279  1.9723
   39CHL1    C8 4006   6.136   1.674   6.680  0.2574 -0.0139 -0.2422
   39CHL1    H8 4007   6.215   1.745   6.713 -2.4789  2.4003  1.5945
   39CHL1   C14 4008   6.133   1.674   6.529 -0.2623 -0.4265 -0.0687
   39CHL1   H14 4009   6.049   1.606   6.503  0.6236 -0.4563 -3.2510
   39CHL1   C15 4010   6.247   1.618   6.446 -0.4742  0.2626 -0.5235
   39CHL1  H15A 4011   6.347   1.655   6.478 -0.4127 -1.7342  1.8455
   39CHL1  H15B 4012   6.263   1.509   6.455  0.2623  0.5197  1.9217
   39CHL1   C16 4013   6.226   1.675   6.302 -0.0118  0.1559  0.3082
   39CHL1  H16A 4014   6.326   1.711   6.269 -0.2831 -1.2930 -2.3492
   39CHL1  H16B 4015   6.187   1.600   6.230  1.2385 -0.7399  0.5145
   39CHL1   C17 4016   6.109   1.784   6.319  0.5167  0.3428 -0.0279
   39CHL1   H17 4017   6.016   1.734   6.286  1.8853 -1.8561 -0.7186
   39CHL1   C13 4018   6.099   1.808   6.469  0.6397 -1.0970  0.4123
   39CHL1   C18 4019   6.208   1.920   6.506  0.0845 -0.4219 -0.0816
   39CHL1  H18A 4020   6.298   1.915   6.442 -1.2021  1.3570 -2.1388
   39CHL1  H18B 4021   6.164   2.020   6.487  0.7032 -0.3248 -1.0721
   39CHL1  H18C 4022   6.241   1.924   6.612  1.4857 -2.1928 -0.4080
   39CHL1   C12 4023   5.968   1.864   6.523  0.2556  0.2831 -0.1323
   39CHL1  H12A 4024   5.945   1.967   6.489  0.0690 -0.4670 -2.4883
   39CHL1  H12B 4025   5.890   1.801   6.476 -0.5430  0.2791  1.1634
   39CHL1   C11 4026   5.968   1.862   6.680  0.3820  0.3101  0.7682
   39CHL1  H11A 4027   6.041   1.934   6.723  0.2876  0.8413  0.0547
   39CHL1  H11B 4028   5.865   1.885   6.714 -0.5412 -0.6161 -1.2670
   39CHL1    C9 4029   6.003   1.720   6.740 -0.3753 -0.3023  0.6130
   39CHL1    H9 4030   5.923   1.653   6.702  0.6516 -0.7859 -0.7697
   39CHL1   C10 4031   6.003   1.713   6.897  0.0159 -0.1841 -0.2080
   39CHL1   C19 4032   6.071   1.835   6.958  0.7649 -0.5735  0.4136
   39CHL1  H19A 4033   6.010   1.924   6.934  1.4716  0.1399  1.1811
   39CHL1  H19B 4034   6.079   1.823   7.068 -0.7359 -2.1037  0.3955
   39CHL1  H19C 4035   6.172   1.842   6.912  1.4566  1.0721  2.0605
   39CHL1    C1 4036   5.849   1.721   6.956 -0.4241  0.0904 -0.1119
   39CHL1   H1A 4037   5.811   1.823   6.937  1.3013  0.5782 -1.1504
   39CHL1   H1B 4038   5.788   1.656   6.889 -0.3372 -0.9125  0.7496
   39CHL1    C2 4039   5.826   1.684   7.099 -0.0534 -0.6835 -1.1309
   39CHL1   H2A 4040   5.720   1.678   7.130 -0.2319  0.7854 -1.3871
   39CHL1   H2B 4041   5.875   1.765   7.157  1.5744 -2.7542  0.5335
   39CHL1   C20 4042   6.125   1.896   6.217 -0.7126  0.1763  0.1332
   39CHL1   H20 4043   6.219   1.949   6.245 -0.1125 -0.6431 -0.2707
   39CHL1   C21 4044   6.002   1.993   6.222  0.4831  0.1445 -0.2002
   39CHL1  H21A 4045   5.912   1.929   6.223  1.1717 -0.8726 -0.7694
   39CHL1  H21B 4046   6.003   2.053   6.129 -1.8343  0.9602  0.2488
   39CHL1  H21C 4047   6.007   2.059   6.312  0.2564 -0.0074 -0.0768
   39CHL1   C22 4048   6.154   1.848   6.070 -0.0965 -0.4204  0.0386
   39CHL1  H22A 4049   6.168   1.939   6.008  0.9493  0.3314  1.3447
   39CHL1  H22B 4050   6.250   1.793   6.067  0.1252 -0.0026 -0.7678
   39CHL1   C23 4051   6.042   1.762   6.001  0.7240 -0.2174  1.1314
   39CHL1  H23A 4052   5.991   1.688   6.067  0.3460  0.7799  1.9986
   39CHL1  H23B 4053   5.966   1.830   5.957  0.7756 -0.5807  0.4699
   39CHL1   C24 4054   6.089   1.686   5.877 -0.1282  0.2671  0.1590
   39CHL1  H24A 4055   6.185   1.641   5.907 -1.3459 -0.0786  4.0970
   39CHL1  H24B 4056   6.018   1.601   5.865  0.8208 -0.3551 -1.2189
   39CHL1   C25 4057   6.093   1.753   5.740  0.0722 -0.1090  0.4611
   39CHL1   H25 4058   5.990   1.775   5.704 -0.4181  2.2319  2.9780
   39CHL1   C26 4059   6.152   1.890   5.728  0.2920  0.2193 -0.1160
   39CHL1  H26A 4060   6.256   1.871   5.762  0.4419  1.0924 -0.0511
   39CHL1  H26B 4061   6.158   1.911   5.619  1.2659  0.1879 -0.0796
   39CHL1  H26C 4062   6.108   1.971   5.789 -1.1150 -0.3801 -0.3110
   39CHL1   C27 4063   6.181   1.660   5.651  0.1736  0.5913  0.1118
   39CHL1  H27A 4064   6.289   1.663   5.676  0.2925 -0.3587 -0.2423
   39CHL1  H27B 4065   6.147   1.556   5.667 -2.1116  1.4368  1.1093
   39CHL1  H27C 4066   6.164   1.683   5.544  1.1370 -0.2872 -0.2495
   40CHL1    C3 4067   3.445   1.162   6.884  0.1429  0.0812 -0.0957
   40CHL1    H3 4068   3.523   1.082   6.879  2.1378  1.9936 -1.8900
   40CHL1    O3 4069   3.427   1.208   7.014  0.5041 -1.4354  0.3070
   40CHL1   H3' 4070   3.400   1.130   7.064 -2.9007 -0.0819  0.7976
   40CHL1    C4 4071   3.494   1.280   6.800  0.0790  0.0186  0.3766
   40CHL1   H4A 4072   3.434   1.372   6.816  0.9774  0.4923  1.1459
   40CHL1   H4B 4073   3.596   1.302   6.839  0.0334 -0.8952  1.0380
   40CHL1    C5 4074   3.495   1.244   6.657  0.1271 -0.0789  0.5469
   40CHL1    C6 4075   3.604   1.251   6.572  0.9316  0.0782  0.0696
   40CHL1    H6 4076   3.695   1.284   6.624  1.7729 -3.0059  0.7713
   40CHL1    C7 4077   3.603   1.220   6.425  0.2388 -0.0174  0.3700
   40CHL1   H7A 4078   3.657   1.303   6.376  0.6550 -0.2105  0.4925
   40CHL1   H7B 4079   3.654   1.122   6.408 -1.0733 -0.7538  0.5709
   40CHL1    C8 4080   3.459   1.210   6.372  0.4945  0.5511  0.7503
   40CHL1    H8 4081   3.434   1.318   6.371  1.5993  0.8552 -1.5874
   40CHL1   C14 4082   3.463   1.152   6.233  0.0942  0.7634 -1.0457
   40CHL1   H14 4083   3.503   1.050   6.251  1.3168  1.3060 -0.6180
   40CHL1   C15 4084   3.561   1.214   6.131  0.1910  0.5965  0.5527
   40CHL1  H15A 4085   3.548   1.323   6.147  1.0321  0.7599  0.2193
   40CHL1  H15B 4086   3.665   1.193   6.167 -0.4277  1.0880  2.8268
   40CHL1   C16 4087   3.515   1.156   5.997 -0.4262 -0.2270  0.3365
   40CHL1  H16A 4088   3.507   1.241   5.926 -2.0228 -0.0273  0.7109
   40CHL1  H16B 4089   3.589   1.089   5.950 -0.0221 -1.5517  2.7203
   40CHL1   C17 4090   3.386   1.073   6.028  0.4818 -0.1009  0.5710
   40CHL1   H17 4091   3.411   0.972   6.068  2.9499  0.4763  0.6536
   40CHL1   C13 4092   3.333   1.133   6.157  0.4993 -0.1943  0.7557
   40CHL1   C18 4093   3.264   1.273   6.134  0.3819 -0.1465 -0.0852
   40CHL1  H18A 4094   3.335   1.335   6.075  1.4361 -0.8991  0.3681
   40CHL1  H18B 4095   3.168   1.271   6.077  1.0328  0.5369 -1.2579
   40CHL1  H18C 4096   3.245   1.322   6.231  0.5083  1.0713 -0.6555
   40CHL1   C12 4097   3.237   1.054   6.249 -0.4301  0.0589 -0.4750
   40CHL1  H12A 4098   3.135   1.036   6.208 -1.3842  0.7329  1.5006
   40CHL1  H12B 4099   3.289   0.957   6.266 -1.4805 -0.0778  2.5500
   40CHL1   C11 4100   3.220   1.112   6.395  0.1038 -0.2365 -0.0901
   40CHL1  H11A 4101   3.164   1.208   6.389 -0.4406 -0.4187  1.5218
   40CHL1  H11B 4102   3.162   1.038   6.454 -1.1486 -0.0588 -1.0427
   40CHL1    C9 4103   3.356   1.136   6.462 -0.3920  0.2086  0.0793
   40CHL1    H9 4104   3.402   1.035   6.464 -0.3870  0.2135  1.6198
   40CHL1   C10 4105   3.354   1.198   6.609 -0.1132 -0.5533  0.9956
   40CHL1   C19 4106   3.257   1.321   6.608  0.2750  0.3747 -0.6427
   40CHL1  H19A 4107   3.286   1.398   6.533 -1.7954 -0.0014 -1.9009
   40CHL1  H19B 4108   3.152   1.290   6.590  0.6697 -1.2893 -0.2962
   40CHL1  H19C 4109   3.256   1.356   6.713 -0.7619 -1.6825  0.0824
   40CHL1    C1 4110   3.302   1.081   6.699  0.2835 -0.7876  0.7439
   40CHL1   H1A 4111   3.201   1.051   6.667  0.5903 -0.6917 -0.3447
   40CHL1   H1B 4112   3.374   0.999   6.677 -1.3172 -1.9621 -0.2714
   40CHL1    C2 4113   3.308   1.107   6.848 -0.0189 -0.5104  0.8638
   40CHL1   H2A 4114   3.278   1.019   6.909 -1.8404 -0.3011  0.3410
   40CHL1   H2B 4115   3.229   1.184   6.867  1.9883  1.4321  1.8385
   40CHL1   C20 4116   3.282   1.062   5.923 -0.0031 -0.4829  0.3142
   40CHL1   H20 4117   3.184   1.039   5.969 -1.2817  1.8339 -1.0908
   40CHL1   C21 4118   3.319   0.941   5.838 -0.7533 -0.2701 -0.4524
   40CHL1  H21A 4119   3.409   0.963   5.776  0.4912 -0.0446  1.3726
   40CHL1  H21B 4120   3.240   0.916   5.764 -0.1548 -1.1572 -0.8152
   40CHL1  H21C 4121   3.326   0.850   5.901 -1.1895 -0.4438 -0.6507
   40CHL1   C22 4122   3.255   1.190   5.827  0.1002 -0.2254  0.3942
   40CHL1  H22A 4123   3.265   1.283   5.886 -1.3784 -0.7431  1.5132
   40CHL1  H22B 4124   3.338   1.201   5.754 -0.6063 -0.2266 -0.4437
   40CHL1   C23 4125   3.130   1.183   5.749  0.6460 -0.1028  0.3686
   40CHL1  H23A 4126   3.115   1.088   5.695 -0.1514 -0.1469  0.6490
   40CHL1  H23B 4127   3.040   1.188   5.815 -0.6062 -0.4152 -1.2606
   40CHL1   C24 4128   3.114   1.308   5.652  0.2113 -0.3987 -0.6196
   40CHL1  H24A 4129   3.157   1.394   5.706  1.8552 -1.2579 -0.4996
   40CHL1  H24B 4130   3.192   1.296   5.574  0.3984 -1.5207 -0.2879
   40CHL1   C25 4131   2.966   1.337   5.601 -0.0577 -0.2815 -0.2208
   40CHL1   H25 4132   2.904   1.277   5.670  1.4544 -0.6362  0.8873
   40CHL1   C26 4133   2.914   1.491   5.613 -0.8551  0.2327 -0.2125
   40CHL1  H26A 4134   2.839   1.513   5.534  0.8050 -0.9923 -2.2453
   40CHL1  H26B 4135   2.874   1.493   5.717 -1.2429 -1.0871 -0.3127
   40CHL1  H26C 4136   3.011   1.543   5.599  0.3989 -2.4757 -2.4756
   40CHL1   C27 4137   2.947   1.291   5.453  0.3615  0.3151  0.4649
   40CHL1  H27A 4138   2.847   1.317   5.413  0.5435 -0.8684 -0.8596
   40CHL1  H27B 4139   3.025   1.338   5.390 -0.4987  0.5209 -0.4728
   40CHL1  H27C 4140   2.960   1.181   5.450  1.0964  0.4122 -0.0868
   41CHL1    C3 4141   6.313   4.746   7.046 -0.1816 -0.1973  0.6459
   41CHL1    H3 4142   6.256   4.653   7.028  1.6326 -1.0748 -1.0264
   41CHL1    O3 4143   6.319   4.781   7.182 -0.5528  0.2817  0.3896
   41CHL1   H3' 4144   6.331   4.877   7.187  0.1416  0.3546 -1.7315
   41CHL1    C4 4145   6.454   4.742   7.000  0.2850 -0.3835 -0.7693
   41CHL1   H4A 4146   6.508   4.833   7.034  0.1208  0.4061 -2.4972
   41CHL1   H4B 4147   6.502   4.655   7.048 -0.1291 -0.1487  0.0867
   41CHL1    C5 4148   6.464   4.742   6.848 -1.1826 -0.0356 -0.3082
   41CHL1    C6 4149   6.543   4.644   6.798 -0.6870  0.8874 -0.6581
   41CHL1    H6 4150   6.593   4.578   6.870  0.2431 -1.4746 -3.2786
   41CHL1    C7 4151   6.547   4.612   6.648 -1.0386  0.0527 -0.3876
   41CHL1   H7A 4152   6.653   4.588   6.624 -1.0880 -0.2697 -0.2893
   41CHL1   H7B 4153   6.503   4.515   6.614 -2.1109  0.3980 -0.0116
   41CHL1    C8 4154   6.509   4.734   6.562 -0.1041 -0.7380  0.0311
   41CHL1    H8 4155   6.588   4.811   6.571 -0.9518  0.1739 -0.1599
   41CHL1   C14 4156   6.504   4.700   6.415 -0.0689 -0.9994  0.4842
   41CHL1   H14 4157   6.414   4.636   6.399 -0.4586 -0.3121 -0.1158
   41CHL1   C15 4158   6.616   4.622   6.349  0.5349  0.3103 -0.1866
   41CHL1  H15A 4159   6.711   4.656   6.396  1.5545 -0.1989 -1.7901
   41CHL1  H15B 4160   6.591   4.515   6.364  1.2753  0.3463  1.6371
   41CHL1   C16 4161   6.619   4.671   6.201  1.3085 -0.2171  0.1910
   41CHL1  H16A 4162   6.710   4.730   6.175  0.8764  0.0753 -0.6970
   41CHL1  H16B 4163   6.624   4.581   6.137 -2.0601 -0.5828  0.2467
   41CHL1   C17 4164   6.496   4.760   6.185  0.1329  0.6105 -0.0638
   41CHL1   H17 4165   6.407   4.694   6.174  0.0744  0.1721  2.4649
   41CHL1   C13 4166   6.472   4.830   6.328 -0.1620  0.7717 -0.5351
   41CHL1   C18 4167   6.578   4.947   6.345  0.2878  0.0775 -0.6874
   41CHL1  H18A 4168   6.681   4.913   6.325  1.4415  3.3409 -0.8169
   41CHL1  H18B 4169   6.557   5.017   6.262  1.0390 -1.1288 -1.9379
   41CHL1  H18C 4170   6.576   4.977   6.452 -1.2297 -0.8595 -0.4111
   41CHL1   C12 4171   6.327   4.868   6.375 -0.1786  0.0671  0.1987
   41CHL1  H12A 4172   6.281   4.952   6.319  0.7895  1.0492  0.8334
   41CHL1  H12B 4173   6.270   4.775   6.354  2.2655 -1.6299  0.5734
   41CHL1   C11 4174   6.325   4.910   6.519  0.2023  0.0483 -0.2642
   41CHL1  H11A 4175   6.389   5.000   6.527  0.0021  0.1133  0.9035
   41CHL1  H11B 4176   6.221   4.936   6.548 -0.1223  0.6514 -1.8679
   41CHL1    C9 4177   6.378   4.800   6.618  0.1093 -0.5126 -0.2979
   41CHL1    H9 4178   6.306   4.715   6.619  1.0743 -1.3389  0.9830
   41CHL1   C10 4179   6.376   4.843   6.767 -0.6780  0.1747  1.2568
   41CHL1   C19 4180   6.441   4.984   6.779 -0.5957 -0.1667 -0.9608
   41CHL1  H19A 4181   6.375   5.057   6.728 -1.6355 -0.3117  0.1248
   41CHL1  H19B 4182   6.436   5.005   6.888 -0.8870  0.3921 -1.0798
   41CHL1  H19C 4183   6.543   4.993   6.736 -0.6456 -1.8204 -1.4932
   41CHL1    C1 4184   6.225   4.841   6.821 -0.1908 -0.1131 -0.5650
   41CHL1   H1A 4185   6.156   4.916   6.776 -1.1002 -0.0911  0.8014
   41CHL1   H1B 4186   6.179   4.741   6.810 -1.7242  0.3027  1.4925
   41CHL1    C2 4187   6.231   4.859   6.973 -0.5766  0.0786  0.2077
   41CHL1   H2A 4188   6.127   4.874   7.009 -0.1330  1.3032  1.0092
   41CHL1   H2B 4189   6.280   4.953   7.004 -1.6604  0.7300 -0.0059
   41CHL1   C20 4190   6.499   4.858   6.076 -0.4313 -0.1409  0.5001
   41CHL1   H20 4191   6.585   4.926   6.091  0.0353 -0.5025 -0.4978
   41CHL1   C21 4192   6.383   4.955   6.067  0.4289  0.3743 -0.2231
   41CHL1  H21A 4193   6.400   5.020   5.979 -2.1301  1.1734 -0.2082
   41CHL1  H21B 4194   6.373   5.021   6.155 -0.8941  0.4874 -0.4363
   41CHL1  H21C 4195   6.285   4.901   6.060 -1.2865  2.2844  4.8204
   41CHL1   C22 4196   6.507   4.786   5.937 -0.1230  0.3273  0.4766
   41CHL1  H22A 4197   6.449   4.692   5.953 -1.1875  1.1876  2.0280
   41CHL1  H22B 4198   6.446   4.830   5.855 -0.0868 -2.7901 -1.3738
   41CHL1   C23 4199   6.652   4.758   5.887  0.4023  0.0165 -0.6204
   41CHL1  H23A 4200   6.684   4.861   5.859  1.8195 -0.8884 -2.5985
   41CHL1  H23B 4201   6.720   4.717   5.964 -1.3117  1.1332  1.5949
   41CHL1   C24 4202   6.647   4.667   5.762  0.1581 -0.0817 -0.1487
   41CHL1  H24A 4203   6.626   4.560   5.784 -0.7041  0.4152  1.6016
   41CHL1  H24B 4204   6.585   4.714   5.683  0.5396  1.2904  0.3489
   41CHL1   C25 4205   6.785   4.644   5.714  0.1541 -0.9461  0.6211
   41CHL1   H25 4206   6.850   4.591   5.787  0.6005  1.6983  2.2512
   41CHL1   C26 4207   6.779   4.555   5.581 -0.3087  0.5668  0.2881
   41CHL1  H26A 4208   6.719   4.602   5.500  1.0717  1.9159  0.0077
   41CHL1  H26B 4209   6.878   4.522   5.545  0.3219  1.6282  0.9836
   41CHL1  H26C 4210   6.728   4.460   5.607  4.7297 -2.2195  1.2316
   41CHL1   C27 4211   6.843   4.777   5.664 -0.5934 -0.6039 -0.2422
   41CHL1  H27A 4212   6.926   4.752   5.595 -0.4115  0.2328 -0.3412
   41CHL1  H27B 4213   6.768   4.832   5.603 -0.9514  2.1474  2.4126
   41CHL1  H27C 4214   6.880   4.850   5.739 -0.3395 -0.4171 -0.5485
   42CHL1    C3 4215   3.328   3.603   7.239 -0.2410 -0.5123 -0.2153
   42CHL1    H3 4216   3.398   3.666   7.179 -1.4053  0.6379 -0.4130
   42CHL1    O3 4217   3.352   3.599   7.374  0.2656  0.1012 -0.2086
   42CHL1   H3' 4218   3.383   3.686   7.400 -1.5656  0.3016  1.4744
   42CHL1    C4 4219   3.196   3.671   7.226  0.4374 -0.0194 -0.3172
   42CHL1   H4A 4220   3.115   3.611   7.273 -0.7123  1.1725 -0.7356
   42CHL1   H4B 4221   3.197   3.767   7.282 -0.9732  0.6648 -1.4242
   42CHL1    C5 4222   3.145   3.692   7.085  0.2005 -0.2308  0.1097
   42CHL1    C6 4223   3.127   3.808   7.028  0.7248 -0.7657 -0.0715
   42CHL1    H6 4224   3.134   3.899   7.089 -1.4015 -0.0768 -0.7651
   42CHL1    C7 4225   3.104   3.839   6.883  0.0244 -0.1367 -0.6536
   42CHL1   H7A 4226   3.012   3.901   6.869 -0.2342  0.0084  1.4123
   42CHL1   H7B 4227   3.186   3.906   6.848  0.6762 -0.6672 -0.1477
   42CHL1    C8 4228   3.088   3.708   6.803 -0.2247  0.2553 -0.3260
   42CHL1    H8 4229   2.985   3.671   6.824 -1.3859  2.8752 -0.9393
   42CHL1   C14 4230   3.104   3.735   6.658  0.3626 -0.4387  0.5397
   42CHL1   H14 4231   3.210   3.763   6.641  0.9796 -3.0529 -0.3222
   42CHL1   C15 4232   3.022   3.854   6.599  0.4732 -0.0826  0.8682
   42CHL1  H15A 4233   2.916   3.868   6.631  1.1275  0.0656  3.1391
   42CHL1  H15B 4234   3.071   3.953   6.615 -0.4215  0.3971  0.6868
   42CHL1   C16 4235   3.010   3.832   6.445 -0.1922  0.2153 -0.5578
   42CHL1  H16A 4236   2.904   3.855   6.422 -1.1969 -1.5804  1.8231
   42CHL1  H16B 4237   3.079   3.891   6.381  0.7185 -0.2680 -0.0570
   42CHL1   C17 4238   3.066   3.687   6.421 -0.1687 -0.8604  0.7189
   42CHL1   H17 4239   3.175   3.699   6.401  0.4034 -3.0022  2.2284
   42CHL1   C13 4240   3.065   3.620   6.560  0.3305  0.9246  0.0479
   42CHL1   C18 4241   2.917   3.571   6.596  0.4755 -0.3540  0.2410
   42CHL1  H18A 4242   2.902   3.537   6.700 -1.0208 -0.2548  0.0774
   42CHL1  H18B 4243   2.841   3.645   6.563  0.1499  0.4032  2.5241
   42CHL1  H18C 4244   2.894   3.473   6.550 -1.4472  0.3675 -0.4466
   42CHL1   C12 4245   3.158   3.497   6.588 -0.3529 -0.7631 -0.4216
   42CHL1  H12A 4246   3.124   3.403   6.540  2.0015 -0.8727 -2.0348
   42CHL1  H12B 4247   3.263   3.516   6.559  0.2255  1.1577  2.4625
   42CHL1   C11 4248   3.160   3.471   6.746 -0.4564  0.1711  0.6377
   42CHL1  H11A 4249   3.056   3.434   6.763 -0.2931  0.0117  1.3452
   42CHL1  H11B 4250   3.237   3.393   6.766  0.8330  1.0350 -0.8169
   42CHL1    C9 4251   3.186   3.596   6.839  0.3415 -0.2597 -0.3987
   42CHL1    H9 4252   3.285   3.637   6.811 -0.0464  0.9416 -0.0885
   42CHL1   C10 4253   3.166   3.567   6.990 -0.5477 -0.1583 -0.3314
   42CHL1   C19 4254   3.036   3.483   7.018 -0.0804 -0.3577  0.1341
   42CHL1  H19A 4255   3.024   3.445   7.122  0.2815 -2.8770 -0.6606
   42CHL1  H19B 4256   2.950   3.545   6.985  1.2309  1.9015  0.7326
   42CHL1  H19C 4257   3.040   3.382   6.971  2.2517 -0.9966  1.5085
   42CHL1    C1 4258   3.290   3.486   7.031 -0.1614  0.1236  0.6751
   42CHL1   H1A 4259   3.280   3.384   6.987 -1.2780  0.1263  0.8988
   42CHL1   H1B 4260   3.380   3.534   6.987  0.2984 -0.2190  1.2329
   42CHL1    C2 4261   3.325   3.466   7.178 -0.3037 -0.9077 -0.0702
   42CHL1   H2A 4262   3.425   3.419   7.190 -0.7285 -1.5756  1.0277
   42CHL1   H2B 4263   3.241   3.404   7.217 -1.6726  1.1730  0.4516
   42CHL1   C20 4264   2.988   3.626   6.302  0.3684 -0.1192  0.6403
   42CHL1   H20 4265   2.879   3.640   6.317  0.0388 -1.1745 -0.6264
   42CHL1   C21 4266   3.025   3.475   6.298 -0.3433  0.0600  0.2344
   42CHL1  H21A 4267   3.132   3.448   6.287 -0.4190 -0.0980 -0.1439
   42CHL1  H21B 4268   2.976   3.430   6.209  1.4309 -1.8688  0.1560
   42CHL1  H21C 4269   2.986   3.422   6.388  1.1061  1.3499  1.6775
   42CHL1   C22 4270   3.032   3.701   6.170 -0.1680  0.0120  0.0267
   42CHL1  H22A 4271   3.046   3.809   6.187 -2.9523  0.4040  0.2316
   42CHL1  H22B 4272   3.127   3.657   6.132  0.4860 -0.4024  2.0163
   42CHL1   C23 4273   2.918   3.686   6.062  0.2533 -0.2550  0.0396
   42CHL1  H23A 4274   2.912   3.577   6.041  1.3502 -0.5654  1.2083
   42CHL1  H23B 4275   2.827   3.723   6.113 -0.2606 -0.4465 -0.7279
   42CHL1   C24 4276   2.949   3.765   5.938 -0.2300 -0.1317 -0.4675
   42CHL1  H24A 4277   2.970   3.872   5.963  1.7433 -0.3891 -0.8707
   42CHL1  H24B 4278   3.045   3.725   5.901 -0.4000 -0.9102 -0.0699
   42CHL1   C25 4279   2.832   3.759   5.834  0.3932 -0.9670 -0.3169
   42CHL1   H25 4280   2.802   3.654   5.814  0.4538 -0.8241 -1.2204
   42CHL1   C26 4281   2.709   3.846   5.864  0.2267 -0.5387 -0.5963
   42CHL1  H26A 4282   2.743   3.952   5.861 -1.5190  0.1441  1.2621
   42CHL1  H26B 4283   2.631   3.835   5.786  1.0795  1.4857 -1.8285
   42CHL1  H26C 4284   2.659   3.819   5.959 -1.4346  2.6062 -0.4342
   42CHL1   C27 4285   2.889   3.820   5.711  0.2473 -0.2623  1.3434
   42CHL1  H27A 4286   2.816   3.815   5.627  0.0248 -0.9828  1.5651
   42CHL1  H27B 4287   2.911   3.928   5.718  2.1825 -0.1330 -3.2754
   42CHL1  H27C 4288   2.977   3.760   5.680  1.4830  2.4527 -0.7455
   43CHL1    C3 4289   4.651   3.847   7.276  0.9702 -0.4584 -0.0579
   43CHL1    H3 4290   4.714   3.938   7.272 -0.8018  0.7972 -1.5761
   43CHL1    O3 4291   4.684   3.783   7.398  0.3085  0.1750 -0.0664
   43CHL1   H3' 4292   4.615   3.720   7.422  0.4188  0.8721  2.3013
   43CHL1    C4 4293   4.499   3.879   7.253 -0.9244 -0.0180  0.1956
   43CHL1   H4A 4294   4.438   3.789   7.274  0.1281 -0.8555 -0.2732
   43CHL1   H4B 4295   4.456   3.954   7.323  0.0498 -0.4644  1.2832
   43CHL1    C5 4296   4.464   3.908   7.110 -0.5893  0.4426  0.1988
   43CHL1    C6 4297   4.395   4.015   7.066  0.1007 -0.2142 -0.3299
   43CHL1    H6 4298   4.345   4.083   7.137 -1.2991  0.0992 -1.5602
   43CHL1    C7 4299   4.364   4.044   6.923  0.1439 -0.5873 -0.5909
   43CHL1   H7A 4300   4.261   4.084   6.916 -0.7022 -2.5967 -0.3200
   43CHL1   H7B 4301   4.426   4.130   6.889 -0.2586 -0.8111 -1.9414
   43CHL1    C8 4302   4.386   3.928   6.819  0.1800  0.9060  0.0490
   43CHL1    H8 4303   4.305   3.854   6.840  1.0299  0.1086  0.6140
   43CHL1   C14 4304   4.384   3.973   6.675  0.3254 -0.4162 -0.3975
   43CHL1   H14 4305   4.461   4.053   6.672 -0.3315  0.2869  0.6773
   43CHL1   C15 4306   4.258   4.048   6.632  0.5523 -0.6286  0.4631
   43CHL1  H15A 4307   4.172   3.984   6.661 -0.7343 -0.0915 -1.9555
   43CHL1  H15B 4308   4.245   4.149   6.676 -1.2298 -0.1410 -1.0687
   43CHL1   C16 4309   4.283   4.049   6.481 -0.2923 -0.1495 -0.5855
   43CHL1  H16A 4310   4.192   3.994   6.452 -0.3989  0.0902 -0.7061
   43CHL1  H16B 4311   4.287   4.145   6.425 -2.4550 -0.2305 -0.9461
   43CHL1   C17 4312   4.405   3.958   6.440 -0.3617  0.1324 -0.3792
   43CHL1   H17 4313   4.490   4.029   6.448 -1.4332  1.2327  3.3661
   43CHL1   C13 4314   4.418   3.873   6.565 -0.5650  0.1302 -0.4162
   43CHL1   C18 4315   4.316   3.760   6.553  0.4903  0.3283 -0.1358
   43CHL1  H18A 4316   4.347   3.683   6.479 -1.8359 -1.4538  0.6339
   43CHL1  H18B 4317   4.313   3.712   6.653 -1.5107 -1.4981 -0.9896
   43CHL1  H18C 4318   4.218   3.800   6.518  0.3500  0.1231  0.0286
   43CHL1   C12 4319   4.558   3.816   6.595 -0.1785 -0.0002  0.2818
   43CHL1  H12A 4320   4.580   3.734   6.524  0.6673 -0.7533  1.3923
   43CHL1  H12B 4321   4.639   3.891   6.583  2.1549 -2.0833  1.9644
   43CHL1   C11 4322   4.563   3.764   6.736 -0.0518 -0.1991  0.7300
   43CHL1  H11A 4323   4.502   3.671   6.735 -0.6160  0.0026 -3.9753
   43CHL1  H11B 4324   4.665   3.726   6.760 -0.3133 -1.1649  0.3631
   43CHL1    C9 4325   4.517   3.866   6.848 -0.6672  0.3082  0.6598
   43CHL1    H9 4326   4.590   3.949   6.842 -0.5952  0.2813  1.1273
   43CHL1   C10 4327   4.534   3.818   7.000 -0.0803  0.5246 -0.0693
   43CHL1   C19 4328   4.472   3.680   7.009 -0.3369  0.8015  0.2505
   43CHL1  H19A 4329   4.481   3.638   7.111  0.1971  0.8985  0.2444
   43CHL1  H19B 4330   4.362   3.679   6.994 -0.4165 -2.1400  0.5767
   43CHL1  H19C 4331   4.511   3.612   6.931  1.4487  2.2658 -0.2184
   43CHL1    C1 4332   4.683   3.810   7.032 -0.2438  0.4053 -0.4374
   43CHL1   H1A 4333   4.729   3.740   6.959 -1.1765 -1.9260  1.0578
   43CHL1   H1B 4334   4.732   3.908   7.014  1.3217 -0.4460 -0.9609
   43CHL1    C2 4335   4.711   3.755   7.168 -0.8566 -0.7864  0.2448
   43CHL1   H2A 4336   4.821   3.748   7.183 -1.0170 -2.9671  0.7343
   43CHL1   H2B 4337   4.668   3.654   7.184 -1.6011 -0.7957 -1.6028
   43CHL1   C20 4338   4.391   3.904   6.299  0.7497  0.0527  0.0529
   43CHL1   H20 4339   4.312   3.826   6.303 -0.9568  1.7553  1.4491
   43CHL1   C21 4340   4.518   3.835   6.264 -0.4224  0.7235 -0.5181
   43CHL1  H21A 4341   4.513   3.830   6.153 -1.6266  0.4939 -0.4721
   43CHL1  H21B 4342   4.526   3.729   6.297  1.2954  1.6783  2.4591
   43CHL1  H21C 4343   4.600   3.891   6.314 -0.9900 -0.5320  1.9615
   43CHL1   C22 4344   4.353   4.011   6.185  0.5334  0.2401  1.0004
   43CHL1  H22A 4345   4.277   4.088   6.210 -2.4059 -2.0880 -0.1652
   43CHL1  H22B 4346   4.449   4.062   6.162  1.9997 -2.1633  1.4618
   43CHL1   C23 4347   4.295   3.938   6.064 -0.0695  0.6605  0.0240
   43CHL1  H23A 4348   4.358   3.851   6.037 -0.8056 -0.0385  0.5054
   43CHL1  H23B 4349   4.194   3.894   6.084  1.7375 -3.2289  1.7960
   43CHL1   C24 4350   4.278   4.034   5.944 -0.5394 -0.1820  0.5673
   43CHL1  H24A 4351   4.201   4.105   5.982 -1.0109 -2.1173  3.6188
   43CHL1  H24B 4352   4.366   4.101   5.937 -1.2419  0.7533  0.5246
   43CHL1   C25 4353   4.248   3.958   5.810 -0.9161  0.1390  0.4554
   43CHL1   H25 4354   4.207   3.857   5.829  2.0473 -1.2426  0.0243
   43CHL1   C26 4355   4.158   4.030   5.717  0.5670 -0.1895 -0.3556
   43CHL1  H26A 4356   4.117   3.971   5.633  1.6189  1.6072 -2.2343
   43CHL1  H26B 4357   4.071   4.070   5.773 -1.3798 -1.3512 -2.3946
   43CHL1  H26C 4358   4.215   4.116   5.676  3.0075 -2.0877 -1.2589
   43CHL1   C27 4359   4.382   3.931   5.733  0.7370 -0.2851 -0.4130
   43CHL1  H27A 4360   4.458   3.869   5.786  1.2062 -1.2850 -2.1872
   43CHL1  H27B 4361   4.374   3.888   5.632  0.2889 -0.1627 -0.4324
   43CHL1  H27C 4362   4.425   4.033   5.721 -0.7121  0.0087 -4.1356
   44CHL1    C3 4363   6.057   5.701   6.926  0.5715  0.2216 -0.0498
   44CHL1    H3 4364   6.073   5.595   6.898 -1.3027  0.2317 -1.2582
   44CHL1    O3 4365   6.025   5.703   7.067  0.2382  0.1772  0.4713
   44CHL1   H3' 4366   6.110   5.693   7.111  0.7044 -0.0256 -0.4354
   44CHL1    C4 4367   6.200   5.765   6.902 -0.5145  0.9270 -0.0165
   44CHL1   H4A 4368   6.206   5.869   6.939 -0.2866  1.0722 -0.4519
   44CHL1   H4B 4369   6.268   5.699   6.960 -2.1083 -0.6431  0.1683
   44CHL1    C5 4370   6.234   5.769   6.754  0.1435  0.7679 -0.2110
   44CHL1    C6 4371   6.342   5.714   6.702 -1.1205  0.1984  0.7853
   44CHL1    H6 4372   6.418   5.677   6.773 -1.4055  1.8221  1.9920
   44CHL1    C7 4373   6.375   5.717   6.552 -0.2439  0.0371  0.1446
   44CHL1   H7A 4374   6.477   5.763   6.551 -0.1973 -0.0763 -0.7103
   44CHL1   H7B 4375   6.379   5.614   6.512  2.3180 -1.0766  2.9202
   44CHL1    C8 4376   6.278   5.802   6.471 -0.3375  0.3995  0.0721
   44CHL1    H8 4377   6.307   5.909   6.486 -1.1346  0.8546 -1.4264
   44CHL1   C14 4378   6.287   5.770   6.322  0.6219  0.9191  0.3868
   44CHL1   H14 4379   6.252   5.665   6.321 -0.5177  1.2816 -0.9436
   44CHL1   C15 4380   6.432   5.755   6.257  0.3672 -0.1989  0.5283
   44CHL1  H15A 4381   6.496   5.825   6.316  0.0304  0.8467 -0.3228
   44CHL1  H15B 4382   6.488   5.660   6.274  0.7642  0.0411  0.5749
   44CHL1   C16 4383   6.404   5.780   6.113 -0.2165 -0.1159  0.3827
   44CHL1  H16A 4384   6.445   5.879   6.088  1.2843 -1.0049 -0.8510
   44CHL1  H16B 4385   6.452   5.703   6.049  2.2043 -0.6746  2.7311
   44CHL1   C17 4386   6.250   5.785   6.102 -0.3918  0.1634  0.0288
   44CHL1   H17 4387   6.223   5.678   6.115  1.9918 -0.1333  4.1361
   44CHL1   C13 4388   6.196   5.846   6.230  0.1772  0.0114 -0.3345
   44CHL1   C18 4389   6.217   6.002   6.241 -0.0764  0.5622  0.5786
   44CHL1  H18A 4390   6.311   6.036   6.193 -0.7116  2.6040  0.6882
   44CHL1  H18B 4391   6.127   6.048   6.195 -1.3500 -1.8767  0.4849
   44CHL1  H18C 4392   6.218   6.034   6.348 -1.7422 -0.7295  1.0139
   44CHL1   C12 4393   6.048   5.797   6.263  0.7000 -0.3147 -0.3173
   44CHL1  H12A 4394   5.975   5.845   6.195  1.6582  0.1491 -1.0502
   44CHL1  H12B 4395   6.055   5.688   6.241 -2.0429 -0.2213 -2.0838
   44CHL1   C11 4396   6.023   5.833   6.410 -0.2364  0.4895  0.2486
   44CHL1  H11A 4397   6.003   5.940   6.432  0.0636  1.0552 -1.9231
   44CHL1  H11B 4398   5.925   5.787   6.435 -0.5462  0.4249 -1.0022
   44CHL1    C9 4399   6.132   5.777   6.510 -0.3295 -0.6203 -0.0092
   44CHL1    H9 4400   6.120   5.667   6.497  2.3904 -0.9348 -0.5090
   44CHL1   C10 4401   6.116   5.815   6.660 -0.3817  0.2522 -0.2746
   44CHL1   C19 4402   6.120   5.966   6.681  1.0807 -0.5027 -0.4295
   44CHL1  H19A 4403   6.220   6.006   6.655  0.7274 -0.3747 -1.6984
   44CHL1  H19B 4404   6.044   6.026   6.625  1.3711 -0.2029 -0.5066
   44CHL1  H19C 4405   6.104   5.986   6.789  2.4792 -0.1192 -0.2818
   44CHL1    C1 4406   5.978   5.755   6.697 -0.0745  0.4014 -0.3695
   44CHL1   H1A 4407   5.899   5.800   6.633  1.1274 -1.4892 -3.4274
   44CHL1   H1B 4408   5.967   5.649   6.664  0.8995  0.2938 -0.3707
   44CHL1    C2 4409   5.950   5.761   6.847  0.0924 -0.3328 -0.0625
   44CHL1   H2A 4410   5.862   5.699   6.875  0.4613  0.1260  2.3557
   44CHL1   H2B 4411   5.926   5.865   6.879 -0.1840 -0.2219 -0.6232
   44CHL1   C20 4412   6.192   5.832   5.974  0.1293  0.1819  0.1286
   44CHL1   H20 4413   6.085   5.856   5.993 -0.3158 -1.6875  0.2113
   44CHL1   C21 4414   6.197   5.705   5.879 -0.1060  0.7868  0.2592
   44CHL1  H21A 4415   6.299   5.694   5.836 -0.9811 -1.9210 -1.4139
   44CHL1  H21B 4416   6.123   5.728   5.799  0.0497 -0.7173 -0.3581
   44CHL1  H21C 4417   6.161   5.622   5.942 -2.0649  0.8170 -0.7436
   44CHL1   C22 4418   6.257   5.957   5.908 -0.4832 -0.0636 -0.4092
   44CHL1  H22A 4419   6.251   6.038   5.984 -0.8452  0.4258 -0.9555
   44CHL1  H22B 4420   6.363   5.939   5.881 -0.0516  0.6072  0.7368
   44CHL1   C23 4421   6.204   6.009   5.774  0.3727 -0.0699  0.2418
   44CHL1  H23A 4422   6.223   5.934   5.694 -0.9377 -1.8944  1.5878
   44CHL1  H23B 4423   6.095   6.021   5.789  0.2225 -1.1158  0.0608
   44CHL1   C24 4424   6.271   6.144   5.746 -0.1727  0.4499 -0.2360
   44CHL1  H24A 4425   6.247   6.202   5.838  0.5446 -1.5813  1.3079
   44CHL1  H24B 4426   6.382   6.135   5.744 -0.3198 -2.3315 -2.6674
   44CHL1   C25 4427   6.222   6.209   5.610  0.1086 -0.2547  0.3270
   44CHL1   H25 4428   6.231   6.142   5.522 -3.6409 -0.5580 -0.0100
   44CHL1   C26 4429   6.069   6.240   5.625 -0.2905 -0.0430  0.6841
   44CHL1  H26A 4430   5.999   6.155   5.606  0.5025 -0.3571 -1.0169
   44CHL1  H26B 4431   6.045   6.286   5.723 -4.4940 -0.7627  0.1802
   44CHL1  H26C 4432   6.046   6.312   5.543 -0.0096 -0.9464 -0.2207
   44CHL1   C27 4433   6.298   6.340   5.575 -0.0197  0.0105 -0.6116
   44CHL1  H27A 4434   6.299   6.410   5.661  0.6787 -1.8254  0.9418
   44CHL1  H27B 4435   6.403   6.315   5.549 -0.7313 -2.1763 -1.7082
   44CHL1  H27C 4436   6.245   6.386   5.488 -1.8144  0.8274  0.8388
   45CHL1    C3 4437   0.209   4.896   7.017 -0.2919  0.4066  0.8085
   45CHL1    H3 4438   0.208   4.785   7.028 -0.5537  0.2296 -0.7751
   45CHL1    O3 4439   0.187   4.953   7.144  0.4895  0.2707  0.0785
   45CHL1   H3' 4440   0.099   4.927   7.174  0.5156 -0.1358 -0.1952
   45CHL1    C4 4441   0.344   4.950   6.966 -0.0485 -0.1326  0.1206
   45CHL1   H4A 4442   0.336   5.061   6.966 -2.2175 -0.2486 -0.6198
   45CHL1   H4B 4443   0.420   4.928   7.044  0.3211  0.5061 -0.0490
   45CHL1    C5 4444   0.387   4.903   6.828  0.2159 -0.2209  0.0142
   45CHL1    C6 4445   0.500   4.831   6.815 -0.1487  0.2602 -0.1652
   45CHL1    H6 4446   0.563   4.821   6.904 -3.2997  2.2322  2.5375
   45CHL1    C7 4447   0.548   4.786   6.681 -0.0533  0.2094 -0.2711
   45CHL1   H7A 4448   0.652   4.822   6.666 -0.3566  0.4915 -1.8619
   45CHL1   H7B 4449   0.535   4.676   6.674  0.2013  0.0614  1.1705
   45CHL1    C8 4450   0.466   4.848   6.567 -0.0501 -0.3637  0.0104
   45CHL1    H8 4451   0.505   4.952   6.558 -0.7428 -0.1865 -1.3426
   45CHL1   C14 4452   0.488   4.766   6.441  0.0672 -0.1793 -0.0497
   45CHL1   H14 4453   0.422   4.677   6.453 -0.4873  0.0907 -0.9600
   45CHL1   C15 4454   0.632   4.712   6.403  0.5974  0.8132 -0.3890
   45CHL1  H15A 4455   0.707   4.794   6.412 -0.6242  1.8530  0.7904
   45CHL1  H15B 4456   0.655   4.626   6.469  0.1643  0.8898 -0.1310
   45CHL1   C16 4457   0.613   4.679   6.254 -0.0118  0.7086  0.9348
   45CHL1  H16A 4458   0.682   4.740   6.192 -0.9481  0.1682 -0.6937
   45CHL1  H16B 4459   0.622   4.569   6.239 -2.1240  0.5209  0.6685
   45CHL1   C17 4460   0.462   4.713   6.213  0.5528  0.1029 -0.6624
   45CHL1   H17 4461   0.393   4.633   6.248  0.7058 -0.3336 -1.3356
   45CHL1   C13 4462   0.426   4.831   6.310 -0.3601 -0.1720  0.1466
   45CHL1   C18 4463   0.503   4.960   6.261  0.5103 -0.0518  0.2905
   45CHL1  H18A 4464   0.457   4.985   6.163  0.9961 -0.3278 -0.0108
   45CHL1  H18B 4465   0.485   5.043   6.332 -1.5809  2.2779 -2.6764
   45CHL1  H18C 4466   0.612   4.944   6.247  0.2558 -0.6612 -1.2626
   45CHL1   C12 4467   0.277   4.852   6.338  0.0213 -0.0066 -0.3376
   45CHL1  H12A 4468   0.233   4.908   6.252 -0.2904 -0.8913 -0.7692
   45CHL1  H12B 4469   0.216   4.760   6.330 -3.2347  1.8927  0.6938
   45CHL1   C11 4470   0.247   4.935   6.462 -0.1048 -0.2406  0.1851
   45CHL1  H11A 4471   0.269   5.043   6.447  0.2263 -0.0198  2.0454
   45CHL1  H11B 4472   0.140   4.924   6.487  0.1080 -1.2389  0.7336
   45CHL1    C9 4473   0.313   4.870   6.586 -0.1916  0.4997 -0.7742
   45CHL1    H9 4474   0.272   4.767   6.579 -0.3756  0.6030 -1.2592
   45CHL1   C10 4475   0.284   4.943   6.721  0.4970 -0.4471 -0.0157
   45CHL1   C19 4476   0.277   5.100   6.694  0.0174  0.4214 -0.6707
   45CHL1  H19A 4477   0.257   5.158   6.786  1.4730  0.8543 -0.6002
   45CHL1  H19B 4478   0.380   5.124   6.659  0.7711 -2.0112 -0.3031
   45CHL1  H19C 4479   0.196   5.118   6.620  0.0581  2.3652 -0.2875
   45CHL1    C1 4480   0.142   4.890   6.776  0.2199  0.1312  0.4838
   45CHL1   H1A 4481   0.060   4.925   6.709  0.7503 -1.4252 -1.0294
   45CHL1   H1B 4482   0.146   4.779   6.772 -0.4807  0.0425  1.5934
   45CHL1    C2 4483   0.106   4.939   6.916  0.2665  0.2408  0.0519
   45CHL1   H2A 4484   0.002   4.904   6.934 -0.1918 -0.3590 -3.1442
   45CHL1   H2B 4485   0.093   5.049   6.918 -0.2301  0.1909 -0.0882
   45CHL1   C20 4486   0.431   4.728   6.065 -0.3941  0.4640  0.3915
   45CHL1   H20 4487   0.481   4.819   6.024  0.2094 -0.8697 -2.0887
   45CHL1   C21 4488   0.282   4.753   6.035  0.5459  0.4335 -0.2906
   45CHL1  H21A 4489   0.224   4.681   6.096  0.7958  0.2085 -0.3146
   45CHL1  H21B 4490   0.259   4.735   5.928 -0.9457  1.9497 -0.2627
   45CHL1  H21C 4491   0.257   4.858   6.060  1.2730  0.5806 -0.1643
   45CHL1   C22 4492   0.493   4.613   5.973  0.0075 -0.2334  0.6993
   45CHL1  H22A 4493   0.585   4.570   6.017  0.2627 -2.3753 -1.7032
   45CHL1  H22B 4494   0.419   4.531   5.976 -1.1476  0.6682 -1.0614
   45CHL1   C23 4495   0.514   4.661   5.827  0.5371  0.0560  0.0211
   45CHL1  H23A 4496   0.415   4.673   5.778  0.4773  1.0395  0.3718
   45CHL1  H23B 4497   0.555   4.762   5.848  0.2086  0.2346 -0.1835
   45CHL1   C24 4498   0.600   4.583   5.731  0.0976  0.2957  0.2194
   45CHL1  H24A 4499   0.619   4.650   5.645  2.4098 -1.2384 -0.5791
   45CHL1  H24B 4500   0.701   4.562   5.774  0.1225  0.3336  0.1796
   45CHL1   C25 4501   0.545   4.455   5.661  0.1897 -0.0274  0.4373
   45CHL1   H25 4502   0.440   4.478   5.632  1.0323  0.8374 -2.1233
   45CHL1   C26 4503   0.632   4.424   5.532 -0.0164 -0.4313 -0.4236
   45CHL1  H26A 4504   0.593   4.339   5.472 -0.2313 -1.2703  0.8811
   45CHL1  H26B 4505   0.635   4.512   5.464 -0.3283  1.2696  1.6657
   45CHL1  H26C 4506   0.737   4.401   5.559  0.2793  1.0234 -0.2684
   45CHL1   C27 4507   0.554   4.334   5.748 -0.4288  0.1459  0.5206
   45CHL1  H27A 4508   0.490   4.352   5.837 -0.8848 -2.2854  0.7613
   45CHL1  H27B 4509   0.504   4.252   5.690 -0.3877  1.6797 -1.8378
   45CHL1  H27C 4510   0.655   4.307   5.784 -0.3571 -1.5822 -0.8367
   46CHL1    C3 4511   0.684   0.712   6.939 -0.3834  0.0779 -1.0732
   46CHL1    H3 4512   0.602   0.641   6.918  1.3941 -1.8229 -1.9305
   46CHL1    O3 4513   0.693   0.709   7.079  0.1535  0.1194 -0.2679
   46CHL1   H3' 4514   0.749   0.784   7.099 -0.4975  0.9025 -1.2523
   46CHL1    C4 4515   0.819   0.693   6.878 -0.5892  0.2850  0.0233
   46CHL1   H4A 4516   0.900   0.761   6.909  0.5775 -0.4126 -1.3580
   46CHL1   H4B 4517   0.856   0.593   6.909 -1.2165  0.8701  2.8973
   46CHL1    C5 4518   0.790   0.702   6.727 -0.7485  0.5683  0.2227
   46CHL1    C6 4519   0.830   0.603   6.645 -0.0405  0.0784  0.0421
   46CHL1    H6 4520   0.874   0.512   6.686  0.5690 -0.3141 -1.4020
   46CHL1    C7 4521   0.827   0.608   6.488 -0.0777  0.3870 -0.1739
   46CHL1   H7A 4522   0.929   0.582   6.452 -0.9351 -0.6257 -2.0118
   46CHL1   H7B 4523   0.755   0.533   6.448 -0.6192 -0.6725  2.5905
   46CHL1    C8 4524   0.791   0.746   6.430  0.2647  0.3865 -0.7583
   46CHL1    H8 4525   0.880   0.812   6.429  0.2925  0.3594 -0.3913
   46CHL1   C14 4526   0.737   0.720   6.291 -0.7203 -0.1822 -0.1648
   46CHL1   H14 4527   0.657   0.643   6.302 -0.5251 -0.3412  0.1386
   46CHL1   C15 4528   0.833   0.651   6.188  0.2321 -0.1510  0.8284
   46CHL1  H15A 4529   0.934   0.697   6.197  0.8658 -1.2326 -0.4842
   46CHL1  H15B 4530   0.834   0.540   6.193  0.9721 -0.1287  1.3722
   46CHL1   C16 4531   0.775   0.691   6.055  0.4696 -0.1012  0.4509
   46CHL1  H16A 4532   0.857   0.734   5.993  0.4835 -2.0198 -0.9511
   46CHL1  H16B 4533   0.738   0.611   5.987 -2.1306  0.7826  0.7463
   46CHL1   C17 4534   0.657   0.786   6.083  0.0984  0.2614  0.2332
   46CHL1   H17 4535   0.578   0.710   6.102  0.4891 -0.0858  0.4598
   46CHL1   C13 4536   0.687   0.844   6.223 -0.3213 -0.2265 -0.4129
   46CHL1   C18 4537   0.792   0.949   6.195 -0.9974 -0.2407  0.2077
   46CHL1  H18A 4538   0.755   1.045   6.152  1.0031 -0.8384 -3.1800
   46CHL1  H18B 4539   0.820   0.981   6.298  1.7044 -1.9271  0.0999
   46CHL1  H18C 4540   0.892   0.925   6.154 -1.5857  0.7698 -1.9832
   46CHL1   C12 4541   0.568   0.906   6.293  0.2291  0.8801  0.1368
   46CHL1  H12A 4542   0.535   0.998   6.240  0.7996  1.9264  1.5405
   46CHL1  H12B 4543   0.484   0.833   6.300  0.8680  0.3045  2.6769
   46CHL1   C11 4544   0.606   0.926   6.444 -0.2140  0.9493 -0.7448
   46CHL1  H11A 4545   0.666   1.020   6.447  2.0312 -0.3872 -1.4183
   46CHL1  H11B 4546   0.515   0.943   6.505  0.8684 -0.3121  1.3463
   46CHL1    C9 4547   0.680   0.809   6.514  0.8162 -0.1408  0.3163
   46CHL1    H9 4548   0.595   0.738   6.518  0.4383  0.1884 -1.3133
   46CHL1   C10 4549   0.731   0.824   6.662  0.2160 -0.0338 -0.1942
   46CHL1   C19 4550   0.816   0.956   6.672  0.6219  0.1003  0.0850
   46CHL1  H19A 4551   0.906   0.942   6.609 -0.1973  1.1243 -1.3537
   46CHL1  H19B 4552   0.760   1.047   6.644  1.9568  0.6897 -0.7419
   46CHL1  H19C 4553   0.852   0.966   6.777 -0.5797  0.0153  0.5182
   46CHL1    C1 4554   0.614   0.851   6.748  0.2912  0.2705 -1.0376
   46CHL1   H1A 4555   0.597   0.961   6.741  1.3093  0.5985  0.9678
   46CHL1   H1B 4556   0.536   0.782   6.710 -0.0456  0.2099 -0.2530
   46CHL1    C2 4557   0.623   0.848   6.900  0.3586  1.0250 -0.0878
   46CHL1   H2A 4558   0.520   0.847   6.941  0.2076  1.2522 -0.4593
   46CHL1   H2B 4559   0.688   0.931   6.937  1.1318  0.5738 -0.4024
   46CHL1   C20 4560   0.600   0.875   5.971 -0.3525  0.6868  0.3066
   46CHL1   H20 4561   0.560   0.962   6.028  0.7141  0.2656  1.7514
   46CHL1   C21 4562   0.473   0.808   5.910 -0.6303 -0.1793 -0.3118
   46CHL1  H21A 4563   0.417   0.887   5.856  1.9737  2.5830  0.7278
   46CHL1  H21B 4564   0.413   0.763   5.992  1.0780 -1.6097  0.2196
   46CHL1  H21C 4565   0.505   0.738   5.830  2.4561  1.9424 -1.1514
   46CHL1   C22 4566   0.699   0.908   5.861  0.5346  0.0223 -0.1016
   46CHL1  H22A 4567   0.786   0.959   5.907 -0.3296  1.0792  0.4146
   46CHL1  H22B 4568   0.744   0.815   5.821 -2.9054 -1.3816 -1.1471
   46CHL1   C23 4569   0.653   1.000   5.749  0.0331 -0.1280  0.0831
   46CHL1  H23A 4570   0.734   1.022   5.676  1.5429  0.2164  1.8033
   46CHL1  H23B 4571   0.568   0.953   5.694  0.6658 -0.3935 -0.6886
   46CHL1   C24 4572   0.603   1.141   5.791 -0.7020  0.2756  0.0375
   46CHL1  H24A 4573   0.521   1.136   5.866  0.1790  0.9963  1.0787
   46CHL1  H24B 4574   0.677   1.193   5.856 -0.8143 -0.0820  0.4586
   46CHL1   C25 4575   0.556   1.225   5.669 -0.3486  0.6187 -0.8717
   46CHL1   H25 4576   0.625   1.220   5.582 -0.1087  2.5215 -0.8276
   46CHL1   C26 4577   0.420   1.189   5.617  0.1152 -0.2576  0.4495
   46CHL1  H26A 4578   0.384   1.256   5.536 -3.1790 -0.0352  1.9268
   46CHL1  H26B 4579   0.435   1.083   5.586  2.0809  0.4305 -1.2653
   46CHL1  H26C 4580   0.340   1.193   5.694 -0.9276 -0.8029 -0.5691
   46CHL1   C27 4581   0.566   1.369   5.709  0.3428 -0.4083  0.3423
   46CHL1  H27A 4582   0.496   1.396   5.791 -3.8654  2.9000 -3.8195
   46CHL1  H27B 4583   0.668   1.402   5.738  2.0165 -1.2569 -3.8157
   46CHL1  H27C 4584   0.539   1.437   5.626  1.2917 -1.7507 -1.1305
   47CHL1    C3 4585   1.331   0.834   6.756  0.2340 -0.5948  0.3211
   47CHL1    H3 4586   1.316   0.724   6.758  0.4453 -0.7124 -1.8939
   47CHL1    O3 4587   1.339   0.887   6.886 -0.0861  0.2047  0.5685
   47CHL1   H3' 4588   1.250   0.902   6.918  0.2875  1.6464  1.0274
   47CHL1    C4 4589   1.450   0.879   6.677 -0.5593  0.5908 -0.2790
   47CHL1   H4A 4590   1.458   0.986   6.705 -2.3113  0.2954  1.6734
   47CHL1   H4B 4591   1.537   0.822   6.715 -1.1514  0.0308  0.2710
   47CHL1    C5 4592   1.452   0.867   6.529 -0.1139 -0.6062 -0.0871
   47CHL1    C6 4593   1.546   0.801   6.464  0.4019  0.0190 -0.1573
   47CHL1    H6 4594   1.635   0.771   6.522 -0.6737  2.7536  3.3537
   47CHL1    C7 4595   1.552   0.772   6.317  0.0402  0.2185 -0.3772
   47CHL1   H7A 4596   1.651   0.809   6.282  0.2698  0.4778  0.5078
   47CHL1   H7B 4597   1.529   0.664   6.309  0.1321  0.0615  1.1636
   47CHL1    C8 4598   1.450   0.855   6.249  0.2008 -0.4965 -0.0600
   47CHL1    H8 4599   1.479   0.962   6.246 -0.8630 -0.1850  0.4256
   47CHL1   C14 4600   1.434   0.799   6.106  0.0361  0.0687  0.5131
   47CHL1   H14 4601   1.401   0.693   6.101  2.6816 -0.7571 -1.7212
   47CHL1   C15 4602   1.563   0.794   6.028  0.0798 -0.8559  0.4557
   47CHL1  H15A 4603   1.618   0.889   6.035 -1.3930  0.2098 -1.3659
   47CHL1  H15B 4604   1.613   0.703   6.068 -0.3257 -0.4027  2.0646
   47CHL1   C16 4605   1.519   0.778   5.884 -0.3536 -0.0594  0.5497
   47CHL1  H16A 4606   1.569   0.839   5.805 -0.4247  1.1366  1.3917
   47CHL1  H16B 4607   1.533   0.674   5.849  1.0494 -0.3932  1.9714
   47CHL1   C17 4608   1.364   0.805   5.879  0.1779  0.1446 -0.0514
   47CHL1   H17 4609   1.317   0.704   5.876 -0.7340  0.5492  0.1856
   47CHL1   C13 4610   1.327   0.870   6.019 -0.4337  0.2583 -0.8207
   47CHL1   C18 4611   1.368   1.021   6.006  0.2329  0.5408 -0.6575
   47CHL1  H18A 4612   1.477   1.034   5.988  0.7137 -2.6442 -0.6405
   47CHL1  H18B 4613   1.317   1.063   5.917  0.1830  1.7942 -0.0497
   47CHL1  H18C 4614   1.327   1.082   6.090 -4.1648 -1.3293 -1.1596
   47CHL1   C12 4615   1.196   0.860   6.089 -0.1109 -0.1232 -0.2692
   47CHL1  H12A 4616   1.117   0.909   6.028  0.9543  0.1432 -1.4869
   47CHL1  H12B 4617   1.169   0.753   6.105 -0.5057  0.0749  0.4063
   47CHL1   C11 4618   1.193   0.911   6.230  0.7780 -0.0430  0.3004
   47CHL1  H11A 4619   1.185   1.022   6.229 -0.4098 -0.0405 -3.4002
   47CHL1  H11B 4620   1.094   0.877   6.269  0.2163  0.5668 -0.5655
   47CHL1    C9 4621   1.310   0.858   6.324 -0.1477  0.0479  0.3938
   47CHL1    H9 4622   1.285   0.751   6.342 -2.7565  0.6443  0.6348
   47CHL1   C10 4623   1.318   0.907   6.466  0.4946 -0.3273 -0.8613
   47CHL1   C19 4624   1.328   1.060   6.455 -0.3399 -0.4766 -1.2265
   47CHL1  H19A 4625   1.344   1.112   6.552  2.0900 -1.0892 -1.2409
   47CHL1  H19B 4626   1.415   1.087   6.392 -0.0297 -1.5770 -1.2956
   47CHL1  H19C 4627   1.236   1.101   6.408  0.1917  1.7937 -0.4172
   47CHL1    C1 4628   1.194   0.852   6.549  0.2464 -0.2460 -0.0590
   47CHL1   H1A 4629   1.105   0.892   6.495 -0.9270 -1.5809  0.8084
   47CHL1   H1B 4630   1.188   0.742   6.529 -2.0701  0.2031 -2.4518
   47CHL1    C2 4631   1.193   0.886   6.698 -0.2135  0.4726 -0.2420
   47CHL1   H2A 4632   1.104   0.836   6.742 -0.3469 -2.2913 -3.3063
   47CHL1   H2B 4633   1.181   0.996   6.705  1.3303  0.6503 -0.0731
   47CHL1   C20 4634   1.307   0.866   5.750 -0.3166  0.0237  0.4564
   47CHL1   H20 4635   1.361   0.964   5.747  1.3726 -0.7730  2.4239
   47CHL1   C21 4636   1.160   0.884   5.738 -0.0332 -0.1593 -0.3961
   47CHL1  H21A 4637   1.128   0.950   5.654  2.2884 -0.2715 -1.4333
   47CHL1  H21B 4638   1.120   0.929   5.832 -1.1440 -3.3324  0.7773
   47CHL1  H21C 4639   1.112   0.784   5.740 -0.8572  0.1231 -2.7265
   47CHL1   C22 4640   1.361   0.777   5.633 -0.1548 -0.1933 -0.3011
   47CHL1  H22A 4641   1.471   0.766   5.632  0.1659  2.0168  1.5830
   47CHL1  H22B 4642   1.312   0.678   5.644 -0.2538 -0.1231 -0.1059
   47CHL1   C23 4643   1.327   0.847   5.500 -0.0385  0.3674 -0.4665
   47CHL1  H23A 4644   1.218   0.867   5.499 -0.2865 -0.8045  0.9142
   47CHL1  H23B 4645   1.377   0.947   5.499 -1.4712  1.1218  0.2811
   47CHL1   C24 4646   1.366   0.756   5.379 -0.5300 -0.3262 -0.3896
   47CHL1  H24A 4647   1.471   0.725   5.403  0.8027  2.7936 -1.6954
   47CHL1  H24B 4648   1.301   0.666   5.379  0.7911 -1.3168 -0.6206
   47CHL1   C25 4649   1.362   0.829   5.243 -0.5272  0.0003  0.5997
   47CHL1   H25 4650   1.402   0.931   5.258  0.1558  0.1333 -1.8036
   47CHL1   C26 4651   1.450   0.758   5.133  0.7631  0.2726  0.2185
   47CHL1  H26A 4652   1.560   0.755   5.151  0.7490 -2.8762  0.3343
   47CHL1  H26B 4653   1.410   0.655   5.126 -1.0971  0.7590  2.5452
   47CHL1  H26C 4654   1.440   0.815   5.038  1.9740 -0.2346 -0.2333
   47CHL1   C27 4655   1.222   0.838   5.200  0.5722  0.2750  0.0593
   47CHL1  H27A 4656   1.170   0.741   5.214  1.1995 -0.2530 -1.1844
   47CHL1  H27B 4657   1.181   0.904   5.280  1.3810  0.3753  0.4044
   47CHL1  H27C 4658   1.202   0.893   5.106 -0.2326  0.5271  0.3667
   48CHL1    C3 4659   4.712   0.490   6.766  0.3046 -0.4142  0.2158
   48CHL1    H3 4660   4.774   0.579   6.744 -1.7610  0.9269 -0.4530
   48CHL1    O3 4661   4.669   0.489   6.901  0.1787  0.0628 -0.1335
   48CHL1   H3' 4662   4.600   0.555   6.913  0.1821 -0.2567  1.9492
   48CHL1    C4 4663   4.583   0.507   6.678 -0.0872  0.6912  0.6053
   48CHL1   H4A 4664   4.519   0.426   6.719  2.6080 -0.4650  2.8448
   48CHL1   H4B 4665   4.532   0.602   6.703  0.5300  1.3368 -0.5049
   48CHL1    C5 4666   4.604   0.499   6.534  0.2072  0.4356  0.4599
   48CHL1    C6 4667   4.564   0.595   6.449 -0.1969  0.0352 -0.4083
   48CHL1    H6 4668   4.506   0.679   6.490  1.8567  0.7757  1.1479
   48CHL1    C7 4669   4.576   0.582   6.303 -0.0304 -0.5819  0.4904
   48CHL1   H7A 4670   4.481   0.587   6.248  0.7817 -3.5263 -1.3927
   48CHL1   H7B 4671   4.638   0.663   6.259 -1.3450  0.0726 -0.1957
   48CHL1    C8 4672   4.639   0.448   6.257  0.3740  0.3271 -0.6034
   48CHL1    H8 4673   4.549   0.383   6.250  0.4947  0.0004  0.6919
   48CHL1   C14 4674   4.706   0.468   6.121 -0.3884  0.1351  0.5648
   48CHL1   H14 4675   4.793   0.530   6.153  0.1452 -0.7610  0.8816
   48CHL1   C15 4676   4.633   0.545   6.013 -0.0786  0.2490  0.9468
   48CHL1  H15A 4677   4.522   0.544   6.015 -0.0863 -0.6945  0.4237
   48CHL1  H15B 4678   4.651   0.655   6.016 -2.7396  0.7185  1.5522
   48CHL1   C16 4679   4.691   0.499   5.878  0.2699 -0.0826 -0.2300
   48CHL1  H16A 4680   4.616   0.430   5.833 -2.4304  2.9647 -0.7308
   48CHL1  H16B 4681   4.719   0.591   5.823  3.5929  0.4640  2.0770
   48CHL1   C17 4682   4.810   0.412   5.911 -0.1801  0.7791  0.2154
   48CHL1   H17 4683   4.895   0.469   5.954  0.1693 -0.2307  0.8948
   48CHL1   C13 4684   4.772   0.346   6.050  0.4569 -0.2019  0.5312
   48CHL1   C18 4685   4.664   0.235   6.025  0.1520 -0.0179 -0.1190
   48CHL1  H18A 4686   4.623   0.189   6.118  1.6112  0.3734  0.7402
   48CHL1  H18B 4687   4.584   0.281   5.963 -0.4526  0.6854  1.1482
   48CHL1  H18C 4688   4.709   0.153   5.966  0.1829  0.3947 -0.6726
   48CHL1   C12 4689   4.887   0.294   6.147 -0.7645 -0.6079 -0.5153
   48CHL1  H12A 4690   4.920   0.193   6.117 -1.4712 -1.3345  1.0363
   48CHL1  H12B 4691   4.974   0.362   6.143 -0.9118 -0.4831 -2.7267
   48CHL1   C11 4692   4.827   0.277   6.289  0.2647 -0.6691  0.2113
   48CHL1  H11A 4693   4.761   0.187   6.288  1.1621 -1.3360 -0.0695
   48CHL1  H11B 4694   4.907   0.244   6.358 -0.5707 -2.5483  0.3317
   48CHL1    C9 4695   4.746   0.397   6.351 -0.5163  0.4046 -0.1795
   48CHL1    H9 4696   4.817   0.483   6.352  0.1663 -0.1477 -0.3770
   48CHL1   C10 4697   4.694   0.376   6.493 -1.0449  0.7361  0.7112
   48CHL1   C19 4698   4.600   0.253   6.499 -0.0873  0.2197 -0.2769
   48CHL1  H19A 4699   4.555   0.236   6.599  2.1938  1.1464  0.9835
   48CHL1  H19B 4700   4.516   0.255   6.427 -1.6678  2.2491  1.5139
   48CHL1  H19C 4701   4.673   0.170   6.490  2.9481  2.6803 -0.0284
   48CHL1    C1 4702   4.818   0.342   6.583  0.2878 -0.5493 -0.1200
   48CHL1   H1A 4703   4.854   0.239   6.562 -1.7376 -1.0339 -1.4684
   48CHL1   H1B 4704   4.898   0.417   6.562 -0.3877  0.4758  0.8996
   48CHL1    C2 4705   4.778   0.354   6.735 -0.0869  0.5207  0.2421
   48CHL1   H2A 4706   4.869   0.342   6.797 -0.3882  0.3424  0.6534
   48CHL1   H2B 4707   4.708   0.272   6.760 -0.3242  0.3264 -0.9872
   48CHL1   C20 4708   4.859   0.322   5.789 -0.5803 -0.2619 -0.5397
   48CHL1   H20 4709   4.771   0.266   5.752 -0.1588 -0.8870 -0.6032
   48CHL1   C21 4710   4.965   0.216   5.833  0.4346 -0.7400 -0.0175
   48CHL1  H21A 4711   4.932   0.137   5.903  2.1490 -0.7774  0.7967
   48CHL1  H21B 4712   4.995   0.150   5.748  0.2797 -2.2237  1.0544
   48CHL1  H21C 4713   5.055   0.258   5.883 -0.0529 -0.2215  0.4340
   48CHL1   C22 4714   4.902   0.410   5.672 -0.0786  0.1699  0.1135
   48CHL1  H22A 4715   4.905   0.339   5.587  0.8127 -2.3686  2.1438
   48CHL1  H22B 4716   4.838   0.494   5.640  0.2241  0.9389  1.4461
   48CHL1   C23 4717   5.045   0.473   5.686 -0.4328  0.5434  0.3190
   48CHL1  H23A 4718   5.043   0.521   5.786 -1.8312 -1.7148  1.4718
   48CHL1  H23B 4719   5.125   0.396   5.685 -0.6299  0.3013  1.4341
   48CHL1   C24 4720   5.074   0.564   5.567 -0.3087 -0.0493  0.0853
   48CHL1  H24A 4721   5.058   0.505   5.474 -0.0044  1.9125 -1.2683
   48CHL1  H24B 4722   5.001   0.647   5.574 -1.2300 -0.9688  2.9830
   48CHL1   C25 4723   5.215   0.630   5.569 -0.4641 -0.0363  0.1134
   48CHL1   H25 4724   5.296   0.556   5.582  1.6630  2.0916 -0.1560
   48CHL1   C26 4725   5.237   0.676   5.427  0.6422  0.6567  0.2934
   48CHL1  H26A 4726   5.333   0.733   5.429  1.7773 -1.0177 -1.6390
   48CHL1  H26B 4727   5.245   0.592   5.354 -2.0237 -2.0299  2.8254
   48CHL1  H26C 4728   5.155   0.739   5.387  0.8442 -0.1028 -1.4049
   48CHL1   C27 4729   5.213   0.742   5.674  0.1925 -0.2642 -0.0299
   48CHL1  H27A 4730   5.124   0.806   5.655  0.2237 -0.5848 -1.2791
   48CHL1  H27B 4731   5.213   0.705   5.779  0.0002 -0.6444 -0.1651
   48CHL1  H27C 4732   5.304   0.806   5.670  0.4147 -0.3633  2.0995
   49CHL1    C3 4733   2.671   1.813   3.722  0.5864 -0.1333 -0.2177
   49CHL1    H3 4734   2.767   1.867   3.735  0.4073  0.4847 -1.3042
   49CHL1    O3 4735   2.629   1.797   3.585  0.4862  0.2984 -0.3069
   49CHL1   H3' 4736   2.569   1.869   3.569 -0.6464 -0.1518  1.6458
   49CHL1    C4 4737   2.688   1.672   3.790  0.7660 -0.2956  0.4660
   49CHL1   H4A 4738   2.598   1.616   3.757  2.1595 -1.2746 -1.9352
   49CHL1   H4B 4739   2.771   1.622   3.736  1.4053  0.2279  0.9454
   49CHL1    C5 4740   2.701   1.675   3.938 -0.8168  1.0194 -0.2200
   49CHL1    C6 4741   2.810   1.626   3.999 -0.0479  0.8557 -0.4178
   49CHL1    H6 4742   2.889   1.594   3.929  0.5874 -0.7225  0.9590
   49CHL1    C7 4743   2.827   1.617   4.140 -0.6052  0.6641 -1.2046
   49CHL1   H7A 4744   2.861   1.517   4.176 -2.2955  0.4318 -0.1372
   49CHL1   H7B 4745   2.911   1.685   4.165  1.2448 -1.2893 -1.7523
   49CHL1    C8 4746   2.694   1.642   4.224 -1.1926 -0.1223  0.4281
   49CHL1    H8 4747   2.631   1.554   4.197  0.5370 -0.5750 -2.6591
   49CHL1   C14 4748   2.728   1.676   4.363 -0.5032 -0.3196 -0.5149
   49CHL1   H14 4749   2.799   1.761   4.358  0.6143 -1.2201 -0.3560
   49CHL1   C15 4750   2.804   1.573   4.452 -0.0427 -0.1359  0.1739
   49CHL1  H15A 4751   2.748   1.478   4.444 -0.2031  0.0495 -1.1239
   49CHL1  H15B 4752   2.909   1.555   4.420  0.8586  4.0953  0.0740
   49CHL1   C16 4753   2.791   1.645   4.585 -0.1014 -0.7764  0.0045
   49CHL1  H16A 4754   2.742   1.580   4.661  0.5323 -2.3765 -0.9016
   49CHL1  H16B 4755   2.893   1.663   4.625 -0.9379  0.3471  1.6970
   49CHL1   C17 4756   2.683   1.758   4.571 -0.2191 -0.1985 -0.5902
   49CHL1   H17 4757   2.756   1.839   4.548 -1.8945  2.2755  2.0871
   49CHL1   C13 4758   2.606   1.732   4.449 -0.4315 -0.3862  0.0271
   49CHL1   C18 4759   2.507   1.620   4.469 -0.3382  0.0815 -0.0414
   49CHL1  H18A 4760   2.558   1.528   4.505  2.1359  1.6850  0.7848
   49CHL1  H18B 4761   2.435   1.650   4.548  0.8105 -0.6358  1.3213
   49CHL1  H18C 4762   2.451   1.586   4.379 -1.1766 -0.5550  0.6986
   49CHL1   C12 4763   2.539   1.855   4.377 -0.2056 -0.2667 -0.0501
   49CHL1  H12A 4764   2.449   1.883   4.435  0.0148 -1.8486  1.1347
   49CHL1  H12B 4765   2.622   1.929   4.379  1.2129 -1.7040  3.4132
   49CHL1   C11 4766   2.508   1.817   4.232  0.6633  0.0589  0.2688
   49CHL1  H11A 4767   2.420   1.748   4.240  0.2488  0.0901 -2.6502
   49CHL1  H11B 4768   2.468   1.905   4.178  1.0433  0.1754  0.1783
   49CHL1    C9 4769   2.625   1.762   4.161 -0.0881  0.5968  0.5189
   49CHL1    H9 4770   2.701   1.843   4.168 -1.1730  1.6705  0.2431
   49CHL1   C10 4771   2.596   1.754   4.007 -0.4528 -0.2594 -0.5698
   49CHL1   C19 4772   2.459   1.679   3.992  0.7779 -0.2231 -0.0810
   49CHL1  H19A 4773   2.376   1.749   4.013  2.4521  1.5996  0.6960
   49CHL1  H19B 4774   2.436   1.651   3.887 -1.1191 -0.6610  0.4169
   49CHL1  H19C 4775   2.457   1.590   4.059 -0.3104 -0.1342  0.0177
   49CHL1    C1 4776   2.599   1.898   3.947  0.0503 -0.2594 -0.6856
   49CHL1   H1A 4777   2.528   1.964   4.000 -0.3167 -1.5187  0.4206
   49CHL1   H1B 4778   2.697   1.948   3.963 -1.5577  2.4606  1.6636
   49CHL1    C2 4779   2.566   1.901   3.796 -0.1882  0.4271  0.5748
   49CHL1   H2A 4780   2.558   2.006   3.761 -0.4232  0.0003 -0.7049
   49CHL1   H2B 4781   2.462   1.863   3.781  0.4917 -1.7019  0.9308
   49CHL1   C20 4782   2.602   1.804   4.698 -0.3431  0.1024 -0.0295
   49CHL1   H20 4783   2.506   1.848   4.666  0.0608 -0.6617 -2.4982
   49CHL1   C21 4784   2.684   1.912   4.770  0.4039  0.6537 -0.0691
   49CHL1  H21A 4785   2.732   1.983   4.698 -1.6023 -0.2867 -2.4732
   49CHL1  H21B 4786   2.759   1.846   4.820 -0.1823 -0.2649 -0.3782
   49CHL1  H21C 4787   2.621   1.959   4.848  0.4722  0.2279  0.2477
   49CHL1   C22 4788   2.567   1.690   4.796  0.5625  0.4077  0.0069
   49CHL1  H22A 4789   2.562   1.595   4.740 -0.0131  0.8588 -0.7267
   49CHL1  H22B 4790   2.645   1.681   4.875  0.1791  1.9171  0.6089
   49CHL1   C23 4791   2.429   1.708   4.880 -0.0896  0.5566  0.1090
   49CHL1  H23A 4792   2.421   1.618   4.946  0.8070 -0.7098 -1.4437
   49CHL1  H23B 4793   2.423   1.799   4.943  0.9083  0.1621  0.8042
   49CHL1   C24 4794   2.305   1.687   4.793 -0.0148  0.3432 -0.1564
   49CHL1  H24A 4795   2.304   1.773   4.722 -2.0405  0.8709  0.4289
   49CHL1  H24B 4796   2.313   1.597   4.729 -3.3695 -0.4373  0.3253
   49CHL1   C25 4797   2.166   1.678   4.864  0.0968 -0.6429  0.2131
   49CHL1   H25 4798   2.181   1.590   4.931  0.3337 -0.6547  0.1432
   49CHL1   C26 4799   2.127   1.803   4.949 -0.2685 -0.1666  0.2887
   49CHL1  H26A 4800   2.035   1.794   5.010 -0.2536  0.9353  0.4892
   49CHL1  H26B 4801   2.205   1.826   5.025 -1.6304 -0.9205  1.9894
   49CHL1  H26C 4802   2.129   1.884   4.873  1.0192 -1.5746 -1.2882
   49CHL1   C27 4803   2.060   1.652   4.755 -0.3535 -0.0053  0.3500
   49CHL1  H27A 4804   2.057   1.744   4.694  0.7104 -0.3530 -0.2627
   49CHL1  H27B 4805   2.095   1.565   4.696 -0.0838  0.1352  0.3011
   49CHL1  H27C 4806   1.961   1.628   4.800 -1.4571  1.7551 -1.0235
   50CHL1    C3 4807   1.400   3.983   3.852  0.8171  0.6759 -0.0933
   50CHL1    H3 4808   1.477   4.062   3.870  2.1830 -0.4088 -0.9805
   50CHL1    O3 4809   1.390   3.965   3.714  0.0993 -0.0549 -0.7600
   50CHL1   H3' 4810   1.481   3.957   3.687  0.8393 -0.1305  1.5325
   50CHL1    C4 4811   1.447   3.855   3.924  0.4138  0.5343  0.6022
   50CHL1   H4A 4812   1.385   3.770   3.890  0.1440  0.2005  1.8469
   50CHL1   H4B 4813   1.544   3.822   3.881 -0.3133 -3.8504  1.8321
   50CHL1    C5 4814   1.453   3.851   4.075 -0.4783 -0.1123  1.0261
   50CHL1    C6 4815   1.563   3.814   4.143 -0.0512 -0.0509  0.0924
   50CHL1    H6 4816   1.656   3.789   4.088 -1.0186 -0.7477 -1.3011
   50CHL1    C7 4817   1.562   3.803   4.295 -0.3445  0.0203  0.0848
   50CHL1   H7A 4818   1.600   3.702   4.320 -1.0952 -0.7477 -1.7097
   50CHL1   H7B 4819   1.626   3.878   4.346 -1.8454  0.0878  2.0093
   50CHL1    C8 4820   1.418   3.806   4.355  0.2110  0.9491  0.3827
   50CHL1    H8 4821   1.368   3.708   4.339 -1.5349  1.5460  1.8592
   50CHL1   C14 4822   1.431   3.830   4.501 -0.8277 -0.3320 -0.5369
   50CHL1   H14 4823   1.486   3.926   4.504 -2.5378  0.6706  0.5775
   50CHL1   C15 4824   1.505   3.717   4.569  0.0658 -0.1872 -0.9068
   50CHL1  H15A 4825   1.473   3.621   4.523  1.6039 -1.4397  0.4700
   50CHL1  H15B 4826   1.614   3.725   4.548 -0.3355 -0.8509 -3.6247
   50CHL1   C16 4827   1.472   3.739   4.714  0.2785  0.1069 -0.1128
   50CHL1  H16A 4828   1.438   3.645   4.761 -2.3055  0.0854 -1.8391
   50CHL1  H16B 4829   1.568   3.777   4.755  0.4711  0.8662 -1.2199
   50CHL1   C17 4830   1.354   3.844   4.723 -0.4140 -0.5324 -0.4733
   50CHL1   H17 4831   1.402   3.945   4.726  0.4265 -0.8975 -1.1857
   50CHL1   C13 4832   1.302   3.845   4.580 -0.2008 -0.2865 -0.2119
   50CHL1   C18 4833   1.211   3.716   4.565  0.1832 -0.0490  0.7556
   50CHL1  H18A 4834   1.113   3.748   4.605 -0.3901 -0.9700  0.1217
   50CHL1  H18B 4835   1.192   3.695   4.458 -0.7145  1.6624  0.5414
   50CHL1  H18C 4836   1.245   3.629   4.626  2.0310  2.0086  2.9049
   50CHL1   C12 4837   1.217   3.966   4.521  0.5383 -0.1878  0.2659
   50CHL1  H12A 4838   1.119   3.973   4.573  0.8778 -1.2351  1.0780
   50CHL1  H12B 4839   1.275   4.060   4.536 -1.0545  1.0825 -1.1188
   50CHL1   C11 4840   1.206   3.950   4.371  0.3172  0.1931 -0.8699
   50CHL1  H11A 4841   1.130   3.872   4.353 -1.3784  1.2161  1.3698
   50CHL1  H11B 4842   1.158   4.037   4.320  0.2123  0.4162 -0.3995
   50CHL1    C9 4843   1.342   3.927   4.287  0.2201  0.1953 -1.0290
   50CHL1    H9 4844   1.415   4.008   4.308  2.0193 -1.8408  1.2187
   50CHL1   C10 4845   1.327   3.906   4.135 -0.2639  0.3204 -0.0171
   50CHL1   C19 4846   1.215   3.802   4.108 -0.1210  0.2880  0.5395
   50CHL1  H19A 4847   1.201   3.765   4.004 -1.0859 -0.0229  0.7743
   50CHL1  H19B 4848   1.238   3.718   4.177  2.1046  0.8060  0.5316
   50CHL1  H19C 4849   1.123   3.859   4.133 -0.0613  1.9291 -2.4367
   50CHL1    C1 4850   1.300   4.044   4.072  0.3503  0.3285 -0.9328
   50CHL1   H1A 4851   1.211   4.083   4.127  1.6013 -0.1650  1.5927
   50CHL1   H1B 4852   1.381   4.117   4.091 -0.2089  0.8403 -0.4313
   50CHL1    C2 4853   1.275   4.039   3.920  0.0236  0.0591 -0.0083
   50CHL1   H2A 4854   1.255   4.144   3.890 -1.1968  0.0641  0.7297
   50CHL1   H2B 4855   1.184   3.984   3.886 -1.6460  2.6292  0.0235
   50CHL1   C20 4856   1.260   3.837   4.851 -0.4972 -0.0196  0.2105
   50CHL1   H20 4857   1.218   3.734   4.854 -0.9868  0.2116  1.6800
   50CHL1   C21 4858   1.140   3.939   4.836  0.0789  0.2312  0.0703
   50CHL1  H21A 4859   1.179   4.028   4.782 -1.7692 -0.3059 -2.2889
   50CHL1  H21B 4860   1.100   3.966   4.936 -3.9658 -0.4894 -1.1688
   50CHL1  H21C 4861   1.060   3.888   4.779 -0.6526  0.2320  1.0726
   50CHL1   C22 4862   1.343   3.855   4.975  0.3015 -0.1001 -0.3335
   50CHL1  H22A 4863   1.450   3.829   4.961  0.7744  2.1001 -1.1888
   50CHL1  H22B 4864   1.361   3.964   4.990 -0.2671 -0.0146 -0.2536
   50CHL1   C23 4865   1.287   3.793   5.102  0.2248  0.8508 -0.6874
   50CHL1  H23A 4866   1.180   3.819   5.116  0.3902  1.0595  0.2514
   50CHL1  H23B 4867   1.294   3.682   5.095  1.8784  0.8859  0.0806
   50CHL1   C24 4868   1.361   3.821   5.240  0.2458  0.6872 -0.0030
   50CHL1  H24A 4869   1.351   3.929   5.265 -4.2829  0.4668 -0.0188
   50CHL1  H24B 4870   1.306   3.771   5.323 -0.1034  1.1469  0.0507
   50CHL1   C25 4871   1.509   3.777   5.254  0.3833 -0.2001 -0.1691
   50CHL1   H25 4872   1.564   3.828   5.172  1.8643 -0.3424  0.6873
   50CHL1   C26 4873   1.565   3.836   5.386  0.0460  0.0802  0.3324
   50CHL1  H26A 4874   1.513   3.806   5.480  0.8793  0.4132  0.9070
   50CHL1  H26B 4875   1.673   3.813   5.388 -0.0205 -0.9313 -2.9043
   50CHL1  H26C 4876   1.571   3.947   5.391  3.1855  0.0447 -0.9119
   50CHL1   C27 4877   1.513   3.625   5.266  0.3817 -0.3421  0.4546
   50CHL1  H27A 4878   1.614   3.587   5.292  1.5128 -0.4233 -3.3907
   50CHL1  H27B 4879   1.447   3.588   5.347 -0.4979 -1.1147 -0.5871
   50CHL1  H27C 4880   1.487   3.581   5.167 -0.1556  3.5248 -1.3323
   51CHL1    C3 4881   1.329   5.315   3.946  0.2189 -0.6462  0.3853
   51CHL1    H3 4882   1.321   5.423   3.971 -1.5146 -1.2750  2.7941
   51CHL1    O3 4883   1.310   5.306   3.807  0.1368  0.7855 -0.1155
   51CHL1   H3' 4884   1.392   5.322   3.759  0.1095 -1.4530 -1.0693
   51CHL1    C4 4885   1.466   5.256   3.990  0.5459 -0.3051 -0.1276
   51CHL1   H4A 4886   1.469   5.149   3.960 -2.7291 -0.5858  0.1614
   51CHL1   H4B 4887   1.536   5.316   3.927  1.1399  2.2841  2.7784
   51CHL1    C5 4888   1.488   5.275   4.138 -0.6387 -0.2630  0.0937
   51CHL1    C6 4889   1.603   5.334   4.182  0.0431  0.5425 -0.5591
   51CHL1    H6 4890   1.682   5.367   4.113  0.1199 -0.4560 -0.9595
   51CHL1    C7 4891   1.634   5.351   4.329 -0.2581  0.2691 -0.3118
   51CHL1   H7A 4892   1.741   5.330   4.349  0.1654  1.9259 -0.7322
   51CHL1   H7B 4893   1.607   5.454   4.361  0.0997 -0.0794  1.2009
   51CHL1    C8 4894   1.548   5.258   4.422  0.2325 -0.1239 -0.5060
   51CHL1    H8 4895   1.576   5.151   4.407  0.9680  0.0706 -0.5943
   51CHL1   C14 4896   1.564   5.291   4.573  0.0222  0.1825  0.1244
   51CHL1   H14 4897   1.549   5.401   4.579 -0.8923  0.0805 -0.0583
   51CHL1   C15 4898   1.709   5.285   4.632 -0.2567 -0.7801  0.1221
   51CHL1  H15A 4899   1.753   5.190   4.593  2.0790  0.6695 -0.9901
   51CHL1  H15B 4900   1.773   5.367   4.594  1.5456 -1.4715  1.5193
   51CHL1   C16 4901   1.680   5.270   4.784  0.5875  0.1137 -0.0078
   51CHL1  H16A 4902   1.722   5.176   4.826 -2.7255 -1.5850 -0.1103
   51CHL1  H16B 4903   1.723   5.359   4.834 -1.1056  2.0601 -1.7937
   51CHL1   C17 4904   1.525   5.265   4.800  0.4214 -0.7090 -0.5412
   51CHL1   H17 4905   1.490   5.369   4.811  0.7629 -0.7143  0.7471
   51CHL1   C13 4906   1.473   5.211   4.668  0.4360  0.5982  0.4831
   51CHL1   C18 4907   1.511   5.061   4.673 -0.2451  0.0776  0.2062
   51CHL1  H18A 4908   1.438   4.981   4.698 -0.3752 -0.1378 -0.8299
   51CHL1  H18B 4909   1.540   5.027   4.572 -1.2260  1.2817 -0.5052
   51CHL1  H18C 4910   1.598   5.038   4.739  0.4690  0.0781 -0.7182
   51CHL1   C12 4911   1.331   5.226   4.627 -0.3882 -0.1629  0.1612
   51CHL1  H12A 4912   1.253   5.176   4.688 -1.8844  1.3631 -0.4111
   51CHL1  H12B 4913   1.310   5.334   4.642  3.7170  0.7146  0.7487
   51CHL1   C11 4914   1.303   5.193   4.485  0.9400  0.2075 -0.0715
   51CHL1  H11A 4915   1.307   5.082   4.479 -0.6413  0.1872 -2.0749
   51CHL1  H11B 4916   1.196   5.217   4.468  0.4185 -1.2840  0.8436
   51CHL1    C9 4917   1.399   5.257   4.377  1.0907 -0.4625 -0.0131
   51CHL1    H9 4918   1.372   5.364   4.393  1.4075 -0.3122 -0.4563
   51CHL1   C10 4919   1.377   5.220   4.235 -0.2918  0.2616  0.0778
   51CHL1   C19 4920   1.373   5.065   4.228 -0.6639  0.1050 -0.1622
   51CHL1  H19A 4921   1.449   5.020   4.296 -2.0360 -1.2306  0.5439
   51CHL1  H19B 4922   1.275   5.024   4.260 -0.6254  0.9386  1.1043
   51CHL1  H19C 4923   1.402   5.029   4.127  1.3718  1.7559 -0.2493
   51CHL1    C1 4924   1.244   5.266   4.180  0.0967 -0.1894 -0.5488
   51CHL1   H1A 4925   1.158   5.222   4.234  0.5318 -1.4695 -0.8760
   51CHL1   H1B 4926   1.250   5.376   4.199  0.6382  0.2257 -2.7983
   51CHL1    C2 4927   1.224   5.249   4.027  1.0887 -0.2662 -0.1411
   51CHL1   H2A 4928   1.123   5.273   3.987  1.0117 -1.3081 -0.6015
   51CHL1   H2B 4929   1.240   5.142   4.001 -0.7292 -0.5779 -0.1232
   51CHL1   C20 4930   1.483   5.202   4.939  0.0419  0.0264  0.4079
   51CHL1   H20 4931   1.504   5.093   4.939 -1.0244 -0.2172 -0.8961
   51CHL1   C21 4932   1.332   5.218   4.963 -0.7146 -0.3853  0.2372
   51CHL1  H21A 4933   1.284   5.149   4.889  2.9829 -4.8296  1.5379
   51CHL1  H21B 4934   1.302   5.324   4.950 -1.2389 -0.8240 -3.1562
   51CHL1  H21C 4935   1.292   5.176   5.057 -0.7000 -0.1159  0.3653
   51CHL1   C22 4936   1.553   5.280   5.055 -0.6136  0.5675  0.1179
   51CHL1  H22A 4937   1.662   5.286   5.036 -0.9746 -0.5415 -2.7934
   51CHL1  H22B 4938   1.526   5.388   5.048 -0.0294  0.6097 -3.7000
   51CHL1   C23 4939   1.529   5.230   5.199 -0.7048  0.6223  0.0140
   51CHL1  H23A 4940   1.577   5.305   5.265  0.1845 -0.6612  0.8881
   51CHL1  H23B 4941   1.419   5.224   5.218 -0.5340  0.2121  0.9488
   51CHL1   C24 4942   1.587   5.095   5.236  0.5133  0.9210 -0.7427
   51CHL1  H24A 4943   1.536   5.020   5.172  0.8706  0.4173 -0.4441
   51CHL1  H24B 4944   1.693   5.096   5.202  0.8543 -2.2581 -0.0616
   51CHL1   C25 4945   1.567   5.056   5.382 -0.1328 -0.3052 -0.6043
   51CHL1   H25 4946   1.616   4.959   5.403  4.2640  1.3413 -2.1143
   51CHL1   C26 4947   1.623   5.161   5.481 -0.5440  0.4823  0.3869
   51CHL1  H26A 4948   1.639   5.112   5.579 -1.5083 -1.0656 -0.1843
   51CHL1  H26B 4949   1.719   5.211   5.457  0.6848 -1.3153  1.3589
   51CHL1  H26C 4950   1.547   5.241   5.489  0.8688  2.0300 -1.0804
   51CHL1   C27 4951   1.417   5.019   5.413  0.0762  0.4772 -0.1100
   51CHL1  H27A 4952   1.394   5.013   5.522 -3.1587  1.0087 -0.6777
   51CHL1  H27B 4953   1.361   5.103   5.368 -2.6049 -1.5191 -0.7486
   51CHL1  H27C 4954   1.370   4.931   5.365 -0.0115  0.2292  0.4222
   52CHL1    C3 4955   0.085   1.009   3.769 -0.4974  1.0217 -0.6808
   52CHL1    H3 4956   0.190   0.999   3.803 -0.6582  4.5076  1.2823
   52CHL1    O3 4957   0.084   0.997   3.628 -0.3814  0.4423 -0.4359
   52CHL1   H3' 4958  -0.008   0.996   3.601 -0.1385  0.8819 -1.3448
   52CHL1    C4 4959  -0.008   0.902   3.832  0.7557 -0.3214 -0.4446
   52CHL1   H4A 4960  -0.114   0.912   3.801  0.6086 -2.4433 -0.7943
   52CHL1   H4B 4961   0.030   0.800   3.810 -0.4811 -0.6514 -1.0903
   52CHL1    C5 4962  -0.008   0.917   3.981  0.1239 -0.0927 -0.0806
   52CHL1    C6 4963   0.030   0.815   4.060 -0.0776  0.3981 -0.2025
   52CHL1    H6 4964   0.059   0.724   4.007  0.4725  1.5217 -1.9201
   52CHL1    C7 4965   0.025   0.819   4.211  0.3457  0.7067  0.5085
   52CHL1   H7A 4966  -0.029   0.726   4.241  2.0161 -0.5686 -0.2388
   52CHL1   H7B 4967   0.127   0.830   4.254  0.5565  3.3732 -0.5163
   52CHL1    C8 4968  -0.053   0.944   4.262  0.1932  0.4956 -0.2674
   52CHL1    H8 4969  -0.160   0.920   4.240  0.9243  0.2307 -4.5394
   52CHL1   C14 4970  -0.027   0.961   4.411  0.1215  0.2484  0.5550
   52CHL1   H14 4971   0.082   0.982   4.418  0.0244  1.2003 -0.5931
   52CHL1   C15 4972  -0.065   0.847   4.500  0.2710  0.4467 -0.3910
   52CHL1  H15A 4973  -0.170   0.816   4.484  0.1727 -0.1947  1.2512
   52CHL1  H15B 4974  -0.001   0.757   4.490 -2.6868 -1.8643  0.0658
   52CHL1   C16 4975  -0.065   0.909   4.640 -0.0957 -0.7579 -0.9630
   52CHL1  H16A 4976  -0.160   0.885   4.691  0.4596  0.5068  0.7240
   52CHL1  H16B 4977   0.009   0.869   4.712  0.4383  1.2375 -0.3702
   52CHL1   C17 4978  -0.052   1.065   4.618  0.0866 -0.1340  0.2927
   52CHL1   H17 4979   0.056   1.093   4.620 -0.3054  1.5759 -0.7118
   52CHL1   C13 4980  -0.093   1.084   4.471 -0.0631 -0.2111 -0.5430
   52CHL1   C18 4981  -0.250   1.078   4.471 -0.0235  0.0015  0.3974
   52CHL1  H18A 4982  -0.288   1.004   4.544 -0.2208  0.4030  0.7111
   52CHL1  H18B 4983  -0.288   1.180   4.493  2.1393  1.2782 -1.3805
   52CHL1  H18C 4984  -0.289   1.048   4.371 -0.0776  1.2059  0.0409
   52CHL1   C12 4985  -0.039   1.207   4.394 -0.3316 -0.3858 -0.4258
   52CHL1  H12A 4986  -0.075   1.305   4.432 -0.6716 -0.7911  0.3293
   52CHL1  H12B 4987   0.072   1.211   4.406 -0.4630  1.6785  0.5913
   52CHL1   C11 4988  -0.071   1.194   4.241 -0.5190  0.1950  0.0658
   52CHL1  H11A 4989  -0.181   1.205   4.232 -0.0917  3.7437 -4.3651
   52CHL1  H11B 4990  -0.025   1.283   4.192 -0.3491  1.2463  2.0053
   52CHL1    C9 4991  -0.018   1.063   4.183  0.2831 -0.5381  0.0754
   52CHL1    H9 4992   0.090   1.079   4.204  0.7829 -0.1590 -2.4624
   52CHL1   C10 4993  -0.047   1.061   4.027 -0.3384  0.5544 -0.2728
   52CHL1   C19 4994  -0.198   1.072   4.003  0.3037  0.1871  0.0401
   52CHL1  H19A 4995  -0.256   0.993   4.056  0.3135 -0.5812 -1.0749
   52CHL1  H19B 4996  -0.235   1.167   4.045 -0.3397 -0.0679  0.0642
   52CHL1  H19C 4997  -0.220   1.068   3.895 -0.1836  1.4896  0.0776
   52CHL1    C1 4998   0.035   1.168   3.954  0.6803  0.2212  0.0287
   52CHL1   H1A 4999  -0.013   1.264   3.983  2.2889  1.4303 -1.1811
   52CHL1   H1B 5000   0.139   1.161   3.994  0.4706 -0.1957  0.5169
   52CHL1    C2 5001   0.034   1.148   3.799 -0.2774 -1.0952  0.3268
   52CHL1   H2A 5002   0.090   1.225   3.742  2.1092 -2.0920  1.1987
   52CHL1   H2B 5003  -0.074   1.149   3.774 -0.5483 -0.8275  1.4306
   52CHL1   C20 5004  -0.131   1.145   4.722  0.1708  0.5584  0.5743
   52CHL1   H20 5005  -0.241   1.136   4.706  0.0143  2.4526  0.3548
   52CHL1   C21 5006  -0.089   1.294   4.722 -0.3614  0.2779  0.1500
   52CHL1  H21A 5007  -0.138   1.354   4.802 -0.6931 -0.9303  0.8699
   52CHL1  H21B 5008  -0.113   1.341   4.624 -1.9635  1.3949  1.0197
   52CHL1  H21C 5009   0.021   1.301   4.736 -0.3992  1.8241 -0.0962
   52CHL1   C22 5010  -0.101   1.083   4.860  0.1339 -0.0600  0.2413
   52CHL1  H22A 5011  -0.159   0.989   4.864 -0.4267  0.2936  0.6778
   52CHL1  H22B 5012   0.003   1.076   4.899 -1.0734 -0.2740  3.7930
   52CHL1   C23 5013  -0.160   1.163   4.977 -0.1985 -0.0884 -0.0917
   52CHL1  H23A 5014  -0.086   1.241   5.003  1.1796 -0.9445 -1.2566
   52CHL1  H23B 5015  -0.240   1.226   4.933  0.1839  1.1314  0.9035
   52CHL1   C24 5016  -0.191   1.073   5.099  0.3625 -0.0170  0.1481
   52CHL1  H24A 5017  -0.287   1.018   5.088  0.3409 -0.5833  2.6011
   52CHL1  H24B 5018  -0.110   0.997   5.112  0.1943 -0.4658 -1.2887
   52CHL1   C25 5019  -0.197   1.140   5.236 -0.0332 -0.1210  0.3289
   52CHL1   H25 5020  -0.274   1.220   5.238  1.3007  1.1928  0.3006
   52CHL1   C26 5021  -0.246   1.036   5.344  0.6012 -0.2479 -0.4427
   52CHL1  H26A 5022  -0.336   0.981   5.311  0.5925 -1.6813  1.7679
   52CHL1  H26B 5023  -0.161   0.968   5.368  1.6121 -0.8433 -4.7834
   52CHL1  H26C 5024  -0.267   1.105   5.428 -0.6482  0.1309 -1.0437
   52CHL1   C27 5025  -0.057   1.193   5.290  0.6625  0.3212  0.5257
   52CHL1  H27A 5026  -0.020   1.286   5.244  2.6842 -0.5699  0.2564
   52CHL1  H27B 5027  -0.066   1.215   5.399  0.4081  3.4327 -0.0303
   52CHL1  H27C 5028   0.020   1.116   5.270 -1.0955 -1.1436 -1.0471
   53CHL1    C3 5029   0.395   0.717   3.655 -0.1292 -0.4808  0.8536
   53CHL1    H3 5030   0.288   0.739   3.677 -0.3607 -1.8003  1.1956
   53CHL1    O3 5031   0.416   0.718   3.520 -0.6945  0.1927 -0.0659
   53CHL1   H3' 5032   0.445   0.627   3.512  3.0216  1.2969 -0.8655
   53CHL1    C4 5033   0.486   0.821   3.721 -0.5974 -0.4621  0.7822
   53CHL1   H4A 5034   0.592   0.796   3.697 -0.6367 -0.4342  0.5782
   53CHL1   H4B 5035   0.458   0.919   3.678  1.8274 -1.0126 -2.4374
   53CHL1    C5 5036   0.464   0.826   3.867 -0.5147  0.3647  0.0704
   53CHL1    C6 5037   0.425   0.935   3.931 -0.5540 -0.4962 -0.3266
   53CHL1    H6 5038   0.420   1.030   3.877 -0.7994  0.7075  1.7184
   53CHL1    C7 5039   0.408   0.945   4.083  0.5154  0.1702  0.2365
   53CHL1   H7A 5040   0.444   1.045   4.119 -0.4988  1.0501 -1.1229
   53CHL1   H7B 5041   0.301   0.931   4.108  0.1919  0.4694 -0.9329
   53CHL1    C8 5042   0.482   0.837   4.157 -0.0909  0.5182 -0.2113
   53CHL1    H8 5043   0.592   0.855   4.150  0.0958 -0.9209 -1.5231
   53CHL1   C14 5044   0.438   0.836   4.305  0.0721  0.5613  0.3648
   53CHL1   H14 5045   0.332   0.805   4.312  0.1901 -0.4481 -1.7218
   53CHL1   C15 5046   0.454   0.962   4.395  0.5152  0.5104  0.0536
   53CHL1  H15A 5047   0.541   1.026   4.369  0.6878  0.6271  0.8962
   53CHL1  H15B 5048   0.357   1.015   4.382 -0.8977 -1.7913  0.5961
   53CHL1   C16 5049   0.451   0.906   4.542  0.0291 -1.6867 -0.1754
   53CHL1  H16A 5050   0.542   0.916   4.604 -1.7601 -0.9045  2.5079
   53CHL1  H16B 5051   0.373   0.957   4.603  1.0049  0.5187 -0.6862
   53CHL1   C17 5052   0.435   0.754   4.535  0.0759  0.5974 -0.1241
   53CHL1   H17 5053   0.329   0.722   4.530  0.8889 -2.1322 -1.7657
   53CHL1   C13 5054   0.493   0.720   4.391  0.1123 -0.2040 -0.2878
   53CHL1   C18 5055   0.649   0.732   4.401  0.5423 -0.2075  0.2399
   53CHL1  H18A 5056   0.702   0.703   4.308  2.6393  1.2715  0.9045
   53CHL1  H18B 5057   0.684   0.832   4.435 -0.1204  0.2356 -0.3491
   53CHL1  H18C 5058   0.694   0.657   4.470  1.0266 -0.0123  0.1388
   53CHL1   C12 5059   0.451   0.589   4.319  0.6605  0.7125 -0.5526
   53CHL1  H12A 5060   0.481   0.494   4.368  2.7937  1.0465 -1.0990
   53CHL1  H12B 5061   0.341   0.584   4.332  0.9378  1.9439  3.5020
   53CHL1   C11 5062   0.498   0.581   4.171 -0.1276  0.0279  0.4208
   53CHL1  H11A 5063   0.605   0.552   4.161 -0.1230 -0.2721  1.2675
   53CHL1  H11B 5064   0.456   0.486   4.133  1.1151  0.6399 -2.9047
   53CHL1    C9 5065   0.452   0.699   4.090 -0.0664  0.1246  0.5793
   53CHL1    H9 5066   0.341   0.695   4.091 -0.2020  0.8232 -2.2270
   53CHL1   C10 5067   0.486   0.692   3.936 -0.5669  0.3942 -0.7431
   53CHL1   C19 5068   0.633   0.650   3.924  0.2835  0.3372 -0.0015
   53CHL1  H19A 5069   0.638   0.545   3.961  4.0032 -1.4304 -4.5035
   53CHL1  H19B 5070   0.658   0.641   3.816  1.1313  1.3637  0.1020
   53CHL1  H19C 5071   0.696   0.728   3.972 -1.4065  2.1098 -0.5277
   53CHL1    C1 5072   0.395   0.592   3.866 -0.4795  0.4966  0.7197
   53CHL1   H1A 5073   0.403   0.485   3.896  1.1182  0.5370  0.5008
   53CHL1   H1B 5074   0.289   0.626   3.873 -0.2003  2.2078 -1.9197
   53CHL1    C2 5075   0.420   0.576   3.717  0.5820 -0.1363 -0.3759
   53CHL1   H2A 5076   0.356   0.502   3.666 -1.5010  1.5686 -0.3743
   53CHL1   H2B 5077   0.521   0.540   3.689  0.0381  0.1903 -3.0487
   53CHL1   C20 5078   0.500   0.683   4.651  0.6149 -0.0682  0.1369
   53CHL1   H20 5079   0.605   0.718   4.641  0.6291 -0.4704 -1.2786
   53CHL1   C21 5080   0.484   0.529   4.653  0.9181  0.4173  1.0439
   53CHL1  H21A 5081   0.380   0.489   4.650  1.3367 -0.6996  0.8061
   53CHL1  H21B 5082   0.540   0.481   4.735  1.0363 -1.9607 -0.3296
   53CHL1  H21C 5083   0.531   0.492   4.559 -1.2532 -1.5331  0.6262
   53CHL1   C22 5084   0.453   0.734   4.790  0.5761  0.2551  0.0631
   53CHL1  H22A 5085   0.537   0.707   4.858 -2.0560  0.1499  3.5645
   53CHL1  H22B 5086   0.444   0.844   4.804  0.8697  0.4461 -1.1158
   53CHL1   C23 5087   0.320   0.665   4.834 -0.3251  0.2966  0.3855
   53CHL1  H23A 5088   0.262   0.680   4.741 -1.0183 -1.8969  0.4234
   53CHL1  H23B 5089   0.333   0.556   4.851  1.5016  0.3420 -0.4616
   53CHL1   C24 5090   0.235   0.747   4.929  0.4333 -0.7959 -0.6058
   53CHL1  H24A 5091   0.215   0.848   4.888  0.6132 -0.3196  0.4462
   53CHL1  H24B 5092   0.131   0.709   4.927  0.1628 -0.0715 -0.6109
   53CHL1   C25 5093   0.284   0.758   5.074 -0.3891  0.0171 -0.2958
   53CHL1   H25 5094   0.385   0.804   5.076 -2.2724  4.7172  2.8616
   53CHL1   C26 5095   0.192   0.839   5.164 -0.1560  0.7831 -0.5408
   53CHL1  H26A 5096   0.235   0.819   5.264  0.2340  1.0301 -0.6565
   53CHL1  H26B 5097   0.183   0.947   5.142  3.0852  1.4910  1.0064
   53CHL1  H26C 5098   0.090   0.796   5.164  0.0124  0.3747 -0.0276
   53CHL1   C27 5099   0.286   0.613   5.129 -0.6645 -0.2373 -0.2041
   53CHL1  H27A 5100   0.351   0.612   5.219  0.7285 -1.0783 -1.1891
   53CHL1  H27B 5101   0.191   0.563   5.158  1.1389 -2.5761  2.0853
   53CHL1  H27C 5102   0.337   0.541   5.062 -0.4139 -1.4723  1.2678
   54CHL1    C3 5103   0.041   1.799   3.790 -0.0311 -0.5808 -0.3681
   54CHL1    H3 5104   0.059   1.908   3.790  0.0233 -0.5804  0.7045
   54CHL1    O3 5105   0.038   1.760   3.656  0.1000 -0.0650 -0.1880
   54CHL1   H3' 5106  -0.045   1.800   3.628 -0.0018 -0.8683 -1.0615
   54CHL1    C4 5107   0.159   1.725   3.854  0.4319 -0.1902  0.1150
   54CHL1   H4A 5108   0.150   1.616   3.832 -0.8217  0.0056 -0.4157
   54CHL1   H4B 5109   0.241   1.769   3.793  2.2508 -2.9444  0.3831
   54CHL1    C5 5110   0.160   1.753   4.002 -0.7970  0.9627 -0.7928
   54CHL1    C6 5111   0.271   1.808   4.061 -0.1890  0.2735 -0.3506
   54CHL1    H6 5112   0.362   1.838   4.008  0.3730 -2.9438 -1.4518
   54CHL1    C7 5113   0.296   1.813   4.209 -0.3242 -0.4620  0.2448
   54CHL1   H7A 5114   0.397   1.779   4.240 -0.3420 -1.2430 -0.5467
   54CHL1   H7B 5115   0.270   1.914   4.248  0.7654  0.2903 -0.9068
   54CHL1    C8 5116   0.184   1.728   4.288  0.5338 -0.1209  0.3823
   54CHL1    H8 5117   0.219   1.623   4.277 -0.4148 -0.2067 -2.7949
   54CHL1   C14 5118   0.186   1.779   4.431 -0.2338  0.2868 -0.1974
   54CHL1   H14 5119   0.155   1.885   4.438 -2.3319 -0.3667  1.4783
   54CHL1   C15 5120   0.320   1.771   4.512 -0.5004  0.5312 -0.1080
   54CHL1  H15A 5121   0.370   1.685   4.462  0.0024  0.7478  0.0258
   54CHL1  H15B 5122   0.383   1.862   4.520  2.1858 -1.1878 -0.6020
   54CHL1   C16 5123   0.277   1.747   4.653  0.0907  0.4783 -0.4760
   54CHL1  H16A 5124   0.288   1.641   4.684  0.5026  0.4259 -0.7876
   54CHL1  H16B 5125   0.323   1.804   4.736 -0.3157 -3.2313  2.5675
   54CHL1   C17 5126   0.124   1.769   4.657 -0.8321 -0.3322  0.0018
   54CHL1   H17 5127   0.109   1.878   4.644  0.9548 -0.1296 -0.7160
   54CHL1   C13 5128   0.084   1.710   4.523  0.0791  0.1136  0.0055
   54CHL1   C18 5129   0.096   1.556   4.529 -0.3527 -0.3542 -0.2419
   54CHL1  H18A 5130   0.165   1.522   4.449  0.6890 -1.4838  1.0842
   54CHL1  H18B 5131   0.133   1.521   4.628 -0.1020  0.2629 -0.1082
   54CHL1  H18C 5132  -0.005   1.514   4.507 -1.3014  1.4262  0.4207
   54CHL1   C12 5133  -0.059   1.749   4.476  0.3474  0.2286  0.6063
   54CHL1  H12A 5134  -0.135   1.687   4.529 -0.7320  0.5635 -0.5029
   54CHL1  H12B 5135  -0.072   1.859   4.474  0.3049  0.2257 -1.3872
   54CHL1   C11 5136  -0.073   1.705   4.325  0.6848  0.0933 -0.1003
   54CHL1  H11A 5137  -0.086   1.595   4.329 -1.4337  0.3275  1.8567
   54CHL1  H11B 5138  -0.168   1.751   4.287  0.5566 -0.7255 -0.8021
   54CHL1    C9 5139   0.045   1.749   4.233 -0.2544 -0.2837  0.6949
   54CHL1    H9 5140   0.033   1.859   4.238 -1.8226 -0.4593  1.4959
   54CHL1   C10 5141   0.034   1.705   4.085  0.5514 -0.1090 -0.7537
   54CHL1   C19 5142   0.020   1.557   4.066 -0.5386  1.2711 -0.5224
   54CHL1  H19A 5143  -0.054   1.511   4.134  0.4892 -1.5828 -1.2090
   54CHL1  H19B 5144   0.013   1.523   3.960  0.3654 -0.7657  0.0190
   54CHL1  H19C 5145   0.108   1.507   4.112 -2.4536  0.2083  2.2327
   54CHL1    C1 5146  -0.088   1.776   4.012  0.5914  0.1639 -0.4199
   54CHL1   H1A 5147  -0.180   1.727   4.051 -0.3332 -1.5125 -4.2567
   54CHL1   H1B 5148  -0.071   1.882   4.038  2.7707 -0.3098  0.2588
   54CHL1    C2 5149  -0.093   1.765   3.861 -0.3121  0.4890 -0.1147
   54CHL1   H2A 5150  -0.176   1.821   3.814 -0.5851 -0.8954 -1.3285
   54CHL1   H2B 5151  -0.107   1.659   3.831  0.6315  0.8288 -1.8592
   54CHL1   C20 5152   0.047   1.730   4.785 -0.3882  0.1184 -0.0987
   54CHL1   H20 5153   0.017   1.623   4.783  2.9553 -0.9488  0.0021
   54CHL1   C21 5154  -0.078   1.815   4.787 -0.8420  0.1703  0.5221
   54CHL1  H21A 5155  -0.151   1.797   4.706 -0.2640  0.5398 -0.0885
   54CHL1  H21B 5156  -0.039   1.919   4.792  1.1745 -0.5292 -0.0824
   54CHL1  H21C 5157  -0.125   1.793   4.885 -1.6667 -1.8258 -0.2730
   54CHL1   C22 5158   0.130   1.750   4.913  0.4518  0.7419 -0.2591
   54CHL1  H22A 5159   0.230   1.705   4.900 -0.7920 -2.5028  0.5691
   54CHL1  H22B 5160   0.131   1.859   4.934 -0.1098  0.2795  2.4415
   54CHL1   C23 5161   0.080   1.692   5.049  0.3404  0.2281  0.5104
   54CHL1  H23A 5162  -0.010   1.741   5.093  0.1267 -2.3633  3.2870
   54CHL1  H23B 5163   0.062   1.585   5.026 -0.1235  0.5425 -0.6518
   54CHL1   C24 5164   0.191   1.697   5.152  0.5040  0.4241  0.0650
   54CHL1  H24A 5165   0.244   1.600   5.141  0.2556  0.2266  0.5882
   54CHL1  H24B 5166   0.259   1.782   5.128 -0.9888  1.2458 -1.5031
   54CHL1   C25 5167   0.135   1.699   5.295  0.0466  0.6735  0.3465
   54CHL1   H25 5168   0.041   1.641   5.299  0.5146 -0.0569  1.2263
   54CHL1   C26 5169   0.244   1.629   5.387 -0.3191 -0.2512  0.5950
   54CHL1  H26A 5170   0.336   1.692   5.385  0.3839 -1.2789  0.0391
   54CHL1  H26B 5171   0.207   1.624   5.492 -3.3114  2.4634 -0.1538
   54CHL1  H26C 5172   0.275   1.532   5.344  1.3807  1.2573 -1.8391
   54CHL1   C27 5173   0.100   1.840   5.351 -0.3438 -0.4457 -0.4468
   54CHL1  H27A 5174   0.028   1.896   5.287 -0.1463  0.1668 -0.1381
   54CHL1  H27B 5175   0.051   1.815   5.448  0.6881 -0.5223  0.0632
   54CHL1  H27C 5176   0.192   1.899   5.372 -0.6083 -0.2200  0.1135
   55CHL1    C3 5177   6.691   2.958   3.352  0.1811  0.2359  0.1497
   55CHL1    H3 5178   6.800   2.976   3.359  0.2273  1.3644 -2.1633
   55CHL1    O3 5179   6.664   2.914   3.216 -0.1648  0.4612 -0.1923
   55CHL1   H3' 5180   6.645   2.821   3.229 -0.4550  0.7751  2.0753
   55CHL1    C4 5181   6.647   2.850   3.452  0.3457  0.0483  0.0817
   55CHL1   H4A 5182   6.541   2.817   3.438  0.6940 -1.3369  0.5084
   55CHL1   H4B 5183   6.715   2.764   3.435  2.9686  1.6731  1.8012
   55CHL1    C5 5184   6.670   2.900   3.594  0.0439  0.0748 -0.1567
   55CHL1    C6 5185   6.759   2.836   3.672 -0.5679 -0.5285 -0.2655
   55CHL1    H6 5186   6.809   2.744   3.640  1.1127  0.3134 -0.1305
   55CHL1    C7 5187   6.784   2.882   3.816  0.1856 -0.4461  0.4604
   55CHL1   H7A 5188   6.802   2.792   3.879  0.9598 -0.5698  0.0814
   55CHL1   H7B 5189   6.885   2.928   3.817  0.7050 -1.5365  0.4712
   55CHL1    C8 5190   6.678   2.977   3.874  0.7008  0.7141 -0.1670
   55CHL1    H8 5191   6.584   2.920   3.890 -0.1346  1.4277 -2.1953
   55CHL1   C14 5192   6.710   3.043   4.000 -1.0170 -0.2940  0.0440
   55CHL1   H14 5193   6.793   3.109   3.967 -0.1295 -2.0643 -1.4397
   55CHL1   C15 5194   6.763   2.950   4.108 -0.3624 -0.4604 -0.4108
   55CHL1  H15A 5195   6.702   2.859   4.127 -0.3340 -0.6151 -1.0375
   55CHL1  H15B 5196   6.862   2.907   4.080  0.4174  1.5539 -0.8958
   55CHL1   C16 5197   6.766   3.051   4.227  0.9148  0.4387 -0.1151
   55CHL1  H16A 5198   6.726   3.008   4.321 -1.4700 -0.9863 -1.6521
   55CHL1  H16B 5199   6.874   3.057   4.248  1.3219 -3.4981 -0.2482
   55CHL1   C17 5200   6.691   3.183   4.182  0.6327 -0.1636 -0.4305
   55CHL1   H17 5201   6.763   3.257   4.143  1.3503 -0.6847 -0.1064
   55CHL1   C13 5202   6.610   3.139   4.063 -0.8156  0.5616  0.4913
   55CHL1   C18 5203   6.474   3.064   4.087  0.2653  0.4096 -0.6324
   55CHL1  H18A 5204   6.400   3.141   4.117  1.9197  1.0905  2.0796
   55CHL1  H18B 5205   6.443   3.028   3.987 -0.9393  2.6387 -1.1286
   55CHL1  H18C 5206   6.484   2.987   4.167 -0.1138 -0.6795 -1.6111
   55CHL1   C12 5207   6.588   3.242   3.954  0.0639 -0.0667 -0.4586
   55CHL1  H12A 5208   6.524   3.322   3.998 -0.4633 -0.9519  0.4575
   55CHL1  H12B 5209   6.680   3.301   3.936 -0.6804  1.7801  1.3312
   55CHL1   C11 5210   6.542   3.195   3.821 -0.5720 -0.2991  0.3903
   55CHL1  H11A 5211   6.436   3.162   3.828 -0.0413 -2.4094 -0.5384
   55CHL1  H11B 5212   6.540   3.275   3.744  1.5793 -1.3025 -0.8068
   55CHL1    C9 5213   6.642   3.089   3.764 -0.0266 -0.6764 -0.9554
   55CHL1    H9 5214   6.739   3.141   3.754  0.8223 -1.8412  0.7633
   55CHL1   C10 5215   6.597   3.026   3.628 -1.0522 -0.4537  0.4462
   55CHL1   C19 5216   6.443   2.996   3.639 -0.6016 -0.2028  0.7008
   55CHL1  H19A 5217   6.420   2.947   3.736 -2.0659 -0.5507  0.1991
   55CHL1  H19B 5218   6.388   3.092   3.627 -0.0489  0.2876  1.9398
   55CHL1  H19C 5219   6.407   2.933   3.555 -0.1917  0.5233 -0.0304
   55CHL1    C1 5220   6.628   3.136   3.520 -0.2130  0.2617  0.4189
   55CHL1   H1A 5221   6.562   3.224   3.537 -4.1406 -2.5185  0.9877
   55CHL1   H1B 5222   6.735   3.166   3.532 -0.4508  1.5485 -0.5223
   55CHL1    C2 5223   6.611   3.084   3.374  0.0336  0.1061  0.4898
   55CHL1   H2A 5224   6.635   3.169   3.307 -1.6428  1.5717  1.6637
   55CHL1   H2B 5225   6.505   3.054   3.358  0.3933 -0.4550 -1.0157
   55CHL1   C20 5226   6.618   3.242   4.309 -0.4301  0.6185  0.6376
   55CHL1   H20 5227   6.548   3.164   4.345  1.8980 -1.2151  1.4417
   55CHL1   C21 5228   6.545   3.373   4.265 -0.5179 -0.1525  0.0914
   55CHL1  H21A 5229   6.457   3.349   4.202 -0.6618 -0.6887  0.4938
   55CHL1  H21B 5230   6.620   3.431   4.206  0.8119 -0.6798  1.2009
   55CHL1  H21C 5231   6.514   3.429   4.355 -1.5149 -1.2985  0.4804
   55CHL1   C22 5232   6.720   3.263   4.428  0.1196  0.0505  0.2586
   55CHL1  H22A 5233   6.755   3.161   4.456 -0.4230 -0.0103  0.7278
   55CHL1  H22B 5234   6.804   3.330   4.399  1.6700 -2.2805 -0.9970
   55CHL1   C23 5235   6.664   3.320   4.555 -0.3361  0.5139  0.3291
   55CHL1  H23A 5236   6.743   3.337   4.631 -0.0756  1.8938 -0.2191
   55CHL1  H23B 5237   6.631   3.426   4.553 -0.6716  0.4991  2.8318
   55CHL1   C24 5238   6.544   3.242   4.623  0.3309 -0.9274 -0.3225
   55CHL1  H24A 5239   6.450   3.265   4.568  1.0301 -1.7540 -1.9219
   55CHL1  H24B 5240   6.579   3.138   4.608  0.8367 -0.9687  1.0140
   55CHL1   C25 5241   6.537   3.271   4.775  0.1248 -0.2638 -0.0038
   55CHL1   H25 5242   6.636   3.245   4.817 -0.1508  1.9541  2.2423
   55CHL1   C26 5243   6.507   3.422   4.801 -0.4046 -0.2051 -0.6487
   55CHL1  H26A 5244   6.405   3.464   4.785 -0.6172 -0.8366 -0.9803
   55CHL1  H26B 5245   6.530   3.438   4.909  1.1099 -3.6285 -0.3274
   55CHL1  H26C 5246   6.580   3.489   4.752  0.0026  0.6913  1.0939
   55CHL1   C27 5247   6.437   3.189   4.848  0.2814  0.5635 -0.0685
   55CHL1  H27A 5248   6.474   3.085   4.838  1.1622  0.9493 -0.9729
   55CHL1  H27B 5249   6.441   3.213   4.957 -0.3750 -0.1286  0.1186
   55CHL1  H27C 5250   6.333   3.192   4.810  0.7825  3.3088 -1.5117
   56CHL1    C3 5251   3.958   4.873   3.826 -0.1310 -0.3421  0.1292
   56CHL1    H3 5252   3.852   4.908   3.828 -0.4531 -1.0671 -1.8511
   56CHL1    O3 5253   4.020   4.913   3.702  0.5447  0.0402  0.0556
   56CHL1   H3' 5254   4.104   4.870   3.688 -0.2092 -1.0758 -1.2352
   56CHL1    C4 5255   4.047   4.940   3.937  0.0967 -0.3744 -0.2810
   56CHL1   H4A 5256   4.149   4.903   3.915 -0.9997 -3.2921 -0.8266
   56CHL1   H4B 5257   4.045   5.051   3.928 -2.5699 -0.1149  2.1363
   56CHL1    C5 5258   3.989   4.913   4.074 -0.8858  0.1013  0.2593
   56CHL1    C6 5259   3.960   5.016   4.163  0.0541  0.1616  0.1999
   56CHL1    H6 5260   3.971   5.119   4.124 -2.6815 -0.1820 -1.8062
   56CHL1    C7 5261   3.919   4.999   4.301  0.4134  0.0476 -0.4609
   56CHL1   H7A 5262   3.982   5.067   4.363  0.1432 -1.0257  1.0485
   56CHL1   H7B 5263   3.812   5.020   4.318  1.1647  1.7450  3.0818
   56CHL1    C8 5264   3.935   4.856   4.352 -0.4735  0.2125 -0.2327
   56CHL1    H8 5265   4.045   4.855   4.368 -0.6166  1.9488  1.0761
   56CHL1   C14 5266   3.865   4.825   4.479 -1.4146 -0.2379 -0.7754
   56CHL1   H14 5267   3.758   4.844   4.457 -1.2809 -0.5137 -1.7205
   56CHL1   C15 5268   3.897   4.920   4.606 -0.1786  0.2651 -0.3586
   56CHL1  H15A 5269   4.007   4.928   4.619 -0.3085  1.0921  0.2889
   56CHL1  H15B 5270   3.847   5.020   4.607 -1.3740 -0.2380  2.5823
   56CHL1   C16 5271   3.853   4.841   4.729 -0.2813  0.8063 -0.8682
   56CHL1  H16A 5272   3.938   4.818   4.796 -2.5754 -1.4434  1.5189
   56CHL1  H16B 5273   3.779   4.891   4.796  0.0976  0.2777 -0.0464
   56CHL1   C17 5274   3.805   4.694   4.673  0.1232  0.1547  0.2286
   56CHL1   H17 5275   3.700   4.707   4.640  0.3945  1.1989 -0.2924
   56CHL1   C13 5276   3.878   4.689   4.534 -0.0858  0.7707 -0.7955
   56CHL1   C18 5277   4.025   4.648   4.554 -0.4953  0.0961  0.2197
   56CHL1  H18A 5278   4.062   4.697   4.647 -0.8938  3.0806 -1.0872
   56CHL1  H18B 5279   4.031   4.540   4.578 -1.2599 -0.0958 -0.4029
   56CHL1  H18C 5280   4.091   4.677   4.469 -1.3583 -1.7105 -1.1226
   56CHL1   C12 5281   3.812   4.600   4.428 -0.0307 -0.2092 -0.0119
   56CHL1  H12A 5282   3.807   4.492   4.455 -2.6471  0.3831  2.3673
   56CHL1  H12B 5283   3.704   4.625   4.428  0.1493  0.5832  0.3181
   56CHL1   C11 5284   3.880   4.610   4.295  0.9534 -0.2864 -0.2349
   56CHL1  H11A 5285   3.982   4.567   4.301  1.5384  1.1932  0.9207
   56CHL1  H11B 5286   3.822   4.555   4.218  1.3994 -0.7138 -0.2700
   56CHL1    C9 5287   3.892   4.757   4.240 -0.4535  1.1652 -0.0158
   56CHL1    H9 5288   3.789   4.794   4.221 -0.1649  1.3829 -1.2488
   56CHL1   C10 5289   3.984   4.765   4.110  0.9952 -0.1654  0.5604
   56CHL1   C19 5290   4.122   4.704   4.133  0.1142 -0.4105 -0.3200
   56CHL1  H19A 5291   4.159   4.742   4.231 -1.1723 -3.0007  1.2534
   56CHL1  H19B 5292   4.109   4.595   4.150  1.1871 -0.3968  0.7149
   56CHL1  H19C 5293   4.185   4.735   4.047 -0.3630  3.2989  0.4954
   56CHL1    C1 5294   3.906   4.695   3.996  0.1902  0.7013 -0.0163
   56CHL1   H1A 5295   3.912   4.586   4.015 -0.2121  1.0090  2.1132
   56CHL1   H1B 5296   3.800   4.728   4.001  0.3879  1.1186  2.4522
   56CHL1    C2 5297   3.959   4.726   3.850  0.1414  1.0172 -0.8026
   56CHL1   H2A 5298   3.894   4.663   3.784  0.2539  1.8646 -1.7438
   56CHL1   H2B 5299   4.065   4.695   3.843 -0.1591 -0.1991 -0.3921
   56CHL1   C20 5300   3.815   4.580   4.776  0.0350  0.0189 -0.5441
   56CHL1   H20 5301   3.918   4.539   4.781 -0.1378 -0.5150 -1.1248
   56CHL1   C21 5302   3.714   4.462   4.742  0.1506 -0.2467 -0.0521
   56CHL1  H21A 5303   3.753   4.409   4.653 -2.7291 -0.2960 -1.3831
   56CHL1  H21B 5304   3.607   4.487   4.727  0.1467  0.2084  0.6392
   56CHL1  H21C 5305   3.715   4.387   4.823  0.6455 -0.1653  0.0183
   56CHL1   C22 5306   3.779   4.622   4.927 -0.7555 -0.2635  0.8359
   56CHL1  H22A 5307   3.855   4.694   4.963 -1.6759  0.8494  0.6228
   56CHL1  H22B 5308   3.687   4.683   4.916 -1.0544 -0.8031  0.2707
   56CHL1   C23 5309   3.787   4.504   5.029  0.5742  0.1274 -0.1421
   56CHL1  H23A 5310   3.697   4.439   5.025 -0.2920  1.2468  0.7467
   56CHL1  H23B 5311   3.876   4.442   5.001  0.1517 -0.4650 -0.1914
   56CHL1   C24 5312   3.821   4.546   5.177  0.7315  0.4727 -0.0241
   56CHL1  H24A 5313   3.835   4.450   5.231  1.5261  0.5096 -0.1486
   56CHL1  H24B 5314   3.923   4.592   5.181  1.0250  0.0108 -1.6552
   56CHL1   C25 5315   3.711   4.641   5.241  0.1488  0.3018 -0.8819
   56CHL1   H25 5316   3.716   4.734   5.180  1.3680  1.6662  1.1643
   56CHL1   C26 5317   3.576   4.568   5.227 -0.3269 -0.6554 -0.1749
   56CHL1  H26A 5318   3.497   4.623   5.284  1.1928  0.3068  1.1003
   56CHL1  H26B 5319   3.534   4.546   5.127 -0.6436  0.5056 -0.3133
   56CHL1  H26C 5320   3.587   4.479   5.293  2.1697  0.4719  1.0679
   56CHL1   C27 5321   3.739   4.684   5.387 -0.0683 -0.8720 -0.1948
   56CHL1  H27A 5322   3.843   4.721   5.402  0.0869  0.1477 -3.1948
   56CHL1  H27B 5323   3.662   4.758   5.417  0.8064  0.6476 -1.5412
   56CHL1  H27C 5324   3.718   4.599   5.456 -0.4906 -0.8206 -0.2561
   57CHL1    C3 5325   3.520   3.324   3.890 -0.3806 -0.3190  0.7478
   57CHL1    H3 5326   3.614   3.266   3.900  0.2501  0.4655 -0.4091
   57CHL1    O3 5327   3.478   3.340   3.750  0.4483 -0.0024 -0.1802
   57CHL1   H3' 5328   3.455   3.252   3.720 -0.5289  0.7063 -1.6030
   57CHL1    C4 5329   3.411   3.240   3.969  0.2854 -0.0290 -0.4623
   57CHL1   H4A 5330   3.309   3.275   3.946 -0.7950 -1.5134  1.6865
   57CHL1   H4B 5331   3.412   3.136   3.930 -0.2914 -0.6557  1.1152
   57CHL1    C5 5332   3.431   3.234   4.119  0.4515  0.3901 -0.8290
   57CHL1    C6 5333   3.431   3.122   4.187 -0.7932  0.6104 -0.2869
   57CHL1    H6 5334   3.424   3.027   4.133  0.2449  1.3375 -1.7799
   57CHL1    C7 5335   3.446   3.116   4.335  0.4269  0.8354  0.1972
   57CHL1   H7A 5336   3.389   3.034   4.383  1.8370  0.0795  0.6399
   57CHL1   H7B 5337   3.549   3.090   4.367  1.3633  0.3407 -2.8459
   57CHL1    C8 5338   3.409   3.251   4.399  0.6631  0.1690  0.1925
   57CHL1    H8 5339   3.299   3.261   4.388  0.6968 -0.1323 -0.4658
   57CHL1   C14 5340   3.436   3.245   4.550 -0.0088  0.5797 -0.3538
   57CHL1   H14 5341   3.545   3.231   4.562 -0.2512  1.0212  3.9860
   57CHL1   C15 5342   3.377   3.130   4.635  0.3841  0.4989 -0.3832
   57CHL1  H15A 5343   3.284   3.082   4.596  0.4562  1.4208 -1.7623
   57CHL1  H15B 5344   3.455   3.050   4.639 -0.0865  0.0193 -0.6202
   57CHL1   C16 5345   3.363   3.188   4.780 -0.1034  0.6398  0.0547
   57CHL1  H16A 5346   3.256   3.178   4.809 -0.1587  0.1667 -0.2947
   57CHL1  H16B 5347   3.428   3.140   4.857  1.1736  1.3237 -0.5658
   57CHL1   C17 5348   3.407   3.332   4.770 -0.0832 -0.7717 -0.1065
   57CHL1   H17 5349   3.518   3.328   4.779 -0.2178 -1.6136  1.6860
   57CHL1   C13 5350   3.378   3.369   4.622 -0.4005  0.1911  0.0257
   57CHL1   C18 5351   3.222   3.376   4.601 -0.9696 -0.9596  0.6150
   57CHL1  H18A 5352   3.186   3.463   4.659 -0.9845  0.0287 -0.8265
   57CHL1  H18B 5353   3.197   3.390   4.493  1.3755 -1.1837 -0.0109
   57CHL1  H18C 5354   3.166   3.299   4.659 -0.7855 -1.3419  0.2899
   57CHL1   C12 5355   3.456   3.488   4.568 -0.3989  0.5047 -0.5463
   57CHL1  H12A 5356   3.413   3.577   4.617  0.1725  0.3974  0.1686
   57CHL1  H12B 5357   3.565   3.476   4.589 -0.1277 -1.3925 -2.5987
   57CHL1   C11 5358   3.446   3.498   4.416 -0.4481  0.0037  0.1194
   57CHL1  H11A 5359   3.341   3.524   4.395  0.7352  3.3022 -2.6390
   57CHL1  H11B 5360   3.497   3.593   4.387  0.2239 -0.0085  1.1821
   57CHL1    C9 5361   3.475   3.372   4.328  0.2786 -0.8327 -0.3057
   57CHL1    H9 5362   3.583   3.350   4.340  0.2201 -1.3497 -0.6838
   57CHL1   C10 5363   3.453   3.381   4.170  0.6128 -0.2870 -0.3947
   57CHL1   C19 5364   3.327   3.462   4.149  0.7294 -0.2508 -0.0620
   57CHL1  H19A 5365   3.240   3.427   4.208 -0.7674  1.0063 -1.4081
   57CHL1  H19B 5366   3.348   3.565   4.186 -1.0017  0.0116  0.2465
   57CHL1  H19C 5367   3.304   3.466   4.040  1.5941 -1.1346 -0.2875
   57CHL1    C1 5368   3.570   3.446   4.101  0.3778 -0.2331  0.3666
   57CHL1   H1A 5369   3.589   3.551   4.133  0.9974 -0.5385  1.0252
   57CHL1   H1B 5370   3.667   3.401   4.130  1.4268  1.0736 -0.9529
   57CHL1    C2 5371   3.559   3.456   3.945  0.2496 -0.5617 -0.8602
   57CHL1   H2A 5372   3.654   3.492   3.901  1.7347 -1.2569  1.5250
   57CHL1   H2B 5373   3.481   3.533   3.928 -1.1637 -1.0095  2.5801
   57CHL1   C20 5374   3.358   3.425   4.884  0.2689 -0.4032  0.5778
   57CHL1   H20 5375   3.248   3.435   4.875  0.3885 -0.2437 -0.9731
   57CHL1   C21 5376   3.417   3.571   4.881 -1.0061  0.4117  0.0942
   57CHL1  H21A 5377   3.366   3.639   4.810  0.4600  0.8996 -0.5274
   57CHL1  H21B 5378   3.524   3.559   4.856 -1.6420 -1.3216 -2.0609
   57CHL1  H21C 5379   3.408   3.621   4.980  1.7156  1.1101  0.0647
   57CHL1   C22 5380   3.380   3.360   5.023 -0.2454  0.6311 -0.0103
   57CHL1  H22A 5381   3.338   3.258   5.021  1.3596 -0.1753  2.4916
   57CHL1  H22B 5382   3.489   3.363   5.048 -0.1558  0.7514 -0.4061
   57CHL1   C23 5383   3.296   3.410   5.141  0.0896 -0.4914  0.3489
   57CHL1  H23A 5384   3.307   3.521   5.138 -0.4976 -0.4438 -1.3869
   57CHL1  H23B 5385   3.191   3.399   5.108  0.3504  2.2937 -1.7552
   57CHL1   C24 5386   3.334   3.342   5.276  0.2060  0.3176 -0.1013
   57CHL1  H24A 5387   3.397   3.253   5.253  1.7358  1.5397 -0.8386
   57CHL1  H24B 5388   3.401   3.411   5.332  0.1862 -0.4777  0.9458
   57CHL1   C25 5389   3.211   3.309   5.363  0.5379  0.3681  0.2736
   57CHL1   H25 5390   3.135   3.246   5.312 -2.4243  1.5942  2.8402
   57CHL1   C26 5391   3.249   3.212   5.481 -0.0189 -0.3514 -0.1820
   57CHL1  H26A 5392   3.334   3.249   5.542  0.5825 -1.9973  0.0125
   57CHL1  H26B 5393   3.161   3.189   5.545  0.6523  0.8693  1.2685
   57CHL1  H26C 5394   3.285   3.117   5.438 -1.5355 -1.1042  0.1516
   57CHL1   C27 5395   3.131   3.431   5.414  0.1163 -0.4258 -0.1897
   57CHL1  H27A 5396   3.057   3.406   5.493 -0.6713  1.3280 -0.3342
   57CHL1  H27B 5397   3.202   3.497   5.468  0.7220  0.1865 -1.6890
   57CHL1  H27C 5398   3.080   3.485   5.332 -0.6005 -0.1338  0.4384
   58CHL1    C3 5399   1.801   4.410   3.913 -0.6759 -0.0205 -0.0099
   58CHL1    H3 5400   1.816   4.506   3.967  3.0518 -0.8732  0.7667
   58CHL1    O3 5401   1.808   4.440   3.778 -0.5083 -0.5433  0.4308
   58CHL1   H3' 5402   1.792   4.357   3.734 -1.5158 -1.2397  1.9942
   58CHL1    C4 5403   1.919   4.324   3.958 -0.2433 -0.3897  0.2339
   58CHL1   H4A 5404   1.908   4.224   3.911 -0.2156  2.0085 -5.7369
   58CHL1   H4B 5405   2.022   4.349   3.924  1.3838 -4.4357  1.4736
   58CHL1    C5 5406   1.914   4.317   4.113  0.5607  0.1103  0.2239
   58CHL1    C6 5407   2.013   4.373   4.186 -0.0646  0.6783 -0.6721
   58CHL1    H6 5408   2.101   4.420   4.139 -0.9240  2.4654 -0.5892
   58CHL1    C7 5409   2.005   4.359   4.334 -0.2395 -0.3999 -0.6562
   58CHL1   H7A 5410   2.102   4.326   4.377 -0.5321 -0.2717  0.1155
   58CHL1   H7B 5411   1.973   4.450   4.388  0.6487 -1.0209  0.9695
   58CHL1    C8 5412   1.908   4.245   4.385  0.7916  0.6477  0.5176
   58CHL1    H8 5413   1.949   4.145   4.359  1.4610  0.9918  0.2225
   58CHL1   C14 5414   1.897   4.246   4.538  0.0818 -0.1836  0.5157
   58CHL1   H14 5415   1.848   4.344   4.555 -2.2468 -0.9033 -1.4946
   58CHL1   C15 5416   2.036   4.239   4.615  0.1438 -0.4639 -0.5639
   58CHL1  H15A 5417   2.092   4.149   4.581  0.2400 -0.4138 -0.5385
   58CHL1  H15B 5418   2.100   4.330   4.614 -0.6989  0.1532  0.0965
   58CHL1   C16 5419   1.989   4.213   4.762 -0.2775 -0.0236 -0.0687
   58CHL1  H16A 5420   2.037   4.115   4.785 -1.1849 -0.4457  0.0866
   58CHL1  H16B 5421   2.005   4.304   4.823 -3.4785  0.9858 -0.5654
   58CHL1   C17 5422   1.831   4.191   4.761 -0.3746  0.6342  0.0175
   58CHL1   H17 5423   1.789   4.292   4.780  0.4025  1.3761 -1.9739
   58CHL1   C13 5424   1.794   4.159   4.613 -0.0531 -0.5712  0.2676
   58CHL1   C18 5425   1.821   4.007   4.592  0.3142 -0.1360  0.7655
   58CHL1  H18A 5426   1.735   3.942   4.618  0.5792 -0.9820 -0.3694
   58CHL1  H18B 5427   1.831   3.993   4.482 -3.1134 -0.4665  0.3743
   58CHL1  H18C 5428   1.910   3.963   4.642  1.4661 -0.1983 -1.2178
   58CHL1   C12 5429   1.657   4.192   4.553  0.4062  0.2065 -0.0039
   58CHL1  H12A 5430   1.580   4.122   4.591  1.4035 -1.8754 -1.5953
   58CHL1  H12B 5431   1.627   4.290   4.596  0.7260  0.1391  0.3793
   58CHL1   C11 5432   1.650   4.191   4.398  0.4201 -0.6157  0.4212
   58CHL1  H11A 5433   1.653   4.082   4.374  0.0657 -0.9914  1.9824
   58CHL1  H11B 5434   1.551   4.238   4.381  1.2955  1.8142  1.7116
   58CHL1    C9 5435   1.769   4.260   4.320  0.0897  0.0477  0.3664
   58CHL1    H9 5436   1.745   4.366   4.341 -1.3490 -0.2444  0.2822
   58CHL1   C10 5437   1.782   4.258   4.167 -0.5176  0.3523  0.3410
   58CHL1   C19 5438   1.770   4.107   4.126  0.7870 -0.3030  0.4633
   58CHL1  H19A 5439   1.676   4.062   4.164  0.7684 -1.2316 -0.6279
   58CHL1  H19B 5440   1.777   4.086   4.017  2.5678  2.2831 -0.0033
   58CHL1  H19C 5441   1.858   4.057   4.172  0.8622 -0.4234  0.1887
   58CHL1    C1 5442   1.662   4.327   4.105 -0.0223 -0.2974  0.7538
   58CHL1   H1A 5443   1.566   4.273   4.124 -1.4302  0.9747 -2.0826
   58CHL1   H1B 5444   1.647   4.428   4.148 -0.1742  0.4154 -0.9086
   58CHL1    C2 5445   1.676   4.344   3.955  0.0744 -0.3920  0.2426
   58CHL1   H2A 5446   1.589   4.402   3.916  1.3476  2.3147  1.1904
   58CHL1   H2B 5447   1.675   4.245   3.904  0.6792 -0.7565  0.9343
   58CHL1   C20 5448   1.776   4.097   4.876  0.1358 -0.3037  0.2141
   58CHL1   H20 5449   1.840   4.006   4.874  2.1119  1.0076  1.2277
   58CHL1   C21 5450   1.630   4.045   4.858 -0.1605 -0.3203  0.0207
   58CHL1  H21A 5451   1.605   3.965   4.930  1.0031  0.4019  1.2842
   58CHL1  H21B 5452   1.614   4.000   4.758  1.1801  0.2466 -0.4767
   58CHL1  H21C 5453   1.557   4.127   4.874  0.8409  0.6159 -0.0550
   58CHL1   C22 5454   1.785   4.175   5.009 -0.1674  0.7029 -0.1313
   58CHL1  H22A 5455   1.874   4.241   5.009  0.7328 -0.4766 -0.4259
   58CHL1  H22B 5456   1.709   4.255   5.002  0.8205  1.9019  1.9611
   58CHL1   C23 5457   1.779   4.086   5.131 -0.1921 -0.1938  0.2744
   58CHL1  H23A 5458   1.703   4.004   5.123 -0.2316  0.0058 -3.0439
   58CHL1  H23B 5459   1.873   4.030   5.146  0.3631  0.8875  0.8618
   58CHL1   C24 5460   1.758   4.167   5.262 -0.0738  0.5136 -0.1178
   58CHL1  H24A 5461   1.652   4.198   5.277 -0.0022  0.4371  0.6059
   58CHL1  H24B 5462   1.759   4.093   5.345 -1.5704  0.1974 -0.3520
   58CHL1   C25 5463   1.858   4.279   5.280 -0.4323 -0.1275 -0.2266
   58CHL1   H25 5464   1.825   4.362   5.213 -0.3625  0.5853  0.5962
   58CHL1   C26 5465   1.854   4.352   5.422 -0.5783  0.4054  0.1782
   58CHL1  H26A 5466   1.898   4.287   5.501 -1.9632 -0.0997  0.5625
   58CHL1  H26B 5467   1.909   4.448   5.424 -1.0009  0.6659 -0.3948
   58CHL1  H26C 5468   1.750   4.383   5.446 -0.6704  2.5875 -2.5840
   58CHL1   C27 5469   2.006   4.242   5.261 -0.5776  0.0440  0.3236
   58CHL1  H27A 5470   2.026   4.191   5.164 -0.4784 -2.1626  1.4616
   58CHL1  H27B 5471   2.063   4.337   5.271  1.7414 -0.9407 -2.1125
   58CHL1  H27C 5472   2.050   4.182   5.343  1.6581  3.9192  2.2520
   59CHL1    C3 5473   0.793   3.655   3.613 -0.0096  0.5555  0.0748
   59CHL1    H3 5474   0.889   3.600   3.617 -1.2183 -1.6512  0.7075
   59CHL1    O3 5475   0.740   3.657   3.475  0.1999 -0.6194 -0.1927
   59CHL1   H3' 5476   0.789   3.589   3.427  0.9446 -0.8433  0.8423
   59CHL1    C4 5477   0.695   3.571   3.696 -0.3747 -0.1259  0.1751
   59CHL1   H4A 5478   0.591   3.597   3.668 -1.0071 -1.9995  0.6698
   59CHL1   H4B 5479   0.711   3.472   3.649  0.0861  0.6464 -1.3872
   59CHL1    C5 5480   0.717   3.579   3.845  0.1429  0.1497 -0.6689
   59CHL1    C6 5481   0.732   3.469   3.916 -0.4911  0.2983 -0.2832
   59CHL1    H6 5482   0.731   3.370   3.868  1.6637  0.4267 -0.6824
   59CHL1    C7 5483   0.758   3.468   4.063 -0.5135 -0.2317 -0.2175
   59CHL1   H7A 5484   0.715   3.374   4.104 -0.2914  0.1817  0.9845
   59CHL1   H7B 5485   0.868   3.467   4.082  0.2797  2.0748 -3.7558
   59CHL1    C8 5486   0.707   3.596   4.123  0.7253 -1.2844 -0.1159
   59CHL1    H8 5487   0.596   3.600   4.114  0.6577 -2.1935  0.2590
   59CHL1   C14 5488   0.749   3.611   4.267  0.2658 -0.2522  0.7024
   59CHL1   H14 5489   0.858   3.592   4.268  0.5743  1.2650 -0.6902
   59CHL1   C15 5490   0.695   3.506   4.356  0.7990 -0.1892 -0.7388
   59CHL1  H15A 5491   0.587   3.490   4.336  0.5709 -2.0284  1.5655
   59CHL1  H15B 5492   0.752   3.411   4.342 -1.4556 -2.0497  1.6375
   59CHL1   C16 5493   0.718   3.566   4.499 -0.5077  0.1071  0.3235
   59CHL1  H16A 5494   0.629   3.559   4.566 -0.8667 -1.1427 -0.2522
   59CHL1  H16B 5495   0.788   3.498   4.553 -2.0276 -0.7784  1.2749
   59CHL1   C17 5496   0.772   3.708   4.478 -0.6349  0.0923  0.5338
   59CHL1   H17 5497   0.883   3.699   4.478 -0.4796  1.6725  1.0276
   59CHL1   C13 5498   0.722   3.747   4.336 -0.3042 -0.1114 -0.2136
   59CHL1   C18 5499   0.571   3.785   4.343  0.8014 -0.1990  0.3564
   59CHL1  H18A 5500   0.513   3.704   4.393 -0.3829 -0.4952 -1.4130
   59CHL1  H18B 5501   0.541   3.883   4.387 -0.0471  0.5158 -1.6580
   59CHL1  H18C 5502   0.532   3.785   4.239 -1.0992 -1.2432  1.0212
   59CHL1   C12 5503   0.796   3.856   4.257  0.2497  0.0395 -0.0511
   59CHL1  H12A 5504   0.773   3.952   4.309 -3.9776 -1.2225  0.7852
   59CHL1  H12B 5505   0.906   3.844   4.266  0.4690  2.0183  0.4323
   59CHL1   C11 5506   0.761   3.856   4.111  0.1175  0.6780  0.1260
   59CHL1  H11A 5507   0.656   3.890   4.104  0.4883  1.6896 -0.8313
   59CHL1  H11B 5508   0.826   3.931   4.060 -0.4273  1.0334 -0.0572
   59CHL1    C9 5509   0.776   3.720   4.050 -0.0374  0.1184 -0.1744
   59CHL1    H9 5510   0.883   3.690   4.051 -0.3505 -1.1713 -1.4029
   59CHL1   C10 5511   0.735   3.725   3.894  0.1990 -0.8149  0.4835
   59CHL1   C19 5512   0.601   3.794   3.886 -0.4017 -0.0697  0.2776
   59CHL1  H19A 5513   0.565   3.810   3.782  0.3174  3.3802  0.4611
   59CHL1  H19B 5514   0.524   3.741   3.945 -1.5318  0.2718 -0.8427
   59CHL1  H19C 5515   0.612   3.897   3.925  2.3943  0.0493 -0.5423
   59CHL1    C1 5516   0.846   3.794   3.816  0.0816  0.4028 -0.7101
   59CHL1   H1A 5517   0.871   3.896   3.853  1.1505  0.5960 -1.8937
   59CHL1   H1B 5518   0.937   3.731   3.830  1.3453  1.7731 -2.3311
   59CHL1    C2 5519   0.815   3.797   3.665  0.0987 -0.1924 -0.5646
   59CHL1   H2A 5520   0.893   3.854   3.611 -0.1945  0.6625 -0.1069
   59CHL1   H2B 5521   0.720   3.852   3.651 -0.0452  0.2612  1.7588
   59CHL1   C20 5522   0.740   3.805   4.593  0.1400  0.8658 -0.5437
   59CHL1   H20 5523   0.631   3.822   4.599 -0.0032  0.7118 -2.2863
   59CHL1   C21 5524   0.809   3.930   4.576  0.2867 -0.1458 -0.5607
   59CHL1  H21A 5525   0.819   4.000   4.661  1.3274  0.5220 -1.2126
   59CHL1  H21B 5526   0.757   3.990   4.498  1.0658 -0.0286 -1.0010
   59CHL1  H21C 5527   0.915   3.921   4.544  1.0939  2.1066  1.2340
   59CHL1   C22 5528   0.790   3.739   4.731  0.1552 -0.0865 -0.0132
   59CHL1  H22A 5529   0.722   3.652   4.749 -0.1581 -0.6448 -3.2220
   59CHL1  H22B 5530   0.890   3.694   4.714 -0.3743 -0.6247 -1.9841
   59CHL1   C23 5531   0.774   3.828   4.856 -0.0467  0.3221  0.4243
   59CHL1  H23A 5532   0.815   3.930   4.840  0.9927 -0.0360  0.7374
   59CHL1  H23B 5533   0.663   3.835   4.864 -0.1565  0.8508 -1.3378
   59CHL1   C24 5534   0.836   3.777   4.989  0.7548  1.3844  0.1977
   59CHL1  H24A 5535   0.792   3.675   4.997 -0.6993  1.4716 -4.2708
   59CHL1  H24B 5536   0.947   3.774   4.992  0.8210 -1.1738 -1.8772
   59CHL1   C25 5537   0.791   3.854   5.114 -0.3208 -0.3330  0.3773
   59CHL1   H25 5538   0.681   3.856   5.099 -0.1897 -1.8436 -1.1190
   59CHL1   C26 5539   0.825   3.783   5.241  0.3113 -0.4348 -0.6410
   59CHL1  H26A 5540   0.935   3.764   5.242  0.8609  2.0742 -2.8354
   59CHL1  H26B 5541   0.791   3.823   5.339  0.2052 -3.0754  0.5025
   59CHL1  H26C 5542   0.784   3.680   5.248  0.2784 -0.4084 -0.4201
   59CHL1   C27 5543   0.859   3.988   5.128  0.5567 -0.4496  0.2654
   59CHL1  H27A 5544   0.837   4.033   5.227 -0.3353  0.4099 -0.3081
   59CHL1  H27B 5545   0.970   3.985   5.124  0.5357  0.1612 -1.2937
   59CHL1  H27C 5546   0.821   4.051   5.045 -0.8724  1.4838  2.2665
   60CHL1    C3 5547   3.592   1.874   3.885 -0.3996 -0.5508 -0.7229
   60CHL1    H3 5548   3.700   1.867   3.912 -0.6619 -0.9645  0.2405
   60CHL1    O3 5549   3.563   1.843   3.749  0.1597  0.4132 -0.2942
   60CHL1   H3' 5550   3.476   1.880   3.730 -0.7452 -1.2790  0.3532
   60CHL1    C4 5551   3.509   1.797   3.983  0.4234 -0.3092  0.0751
   60CHL1   H4A 5552   3.407   1.837   3.965  0.7925  1.2806  1.2296
   60CHL1   H4B 5553   3.519   1.688   3.963  0.1203 -0.0843 -1.3846
   60CHL1    C5 5554   3.546   1.836   4.125  0.5736 -0.4808 -0.6115
   60CHL1    C6 5555   3.580   1.743   4.221 -0.1556  0.4386  0.3589
   60CHL1    H6 5556   3.573   1.640   4.183 -2.0070  0.5007  0.4442
   60CHL1    C7 5557   3.614   1.772   4.363 -0.2573 -0.3882 -0.3508
   60CHL1   H7A 5558   3.563   1.702   4.432 -1.4362 -0.9424 -1.7568
   60CHL1   H7B 5559   3.722   1.749   4.379 -0.0518  0.8449  0.2039
   60CHL1    C8 5560   3.572   1.915   4.399  0.0061 -0.3086 -0.5801
   60CHL1    H8 5561   3.463   1.917   4.420 -0.2154 -1.0413 -1.6056
   60CHL1   C14 5562   3.629   1.962   4.537 -1.1026  0.0223  1.1827
   60CHL1   H14 5563   3.736   1.988   4.523 -1.9842  2.9343 -0.9729
   60CHL1   C15 5564   3.634   1.862   4.648 -0.7708 -0.2565 -0.3528
   60CHL1  H15A 5565   3.542   1.800   4.658  0.2505 -1.8298 -0.2675
   60CHL1  H15B 5566   3.725   1.801   4.632  0.1557  1.5837 -2.6980
   60CHL1   C16 5567   3.647   1.945   4.776  0.2156  0.2698 -0.4494
   60CHL1  H16A 5568   3.555   1.921   4.835 -0.3428 -0.6103 -1.6307
   60CHL1  H16B 5569   3.738   1.918   4.834  0.6288 -0.5370 -1.4511
   60CHL1   C17 5570   3.657   2.096   4.731  0.4693  0.4555  0.0625
   60CHL1   H17 5571   3.764   2.110   4.705  0.2847  0.5000 -0.7068
   60CHL1   C13 5572   3.580   2.095   4.600  0.1380 -0.0751 -0.1421
   60CHL1   C18 5573   3.428   2.079   4.630 -0.2267 -0.5901  0.1824
   60CHL1  H18A 5574   3.373   2.154   4.690 -1.9970 -1.2905 -0.4729
   60CHL1  H18B 5575   3.377   2.086   4.531  0.0852  0.6687  0.1000
   60CHL1  H18C 5576   3.410   1.983   4.683  1.2616 -1.3488 -0.5882
   60CHL1   C12 5577   3.592   2.210   4.490 -0.0442  0.2277 -0.1308
   60CHL1  H12A 5578   3.529   2.293   4.528 -1.3499 -0.6502 -0.2807
   60CHL1  H12B 5579   3.693   2.253   4.474 -0.2525  0.6189 -0.4294
   60CHL1   C11 5580   3.541   2.171   4.350 -0.5871  0.4264 -0.1959
   60CHL1  H11A 5581   3.430   2.163   4.360 -0.3327 -2.1353  1.5677
   60CHL1  H11B 5582   3.559   2.250   4.275  0.4354  1.8551  1.4714
   60CHL1    C9 5583   3.583   2.031   4.293 -0.1010 -0.1030  0.3189
   60CHL1    H9 5584   3.693   2.029   4.279 -0.0716 -0.0517  0.5537
   60CHL1   C10 5585   3.524   1.984   4.158  0.1185  0.2616 -0.6009
   60CHL1   C19 5586   3.377   2.020   4.163  0.2504 -0.7275  0.7095
   60CHL1  H19A 5587   3.321   2.000   4.069 -0.2140  1.3267  0.4942
   60CHL1  H19B 5588   3.326   1.974   4.251  0.2991  1.3032  1.8572
   60CHL1  H19C 5589   3.374   2.131   4.162  0.9119 -0.7080 -0.4148
   60CHL1    C1 5590   3.594   2.065   4.045  0.4011 -0.5641 -0.3316
   60CHL1   H1A 5591   3.581   2.175   4.056 -0.1559 -0.5773 -0.7933
   60CHL1   H1B 5592   3.700   2.040   4.068 -0.4649 -1.8740  2.5857
   60CHL1    C2 5593   3.565   2.021   3.898 -0.0419  0.2052  0.2235
   60CHL1   H2A 5594   3.612   2.090   3.825  2.1285 -2.7567 -1.3971
   60CHL1   H2B 5595   3.455   2.021   3.891 -0.2157 -2.8681  1.2954
   60CHL1   C20 5596   3.611   2.206   4.829 -0.0053 -0.4870  0.1369
   60CHL1   H20 5597   3.555   2.286   4.777  0.6330 -1.1805 -1.7004
   60CHL1   C21 5598   3.744   2.273   4.871 -0.2080 -0.6293  0.2939
   60CHL1  H21A 5599   3.800   2.314   4.785  0.3406  0.7763  1.2738
   60CHL1  H21B 5600   3.798   2.197   4.933  0.9735  1.4838  2.0217
   60CHL1  H21C 5601   3.723   2.357   4.942  0.0414 -0.8728  0.6631
   60CHL1   C22 5602   3.514   2.157   4.946 -0.5143 -0.3352 -1.2527
   60CHL1  H22A 5603   3.427   2.101   4.906 -2.7350  0.8920  1.4906
   60CHL1  H22B 5604   3.567   2.087   5.014 -0.6883 -0.5520 -1.3403
   60CHL1   C23 5605   3.473   2.272   5.038  0.1427  1.0985  0.7215
   60CHL1  H23A 5606   3.562   2.315   5.088  0.7641 -1.6458  2.1636
   60CHL1  H23B 5607   3.424   2.346   4.972  0.0147  1.0651  0.7783
   60CHL1   C24 5608   3.364   2.220   5.130  0.2343  0.3962  0.4963
   60CHL1  H24A 5609   3.275   2.195   5.068 -1.5660  1.2349  2.6179
   60CHL1  H24B 5610   3.402   2.126   5.175  1.0803  1.1876  1.4785
   60CHL1   C25 5611   3.313   2.319   5.235  0.1169 -0.2853 -0.5026
   60CHL1   H25 5612   3.280   2.404   5.172  4.1693  0.9143 -1.3254
   60CHL1   C26 5613   3.199   2.250   5.320  0.0331  0.3705  0.3414
   60CHL1  H26A 5614   3.162   2.330   5.387  1.1709  0.8478  0.4248
   60CHL1  H26B 5615   3.124   2.210   5.249 -1.4667  2.3377  0.7267
   60CHL1  H26C 5616   3.245   2.164   5.372  0.1428 -0.0866 -0.4863
   60CHL1   C27 5617   3.415   2.387   5.333 -0.0724  0.0415  0.0000
   60CHL1  H27A 5618   3.356   2.472   5.372 -1.5407 -1.4795  1.2480
   60CHL1  H27B 5619   3.446   2.330   5.423 -0.0090  1.2193  0.7463
   60CHL1  H27C 5620   3.506   2.425   5.281 -2.4582  1.6783 -3.3842
   61CHL1    C3 5621   4.095   3.853   3.701  0.2388  0.2938 -0.6583
   61CHL1    H3 5622   4.119   3.948   3.752  0.9026  0.0327 -0.4686
   61CHL1    O3 5623   4.134   3.858   3.563  0.1592  0.3310 -0.7214
   61CHL1   H3' 5624   4.139   3.766   3.536 -0.3859  0.3385 -0.8460
   61CHL1    C4 5625   4.170   3.734   3.761 -0.0761  0.1187 -0.3515
   61CHL1   H4A 5626   4.147   3.634   3.718  2.2731 -0.3503 -0.6604
   61CHL1   H4B 5627   4.277   3.736   3.732 -0.9843  0.1182 -4.1590
   61CHL1    C5 5628   4.147   3.732   3.911 -0.0137  0.3582  0.3055
   61CHL1    C6 5629   4.254   3.744   4.000 -0.6786 -0.1283  0.7025
   61CHL1    H6 5630   4.355   3.767   3.961 -1.2075  1.5829  0.2366
   61CHL1    C7 5631   4.242   3.725   4.149  0.1422  0.0906 -0.2111
   61CHL1   H7A 5632   4.326   3.663   4.187  1.1379  1.4915 -0.0208
   61CHL1   H7B 5633   4.250   3.822   4.203 -0.0375  0.8203 -1.4345
   61CHL1    C8 5634   4.098   3.681   4.193 -0.3751 -0.3606  0.2754
   61CHL1    H8 5635   4.106   3.571   4.180  0.0523 -0.1560 -1.4271
   61CHL1   C14 5636   4.078   3.716   4.344  0.4919  0.0766 -0.1808
   61CHL1   H14 5637   4.062   3.826   4.351  0.4444  0.0463  0.2068
   61CHL1   C15 5638   4.194   3.682   4.440 -0.6067 -0.1121  0.0664
   61CHL1  H15A 5639   4.227   3.577   4.421 -1.9317 -1.2223  3.2123
   61CHL1  H15B 5640   4.276   3.754   4.420 -0.1100 -0.7936 -0.4468
   61CHL1   C16 5641   4.133   3.704   4.579 -0.2639 -0.1444 -0.4863
   61CHL1  H16A 5642   4.164   3.624   4.650  1.5601  0.9145 -0.0337
   61CHL1  H16B 5643   4.160   3.799   4.630  0.3487 -0.3665 -0.3922
   61CHL1   C17 5644   3.982   3.725   4.550  0.2296 -0.1873 -0.1000
   61CHL1   H17 5645   3.964   3.835   4.554  0.0598 -0.1082 -2.0270
   61CHL1   C13 5646   3.954   3.673   4.409 -0.1117 -0.1475 -0.3243
   61CHL1   C18 5647   3.940   3.521   4.408 -0.4588  0.8474  0.3348
   61CHL1  H18A 5648   3.937   3.478   4.305 -2.3387  1.0299  0.2643
   61CHL1  H18B 5649   4.030   3.482   4.458  0.7114  0.3661 -1.9827
   61CHL1  H18C 5650   3.850   3.494   4.466 -0.3953 -2.3542 -0.8792
   61CHL1   C12 5651   3.841   3.737   4.317 -0.3717  0.5078  0.1034
   61CHL1  H12A 5652   3.739   3.722   4.357  0.8725 -0.5790  3.1895
   61CHL1  H12B 5653   3.865   3.844   4.340  1.5648  0.1455 -0.0374
   61CHL1   C11 5654   3.845   3.705   4.172  0.4109 -0.8634 -0.1122
   61CHL1  H11A 5655   3.832   3.597   4.153 -1.3454 -1.2606  2.7326
   61CHL1  H11B 5656   3.776   3.769   4.112  1.0665 -0.5599 -0.5609
   61CHL1    C9 5657   3.983   3.742   4.112 -0.3938 -0.0547  0.0875
   61CHL1    H9 5658   3.981   3.852   4.123 -0.5750  0.2044 -2.0573
   61CHL1   C10 5659   4.000   3.715   3.953 -0.1420  0.1851 -1.1428
   61CHL1   C19 5660   3.971   3.564   3.920  0.2691 -0.1076  0.3882
   61CHL1  H19A 5661   3.867   3.534   3.946  1.2318 -2.8393  1.5010
   61CHL1  H19B 5662   3.978   3.543   3.811  0.7091 -0.5350  0.4956
   61CHL1  H19C 5663   4.032   3.497   3.984 -1.8153 -2.3410  0.1960
   61CHL1    C1 5664   3.911   3.811   3.872  0.1187  0.1688 -0.7526
   61CHL1   H1A 5665   3.812   3.771   3.900  1.7350 -2.3281  1.9204
   61CHL1   H1B 5666   3.915   3.916   3.909 -0.8436 -0.2002  0.4660
   61CHL1    C2 5667   3.946   3.815   3.721 -0.3855  0.2298  0.4856
   61CHL1   H2A 5668   3.892   3.890   3.659  1.9335  0.9167 -0.8163
   61CHL1   H2B 5669   3.928   3.718   3.672 -1.2971 -1.0282  3.1087
   61CHL1   C20 5670   3.889   3.667   4.653 -0.1440  0.0773 -0.3217
   61CHL1   H20 5671   3.908   3.558   4.663  0.6786  0.1888 -0.6750
   61CHL1   C21 5672   3.738   3.689   4.617  0.8398 -0.6116 -0.1236
   61CHL1  H21A 5673   3.671   3.657   4.699  0.9348  0.4054  0.3749
   61CHL1  H21B 5674   3.712   3.622   4.532 -1.4625 -1.6854  1.3276
   61CHL1  H21C 5675   3.706   3.791   4.585 -0.5163 -1.4854 -1.6960
   61CHL1   C22 5676   3.923   3.731   4.792  0.1203 -0.3523 -0.6788
   61CHL1  H22A 5677   4.032   3.743   4.810 -0.0778 -0.6333  0.8824
   61CHL1  H22B 5678   3.890   3.837   4.790 -0.6208 -0.4456  2.1888
   61CHL1   C23 5679   3.856   3.662   4.909  0.2357 -0.9645 -0.4186
   61CHL1  H23A 5680   3.747   3.683   4.902  0.1143 -1.1900  0.5593
   61CHL1  H23B 5681   3.897   3.560   4.894  1.7126 -0.5971  0.7866
   61CHL1   C24 5682   3.897   3.706   5.048 -0.2540 -0.5177  0.5744
   61CHL1  H24A 5683   4.008   3.695   5.046 -0.1939  0.1231 -0.4968
   61CHL1  H24B 5684   3.865   3.811   5.066  0.9099  0.0186 -0.3135
   61CHL1   C25 5685   3.844   3.611   5.154 -0.4441 -1.0877 -0.6413
   61CHL1   H25 5686   3.866   3.511   5.112  1.9220 -0.5745 -0.7586
   61CHL1   C26 5687   3.902   3.632   5.296 -0.3834  0.0009 -0.4041
   61CHL1  H26A 5688   3.857   3.560   5.367 -0.6394  1.0612  0.5350
   61CHL1  H26B 5689   4.013   3.622   5.295 -0.4663 -1.1091  0.1740
   61CHL1  H26C 5690   3.873   3.731   5.337 -1.0552 -0.3166 -0.0937
   61CHL1   C27 5691   3.691   3.627   5.163  0.0968  0.3122  0.5325
   61CHL1  H27A 5692   3.663   3.720   5.218  1.9257  1.9222 -1.0975
   61CHL1  H27B 5693   3.638   3.623   5.065  0.3732 -0.6691  0.4146
   61CHL1  H27C 5694   3.656   3.540   5.221  1.4732 -0.3723  0.3853
   62CHL1    C3 5695   5.702   3.841   3.592  0.0028 -0.5072 -0.6456
   62CHL1    H3 5696   5.786   3.772   3.614 -0.9127 -1.0504  1.4547
   62CHL1    O3 5697   5.669   3.844   3.452 -0.1339  0.4946 -0.4583
   62CHL1   H3' 5698   5.594   3.903   3.443  1.1082  1.9930 -1.5425
   62CHL1    C4 5699   5.580   3.786   3.666 -0.1287 -0.0264  0.2341
   62CHL1   H4A 5700   5.495   3.847   3.628  0.0235 -1.7395 -3.1606
   62CHL1   H4B 5701   5.565   3.682   3.631 -2.6213  0.2596  0.2291
   62CHL1    C5 5702   5.596   3.793   3.812  0.0903  0.1999 -0.0839
   62CHL1    C6 5703   5.577   3.680   3.876  0.7928  0.3858 -0.0355
   62CHL1    H6 5704   5.560   3.592   3.812  2.5872 -0.5834  0.7674
   62CHL1    C7 5705   5.602   3.671   4.026 -0.2835  0.0637 -0.1602
   62CHL1   H7A 5706   5.526   3.601   4.067 -1.4511  0.0446 -2.2074
   62CHL1   H7B 5707   5.701   3.636   4.061 -0.5338 -0.2031  0.2808
   62CHL1    C8 5708   5.592   3.813   4.100 -0.1613  0.0240  0.0313
   62CHL1    H8 5709   5.485   3.832   4.121 -0.2440 -0.5311  0.1191
   62CHL1   C14 5710   5.662   3.813   4.234  0.0363  1.0944  0.3984
   62CHL1   H14 5711   5.770   3.791   4.216 -0.0216 -1.1370  2.2255
   62CHL1   C15 5712   5.620   3.705   4.338 -0.3192 -0.6408  0.2265
   62CHL1  H15A 5713   5.514   3.675   4.332 -0.2805 -0.6356 -0.5566
   62CHL1  H15B 5714   5.684   3.615   4.334  1.5679  0.6454 -0.2219
   62CHL1   C16 5715   5.663   3.763   4.478 -0.5634 -0.9054  0.0659
   62CHL1  H16A 5716   5.567   3.758   4.534 -0.2202  1.1740  0.9526
   62CHL1  H16B 5717   5.739   3.707   4.536 -0.4074  0.5527  1.3413
   62CHL1   C17 5718   5.722   3.906   4.443 -0.0541  0.6298 -0.1948
   62CHL1   H17 5719   5.829   3.883   4.423 -0.8885 -2.6181 -1.5633
   62CHL1   C13 5720   5.652   3.946   4.309 -0.0462  0.1452  0.6688
   62CHL1   C18 5721   5.513   3.990   4.337 -0.0482 -0.1868  0.4974
   62CHL1  H18A 5722   5.461   3.914   4.399  0.9895 -1.0878  0.3094
   62CHL1  H18B 5723   5.516   4.089   4.386  3.0376 -0.7141  1.6302
   62CHL1  H18C 5724   5.450   3.998   4.246  0.1551 -1.2862  0.2356
   62CHL1   C12 5725   5.725   4.062   4.235 -0.1102 -0.7088 -0.0384
   62CHL1  H12A 5726   5.712   4.160   4.286 -2.5452  0.1600 -2.1144
   62CHL1  H12B 5727   5.835   4.044   4.231 -0.2113 -1.1630 -1.2665
   62CHL1   C11 5728   5.682   4.062   4.090  0.4068  0.4219 -0.3079
   62CHL1  H11A 5729   5.585   4.114   4.090  0.5919  0.8398  1.5640
   62CHL1  H11B 5730   5.751   4.122   4.027  1.6727 -2.2547 -1.6520
   62CHL1    C9 5731   5.668   3.923   4.022  0.2203  0.1365 -0.0936
   62CHL1    H9 5732   5.771   3.881   4.033 -0.2277 -0.5402  2.1460
   62CHL1   C10 5733   5.631   3.929   3.867 -0.1949  0.0227  0.2554
   62CHL1   C19 5734   5.502   4.022   3.849  0.3030  0.3495  0.2500
   62CHL1  H19A 5735   5.418   3.994   3.916 -0.6804  1.6368 -0.4274
   62CHL1  H19B 5736   5.536   4.127   3.861 -0.4446  1.2495 -3.8181
   62CHL1  H19C 5737   5.465   4.014   3.744 -1.9638  1.0502  0.9500
   62CHL1    C1 5738   5.752   3.982   3.779  0.8860 -0.1596 -0.2193
   62CHL1   H1A 5739   5.761   4.089   3.807  0.5843  0.1937 -1.4421
   62CHL1   H1B 5740   5.846   3.928   3.807  0.3582 -1.2014 -0.4195
   62CHL1    C2 5741   5.734   3.986   3.630 -0.6729 -0.3133 -0.8500
   62CHL1   H2A 5742   5.821   4.033   3.581  1.5165 -3.4148 -0.2197
   62CHL1   H2B 5743   5.643   4.049   3.614  0.2614  1.5132  0.6426
   62CHL1   C20 5744   5.721   4.002   4.560  0.5370  0.4404  0.5794
   62CHL1   H20 5745   5.738   4.104   4.519 -0.4462  0.1814 -0.5172
   62CHL1   C21 5746   5.849   3.952   4.649 -0.0145 -0.0159  0.3954
   62CHL1  H21A 5747   5.859   4.013   4.742  1.7053 -1.4565  1.2368
   62CHL1  H21B 5748   5.939   3.962   4.585 -0.1785 -2.3172 -0.2666
   62CHL1  H21C 5749   5.845   3.844   4.675 -1.2394 -0.1884 -0.4494
   62CHL1   C22 5750   5.590   4.023   4.644 -0.3372  0.1238 -0.9049
   62CHL1  H22A 5751   5.507   4.054   4.576 -1.0066  0.3435  0.0028
   62CHL1  H22B 5752   5.573   3.918   4.677  2.1875  0.0683  0.4409
   62CHL1   C23 5753   5.584   4.128   4.760 -0.2076 -1.0267  0.4520
   62CHL1  H23A 5754   5.672   4.107   4.825 -0.9205 -1.2595  1.3574
   62CHL1  H23B 5755   5.609   4.227   4.717 -0.8320 -0.2704  1.7793
   62CHL1   C24 5756   5.447   4.119   4.835 -0.6816 -0.0119 -0.4285
   62CHL1  H24A 5757   5.365   4.155   4.770 -0.5150  0.9842 -0.1097
   62CHL1  H24B 5758   5.428   4.015   4.871 -1.6209  0.1388 -0.4617
   62CHL1   C25 5759   5.452   4.194   4.971  0.2064  0.3047  0.1445
   62CHL1   H25 5760   5.494   4.295   4.952  0.7317  0.3525  1.4185
   62CHL1   C26 5761   5.318   4.201   5.047 -0.2681  0.1275 -0.0295
   62CHL1  H26A 5762   5.341   4.250   5.144  0.0869  2.3749 -1.1825
   62CHL1  H26B 5763   5.248   4.266   4.989  2.0739  0.8997 -2.1856
   62CHL1  H26C 5764   5.256   4.110   5.061 -2.3553  1.1934 -1.6625
   62CHL1   C27 5765   5.550   4.126   5.066  0.1673  0.4085 -0.6863
   62CHL1  H27A 5766   5.509   4.024   5.083  1.3801 -0.0396 -0.3944
   62CHL1  H27B 5767   5.656   4.118   5.034  0.8572  1.9654  1.0055
   62CHL1  H27C 5768   5.557   4.187   5.159  3.6842 -0.3852 -0.2968
   63CHL1    C3 5769   4.081   1.231   3.718 -0.3530 -0.4079 -0.2857
   63CHL1    H3 5770   4.060   1.331   3.762 -1.3601  0.9879 -3.6170
   63CHL1    O3 5771   4.075   1.240   3.579 -0.0019  0.4386  0.3908
   63CHL1   H3' 5772   4.007   1.175   3.561  2.3050 -2.1253  0.3139
   63CHL1    C4 5773   4.219   1.176   3.767 -0.3772  0.5805 -0.1023
   63CHL1   H4A 5774   4.222   1.077   3.715 -0.1540 -0.7595  2.2895
   63CHL1   H4B 5775   4.306   1.233   3.730  1.3766 -1.0132  1.3244
   63CHL1    C5 5776   4.238   1.138   3.913  0.1532 -0.6029  0.2503
   63CHL1    C6 5777   4.331   1.194   3.989  0.5169 -0.5929 -0.3483
   63CHL1    H6 5778   4.404   1.260   3.939  1.0314 -0.1118  0.9723
   63CHL1    C7 5779   4.348   1.178   4.140  0.6573  0.3487 -0.4562
   63CHL1   H7A 5780   4.453   1.175   4.176 -0.0769 -0.9743  1.8157
   63CHL1   H7B 5781   4.305   1.275   4.173 -0.9071 -0.2043 -0.7826
   63CHL1    C8 5782   4.252   1.067   4.200 -0.2063  0.0887 -0.3509
   63CHL1    H8 5783   4.302   0.968   4.188  2.1474  1.0079  1.0797
   63CHL1   C14 5784   4.225   1.089   4.349 -0.1961 -0.0212  0.0944
   63CHL1   H14 5785   4.168   1.184   4.361 -0.3979 -0.3616  2.4691
   63CHL1   C15 5786   4.352   1.109   4.437  0.8398  0.2311  0.5860
   63CHL1  H15A 5787   4.423   1.027   4.415  0.7907  0.7836 -1.8550
   63CHL1  H15B 5788   4.391   1.207   4.404  2.1075 -0.3014  0.4534
   63CHL1   C16 5789   4.286   1.114   4.581 -0.3049 -0.0920 -0.2241
   63CHL1  H16A 5790   4.351   1.059   4.652 -0.1277 -0.8042 -0.9189
   63CHL1  H16B 5791   4.270   1.221   4.606 -0.9632 -0.5462  1.4428
   63CHL1   C17 5792   4.138   1.054   4.564 -0.5391 -0.2471 -0.5797
   63CHL1   H17 5793   4.065   1.138   4.570 -0.7070 -0.4727  0.8819
   63CHL1   C13 5794   4.128   0.997   4.421 -1.2758 -0.4132 -0.0573
   63CHL1   C18 5795   4.188   0.855   4.419 -0.7541  0.4962 -0.8273
   63CHL1  H18A 5796   4.120   0.780   4.466  0.1220  0.0980 -0.1650
   63CHL1  H18B 5797   4.204   0.822   4.314 -0.9684  0.2297 -0.7768
   63CHL1  H18C 5798   4.289   0.853   4.465 -1.6445  1.1525  1.3209
   63CHL1   C12 5799   3.995   1.014   4.352  0.4850  0.3309 -0.2293
   63CHL1  H12A 5800   3.907   0.958   4.391 -0.0533  1.8473  0.8189
   63CHL1  H12B 5801   3.968   1.122   4.355 -0.3724  0.1407  2.8772
   63CHL1   C11 5802   4.001   0.989   4.200 -0.7570  0.1788 -0.0679
   63CHL1  H11A 5803   4.045   0.888   4.181  3.1663  1.8078 -0.6310
   63CHL1  H11B 5804   3.903   1.006   4.151  0.2271  0.2426 -2.1049
   63CHL1    C9 5805   4.112   1.080   4.127 -0.0033  0.3741 -0.0418
   63CHL1    H9 5806   4.068   1.181   4.141 -0.2135  0.3970 -0.8030
   63CHL1   C10 5807   4.122   1.069   3.970 -0.0877  0.0580 -0.1834
   63CHL1   C19 5808   4.131   0.919   3.923  0.6832 -0.8502  0.1163
   63CHL1  H19A 5809   4.235   0.881   3.938  0.7969  0.1249  2.1386
   63CHL1  H19B 5810   4.054   0.856   3.971  0.1313 -0.9024 -0.8179
   63CHL1  H19C 5811   4.099   0.907   3.817 -0.8487  2.0343  0.1591
   63CHL1    C1 5812   3.980   1.128   3.923  0.0873  0.0219  0.7125
   63CHL1   H1A 5813   3.900   1.060   3.957 -0.7182  0.4653 -0.2236
   63CHL1   H1B 5814   3.964   1.228   3.968 -2.0730 -0.3962  0.9711
   63CHL1    C2 5815   3.971   1.148   3.770  0.1289  0.1466  0.0882
   63CHL1   H2A 5816   3.871   1.191   3.745 -0.4444 -1.1445  0.0845
   63CHL1   H2B 5817   3.972   1.048   3.721 -0.5513  0.0470  0.2666
   63CHL1   C20 5818   4.091   0.965   4.684  0.7637  0.0274 -1.0213
   63CHL1   H20 5819   4.156   0.876   4.695 -2.5876 -2.3574  1.5287
   63CHL1   C21 5820   3.944   0.917   4.666  0.5310 -0.5654 -0.0712
   63CHL1  H21A 5821   3.885   0.878   4.751 -0.3561  1.3511  0.2293
   63CHL1  H21B 5822   3.942   0.829   4.598 -1.1041  0.4063 -1.3589
   63CHL1  H21C 5823   3.879   1.001   4.634  0.4951 -0.9433 -1.0509
   63CHL1   C22 5824   4.103   1.047   4.823  0.2290  0.0513  0.7588
   63CHL1  H22A 5825   4.185   1.122   4.822 -0.8042  1.2290 -0.9486
   63CHL1  H22B 5826   4.000   1.080   4.849  0.4844  0.8783  0.7540
   63CHL1   C23 5827   4.140   0.954   4.942  0.2132 -0.2530  0.3375
   63CHL1  H23A 5828   4.060   0.878   4.947 -0.5014  0.2867 -1.7015
   63CHL1  H23B 5829   4.232   0.896   4.920  0.1780 -0.8671  1.7058
   63CHL1   C24 5830   4.161   1.033   5.068  0.7110 -0.6819 -0.6441
   63CHL1  H24A 5831   4.190   0.961   5.147 -1.5249 -1.9867 -0.9151
   63CHL1  H24B 5832   4.245   1.104   5.051  0.5934 -0.4500 -0.2826
   63CHL1   C25 5833   4.043   1.128   5.110  0.3326 -0.8027  0.1349
   63CHL1   H25 5834   4.025   1.193   5.022 -1.6722 -1.0150  0.3559
   63CHL1   C26 5835   3.914   1.053   5.133  0.6558  0.6684  0.1513
   63CHL1  H26A 5836   3.824   1.117   5.143 -0.2011 -0.6992  1.9299
   63CHL1  H26B 5837   3.902   0.984   5.047  0.3579  2.0727 -0.9683
   63CHL1  H26C 5838   3.942   0.982   5.215  0.9093  0.5088 -0.0741
   63CHL1   C27 5839   4.082   1.204   5.234 -0.2886  0.6130 -0.3165
   63CHL1  H27A 5840   4.136   1.142   5.309 -0.0657  1.5745  0.3380
   63CHL1  H27B 5841   4.144   1.291   5.204 -0.5079  1.1741  0.8129
   63CHL1  H27C 5842   3.994   1.247   5.287 -0.8455 -1.9471  1.0394
   64CHL1    C3 5843   6.673   4.923   3.993 -0.0938 -0.2639 -0.6267
   64CHL1    H3 5844   6.748   4.842   4.006 -0.4909 -0.4536  0.5966
   64CHL1    O3 5845   6.645   4.941   3.852 -0.3608  0.0164  0.2902
   64CHL1   H3' 5846   6.594   5.022   3.845  1.1094  0.9177 -0.6909
   64CHL1    C4 5847   6.549   4.860   4.066 -0.2707  0.0551 -0.0977
   64CHL1   H4A 5848   6.462   4.923   4.036  2.8317  2.8624 -4.4235
   64CHL1   H4B 5849   6.530   4.759   4.025 -0.5141  0.2384 -0.4385
   64CHL1    C5 5850   6.566   4.856   4.219  0.3920  0.4423  0.0867
   64CHL1    C6 5851   6.547   4.741   4.284 -0.7339  0.5572 -0.5956
   64CHL1    H6 5852   6.499   4.658   4.231 -1.3277  1.2646 -1.1913
   64CHL1    C7 5853   6.577   4.717   4.427  0.1134 -0.3303 -1.0414
   64CHL1   H7A 5854   6.505   4.647   4.475  1.5124 -1.8524 -1.0662
   64CHL1   H7B 5855   6.675   4.667   4.443 -0.9592 -1.8650  1.0657
   64CHL1    C8 5856   6.587   4.852   4.505 -0.8621  0.0547 -0.1120
   64CHL1    H8 5857   6.490   4.896   4.538  0.6489  0.6010  4.4040
   64CHL1   C14 5858   6.652   4.829   4.642 -0.3957 -0.4823  0.3989
   64CHL1   H14 5859   6.758   4.800   4.623  0.0358  0.9466  0.4440
   64CHL1   C15 5860   6.589   4.722   4.730  0.9255 -0.0362 -0.8752
   64CHL1  H15A 5861   6.478   4.718   4.717  0.9254  0.3529 -1.0008
   64CHL1  H15B 5862   6.628   4.621   4.705  1.7067  0.0003  0.1563
   64CHL1   C16 5863   6.618   4.769   4.873  0.1094  0.3340  0.1652
   64CHL1  H16A 5864   6.524   4.809   4.917  0.0311  1.1653 -0.7462
   64CHL1  H16B 5865   6.664   4.694   4.941  1.1038  0.0019 -0.8565
   64CHL1   C17 5866   6.719   4.890   4.862 -0.1284  0.1689  0.3618
   64CHL1   H17 5867   6.822   4.853   4.842 -0.0209  1.3159 -1.4340
   64CHL1   C13 5868   6.669   4.954   4.732  0.2390  0.1837  0.0092
   64CHL1   C18 5869   6.530   5.028   4.755  0.5733 -0.1257  0.8137
   64CHL1  H18A 5870   6.543   5.120   4.816 -2.2748  0.8687  0.1078
   64CHL1  H18B 5871   6.480   5.061   4.661 -1.2640  0.0096  1.7975
   64CHL1  H18C 5872   6.460   4.958   4.806 -0.3762 -0.3267 -0.6915
   64CHL1   C12 5873   6.765   5.047   4.650 -0.3223  0.6835 -0.3242
   64CHL1  H12A 5874   6.786   5.143   4.703  0.5736  0.6248 -0.5516
   64CHL1  H12B 5875   6.867   5.005   4.640  0.7492  3.0557 -0.2059
   64CHL1   C11 5876   6.707   5.082   4.509  0.2258 -0.7387  0.1625
   64CHL1  H11A 5877   6.637   5.169   4.512  0.9047 -0.1747 -0.1615
   64CHL1  H11B 5878   6.795   5.121   4.454 -0.0744  0.1617  0.3008
   64CHL1    C9 5879   6.668   4.954   4.430  0.7029 -0.4957  0.6476
   64CHL1    H9 5880   6.769   4.910   4.425  1.4760  1.2388  0.4211
   64CHL1   C10 5881   6.623   4.981   4.290  0.9343 -0.6990  0.0091
   64CHL1   C19 5882   6.492   5.073   4.298  0.5836 -0.3609 -0.9305
   64CHL1  H19A 5883   6.402   5.042   4.356 -0.0011  1.6546 -0.6939
   64CHL1  H19B 5884   6.526   5.171   4.337 -1.1060  0.5105 -1.5539
   64CHL1  H19C 5885   6.469   5.098   4.192 -0.2316 -1.7073 -1.1045
   64CHL1    C1 5886   6.742   5.043   4.205  0.8176  0.0753  0.3864
   64CHL1   H1A 5887   6.768   5.143   4.247  0.4131 -0.9729  3.3480
   64CHL1   H1B 5888   6.827   4.975   4.226  0.1880 -0.7407  0.3225
   64CHL1    C2 5889   6.711   5.063   4.056 -0.1663  0.6056  0.3364
   64CHL1   H2A 5890   6.797   5.097   3.995 -1.5689 -1.0240 -2.7737
   64CHL1   H2B 5891   6.627   5.132   4.035 -2.4707 -2.5766 -1.9453
   64CHL1   C20 5892   6.734   4.986   4.982 -0.2847  0.7934 -0.1594
   64CHL1   H20 5893   6.651   5.061   4.984 -3.3483 -2.1284 -3.3841
   64CHL1   C21 5894   6.870   5.052   4.977  0.4467 -0.7787 -0.0701
   64CHL1  H21A 5895   6.876   5.123   4.892 -0.3155  0.0392  0.5469
   64CHL1  H21B 5896   6.950   4.977   4.956 -0.7808 -2.1419 -0.0795
   64CHL1  H21C 5897   6.892   5.105   5.072  1.0176 -2.1929  0.6195
   64CHL1   C22 5898   6.712   4.911   5.118  0.5768 -0.1660  0.6597
   64CHL1  H22A 5899   6.632   4.834   5.108 -0.7772  0.9249  2.6003
   64CHL1  H22B 5900   6.801   4.848   5.137  1.0363 -0.1447 -1.2576
   64CHL1   C23 5901   6.664   5.013   5.227 -0.3938  0.2082  0.0843
   64CHL1  H23A 5902   6.741   5.083   5.266  2.2810 -2.1703 -0.5331
   64CHL1  H23B 5903   6.576   5.063   5.182  0.3724 -0.4346 -2.2699
   64CHL1   C24 5904   6.617   4.934   5.348  0.1735 -0.3697  0.3453
   64CHL1  H24A 5905   6.594   4.833   5.309  0.3878 -0.1537 -0.3578
   64CHL1  H24B 5906   6.707   4.917   5.411 -0.7687  1.5371  2.3512
   64CHL1   C25 5907   6.506   5.003   5.424 -0.3856 -0.0231  0.7847
   64CHL1   H25 5908   6.545   5.107   5.434 -0.5463  0.0712  0.4458
   64CHL1   C26 5909   6.368   4.985   5.357  0.6490  0.4482  0.2702
   64CHL1  H26A 5910   6.347   4.876   5.350  1.3867  0.3937 -2.0210
   64CHL1  H26B 5911   6.290   5.023   5.425  0.0659  1.6911 -1.0527
   64CHL1  H26C 5912   6.353   5.043   5.264  0.8599  0.9351  0.5381
   64CHL1   C27 5913   6.505   4.946   5.561  0.7671 -0.0912  0.6537
   64CHL1  H27A 5914   6.497   4.836   5.549  1.9989 -0.0278 -1.0924
   64CHL1  H27B 5915   6.605   4.964   5.607  1.4105  1.4501 -1.2125
   64CHL1  H27C 5916   6.421   4.972   5.629  0.8916 -0.1351  0.8257
   65CHL1    C3 5917   5.152   5.676   4.041  0.5919  0.9211 -0.3192
   65CHL1    H3 5918   5.041   5.679   4.037  0.5636  0.5138  0.0746
   65CHL1    O3 5919   5.197   5.655   3.910 -1.0373 -0.8487  0.0062
   65CHL1   H3' 5920   5.188   5.746   3.882 -3.3525 -1.1992 -0.5954
   65CHL1    C4 5921   5.188   5.817   4.097  0.2450  0.1650 -0.2239
   65CHL1   H4A 5922   5.297   5.837   4.103  0.2889  0.6867 -2.1020
   65CHL1   H4B 5923   5.141   5.893   4.031 -1.6314 -0.3306  0.4713
   65CHL1    C5 5924   5.141   5.830   4.241 -0.5649 -0.6750  0.8659
   65CHL1    C6 5925   5.056   5.932   4.278  0.0079  0.9515 -0.4361
   65CHL1    H6 5926   5.025   6.001   4.198 -0.7237  0.3530 -0.6800
   65CHL1    C7 5927   5.022   5.959   4.418 -0.2141  0.2989 -0.5138
   65CHL1   H7A 5928   5.039   6.066   4.440  0.4177 -0.0706  0.9736
   65CHL1   H7B 5929   4.913   5.936   4.428 -0.0553  0.4327  2.6109
   65CHL1    C8 5930   5.101   5.870   4.522 -0.0379 -0.1681  0.2521
   65CHL1    H8 5931   5.201   5.915   4.536 -0.9127  2.1420 -0.4427
   65CHL1   C14 5932   5.033   5.883   4.651  0.3303 -0.0607 -0.7417
   65CHL1   H14 5933   4.932   5.837   4.638  0.1006 -0.5411  2.1972
   65CHL1   C15 5934   5.011   6.015   4.714 -0.5586 -0.3913  0.2334
   65CHL1  H15A 5935   5.102   6.078   4.704 -0.8732  0.2828  1.4203
   65CHL1  H15B 5936   4.928   6.069   4.664 -2.7888 -0.9176  3.0480
   65CHL1   C16 5937   4.997   5.993   4.858  0.0856 -0.0005  0.8077
   65CHL1  H16A 5938   5.056   6.069   4.914 -1.3875 -0.0807  2.5414
   65CHL1  H16B 5939   4.894   6.023   4.885 -0.0294 -0.9993  1.5498
   65CHL1   C17 5940   5.013   5.844   4.882 -0.2266  0.3664  0.5107
   65CHL1   H17 5941   4.911   5.808   4.856  0.2342 -0.2664 -0.4592
   65CHL1   C13 5942   5.095   5.793   4.760  0.5088 -0.6103  0.6129
   65CHL1   C18 5943   5.246   5.831   4.786 -0.4145  0.1798  0.7296
   65CHL1  H18A 5944   5.279   5.747   4.850 -0.9414 -1.5106 -1.1082
   65CHL1  H18B 5945   5.298   5.830   4.688 -1.1579 -0.8926  0.3231
   65CHL1  H18C 5946   5.257   5.935   4.825 -0.6720  0.5234 -0.0959
   65CHL1   C12 5947   5.076   5.652   4.719  0.1412 -0.3975 -0.4964
   65CHL1  H12A 5948   5.134   5.585   4.787  0.7872  0.4095 -0.2364
   65CHL1  H12B 5949   4.969   5.627   4.729  0.4084 -0.8955  1.6845
   65CHL1   C11 5950   5.143   5.623   4.588 -0.4183 -0.1335 -0.0053
   65CHL1  H11A 5951   5.254   5.621   4.599 -0.5799  0.3117  2.3491
   65CHL1  H11B 5952   5.110   5.521   4.556 -1.5336  0.3860 -0.5595
   65CHL1    C9 5953   5.107   5.724   4.473 -0.4181 -0.3442  0.0704
   65CHL1    H9 5954   4.999   5.700   4.461 -0.4071  0.2490 -1.2739
   65CHL1   C10 5955   5.183   5.711   4.331  0.2227  0.1393 -0.0396
   65CHL1   C19 5956   5.336   5.727   4.371 -0.0662 -0.4402 -0.6785
   65CHL1  H19A 5957   5.385   5.635   4.409 -1.2089 -0.7859 -0.0270
   65CHL1  H19B 5958   5.396   5.748   4.279  3.0262 -0.4804  1.1793
   65CHL1  H19C 5959   5.351   5.816   4.436  0.7175 -3.4595  3.6528
   65CHL1    C1 5960   5.156   5.572   4.273 -0.2725 -0.0975 -0.3056
   65CHL1   H1A 5961   5.218   5.505   4.336 -1.0072  1.9821  2.8809
   65CHL1   H1B 5962   5.051   5.538   4.285 -0.2366 -1.0247 -2.2527
   65CHL1    C2 5963   5.196   5.556   4.129 -0.3397  0.8324 -0.5066
   65CHL1   H2A 5964   5.157   5.459   4.091 -2.3348  0.3409  2.3886
   65CHL1   H2B 5965   5.305   5.569   4.114 -0.4591  3.9362  0.5712
   65CHL1   C20 5966   5.040   5.784   5.022 -0.4385  0.5872 -0.4222
   65CHL1   H20 5967   5.079   5.682   5.003 -0.5717  0.5128 -0.3011
   65CHL1   C21 5968   4.914   5.773   5.101  0.3176  0.5548  0.1205
   65CHL1  H21A 5969   4.918   5.703   5.187 -1.0239 -0.3376 -0.5174
   65CHL1  H21B 5970   4.832   5.742   5.033  0.8781  0.4843 -0.5403
   65CHL1  H21C 5971   4.885   5.877   5.127  2.5045  1.4098 -0.5799
   65CHL1   C22 5972   5.150   5.846   5.105  0.1816 -0.2247  0.7692
   65CHL1  H22A 5973   5.238   5.859   5.039 -1.4511  2.6919 -1.0140
   65CHL1  H22B 5974   5.120   5.951   5.124  1.2611 -0.0176  1.4361
   65CHL1   C23 5975   5.168   5.796   5.246  0.1483 -0.3150  0.1428
   65CHL1  H23A 5976   5.076   5.807   5.308  0.8080  1.2631  0.8918
   65CHL1  H23B 5977   5.196   5.689   5.259 -0.3073 -0.3686  0.7477
   65CHL1   C24 5978   5.276   5.885   5.320 -0.8117  0.7990  0.2026
   65CHL1  H24A 5979   5.375   5.870   5.271 -0.6618  1.4366  0.3041
   65CHL1  H24B 5980   5.255   5.994   5.311  0.2638  1.0235  0.3223
   65CHL1   C25 5981   5.295   5.864   5.470 -0.0651  0.2564 -0.3764
   65CHL1   H25 5982   5.190   5.849   5.502  0.1493  0.6786  0.5660
   65CHL1   C26 5983   5.380   5.738   5.509 -0.2121 -0.2559 -0.6203
   65CHL1  H26A 5984   5.317   5.648   5.493 -1.2725  0.4378 -0.4653
   65CHL1  H26B 5985   5.475   5.718   5.457 -0.8314  0.1208 -1.9458
   65CHL1  H26C 5986   5.402   5.739   5.618 -1.1413  0.4504 -0.4179
   65CHL1   C27 5987   5.350   5.986   5.538  0.2186 -0.1143 -0.2720
   65CHL1  H27A 5988   5.339   5.978   5.648 -0.8456 -2.6527 -0.4908
   65CHL1  H27B 5989   5.459   5.991   5.514  0.3528  0.6753  0.4783
   65CHL1  H27C 5990   5.288   6.070   5.503 -0.9337 -0.0311  1.8583
   66CHL1    C3 5991   3.579   4.213   3.453 -0.5443  0.2309 -0.1946
   66CHL1    H3 5992   3.489   4.152   3.430 -0.7258 -0.1765  1.4792
   66CHL1    O3 5993   3.640   4.249   3.328  0.5677  0.3919 -0.2339
   66CHL1   H3' 5994   3.670   4.161   3.303 -1.2901 -0.1459 -0.7060
   66CHL1    C4 5995   3.557   4.341   3.538 -0.1498 -0.3770  0.3873
   66CHL1   H4A 5996   3.651   4.399   3.528 -0.8942  1.3089  2.3233
   66CHL1   H4B 5997   3.476   4.392   3.482  2.4271  0.2766 -3.0516
   66CHL1    C5 5998   3.525   4.324   3.688  0.1654 -0.0318 -0.4865
   66CHL1    C6 5999   3.413   4.376   3.749 -0.6423  0.3046  0.1718
   66CHL1    H6 6000   3.335   4.432   3.695 -1.2053 -0.7822 -0.1684
   66CHL1    C7 6001   3.381   4.349   3.895 -0.9882 -0.2496  0.1989
   66CHL1   H7A 6002   3.352   4.450   3.932  0.2004  0.6490 -1.2266
   66CHL1   H7B 6003   3.292   4.286   3.916 -1.1148 -0.0207  0.3686
   66CHL1    C8 6004   3.497   4.294   3.975  0.2462 -0.2083  0.5110
   66CHL1    H8 6005   3.567   4.379   3.988 -0.2981  0.3581 -0.1607
   66CHL1   C14 6006   3.453   4.252   4.116 -0.2479  0.0251  0.7133
   66CHL1   H14 6007   3.383   4.167   4.104 -0.6206  0.2822  1.0336
   66CHL1   C15 6008   3.373   4.353   4.199  0.2920 -0.2867 -0.5777
   66CHL1  H15A 6009   3.417   4.455   4.200 -2.2684  0.9071 -0.6705
   66CHL1  H15B 6010   3.273   4.359   4.150  0.2996 -0.5223 -0.6206
   66CHL1   C16 6011   3.377   4.283   4.339 -0.5153 -0.3812 -0.8147
   66CHL1  H16A 6012   3.399   4.358   4.417 -0.6410 -0.7938 -0.3795
   66CHL1  H16B 6013   3.275   4.249   4.367 -0.6455  0.9249  0.3873
   66CHL1   C17 6014   3.480   4.175   4.329  0.1487  0.5331 -0.7394
   66CHL1   H17 6015   3.420   4.082   4.314  0.2377  0.6452 -1.9256
   66CHL1   C13 6016   3.561   4.195   4.199 -0.4982  0.0786 -0.4651
   66CHL1   C18 6017   3.676   4.301   4.226 -0.3505  0.9784 -0.1040
   66CHL1  H18A 6018   3.720   4.322   4.127  1.3198 -0.6304  0.2307
   66CHL1  H18B 6019   3.641   4.394   4.276  1.8718  0.4229  2.7640
   66CHL1  H18C 6020   3.761   4.248   4.275  0.4505  1.5225 -0.8956
   66CHL1   C12 6021   3.618   4.072   4.128  0.3209  0.0380  0.3504
   66CHL1  H12A 6022   3.695   4.012   4.181 -0.0654 -3.0512 -2.2732
   66CHL1  H12B 6023   3.542   3.995   4.104 -0.0843  0.5274  0.0293
   66CHL1   C11 6024   3.667   4.105   3.987  0.0980  0.2602  0.3896
   66CHL1  H11A 6025   3.770   4.146   3.989  0.2110  0.0203 -0.2380
   66CHL1  H11B 6026   3.685   4.012   3.929 -2.1664  0.4971 -0.8127
   66CHL1    C9 6027   3.566   4.180   3.900 -0.4281 -0.6031 -0.3492
   66CHL1    H9 6028   3.483   4.109   3.879 -1.2076  0.0188  0.5499
   66CHL1   C10 6029   3.620   4.232   3.764  0.0683 -0.2343  0.4133
   66CHL1   C19 6030   3.751   4.303   3.791  0.0553  0.1649  0.0059
   66CHL1  H19A 6031   3.781   4.368   3.706  0.1710  1.0527  0.6966
   66CHL1  H19B 6032   3.748   4.361   3.886  0.2272 -2.7264  1.9170
   66CHL1  H19C 6033   3.837   4.236   3.815  0.0173 -0.9580 -2.6558
   66CHL1    C1 6034   3.644   4.105   3.671 -0.0823 -0.4797  0.7370
   66CHL1   H1A 6035   3.726   4.049   3.721  0.6575 -0.0950 -0.0203
   66CHL1   H1B 6036   3.549   4.048   3.671 -0.0588 -0.5454 -0.6666
   66CHL1    C2 6037   3.689   4.130   3.530  1.2971  0.5641  0.6463
   66CHL1   H2A 6038   3.700   4.033   3.477  1.8667  0.7530  0.4110
   66CHL1   H2B 6039   3.787   4.183   3.532  0.9091  1.2834  1.0471
   66CHL1   C20 6040   3.553   4.148   4.462 -0.0868 -0.0419  0.6040
   66CHL1   H20 6041   3.604   4.243   4.490 -0.9252 -0.0854  2.4129
   66CHL1   C21 6042   3.653   4.031   4.455 -0.0760 -0.5899  0.3898
   66CHL1  H21A 6043   3.607   3.936   4.418  1.0689 -0.6638 -0.8857
   66CHL1  H21B 6044   3.694   4.021   4.558  1.2858 -0.8076 -0.1642
   66CHL1  H21C 6045   3.733   4.051   4.382 -3.4192 -1.5531 -3.9482
   66CHL1   C22 6046   3.456   4.114   4.583 -0.3504 -1.1813 -0.4589
   66CHL1  H22A 6047   3.362   4.173   4.596  0.4516 -0.2282  1.3611
   66CHL1  H22B 6048   3.422   4.009   4.568 -1.7777 -0.7930 -0.1062
   66CHL1   C23 6049   3.521   4.128   4.721  0.4540  0.2401  0.3820
   66CHL1  H23A 6050   3.616   4.073   4.741  0.2556 -0.5413 -0.7371
   66CHL1  H23B 6051   3.561   4.228   4.749  0.2713  0.2643  0.5636
   66CHL1   C24 6052   3.426   4.078   4.829  0.2477  0.0729 -0.7725
   66CHL1  H24A 6053   3.364   4.166   4.859 -1.6399 -1.0875 -1.0842
   66CHL1  H24B 6054   3.352   4.002   4.797  1.8364 -0.9952 -2.0745
   66CHL1   C25 6055   3.483   4.035   4.973 -0.2184 -0.0900  0.1813
   66CHL1   H25 6056   3.402   4.000   5.041 -1.6683  2.3962 -0.1268
   66CHL1   C26 6057   3.595   3.924   4.960  0.8018 -0.4725  0.4357
   66CHL1  H26A 6058   3.594   3.865   5.055 -1.6946 -1.3713 -0.0827
   66CHL1  H26B 6059   3.541   3.864   4.885 -1.9081  2.3167 -0.0321
   66CHL1  H26C 6060   3.696   3.960   4.934  0.4612  1.2216  1.3147
   66CHL1   C27 6061   3.549   4.153   5.046 -0.2169  0.0132 -0.2063
   66CHL1  H27A 6062   3.637   4.195   4.991  0.1630  1.2303  1.2774
   66CHL1  H27B 6063   3.587   4.121   5.145  0.8484  2.1383  0.1305
   66CHL1  H27C 6064   3.473   4.233   5.057  0.1775  0.0569  3.0775
   67CHL1    C3 6065   3.447   5.579   3.535 -0.3116 -0.6973 -0.8649
   67CHL1    H3 6066   3.411   5.479   3.564  0.6881 -0.3398  1.9511
   67CHL1    O3 6067   3.473   5.596   3.399  0.1439 -0.3610 -0.4209
   67CHL1   H3' 6068   3.490   5.507   3.368  0.1490 -0.7122  0.5584
   67CHL1    C4 6069   3.353   5.685   3.589  0.6909  0.2855 -0.0880
   67CHL1   H4A 6070   3.398   5.782   3.559  0.3143 -0.4186 -3.3031
   67CHL1   H4B 6071   3.252   5.673   3.544  0.4115  1.6025  0.1292
   67CHL1    C5 6072   3.325   5.669   3.741  0.0707  0.8354 -0.2667
   67CHL1    C6 6073   3.201   5.656   3.791 -0.5292  0.1890 -0.7187
   67CHL1    H6 6074   3.118   5.639   3.721  0.7402  0.3959 -2.3435
   67CHL1    C7 6075   3.173   5.647   3.941  0.3544 -1.0287  0.6269
   67CHL1   H7A 6076   3.089   5.717   3.963  1.6147  0.9903 -0.6212
   67CHL1   H7B 6077   3.137   5.551   3.982 -0.5945 -1.0475 -0.2152
   67CHL1    C8 6078   3.299   5.699   4.019  0.0266 -0.9823 -0.2596
   67CHL1    H8 6079   3.299   5.808   4.002 -3.8114 -0.6893  0.8673
   67CHL1   C14 6080   3.276   5.656   4.171  0.1294  0.5171  0.1762
   67CHL1   H14 6081   3.276   5.545   4.164  0.0659  0.5368 -0.1338
   67CHL1   C15 6082   3.145   5.693   4.235  0.0644 -0.1822 -0.8852
   67CHL1  H15A 6083   3.140   5.800   4.206  2.2890  0.6235  1.4178
   67CHL1  H15B 6084   3.051   5.649   4.195 -3.2374  3.7425  1.7478
   67CHL1   C16 6085   3.173   5.669   4.387 -0.0136 -0.3885  0.0091
   67CHL1  H16A 6086   3.139   5.759   4.443  1.6304  0.6590 -0.5934
   67CHL1  H16B 6087   3.127   5.574   4.421 -0.1064 -0.8295 -1.3114
   67CHL1   C17 6088   3.329   5.644   4.392  0.1952 -0.5116  0.4387
   67CHL1   H17 6089   3.351   5.539   4.367  0.4662  0.0188 -1.7652
   67CHL1   C13 6090   3.382   5.705   4.261  0.0108  0.4231  0.1069
   67CHL1   C18 6091   3.398   5.859   4.260  0.4382  0.8112 -0.0733
   67CHL1  H18A 6092   3.486   5.875   4.325 -0.0840 -0.7469  1.1113
   67CHL1  H18B 6093   3.423   5.898   4.159  1.8411  0.6571  0.1927
   67CHL1  H18C 6094   3.309   5.915   4.296  1.3803  1.8657  0.6492
   67CHL1   C12 6095   3.519   5.649   4.215 -0.1895 -0.0478  0.5457
   67CHL1  H12A 6096   3.598   5.691   4.281  2.3871 -0.6825 -1.9207
   67CHL1  H12B 6097   3.518   5.538   4.226 -1.2310  0.0298  1.4062
   67CHL1   C11 6098   3.551   5.669   4.062  0.5787  0.1049  0.5049
   67CHL1  H11A 6099   3.571   5.778   4.055 -0.1755  0.2749  0.9016
   67CHL1  H11B 6100   3.637   5.612   4.021 -0.1189  0.6948 -1.9283
   67CHL1    C9 6101   3.429   5.636   3.964 -0.9250  0.0011 -0.9798
   67CHL1    H9 6102   3.401   5.529   3.968 -0.0288 -0.2211 -0.4430
   67CHL1   C10 6103   3.460   5.677   3.818 -0.4022  0.4457 -0.2445
   67CHL1   C19 6104   3.505   5.824   3.803 -0.6132 -0.1773  0.8148
   67CHL1  H19A 6105   3.425   5.889   3.844 -0.7269 -0.1473  0.5488
   67CHL1  H19B 6106   3.601   5.835   3.858  0.9693 -0.6639 -1.7020
   67CHL1  H19C 6107   3.521   5.856   3.698  0.0549  0.8769  1.2185
   67CHL1    C1 6108   3.563   5.575   3.760  0.2166 -0.4881 -0.2165
   67CHL1   H1A 6109   3.662   5.599   3.804  1.5469 -1.2342 -2.6432
   67CHL1   H1B 6110   3.537   5.469   3.783 -0.0825 -0.0376  1.7167
   67CHL1    C2 6111   3.581   5.586   3.612  0.3703 -0.5810  0.2338
   67CHL1   H2A 6112   3.642   5.504   3.569 -3.5011 -2.6906 -1.8439
   67CHL1   H2B 6113   3.620   5.684   3.576  0.7638  0.0682  2.3106
   67CHL1   C20 6114   3.402   5.689   4.518  0.1616 -0.1879 -0.1475
   67CHL1   H20 6115   3.508   5.707   4.489  0.9467 -2.1647  1.2070
   67CHL1   C21 6116   3.412   5.562   4.612 -0.0118 -0.4509  0.3743
   67CHL1  H21A 6117   3.487   5.582   4.692  0.4094  0.0596 -0.1348
   67CHL1  H21B 6118   3.448   5.486   4.540 -0.2575  1.4894 -1.9340
   67CHL1  H21C 6119   3.307   5.533   4.634 -0.4715 -0.6310 -1.8246
   67CHL1   C22 6120   3.362   5.817   4.598  0.3167  0.5125  0.7201
   67CHL1  H22A 6121   3.334   5.899   4.529 -1.0419  0.4802  1.1970
   67CHL1  H22B 6122   3.268   5.795   4.653  0.4612 -2.0672  0.0672
   67CHL1   C23 6123   3.479   5.868   4.679  0.6132  0.1591 -0.8192
   67CHL1  H23A 6124   3.508   5.798   4.759  1.1685  1.4416  0.1353
   67CHL1  H23B 6125   3.565   5.886   4.610  0.4038  0.0452 -1.1129
   67CHL1   C24 6126   3.430   5.998   4.756 -0.1034  0.2760  0.2815
   67CHL1  H24A 6127   3.338   5.980   4.815 -1.0937 -0.5937 -1.4748
   67CHL1  H24B 6128   3.508   6.023   4.832  0.9546  0.4744 -0.8297
   67CHL1   C25 6129   3.417   6.130   4.678 -0.7218 -0.2857  0.0867
   67CHL1   H25 6130   3.335   6.123   4.603 -0.2016  1.2394 -0.6706
   67CHL1   C26 6131   3.386   6.244   4.783  0.6279  0.5629  0.5435
   67CHL1  H26A 6132   3.415   6.339   4.733  1.9035 -0.7568 -1.3534
   67CHL1  H26B 6133   3.281   6.252   4.818  1.1770 -0.3469  2.5288
   67CHL1  H26C 6134   3.449   6.228   4.873  0.8020  0.3958  0.3901
   67CHL1   C27 6135   3.547   6.161   4.597 -0.5458  0.1403  0.0654
   67CHL1  H27A 6136   3.575   6.078   4.529  0.3201 -0.0724  0.6596
   67CHL1  H27B 6137   3.532   6.245   4.526  0.7394 -1.0701 -1.7287
   67CHL1  H27C 6138   3.629   6.187   4.668  0.6612 -0.1069 -1.1911
   68CHL1    C3 6139   5.968   2.326   3.877 -0.3255  0.4921  0.4015
   68CHL1    H3 6140   5.982   2.221   3.910 -0.9210  0.0777 -0.6318
   68CHL1    O3 6141   5.973   2.342   3.736 -0.1723  0.1090 -0.1167
   68CHL1   H3' 6142   5.982   2.437   3.724  1.7796 -0.2478 -2.4756
   68CHL1    C4 6143   5.833   2.374   3.939  0.4795  0.3912  0.5265
   68CHL1   H4A 6144   5.812   2.481   3.918 -0.9776 -0.1529 -1.0212
   68CHL1   H4B 6145   5.747   2.314   3.902  0.7442 -0.7070  1.6403
   68CHL1    C5 6146   5.837   2.364   4.086 -0.7274  0.0387 -0.0585
   68CHL1    C6 6147   5.742   2.307   4.151 -0.1466  0.8853  0.1146
   68CHL1    H6 6148   5.658   2.267   4.093  0.3843  0.6691 -0.5071
   68CHL1    C7 6149   5.723   2.325   4.301  0.0717  0.4279 -0.0913
   68CHL1   H7A 6150   5.629   2.377   4.329  0.7216  0.7079  1.6578
   68CHL1   H7B 6151   5.718   2.218   4.332 -0.5754  0.7743  1.0695
   68CHL1    C8 6152   5.835   2.401   4.376 -0.2764  0.4401  0.3429
   68CHL1    H8 6153   5.806   2.508   4.381  2.1446  1.1093  1.0688
   68CHL1   C14 6154   5.840   2.354   4.518  0.3784 -0.0749  0.9809
   68CHL1   H14 6155   5.868   2.247   4.515 -1.4968 -0.5816 -0.2586
   68CHL1   C15 6156   5.715   2.348   4.603 -0.4952  0.2707 -0.0241
   68CHL1  H15A 6157   5.660   2.443   4.586  0.1608  1.2399  2.6277
   68CHL1  H15B 6158   5.646   2.263   4.588 -0.3724  0.1218  0.2522
   68CHL1   C16 6159   5.768   2.349   4.745  0.0188 -0.1060 -0.3381
   68CHL1  H16A 6160   5.726   2.436   4.799 -0.3558 -1.4916  1.6913
   68CHL1  H16B 6161   5.752   2.258   4.806  1.7036 -0.2706 -0.0807
   68CHL1   C17 6162   5.917   2.367   4.736 -0.3656 -0.9792 -0.0011
   68CHL1   H17 6163   5.958   2.264   4.727 -0.3694 -1.3678  3.2267
   68CHL1   C13 6164   5.943   2.430   4.604  0.5910  0.1198 -0.0411
   68CHL1   C18 6165   5.906   2.583   4.612 -0.6082  0.1410 -0.8925
   68CHL1  H18A 6166   5.901   2.628   4.511  1.1881 -0.7010 -1.4090
   68CHL1  H18B 6167   5.811   2.598   4.668 -0.3421  3.3026 -1.0804
   68CHL1  H18C 6168   5.978   2.634   4.681 -1.3536 -0.9302  0.7407
   68CHL1   C12 6169   6.084   2.414   4.540 -0.1075 -0.2397 -0.3207
   68CHL1  H12A 6170   6.148   2.480   4.602 -0.4499 -1.5236  1.4915
   68CHL1  H12B 6171   6.114   2.307   4.532  0.1292 -0.3722  1.8805
   68CHL1   C11 6172   6.093   2.461   4.385  0.8858 -0.6291 -0.7068
   68CHL1  H11A 6173   6.093   2.572   4.380 -0.0442 -0.6793 -2.1730
   68CHL1  H11B 6174   6.191   2.431   4.342  0.9866 -0.1526 -0.8124
   68CHL1    C9 6175   5.971   2.392   4.304  0.0955 -0.0386  0.0780
   68CHL1    H9 6176   5.998   2.284   4.307 -1.8158 -0.5483  0.3248
   68CHL1   C10 6177   5.958   2.438   4.155 -0.4058  0.5689 -0.3854
   68CHL1   C19 6178   5.945   2.594   4.147 -0.5745 -0.0816 -0.6699
   68CHL1  H19A 6179   5.868   2.630   4.219  0.0882  0.3605 -0.1749
   68CHL1  H19B 6180   6.047   2.631   4.168 -0.5529 -0.9098  0.8576
   68CHL1  H19C 6181   5.909   2.633   4.050 -1.5833  0.1575 -0.2217
   68CHL1    C1 6182   6.095   2.390   4.095  0.2571 -0.5873  0.3149
   68CHL1   H1A 6183   6.180   2.451   4.134 -0.0349 -0.5059  0.8478
   68CHL1   H1B 6184   6.124   2.288   4.129  0.3823 -0.8714 -0.6348
   68CHL1    C2 6185   6.089   2.399   3.940  0.2597  0.1676 -0.5445
   68CHL1   H2A 6186   6.182   2.347   3.910  0.6835 -0.9940  2.4110
   68CHL1   H2B 6187   6.083   2.509   3.924  1.3403  0.3942  0.4541
   68CHL1   C20 6188   5.993   2.423   4.861 -0.0261  0.5524  0.0739
   68CHL1   H20 6189   6.086   2.470   4.823 -0.5156  2.7792  1.3858
   68CHL1   C21 6190   6.023   2.303   4.960  0.4851  1.5190  0.0842
   68CHL1  H21A 6191   6.104   2.336   5.028  2.0050 -0.2652 -0.7645
   68CHL1  H21B 6192   6.058   2.216   4.900 -2.2206 -0.1745  0.7848
   68CHL1  H21C 6193   5.936   2.270   5.021 -1.1948 -1.5350 -3.5124
   68CHL1   C22 6194   5.924   2.539   4.943 -0.0659  0.5203 -0.1231
   68CHL1  H22A 6195   5.895   2.629   4.884 -2.1181  0.2493  0.3731
   68CHL1  H22B 6196   5.828   2.499   4.983  0.6730 -0.9292  0.2402
   68CHL1   C23 6197   6.003   2.589   5.070  0.7287 -0.3920  0.6780
   68CHL1  H23A 6198   6.033   2.499   5.127 -1.6315 -0.5394  1.7936
   68CHL1  H23B 6199   6.095   2.642   5.038  1.6566 -3.1195 -1.5366
   68CHL1   C24 6200   5.919   2.697   5.146  0.4569  1.0947  0.1034
   68CHL1  H24A 6201   5.911   2.767   5.060  0.6782 -1.2455 -1.9509
   68CHL1  H24B 6202   5.818   2.655   5.163  1.5687 -2.0914 -0.3502
   68CHL1   C25 6203   5.978   2.770   5.269 -0.2187 -0.3075 -0.8975
   68CHL1   H25 6204   6.076   2.814   5.241 -1.1373  0.7585 -2.5816
   68CHL1   C26 6205   5.897   2.894   5.295  0.1197 -0.3458 -0.2350
   68CHL1  H26A 6206   5.790   2.866   5.287  0.1742 -0.2621 -1.6789
   68CHL1  H26B 6207   5.926   2.934   5.394  0.2876 -0.2688 -0.3137
   68CHL1  H26C 6208   5.910   2.975   5.219 -0.1403  0.4011  0.4947
   68CHL1   C27 6209   5.981   2.686   5.395  0.1159  0.0071  0.7166
   68CHL1  H27A 6210   6.047   2.598   5.385 -1.3048 -0.9875 -0.2615
   68CHL1  H27B 6211   6.018   2.748   5.480 -2.5041  0.8847  1.3023
   68CHL1  H27C 6212   5.885   2.637   5.422 -0.1298  0.9048  1.5428
   69CHL1    C3 6213   5.806   6.021   3.866  0.0060 -0.4595 -0.4967
   69CHL1    H3 6214   5.879   6.103   3.881 -0.3264 -0.6503  2.8825
   69CHL1    O3 6215   5.800   5.981   3.730  0.1496  0.6636 -0.2354
   69CHL1   H3' 6216   5.724   5.923   3.735 -1.4624  2.7894  1.9506
   69CHL1    C4 6217   5.855   5.905   3.947 -0.1254 -0.3114 -0.2664
   69CHL1   H4A 6218   5.796   5.812   3.934 -0.8118  0.3333 -2.1886
   69CHL1   H4B 6219   5.956   5.881   3.908 -0.8702 -0.6667 -2.0731
   69CHL1    C5 6220   5.857   5.941   4.094 -0.9434 -0.1157  0.3215
   69CHL1    C6 6221   5.963   5.938   4.175 -0.1358 -0.5682 -0.0311
   69CHL1    H6 6222   6.060   5.910   4.131 -0.5220 -0.2570 -1.1194
   69CHL1    C7 6223   5.962   5.961   4.324  0.5591 -0.3137  0.8372
   69CHL1   H7A 6224   6.025   5.887   4.378 -2.2910 -2.4220  1.5044
   69CHL1   H7B 6225   6.008   6.061   4.340 -1.4580  0.9215 -0.6432
   69CHL1    C8 6226   5.822   5.953   4.385  0.2578  0.1498 -0.3509
   69CHL1    H8 6227   5.783   5.849   4.388 -1.9932  0.9495 -0.2373
   69CHL1   C14 6228   5.816   6.015   4.523  0.3886  0.0720  0.0352
   69CHL1   H14 6229   5.842   6.122   4.516  2.8154 -0.5196 -0.9864
   69CHL1   C15 6230   5.920   5.965   4.622 -0.2222 -0.4285  0.3657
   69CHL1  H15A 6231   5.917   5.854   4.626 -0.3312 -0.4157  0.6415
   69CHL1  H15B 6232   6.023   6.002   4.607 -0.7736  0.1597 -2.5135
   69CHL1   C16 6233   5.869   5.995   4.761  0.3155 -0.2383 -0.5078
   69CHL1  H16A 6234   5.864   5.910   4.833  1.4531 -0.2208 -0.3798
   69CHL1  H16B 6235   5.932   6.077   4.801  1.3771  0.4327 -3.3234
   69CHL1   C17 6236   5.730   6.056   4.731 -0.8379  0.4959  0.0690
   69CHL1   H17 6237   5.746   6.166   4.732 -1.4667  0.6531 -2.0267
   69CHL1   C13 6238   5.688   6.004   4.598  0.0198  0.3943  0.2583
   69CHL1   C18 6239   5.648   5.852   4.604  0.1085 -0.2010 -0.1798
   69CHL1  H18A 6240   5.548   5.835   4.650 -0.7066  3.4447 -0.2997
   69CHL1  H18B 6241   5.626   5.819   4.500 -2.2784  1.2844 -0.2201
   69CHL1  H18C 6242   5.730   5.785   4.637  1.1582  0.5447 -1.1875
   69CHL1   C12 6243   5.581   6.090   4.522  0.0937  0.5067 -0.3412
   69CHL1  H12A 6244   5.481   6.064   4.562  0.2595  0.4432  0.0386
   69CHL1  H12B 6245   5.614   6.196   4.530 -1.6041  0.9298  1.8103
   69CHL1   C11 6246   5.585   6.040   4.376 -0.5911 -0.5216 -0.6520
   69CHL1  H11A 6247   5.524   5.947   4.367  0.8745 -2.3391  4.4762
   69CHL1  H11B 6248   5.529   6.122   4.325 -1.2652 -2.0799 -2.5211
   69CHL1    C9 6249   5.720   6.032   4.303  0.1560  0.1435  0.8477
   69CHL1    H9 6250   5.756   6.137   4.293 -1.7958  0.6122 -3.2476
   69CHL1   C10 6251   5.721   5.981   4.153 -0.5098 -0.4863 -0.0254
   69CHL1   C19 6252   5.620   5.863   4.141 -0.2840 -0.5444  0.1815
   69CHL1  H19A 6253   5.521   5.910   4.128  0.1262  0.7136  1.3550
   69CHL1  H19B 6254   5.643   5.794   4.057  1.8195 -1.9730  1.7996
   69CHL1  H19C 6255   5.614   5.803   4.235 -2.0967  0.1885  0.5542
   69CHL1    C1 6256   5.677   6.103   4.064 -0.4405  0.5314 -0.3892
   69CHL1   H1A 6257   5.575   6.132   4.097 -0.7630 -2.7021  1.9548
   69CHL1   H1B 6258   5.749   6.188   4.072  1.0224 -0.8188  1.6441
   69CHL1    C2 6259   5.669   6.067   3.914  0.7113  0.5172  0.4100
   69CHL1   H2A 6260   5.636   6.158   3.859 -1.5665 -0.2139  0.4749
   69CHL1   H2B 6261   5.598   5.983   3.907  2.6884 -1.3765  1.7665
   69CHL1   C20 6262   5.636   6.030   4.852  0.1346 -0.5945 -0.1633
   69CHL1   H20 6263   5.619   5.921   4.858  2.5153 -0.9388  2.1582
   69CHL1   C21 6264   5.496   6.113   4.846 -0.3154  0.2201 -0.5639
   69CHL1  H21A 6265   5.431   6.049   4.783  0.6259 -0.0996 -1.2276
   69CHL1  H21B 6266   5.508   6.214   4.802  1.7473 -0.4904 -1.7636
   69CHL1  H21C 6267   5.454   6.113   4.949  0.9143  1.1557 -0.0466
   69CHL1   C22 6268   5.718   6.065   4.983  0.3506 -0.9310  0.4295
   69CHL1  H22A 6269   5.827   6.050   5.001  0.7494  1.6160  0.4930
   69CHL1  H22B 6270   5.701   6.172   5.008  1.7159 -0.4418 -0.6136
   69CHL1   C23 6271   5.651   5.985   5.092 -0.7446  0.0156 -0.5355
   69CHL1  H23A 6272   5.550   6.031   5.088  0.2420  2.1943 -3.6984
   69CHL1  H23B 6273   5.647   5.878   5.060 -0.4438 -0.0910 -0.2274
   69CHL1   C24 6274   5.716   6.003   5.230 -0.9951  0.2689 -0.1444
   69CHL1  H24A 6275   5.736   6.110   5.253 -0.2653  0.3358 -1.0135
   69CHL1  H24B 6276   5.651   5.958   5.308 -0.3546 -0.4174  0.0056
   69CHL1   C25 6277   5.853   5.930   5.245  0.5899  0.3983 -0.8249
   69CHL1   H25 6278   5.917   5.960   5.159 -0.5857  0.2622 -1.7819
   69CHL1   C26 6279   5.934   5.963   5.369  0.8637 -0.1466  0.0701
   69CHL1  H26A 6280   5.964   6.070   5.368 -0.6315  0.3042  0.7976
   69CHL1  H26B 6281   5.877   5.954   5.464  1.1041  1.7745  0.4434
   69CHL1  H26C 6282   6.016   5.889   5.370 -0.4536 -1.6961 -0.7161
   69CHL1   C27 6283   5.833   5.775   5.237  0.6104  0.1126 -0.3855
   69CHL1  H27A 6284   5.927   5.725   5.268  0.9082  1.4169  0.9421
   69CHL1  H27B 6285   5.747   5.743   5.300  1.5135  0.5154  1.1029
   69CHL1  H27C 6286   5.803   5.750   5.133  0.2340 -0.9325 -0.0430
   70CHL1    C3 6287   0.826   4.364   3.609  0.0419 -0.7921 -0.0330
   70CHL1    H3 6288   0.925   4.414   3.614  0.1349 -1.0484  0.7070
   70CHL1    O3 6289   0.796   4.335   3.472 -0.4751 -0.1036 -0.5427
   70CHL1   H3' 6290   0.711   4.291   3.481 -1.4503  1.8890  0.5654
   70CHL1    C4 6291   0.832   4.236   3.689  0.0451 -0.3608 -0.2325
   70CHL1   H4A 6292   0.750   4.164   3.668  2.3681 -3.7310  1.3402
   70CHL1   H4B 6293   0.923   4.192   3.643 -0.2784 -0.1639 -1.0722
   70CHL1    C5 6294   0.853   4.250   3.838  0.3092  0.5325 -0.0633
   70CHL1    C6 6295   0.954   4.187   3.906 -0.2884  0.0016  0.4335
   70CHL1    H6 6296   1.022   4.115   3.857 -2.2846 -2.1020  0.5293
   70CHL1    C7 6297   0.961   4.199   4.059 -0.1205  0.1864 -0.4062
   70CHL1   H7A 6298   0.988   4.100   4.100  0.8467 -0.6490 -2.8399
   70CHL1   H7B 6299   1.052   4.260   4.079  0.5076 -0.8141 -0.1292
   70CHL1    C8 6300   0.838   4.258   4.135 -0.1163  0.1906  0.6076
   70CHL1    H8 6301   0.761   4.177   4.137  0.1967 -0.1248  0.1762
   70CHL1   C14 6302   0.872   4.316   4.269  0.5109  0.1453 -0.0857
   70CHL1   H14 6303   0.938   4.404   4.256 -1.0751  1.9941  3.1105
   70CHL1   C15 6304   0.942   4.219   4.368 -0.2056 -0.2288 -0.1043
   70CHL1  H15A 6305   0.908   4.113   4.374  1.6003 -0.8121  0.3711
   70CHL1  H15B 6306   1.050   4.219   4.343 -0.3220  0.5954 -0.6528
   70CHL1   C16 6307   0.919   4.295   4.502 -0.0319 -0.2763 -0.4096
   70CHL1  H16A 6308   0.868   4.218   4.564 -1.0465  0.5751 -0.1321
   70CHL1  H16B 6309   1.012   4.314   4.560 -1.4202 -0.3436  2.0140
   70CHL1   C17 6310   0.828   4.417   4.480 -0.5135 -0.2298 -0.5905
   70CHL1   H17 6311   0.899   4.500   4.462 -1.5523  0.6786 -0.6040
   70CHL1   C13 6312   0.756   4.380   4.355  0.4735  0.3155  0.4012
   70CHL1   C18 6313   0.646   4.280   4.371  0.2369 -0.0507 -0.0888
   70CHL1  H18A 6314   0.609   4.243   4.274 -1.0002 -0.0650  0.3711
   70CHL1  H18B 6315   0.686   4.200   4.438  1.6444 -0.4825 -1.3900
   70CHL1  H18C 6316   0.567   4.340   4.420  2.1650  2.6888 -0.1171
   70CHL1   C12 6317   0.716   4.502   4.262  0.3356 -0.2105 -0.4146
   70CHL1  H12A 6318   0.621   4.552   4.289  0.6452  0.0052  0.2755
   70CHL1  H12B 6319   0.799   4.575   4.254  0.5956 -0.2387  1.5288
   70CHL1   C11 6320   0.678   4.456   4.125 -0.4051 -0.0811 -0.7890
   70CHL1  H11A 6321   0.574   4.417   4.134 -1.7331  2.9324 -1.5104
   70CHL1  H11B 6322   0.667   4.547   4.062 -1.2531  0.5594  0.2411
   70CHL1    C9 6323   0.781   4.373   4.048  0.4829  0.1022 -0.5219
   70CHL1    H9 6324   0.871   4.439   4.044  0.8720 -0.2988  0.8893
   70CHL1   C10 6325   0.744   4.338   3.901 -0.1290 -0.2910 -0.5978
   70CHL1   C19 6326   0.608   4.259   3.904 -0.0824 -0.2752  0.0057
   70CHL1  H19A 6327   0.614   4.172   3.972  2.3639 -1.6875 -1.8577
   70CHL1  H19B 6328   0.519   4.317   3.938 -2.2864 -3.3383 -0.1482
   70CHL1  H19C 6329   0.592   4.231   3.798  1.6604  2.3294 -1.0771
   70CHL1    C1 6330   0.734   4.470   3.819 -0.3204  0.3322 -0.3779
   70CHL1   H1A 6331   0.648   4.529   3.859 -0.8106  0.3678 -1.4655
   70CHL1   H1B 6332   0.826   4.529   3.839 -1.2521  1.1439  1.9223
   70CHL1    C2 6333   0.720   4.451   3.664 -0.2118  0.1398  0.1456
   70CHL1   H2A 6334   0.726   4.553   3.620 -1.6749  0.3233  0.3260
   70CHL1   H2B 6335   0.618   4.420   3.631 -0.3884 -1.9130  2.3992
   70CHL1   C20 6336   0.747   4.456   4.602 -0.2274  0.4949  0.2564
   70CHL1   H20 6337   0.660   4.388   4.611 -0.3950  0.5843 -0.6468
   70CHL1   C21 6338   0.697   4.599   4.595  0.2885 -0.2609 -0.0041
   70CHL1  H21A 6339   0.629   4.615   4.508 -1.8866  1.9881  1.9885
   70CHL1  H21B 6340   0.776   4.677   4.601 -0.4333  0.4027  1.0315
   70CHL1  H21C 6341   0.631   4.621   4.681  1.2171  1.4581  0.3078
   70CHL1   C22 6342   0.829   4.427   4.738  0.5174 -0.2288 -0.3433
   70CHL1  H22A 6343   0.842   4.319   4.760  0.6781  0.2360  1.9981
   70CHL1  H22B 6344   0.928   4.476   4.727  0.0341  0.9186  0.2964
   70CHL1   C23 6345   0.767   4.499   4.866 -0.0865  0.2734 -0.4341
   70CHL1  H23A 6346   0.756   4.604   4.830  0.0114 -1.0164 -4.7951
   70CHL1  H23B 6347   0.666   4.456   4.885 -0.2587  1.3629  1.3879
   70CHL1   C24 6348   0.846   4.483   4.998 -0.0074 -0.3641  0.3868
   70CHL1  H24A 6349   0.850   4.378   5.033  0.1133 -0.9662 -1.2973
   70CHL1  H24B 6350   0.953   4.502   4.976  0.6201 -1.5658  2.2025
   70CHL1   C25 6351   0.788   4.572   5.107 -0.5642  0.1755 -0.5225
   70CHL1   H25 6352   0.774   4.680   5.083 -0.3623  0.9673  2.5287
   70CHL1   C26 6353   0.654   4.521   5.147 -0.0028 -0.3129 -0.2560
   70CHL1  H26A 6354   0.582   4.531   5.064  2.0988  1.2041 -1.9995
   70CHL1  H26B 6355   0.670   4.415   5.179  0.2982  0.0930  1.0282
   70CHL1  H26C 6356   0.616   4.576   5.236 -1.1994 -1.9646  0.3108
   70CHL1   C27 6357   0.881   4.566   5.239 -0.3069 -0.4067 -0.5270
   70CHL1  H27A 6358   0.894   4.460   5.270 -0.2571 -1.3615 -3.4236
   70CHL1  H27B 6359   0.984   4.598   5.213 -0.0183 -1.1031 -0.2548
   70CHL1  H27C 6360   0.842   4.639   5.313  0.0304  0.8551 -1.5660
   71CHL1    C3 6361   4.145   1.729   3.757 -0.1947  0.1703 -0.8240
   71CHL1    H3 6362   4.048   1.676   3.745  0.0365 -0.0521 -1.7217
   71CHL1    O3 6363   4.190   1.769   3.629 -0.1742 -0.2974 -0.4883
   71CHL1   H3' 6364   4.282   1.794   3.640 -0.7035  1.4552  0.5098
   71CHL1    C4 6365   4.130   1.857   3.844  0.5675 -0.2849  0.5734
   71CHL1   H4A 6366   4.212   1.932   3.832  0.6544 -0.7098 -2.0216
   71CHL1   H4B 6367   4.042   1.901   3.792  0.4359 -0.6174  0.5149
   71CHL1    C5 6368   4.112   1.818   3.993 -0.3974  0.1720  0.0263
   71CHL1    C6 6369   3.998   1.857   4.053 -0.4600  0.3867  0.0252
   71CHL1    H6 6370   3.920   1.906   3.993  1.0900  3.0551  0.0245
   71CHL1    C7 6371   3.986   1.854   4.206 -0.4556 -0.2002  0.0802
   71CHL1   H7A 6372   3.953   1.949   4.253  0.5889 -0.2400  0.9210
   71CHL1   H7B 6373   3.913   1.773   4.225  0.1114 -0.9535 -0.8466
   71CHL1    C8 6374   4.114   1.800   4.285  0.5160  0.2568  0.1248
   71CHL1    H8 6375   4.192   1.878   4.298  0.1109  0.4213  1.7670
   71CHL1   C14 6376   4.083   1.756   4.428  0.2621  0.7076 -0.7627
   71CHL1   H14 6377   4.003   1.686   4.397  0.2575 -0.6596  2.0695
   71CHL1   C15 6378   4.012   1.856   4.519  0.1273  0.2441  0.0781
   71CHL1  H15A 6379   4.070   1.951   4.511  0.3952  0.0224 -0.7845
   71CHL1  H15B 6380   3.906   1.864   4.486  0.5549  0.3045 -1.3640
   71CHL1   C16 6381   4.028   1.784   4.656 -0.5672 -0.7980 -0.6580
   71CHL1  H16A 6382   4.091   1.855   4.714 -0.6139 -2.1612  1.1543
   71CHL1  H16B 6383   3.925   1.769   4.696 -2.6100  2.2062 -4.1433
   71CHL1   C17 6384   4.119   1.660   4.634  0.8024  0.1470  0.5178
   71CHL1   H17 6385   4.040   1.581   4.628  1.5368 -0.5357 -0.3518
   71CHL1   C13 6386   4.193   1.684   4.508 -1.1523  0.2050  0.3782
   71CHL1   C18 6387   4.316   1.784   4.534 -0.8094  0.0049 -0.3713
   71CHL1  H18A 6388   4.405   1.738   4.582  0.2289  1.6411 -0.6296
   71CHL1  H18B 6389   4.366   1.840   4.452  0.9254  0.5812  1.0096
   71CHL1  H18C 6390   4.276   1.868   4.596 -1.0567 -0.2222 -0.2207
   71CHL1   C12 6391   4.238   1.558   4.430  0.1277  0.1858  0.2198
   71CHL1  H12A 6392   4.332   1.515   4.471  0.9217 -0.1022 -1.7651
   71CHL1  H12B 6393   4.166   1.476   4.415  1.6401 -1.2067  0.2712
   71CHL1   C11 6394   4.289   1.609   4.286  0.4092 -0.1135 -0.0516
   71CHL1  H11A 6395   4.381   1.668   4.305  0.5978 -0.6912  0.8995
   71CHL1  H11B 6396   4.314   1.514   4.233  1.6949 -0.0409  0.4097
   71CHL1    C9 6397   4.177   1.683   4.204  0.1825  0.4986  0.4860
   71CHL1    H9 6398   4.091   1.618   4.176  0.9616  0.7432 -2.9244
   71CHL1   C10 6399   4.228   1.732   4.061 -0.0551 -0.1489  0.4794
   71CHL1   C19 6400   4.369   1.802   4.072 -0.3555 -0.4627 -0.0064
   71CHL1  H19A 6401   4.446   1.729   4.106  0.4750  0.6069  0.4742
   71CHL1  H19B 6402   4.404   1.828   3.970  0.9069 -1.2985  0.1837
   71CHL1  H19C 6403   4.366   1.888   4.142 -0.3377 -1.3802  1.1751
   71CHL1    C1 6404   4.237   1.607   3.961 -0.1655  0.4306 -0.4451
   71CHL1   H1A 6405   4.331   1.559   3.996  0.7536  0.9087 -2.1638
   71CHL1   H1B 6406   4.169   1.519   3.974 -1.5396  1.3489 -1.1890
   71CHL1    C2 6407   4.256   1.644   3.811 -0.5181  0.0485 -0.3677
   71CHL1   H2A 6408   4.277   1.561   3.740 -0.2614 -1.3540  1.2938
   71CHL1   H2B 6409   4.349   1.705   3.810 -0.5618  0.1183 -0.2197
   71CHL1   C20 6410   4.196   1.626   4.762  0.2957 -0.2024  0.0983
   71CHL1   H20 6411   4.274   1.704   4.776 -0.8118  1.0157 -0.2647
   71CHL1   C21 6412   4.260   1.489   4.744  0.2883 -0.6641 -0.1743
   71CHL1  H21A 6413   4.183   1.410   4.748 -0.9853  0.5730  0.4999
   71CHL1  H21B 6414   4.335   1.464   4.822  0.4810  0.3788 -0.0075
   71CHL1  H21C 6415   4.322   1.485   4.651 -0.5630 -1.1860 -0.7331
   71CHL1   C22 6416   4.102   1.629   4.878 -0.4152  0.5015  0.0761
   71CHL1  H22A 6417   4.073   1.735   4.895 -1.0656  0.3352  0.0332
   71CHL1  H22B 6418   4.015   1.566   4.849  0.6837  0.0225 -2.4191
   71CHL1   C23 6419   4.157   1.569   5.009 -0.1696 -0.1182 -0.5672
   71CHL1  H23A 6420   4.165   1.458   5.007  0.8114 -0.0760  0.1922
   71CHL1  H23B 6421   4.259   1.609   5.028 -0.2635 -0.5150  0.9053
   71CHL1   C24 6422   4.064   1.598   5.126 -0.5469  0.8082  0.5467
   71CHL1  H24A 6423   4.033   1.704   5.114 -2.7173  0.1106 -0.6599
   71CHL1  H24B 6424   3.982   1.525   5.109  0.5090 -0.3149  0.1057
   71CHL1   C25 6425   4.116   1.570   5.270 -0.1520 -0.6943  0.9719
   71CHL1   H25 6426   4.169   1.472   5.272 -2.8132 -2.3503 -1.7647
   71CHL1   C26 6427   4.209   1.684   5.322  0.1017  0.3433  0.5316
   71CHL1  H26A 6428   4.231   1.660   5.428 -0.3820  0.7931  0.7351
   71CHL1  H26B 6429   4.304   1.690   5.265  0.4730 -0.0239  1.1027
   71CHL1  H26C 6430   4.148   1.777   5.318  2.1963  1.8356  1.5599
   71CHL1   C27 6431   3.997   1.560   5.362  1.7289  0.0205  0.4394
   71CHL1  H27A 6432   4.021   1.564   5.471 -2.0304 -0.5774  1.4166
   71CHL1  H27B 6433   3.918   1.636   5.348  0.0932 -1.6609  0.1731
   71CHL1  H27C 6434   3.936   1.474   5.329  0.2231  2.0580 -2.5573
   72CHL1    C3 6435   5.109   0.646   3.428  0.0995 -0.0553  0.4935
   72CHL1    H3 6436   5.003   0.616   3.442 -0.6149  1.6583 -0.8541
   72CHL1    O3 6437   5.118   0.666   3.284  0.4833  0.0503  0.1348
   72CHL1   H3' 6438   5.101   0.760   3.285 -0.4085 -0.0501  2.3932
   72CHL1    C4 6439   5.149   0.769   3.504  0.1719 -0.3543  0.6748
   72CHL1   H4A 6440   5.255   0.788   3.475 -0.5747  1.2254 -1.1896
   72CHL1   H4B 6441   5.080   0.848   3.468 -1.1560 -1.6659  0.2380
   72CHL1    C5 6442   5.131   0.759   3.653 -0.6984  0.0886 -0.2092
   72CHL1    C6 6443   5.051   0.838   3.720  0.1956  0.0878 -0.4006
   72CHL1    H6 6444   4.983   0.912   3.676 -0.2310 -1.5052 -2.5943
   72CHL1    C7 6445   5.045   0.824   3.871  0.1400  0.3295 -0.0445
   72CHL1   H7A 6446   5.063   0.928   3.907  0.4414  0.9561 -1.8846
   72CHL1   H7B 6447   4.942   0.806   3.909 -0.2093  1.5723 -0.3266
   72CHL1    C8 6448   5.144   0.729   3.943  0.0851  0.5794 -0.4410
   72CHL1    H8 6449   5.248   0.768   3.944  0.6019 -0.7021  1.1371
   72CHL1   C14 6450   5.104   0.686   4.088  0.4947 -0.3780  0.1397
   72CHL1   H14 6451   5.007   0.633   4.074  1.0047 -1.6949  1.2712
   72CHL1   C15 6452   5.063   0.799   4.187  0.4818  0.8055  0.4460
   72CHL1  H15A 6453   5.139   0.880   4.175  0.0827  0.9576 -1.2619
   72CHL1  H15B 6454   4.960   0.834   4.165  1.1903  1.8159 -1.5754
   72CHL1   C16 6455   5.073   0.728   4.321  0.0915  0.2848 -0.4612
   72CHL1  H16A 6456   5.141   0.794   4.379  0.8300 -1.3716  0.6552
   72CHL1  H16B 6457   4.972   0.719   4.368  0.3280  2.5668  0.6145
   72CHL1   C17 6458   5.141   0.592   4.295  0.1607  0.8246 -0.7739
   72CHL1   H17 6459   5.062   0.514   4.287 -0.3115  1.3602 -1.3794
   72CHL1   C13 6460   5.209   0.600   4.155 -0.4248  0.2146  0.6267
   72CHL1   C18 6461   5.347   0.673   4.184  0.3880 -0.0190  0.8933
   72CHL1  H18A 6462   5.338   0.763   4.248 -0.7202  1.2517 -0.9445
   72CHL1  H18B 6463   5.420   0.602   4.228  2.7476  1.6372 -0.1542
   72CHL1  H18C 6464   5.389   0.702   4.086 -0.4266  0.8774  0.7957
   72CHL1   C12 6465   5.222   0.470   4.072 -0.6140 -0.9535  0.1806
   72CHL1  H12A 6466   5.304   0.405   4.110 -0.7741 -1.8083 -0.9154
   72CHL1  H12B 6467   5.126   0.415   4.080 -0.8404 -0.7227 -0.8724
   72CHL1   C11 6468   5.258   0.495   3.926 -0.3598  0.8599  0.2236
   72CHL1  H11A 6469   5.363   0.531   3.923 -0.2194  0.4068 -1.3964
   72CHL1  H11B 6470   5.272   0.409   3.857 -2.4124  1.4242 -0.9971
   72CHL1    C9 6471   5.164   0.598   3.855 -0.7893 -0.5276 -0.4849
   72CHL1    H9 6472   5.064   0.550   3.852 -1.6677  1.0555  1.3467
   72CHL1   C10 6473   5.215   0.639   3.715  0.2844 -0.2123 -0.5169
   72CHL1   C19 6474   5.362   0.682   3.711 -0.2207  0.1884  0.3829
   72CHL1  H19A 6475   5.390   0.738   3.619 -4.5665 -1.7577 -2.4469
   72CHL1  H19B 6476   5.396   0.749   3.793 -0.1276  0.5658  0.0363
   72CHL1  H19C 6477   5.425   0.593   3.731  0.6969  0.9720  1.0589
   72CHL1    C1 6478   5.192   0.516   3.626  0.0008  0.5154 -0.1880
   72CHL1   H1A 6479   5.265   0.436   3.653 -0.7210  0.1876  0.8408
   72CHL1   H1B 6480   5.088   0.480   3.634 -0.0725  0.7475 -0.0839
   72CHL1    C2 6481   5.202   0.537   3.471  0.1208  0.4105 -0.4403
   72CHL1   H2A 6482   5.177   0.437   3.430  0.7192  0.5271 -1.1083
   72CHL1   H2B 6483   5.300   0.564   3.427  1.3616 -1.2823  1.1580
   72CHL1   C20 6484   5.226   0.544   4.417 -0.8252 -0.7434 -0.0937
   72CHL1   H20 6485   5.312   0.613   4.417 -1.1900 -0.2801 -0.6912
   72CHL1   C21 6486   5.268   0.398   4.389 -0.7920 -0.3692  0.5355
   72CHL1  H21A 6487   5.284   0.339   4.482  0.1458 -2.9073 -1.1610
   72CHL1  H21B 6488   5.346   0.392   4.311 -2.5325  2.0745 -1.5786
   72CHL1  H21C 6489   5.190   0.328   4.352  0.4075 -1.6201  0.3026
   72CHL1   C22 6490   5.161   0.567   4.553 -0.0541  0.4508 -0.1732
   72CHL1  H22A 6491   5.131   0.674   4.562  0.2519  0.5636 -0.4537
   72CHL1  H22B 6492   5.090   0.491   4.591  2.4161 -0.5264  2.9734
   72CHL1   C23 6493   5.271   0.565   4.667 -0.1636  0.1973 -0.6281
   72CHL1  H23A 6494   5.314   0.463   4.675 -0.4898  0.0303 -1.0211
   72CHL1  H23B 6495   5.349   0.641   4.642 -0.3672  0.2311 -1.1702
   72CHL1   C24 6496   5.208   0.598   4.804 -0.3562 -0.6859 -1.3402
   72CHL1  H24A 6497   5.187   0.707   4.803 -0.0448 -0.6100 -0.3787
   72CHL1  H24B 6498   5.112   0.545   4.824 -1.2789  1.9049  1.9245
   72CHL1   C25 6499   5.298   0.558   4.923  0.6965 -0.2252 -0.0303
   72CHL1   H25 6500   5.322   0.449   4.920 -0.3972 -0.5296  1.2741
   72CHL1   C26 6501   5.423   0.643   4.930 -0.0907  0.4493 -0.3063
   72CHL1  H26A 6502   5.383   0.745   4.949  1.2582  0.7849  0.9671
   72CHL1  H26B 6503   5.483   0.620   5.021  0.0436  1.1352 -0.2181
   72CHL1  H26C 6504   5.473   0.630   4.832 -1.6669 -1.8251 -0.8820
   72CHL1   C27 6505   5.224   0.561   5.062 -0.2623 -0.2837 -0.5348
   72CHL1  H27A 6506   5.153   0.645   5.077 -0.3598 -0.3883 -0.4123
   72CHL1  H27B 6507   5.165   0.468   5.075 -0.4256 -0.2480 -1.0125
   72CHL1  H27C 6508   5.302   0.564   5.142  0.6281  0.5248 -1.4118
   73CHL1    C3 6509   4.303   2.660   3.635 -0.3925  0.7627  0.1102
   73CHL1    H3 6510   4.412   2.685   3.635 -0.6709  2.1075 -0.9039
   73CHL1    O3 6511   4.257   2.629   3.502 -0.4439  0.0150  0.1285
   73CHL1   H3' 6512   4.307   2.691   3.448 -1.4874  0.0829 -0.7939
   73CHL1    C4 6513   4.282   2.548   3.736  0.0011 -0.5326  0.6626
   73CHL1   H4A 6514   4.175   2.519   3.727 -0.9606  2.0138  2.5419
   73CHL1   H4B 6515   4.338   2.457   3.705  3.2017  1.5298 -0.1390
   73CHL1    C5 6516   4.311   2.587   3.881 -0.5391  0.4629  0.2583
   73CHL1    C6 6517   4.402   2.512   3.953 -0.2077 -0.5007 -0.9688
   73CHL1    H6 6518   4.456   2.430   3.904  2.5070  0.9522 -0.5622
   73CHL1    C7 6519   4.446   2.545   4.096 -0.4693 -0.0026  0.2691
   73CHL1   H7A 6520   4.463   2.455   4.159 -2.3592  1.0688  2.4846
   73CHL1   H7B 6521   4.538   2.607   4.094  1.1492 -2.2521  0.7548
   73CHL1    C8 6522   4.335   2.625   4.165  0.1719  0.1055  0.1008
   73CHL1    H8 6523   4.252   2.556   4.191  2.0843 -1.9355  1.1745
   73CHL1   C14 6524   4.393   2.670   4.296  0.1433 -0.2561 -0.0884
   73CHL1   H14 6525   4.490   2.724   4.284  0.8061 -1.9724 -4.3361
   73CHL1   C15 6526   4.429   2.556   4.390  0.4225  0.4001  0.0971
   73CHL1  H15A 6527   4.336   2.496   4.397 -0.7731  2.3431  2.4305
   73CHL1  H15B 6528   4.515   2.491   4.363 -0.8907 -1.2850 -0.1549
   73CHL1   C16 6529   4.448   2.633   4.520  0.8444 -0.5195 -0.6212
   73CHL1  H16A 6530   4.401   2.570   4.598 -2.0850 -0.4453 -2.1663
   73CHL1  H16B 6531   4.556   2.652   4.539  0.5240  2.2699 -1.1431
   73CHL1   C17 6532   4.376   2.772   4.508  0.1421 -0.8080 -0.5036
   73CHL1   H17 6533   4.463   2.840   4.495  0.2515 -1.1468 -1.7295
   73CHL1   C13 6534   4.298   2.764   4.372  0.0061  1.0602 -0.6910
   73CHL1   C18 6535   4.157   2.696   4.403 -0.3306  0.1651 -0.1799
   73CHL1  H18A 6536   4.176   2.607   4.467 -0.3291 -0.6047 -1.2112
   73CHL1  H18B 6537   4.089   2.766   4.456  0.3140  0.5492  0.1469
   73CHL1  H18C 6538   4.102   2.655   4.315 -3.6069 -0.2221  1.8642
   73CHL1   C12 6539   4.284   2.892   4.285  0.1523 -0.0413  0.5663
   73CHL1  H12A 6540   4.217   2.968   4.331  1.4059  2.0559 -0.9026
   73CHL1  H12B 6541   4.388   2.933   4.286  0.7631 -1.5118  2.8850
   73CHL1   C11 6542   4.232   2.868   4.147 -0.2002  0.3665  0.1804
   73CHL1  H11A 6543   4.125   2.842   4.156 -0.5992  1.8850  0.0727
   73CHL1  H11B 6544   4.238   2.963   4.088  1.7915 -0.7295 -1.5453
   73CHL1    C9 6545   4.303   2.753   4.077  0.4472  0.2683  0.8368
   73CHL1    H9 6546   4.406   2.794   4.072  0.2170  0.8147  0.5324
   73CHL1   C10 6547   4.246   2.713   3.935  0.2123 -1.3650 -0.3011
   73CHL1   C19 6548   4.090   2.704   3.951 -0.1214 -0.0526 -0.3637
   73CHL1  H19A 6549   4.060   2.654   3.856  1.1616  1.6720 -1.7548
   73CHL1  H19B 6550   4.059   2.638   4.035  0.2247 -1.1118 -1.0455
   73CHL1  H19C 6551   4.051   2.807   3.967  1.4286  0.6970 -1.2238
   73CHL1    C1 6552   4.272   2.829   3.833  0.0194  0.3815  0.5973
   73CHL1   H1A 6553   4.227   2.923   3.869  1.5940  0.7618  1.6944
   73CHL1   H1B 6554   4.379   2.855   3.817  0.2077 -1.2974 -1.1216
   73CHL1    C2 6555   4.239   2.789   3.686  0.2751  0.3632  0.3708
   73CHL1   H2A 6556   4.272   2.875   3.624  1.0537 -0.2127 -0.0302
   73CHL1   H2B 6557   4.129   2.776   3.682  0.1276  1.6654 -0.1629
   73CHL1   C20 6558   4.305   2.809   4.644  0.2009 -0.1416  0.4219
   73CHL1   H20 6559   4.225   2.733   4.655 -0.5237  0.5622  0.1122
   73CHL1   C21 6560   4.226   2.948   4.628  0.0587  0.7891  0.2638
   73CHL1  H21A 6561   4.273   3.030   4.571  0.9264 -0.2131 -0.5005
   73CHL1  H21B 6562   4.188   2.991   4.724 -0.6089  0.8785 -0.0382
   73CHL1  H21C 6563   4.131   2.933   4.573  0.8409 -2.0673 -0.4706
   73CHL1   C22 6564   4.399   2.797   4.766  0.0865 -0.3445  0.1486
   73CHL1  H22A 6565   4.457   2.702   4.764 -0.7807 -0.8862  0.2951
   73CHL1  H22B 6566   4.474   2.875   4.740  0.2400 -0.9427 -1.3246
   73CHL1   C23 6567   4.333   2.826   4.897 -0.3948 -0.2564 -0.1614
   73CHL1  H23A 6568   4.255   2.905   4.891 -0.8823 -0.3840  2.9458
   73CHL1  H23B 6569   4.285   2.738   4.944  0.2752 -0.2584  0.5545
   73CHL1   C24 6570   4.437   2.888   5.005  0.3179 -0.3008 -0.6732
   73CHL1  H24A 6571   4.540   2.859   4.977  0.0938  0.4773 -2.4687
   73CHL1  H24B 6572   4.447   2.998   4.995  1.1714 -0.3103 -0.0252
   73CHL1   C25 6573   4.392   2.870   5.150 -0.5599 -0.1596 -0.2943
   73CHL1   H25 6574   4.407   2.761   5.159  0.1859 -0.1337 -1.1457
   73CHL1   C26 6575   4.487   2.929   5.260  0.4119  0.4410  0.3932
   73CHL1  H26A 6576   4.580   2.872   5.243 -0.6059 -1.9086  2.1710
   73CHL1  H26B 6577   4.498   3.039   5.260 -1.0989  0.6284  1.4355
   73CHL1  H26C 6578   4.445   2.912   5.362 -0.2177  0.2611  0.1117
   73CHL1   C27 6579   4.238   2.900   5.184 -0.4118  0.7314  0.2841
   73CHL1  H27A 6580   4.173   2.825   5.136 -1.4484 -0.1445  2.8942
   73CHL1  H27B 6581   4.228   2.897   5.294 -1.0092  1.6662  0.2659
   73CHL1  H27C 6582   4.204   2.998   5.143 -0.8422 -0.0248 -1.2595
   74CHL1    C3 6583   5.441   2.672   3.852 -0.2008 -0.1176 -0.2471
   74CHL1    H3 6584   5.399   2.570   3.840  0.8481 -0.8256  1.6981
   74CHL1    O3 6585   5.459   2.719   3.719 -0.1588 -1.0150 -0.3354
   74CHL1   H3' 6586   5.519   2.664   3.667  1.9404  0.0450  0.8077
   74CHL1    C4 6587   5.339   2.768   3.920  0.6414 -0.1473  0.0394
   74CHL1   H4A 6588   5.369   2.872   3.894  1.7896 -0.7918 -1.3871
   74CHL1   H4B 6589   5.234   2.758   3.886  0.9396 -0.5995 -0.7850
   74CHL1    C5 6590   5.342   2.756   4.072 -0.4083  0.3172  0.0494
   74CHL1    C6 6591   5.224   2.729   4.136  0.2588 -0.3692 -0.7323
   74CHL1    H6 6592   5.130   2.723   4.079 -0.4327  1.6065  0.0989
   74CHL1    C7 6593   5.208   2.722   4.285  0.5149  1.0688 -0.7613
   74CHL1   H7A 6594   5.115   2.779   4.307 -0.9180 -0.9885 -1.2012
   74CHL1   H7B 6595   5.203   2.619   4.325  2.7948  0.6362 -1.3984
   74CHL1    C8 6596   5.331   2.779   4.356 -0.9072 -0.0986  0.2711
   74CHL1    H8 6597   5.333   2.889   4.345 -1.3993 -0.1806 -0.7380
   74CHL1   C14 6598   5.329   2.735   4.504  0.3567 -0.0788  0.0109
   74CHL1   H14 6599   5.341   2.625   4.505 -2.7026 -0.5261 -0.4651
   74CHL1   C15 6600   5.200   2.764   4.581 -0.0684  1.1465 -0.5585
   74CHL1  H15A 6601   5.174   2.870   4.558  3.0611  2.2066  0.2428
   74CHL1  H15B 6602   5.119   2.693   4.558 -0.0345  0.7863  0.3945
   74CHL1   C16 6603   5.250   2.750   4.726  0.1202  0.3328  0.5192
   74CHL1  H16A 6604   5.238   2.849   4.775 -1.3084  0.6803 -0.4856
   74CHL1  H16B 6605   5.202   2.669   4.785  0.9874 -0.6909 -0.1269
   74CHL1   C17 6606   5.398   2.722   4.721 -0.5015  0.0321 -0.2352
   74CHL1   H17 6607   5.410   2.612   4.729  0.3344  0.2061  1.3466
   74CHL1   C13 6608   5.445   2.788   4.592 -0.3378 -0.7310  0.9152
   74CHL1   C18 6609   5.444   2.941   4.591  0.6273  0.8710  0.2051
   74CHL1  H18A 6610   5.347   2.993   4.608  1.7233  2.8204  0.8857
   74CHL1  H18B 6611   5.519   2.989   4.657 -0.1218 -0.3141  2.0093
   74CHL1  H18C 6612   5.463   2.958   4.483  1.3050  1.1639  0.3655
   74CHL1   C12 6613   5.579   2.733   4.533 -0.0890 -0.2741 -0.1062
   74CHL1  H12A 6614   5.666   2.779   4.586 -1.6132  1.9113  0.6489
   74CHL1  H12B 6615   5.573   2.623   4.545 -1.3686 -0.4086 -1.7130
   74CHL1   C11 6616   5.593   2.756   4.378  0.1956  0.0080  0.3012
   74CHL1  H11A 6617   5.629   2.860   4.368  1.2089 -0.3780 -0.2675
   74CHL1  H11B 6618   5.672   2.690   4.336  0.1372 -0.5830  1.0902
   74CHL1    C9 6619   5.464   2.730   4.288 -0.3021 -0.1794 -0.0278
   74CHL1    H9 6620   5.450   2.621   4.302 -1.4886  0.2844  3.7602
   74CHL1   C10 6621   5.477   2.755   4.137  0.5034 -0.3078  0.8855
   74CHL1   C19 6622   5.559   2.884   4.133  0.0345  0.5131  0.2700
   74CHL1  H19A 6623   5.661   2.876   4.175 -0.4270 -1.3247  1.1072
   74CHL1  H19B 6624   5.577   2.914   4.027 -1.1030 -0.9277 -0.3784
   74CHL1  H19C 6625   5.511   2.970   4.185 -1.4092  0.2662 -0.5926
   74CHL1    C1 6626   5.562   2.644   4.072  0.3686  0.4952  0.1944
   74CHL1   H1A 6627   5.659   2.630   4.124 -0.1133 -2.8437  0.4266
   74CHL1   H1B 6628   5.510   2.546   4.080 -1.2876  1.1548 -1.6503
   74CHL1    C2 6629   5.578   2.668   3.923 -0.3143  0.5170  0.1252
   74CHL1   H2A 6630   5.634   2.581   3.883 -0.6671  0.9702 -1.4529
   74CHL1   H2B 6631   5.644   2.756   3.909 -0.5451  1.0038  1.9369
   74CHL1   C20 6632   5.460   2.767   4.860 -0.0469 -0.6958  0.4520
   74CHL1   H20 6633   5.478   2.877   4.855  0.8952 -0.8941 -1.0235
   74CHL1   C21 6634   5.594   2.699   4.869 -0.4246 -0.7986 -0.4161
   74CHL1  H21A 6635   5.583   2.588   4.871  0.4616 -0.8918  1.4661
   74CHL1  H21B 6636   5.650   2.724   4.962 -0.2161  1.6393 -1.1469
   74CHL1  H21C 6637   5.657   2.720   4.781 -0.9699  1.5805 -0.2930
   74CHL1   C22 6638   5.366   2.747   4.976 -0.0843  0.3280  0.2649
   74CHL1  H22A 6639   5.278   2.814   4.969 -0.8427 -0.2432  3.0918
   74CHL1  H22B 6640   5.314   2.650   4.976 -0.3732  0.4693  1.4922
   74CHL1   C23 6641   5.437   2.769   5.110 -1.3055 -0.1974 -0.1138
   74CHL1  H23A 6642   5.500   2.678   5.121 -2.5467 -1.0143  0.5309
   74CHL1  H23B 6643   5.488   2.867   5.096  1.4102 -1.1861  1.9652
   74CHL1   C24 6644   5.346   2.774   5.236 -0.0305  0.7402  0.0979
   74CHL1  H24A 6645   5.265   2.850   5.237 -0.0994  0.6736  1.4318
   74CHL1  H24B 6646   5.308   2.670   5.246  1.8051  0.0281  0.0694
   74CHL1   C25 6647   5.428   2.812   5.363  0.3236 -0.5103  0.1170
   74CHL1   H25 6648   5.471   2.913   5.346 -1.2005  0.0573 -0.5331
   74CHL1   C26 6649   5.327   2.822   5.483  0.5829  0.4137 -0.1255
   74CHL1  H26A 6650   5.366   2.854   5.581 -0.1528 -0.9422  0.6390
   74CHL1  H26B 6651   5.251   2.897   5.454  0.3228 -0.1991 -1.0952
   74CHL1  H26C 6652   5.275   2.726   5.504 -1.3741  1.7964  1.7802
   74CHL1   C27 6653   5.545   2.716   5.391 -0.1071  0.0263 -0.2506
   74CHL1  H27A 6654   5.621   2.707   5.310 -1.0202 -1.5504 -0.9886
   74CHL1  H27B 6655   5.590   2.720   5.492  0.6357 -0.3522 -0.5627
   74CHL1  H27C 6656   5.503   2.613   5.381  0.8224 -0.1452 -3.4063
   75CHL1    C3 6657   6.622   0.266   3.470 -0.3920 -0.2972  0.4241
   75CHL1    H3 6658   6.565   0.171   3.459  0.1684 -0.4355 -1.7135
   75CHL1    O3 6659   6.636   0.322   3.340  0.6854 -0.3881  0.0560
   75CHL1   H3' 6660   6.730   0.332   3.330  0.8391 -0.9238  0.8561
   75CHL1    C4 6661   6.550   0.367   3.552  0.1550  0.1428  0.1873
   75CHL1   H4A 6662   6.583   0.471   3.529  1.0138 -0.0887  0.3125
   75CHL1   H4B 6663   6.442   0.364   3.526  0.5930 -0.9153 -1.6278
   75CHL1    C5 6664   6.564   0.358   3.699  0.4840 -0.5598 -0.3089
   75CHL1    C6 6665   6.453   0.350   3.785  0.0474 -0.6241  1.2486
   75CHL1    H6 6666   6.348   0.346   3.750  0.5860  0.1492 -0.5706
   75CHL1    C7 6667   6.462   0.326   3.938 -0.0283  0.6885  0.2532
   75CHL1   H7A 6668   6.393   0.387   4.000 -0.8620  0.7668 -0.7255
   75CHL1   H7B 6669   6.425   0.226   3.970 -1.5837  0.8364 -1.0157
   75CHL1    C8 6670   6.612   0.351   3.987 -0.4947  0.0856 -0.1641
   75CHL1    H8 6671   6.636   0.460   3.994 -1.9451  0.3658  0.7827
   75CHL1   C14 6672   6.626   0.294   4.132  0.2480  0.4596 -0.1269
   75CHL1   H14 6673   6.616   0.186   4.107 -0.4561  0.3192  0.7121
   75CHL1   C15 6674   6.516   0.322   4.228  0.0200  0.0354 -0.5646
   75CHL1  H15A 6675   6.504   0.433   4.223 -0.3176  0.0148 -0.2339
   75CHL1  H15B 6676   6.427   0.266   4.193 -0.6645  0.1435  0.9261
   75CHL1   C16 6677   6.579   0.280   4.362 -0.9478  0.2130 -0.4103
   75CHL1  H16A 6678   6.567   0.356   4.442 -0.2011  1.1181 -1.1289
   75CHL1  H16B 6679   6.532   0.184   4.391 -1.0355 -0.2738 -2.0716
   75CHL1   C17 6680   6.729   0.244   4.338  0.3841 -0.1031 -0.0294
   75CHL1   H17 6681   6.729   0.134   4.324 -4.0721  0.1746 -5.2518
   75CHL1   C13 6682   6.761   0.309   4.200  0.7616 -0.6153 -0.8751
   75CHL1   C18 6683   6.782   0.464   4.215 -0.2575 -0.8962 -0.4211
   75CHL1  H18A 6684   6.778   0.524   4.122 -0.7092 -0.3854 -0.0830
   75CHL1  H18B 6685   6.704   0.511   4.279 -1.1224  0.4429 -2.3710
   75CHL1  H18C 6686   6.883   0.489   4.252 -0.2979  0.5237 -1.2104
   75CHL1   C12 6687   6.863   0.238   4.109  0.1781 -0.7420  0.2451
   75CHL1  H12A 6688   6.966   0.235   4.151  0.4447  0.4580 -0.2905
   75CHL1  H12B 6689   6.839   0.130   4.098  0.1878 -0.6021 -1.4189
   75CHL1   C11 6690   6.863   0.294   3.966  0.8178  0.4025  0.3274
   75CHL1  H11A 6691   6.916   0.392   3.964  0.5880  0.5364  0.7628
   75CHL1  H11B 6692   6.926   0.225   3.906 -2.0052 -0.2133 -2.2114
   75CHL1    C9 6693   6.719   0.286   3.900 -0.6921 -0.6841 -0.1902
   75CHL1    H9 6694   6.699   0.177   3.898 -0.9582 -0.6863  1.3904
   75CHL1   C10 6695   6.703   0.333   3.749 -0.0710  0.1205 -0.9555
   75CHL1   C19 6696   6.782   0.470   3.737  1.3376 -0.0544  0.7257
   75CHL1  H19A 6697   6.734   0.533   3.815 -1.1832 -2.8164  1.5850
   75CHL1  H19B 6698   6.886   0.444   3.764  0.2733 -3.7307  1.9492
   75CHL1  H19C 6699   6.768   0.510   3.635  0.6814 -2.1743 -0.0611
   75CHL1    C1 6700   6.778   0.222   3.668 -0.4804  0.1451  0.0867
   75CHL1   H1A 6701   6.878   0.213   3.714 -0.6981  1.5301  0.8919
   75CHL1   H1B 6702   6.737   0.121   3.688 -0.8322  0.1352 -0.6459
   75CHL1    C2 6703   6.771   0.251   3.515 -0.4096  0.4895 -0.7292
   75CHL1   H2A 6704   6.823   0.165   3.467 -1.6573 -0.3365 -0.6589
   75CHL1   H2B 6705   6.831   0.342   3.495  0.5700 -0.3123 -1.5811
   75CHL1   C20 6706   6.826   0.264   4.460  0.3628 -0.4637 -0.4545
   75CHL1   H20 6707   6.826   0.374   4.477 -0.3470 -0.3181 -1.2917
   75CHL1   C21 6708   6.978   0.227   4.420  0.1716 -0.5245  0.1525
   75CHL1  H21A 6709   7.009   0.309   4.352 -1.5878  0.0581  0.0002
   75CHL1  H21B 6710   6.974   0.130   4.366 -1.6716  0.1271 -0.9903
   75CHL1  H21C 6711   7.046   0.221   4.508 -0.8672 -1.3652  0.9209
   75CHL1   C22 6712   6.778   0.175   4.583  0.3715 -0.6438  0.4719
   75CHL1  H22A 6713   6.671   0.189   4.611  0.1494  0.6471 -0.8949
   75CHL1  H22B 6714   6.787   0.069   4.551 -2.1437 -0.9383  0.5260
   75CHL1   C23 6715   6.865   0.204   4.706 -0.0365  0.2177  0.0816
   75CHL1  H23A 6716   6.973   0.198   4.683 -0.6112 -0.2958 -3.0891
   75CHL1  H23B 6717   6.836   0.308   4.729 -0.8941 -0.3954  1.9826
   75CHL1   C24 6718   6.834   0.117   4.827 -0.2609 -0.7308 -0.2007
   75CHL1  H24A 6719   6.723   0.123   4.827 -0.3308 -1.4108 -2.0593
   75CHL1  H24B 6720   6.860   0.011   4.809 -0.9057 -1.5704  3.2328
   75CHL1   C25 6721   6.903   0.177   4.951  0.4075 -0.3654  0.3157
   75CHL1   H25 6722   7.013   0.170   4.937  0.3599  1.8926 -1.9165
   75CHL1   C26 6723   6.852   0.319   5.004 -0.7726 -0.0429 -0.2116
   75CHL1  H26A 6724   6.854   0.397   4.925 -0.9181  1.5670  1.3304
   75CHL1  H26B 6725   6.749   0.305   5.042 -0.6130 -0.2365  0.1555
   75CHL1  H26C 6726   6.918   0.349   5.088 -0.6948 -2.4380  0.6587
   75CHL1   C27 6727   6.881   0.088   5.072 -0.2281  0.4126 -0.5694
   75CHL1  H27A 6728   6.961   0.116   5.144  1.7758 -2.5287 -1.4857
   75CHL1  H27B 6729   6.781   0.108   5.116 -2.3757 -1.5632 -4.1593
   75CHL1  H27C 6730   6.888  -0.020   5.046 -2.2247 -0.2455  1.3105
   76CHL1    C3 6731   4.665   0.382   3.884 -0.5940 -0.5553  0.2913
   76CHL1    H3 6732   4.644   0.277   3.915 -3.4728 -0.1728 -0.0796
   76CHL1    O3 6733   4.693   0.401   3.747 -0.1061 -0.1233  0.3652
   76CHL1   H3' 6734   4.706   0.495   3.732  0.2122 -0.0825  0.8848
   76CHL1    C4 6735   4.558   0.480   3.925  0.4883 -0.3637 -0.0688
   76CHL1   H4A 6736   4.573   0.584   3.888  1.4239  0.6361  2.8119
   76CHL1   H4B 6737   4.466   0.451   3.870  0.2972 -0.1815  0.1536
   76CHL1    C5 6738   4.537   0.478   4.069 -0.0541  0.8655 -1.0177
   76CHL1    C6 6739   4.421   0.443   4.125 -0.4182  0.0242 -0.1400
   76CHL1    H6 6740   4.341   0.436   4.050  0.6965  2.1379 -1.6488
   76CHL1    C7 6741   4.379   0.434   4.270 -0.1088  0.2067  0.4672
   76CHL1   H7A 6742   4.282   0.486   4.285  0.3137  1.4289 -0.7861
   76CHL1   H7B 6743   4.374   0.330   4.309 -1.7481 -0.6896 -1.8862
   76CHL1    C8 6744   4.498   0.506   4.341 -0.4269  0.6613 -0.7588
   76CHL1    H8 6745   4.485   0.616   4.330 -1.6881  0.8761  2.0581
   76CHL1   C14 6746   4.477   0.496   4.496 -0.6753  0.6032  0.0323
   76CHL1   H14 6747   4.495   0.387   4.514  1.7748  1.3452  2.8425
   76CHL1   C15 6748   4.345   0.533   4.554  0.0930  0.5149 -0.4375
   76CHL1  H15A 6749   4.304   0.625   4.508 -0.3226  0.3190 -0.4623
   76CHL1  H15B 6750   4.271   0.454   4.529 -1.1870  1.7241 -0.6158
   76CHL1   C16 6751   4.383   0.540   4.706 -0.4416  0.4258 -0.0804
   76CHL1  H16A 6752   4.339   0.626   4.762  0.4890 -2.0162  5.0225
   76CHL1  H16B 6753   4.346   0.454   4.766  1.4370  0.7119  1.6056
   76CHL1   C17 6754   4.537   0.527   4.724 -0.0094  0.3346  0.1807
   76CHL1   H17 6755   4.559   0.420   4.745  1.2089  0.8553  1.7131
   76CHL1   C13 6756   4.585   0.560   4.585  0.4116  0.7315 -0.1661
   76CHL1   C18 6757   4.592   0.708   4.565  0.7395 -0.2431 -0.1365
   76CHL1  H18A 6758   4.507   0.771   4.597  1.0948  0.7307 -1.0538
   76CHL1  H18B 6759   4.676   0.744   4.628 -0.5404 -0.7151  1.9504
   76CHL1  H18C 6760   4.627   0.731   4.462 -1.0018 -1.1708 -0.9872
   76CHL1   C12 6761   4.721   0.493   4.541 -0.1467 -0.3402  0.8801
   76CHL1  H12A 6762   4.814   0.515   4.598  0.3023 -0.2020  0.1015
   76CHL1  H12B 6763   4.707   0.383   4.556  2.5730 -0.6276  2.0106
   76CHL1   C11 6764   4.754   0.512   4.391  0.1036  0.4199 -0.3972
   76CHL1  H11A 6765   4.777   0.621   4.383  1.5136  0.0700 -1.2652
   76CHL1  H11B 6766   4.842   0.449   4.369 -1.2299 -2.1416  1.1246
   76CHL1    C9 6767   4.637   0.469   4.295 -0.1805  0.8057 -0.0625
   76CHL1    H9 6768   4.639   0.359   4.286  3.3319  0.8038 -0.7325
   76CHL1   C10 6769   4.659   0.500   4.154  0.1728 -0.1689  0.1276
   76CHL1   C19 6770   4.685   0.654   4.142 -0.4197 -0.5680 -0.1044
   76CHL1  H19A 6771   4.689   0.678   4.034  0.5152  2.0896  0.4482
   76CHL1  H19B 6772   4.605   0.710   4.195  0.9847  0.7688  0.6802
   76CHL1  H19C 6773   4.785   0.682   4.182  1.1045 -3.8452 -1.2870
   76CHL1    C1 6774   4.787   0.418   4.097 -0.9005 -0.4411 -0.1237
   76CHL1   H1A 6775   4.861   0.484   4.147 -2.3116  1.2988 -0.2437
   76CHL1   H1B 6776   4.785   0.313   4.132  1.3709 -0.5210 -0.1139
   76CHL1    C2 6777   4.799   0.426   3.945  0.3291  0.3291 -0.8514
   76CHL1   H2A 6778   4.884   0.360   3.919 -1.1198 -1.3049 -1.6932
   76CHL1   H2B 6779   4.830   0.531   3.925  0.3396  0.3616 -0.6605
   76CHL1   C20 6780   4.606   0.592   4.843 -0.2489 -0.1537  0.0941
   76CHL1   H20 6781   4.596   0.703   4.835  0.7251 -0.0042  0.8006
   76CHL1   C21 6782   4.756   0.564   4.862 -0.2043  0.3063  0.2562
   76CHL1  H21A 6783   4.769   0.454   4.860  0.9817  0.3011  2.8672
   76CHL1  H21B 6784   4.802   0.604   4.956  1.1246 -1.9544  0.6391
   76CHL1  H21C 6785   4.813   0.598   4.773  0.7805 -2.4048 -0.2358
   76CHL1   C22 6786   4.519   0.550   4.966 -0.2520  0.5754  0.5341
   76CHL1  H22A 6787   4.417   0.592   4.948 -0.6659 -0.9403 -0.8289
   76CHL1  H22B 6788   4.511   0.440   4.972  1.5206  0.3275 -0.8341
   76CHL1   C23 6789   4.579   0.592   5.106  0.8044 -0.5141 -0.3921
   76CHL1  H23A 6790   4.672   0.540   5.135  0.1103 -1.1388  0.7966
   76CHL1  H23B 6791   4.591   0.702   5.110 -0.9299 -0.3141  0.3188
   76CHL1   C24 6792   4.469   0.566   5.214 -0.4938  0.3911 -0.3464
   76CHL1  H24A 6793   4.392   0.645   5.210 -1.0964 -0.1966 -0.7048
   76CHL1  H24B 6794   4.429   0.463   5.200  0.8621 -0.1348 -0.4847
   76CHL1   C25 6795   4.544   0.568   5.354  0.0341  0.2768  0.2208
   76CHL1   H25 6796   4.631   0.499   5.344  0.1866  0.3352  1.1094
   76CHL1   C26 6797   4.596   0.709   5.377  0.0676  0.2797  1.6425
   76CHL1  H26A 6798   4.629   0.713   5.483  0.3000  1.2567  1.5435
   76CHL1  H26B 6799   4.694   0.720   5.326  0.2086 -1.1933  1.5552
   76CHL1  H26C 6800   4.524   0.791   5.356 -1.0172 -1.4288 -2.1456
   76CHL1   C27 6801   4.454   0.525   5.471 -0.4614 -0.0628 -0.7849
   76CHL1  H27A 6802   4.378   0.605   5.484  1.6821  1.8685  0.9596
   76CHL1  H27B 6803   4.410   0.425   5.450  0.3178 -0.8687  1.1110
   76CHL1  H27C 6804   4.525   0.507   5.555  0.9483 -2.5365 -2.3697
   77SOPE     N 6805   2.961   0.093   7.666  0.9086 -0.3589 -0.3289
   77SOPE   HN1 6806   3.052   0.049   7.692  1.9028  2.0417  0.5706
   77SOPE   HN2 6807   2.983   0.190   7.635 -0.0971  1.0301  2.8367
   77SOPE   HN3 6808   2.903   0.095   7.752  1.3792  2.1622  0.0120
   77SOPE   C12 6809   2.893   0.018   7.549 -0.2339 -0.0037 -0.5899
   77SOPE  H12A 6810   2.884  -0.090   7.572  4.1371 -0.2528  0.7460
   77SOPE  H12B 6811   2.959   0.020   7.460  0.6636 -1.3367  0.0104
   77SOPE   C11 6812   2.773   0.098   7.490  0.7313 -0.2725  0.6503
   77SOPE  H11A 6813   2.689   0.091   7.562  0.1089 -0.8093 -0.1109
   77SOPE  H11B 6814   2.730   0.054   7.397  1.0458  0.6586  0.0559
   77SOPE     P 6815   2.747   0.328   7.373  0.3721 -0.0965  0.2754
   77SOPE   O13 6816   2.808   0.458   7.411 -0.3776  0.1116  0.0155
   77SOPE   O14 6817   2.598   0.330   7.388  0.4373 -0.6314 -0.0248
   77SOPE   O12 6818   2.808   0.234   7.480  0.2543  0.2027 -0.5346
   77SOPE   O11 6819   2.786   0.284   7.227 -0.1086 -0.0472 -0.1278
   77SOPE    C1 6820   2.895   0.195   7.200  0.1302  0.3689 -0.0823
   77SOPE    HA 6821   2.863   0.091   7.175  0.0658 -0.1237  1.8556
   77SOPE    HB 6822   2.970   0.194   7.283  2.0025  1.6514 -1.6734
   77SOPE    C2 6823   2.985   0.241   7.081 -0.4795 -0.3319  0.1894
   77SOPE    HS 6824   3.034   0.327   7.132  0.9228 -0.8942 -0.1787
   77SOPE   O21 6825   2.903   0.280   6.967 -0.4522 -1.0621  0.2871
   77SOPE   C21 6826   2.890   0.409   6.952 -0.3696 -0.6778  1.0275
   77SOPE   O22 6827   2.920   0.495   7.029 -0.0364 -0.6478 -0.0554
   77SOPE   C22 6828   2.845   0.428   6.806 -0.2239 -0.0914 -0.3300
   77SOPE   H2R 6829   2.753   0.372   6.779 -1.8144  2.4486 -0.5035
   77SOPE   H2S 6830   2.931   0.399   6.742  0.2836 -0.2118  0.3933
   77SOPE    C3 6831   3.085   0.133   7.038 -0.1965  1.0904 -0.4807
   77SOPE    HX 6832   3.032   0.042   7.003  2.1251  0.1815 -1.8522
   77SOPE    HY 6833   3.144   0.102   7.127 -1.5599  0.5446  0.2652
   77SOPE   O31 6834   3.180   0.177   6.942  0.0247  0.0583  0.2775
   77SOPE   C31 6835   3.142   0.164   6.818  0.1342  0.3595 -0.1218
   77SOPE   O32 6836   3.042   0.113   6.776  0.0592  1.0061  0.1078
   77SOPE   C32 6837   3.251   0.223   6.729 -0.7551 -1.0602 -0.0997
   77SOPE   H2X 6838   3.350   0.181   6.757  0.1237  2.5918  3.1407
   77SOPE   H2Y 6839   3.252   0.329   6.761 -1.6069 -1.1528  0.2568
   77SOPE   C23 6840   2.807   0.581   6.791 -0.1252 -0.0186 -0.5187
   77SOPE   H3R 6841   2.897   0.642   6.770  0.9714 -0.5817  2.1389
   77SOPE   H3S 6842   2.759   0.609   6.887  1.2795 -1.2613  0.6082
   77SOPE   C24 6843   2.729   0.606   6.662 -0.0319 -0.4291  0.2373
   77SOPE   H4R 6844   2.759   0.533   6.583  3.4957  2.3913 -1.2778
   77SOPE   H4S 6845   2.626   0.575   6.694 -0.2205  0.2230  0.2646
   77SOPE   C25 6846   2.721   0.746   6.607 -0.0026  0.3558 -0.4515
   77SOPE   H5R 6847   2.686   0.812   6.689 -0.2230  0.2564 -0.4646
   77SOPE   H5S 6848   2.827   0.767   6.578  0.9752 -2.2584  0.8293
   77SOPE   C26 6849   2.617   0.773   6.500 -0.0157  0.1979  0.4970
   77SOPE   H6R 6850   2.519   0.721   6.512  0.4273 -0.7271  0.2037
   77SOPE   H6S 6851   2.591   0.881   6.503  1.3074  0.6343 -1.6501
   77SOPE   C27 6852   2.670   0.745   6.357 -0.2711 -0.2318  0.5065
   77SOPE   H7R 6853   2.764   0.804   6.367 -1.8270  2.7351 -0.8563
   77SOPE   H7S 6854   2.692   0.637   6.346  1.8943  0.4293 -3.1224
   77SOPE   C28 6855   2.591   0.806   6.242  0.1537  0.5175  0.1586
   77SOPE   H8R 6856   2.563   0.912   6.257 -1.2220  0.4279 -1.5352
   77SOPE   H8S 6857   2.650   0.786   6.150  0.3130  0.0422  0.3587
   77SOPE   C29 6858   2.455   0.739   6.222 -0.8931  0.0946 -0.2760
   77SOPE   H91 6859   2.393   0.720   6.310 -0.3282  0.8801  0.3002
   77SOPE  C210 6860   2.393   0.702   6.110 -0.1479 -0.1240  0.0845
   77SOPE  H101 6861   2.291   0.662   6.114  0.3294 -1.4100 -0.2537
   77SOPE  C211 6862   2.458   0.728   5.973  0.0668 -0.1046  0.1985
   77SOPE  H11R 6863   2.532   0.646   5.957  0.7973  0.2989  1.3345
   77SOPE  H11S 6864   2.516   0.821   5.984  0.2593 -0.3429  1.3348
   77SOPE  C212 6865   2.356   0.728   5.854 -0.4687  0.1719 -0.1836
   77SOPE  H12R 6866   2.297   0.821   5.868  1.0449  0.9247  1.6055
   77SOPE  H12S 6867   2.291   0.639   5.867  1.5493 -1.1395  1.8434
   77SOPE  C213 6868   2.404   0.725   5.708 -0.0099  0.5328 -0.3095
   77SOPE  H13R 6869   2.446   0.826   5.691 -0.5680  1.1043  1.4706
   77SOPE  H13S 6870   2.322   0.696   5.638  0.3612  1.5518 -1.1915
   77SOPE  C214 6871   2.514   0.624   5.676  0.5802 -0.4016  0.3440
   77SOPE  H14R 6872   2.467   0.529   5.708 -0.7737 -0.2855 -1.1759
   77SOPE  H14S 6873   2.601   0.647   5.741  0.4556  2.7075 -0.4189
   77SOPE  C215 6874   2.552   0.608   5.524 -0.6824  0.5120  0.6573
   77SOPE  H15R 6875   2.608   0.697   5.488 -0.8204  0.2291 -0.2690
   77SOPE  H15S 6876   2.454   0.602   5.472 -0.4078 -1.4121  0.3175
   77SOPE  C216 6877   2.631   0.484   5.487  0.0658 -0.1885 -0.4504
   77SOPE  H16R 6878   2.560   0.400   5.500  0.5177 -0.3723  1.1653
   77SOPE  H16S 6879   2.712   0.467   5.561 -2.0431 -2.9170  1.4211
   77SOPE  C217 6880   2.684   0.496   5.342 -0.0995  0.2222  0.5727
   77SOPE  H17R 6881   2.753   0.582   5.328 -0.5256  0.3972 -0.5790
   77SOPE  H17S 6882   2.599   0.498   5.271  0.0739 -0.5116  0.3338
   77SOPE  C218 6883   2.770   0.368   5.309  0.4292  0.0595 -0.5523
   77SOPE  H18R 6884   2.698   0.285   5.295 -1.1947  1.5246 -1.3802
   77SOPE  H18S 6885   2.836   0.341   5.394  0.3818 -0.3612 -0.6489
   77SOPE  H18T 6886   2.821   0.386   5.212  1.4183  1.2290  0.1559
   77SOPE   C33 6887   3.232   0.212   6.579 -0.0816 -0.1572 -0.5038
   77SOPE   H3X 6888   3.143   0.273   6.553 -1.5244 -1.7547  0.5093
   77SOPE   H3Y 6889   3.221   0.103   6.561 -0.2593 -0.4191  1.0178
   77SOPE   C34 6890   3.344   0.263   6.495 -0.3802 -0.5315 -0.2182
   77SOPE   H4X 6891   3.444   0.218   6.515 -0.2343  0.5978  1.7966
   77SOPE   H4Y 6892   3.359   0.363   6.540 -2.0769 -1.3423  2.3845
   77SOPE   C35 6893   3.319   0.273   6.345 -0.0120 -0.4864 -0.8071
   77SOPE   H5X 6894   3.412   0.302   6.292 -0.0741  1.1574 -0.0833
   77SOPE   H5Y 6895   3.243   0.354   6.338  0.5244  0.8579  4.2796
   77SOPE   C36 6896   3.270   0.142   6.277 -0.5040 -0.7894  0.2672
   77SOPE   H6X 6897   3.181   0.103   6.332 -2.9162  0.8199 -2.2626
   77SOPE   H6Y 6898   3.355   0.072   6.293 -0.7235 -0.9641  0.6725
   77SOPE   C37 6899   3.244   0.154   6.119 -0.4428  0.6137  0.1629
   77SOPE   H7X 6900   3.280   0.252   6.083 -0.2039  0.1130 -0.9919
   77SOPE   H7Y 6901   3.139   0.149   6.082 -0.5140 -0.0227  0.4411
   77SOPE   C38 6902   3.348   0.067   6.046 -0.1280 -0.3905 -0.0510
   77SOPE   H8X 6903   3.318  -0.040   6.052  0.3324 -0.4798  1.0781
   77SOPE   H8Y 6904   3.450   0.074   6.091 -0.8976 -0.6879  1.8363
   77SOPE   C39 6905   3.375   0.112   5.894  0.2318  0.4289  0.6630
   77SOPE   H9X 6906   3.410   0.218   5.895  0.2523  0.4230  1.0937
   77SOPE   H9Y 6907   3.281   0.100   5.836  0.7153  1.3191 -0.3271
   77SOPE  C310 6908   3.474   0.016   5.825 -0.1778 -0.0527 -0.0383
   77SOPE  H10X 6909   3.438  -0.089   5.822  0.7008 -0.4978  2.8236
   77SOPE  H10Y 6910   3.567   0.018   5.885  0.1385  2.2181 -0.5016
   77SOPE  C311 6911   3.516   0.051   5.681 -0.6470  0.1028  0.1959
   77SOPE  H11X 6912   3.592  -0.028   5.660 -0.8698 -0.4063  1.2193
   77SOPE  H11Y 6913   3.568   0.149   5.682 -1.4120  0.5130 -0.1786
   77SOPE  C312 6914   3.404   0.043   5.575 -0.0895 -0.0338 -0.4739
   77SOPE  H12X 6915   3.350   0.140   5.579  0.3290  0.1666  0.5663
   77SOPE  H12Y 6916   3.337  -0.037   5.613 -0.2529 -0.7386 -2.1799
   77SOPE  C313 6917   3.443   0.019   5.433  0.1008 -0.1717 -0.5713
   77SOPE  H13X 6918   3.479  -0.084   5.416 -3.3041 -1.7804  1.0154
   77SOPE  H13Y 6919   3.510   0.102   5.401  2.9742 -0.6735  3.4187
   77SOPE  C314 6920   3.303   0.020   5.362  0.1220 -0.4014  0.0142
   77SOPE  H14X 6921   3.240   0.110   5.377  1.1565  0.2395  0.6998
   77SOPE  H14Y 6922   3.252  -0.066   5.411  1.2589 -1.8366 -1.2396
   77SOPE  C315 6923   3.307  -0.016   5.211 -0.9484  0.5946 -0.4439
   77SOPE  H15X 6924   3.355   0.058   5.144 -0.1283  0.5984  0.1294
   77SOPE  H15Y 6925   3.204  -0.036   5.173 -0.4428 -0.8563 -1.1089
   77SOPE  C316 6926   3.392  -0.145   5.187 -0.6337  0.0784 -0.4685
   77SOPE  H16X 6927   3.383  -0.224   5.265 -0.6090  1.0829  0.5694
   77SOPE  H16Y 6928   3.500  -0.121   5.179 -1.0026  1.3647 -1.9553
   77SOPE  C317 6929   3.354  -0.216   5.058 -0.0152 -0.2327  0.0853
   77SOPE  H17X 6930   3.414  -0.305   5.029 -1.9089 -1.7468  0.6282
   77SOPE  H17Y 6931   3.366  -0.138   4.980 -0.6233  2.3809  2.4811
   77SOPE  C318 6932   3.208  -0.266   5.041  0.1058 -0.1889  0.1063
   77SOPE  H18X 6933   3.171  -0.333   5.121  1.2834 -1.7928 -0.6495
   77SOPE  H18Y 6934   3.201  -0.322   4.945 -3.4077  0.3393 -0.0587
   77SOPE  H18Z 6935   3.138  -0.180   5.043  2.2292  1.6272  0.3303
   78SOPE     N 6936   1.507   6.594   7.486  0.5552  0.3194 -0.3711
   78SOPE   HN1 6937   1.480   6.494   7.500  0.4064  0.1182 -1.9554
   78SOPE   HN2 6938   1.413   6.632   7.509 -0.9673 -2.9868 -0.5273
   78SOPE   HN3 6939   1.539   6.607   7.388  0.8954  1.4458 -0.1288
   78SOPE   C12 6940   1.619   6.644   7.578 -1.0329  0.3151  0.2780
   78SOPE  H12A 6941   1.575   6.634   7.680 -0.8801 -2.4581  0.1692
   78SOPE  H12B 6942   1.642   6.750   7.557 -1.2223  0.3741  0.3683
   78SOPE   C11 6943   1.747   6.548   7.584 -0.0137 -0.8726 -0.2055
   78SOPE  H11A 6944   1.809   6.573   7.672 -1.8746  0.7995  0.6958
   78SOPE  H11B 6945   1.817   6.560   7.498  1.3303  2.0581  1.1458
   78SOPE     P 6946   1.807   6.298   7.636 -0.1112  0.3088 -0.0712
   78SOPE   O13 6947   1.745   6.199   7.719  0.2367  0.3224 -1.0895
   78SOPE   O14 6948   1.927   6.363   7.697 -0.6531  0.4539  0.4279
   78SOPE   O12 6949   1.703   6.413   7.610  0.5112 -0.2645  0.2016
   78SOPE   O11 6950   1.833   6.245   7.493  0.0459 -0.0581  0.1957
   78SOPE    C1 6951   1.747   6.271   7.378  0.2535  0.0045  0.2778
   78SOPE    HA 6952   1.639   6.289   7.396  0.1547 -0.2290 -0.0527
   78SOPE    HB 6953   1.746   6.172   7.327 -0.6592 -0.7609  1.7236
   78SOPE    C2 6954   1.806   6.371   7.278  0.3869 -0.6351 -0.3932
   78SOPE    HS 6955   1.810   6.474   7.320 -0.1409 -0.4518 -0.7778
   78SOPE   O21 6956   1.731   6.362   7.152  0.5711 -0.4287 -0.9713
   78SOPE   C21 6957   1.647   6.457   7.144  0.4608 -0.2043 -0.2368
   78SOPE   O22 6958   1.623   6.540   7.231  0.2076  0.3259  0.0479
   78SOPE   C22 6959   1.575   6.457   7.012 -0.2393  0.3896  0.4084
   78SOPE   H2R 6960   1.484   6.396   7.029  0.7197 -1.6777 -1.4070
   78SOPE   H2S 6961   1.637   6.421   6.927  1.7839  2.0953  1.0699
   78SOPE    C3 6962   1.950   6.322   7.243  0.2875  0.0408 -0.8738
   78SOPE    HX 6963   1.950   6.211   7.240 -0.7018  0.0348 -1.0680
   78SOPE    HY 6964   2.014   6.350   7.329  1.6827 -0.9378 -1.5567
   78SOPE   O31 6965   2.009   6.378   7.123  0.0160 -0.6377  0.1723
   78SOPE   C31 6966   2.124   6.435   7.129  0.3172  0.2392  0.1169
   78SOPE   O32 6967   2.193   6.442   7.230  0.2662  0.4350  0.0946
   78SOPE   C32 6968   2.162   6.486   7.000  0.2925 -0.8129 -0.3292
   78SOPE   H2X 6969   2.114   6.578   6.961  2.2518  0.1003 -0.6839
   78SOPE   H2Y 6970   2.129   6.410   6.926 -2.1639 -2.4305  2.2047
   78SOPE   C23 6971   1.510   6.600   6.979  0.0305 -0.6389 -0.8164
   78SOPE   H3R 6972   1.592   6.674   6.967 -1.4825  1.4475  0.8190
   78SOPE   H3S 6973   1.451   6.633   7.068  3.1427  0.4438  0.9983
   78SOPE   C24 6974   1.416   6.595   6.856 -0.5944  0.6459 -0.5444
   78SOPE   H4R 6975   1.337   6.517   6.864 -0.5499  0.3843 -2.2066
   78SOPE   H4S 6976   1.369   6.696   6.866 -1.6475  0.2746 -1.5036
   78SOPE   C25 6977   1.492   6.571   6.729  0.2678  0.3246 -0.0183
   78SOPE   H5R 6978   1.574   6.646   6.720 -0.3235  0.9055 -0.6318
   78SOPE   H5S 6979   1.541   6.471   6.729 -0.1859  0.0652 -1.9737
   78SOPE   C26 6980   1.424   6.594   6.597 -0.2132  0.4350  0.0909
   78SOPE   H6R 6981   1.484   6.538   6.522  1.0545 -0.2154  1.5532
   78SOPE   H6S 6982   1.317   6.561   6.591 -0.1828  0.5555 -1.5599
   78SOPE   C27 6983   1.419   6.744   6.563  0.5371 -0.1223 -0.4829
   78SOPE   H7R 6984   1.354   6.785   6.643 -1.1345 -0.9174 -1.3944
   78SOPE   H7S 6985   1.516   6.795   6.581 -0.0736  0.7386  0.4886
   78SOPE   C28 6986   1.362   6.761   6.428  0.0536 -0.3761 -0.4612
   78SOPE   H8R 6987   1.255   6.733   6.427 -0.3442  1.0022  0.6092
   78SOPE   H8S 6988   1.358   6.871   6.413 -0.7067  0.2200  3.1813
   78SOPE   C29 6989   1.439   6.696   6.314  0.4097 -0.7046  0.1246
   78SOPE   H91 6990   1.549   6.700   6.322  0.4332 -2.0424  0.6783
   78SOPE  C210 6991   1.378   6.655   6.199 -0.3957 -0.1140  0.0297
   78SOPE  H101 6992   1.439   6.610   6.120 -1.7407 -1.2329 -0.4062
   78SOPE  C211 6993   1.232   6.649   6.170 -0.1333  0.0472 -0.2062
   78SOPE  H11R 6994   1.185   6.749   6.179  2.6792  1.4008  0.9830
   78SOPE  H11S 6995   1.184   6.601   6.258  1.0531 -0.6687  0.0729
   78SOPE  C212 6996   1.186   6.586   6.042 -0.1224 -0.1766 -0.4591
   78SOPE  H12R 6997   1.075   6.585   6.040 -0.1939  1.6132  0.8709
   78SOPE  H12S 6998   1.209   6.477   6.037  0.7893  0.0300 -1.0223
   78SOPE  C213 6999   1.235   6.672   5.925 -0.4780 -0.1180  0.5287
   78SOPE  H13R 7000   1.342   6.659   5.898 -0.3923  0.8025  0.3926
   78SOPE  H13S 7001   1.231   6.781   5.945 -0.8005 -0.1799  0.8055
   78SOPE  C214 7002   1.170   6.624   5.792  0.1873 -0.1973  0.5958
   78SOPE  H14R 7003   1.060   6.627   5.811 -0.1903 -5.0943  0.6469
   78SOPE  H14S 7004   1.193   6.519   5.762 -0.3892 -0.0476 -0.4133
   78SOPE  C215 7005   1.192   6.727   5.675  0.9545 -0.5509  0.0348
   78SOPE  H15R 7006   1.157   6.828   5.707 -1.1868 -0.8897 -1.0490
   78SOPE  H15S 7007   1.137   6.686   5.588  1.6822 -3.1358  0.7130
   78SOPE  C216 7008   1.337   6.750   5.620  0.3969 -0.3284 -0.3113
   78SOPE  H16R 7009   1.398   6.769   5.711  0.2400 -1.6652  0.0855
   78SOPE  H16S 7010   1.332   6.849   5.569 -0.1168 -0.7668 -1.1185
   78SOPE  C217 7011   1.392   6.644   5.531 -0.0313 -0.1344  0.1430
   78SOPE  H17R 7012   1.335   6.655   5.436  0.7134  0.2924 -0.2534
   78SOPE  H17S 7013   1.358   6.545   5.568 -0.4206  0.1353  0.5117
   78SOPE  C218 7014   1.535   6.665   5.500  0.0284  0.3811  0.0850
   78SOPE  H18R 7015   1.545   6.762   5.447 -2.3135  0.3464 -0.5418
   78SOPE  H18S 7016   1.574   6.590   5.428  0.3636 -0.6703  1.3216
   78SOPE  H18T 7017   1.600   6.663   5.591 -1.3188 -0.1278  1.0749
   78SOPE   C33 7018   2.310   6.500   6.986  0.0215  0.4940  0.2966
   78SOPE   H3X 7019   2.358   6.404   7.013 -0.1442 -0.3667 -2.2563
   78SOPE   H3Y 7020   2.356   6.569   7.060  1.1732  0.4067 -0.3216
   78SOPE   C34 7021   2.352   6.535   6.836  0.5805  0.4208  0.8575
   78SOPE   H4X 7022   2.461   6.537   6.819  0.6761 -1.3150  1.0259
   78SOPE   H4Y 7023   2.307   6.634   6.817 -0.3671 -0.6205 -3.0994
   78SOPE   C35 7024   2.289   6.438   6.723  0.1129 -0.0604 -0.2154
   78SOPE   H5X 7025   2.178   6.434   6.724  0.1215 -0.8058  1.2720
   78SOPE   H5Y 7026   2.329   6.337   6.746  2.3508  0.9946  0.8970
   78SOPE   C36 7027   2.327   6.470   6.580 -0.0743 -0.0386  0.1124
   78SOPE   H6X 7028   2.438   6.468   6.576 -0.0997 -1.1490 -0.6372
   78SOPE   H6Y 7029   2.279   6.565   6.549 -0.6486 -0.6483 -0.9622
   78SOPE   C37 7030   2.269   6.356   6.487  0.3766 -0.2638  0.3787
   78SOPE   H7X 7031   2.159   6.367   6.485  0.4653  1.0916  1.6008
   78SOPE   H7Y 7032   2.293   6.252   6.518 -3.1289 -1.7322 -1.2706
   78SOPE   C38 7033   2.321   6.360   6.343 -0.2638  0.2466  0.0751
   78SOPE   H8X 7034   2.284   6.267   6.294 -0.2842  0.2329  0.1172
   78SOPE   H8Y 7035   2.431   6.354   6.336 -0.2289 -1.8814  1.4715
   78SOPE   C39 7036   2.273   6.489   6.273 -0.1677  0.4815 -0.3275
   78SOPE   H9X 7037   2.317   6.574   6.330  2.3978 -2.4403  2.4037
   78SOPE   H9Y 7038   2.162   6.492   6.272 -0.1984  4.4237 -2.0195
   78SOPE  C310 7039   2.315   6.487   6.129  0.1979  0.0726  1.0901
   78SOPE  H10X 7040   2.419   6.459   6.105 -0.4966 -0.3152 -1.8760
   78SOPE  H10Y 7041   2.284   6.588   6.094 -0.8777 -1.0720 -1.5565
   78SOPE  C311 7042   2.245   6.384   6.037  0.1874 -0.2996  0.2959
   78SOPE  H11X 7043   2.144   6.353   6.072  0.3167 -3.3241 -1.7014
   78SOPE  H11Y 7044   2.301   6.289   6.043  0.0085 -0.6193 -2.1611
   78SOPE  C312 7045   2.212   6.429   5.897  0.5239 -0.6190  0.4122
   78SOPE  H12X 7046   2.305   6.484   5.869  1.0715 -0.3156  2.6257
   78SOPE  H12Y 7047   2.129   6.502   5.890  3.3082  2.6362 -1.7428
   78SOPE  C313 7048   2.201   6.312   5.804 -0.2044  0.1678  0.0622
   78SOPE  H13X 7049   2.131   6.245   5.859  0.2844 -1.3166 -1.0618
   78SOPE  H13Y 7050   2.296   6.259   5.779 -1.2342 -1.1818 -1.1661
   78SOPE  C314 7051   2.141   6.362   5.678  0.6327  0.0155 -0.4230
   78SOPE  H14X 7052   2.206   6.406   5.599  0.9190 -0.2625 -0.3441
   78SOPE  H14Y 7053   2.071   6.447   5.692  1.1095  0.4833 -0.8496
   78SOPE  C315 7054   2.074   6.242   5.617 -0.0886  0.2253  0.1532
   78SOPE  H15X 7055   1.989   6.212   5.682 -0.3918 -0.8254 -0.7097
   78SOPE  H15Y 7056   2.152   6.163   5.614 -0.5664 -0.4162  2.4409
   78SOPE  C316 7057   2.030   6.269   5.467 -0.3541  0.7220 -0.2751
   78SOPE  H16X 7058   1.987   6.180   5.417 -2.6551  2.1392 -0.9528
   78SOPE  H16Y 7059   2.131   6.291   5.425  0.0760 -1.6596 -0.6754
   78SOPE  C317 7060   1.935   6.392   5.444 -0.5346  0.6920 -0.4900
   78SOPE  H17X 7061   1.984   6.484   5.484  0.5417 -0.4201  0.8371
   78SOPE  H17Y 7062   1.840   6.381   5.500  0.8322 -0.3551  1.7645
   78SOPE  C318 7063   1.907   6.408   5.299  0.5362 -0.2304 -0.1254
   78SOPE  H18X 7064   1.872   6.510   5.271  2.3271  0.4914  0.1268
   78SOPE  H18Y 7065   1.831   6.334   5.269  0.4688 -1.2405  2.3289
   78SOPE  H18Z 7066   2.003   6.394   5.245  1.3243  0.2188  1.1146
   79SOPE     N 7067   1.143   3.799   7.718  0.5277  0.4594 -0.1864
   79SOPE   HN1 7068   1.198   3.843   7.794  1.0234 -0.2818 -0.1025
   79SOPE   HN2 7069   1.041   3.818   7.712  0.8386  1.7757 -1.5547
   79SOPE   HN3 7070   1.160   3.696   7.713  1.3356  0.6257 -1.1112
   79SOPE   C12 7071   1.191   3.858   7.592  0.7413 -0.1567 -0.2470
   79SOPE  H12A 7072   1.154   3.808   7.500 -1.0305 -0.2241  0.4561
   79SOPE  H12B 7073   1.301   3.845   7.582  0.4409 -0.8381 -3.8577
   79SOPE   C11 7074   1.146   4.003   7.586 -0.0485 -0.3268  0.1984
   79SOPE  H11A 7075   1.037   4.018   7.571  0.0669  0.3473  0.0194
   79SOPE  H11B 7076   1.200   4.043   7.498 -0.3188  0.8727  0.5612
   79SOPE     P 7077   1.330   4.156   7.703 -0.7862  0.0364  0.2927
   79SOPE   O13 7078   1.443   4.057   7.703 -0.1114  0.6966  0.1562
   79SOPE   O14 7079   1.321   4.250   7.819 -0.3248 -0.3245 -0.1432
   79SOPE   O12 7080   1.196   4.070   7.698  0.3690 -0.3910 -0.5454
   79SOPE   O11 7081   1.321   4.236   7.569 -0.6559  0.1903 -0.8255
   79SOPE    C1 7082   1.416   4.341   7.539 -0.0668 -0.6794 -0.1004
   79SOPE    HA 7083   1.517   4.322   7.581 -0.7361  0.1402  1.9936
   79SOPE    HB 7084   1.386   4.439   7.582 -0.7569 -0.4018 -1.1883
   79SOPE    C2 7085   1.422   4.370   7.382 -0.3057 -0.5411  0.1561
   79SOPE    HS 7086   1.517   4.418   7.351 -0.6585 -0.6687 -1.1792
   79SOPE   O21 7087   1.316   4.467   7.359  0.2932 -0.1265  0.4724
   79SOPE   C21 7088   1.321   4.520   7.240  0.0547  0.0604  0.5460
   79SOPE   O22 7089   1.417   4.526   7.166  0.2742  0.5946  0.2848
   79SOPE   C22 7090   1.190   4.594   7.217  0.2587 -0.0346  0.4414
   79SOPE   H2R 7091   1.119   4.571   7.300 -0.4074 -0.8807 -0.3486
   79SOPE   H2S 7092   1.147   4.546   7.127  1.5043  0.9114 -0.6948
   79SOPE    C3 7093   1.405   4.234   7.304 -0.3547 -0.6917  0.4000
   79SOPE    HX 7094   1.302   4.202   7.330 -2.0523  3.5843 -0.1557
   79SOPE    HY 7095   1.493   4.182   7.346 -0.2397 -0.5795  0.3004
   79SOPE   O31 7096   1.421   4.246   7.160  0.4363  0.0779 -0.4573
   79SOPE   C31 7097   1.309   4.241   7.089  0.4868  0.5180  0.0844
   79SOPE   O32 7098   1.197   4.214   7.128 -0.5005 -0.5627 -0.1735
   79SOPE   C32 7099   1.348   4.250   6.938 -0.2410 -0.9077 -0.1068
   79SOPE   H2X 7100   1.393   4.154   6.905  1.7021 -0.5372  1.2712
   79SOPE   H2Y 7101   1.424   4.332   6.940 -1.1606 -0.0227 -0.5280
   79SOPE   C23 7102   1.222   4.743   7.185 -0.0828 -0.0055 -0.1029
   79SOPE   H3R 7103   1.302   4.768   7.259 -0.4170 -2.3469  1.1685
   79SOPE   H3S 7104   1.126   4.793   7.210 -0.3653  0.1355 -1.4101
   79SOPE   C24 7105   1.256   4.784   7.035  0.2584 -0.0575 -0.3399
   79SOPE   H4R 7106   1.327   4.869   7.034  0.9825 -0.6203 -2.2645
   79SOPE   H4S 7107   1.298   4.689   6.995 -4.2791 -2.1467 -0.8309
   79SOPE   C25 7108   1.130   4.821   6.964 -0.0373 -0.0776  0.1646
   79SOPE   H5R 7109   1.053   4.751   7.003  0.9562 -2.1682 -1.4100
   79SOPE   H5S 7110   1.098   4.923   6.995  1.4053  1.1432 -2.0791
   79SOPE   C26 7111   1.138   4.799   6.811  0.0999 -0.3242  0.2501
   79SOPE   H6R 7112   1.204   4.880   6.772 -0.6885 -0.0291 -0.4999
   79SOPE   H6S 7113   1.190   4.704   6.787 -1.2747 -0.9414 -0.4452
   79SOPE   C27 7114   0.994   4.831   6.747 -0.2069 -0.0880  0.0857
   79SOPE   H7R 7115   0.906   4.792   6.803 -0.4171 -1.4682 -1.1253
   79SOPE   H7S 7116   1.002   4.942   6.749 -0.8257  0.0390 -1.8951
   79SOPE   C28 7117   0.992   4.783   6.597 -0.1356  0.3466  0.5177
   79SOPE   H8R 7118   0.980   4.673   6.593 -1.5226  0.4376  1.3694
   79SOPE   H8S 7119   0.898   4.819   6.549 -0.5662 -1.3703  0.0179
   79SOPE   C29 7120   1.111   4.822   6.511 -0.2605 -0.8100 -0.6519
   79SOPE   H91 7121   1.205   4.772   6.537  1.0454  2.2058  0.8369
   79SOPE  C210 7122   1.123   4.914   6.417  0.6593  0.2131  0.7649
   79SOPE  H101 7123   1.226   4.928   6.382  0.0042 -1.9896 -2.4587
   79SOPE  C211 7124   1.008   4.992   6.361  0.9706 -0.4122  0.1283
   79SOPE  H11R 7125   1.000   5.089   6.415 -1.3339  0.2660 -1.2611
   79SOPE  H11S 7126   0.912   4.944   6.391  0.2183  1.3569  0.6886
   79SOPE  C212 7127   1.034   5.014   6.212 -0.3875 -0.1212 -0.1847
   79SOPE  H12R 7128   1.139   5.042   6.188 -0.7283  1.0903 -0.3133
   79SOPE  H12S 7129   0.962   5.092   6.179 -0.6614 -0.6335 -0.8279
   79SOPE  C213 7130   1.011   4.882   6.135 -0.3263 -0.0247  0.1648
   79SOPE  H13R 7131   0.955   4.812   6.200  1.8507  0.6338  2.9205
   79SOPE  H13S 7132   1.111   4.837   6.125  0.5220  1.7578  0.2042
   79SOPE  C214 7133   0.948   4.894   5.989 -0.0249  0.2972 -0.5901
   79SOPE  H14R 7134   0.872   4.974   6.003 -0.3479 -0.1095  0.0704
   79SOPE  H14S 7135   0.897   4.800   5.958 -2.4198  0.8946  1.1630
   79SOPE  C215 7136   1.034   4.948   5.889 -0.3659 -0.1564  0.2531
   79SOPE  H15R 7137   1.132   4.899   5.870 -0.6959 -0.6721 -0.1269
   79SOPE  H15S 7138   1.076   5.038   5.940  0.8681  0.3611 -1.5679
   79SOPE  C216 7139   0.961   4.978   5.760 -0.6519  0.5052  0.0666
   79SOPE  H16R 7140   0.907   5.073   5.777  1.2311  1.3557  1.6827
   79SOPE  H16S 7141   0.884   4.902   5.736 -0.3221  0.3840 -0.6376
   79SOPE  C217 7142   1.052   5.000   5.641  0.4248 -0.1023  0.2444
   79SOPE  H17R 7143   1.113   4.907   5.633 -0.1330 -0.3068 -2.6243
   79SOPE  H17S 7144   1.113   5.091   5.658  1.1934 -0.4733 -0.4598
   79SOPE  C218 7145   0.967   5.024   5.517 -0.3902 -0.0376 -0.6780
   79SOPE  H18R 7146   0.934   5.128   5.534  0.1251 -0.2072  1.6563
   79SOPE  H18S 7147   0.874   4.963   5.528  0.5280 -1.0312  2.3475
   79SOPE  H18T 7148   1.013   5.019   5.416  0.1625  1.9418 -0.5586
   79SOPE   C33 7149   1.223   4.280   6.855 -0.6270 -0.0075  0.1576
   79SOPE   H3X 7150   1.183   4.379   6.888  0.7893 -0.3194  3.2100
   79SOPE   H3Y 7151   1.139   4.210   6.875 -1.3500  1.0525  0.9938
   79SOPE   C34 7152   1.251   4.284   6.703 -0.5751  0.4347 -1.1990
   79SOPE   H4X 7153   1.199   4.197   6.657 -0.4114 -0.7081  0.6430
   79SOPE   H4Y 7154   1.360   4.282   6.687 -0.4451 -0.9739 -0.3483
   79SOPE   C35 7155   1.200   4.417   6.635  0.3041  0.3863  0.2359
   79SOPE   H5X 7156   1.244   4.501   6.692  1.9943 -0.9597  1.0150
   79SOPE   H5Y 7157   1.090   4.412   6.649  0.1580 -1.0280 -1.1098
   79SOPE   C36 7158   1.230   4.424   6.487 -0.4971  0.1300  0.2963
   79SOPE   H6X 7159   1.324   4.372   6.460  0.0746  1.4374 -0.3373
   79SOPE   H6Y 7160   1.252   4.531   6.464 -0.3599  0.0911  0.2520
   79SOPE   C37 7161   1.119   4.378   6.401  0.4875  0.6586  0.3555
   79SOPE   H7X 7162   1.017   4.414   6.425 -0.7682 -1.1416 -1.8545
   79SOPE   H7Y 7163   1.116   4.267   6.407  0.1963  0.7225  1.6737
   79SOPE   C38 7164   1.142   4.431   6.262 -0.5173 -0.1271  0.6937
   79SOPE   H8X 7165   1.232   4.377   6.226 -2.2160 -2.3762 -0.3937
   79SOPE   H8Y 7166   1.159   4.540   6.250 -0.5448 -0.2342 -0.4776
   79SOPE   C39 7167   1.033   4.393   6.162  0.5034  0.6862  0.1090
   79SOPE   H9X 7168   0.942   4.453   6.180 -0.5525 -0.5233 -0.9478
   79SOPE   H9Y 7169   1.005   4.287   6.181  1.2256 -0.1098 -2.7315
   79SOPE  C310 7170   1.069   4.424   6.016  0.8098 -0.1318  0.8229
   79SOPE  H10X 7171   1.141   4.350   5.974  1.6876  1.3154 -0.3293
   79SOPE  H10Y 7172   1.115   4.525   6.011  1.8051 -0.5751  0.9007
   79SOPE  C311 7173   0.942   4.418   5.932  0.0751 -0.3745 -0.2754
   79SOPE  H11X 7174   0.884   4.511   5.949 -0.1100 -0.6756  0.7914
   79SOPE  H11Y 7175   0.879   4.329   5.954  0.0046 -0.3800 -0.4989
   79SOPE  C312 7176   0.982   4.410   5.780  0.7698  0.3434 -0.2734
   79SOPE  H12X 7177   0.894   4.413   5.712  0.3320 -1.9448  0.1037
   79SOPE  H12Y 7178   1.027   4.310   5.763 -1.7714 -0.7681 -0.9300
   79SOPE  C313 7179   1.068   4.521   5.731  0.4697  1.2689 -0.8742
   79SOPE  H13X 7180   1.158   4.520   5.796  0.3933 -0.0047 -0.7617
   79SOPE  H13Y 7181   1.012   4.614   5.755 -1.6108 -0.2253  0.5410
   79SOPE  C314 7182   1.101   4.511   5.589 -0.8295  0.3970  0.2289
   79SOPE  H14X 7183   1.012   4.491   5.525 -0.4316  0.3350 -0.3146
   79SOPE  H14Y 7184   1.178   4.432   5.576  0.4327  1.4618  0.9580
   79SOPE  C315 7185   1.161   4.645   5.531 -0.0986 -0.4514 -0.4608
   79SOPE  H15X 7186   1.235   4.690   5.599 -0.1864 -0.5725 -0.2832
   79SOPE  H15Y 7187   1.079   4.717   5.512  0.6426  0.3233 -0.7521
   79SOPE  C316 7188   1.236   4.626   5.403  0.6707 -0.5155 -0.7818
   79SOPE  H16X 7189   1.217   4.722   5.351 -0.9345 -0.9726 -1.1047
   79SOPE  H16Y 7190   1.182   4.558   5.334 -1.5077  1.5480 -1.2034
   79SOPE  C317 7191   1.384   4.595   5.408  0.6734 -0.1749  0.1049
   79SOPE  H17X 7192   1.398   4.497   5.459  0.4228  0.4631  1.4630
   79SOPE  H17Y 7193   1.433   4.667   5.477  0.7389 -0.8253  0.7492
   79SOPE  C318 7194   1.456   4.578   5.277  1.0221  0.1047 -0.0165
   79SOPE  H18X 7195   1.433   4.664   5.211  1.1364  0.3932  0.3153
   79SOPE  H18Y 7196   1.409   4.487   5.236  1.4511 -0.3118  0.3979
   79SOPE  H18Z 7197   1.565   4.558   5.286  1.0859 -0.2005 -1.3464
   80SOPE     N 7198   1.662   5.949   7.759  0.0517 -0.4912 -0.2190
   80SOPE   HN1 7199   1.681   6.051   7.767  2.6113 -0.8406 -0.7925
   80SOPE   HN2 7200   1.679   5.902   7.850 -0.1206  3.3585  2.0325
   80SOPE   HN3 7201   1.737   5.917   7.695  0.7104  1.6481 -0.5991
   80SOPE   C12 7202   1.523   5.920   7.709 -0.2472  1.0891 -0.2537
   80SOPE  H12A 7203   1.445   5.950   7.782 -0.0562  0.2112  0.3257
   80SOPE  H12B 7204   1.515   5.809   7.702  2.8849  0.7864 -0.4147
   80SOPE   C11 7205   1.494   5.973   7.567 -0.4252 -0.8506  0.9088
   80SOPE  H11A 7206   1.400   5.928   7.529  1.0289 -1.5329 -2.1716
   80SOPE  H11B 7207   1.577   5.936   7.503 -0.8100  0.2794 -0.2838
   80SOPE     P 7208   1.366   6.205   7.524 -0.2741  0.1549  0.0021
   80SOPE   O13 7209   1.408   6.350   7.528  0.2908  0.0359 -0.4660
   80SOPE   O14 7210   1.255   6.170   7.613 -0.4843 -0.0260 -1.0005
   80SOPE   O12 7211   1.496   6.123   7.564 -0.3888  0.1840  0.8434
   80SOPE   O11 7212   1.327   6.163   7.383  0.0266  0.7324 -0.2911
   80SOPE    C1 7213   1.409   6.132   7.269 -0.0458 -0.5966 -0.1168
   80SOPE    HA 7214   1.510   6.093   7.294  0.4829 -0.5594 -2.0218
   80SOPE    HB 7215   1.413   6.222   7.204 -1.2875  0.3458  1.0538
   80SOPE    C2 7216   1.338   6.019   7.193 -0.9408  0.0159 -0.2670
   80SOPE    HS 7217   1.321   5.935   7.264 -3.1664  0.4143 -0.2576
   80SOPE   O21 7218   1.422   5.968   7.081 -0.2567 -0.4467  0.2880
   80SOPE   C21 7219   1.434   5.842   7.058  0.9555 -0.0559  0.5820
   80SOPE   O22 7220   1.386   5.756   7.130 -0.6749 -0.0193 -0.1249
   80SOPE   C22 7221   1.525   5.817   6.936  0.6635  1.0955 -0.1112
   80SOPE   H2R 7222   1.623   5.860   6.966  0.7543  1.6995 -1.1908
   80SOPE   H2S 7223   1.486   5.862   6.842 -0.5993  0.3736  0.0414
   80SOPE    C3 7224   1.194   6.052   7.157 -0.0493 -0.3342 -0.8034
   80SOPE    HX 7225   1.197   6.142   7.092 -0.7852  0.3886  0.1236
   80SOPE    HY 7226   1.140   6.085   7.249  1.9085 -0.8894  0.6048
   80SOPE   O31 7227   1.119   5.954   7.079  0.2558 -0.8526 -0.5458
   80SOPE   C31 7228   1.048   5.863   7.150 -0.3844  0.3894  0.2508
   80SOPE   O32 7229   1.040   5.865   7.272  0.1472  0.3962  0.1087
   80SOPE   C32 7230   0.986   5.770   7.042 -0.4851  0.4233  0.8475
   80SOPE   H2X 7231   0.942   5.836   6.964 -0.3410 -0.2623  0.1768
   80SOPE   H2Y 7232   0.909   5.730   7.112 -0.1414 -0.8988  0.4883
   80SOPE   C23 7233   1.536   5.663   6.905 -0.3257  0.1219  0.1899
   80SOPE   H3R 7234   1.433   5.623   6.903 -0.6910  0.8926  1.8522
   80SOPE   H3S 7235   1.587   5.621   6.994 -0.6931 -0.7457  0.0063
   80SOPE   C24 7236   1.602   5.639   6.769  0.2542 -0.3338 -1.0972
   80SOPE   H4R 7237   1.608   5.529   6.754  1.4166 -0.8258  2.1087
   80SOPE   H4S 7238   1.529   5.696   6.708 -2.9762 -0.0940  2.6201
   80SOPE   C25 7239   1.731   5.715   6.745  0.1788  0.1614 -0.6880
   80SOPE   H5R 7240   1.738   5.800   6.816  1.9577 -0.8317  0.3753
   80SOPE   H5S 7241   1.817   5.660   6.787  0.5689  1.0045 -0.3634
   80SOPE   C26 7242   1.737   5.774   6.602 -0.3745 -0.1874 -0.3298
   80SOPE   H6R 7243   1.651   5.839   6.577 -0.5589  0.3358  1.4833
   80SOPE   H6S 7244   1.826   5.838   6.582 -1.7372  2.6537  1.8781
   80SOPE   C27 7245   1.759   5.650   6.508  0.4061 -0.3559 -0.4683
   80SOPE   H7R 7246   1.853   5.595   6.530  3.0707  3.5429 -1.1530
   80SOPE   H7S 7247   1.676   5.575   6.507  0.6031 -0.6090  0.8907
   80SOPE   C28 7248   1.768   5.680   6.357 -0.5434 -0.5076  0.3173
   80SOPE   H8R 7249   1.852   5.752   6.348 -0.3792 -0.8517 -1.1372
   80SOPE   H8S 7250   1.799   5.590   6.300  0.7406  0.4534 -0.5501
   80SOPE   C29 7251   1.644   5.747   6.299 -0.0833 -0.1518  0.2205
   80SOPE   H91 7252   1.559   5.752   6.369 -2.9084 -0.5687 -2.9389
   80SOPE  C210 7253   1.628   5.771   6.165  0.3579 -0.1094 -0.2999
   80SOPE  H101 7254   1.532   5.804   6.124 -0.0289 -1.3030 -0.3960
   80SOPE  C211 7255   1.731   5.757   6.055  0.0686  0.3932 -0.2824
   80SOPE  H11R 7256   1.824   5.723   6.106 -0.4964 -1.3226 -0.3349
   80SOPE  H11S 7257   1.744   5.859   6.013  0.4331  0.7326  0.6049
   80SOPE  C212 7258   1.697   5.645   5.957 -0.7016  0.3775  0.1161
   80SOPE  H12R 7259   1.681   5.549   6.010  2.2328 -0.5458 -0.4516
   80SOPE  H12S 7260   1.783   5.642   5.886 -0.6584  2.0362  0.0598
   80SOPE  C213 7261   1.577   5.684   5.865 -0.5708  0.1403 -0.1341
   80SOPE  H13R 7262   1.617   5.766   5.802 -0.6809  0.4110  0.1449
   80SOPE  H13S 7263   1.485   5.717   5.918 -0.6480 -1.7672  1.0409
   80SOPE  C214 7264   1.536   5.570   5.776 -0.2237 -0.3000  0.4218
   80SOPE  H14R 7265   1.481   5.498   5.840  0.6941  1.9493  4.0207
   80SOPE  H14S 7266   1.632   5.529   5.737 -0.5470 -1.2180  0.5709
   80SOPE  C215 7267   1.450   5.614   5.656  0.5194 -0.7785 -1.2634
   80SOPE  H15R 7268   1.505   5.696   5.604 -1.2525  0.7937 -0.7787
   80SOPE  H15S 7269   1.354   5.659   5.690  0.6980  0.3463 -2.1654
   80SOPE  C216 7270   1.432   5.505   5.547  0.2758  0.3449 -0.0926
   80SOPE  H16R 7271   1.374   5.419   5.586  0.9441 -0.7812 -1.4752
   80SOPE  H16S 7272   1.525   5.467   5.499 -0.1938  0.9666 -1.5530
   80SOPE  C217 7273   1.355   5.567   5.425 -0.1677 -0.1464 -0.0983
   80SOPE  H17R 7274   1.438   5.613   5.367  0.4742 -0.4455  0.5640
   80SOPE  H17S 7275   1.286   5.635   5.480  0.9784  0.8154  0.2109
   80SOPE  C218 7276   1.277   5.469   5.332  0.8010  0.9682 -0.0039
   80SOPE  H18R 7277   1.179   5.436   5.372  1.5389 -0.1907  0.9166
   80SOPE  H18S 7278   1.335   5.375   5.319 -0.4130 -0.0031  1.3055
   80SOPE  H18T 7279   1.267   5.525   5.237 -0.4565 -0.2525 -0.6310
   80SOPE   C33 7280   1.073   5.661   6.978  0.2403  0.6094 -0.3089
   80SOPE   H3X 7281   1.099   5.582   7.052  0.7479 -0.4111 -1.5273
   80SOPE   H3Y 7282   1.172   5.710   6.964  0.0501  1.1035  0.0551
   80SOPE   C34 7283   1.018   5.590   6.861  0.3642  0.3388  0.1624
   80SOPE   H4X 7284   0.916   5.559   6.894  0.5197  1.5124  1.8903
   80SOPE   H4Y 7285   1.066   5.492   6.842 -1.1345 -0.4324  0.1710
   80SOPE   C35 7286   0.995   5.665   6.732 -0.1524 -0.7523  0.1052
   80SOPE   H5X 7287   1.089   5.719   6.707 -0.5437 -0.0039  0.2034
   80SOPE   H5Y 7288   0.909   5.736   6.743 -0.7656 -0.9012 -2.8484
   80SOPE   C36 7289   0.954   5.578   6.606  0.4149 -0.3291 -0.4263
   80SOPE   H6X 7290   0.860   5.534   6.645  0.0491  1.4302  0.7952
   80SOPE   H6Y 7291   1.032   5.502   6.582  1.1782  0.2452  0.1604
   80SOPE   C37 7292   0.929   5.658   6.471  0.4064  0.1982  0.3673
   80SOPE   H7X 7293   0.885   5.584   6.400  1.5259  0.4005 -0.5609
   80SOPE   H7Y 7294   1.024   5.690   6.423 -1.6345  1.7276 -3.0188
   80SOPE   C38 7295   0.847   5.789   6.479  0.5057 -0.2512  0.2428
   80SOPE   H8X 7296   0.902   5.854   6.551  0.4578 -1.1576  1.1295
   80SOPE   H8Y 7297   0.744   5.779   6.518  0.4620 -0.6004  0.0384
   80SOPE   C39 7298   0.829   5.853   6.340 -0.1512  0.1338 -0.1271
   80SOPE   H9X 7299   0.932   5.886   6.319  0.3019  0.3092  2.1065
   80SOPE   H9Y 7300   0.763   5.942   6.334 -1.4341 -0.8602 -1.8523
   80SOPE  C310 7301   0.782   5.758   6.215  0.2489 -0.0762 -0.3624
   80SOPE  H10X 7302   0.705   5.690   6.255  0.6303 -0.6616 -0.6108
   80SOPE  H10Y 7303   0.871   5.694   6.195  1.2529  2.0034 -3.3606
   80SOPE  C311 7304   0.743   5.834   6.094  0.1704 -0.5457  0.4318
   80SOPE  H11X 7305   0.818   5.913   6.072  0.3392 -0.8473 -0.0977
   80SOPE  H11Y 7306   0.647   5.888   6.103  1.5717  2.2526 -0.1760
   80SOPE  C312 7307   0.722   5.760   5.954 -0.2045 -0.6334 -0.1549
   80SOPE  H12X 7308   0.661   5.668   5.962 -2.3869  0.7970  0.5388
   80SOPE  H12Y 7309   0.823   5.742   5.910 -0.9759  0.4717 -2.5335
   80SOPE  C313 7310   0.648   5.849   5.860 -0.0496  0.0185 -0.0808
   80SOPE  H13X 7311   0.703   5.945   5.851  0.9547 -0.5312  0.0739
   80SOPE  H13Y 7312   0.551   5.863   5.911  0.7331 -0.5449  1.6376
   80SOPE  C314 7313   0.628   5.797   5.717  0.4687  0.5961 -0.6733
   80SOPE  H14X 7314   0.517   5.797   5.715  0.2582  3.1012  2.9773
   80SOPE  H14Y 7315   0.666   5.693   5.702 -1.3343  0.0797 -2.0806
   80SOPE  C315 7316   0.684   5.892   5.610 -0.7220 -0.0562 -0.5933
   80SOPE  H15X 7317   0.792   5.911   5.629 -0.5881 -1.4156  0.1440
   80SOPE  H15Y 7318   0.629   5.988   5.604 -1.0158 -0.2215 -0.5982
   80SOPE  C316 7319   0.669   5.826   5.470 -0.4834 -0.4967 -0.2248
   80SOPE  H16X 7320   0.564   5.792   5.459 -1.2843  1.5904  0.5833
   80SOPE  H16Y 7321   0.737   5.738   5.466  0.7871  0.4415  0.0295
   80SOPE  C317 7322   0.693   5.923   5.354  0.4460  0.1203  0.5772
   80SOPE  H17X 7323   0.791   5.969   5.381  0.4596 -0.0457  0.8118
   80SOPE  H17Y 7324   0.612   5.997   5.368 -0.5417 -0.8830  0.2706
   80SOPE  C318 7325   0.683   5.851   5.220  0.2903 -0.0319 -0.6242
   80SOPE  H18X 7326   0.586   5.798   5.206  1.5843 -2.3390 -1.3348
   80SOPE  H18Y 7327   0.757   5.769   5.221  0.4126  0.0382  1.7381
   80SOPE  H18Z 7328   0.693   5.921   5.134 -0.6730 -1.0606 -1.6168
   81SOPE     N 7329   2.559   3.123   7.789  0.2925 -0.0116  0.6452
   81SOPE   HN1 7330   2.526   3.124   7.887  0.5258  1.4413  0.7232
   81SOPE   HN2 7331   2.635   3.052   7.784  1.0585  0.7452  1.2894
   81SOPE   HN3 7332   2.605   3.214   7.773  0.2427 -0.2595 -1.1907
   81SOPE   C12 7333   2.436   3.117   7.699  0.1989  0.2716  0.2766
   81SOPE  H12A 7334   2.383   3.021   7.718 -0.6241  1.0600  2.2381
   81SOPE  H12B 7335   2.473   3.121   7.595  3.0626 -0.5724  1.1567
   81SOPE   C11 7336   2.349   3.238   7.725 -0.4175 -0.2515  0.7454
   81SOPE  H11A 7337   2.261   3.220   7.659  1.1171 -1.4320 -1.0943
   81SOPE  H11B 7338   2.407   3.326   7.690 -1.8001  1.0079  1.4934
   81SOPE     P 7339   2.164   3.249   7.916 -0.2353  0.1197  0.1759
   81SOPE   O13 7340   2.180   3.266   8.060  0.3536  0.0519  1.0656
   81SOPE   O14 7341   2.081   3.129   7.880 -0.3392  0.0921 -0.0016
   81SOPE   O12 7342   2.312   3.244   7.860  0.2781 -0.3488  0.1722
   81SOPE   O11 7343   2.099   3.373   7.843  0.0352 -0.1712  0.2492
   81SOPE    C1 7344   1.995   3.365   7.749  0.1347 -0.6196 -0.0506
   81SOPE    HA 7345   1.900   3.398   7.796  0.3015 -0.2072 -0.0042
   81SOPE    HB 7346   1.978   3.264   7.704  1.2905 -1.7056  1.8054
   81SOPE    C2 7347   2.028   3.450   7.622 -0.2325 -0.2669 -0.3433
   81SOPE    HS 7348   1.933   3.473   7.569  0.0145  0.2076 -0.5802
   81SOPE   O21 7349   2.120   3.365   7.546 -0.8871  1.0661 -0.1999
   81SOPE   C21 7350   2.051   3.287   7.459 -0.5080  0.1037 -0.1845
   81SOPE   O22 7351   1.932   3.299   7.426  0.1067 -0.1076 -0.4077
   81SOPE   C22 7352   2.151   3.185   7.400  0.0833 -0.0700  0.1330
   81SOPE   H2R 7353   2.105   3.085   7.420  1.4073 -0.3926  1.8546
   81SOPE   H2S 7354   2.251   3.200   7.447  0.6719 -1.7791 -0.4807
   81SOPE    C3 7355   2.098   3.592   7.657 -0.1124 -0.1988  0.4776
   81SOPE    HX 7356   2.191   3.580   7.716 -0.2561  0.3035  0.8183
   81SOPE    HY 7357   2.026   3.642   7.727  1.4263  1.8289  0.7087
   81SOPE   O31 7358   2.110   3.675   7.533 -0.3649 -0.4017 -0.0979
   81SOPE   C31 7359   2.184   3.780   7.553  0.6696  0.2459 -0.4183
   81SOPE   O32 7360   2.240   3.819   7.651 -0.3012 -0.1299  0.3339
   81SOPE   C32 7361   2.181   3.852   7.416  0.4880  0.7209  0.0698
   81SOPE   H2X 7362   2.073   3.858   7.387  0.7272 -0.0310 -1.0255
   81SOPE   H2Y 7363   2.228   3.783   7.343  2.1075  2.2343 -0.3732
   81SOPE   C23 7364   2.161   3.207   7.250  0.4354  0.5852  0.1741
   81SOPE   H3R 7365   2.055   3.209   7.215  0.1601 -0.1938  0.9147
   81SOPE   H3S 7366   2.209   3.116   7.207  0.9445  1.1792 -0.5436
   81SOPE   C24 7367   2.227   3.336   7.213 -0.0860 -0.2714  0.0229
   81SOPE   H4R 7368   2.161   3.414   7.257  0.3709 -0.7968  1.7185
   81SOPE   H4S 7369   2.318   3.362   7.270 -0.7784  1.0478  0.5678
   81SOPE   C25 7370   2.245   3.358   7.064  0.0110  0.4558 -0.0441
   81SOPE   H5R 7371   2.334   3.303   7.027 -1.1094 -2.0003  0.7116
   81SOPE   H5S 7372   2.155   3.311   7.019 -1.9149  1.0154  2.9408
   81SOPE   C26 7373   2.263   3.505   7.022 -0.6364 -0.4549  0.7096
   81SOPE   H6R 7374   2.174   3.570   7.039  1.1079  2.9300 -1.7787
   81SOPE   H6S 7375   2.341   3.562   7.077 -1.1786  0.7024  0.3216
   81SOPE   C27 7376   2.308   3.515   6.872  0.4455  0.0882  0.2959
   81SOPE   H7R 7377   2.401   3.460   6.851  0.6136  0.7785 -0.8366
   81SOPE   H7S 7378   2.228   3.462   6.815  1.9125  1.8277 -3.6878
   81SOPE   C28 7379   2.312   3.662   6.816  0.5835  0.6478 -0.1718
   81SOPE   H8R 7380   2.234   3.716   6.874 -0.2850 -0.2256 -0.5078
   81SOPE   H8S 7381   2.401   3.708   6.864 -0.2133  1.2311  0.8036
   81SOPE   C29 7382   2.318   3.689   6.669  0.7045 -0.0175 -0.8885
   81SOPE   H91 7383   2.221   3.727   6.634 -1.2047 -2.6475  1.1503
   81SOPE  C210 7384   2.418   3.666   6.586 -0.9159 -0.5228  0.6874
   81SOPE  H101 7385   2.403   3.709   6.486 -3.2630 -2.1367  0.2707
   81SOPE  C211 7386   2.545   3.595   6.620 -0.3245 -0.1677 -0.1992
   81SOPE  H11R 7387   2.558   3.561   6.725 -0.1138 -1.4102 -0.6109
   81SOPE  H11S 7388   2.619   3.676   6.603 -2.8606  2.4941  0.5262
   81SOPE  C212 7389   2.558   3.475   6.535 -0.3829  0.1944  0.1383
   81SOPE  H12R 7390   2.481   3.397   6.554 -0.6687  0.1461 -1.0815
   81SOPE  H12S 7391   2.656   3.428   6.556  0.7302  2.5467  0.4715
   81SOPE  C213 7392   2.573   3.508   6.382 -0.5271  0.1343  0.3949
   81SOPE  H13R 7393   2.665   3.570   6.375 -0.4522  0.8482  4.8644
   81SOPE  H13S 7394   2.484   3.566   6.350  0.1278  0.1267 -1.5664
   81SOPE  C214 7395   2.576   3.382   6.289  0.7660  0.1259 -0.5125
   81SOPE  H14R 7396   2.480   3.326   6.294  1.6883 -1.4256  3.5035
   81SOPE  H14S 7397   2.656   3.313   6.324  0.0004 -1.5911 -1.9846
   81SOPE  C215 7398   2.623   3.418   6.146  0.0062 -0.2723  0.0898
   81SOPE  H15R 7399   2.719   3.474   6.158 -0.3249 -0.1502  3.0146
   81SOPE  H15S 7400   2.550   3.487   6.100  1.8834  0.8896 -1.3017
   81SOPE  C216 7401   2.638   3.299   6.058 -0.9895  0.7494  0.3274
   81SOPE  H16R 7402   2.537   3.263   6.030 -1.1070  0.9816  0.4497
   81SOPE  H16S 7403   2.700   3.216   6.098  0.0415  0.9214 -0.8444
   81SOPE  C217 7404   2.703   3.334   5.927 -0.2533 -1.2152  0.2578
   81SOPE  H17R 7405   2.794   3.395   5.950 -1.4967  0.9966 -0.3977
   81SOPE  H17S 7406   2.645   3.409   5.869  0.5090  0.5286  1.6665
   81SOPE  C218 7407   2.739   3.221   5.828  0.2142 -0.4723 -0.2008
   81SOPE  H18R 7408   2.823   3.156   5.861  0.8439 -0.0249 -0.8848
   81SOPE  H18S 7409   2.760   3.273   5.732  2.3076 -1.7514 -0.4980
   81SOPE  H18T 7410   2.655   3.149   5.816  0.6401 -0.9253 -0.5106
   81SOPE   C33 7411   2.266   3.979   7.435  0.7991 -0.3533 -0.1407
   81SOPE   H3X 7412   2.361   3.965   7.491 -1.1327  0.5089  3.6523
   81SOPE   H3Y 7413   2.217   4.059   7.494  2.6155  0.5663  0.1967
   81SOPE   C34 7414   2.291   4.044   7.301 -0.4450 -0.6990  0.1632
   81SOPE   H4X 7415   2.347   3.968   7.242 -0.3796  0.4128 -1.2974
   81SOPE   H4Y 7416   2.362   4.128   7.318 -0.2560 -1.3250  2.7958
   81SOPE   C35 7417   2.170   4.091   7.217 -0.1408  0.2627  0.7271
   81SOPE   H5X 7418   2.117   4.173   7.269  0.4237  0.7195  0.5892
   81SOPE   H5Y 7419   2.110   3.998   7.204  0.7110 -0.3106  0.7654
   81SOPE   C36 7420   2.210   4.145   7.074 -0.0695 -0.0256  0.4306
   81SOPE   H6X 7421   2.277   4.227   7.107 -0.6748  0.5717  0.1978
   81SOPE   H6Y 7422   2.133   4.206   7.023  1.2016  2.3010  1.1832
   81SOPE   C37 7423   2.278   4.052   6.982  0.5491 -0.6655 -0.3709
   81SOPE   H7X 7424   2.214   3.961   6.985 -0.1944 -0.1446 -0.2771
   81SOPE   H7Y 7425   2.374   4.024   7.030  0.5459  0.9461  0.6309
   81SOPE   C38 7426   2.297   4.097   6.836  0.0452 -0.0146  0.7070
   81SOPE   H8X 7427   2.365   4.026   6.784 -2.0408  0.3948 -2.9345
   81SOPE   H8Y 7428   2.338   4.200   6.836  0.1193 -0.0216 -0.8513
   81SOPE   C39 7429   2.159   4.109   6.768 -0.0314 -0.0446  0.4389
   81SOPE   H9X 7430   2.112   4.202   6.806  0.3577  0.6295 -0.6807
   81SOPE   H9Y 7431   2.096   4.026   6.807  0.0791 -0.8607 -1.0343
   81SOPE  C310 7432   2.186   4.119   6.615 -0.0690 -0.0078  0.3465
   81SOPE  H10X 7433   2.232   4.025   6.577  0.4370  0.5469 -0.4617
   81SOPE  H10Y 7434   2.247   4.207   6.584  0.0349 -0.6491 -1.4133
   81SOPE  C311 7435   2.062   4.148   6.528  0.4441  0.2435  0.4414
   81SOPE  H11X 7436   1.997   4.227   6.570 -1.5620 -1.0905  0.0346
   81SOPE  H11Y 7437   2.004   4.053   6.521  1.1462 -0.1110 -0.9224
   81SOPE  C312 7438   2.101   4.197   6.383  0.4443  0.1456  0.3839
   81SOPE  H12X 7439   2.147   4.115   6.323 -1.6435  0.2791 -1.5354
   81SOPE  H12Y 7440   2.172   4.282   6.388  1.4834 -0.3690 -3.0043
   81SOPE  C313 7441   1.970   4.226   6.307 -0.0163 -0.1681 -0.1925
   81SOPE  H13X 7442   1.938   4.327   6.340  0.8603  0.5531 -1.4867
   81SOPE  H13Y 7443   1.888   4.152   6.320 -2.4193  2.0571 -1.5622
   81SOPE  C314 7444   1.986   4.241   6.155  0.2219  0.1476  0.0651
   81SOPE  H14X 7445   2.084   4.290   6.135  2.2692 -3.2590  0.8003
   81SOPE  H14Y 7446   1.896   4.299   6.126  1.1346  1.2862 -0.5732
   81SOPE  C315 7447   1.982   4.105   6.088  0.4819 -0.4585  0.1070
   81SOPE  H15X 7448   1.906   4.046   6.144  0.4906 -1.3357 -0.7842
   81SOPE  H15Y 7449   2.084   4.063   6.100  0.0736 -1.0426  1.7839
   81SOPE  C316 7450   1.936   4.116   5.943 -0.5480 -0.3968 -0.0470
   81SOPE  H16X 7451   2.022   4.163   5.891 -0.1302 -0.2938  0.7223
   81SOPE  H16Y 7452   1.845   4.179   5.932 -0.9917 -0.7985  1.2177
   81SOPE  C317 7453   1.904   3.987   5.879  0.9997  0.0417  0.4005
   81SOPE  H17X 7454   1.809   3.956   5.929  0.6454  0.3421 -0.0733
   81SOPE  H17Y 7455   1.986   3.916   5.901  0.3962 -0.3290  1.5512
   81SOPE  C318 7456   1.902   3.997   5.725 -0.0656 -0.6170  0.3051
   81SOPE  H18X 7457   1.988   4.053   5.682  0.5372 -0.1568  2.0276
   81SOPE  H18Y 7458   1.815   4.063   5.702 -0.3774 -1.0434  0.2513
   81SOPE  H18Z 7459   1.882   3.899   5.675 -0.6050 -0.1476 -0.4273
   82SOPE     N 7460   4.804   2.751   7.915  0.0674 -0.0448  0.6417
   82SOPE   HN1 7461   4.799   2.820   7.992  0.2526 -1.4930  2.0043
   82SOPE   HN2 7462   4.794   2.799   7.823 -0.6956 -1.8577 -0.2898
   82SOPE   HN3 7463   4.725   2.683   7.922 -0.9964  1.2615  2.0268
   82SOPE   C12 7464   4.937   2.701   7.953  0.8853  0.2482  0.4173
   82SOPE  H12A 7465   4.933   2.590   7.947 -0.6119  0.3609 -1.9120
   82SOPE  H12B 7466   4.946   2.741   8.056  0.8166  0.8481  0.1922
   82SOPE   C11 7467   5.053   2.765   7.877 -0.7245 -0.1832  1.0244
   82SOPE  H11A 7468   5.059   2.722   7.775  1.0912  3.0625 -0.3946
   82SOPE  H11B 7469   5.152   2.744   7.923 -0.6765 -2.5276 -0.0268
   82SOPE     P 7470   4.959   2.975   7.728 -0.1733  0.1333  0.0975
   82SOPE   O13 7471   4.991   3.118   7.736 -0.3515  0.0412  0.6701
   82SOPE   O14 7472   4.818   2.942   7.729 -0.3302 -0.3745 -0.2116
   82SOPE   O12 7473   5.024   2.904   7.855  0.6538  0.1838  0.3872
   82SOPE   O11 7474   5.025   2.916   7.592 -0.4850  0.3183  0.0665
   82SOPE    C1 7475   5.172   2.889   7.591  0.3711 -1.2018 -0.2282
   82SOPE    HA 7476   5.212   2.829   7.676 -0.4724 -1.4176  0.0361
   82SOPE    HB 7477   5.226   2.986   7.594  0.5958 -1.2369 -1.9813
   82SOPE    C2 7478   5.215   2.820   7.456 -0.1945  0.2342 -0.4723
   82SOPE    HS 7479   5.324   2.797   7.457 -0.4754 -1.2204  0.5693
   82SOPE   O21 7480   5.159   2.883   7.339 -0.1088  0.2162  0.0574
   82SOPE   C21 7481   5.242   2.979   7.303  0.3498  0.1509 -0.5317
   82SOPE   O22 7482   5.344   3.010   7.364 -0.4544 -0.6446 -0.0779
   82SOPE   C22 7483   5.201   3.034   7.160  0.2426 -0.8057 -0.1403
   82SOPE   H2R 7484   5.094   3.006   7.150  0.1975 -0.6190 -0.1745
   82SOPE   H2S 7485   5.270   2.977   7.094  2.2098 -0.0482  1.1581
   82SOPE    C3 7486   5.155   2.673   7.474 -0.1569  1.1650  0.9714
   82SOPE    HX 7487   5.046   2.691   7.477 -0.3025  0.5558 -0.1759
   82SOPE    HY 7488   5.180   2.634   7.576 -1.6735  0.8473  1.2432
   82SOPE   O31 7489   5.190   2.577   7.367  0.4941  0.7078  1.1479
   82SOPE   C31 7490   5.314   2.526   7.370 -0.2901  0.1724 -0.3568
   82SOPE   O32 7491   5.393   2.549   7.457 -0.2358  0.0137  0.3239
   82SOPE   C32 7492   5.343   2.454   7.239  0.6015  0.1398  0.5171
   82SOPE   H2X 7493   5.278   2.487   7.155  1.3382  0.6446  0.1361
   82SOPE   H2Y 7494   5.327   2.346   7.258 -1.1103  0.0985 -0.8885
   82SOPE   C23 7495   5.206   3.188   7.153  0.6240  0.8713 -0.4263
   82SOPE   H3R 7496   5.144   3.221   7.240 -0.7037  2.4409 -1.8938
   82SOPE   H3S 7497   5.143   3.234   7.073 -1.4192  0.8806  1.0875
   82SOPE   C24 7498   5.349   3.240   7.137  0.1189  0.1189  0.2929
   82SOPE   H4R 7499   5.352   3.351   7.133  1.8581  0.1759  1.7613
   82SOPE   H4S 7500   5.425   3.215   7.214  0.3974  0.5625  0.1692
   82SOPE   C25 7501   5.423   3.187   7.009 -0.5028 -0.3311 -0.0211
   82SOPE   H5R 7502   5.528   3.218   7.028 -0.6174 -0.7833  1.4923
   82SOPE   H5S 7503   5.419   3.076   7.007 -3.3526 -0.2960  0.4100
   82SOPE   C26 7504   5.388   3.244   6.874  0.3490 -0.2604 -0.3453
   82SOPE   H6R 7505   5.285   3.208   6.851 -0.3341  0.9488  0.7103
   82SOPE   H6S 7506   5.396   3.354   6.866  1.0315 -0.3041 -0.2850
   82SOPE   C27 7507   5.468   3.186   6.753  0.1814 -0.3030 -0.1096
   82SOPE   H7R 7508   5.578   3.190   6.760  0.0431  2.7478  1.9130
   82SOPE   H7S 7509   5.440   3.081   6.729  0.2545  0.0032 -1.6689
   82SOPE   C28 7510   5.430   3.264   6.619 -0.2614 -0.3452  0.0698
   82SOPE   H8R 7511   5.321   3.256   6.599  0.1164  0.4139 -2.5295
   82SOPE   H8S 7512   5.459   3.370   6.637  2.2111 -0.2489 -3.5393
   82SOPE   C29 7513   5.506   3.217   6.500  0.5068  0.0892 -0.5378
   82SOPE   H91 7514   5.582   3.139   6.517 -0.5809 -1.0236 -0.5676
   82SOPE  C210 7515   5.479   3.262   6.374  0.6294  0.0419 -0.6069
   82SOPE  H101 7516   5.535   3.229   6.285 -0.7612 -0.2805 -1.4023
   82SOPE  C211 7517   5.373   3.368   6.348  0.1397  0.4433 -0.0775
   82SOPE  H11R 7518   5.331   3.421   6.436 -0.9981  1.1788 -1.0275
   82SOPE  H11S 7519   5.285   3.333   6.290  0.4477  1.1802 -1.0214
   82SOPE  C212 7520   5.431   3.491   6.275  0.2759 -0.1412 -0.4158
   82SOPE  H12R 7521   5.501   3.540   6.347  0.2376 -0.0880 -0.4145
   82SOPE  H12S 7522   5.351   3.568   6.263  0.7426  0.2108 -1.3505
   82SOPE  C213 7523   5.490   3.468   6.140  0.3047 -0.0835 -0.1918
   82SOPE  H13R 7524   5.411   3.430   6.071  2.1599 -4.3089 -0.2385
   82SOPE  H13S 7525   5.566   3.389   6.151  1.2164  0.6533 -1.0516
   82SOPE  C214 7526   5.569   3.594   6.081 -0.2549 -0.4210 -0.4764
   82SOPE  H14R 7527   5.647   3.620   6.156 -1.3159 -1.5213  1.0859
   82SOPE  H14S 7528   5.490   3.672   6.072 -2.8663 -2.7891  0.4068
   82SOPE  C215 7529   5.627   3.585   5.941 -0.1679  0.8945  0.0676
   82SOPE  H15R 7530   5.680   3.489   5.923 -0.3740  0.7055  0.4462
   82SOPE  H15S 7531   5.692   3.673   5.922  0.7445  0.1579 -0.3308
   82SOPE  C216 7532   5.519   3.594   5.824 -0.1374  0.2265 -0.0388
   82SOPE  H16R 7533   5.453   3.681   5.843  0.2519  0.6091 -0.4155
   82SOPE  H16S 7534   5.471   3.493   5.830 -0.0817  0.2582  1.2240
   82SOPE  C217 7535   5.576   3.599   5.683 -0.2625  0.1268 -0.6645
   82SOPE  H17R 7536   5.654   3.520   5.680 -1.4712 -1.0944 -0.6143
   82SOPE  H17S 7537   5.616   3.699   5.657 -0.0657  0.5333  1.0679
   82SOPE  C218 7538   5.467   3.538   5.588  0.3812  0.0063  0.0430
   82SOPE  H18R 7539   5.363   3.577   5.585  0.2300 -0.2471  1.3644
   82SOPE  H18S 7540   5.445   3.435   5.624  1.2947 -0.2076  0.0111
   82SOPE  H18T 7541   5.502   3.533   5.483 -0.8534  2.2241 -0.5193
   82SOPE   C33 7542   5.487   2.473   7.196  0.6490  0.3454 -0.3427
   82SOPE   H3X 7543   5.546   2.469   7.291 -0.5664  0.5028  0.4417
   82SOPE   H3Y 7544   5.501   2.573   7.149  1.5208  0.0460 -0.7477
   82SOPE   C34 7545   5.535   2.361   7.103  0.7369  0.3539  0.2838
   82SOPE   H4X 7546   5.509   2.266   7.154 -0.8842  0.2920 -0.6065
   82SOPE   H4Y 7547   5.642   2.378   7.076  0.8195  0.5565  0.7255
   82SOPE   C35 7548   5.466   2.366   6.965  0.3293  0.4733 -0.8467
   82SOPE   H5X 7549   5.361   2.332   6.973  0.2561  0.2746 -2.3029
   82SOPE   H5Y 7550   5.506   2.280   6.907 -1.8819 -1.5232  0.4251
   82SOPE   C36 7551   5.471   2.500   6.900 -0.0362 -0.8057 -0.4748
   82SOPE   H6X 7552   5.572   2.536   6.870  0.6063 -1.9657  0.2419
   82SOPE   H6Y 7553   5.418   2.575   6.963 -0.4145  1.0212 -2.7885
   82SOPE   C37 7554   5.386   2.517   6.775 -0.8984  0.0987  0.1682
   82SOPE   H7X 7555   5.279   2.493   6.794 -0.9914  1.6745  1.8866
   82SOPE   H7Y 7556   5.437   2.447   6.705  0.6640  0.4918  0.8773
   82SOPE   C38 7557   5.389   2.655   6.713 -0.8964 -0.5571  0.3124
   82SOPE   H8X 7558   5.493   2.694   6.711 -1.3774  0.8823  1.1029
   82SOPE   H8Y 7559   5.323   2.714   6.780  0.3806  1.0095  0.2462
   82SOPE   C39 7560   5.337   2.671   6.568 -0.1927  0.1773  0.6800
   82SOPE   H9X 7561   5.227   2.677   6.577 -0.3851  0.5108 -1.3865
   82SOPE   H9Y 7562   5.370   2.579   6.515  2.3455  0.2618  1.9284
   82SOPE  C310 7563   5.393   2.788   6.490 -0.1718  0.0956 -0.1076
   82SOPE  H10X 7564   5.500   2.768   6.471 -0.6403 -1.2448 -1.5039
   82SOPE  H10Y 7565   5.394   2.877   6.556  3.2203 -0.4531  0.7597
   82SOPE  C311 7566   5.336   2.815   6.350 -0.0679 -0.8936  0.6346
   82SOPE  H11X 7567   5.235   2.860   6.361  2.2014  4.4594  2.5445
   82SOPE  H11Y 7568   5.326   2.719   6.294 -1.9937  0.7019 -1.9929
   82SOPE  C312 7569   5.423   2.905   6.260 -0.4354  0.1733  0.2324
   82SOPE  H12X 7570   5.519   2.849   6.251 -1.7207 -2.2369  0.5124
   82SOPE  H12Y 7571   5.449   3.002   6.308  1.1594 -1.3952  2.7902
   82SOPE  C313 7572   5.377   2.930   6.115  0.2198 -0.1759 -0.1580
   82SOPE  H13X 7573   5.399   2.838   6.057  2.4059  1.1794 -1.5940
   82SOPE  H13Y 7574   5.442   3.001   6.060  0.2674 -0.9376 -1.1158
   82SOPE  C314 7575   5.242   2.994   6.110  0.5848 -0.7535 -0.6911
   82SOPE  H14X 7576   5.232   3.092   6.161  0.1876 -0.7563 -0.7580
   82SOPE  H14Y 7577   5.180   2.928   6.175  0.4820  0.0421  0.0347
   82SOPE  C315 7578   5.175   3.008   5.974 -0.0517  0.1291  0.3363
   82SOPE  H15X 7579   5.064   3.017   5.976 -0.3633 -2.0743 -2.1634
   82SOPE  H15Y 7580   5.189   2.914   5.917 -3.1487  0.7832 -1.7746
   82SOPE  C316 7581   5.228   3.115   5.875  0.2331  0.0120  0.1930
   82SOPE  H16X 7582   5.338   3.111   5.859  0.2908 -1.8888  0.7989
   82SOPE  H16Y 7583   5.211   3.213   5.925 -1.3210 -0.4596  0.6731
   82SOPE  C317 7584   5.144   3.095   5.744  0.0954 -0.5050 -0.5649
   82SOPE  H17X 7585   5.037   3.125   5.755 -0.3615 -1.5631 -1.8138
   82SOPE  H17Y 7586   5.146   2.987   5.719  1.8607 -0.1984 -1.9528
   82SOPE  C318 7587   5.222   3.166   5.632  0.6540 -0.1971 -0.1114
   82SOPE  H18X 7588   5.323   3.121   5.626  0.8644  0.1424  0.8183
   82SOPE  H18Y 7589   5.226   3.276   5.635 -2.9239  0.1354 -2.0895
   82SOPE  H18Z 7590   5.162   3.144   5.541 -0.6641  0.5096  0.5509
   83SOPE     N 7591   6.517   0.504   3.068 -0.5058 -0.4357  0.0005
   83SOPE   HN1 7592   6.605   0.559   3.067 -0.6072 -0.2810 -0.9176
   83SOPE   HN2 7593   6.539   0.403   3.080 -0.2834 -0.2661  1.1477
   83SOPE   HN3 7594   6.459   0.511   2.982 -3.6044 -0.7186  1.9156
   83SOPE   C12 7595   6.438   0.558   3.176  0.1459 -0.5023  0.3593
   83SOPE  H12A 7596   6.507   0.578   3.261 -0.3317 -0.3624  0.7175
   83SOPE  H12B 7597   6.352   0.493   3.204 -0.7851 -0.1475 -1.5173
   83SOPE   C11 7598   6.388   0.700   3.134 -0.6190  0.2139 -0.3570
   83SOPE  H11A 7599   6.482   0.759   3.129 -1.5417  1.9637  1.2725
   83SOPE  H11B 7600   6.326   0.727   3.222 -0.1948  2.2127 -0.6298
   83SOPE     P 7601   6.157   0.715   2.992  0.2500 -0.1811  0.2738
   83SOPE   O13 7602   6.125   0.669   2.855 -0.3918 -0.1790 -0.1768
   83SOPE   O14 7603   6.112   0.854   3.024  0.2580 -0.0353  0.4982
   83SOPE   O12 7604   6.313   0.711   3.010  0.0940 -0.1804 -0.3050
   83SOPE   O11 7605   6.113   0.616   3.104  0.0456 -0.3094 -0.5565
   83SOPE    C1 7606   6.030   0.647   3.222  0.0200 -0.4593  0.1002
   83SOPE    HA 7607   5.922   0.646   3.198 -0.1539 -2.1587  0.7926
   83SOPE    HB 7608   6.049   0.751   3.256 -0.5714 -0.5563  0.7563
   83SOPE    C2 7609   6.046   0.551   3.337 -0.0027  0.6122  0.3310
   83SOPE    HS 7610   5.961   0.559   3.408 -0.4995  0.4692 -0.2302
   83SOPE   O21 7611   6.164   0.576   3.408 -0.5973  0.3222  0.3026
   83SOPE   C21 7612   6.159   0.683   3.490 -1.4281 -0.1014 -0.1848
   83SOPE   O22 7613   6.069   0.764   3.487  0.0739  0.4288 -0.2358
   83SOPE   C22 7614   6.281   0.679   3.586  0.0309 -0.0246 -0.3118
   83SOPE   H2R 7615   6.357   0.753   3.551  1.6330 -1.2702  0.3995
   83SOPE   H2S 7616   6.324   0.577   3.584  2.7761  1.0260 -2.1652
   83SOPE    C3 7617   6.048   0.404   3.280 -0.0920 -0.8112  0.4542
   83SOPE    HX 7618   6.150   0.384   3.242  0.8306 -1.7320  3.1909
   83SOPE    HY 7619   5.971   0.406   3.199  0.6652 -0.2893 -0.2674
   83SOPE   O31 7620   6.006   0.311   3.379 -0.1407 -0.1722  0.3361
   83SOPE   C31 7621   6.095   0.231   3.435 -0.3975 -0.5534 -0.4066
   83SOPE   O32 7622   6.220   0.234   3.412 -0.2047  0.0708 -0.1021
   83SOPE   C32 7623   6.026   0.127   3.524  0.2602 -0.0716 -0.7234
   83SOPE   H2X 7624   6.014   0.031   3.469 -2.8359 -1.0829  1.4168
   83SOPE   H2Y 7625   5.921   0.164   3.531  0.3850  0.1060  0.4348
   83SOPE   C23 7626   6.238   0.723   3.722 -0.3236  0.1116 -0.1277
   83SOPE   H3R 7627   6.142   0.671   3.739  0.4507 -1.2691  0.1299
   83SOPE   H3S 7628   6.219   0.832   3.729 -0.4921  0.1350 -0.9043
   83SOPE   C24 7629   6.335   0.692   3.837 -0.4636 -0.5092  0.5704
   83SOPE   H4R 7630   6.399   0.606   3.810  1.2106  0.3408  1.6156
   83SOPE   H4S 7631   6.386   0.788   3.863  0.2376 -1.4609  2.9599
   83SOPE   C25 7632   6.257   0.659   3.964  0.8342 -0.2880  0.4369
   83SOPE   H5R 7633   6.166   0.722   3.957  0.5722 -0.7660 -0.6728
   83SOPE   H5S 7634   6.223   0.554   3.951  0.4609 -0.1033 -0.1213
   83SOPE   C26 7635   6.335   0.695   4.094  1.0767 -0.3165 -0.2664
   83SOPE   H6R 7636   6.421   0.625   4.104 -0.7007 -2.8049 -1.1250
   83SOPE   H6S 7637   6.368   0.801   4.093 -0.5635  0.2275  0.3796
   83SOPE   C27 7638   6.246   0.678   4.219  0.6900 -0.1644  0.0111
   83SOPE   H7R 7639   6.141   0.706   4.193  0.8813 -1.6304 -2.7534
   83SOPE   H7S 7640   6.232   0.571   4.246  0.0465 -0.0980 -0.0416
   83SOPE   C28 7641   6.292   0.754   4.348 -0.1847 -0.0616  0.1459
   83SOPE   H8R 7642   6.398   0.721   4.354  0.0448 -0.1810 -3.0080
   83SOPE   H8S 7643   6.293   0.863   4.328 -0.8019  0.2631  1.7532
   83SOPE   C29 7644   6.217   0.729   4.473  0.4583  0.0250  0.2265
   83SOPE   H91 7645   6.146   0.809   4.494 -0.3462 -0.1639 -1.5873
   83SOPE  C210 7646   6.234   0.627   4.568  0.5609  0.0763 -0.1363
   83SOPE  H101 7647   6.164   0.614   4.652 -0.2387 -1.3609 -0.9812
   83SOPE  C211 7648   6.342   0.523   4.552  0.4111 -0.2906 -0.7819
   83SOPE  H11R 7649   6.392   0.523   4.453  2.3382 -1.8908  0.1179
   83SOPE  H11S 7650   6.297   0.421   4.554  0.6237 -0.3981 -1.2692
   83SOPE  C212 7651   6.448   0.536   4.662 -0.7502 -0.0274  0.3209
   83SOPE  H12R 7652   6.498   0.634   4.681  1.2880 -1.1837  1.2282
   83SOPE  H12S 7653   6.538   0.478   4.633 -0.8662  0.8502 -2.0274
   83SOPE  C213 7654   6.403   0.493   4.804  0.0206  0.3704  0.1195
   83SOPE  H13R 7655   6.397   0.382   4.813  0.5772  0.3717  0.6134
   83SOPE  H13S 7656   6.300   0.535   4.812 -0.8412 -1.5831 -0.1279
   83SOPE  C214 7657   6.502   0.522   4.920  0.7645  0.2873  0.0175
   83SOPE  H14R 7658   6.509   0.633   4.924 -0.8001  0.4163  0.0227
   83SOPE  H14S 7659   6.603   0.480   4.901  0.4178 -0.6163  0.1254
   83SOPE  C215 7660   6.472   0.461   5.059 -0.1915 -0.1674  1.1498
   83SOPE  H15R 7661   6.558   0.468   5.129  0.6039 -0.2332  0.2004
   83SOPE  H15S 7662   6.467   0.352   5.043  2.3135 -0.1240 -0.4195
   83SOPE  C216 7663   6.345   0.518   5.119  0.7619  0.1788  0.6736
   83SOPE  H16R 7664   6.255   0.507   5.055  0.3280  1.2498  1.0840
   83SOPE  H16S 7665   6.354   0.625   5.146 -1.1639  0.1160  1.7743
   83SOPE  C217 7666   6.303   0.451   5.252 -0.3011  0.0675 -0.5707
   83SOPE  H17R 7667   6.304   0.340   5.246 -3.0556  0.0594 -2.2844
   83SOPE  H17S 7668   6.196   0.466   5.278  0.0512  0.7928  0.5354
   83SOPE  C218 7669   6.387   0.501   5.370 -0.3467 -0.0480 -0.2046
   83SOPE  H18R 7670   6.359   0.605   5.398  0.5301 -0.3764  2.0946
   83SOPE  H18S 7671   6.492   0.494   5.336 -1.1064  0.2621 -2.8462
   83SOPE  H18T 7672   6.389   0.439   5.462  3.2927  1.2855  0.7937
   83SOPE   C33 7673   6.097   0.086   3.659  0.3782 -0.7558  0.0521
   83SOPE   H3X 7674   6.207   0.097   3.650  0.7335 -1.9527  2.2145
   83SOPE   H3Y 7675   6.070  -0.020   3.680 -1.7088 -0.4282 -0.7669
   83SOPE   C34 7676   6.061   0.173   3.776  0.6150  0.2779  0.7274
   83SOPE   H4X 7677   5.951   0.172   3.791  0.3620 -1.0117 -0.8861
   83SOPE   H4Y 7678   6.085   0.281   3.771  0.3526  0.3346  0.6865
   83SOPE   C35 7679   6.123   0.107   3.903  0.0675  0.5953  0.8255
   83SOPE   H5X 7680   6.233   0.096   3.888  0.0391  1.0581  0.2283
   83SOPE   H5Y 7681   6.070   0.010   3.912  0.7278 -0.2349 -2.5347
   83SOPE   C36 7682   6.100   0.185   4.029  0.8905  0.3684 -0.2188
   83SOPE   H6X 7683   5.989   0.190   4.034  0.7984  1.5016 -2.1188
   83SOPE   H6Y 7684   6.147   0.286   4.030  1.0895  0.2804  1.2145
   83SOPE   C37 7685   6.164   0.105   4.147  0.1500  0.2564 -0.1057
   83SOPE   H7X 7686   6.273   0.086   4.130  0.7238 -1.4854  4.3162
   83SOPE   H7Y 7687   6.117   0.005   4.150 -0.0581  0.3350 -0.5946
   83SOPE   C38 7688   6.146   0.187   4.275  0.2079 -0.5602  0.5579
   83SOPE   H8X 7689   6.035   0.197   4.278  0.3308  0.9733  1.5500
   83SOPE   H8Y 7690   6.191   0.286   4.254 -2.2148  0.0866 -2.2820
   83SOPE   C39 7691   6.203   0.119   4.394  0.5445 -0.1597  0.2026
   83SOPE   H9X 7692   6.314   0.120   4.400  0.6113 -3.1643  1.1797
   83SOPE   H9Y 7693   6.177   0.011   4.390 -0.9563  0.0552  2.2287
   83SOPE  C310 7694   6.136   0.170   4.524  0.0533  0.0166  0.1383
   83SOPE  H10X 7695   6.028   0.146   4.530  0.3298 -1.4011 -0.3106
   83SOPE  H10Y 7696   6.150   0.280   4.529  1.0645 -0.0740 -0.4945
   83SOPE  C311 7697   6.192   0.115   4.657 -0.4878  0.2190  0.0748
   83SOPE  H11X 7698   6.303   0.121   4.653 -0.4981 -0.3505 -1.7676
   83SOPE  H11Y 7699   6.178   0.005   4.663  0.2616  0.1405  0.4846
   83SOPE  C312 7700   6.120   0.165   4.791  0.3781 -0.0520  0.3527
   83SOPE  H12X 7701   6.011   0.160   4.770  0.4758 -0.7668 -0.0390
   83SOPE  H12Y 7702   6.143   0.273   4.804  0.2929 -0.0124  0.1831
   83SOPE  C313 7703   6.169   0.085   4.915  0.0752 -0.7614 -0.7222
   83SOPE  H13X 7704   6.277   0.103   4.933  0.2127 -1.4983 -0.7912
   83SOPE  H13Y 7705   6.175  -0.024   4.896  1.7830 -1.3234  2.3199
   83SOPE  C314 7706   6.088   0.117   5.043  0.6511 -0.0124 -1.3210
   83SOPE  H14X 7707   5.978   0.107   5.036 -0.1203 -1.4166  5.6698
   83SOPE  H14Y 7708   6.103   0.220   5.081  0.4332 -0.6772  0.6928
   83SOPE  C315 7709   6.132   0.020   5.154 -0.5364 -0.0817 -0.3389
   83SOPE  H15X 7710   6.243   0.025   5.162 -0.4454 -0.8131 -1.0796
   83SOPE  H15Y 7711   6.119  -0.085   5.120  3.8987 -0.3078 -2.0120
   83SOPE  C316 7712   6.059   0.055   5.278  0.0790  0.1696  0.1536
   83SOPE  H16X 7713   5.949   0.068   5.266 -0.3568 -2.2762  0.9591
   83SOPE  H16Y 7714   6.105   0.149   5.314  0.3316  0.8182 -1.7379
   83SOPE  C317 7715   6.057  -0.063   5.382  0.4721  0.1537 -0.9406
   83SOPE  H17X 7716   6.164  -0.091   5.395 -0.5115 -3.6173  0.4851
   83SOPE  H17Y 7717   6.015  -0.158   5.341 -0.9245  0.7719 -0.9853
   83SOPE  C318 7718   6.021  -0.024   5.526  0.0918  0.5858 -0.0063
   83SOPE  H18X 7719   6.088   0.060   5.554  1.0560 -0.3907  0.7290
   83SOPE  H18Y 7720   6.032  -0.116   5.588 -1.1637  0.4803  0.0783
   83SOPE  H18Z 7721   5.916   0.011   5.532 -0.5245 -1.2524  0.5268
   84SOPE     N 7722   5.671   4.120   2.996  0.2216 -0.2576  0.1084
   84SOPE   HN1 7723   5.774   4.129   3.011  0.1059  1.1376  0.1660
   84SOPE   HN2 7724   5.646   4.031   3.043 -1.4143  0.4863  0.6957
   84SOPE   HN3 7725   5.677   4.108   2.893 -1.3762 -1.0790  0.0903
   84SOPE   C12 7726   5.583   4.233   3.037 -0.2540 -0.2901 -0.3673
   84SOPE  H12A 7727   5.578   4.304   2.953  2.4627  0.5409  0.0666
   84SOPE  H12B 7728   5.634   4.274   3.127  0.8134 -1.8383 -0.2210
   84SOPE   C11 7729   5.440   4.189   3.086 -0.1734 -0.2586 -0.4644
   84SOPE  H11A 7730   5.385   4.160   2.995  1.4914 -0.5926 -1.4098
   84SOPE  H11B 7731   5.403   4.288   3.122 -0.6338  0.6009 -3.0618
   84SOPE     P 7732   5.416   4.109   3.333  0.0227 -0.2238 -0.2689
   84SOPE   O13 7733   5.439   3.981   3.409 -0.4385 -0.0095 -0.5226
   84SOPE   O14 7734   5.287   4.182   3.353 -0.1603 -0.1534  0.1396
   84SOPE   O12 7735   5.442   4.085   3.180 -0.0940 -0.3333  0.2352
   84SOPE   O11 7736   5.528   4.214   3.366  0.0885  0.0173 -0.0406
   84SOPE    C1 7737   5.492   4.350   3.411 -0.7236 -0.3005  0.1371
   84SOPE    HA 7738   5.389   4.384   3.387 -2.1019 -2.1834  2.8715
   84SOPE    HB 7739   5.560   4.423   3.361 -1.5649 -0.8577 -1.8742
   84SOPE    C2 7740   5.497   4.381   3.569  0.1968  0.3026  0.2869
   84SOPE    HS 7741   5.472   4.486   3.591  1.1128  0.4172  0.8380
   84SOPE   O21 7742   5.623   4.340   3.616 -0.8266 -0.5603  0.0470
   84SOPE   C21 7743   5.725   4.424   3.591  0.4664  0.3298  0.1853
   84SOPE   O22 7744   5.713   4.526   3.523 -0.3865 -0.3264  0.0372
   84SOPE   C22 7745   5.846   4.385   3.671 -0.1428 -0.5561 -0.3218
   84SOPE   H2R 7746   5.928   4.418   3.602  0.1635 -3.5280 -1.5621
   84SOPE   H2S 7747   5.854   4.277   3.697  2.2075  0.1661  2.4876
   84SOPE    C3 7748   5.387   4.301   3.644 -0.0194  0.1135 -0.7094
   84SOPE    HX 7749   5.405   4.192   3.634  0.8465  0.2941 -1.1965
   84SOPE    HY 7750   5.297   4.328   3.584  0.7216  0.1377 -1.8316
   84SOPE   O31 7751   5.380   4.331   3.786 -0.1018  0.1430  0.3060
   84SOPE   C31 7752   5.288   4.272   3.847 -0.1669 -0.9152  0.5737
   84SOPE   O32 7753   5.203   4.201   3.801 -0.0732  0.3333  0.4690
   84SOPE   C32 7754   5.305   4.295   3.995  0.0434  0.2760  0.0674
   84SOPE   H2X 7755   5.308   4.400   4.031 -2.2659 -0.7157  3.6950
   84SOPE   H2Y 7756   5.398   4.238   4.017 -1.7146 -3.5856 -1.5427
   84SOPE   C23 7757   5.854   4.481   3.796 -0.7146 -0.2456 -0.2891
   84SOPE   H3R 7758   5.818   4.582   3.765 -0.3731 -0.0926 -0.1852
   84SOPE   H3S 7759   5.957   4.502   3.832 -0.6016  0.5417 -1.0384
   84SOPE   C24 7760   5.763   4.440   3.911 -0.3914 -0.2506 -0.0905
   84SOPE   H4R 7761   5.663   4.427   3.865 -0.7285  1.4096  0.1069
   84SOPE   H4S 7762   5.794   4.343   3.956  0.1515  0.7991  1.9551
   84SOPE   C25 7763   5.744   4.540   4.022  0.2265  0.2450  0.7758
   84SOPE   H5R 7764   5.839   4.574   4.069  0.5443  1.0747 -0.4130
   84SOPE   H5S 7765   5.700   4.636   3.985  0.1771  0.6821  1.9232
   84SOPE   C26 7766   5.646   4.469   4.126  0.2737 -0.8741  0.4773
   84SOPE   H6R 7767   5.545   4.448   4.085  0.0513  0.1747  0.4636
   84SOPE   H6S 7768   5.694   4.377   4.165  1.4902 -0.2763  0.4215
   84SOPE   C27 7769   5.636   4.554   4.254  0.4026 -0.0610  0.9455
   84SOPE   H7R 7770   5.740   4.558   4.294  0.5255 -0.1749  0.6379
   84SOPE   H7S 7771   5.597   4.655   4.230 -0.2798 -0.0236  2.0841
   84SOPE   C28 7772   5.545   4.493   4.361 -0.6922 -0.0010  0.2227
   84SOPE   H8R 7773   5.494   4.573   4.418 -4.0308  0.4361 -2.9719
   84SOPE   H8S 7774   5.463   4.431   4.318 -0.2950 -2.2020  2.4324
   84SOPE   C29 7775   5.634   4.409   4.452 -0.3326  0.5289 -0.0385
   84SOPE   H91 7776   5.653   4.308   4.410  0.5946  0.4740  0.4914
   84SOPE  C210 7777   5.688   4.442   4.570  0.6831 -0.0486  0.7889
   84SOPE  H101 7778   5.767   4.378   4.612  0.4704 -0.1009  1.1138
   84SOPE  C211 7779   5.663   4.571   4.645 -0.1842  0.8820 -0.1097
   84SOPE  H11R 7780   5.570   4.615   4.603 -0.9063 -0.7387 -0.2832
   84SOPE  H11S 7781   5.753   4.636   4.636 -0.2957  1.0339 -0.1215
   84SOPE  C212 7782   5.633   4.541   4.796  0.1531  0.2902  0.4917
   84SOPE  H12R 7783   5.552   4.467   4.813 -0.6664  1.1308  0.3355
   84SOPE  H12S 7784   5.595   4.626   4.857 -0.0272  0.3748  0.2648
   84SOPE  C213 7785   5.759   4.481   4.869 -0.2111 -0.5587  0.1465
   84SOPE  H13R 7786   5.842   4.556   4.866 -1.0099  0.3499  0.2894
   84SOPE  H13S 7787   5.800   4.387   4.825 -0.6514 -0.5082 -0.3774
   84SOPE  C214 7788   5.729   4.466   5.022  0.4399 -0.1211 -0.1237
   84SOPE  H14R 7789   5.648   4.392   5.038 -0.3356  0.6683 -0.2976
   84SOPE  H14S 7790   5.710   4.565   5.070  0.0848 -0.1943 -0.1086
   84SOPE  C215 7791   5.846   4.403   5.092  0.2039 -0.1136 -0.0848
   84SOPE  H15R 7792   5.932   4.473   5.086  0.8819 -1.0313 -2.4392
   84SOPE  H15S 7793   5.883   4.314   5.036 -0.7781 -0.9586  0.5837
   84SOPE  C216 7794   5.815   4.355   5.237  0.3233 -0.0212 -0.8787
   84SOPE  H16R 7795   5.713   4.312   5.233 -0.2510  0.9512  1.6692
   84SOPE  H16S 7796   5.804   4.448   5.296  3.4051 -0.0302 -0.1196
   84SOPE  C217 7797   5.923   4.260   5.301 -0.0138 -0.2485  0.0703
   84SOPE  H17R 7798   6.020   4.313   5.291 -0.6085  0.5736 -1.7545
   84SOPE  H17S 7799   5.928   4.178   5.226  0.7439  0.2240 -0.4213
   84SOPE  C218 7800   5.888   4.201   5.436  0.0121 -0.1696  0.3760
   84SOPE  H18R 7801   5.855   4.096   5.421  1.0223 -0.4235 -0.1870
   84SOPE  H18S 7802   5.809   4.258   5.491 -0.9589 -2.5758  1.6459
   84SOPE  H18T 7803   5.973   4.197   5.508 -0.5128 -1.8695  0.9484
   84SOPE   C33 7804   5.193   4.233   4.080  0.7075  0.2069 -0.6786
   84SOPE   H3X 7805   5.174   4.126   4.056 -0.9839  0.0402  1.1253
   84SOPE   H3Y 7806   5.094   4.281   4.069 -0.7309 -2.5029 -0.4359
   84SOPE   C34 7807   5.230   4.234   4.233 -0.3463 -0.4555  0.9769
   84SOPE   H4X 7808   5.236   4.343   4.257 -1.0477 -0.2024  0.0547
   84SOPE   H4Y 7809   5.331   4.194   4.254 -0.3070 -1.7719 -1.4242
   84SOPE   C35 7810   5.140   4.148   4.331  0.0884 -0.4026 -1.0012
   84SOPE   H5X 7811   5.166   4.040   4.319 -3.8182 -1.7400  0.7404
   84SOPE   H5Y 7812   5.038   4.178   4.298  0.7363  1.6209 -1.2505
   84SOPE   C36 7813   5.149   4.182   4.480 -0.2871  0.2187 -0.8789
   84SOPE   H6X 7814   5.158   4.292   4.491  1.9552 -0.0835  1.1415
   84SOPE   H6Y 7815   5.247   4.164   4.530 -3.1282 -2.3819  4.6505
   84SOPE   C37 7816   5.026   4.127   4.558 -0.6326  0.4894 -0.0861
   84SOPE   H7X 7817   5.015   4.020   4.529  0.5648  0.2079  0.4184
   84SOPE   H7Y 7818   4.934   4.180   4.525 -1.6420 -1.3706 -0.4230
   84SOPE   C38 7819   5.048   4.146   4.705 -0.2771 -0.0581 -0.5144
   84SOPE   H8X 7820   5.074   4.251   4.729  1.2058 -0.3499 -0.6915
   84SOPE   H8Y 7821   5.124   4.078   4.750 -0.9649  0.2769  1.2122
   84SOPE   C39 7822   4.921   4.121   4.788 -0.6656  0.3294 -0.0806
   84SOPE   H9X 7823   4.891   4.014   4.784  1.1187 -0.2319  0.6998
   84SOPE   H9Y 7824   4.841   4.187   4.748 -0.3039  0.8419  0.0273
   84SOPE  C310 7825   4.933   4.162   4.938  0.8197  0.0444 -0.1060
   84SOPE  H10X 7826   4.990   4.257   4.945  1.7270 -0.5759  1.4890
   84SOPE  H10Y 7827   4.994   4.088   4.995  0.8754 -0.1205 -0.3752
   84SOPE  C311 7828   4.791   4.184   5.005 -0.3718  0.3410 -0.7777
   84SOPE  H11X 7829   4.739   4.087   4.988  1.1120 -0.3689 -1.4142
   84SOPE  H11Y 7830   4.749   4.271   4.950  1.0379  0.2725 -2.0246
   84SOPE  C312 7831   4.804   4.206   5.160 -0.1438 -0.1535  0.0144
   84SOPE  H12X 7832   4.870   4.131   5.208 -0.0526 -0.1259 -0.0665
   84SOPE  H12Y 7833   4.699   4.210   5.195 -0.1991  0.2126 -0.1877
   84SOPE  C313 7834   4.855   4.346   5.203  0.4514  0.0376  1.2488
   84SOPE  H13X 7835   4.783   4.421   5.163 -0.2290 -0.5864  1.2873
   84SOPE  H13Y 7836   4.954   4.372   5.161 -0.2228  1.9824  0.7413
   84SOPE  C314 7837   4.863   4.363   5.356 -0.2596 -0.2653 -0.1744
   84SOPE  H14X 7838   4.902   4.269   5.401  0.9496  0.9122  1.3780
   84SOPE  H14Y 7839   4.765   4.371   5.408 -0.2295  0.0230 -0.1575
   84SOPE  C315 7840   4.953   4.479   5.406 -0.5891  0.6064 -0.2096
   84SOPE  H15X 7841   4.918   4.571   5.354  0.4784  0.5429 -1.0850
   84SOPE  H15Y 7842   5.059   4.460   5.377 -0.7144  0.9713 -0.9372
   84SOPE  C316 7843   4.952   4.498   5.558 -0.0838  0.1782  0.0890
   84SOPE  H16X 7844   4.855   4.545   5.586  0.8353  2.0332  0.3255
   84SOPE  H16Y 7845   5.036   4.563   5.590 -1.3332  1.8460  0.1520
   84SOPE  C317 7846   4.985   4.370   5.636  0.1372  0.8413  0.0336
   84SOPE  H17X 7847   5.082   4.324   5.608 -0.6158 -1.3698  0.8567
   84SOPE  H17Y 7848   4.905   4.294   5.623  1.6012 -0.6358 -0.7228
   84SOPE  C318 7849   4.992   4.402   5.793  0.2819 -0.0021  0.2957
   84SOPE  H18X 7850   4.890   4.430   5.826  0.2706  0.4869 -0.1501
   84SOPE  H18Y 7851   5.062   4.484   5.817  0.3045  0.3508 -0.8964
   84SOPE  H18Z 7852   5.031   4.313   5.847  0.9514 -0.8973 -1.5700
   85SOPE     N 7853   1.875   1.527   3.008  0.0847  0.0642 -0.2956
   85SOPE   HN1 7854   1.858   1.565   2.913 -2.3304 -0.1959 -0.0096
   85SOPE   HN2 7855   1.805   1.450   3.011 -1.1308  1.1576  0.3686
   85SOPE   HN3 7856   1.837   1.595   3.076  1.0777  0.0543  0.2897
   85SOPE   C12 7857   2.015   1.479   3.042 -0.0687 -0.3245  0.0723
   85SOPE  H12A 7858   1.993   1.425   3.136 -0.5385  0.4908  0.4424
   85SOPE  H12B 7859   2.081   1.568   3.057  0.7753 -0.7127 -1.1783
   85SOPE   C11 7860   2.078   1.387   2.939  0.5736 -0.1919  0.5994
   85SOPE  H11A 7861   2.163   1.332   2.984  0.9153  0.7799  1.1605
   85SOPE  H11B 7862   2.118   1.453   2.859 -2.4208  0.3421 -0.6090
   85SOPE     P 7863   2.000   1.147   2.846 -0.6146  0.1649 -0.2370
   85SOPE   O13 7864   2.091   1.139   2.728  0.6581 -0.1208  0.6200
   85SOPE   O14 7865   1.863   1.087   2.822 -0.0932 -0.2694 -0.8384
   85SOPE   O12 7866   1.977   1.300   2.889 -0.2518 -0.6251 -0.3700
   85SOPE   O11 7867   2.082   1.090   2.969  0.3750  0.4522  0.1463
   85SOPE    C1 7868   2.032   1.088   3.105  0.4678  0.4220 -0.1487
   85SOPE    HA 7869   1.975   1.179   3.133 -0.1071 -0.0323  0.1935
   85SOPE    HB 7870   2.123   1.092   3.169  0.5613  2.3233 -0.3477
   85SOPE    C2 7871   1.968   0.949   3.138 -0.4438 -0.1807  0.3089
   85SOPE    HS 7872   1.868   0.950   3.088  0.6950  0.6846 -2.1223
   85SOPE   O21 7873   1.961   0.942   3.281 -0.2430  0.3663 -0.3837
   85SOPE   C21 7874   1.863   1.010   3.336  0.4246 -0.4235 -0.0160
   85SOPE   O22 7875   1.775   1.071   3.281  0.4289  0.5162 -0.1867
   85SOPE   C22 7876   1.871   1.001   3.485  0.1669 -0.1436 -0.3630
   85SOPE   H2R 7877   1.970   1.048   3.506  0.6410 -1.3483  0.2176
   85SOPE   H2S 7878   1.873   0.897   3.523 -0.4376 -0.0529 -0.0781
   85SOPE    C3 7879   2.054   0.837   3.071 -0.4855  0.2709  0.3341
   85SOPE    HX 7880   2.158   0.874   3.088 -1.3567  4.1117 -1.6617
   85SOPE    HY 7881   2.041   0.839   2.961  1.6576  0.6293  0.0504
   85SOPE   O31 7882   2.009   0.707   3.122  0.1055  0.4233  0.0126
   85SOPE   C31 7883   2.107   0.644   3.183  0.8008  1.2064 -0.2218
   85SOPE   O32 7884   2.222   0.683   3.202 -0.3749 -0.0885 -0.7634
   85SOPE   C32 7885   2.056   0.505   3.217 -0.2391  1.1012  0.0410
   85SOPE   H2X 7886   2.008   0.457   3.129 -0.8034  0.2018  0.8168
   85SOPE   H2Y 7887   1.983   0.516   3.300 -1.3196 -1.2349 -0.5144
   85SOPE   C23 7888   1.768   1.081   3.570 -0.5908 -0.4797  0.1005
   85SOPE   H3R 7889   1.678   1.025   3.538 -0.2325 -0.6234 -0.6870
   85SOPE   H3S 7890   1.755   1.186   3.538 -1.5151 -0.8692 -0.8399
   85SOPE   C24 7891   1.780   1.065   3.720 -0.4509 -0.3689  0.3844
   85SOPE   H4R 7892   1.695   1.111   3.776 -1.7343 -0.1166 -1.6339
   85SOPE   H4S 7893   1.772   0.962   3.761  3.9686 -0.0763  2.4694
   85SOPE   C25 7894   1.908   1.123   3.778  0.7156  0.2585 -0.0504
   85SOPE   H5R 7895   1.997   1.064   3.748  0.4402 -0.0332 -0.3156
   85SOPE   H5S 7896   1.933   1.223   3.739  0.2572  0.0704 -0.8396
   85SOPE   C26 7897   1.910   1.130   3.931 -0.1422 -0.7860  0.0675
   85SOPE   H6R 7898   2.005   1.173   3.969 -0.0039 -0.1518 -0.9693
   85SOPE   H6S 7899   1.818   1.189   3.950 -0.0858 -0.9849  1.0441
   85SOPE   C27 7900   1.909   0.988   4.001 -1.1316  1.1375 -0.8894
   85SOPE   H7R 7901   1.912   1.000   4.111 -0.8253 -0.6475 -0.6600
   85SOPE   H7S 7902   1.810   0.948   3.970  0.1184 -0.5897 -3.0235
   85SOPE   C28 7903   2.027   0.891   3.971 -1.0481  0.0419 -0.0125
   85SOPE   H8R 7904   2.005   0.797   4.025  1.3627  0.6005  2.1371
   85SOPE   H8S 7905   2.014   0.863   3.864 -1.9799  0.9316 -0.1540
   85SOPE   C29 7906   2.163   0.950   4.007 -0.0367  0.2932 -0.1936
   85SOPE   H91 7907   2.175   1.057   3.989  0.4489  0.0851 -1.1837
   85SOPE  C210 7908   2.262   0.881   4.052 -0.7857  0.4376 -0.3684
   85SOPE  H101 7909   2.352   0.939   4.078  2.3315 -2.4769 -3.5161
   85SOPE  C211 7910   2.263   0.732   4.077  0.1872  0.5451 -0.8117
   85SOPE  H11R 7911   2.201   0.674   4.006 -2.7540  0.5770  1.5036
   85SOPE  H11S 7912   2.212   0.717   4.175 -2.0743 -1.7336 -2.2260
   85SOPE  C212 7913   2.403   0.677   4.098 -0.4803 -0.2769  0.2043
   85SOPE  H12R 7914   2.459   0.681   4.002 -1.3177 -1.9803 -0.4111
   85SOPE  H12S 7915   2.398   0.566   4.111  0.9916 -0.3806  0.0232
   85SOPE  C213 7916   2.480   0.736   4.213 -0.1426 -0.5093  0.3111
   85SOPE  H13R 7917   2.513   0.840   4.190 -1.2401 -0.0555  0.7386
   85SOPE  H13S 7918   2.570   0.674   4.229  1.0969  0.7376 -1.3796
   85SOPE  C214 7919   2.402   0.738   4.350  0.2602 -0.0396  0.0028
   85SOPE  H14R 7920   2.349   0.644   4.377 -0.4378  0.3017 -0.1590
   85SOPE  H14S 7921   2.326   0.815   4.326  0.3974 -0.5701 -2.3490
   85SOPE  C215 7922   2.479   0.785   4.477 -0.0291  0.1723  0.6850
   85SOPE  H15R 7923   2.534   0.877   4.447 -0.2532  0.6677  1.7532
   85SOPE  H15S 7924   2.547   0.704   4.511 -3.5616 -3.2884  0.2292
   85SOPE  C216 7925   2.386   0.822   4.595 -0.2484  0.4374  0.0903
   85SOPE  H16R 7926   2.348   0.729   4.641  3.3675 -0.8842  0.7707
   85SOPE  H16S 7927   2.303   0.883   4.554 -1.5081 -0.7804  0.7520
   85SOPE  C217 7928   2.457   0.890   4.711 -0.7886  0.1313  0.5757
   85SOPE  H17R 7929   2.510   0.982   4.678  0.1910 -0.8304 -0.6900
   85SOPE  H17S 7930   2.540   0.827   4.749 -0.7451 -1.9005 -2.5070
   85SOPE  C218 7931   2.362   0.924   4.826  0.5364 -0.4351  0.3407
   85SOPE  H18R 7932   2.421   0.963   4.912  0.1835 -0.3100  0.5267
   85SOPE  H18S 7933   2.307   0.832   4.857 -0.4369 -0.4121 -1.2253
   85SOPE  H18T 7934   2.283   0.992   4.789  1.5287  0.5765  0.0358
   85SOPE   C33 7935   2.176   0.419   3.272 -0.5897  0.6995 -0.6634
   85SOPE   H3X 7936   2.234   0.465   3.354 -2.3181 -0.5348  1.3705
   85SOPE   H3Y 7937   2.243   0.396   3.187 -1.7024  1.4838 -1.7881
   85SOPE   C34 7938   2.131   0.286   3.333  0.3236  0.2801  0.4478
   85SOPE   H4X 7939   2.081   0.224   3.255  0.2548 -0.3584  0.9858
   85SOPE   H4Y 7940   2.058   0.296   3.416 -0.1316 -3.8729  0.7979
   85SOPE   C35 7941   2.249   0.203   3.392 -0.3894 -0.5495  0.5788
   85SOPE   H5X 7942   2.309   0.269   3.458  2.3946 -1.7037 -0.6687
   85SOPE   H5Y 7943   2.319   0.182   3.309 -0.5292 -0.3668  0.4141
   85SOPE   C36 7944   2.195   0.074   3.453 -0.1973 -0.2184 -0.0089
   85SOPE   H6X 7945   2.281   0.004   3.450  0.0654 -0.0956  2.6338
   85SOPE   H6Y 7946   2.115   0.023   3.396  1.1799 -1.0096 -1.2914
   85SOPE   C37 7947   2.156   0.095   3.602 -0.1178 -0.4208 -0.3612
   85SOPE   H7X 7948   2.069   0.164   3.594  1.2517  1.6452  1.3881
   85SOPE   H7Y 7949   2.233   0.159   3.650 -0.1150  0.5485 -1.6087
   85SOPE   C38 7950   2.115  -0.023   3.694  0.4117  0.5722  0.7021
   85SOPE   H8X 7951   2.198  -0.096   3.689  0.9533  1.1521  1.1890
   85SOPE   H8Y 7952   2.033  -0.087   3.654  0.0340  1.0246  0.7315
   85SOPE   C39 7953   2.087   0.019   3.835 -0.0878  0.1332  0.3044
   85SOPE   H9X 7954   2.002   0.090   3.832 -2.2805 -2.1310 -5.4097
   85SOPE   H9Y 7955   2.179   0.070   3.872 -0.5168  1.4940 -0.4483
   85SOPE  C310 7956   2.048  -0.102   3.929  0.2179  0.0162  0.6218
   85SOPE  H10X 7957   2.115  -0.186   3.899  2.0459  2.1993 -1.8997
   85SOPE  H10Y 7958   1.942  -0.127   3.906  0.1654  0.9155 -0.1905
   85SOPE  C311 7959   2.053  -0.048   4.071 -0.1015  0.4552  0.3567
   85SOPE  H11X 7960   1.971   0.025   4.090 -1.7173 -1.5349  1.3862
   85SOPE  H11Y 7961   2.150   0.004   4.085  0.9698 -1.5502  0.6962
   85SOPE  C312 7962   2.052  -0.155   4.180 -0.2131  0.3149 -0.0258
   85SOPE  H12X 7963   2.129  -0.232   4.157  1.5286  1.6973  0.9549
   85SOPE  H12Y 7964   1.958  -0.215   4.174 -0.5383  0.6687  1.2326
   85SOPE  C313 7965   2.065  -0.095   4.322 -0.1864 -0.0706  0.7634
   85SOPE  H13X 7966   1.983  -0.021   4.329 -0.3209 -0.0635 -0.5523
   85SOPE  H13Y 7967   2.161  -0.040   4.328 -0.2130 -0.0994  1.5945
   85SOPE  C314 7968   2.051  -0.195   4.432 -0.0747  0.7977 -0.4513
   85SOPE  H14X 7969   2.116  -0.284   4.416 -2.0438 -1.1626  1.6146
   85SOPE  H14Y 7970   1.946  -0.231   4.426 -0.0255  0.4197  0.7463
   85SOPE  C315 7971   2.096  -0.135   4.568  0.2133 -0.9000 -0.2604
   85SOPE  H15X 7972   2.075  -0.213   4.644 -0.6533 -0.0130  0.4403
   85SOPE  H15Y 7973   2.032  -0.045   4.578  0.6647 -0.3110 -2.2121
   85SOPE  C316 7974   2.242  -0.091   4.585  0.1499 -0.6951 -0.1429
   85SOPE  H16X 7975   2.247   0.001   4.524 -1.6547  0.4727  1.3610
   85SOPE  H16Y 7976   2.315  -0.161   4.539  3.2963  1.7888  0.7282
   85SOPE  C317 7977   2.282  -0.066   4.730  0.2142 -0.0222  0.0312
   85SOPE  H17X 7978   2.249  -0.156   4.786  0.7884 -0.4635 -0.3246
   85SOPE  H17Y 7979   2.221   0.024   4.754 -0.1773 -0.6935  1.6126
   85SOPE  C318 7980   2.425  -0.019   4.755  0.1447  0.7226  0.6116
   85SOPE  H18X 7981   2.483  -0.114   4.753  0.8745  1.1710 -0.1780
   85SOPE  H18Y 7982   2.435   0.027   4.856 -0.7520 -1.9071  1.9947
   85SOPE  H18Z 7983   2.447   0.056   4.676 -1.9736  2.1911  1.3170
   86SOPE     N 7984   5.050   4.231   3.245 -0.2592 -0.3516  0.2987
   86SOPE   HN1 7985   5.029   4.142   3.195 -0.8205  0.3926 -0.8302
   86SOPE   HN2 7986   5.053   4.298   3.166 -1.1541  0.1504  0.6759
   86SOPE   HN3 7987   5.145   4.218   3.285 -0.9021 -1.4403  1.5864
   86SOPE   C12 7988   4.957   4.276   3.350 -0.1712 -0.7214 -0.0648
   86SOPE  H12A 7989   5.016   4.347   3.411  2.6808 -2.4018 -0.6828
   86SOPE  H12B 7990   4.939   4.191   3.419 -1.2060  0.3632  1.0392
   86SOPE   C11 7991   4.834   4.333   3.279 -0.1064  0.6960  0.7082
   86SOPE  H11A 7992   4.869   4.423   3.224  0.2505  0.0522 -0.1408
   86SOPE  H11B 7993   4.769   4.371   3.361  1.1892  0.8311  1.7020
   86SOPE     P 7994   4.619   4.281   3.148  0.1221 -0.3983 -0.0229
   86SOPE   O13 7995   4.566   4.187   3.045 -0.0612 -0.0716 -0.7370
   86SOPE   O14 7996   4.627   4.416   3.097 -0.2212  0.6583  0.1744
   86SOPE   O12 7997   4.764   4.238   3.194  0.0899 -0.4322  0.3476
   86SOPE   O11 7998   4.548   4.288   3.287 -0.7713  0.2677 -0.0774
   86SOPE    C1 7999   4.491   4.188   3.364 -0.6977  0.0368  0.9451
   86SOPE    HA 8000   4.573   4.124   3.405  1.0900  2.2971  1.0897
   86SOPE    HB 8001   4.422   4.124   3.306 -0.5409  0.7788 -0.0759
   86SOPE    C2 8002   4.417   4.253   3.488  0.1605 -0.0953  1.2675
   86SOPE    HS 8003   4.323   4.297   3.449 -0.2540 -1.6851  0.3428
   86SOPE   O21 8004   4.507   4.336   3.549 -0.2547  0.6415  0.1279
   86SOPE   C21 8005   4.472   4.459   3.577  0.3739 -0.3235 -0.1658
   86SOPE   O22 8006   4.360   4.510   3.564 -0.5612 -0.6828  0.4516
   86SOPE   C22 8007   4.600   4.525   3.624 -0.5329  0.0711  0.9754
   86SOPE   H2R 8008   4.662   4.544   3.534 -0.7137  0.6931  0.9788
   86SOPE   H2S 8009   4.655   4.452   3.687  0.7332 -0.2646 -0.4578
   86SOPE    C3 8010   4.378   4.148   3.591 -0.5879 -0.2483  0.7285
   86SOPE    HX 8011   4.467   4.090   3.623 -1.1267 -2.2100 -1.0730
   86SOPE    HY 8012   4.314   4.073   3.538 -0.7757 -0.6513  1.5111
   86SOPE   O31 8013   4.318   4.213   3.701  0.8719  0.1039  0.1003
   86SOPE   C31 8014   4.185   4.212   3.697 -0.0488  0.0070  0.4043
   86SOPE   O32 8015   4.118   4.177   3.601  0.5964  0.0864  0.6731
   86SOPE   C32 8016   4.128   4.287   3.821 -0.1666  0.1149 -0.0109
   86SOPE   H2X 8017   4.035   4.339   3.790 -0.8915 -0.8294  0.5421
   86SOPE   H2Y 8018   4.202   4.358   3.866  0.2340  0.2123 -0.8118
   86SOPE   C23 8019   4.578   4.662   3.700  1.0097  0.5396  0.7782
   86SOPE   H3R 8020   4.527   4.738   3.637  2.2986  1.2225  0.5334
   86SOPE   H3S 8021   4.679   4.698   3.726  1.0340 -0.1929  1.7312
   86SOPE   C24 8022   4.495   4.643   3.839 -0.5533  0.1056  0.0738
   86SOPE   H4R 8023   4.479   4.746   3.878  0.2510 -0.7296  2.8530
   86SOPE   H4S 8024   4.396   4.605   3.805  1.4920 -2.1341 -4.0937
   86SOPE   C25 8025   4.564   4.553   3.939  0.6306  0.3000 -0.2628
   86SOPE   H5R 8026   4.578   4.453   3.893  0.0170 -0.3171  0.8575
   86SOPE   H5S 8027   4.664   4.596   3.963  0.0036  1.9249 -0.3856
   86SOPE   C26 8028   4.480   4.522   4.071 -0.2099  0.1693 -0.5306
   86SOPE   H6R 8029   4.455   4.614   4.127  0.1654 -0.1907  0.2518
   86SOPE   H6S 8030   4.378   4.487   4.047 -0.3149  1.5525 -2.2973
   86SOPE   C27 8031   4.549   4.416   4.164  0.7180 -0.6059 -0.5926
   86SOPE   H7R 8032   4.560   4.320   4.110 -1.2407 -1.1918 -0.0136
   86SOPE   H7S 8033   4.642   4.469   4.196 -0.8210  1.2940  0.9472
   86SOPE   C28 8034   4.463   4.390   4.296 -0.7490 -0.6423 -0.1366
   86SOPE   H8R 8035   4.376   4.340   4.247  0.1466  0.8698 -3.5390
   86SOPE   H8S 8036   4.522   4.326   4.365  0.6865  1.7347  0.9715
   86SOPE   C29 8037   4.396   4.503   4.376  0.0273 -0.1910 -0.2070
   86SOPE   H91 8038   4.343   4.578   4.315  1.9522  0.6832 -0.9006
   86SOPE  C210 8039   4.424   4.538   4.500 -0.5601 -0.4706 -0.6605
   86SOPE  H101 8040   4.362   4.613   4.552  2.4438  1.7898 -0.0507
   86SOPE  C211 8041   4.509   4.477   4.608 -0.2941  0.6935 -0.2134
   86SOPE  H11R 8042   4.566   4.561   4.655  0.5099  1.4597 -2.4395
   86SOPE  H11S 8043   4.585   4.412   4.560  0.5078 -0.4579  2.3953
   86SOPE  C212 8044   4.415   4.404   4.700 -0.1454 -0.0458 -0.5464
   86SOPE  H12R 8045   4.379   4.321   4.635 -0.6817  0.7301 -1.2738
   86SOPE  H12S 8046   4.324   4.457   4.736 -0.1916 -0.8751  0.6013
   86SOPE  C213 8047   4.490   4.364   4.830  0.0652 -0.8022 -0.0338
   86SOPE  H13R 8048   4.533   4.450   4.885  0.6594 -1.7502  1.0238
   86SOPE  H13S 8049   4.573   4.293   4.808  1.9838  1.0901  0.7508
   86SOPE  C214 8050   4.396   4.297   4.940  0.1618 -0.1683  0.4014
   86SOPE  H14R 8051   4.333   4.216   4.898  0.2620 -0.1339  0.1806
   86SOPE  H14S 8052   4.324   4.375   4.972 -1.7861 -2.6334  2.4530
   86SOPE  C215 8053   4.475   4.255   5.067  0.4783 -0.5536  0.5489
   86SOPE  H15R 8054   4.541   4.342   5.083  0.0620 -0.0891 -0.2234
   86SOPE  H15S 8055   4.548   4.174   5.045 -0.3769 -0.8456 -1.5019
   86SOPE  C216 8056   4.381   4.236   5.176  0.5532 -0.4933 -0.1316
   86SOPE  H16R 8057   4.305   4.165   5.137  2.2642 -1.8937 -1.0275
   86SOPE  H16S 8058   4.330   4.329   5.211  0.8963 -0.2614 -0.2376
   86SOPE  C217 8059   4.449   4.180   5.301  0.2236 -0.2538  0.0148
   86SOPE  H17R 8060   4.510   4.268   5.331  1.3556 -1.4473  1.3371
   86SOPE  H17S 8061   4.513   4.092   5.283 -0.5592 -0.8297 -0.0264
   86SOPE  C218 8062   4.350   4.134   5.414 -0.3724  0.4359 -0.3257
   86SOPE  H18R 8063   4.395   4.119   5.514 -1.6264  0.9445  0.3448
   86SOPE  H18S 8064   4.298   4.042   5.379  2.2121 -0.8658 -0.9765
   86SOPE  H18T 8065   4.272   4.213   5.429  1.7198  2.6780 -0.6155
   86SOPE   C33 8066   4.096   4.186   3.944  0.4036  0.7123  0.3410
   86SOPE   H3X 8067   4.194   4.138   3.963 -0.7356 -2.1744 -0.5205
   86SOPE   H3Y 8068   4.021   4.108   3.917  2.1261  0.2679 -3.8061
   86SOPE   C34 8069   4.061   4.250   4.074 -0.1540 -0.1601  0.7382
   86SOPE   H4X 8070   3.966   4.308   4.072 -0.8757 -1.3013  0.5067
   86SOPE   H4Y 8071   4.130   4.334   4.095 -1.6632  1.4994 -0.5859
   86SOPE   C35 8072   4.064   4.151   4.197  0.3984  0.3838  0.2656
   86SOPE   H5X 8073   4.150   4.082   4.202 -1.0920 -1.5600  0.5625
   86SOPE   H5Y 8074   3.973   4.086   4.189 -0.5987  1.5918  1.3735
   86SOPE   C36 8075   4.044   4.207   4.331  0.3059 -0.5171 -0.3096
   86SOPE   H6X 8076   3.944   4.253   4.347  0.5672 -0.2507  0.6514
   86SOPE   H6Y 8077   4.111   4.296   4.335 -1.8945  1.3541 -2.2290
   86SOPE   C37 8078   4.073   4.114   4.445  0.1945 -0.1578  0.1910
   86SOPE   H7X 8079   4.178   4.078   4.451  0.6278  0.9362 -0.4302
   86SOPE   H7Y 8080   4.002   4.030   4.433 -0.8000  0.8314 -1.1009
   86SOPE   C38 8081   4.039   4.201   4.575 -0.5579 -0.1933 -0.1554
   86SOPE   H8X 8082   3.930   4.219   4.565 -0.2796  0.7721 -1.8373
   86SOPE   H8Y 8083   4.094   4.297   4.580  0.0046 -0.3805 -1.9462
   86SOPE   C39 8084   4.071   4.120   4.698  0.2808  0.0067 -0.0949
   86SOPE   H9X 8085   4.180   4.113   4.715  0.0871  2.3462  3.2628
   86SOPE   H9Y 8086   4.029   4.019   4.680 -0.3599  0.6252 -2.3270
   86SOPE  C310 8087   4.021   4.176   4.835  0.0097  0.1646 -0.0858
   86SOPE  H10X 8088   3.912   4.198   4.828 -0.0135  0.0446 -0.0995
   86SOPE  H10Y 8089   4.074   4.273   4.846 -2.4529  1.4643  1.3161
   86SOPE  C311 8090   4.047   4.093   4.964  0.0279  0.2524 -0.4225
   86SOPE  H11X 8091   4.156   4.089   4.985 -0.2430 -0.8126  0.8868
   86SOPE  H11Y 8092   4.013   3.990   4.941 -2.7957  1.5902 -2.9399
   86SOPE  C312 8093   3.979   4.169   5.076 -0.3439 -0.1380  0.4352
   86SOPE  H12X 8094   3.871   4.167   5.051 -0.0080 -1.3944 -1.0876
   86SOPE  H12Y 8095   4.015   4.274   5.076 -1.5799  0.3331 -0.9484
   86SOPE  C313 8096   3.988   4.091   5.209  0.0597  0.7439 -0.0112
   86SOPE  H13X 8097   4.091   4.077   5.250 -0.3872  0.4590  1.0618
   86SOPE  H13Y 8098   3.937   3.993   5.195  0.2967  0.8475 -1.7256
   86SOPE  C314 8099   3.919   4.173   5.321  0.8492 -0.2425  0.0395
   86SOPE  H14X 8100   3.817   4.199   5.287  0.9123  1.5836  1.0958
   86SOPE  H14Y 8101   3.974   4.269   5.310 -1.1276  0.7846 -1.5604
   86SOPE  C315 8102   3.910   4.123   5.465  0.1006  0.0302 -0.8797
   86SOPE  H15X 8103   3.865   4.202   5.529  1.8239  0.7672 -0.5106
   86SOPE  H15Y 8104   4.018   4.116   5.490  0.0009 -0.8622 -0.6945
   86SOPE  C316 8105   3.819   4.001   5.493  0.0795 -0.3078 -0.0555
   86SOPE  H16X 8106   3.835   3.973   5.599 -0.1798  2.4712  0.7774
   86SOPE  H16Y 8107   3.852   3.920   5.424  1.9632  0.1060  0.2807
   86SOPE  C317 8108   3.665   4.016   5.465 -0.6417 -0.5667  0.4989
   86SOPE  H17X 8109   3.618   3.917   5.484 -0.6616 -0.7351 -0.4017
   86SOPE  H17Y 8110   3.648   4.038   5.358  1.4626 -1.0445  0.0212
   86SOPE  C318 8111   3.605   4.123   5.551  0.6127  0.3926  0.3692
   86SOPE  H18X 8112   3.496   4.108   5.535  0.8292 -2.7337  1.0936
   86SOPE  H18Y 8113   3.631   4.227   5.524 -0.6565  0.6219 -0.0255
   86SOPE  H18Z 8114   3.625   4.110   5.660 -1.0767  1.0023  0.7807
   87SOPE     N 8115   3.540   2.705   2.931 -0.5400  0.5393  0.3755
   87SOPE   HN1 8116   3.475   2.785   2.947  0.9618  2.0890 -0.9131
   87SOPE   HN2 8117   3.612   2.754   2.875  1.5272 -1.3787  1.2086
   87SOPE   HN3 8118   3.490   2.645   2.862  0.4521  2.6677 -2.3966
   87SOPE   C12 8119   3.589   2.636   3.051  0.1510  0.4341 -0.5306
   87SOPE  H12A 8120   3.669   2.565   3.023  0.3372  2.0913 -4.9817
   87SOPE  H12B 8121   3.505   2.575   3.091  0.4562 -0.1886 -0.8348
   87SOPE   C11 8122   3.633   2.741   3.150  0.2464  0.2879 -0.1816
   87SOPE  H11A 8123   3.659   2.692   3.246 -0.4437 -1.3365 -0.7907
   87SOPE  H11B 8124   3.546   2.810   3.161  0.1330  0.0665  0.3512
   87SOPE     P 8125   3.781   2.958   3.145 -0.2789 -0.4944  0.1975
   87SOPE   O13 8126   3.664   3.038   3.123  0.1795 -1.1198  0.8016
   87SOPE   O14 8127   3.908   3.000   3.075 -0.0246 -0.7833  0.1720
   87SOPE   O12 8128   3.749   2.806   3.102  0.7006  0.6017 -0.1484
   87SOPE   O11 8129   3.801   2.957   3.296 -0.1540 -0.2491 -0.7226
   87SOPE    C1 8130   3.884   2.859   3.359 -0.2468 -0.2165  0.5110
   87SOPE    HA 8131   3.965   2.820   3.294 -0.4969 -0.1956  0.1898
   87SOPE    HB 8132   3.815   2.782   3.401 -0.7759  0.3015  0.5954
   87SOPE    C2 8133   3.957   2.934   3.478 -0.2363 -0.2743 -0.4198
   87SOPE    HS 8134   4.025   2.860   3.524 -1.8690 -1.9526 -0.5845
   87SOPE   O21 8135   3.867   2.982   3.583 -0.3433 -0.1461  0.7020
   87SOPE   C21 8136   3.812   2.893   3.655  0.7306 -0.0535 -0.2010
   87SOPE   O22 8137   3.838   2.777   3.667 -0.4179 -0.5915  0.5592
   87SOPE   C22 8138   3.678   2.952   3.705  0.0887 -0.4359 -0.2590
   87SOPE   H2R 8139   3.614   2.962   3.616  1.2223  0.1251 -1.0325
   87SOPE   H2S 8140   3.695   3.052   3.751  0.8367 -0.1523 -1.1344
   87SOPE    C3 8141   4.051   3.040   3.421  0.4620  0.5526 -0.6762
   87SOPE    HX 8142   3.989   3.129   3.400 -0.1978  0.2198 -0.1623
   87SOPE    HY 8143   4.094   2.999   3.327  2.2945 -0.7904  0.6696
   87SOPE   O31 8144   4.163   3.055   3.516 -0.0694 -0.2753 -0.0077
   87SOPE   C31 8145   4.241   3.158   3.479 -0.3180  0.4099  0.1905
   87SOPE   O32 8146   4.244   3.223   3.375 -0.1143  0.1821  0.3228
   87SOPE   C32 8147   4.336   3.183   3.596  0.1740 -0.4367  0.1391
   87SOPE   H2X 8148   4.426   3.119   3.589 -1.1114 -2.2724 -0.3309
   87SOPE   H2Y 8149   4.290   3.143   3.689  1.7172 -0.6157  0.8600
   87SOPE   C23 8150   3.604   2.859   3.807 -0.1785  0.1634  0.5809
   87SOPE   H3R 8151   3.626   2.753   3.784  0.5690 -0.2079  2.7874
   87SOPE   H3S 8152   3.493   2.858   3.800 -0.1953 -1.6789  0.8050
   87SOPE   C24 8153   3.641   2.899   3.953  0.4978  0.4911 -0.7159
   87SOPE   H4R 8154   3.748   2.930   3.954 -0.0068  2.5318  1.9970
   87SOPE   H4S 8155   3.584   2.989   3.986 -1.7356 -0.6442 -1.3136
   87SOPE   C25 8156   3.608   2.785   4.054  0.5726  0.1012  0.6532
   87SOPE   H5R 8157   3.603   2.817   4.160 -2.8390  0.4384  0.4871
   87SOPE   H5S 8158   3.510   2.738   4.036  2.0648 -2.4662 -1.4725
   87SOPE   C26 8159   3.721   2.677   4.037  0.0917  0.9433  0.1344
   87SOPE   H6R 8160   3.711   2.623   3.941  0.0352 -1.8692  1.6372
   87SOPE   H6S 8161   3.820   2.723   4.059 -0.4650  1.4212  1.7974
   87SOPE   C27 8162   3.709   2.564   4.144 -0.1686 -1.0505 -0.5352
   87SOPE   H7R 8163   3.602   2.541   4.163 -0.3328 -1.3951 -1.7757
   87SOPE   H7S 8164   3.758   2.473   4.103 -0.7772 -1.4792 -0.3349
   87SOPE   C28 8165   3.774   2.615   4.282  0.8053  0.2566  0.3508
   87SOPE   H8R 8166   3.881   2.638   4.266  1.3868 -2.0103  0.7210
   87SOPE   H8S 8167   3.729   2.714   4.306 -0.5902 -0.3038  0.1670
   87SOPE   C29 8168   3.773   2.519   4.388 -0.1252 -0.1658  0.1032
   87SOPE   H91 8169   3.765   2.421   4.339 -0.7348  0.7804 -1.7525
   87SOPE  C210 8170   3.794   2.538   4.519  0.3261 -0.2936 -0.3750
   87SOPE  H101 8171   3.771   2.460   4.592  1.9077  2.0441  2.8623
   87SOPE  C211 8172   3.840   2.667   4.569 -0.8457 -0.4328  0.5208
   87SOPE  H11R 8173   3.750   2.720   4.607 -1.5451 -0.4669 -1.0006
   87SOPE  H11S 8174   3.875   2.734   4.487 -0.2593  0.2086  1.2723
   87SOPE  C212 8175   3.943   2.678   4.677 -0.2560  0.3016 -0.2173
   87SOPE  H12R 8176   3.988   2.780   4.679 -0.6563  0.4828 -0.2757
   87SOPE  H12S 8177   4.021   2.601   4.660 -0.0516  0.5842 -0.5710
   87SOPE  C213 8178   3.886   2.670   4.823 -0.0666 -0.1498  0.1000
   87SOPE  H13R 8179   3.878   2.562   4.844 -1.1598 -0.2466 -0.7712
   87SOPE  H13S 8180   3.781   2.706   4.823  0.4532  1.5028 -0.4633
   87SOPE  C214 8181   3.972   2.741   4.922  0.0141 -0.5088 -0.7739
   87SOPE  H14R 8182   3.991   2.844   4.885  2.2227 -0.8460 -0.6824
   87SOPE  H14S 8183   4.070   2.693   4.940  0.8609  1.7473  1.2082
   87SOPE  C215 8184   3.906   2.762   5.064 -0.9163 -0.3531 -0.3197
   87SOPE  H15R 8185   3.800   2.787   5.045 -0.2600  2.1303 -1.1294
   87SOPE  H15S 8186   3.955   2.852   5.109  0.3928 -0.7194 -0.9491
   87SOPE  C216 8187   3.916   2.656   5.177  0.0512 -0.2521 -0.1347
   87SOPE  H16R 8188   3.862   2.704   5.262  1.7870  0.7780  0.4517
   87SOPE  H16S 8189   4.023   2.632   5.200 -0.3865 -2.5851 -0.3009
   87SOPE  C217 8190   3.850   2.519   5.150 -0.2629 -0.5143 -0.2865
   87SOPE  H17R 8191   3.899   2.469   5.063 -0.2626  1.4904 -1.5026
   87SOPE  H17S 8192   3.741   2.534   5.133 -0.3078  0.4547  0.7275
   87SOPE  C218 8193   3.860   2.420   5.272  0.1225  0.2389 -0.8051
   87SOPE  H18R 8194   3.799   2.464   5.354  0.5708 -0.9194  0.1874
   87SOPE  H18S 8195   3.967   2.406   5.298  0.0643 -0.4484 -0.9158
   87SOPE  H18T 8196   3.820   2.321   5.241 -0.0043  0.1213 -0.2770
   87SOPE   C33 8197   4.384   3.324   3.617 -0.9970  0.3301  0.1484
   87SOPE   H3X 8198   4.305   3.403   3.612  1.7840  3.3172 -0.5387
   87SOPE   H3Y 8199   4.447   3.351   3.529 -1.8924  2.0656 -0.0079
   87SOPE   C34 8200   4.464   3.336   3.741  0.4627 -0.0031 -0.2976
   87SOPE   H4X 8201   4.506   3.433   3.706 -1.2518  0.4916 -1.1007
   87SOPE   H4Y 8202   4.539   3.256   3.753 -0.5771 -0.9705 -0.1047
   87SOPE   C35 8203   4.365   3.347   3.868 -0.6682  0.0666  0.4203
   87SOPE   H5X 8204   4.317   3.247   3.879 -0.4284 -0.2040 -0.7805
   87SOPE   H5Y 8205   4.290   3.425   3.843  0.3012  0.3062 -2.0068
   87SOPE   C36 8206   4.445   3.369   3.999  0.8872  0.2631 -0.3879
   87SOPE   H6X 8207   4.486   3.472   4.009  0.3811  0.3847  0.5670
   87SOPE   H6Y 8208   4.530   3.297   3.999 -0.4332 -1.3947 -1.6628
   87SOPE   C37 8209   4.348   3.333   4.115  0.1167 -0.0606 -0.2999
   87SOPE   H7X 8210   4.312   3.230   4.097 -0.5339 -0.2094  1.6772
   87SOPE   H7Y 8211   4.258   3.398   4.108 -0.0819 -0.3206 -0.1797
   87SOPE   C38 8212   4.405   3.341   4.252  0.1773  0.3714  0.3685
   87SOPE   H8X 8213   4.441   3.444   4.270  0.7100  0.2339  0.1199
   87SOPE   H8Y 8214   4.490   3.270   4.247  0.1967  0.4741 -2.8281
   87SOPE   C39 8215   4.299   3.307   4.365 -0.4284  0.4417 -0.0477
   87SOPE   H9X 8216   4.277   3.198   4.357  2.4055 -0.1341 -1.2488
   87SOPE   H9Y 8217   4.208   3.367   4.343 -1.2027 -0.9710 -0.8771
   87SOPE  C310 8218   4.355   3.346   4.504  0.9212  0.4884 -0.2412
   87SOPE  H10X 8219   4.408   3.444   4.506  0.8191  0.5359  0.9068
   87SOPE  H10Y 8220   4.432   3.267   4.517  1.2780  0.9881  0.8194
   87SOPE  C311 8221   4.251   3.316   4.618 -1.0635 -0.2582  0.3702
   87SOPE  H11X 8222   4.197   3.223   4.590  0.8030 -1.3188  0.0471
   87SOPE  H11Y 8223   4.180   3.401   4.618 -0.6771  0.0746 -0.8239
   87SOPE  C312 8224   4.318   3.287   4.756  0.4684  0.2391  0.3244
   87SOPE  H12X 8225   4.381   3.371   4.794 -1.9084  1.9191  0.8242
   87SOPE  H12Y 8226   4.376   3.193   4.755 -0.9320 -0.6905  1.9414
   87SOPE  C313 8227   4.201   3.275   4.857  0.4949  0.2228 -0.5425
   87SOPE  H13X 8228   4.153   3.179   4.827 -1.0246  0.4017  1.1498
   87SOPE  H13Y 8229   4.118   3.347   4.843 -1.2895 -1.1169  2.2599
   87SOPE  C314 8230   4.256   3.263   5.008  0.2479 -0.1683  0.0278
   87SOPE  H14X 8231   4.352   3.208   5.006 -0.9635 -2.4114 -2.1296
   87SOPE  H14Y 8232   4.185   3.212   5.076 -1.9235  2.7037  0.1482
   87SOPE  C315 8233   4.274   3.395   5.082 -0.7037 -0.4433 -1.0420
   87SOPE  H15X 8234   4.175   3.443   5.100 -0.3273 -0.0118  0.0225
   87SOPE  H15Y 8235   4.318   3.470   5.012  0.1411 -0.6442 -0.7481
   87SOPE  C316 8236   4.366   3.399   5.210  0.4266 -0.2472  0.8286
   87SOPE  H16X 8237   4.353   3.499   5.256 -0.6349 -0.2709  0.5978
   87SOPE  H16Y 8238   4.473   3.384   5.186 -0.0778 -0.0711 -1.7335
   87SOPE  C317 8239   4.322   3.297   5.314 -0.3193  0.4820 -0.4995
   87SOPE  H17X 8240   4.338   3.191   5.284 -0.1070  0.6900 -1.1469
   87SOPE  H17Y 8241   4.212   3.298   5.322 -0.4770 -2.6630 -0.8675
   87SOPE  C318 8242   4.402   3.318   5.443 -0.5105 -0.2639 -0.0419
   87SOPE  H18X 8243   4.330   3.374   5.507  0.1709 -0.0414  0.5445
   87SOPE  H18Y 8244   4.494   3.375   5.414  0.3928 -0.9488  1.3868
   87SOPE  H18Z 8245   4.426   3.223   5.495 -1.9726 -0.1904  0.8222
   88SOPE     N 8246   0.102   3.206   2.585 -0.4149  0.2821 -0.4514
   88SOPE   HN1 8247   0.114   3.307   2.607 -1.1657  0.2448  0.1805
   88SOPE   HN2 8248   0.022   3.192   2.521  0.3222 -0.5648 -1.2138
   88SOPE   HN3 8249   0.075   3.169   2.679 -3.3747  2.2472 -0.3828
   88SOPE   C12 8250   0.227   3.154   2.533  0.8408  0.6814  0.2479
   88SOPE  H12A 8251   0.233   3.189   2.428 -1.0358  0.4597  0.0353
   88SOPE  H12B 8252   0.219   3.045   2.517 -0.2691  0.8025 -0.1033
   88SOPE   C11 8253   0.358   3.192   2.610 -0.0814 -0.5417 -0.1029
   88SOPE  H11A 8254   0.387   3.298   2.594  1.8803 -1.0800 -0.3902
   88SOPE  H11B 8255   0.442   3.143   2.555  0.3396 -1.6346  1.4606
   88SOPE     P 8256   0.464   3.209   2.855 -0.4200  0.3240 -0.2634
   88SOPE   O13 8257   0.591   3.255   2.791 -0.0534  0.2193  0.4338
   88SOPE   O14 8258   0.467   3.108   2.965 -0.0608 -0.0702 -0.3499
   88SOPE   O12 8259   0.367   3.143   2.748 -0.2748  0.3737  0.1986
   88SOPE   O11 8260   0.390   3.337   2.905  0.1010  0.0454  0.8245
   88SOPE    C1 8261   0.250   3.337   2.943  0.4969 -0.1222 -0.4017
   88SOPE    HA 8262   0.199   3.238   2.941  0.4845 -0.4209  3.8742
   88SOPE    HB 8263   0.197   3.405   2.874 -0.2443 -0.4858 -0.2042
   88SOPE    C2 8264   0.241   3.378   3.091 -0.1381  0.4165 -0.2000
   88SOPE    HS 8265   0.326   3.448   3.103  0.0284  0.6294 -2.2837
   88SOPE   O21 8266   0.258   3.255   3.166  0.0347  0.0638  0.2134
   88SOPE   C21 8267   0.372   3.239   3.234  0.3555 -0.0792  0.2006
   88SOPE   O22 8268   0.464   3.317   3.236  0.5490  0.5080 -0.1418
   88SOPE   C22 8269   0.365   3.112   3.315 -0.5506 -0.4181  0.8354
   88SOPE   H2R 8270   0.342   3.029   3.245 -1.0736  0.9555 -0.7018
   88SOPE   H2S 8271   0.275   3.113   3.380 -0.4884  1.4131  0.9438
   88SOPE    C3 8272   0.111   3.456   3.116  0.5920 -0.4603  0.0840
   88SOPE    HX 8273   0.029   3.384   3.096  0.8217 -0.3435 -1.4047
   88SOPE    HY 8274   0.093   3.537   3.043 -0.1012 -0.3045  0.4282
   88SOPE   O31 8275   0.116   3.511   3.248 -0.3772 -0.0662 -0.4428
   88SOPE   C31 8276  -0.004   3.487   3.323 -0.5426 -0.3029 -0.1856
   88SOPE   O32 8277  -0.093   3.413   3.283 -0.2723  0.1910 -0.7508
   88SOPE   C32 8278   0.013   3.560   3.459 -0.3024 -0.2382 -0.3686
   88SOPE   H2X 8279  -0.082   3.567   3.516  0.0585  0.8392  0.1362
   88SOPE   H2Y 8280   0.034   3.665   3.429 -1.9288  0.0276 -0.6805
   88SOPE   C23 8281   0.478   3.107   3.417 -0.4965 -0.5075 -0.0460
   88SOPE   H3R 8282   0.461   3.198   3.479 -1.9283 -0.2366 -0.7875
   88SOPE   H3S 8283   0.579   3.111   3.371  1.2447 -0.6959  3.3735
   88SOPE   C24 8284   0.493   2.978   3.492  0.2057 -0.3512 -0.3758
   88SOPE   H4R 8285   0.446   2.895   3.435 -0.2287  0.1655 -0.7776
   88SOPE   H4S 8286   0.598   2.958   3.525  0.1827 -0.4487 -0.3601
   88SOPE   C25 8287   0.410   2.989   3.617 -0.2685  0.3133  0.3082
   88SOPE   H5R 8288   0.311   3.035   3.597 -0.3993  0.2132  0.7095
   88SOPE   H5S 8289   0.384   2.885   3.646 -1.7153  0.8954  1.1905
   88SOPE   C26 8290   0.466   3.060   3.735 -0.4940  0.2573 -0.3100
   88SOPE   H6R 8291   0.556   3.008   3.774 -0.7405  0.6616  0.8323
   88SOPE   H6S 8292   0.507   3.157   3.697 -1.9205  1.6614  1.5146
   88SOPE   C27 8293   0.380   3.092   3.852  0.4132  0.0575  0.5301
   88SOPE   H7R 8294   0.284   3.138   3.821  0.2349  1.1372  2.4946
   88SOPE   H7S 8295   0.350   2.997   3.900 -1.1537  0.3404  0.1556
   88SOPE   C28 8296   0.443   3.183   3.960 -0.5732  0.4397 -0.6466
   88SOPE   H8R 8297   0.468   3.279   3.910 -1.1487 -0.0109 -1.8265
   88SOPE   H8S 8298   0.352   3.200   4.022  1.1735 -1.6711  2.8477
   88SOPE   C29 8299   0.558   3.113   4.028  0.2529 -0.1888 -0.1126
   88SOPE   H91 8300   0.643   3.106   3.958 -1.5829  0.5039 -2.5657
   88SOPE  C210 8301   0.562   3.072   4.153  0.0573 -0.9746 -0.3816
   88SOPE  H101 8302   0.648   3.016   4.191 -0.4188 -1.4876 -0.0572
   88SOPE  C211 8303   0.454   3.102   4.254  0.5737 -0.5121 -0.0037
   88SOPE  H11R 8304   0.406   3.009   4.292  2.0150 -1.4987 -0.4827
   88SOPE  H11S 8305   0.381   3.175   4.215 -1.7977 -2.0144  1.4025
   88SOPE  C212 8306   0.520   3.174   4.372 -0.3206 -0.5066 -0.8938
   88SOPE  H12R 8307   0.568   3.267   4.335  1.4335 -1.0204 -0.0107
   88SOPE  H12S 8308   0.608   3.119   4.411 -1.1917 -0.2807  1.5439
   88SOPE  C213 8309   0.436   3.193   4.496  0.7819  0.3391  0.8846
   88SOPE  H13R 8310   0.376   3.100   4.510 -4.2533  2.9346 -0.9974
   88SOPE  H13S 8311   0.361   3.273   4.482  0.7570  0.8177  3.3788
   88SOPE  C214 8312   0.511   3.234   4.625  0.2875 -0.3930 -0.3645
   88SOPE  H14R 8313   0.437   3.262   4.703 -0.6257 -0.4361 -1.1948
   88SOPE  H14S 8314   0.567   3.329   4.611 -1.4336  0.7699  0.2336
   88SOPE  C215 8315   0.619   3.130   4.667 -0.2440  0.3452  0.1580
   88SOPE  H15R 8316   0.705   3.135   4.597  0.9212 -0.1112  1.5085
   88SOPE  H15S 8317   0.572   3.032   4.644 -0.7770  0.0197  2.4523
   88SOPE  C216 8318   0.671   3.153   4.807  0.1489  1.0279  0.3441
   88SOPE  H16R 8319   0.745   3.072   4.825 -1.0619 -0.4793 -1.1522
   88SOPE  H16S 8320   0.580   3.143   4.871  0.5963  1.7972  1.1248
   88SOPE  C217 8321   0.718   3.292   4.845 -0.1994  0.6711 -0.1967
   88SOPE  H17R 8322   0.634   3.361   4.822 -1.4290 -0.1040  1.7132
   88SOPE  H17S 8323   0.803   3.331   4.784  0.3498  0.2109  0.2653
   88SOPE  C218 8324   0.744   3.288   4.996  0.7505  0.6143  0.2408
   88SOPE  H18R 8325   0.820   3.214   5.028  0.9513  1.1260  0.9819
   88SOPE  H18S 8326   0.645   3.271   5.044  0.7946 -1.6062 -0.3331
   88SOPE  H18T 8327   0.779   3.390   5.023 -3.3645  2.2715  0.1057
   88SOPE   C33 8328   0.132   3.509   3.543 -0.3757  0.3765  0.3528
   88SOPE   H3X 8329   0.221   3.572   3.523 -1.4501  2.3858  1.6180
   88SOPE   H3Y 8330   0.162   3.405   3.519 -0.6470  0.0579  1.3369
   88SOPE   C34 8331   0.104   3.505   3.687  0.6758  0.2104 -0.6387
   88SOPE   H4X 8332   0.033   3.421   3.703  1.6871 -0.1588  2.6576
   88SOPE   H4Y 8333   0.052   3.597   3.723  0.9482  1.0461 -2.2602
   88SOPE   C35 8334   0.228   3.487   3.767 -0.0065 -0.9074  0.3886
   88SOPE   H5X 8335   0.287   3.581   3.761 -0.5537 -0.6284 -1.3986
   88SOPE   H5Y 8336   0.284   3.400   3.727 -0.9348 -1.0791 -0.5861
   88SOPE   C36 8337   0.201   3.463   3.919  0.5572 -0.1587 -0.1529
   88SOPE   H6X 8338   0.166   3.358   3.926 -0.4640  0.0753 -1.2989
   88SOPE   H6Y 8339   0.117   3.523   3.961  0.3970 -0.4216 -0.0974
   88SOPE   C37 8340   0.317   3.511   4.007 -0.2820  0.6120 -0.2131
   88SOPE   H7X 8341   0.313   3.622   3.998 -0.5246  0.7509  1.3401
   88SOPE   H7Y 8342   0.409   3.470   3.960 -0.9089  0.3415 -1.2130
   88SOPE   C38 8343   0.312   3.474   4.155  0.2025  0.1146 -0.1463
   88SOPE   H8X 8344   0.415   3.493   4.194  0.0497 -0.4861  0.5698
   88SOPE   H8Y 8345   0.287   3.367   4.169  2.7391 -0.3367  1.7142
   88SOPE   C39 8346   0.204   3.547   4.240 -0.4630 -0.1244 -0.0650
   88SOPE   H9X 8347   0.113   3.484   4.247 -1.8501  1.5519 -1.9358
   88SOPE   H9Y 8348   0.182   3.643   4.188  2.0928  0.7010  0.2178
   88SOPE  C310 8349   0.250   3.576   4.382 -0.5344 -0.1401  0.1666
   88SOPE  H10X 8350   0.346   3.631   4.370  0.5475 -1.6369  1.5246
   88SOPE  H10Y 8351   0.286   3.484   4.433  3.7292  1.3705  0.2517
   88SOPE  C311 8352   0.157   3.659   4.476  0.0472 -0.2824 -0.7120
   88SOPE  H11X 8353   0.055   3.616   4.479 -0.6105  1.2439  0.0226
   88SOPE  H11Y 8354   0.132   3.752   4.420 -2.6416 -0.6212 -0.1956
   88SOPE  C312 8355   0.232   3.687   4.608  0.1212  0.1511  0.4709
   88SOPE  H12X 8356   0.159   3.756   4.655  1.6361  0.4901  2.4999
   88SOPE  H12Y 8357   0.334   3.730   4.593  0.0069  0.4600  0.5593
   88SOPE  C313 8358   0.227   3.565   4.697  0.5486 -0.1258 -0.1162
   88SOPE  H13X 8359   0.291   3.480   4.666  1.2052  0.7501 -1.2587
   88SOPE  H13Y 8360   0.125   3.523   4.707  0.2527  0.5506 -0.2432
   88SOPE  C314 8361   0.280   3.609   4.836  0.0543 -0.3927 -0.0895
   88SOPE  H14X 8362   0.217   3.556   4.911  1.3340 -0.2398  1.1368
   88SOPE  H14Y 8363   0.260   3.717   4.849 -0.1945 -0.1809 -1.9024
   88SOPE  C315 8364   0.429   3.573   4.863 -0.2176 -0.2475 -0.9670
   88SOPE  H15X 8365   0.486   3.649   4.805 -1.3573  0.9518 -0.5582
   88SOPE  H15Y 8366   0.439   3.467   4.830 -0.2363 -0.1808 -1.1854
   88SOPE  C316 8367   0.475   3.584   5.002  0.4231 -0.3415  0.5014
   88SOPE  H16X 8368   0.433   3.677   5.046  0.8480  0.4527 -0.7034
   88SOPE  H16Y 8369   0.585   3.583   5.016  0.4738 -2.5331  0.2802
   88SOPE  C317 8370   0.425   3.477   5.098 -0.0153  0.3983  0.2493
   88SOPE  H17X 8371   0.422   3.373   5.060  0.0091  0.8409 -1.0120
   88SOPE  H17Y 8372   0.319   3.503   5.117 -0.3580 -0.0250 -0.9653
   88SOPE  C318 8373   0.501   3.474   5.231 -0.1651 -0.6371  0.2923
   88SOPE  H18X 8374   0.463   3.409   5.313  1.4086 -0.5024  1.1704
   88SOPE  H18Y 8375   0.509   3.575   5.278  0.2590 -0.0112 -1.0685
   88SOPE  H18Z 8376   0.605   3.447   5.205  0.0640  0.3946  0.0696
   89SAPC     N 8377   3.355   5.699   8.141 -0.3852  0.7065 -0.2834
   89SAPC   C12 8378   3.324   5.844   8.155  0.0648 -0.3957 -0.3386
   89SAPC  H12A 8379   3.410   5.905   8.179 -0.9388  0.6966  0.6246
   89SAPC  H12B 8380   3.267   5.861   8.245  0.5633 -2.0088  0.3057
   89SAPC   C13 8381   3.232   5.614   8.133 -0.1788 -0.1626 -0.1694
   89SAPC  H13A 8382   3.180   5.622   8.039  0.3875  0.1314 -0.4629
   89SAPC  H13B 8383   3.253   5.509   8.143  3.0839  0.3195 -0.7240
   89SAPC  H13C 8384   3.167   5.636   8.217  1.9344 -2.5269  2.2849
   89SAPC   C14 8385   3.442   5.674   8.023 -0.4474  0.3675  0.3364
   89SAPC  H14A 8386   3.387   5.695   7.932 -3.2400  1.3956  2.1190
   89SAPC  H14B 8387   3.525   5.743   8.026 -0.0476 -0.1322  1.2557
   89SAPC  H14C 8388   3.490   5.578   8.030  1.6581  1.4173  1.1549
   89SAPC   C15 8389   3.434   5.644   8.262  0.0670  0.0842  0.1357
   89SAPC  H15A 8390   3.441   5.537   8.249 -0.2199 -0.0660  1.1205
   89SAPC  H15B 8391   3.536   5.678   8.265  0.7780 -1.9759  0.6968
   89SAPC  H15C 8392   3.378   5.649   8.354  0.4901 -1.4163  0.4880
   89SAPC   C11 8393   3.237   5.905   8.040 -0.3324  0.1932 -0.5734
   89SAPC  H11A 8394   3.191   6.000   8.075 -0.7036 -0.7959  1.8420
   89SAPC  H11B 8395   3.153   5.833   8.034  0.7310 -1.2802  1.0655
   89SAPC     P 8396   3.407   6.017   7.887 -0.3446  0.3627  0.0887
   89SAPC   O13 8397   3.377   6.137   7.969 -0.1927  0.1689  0.4309
   89SAPC   O14 8398   3.547   5.962   7.925  0.2487  0.0123 -0.2434
   89SAPC   O12 8399   3.296   5.909   7.912 -0.7862 -0.0684  0.1823
   89SAPC   O11 8400   3.407   6.056   7.735  0.2034  0.8128 -0.1963
   89SAPC    C1 8401   3.390   5.972   7.623 -0.1437 -0.6363  0.5468
   89SAPC    HA 8402   3.322   5.887   7.643 -1.2604 -0.5913 -2.5520
   89SAPC    HB 8403   3.338   6.021   7.538  1.2270  0.9506  0.5700
   89SAPC    C2 8404   3.523   5.914   7.580 -0.4675 -0.0122  0.2640
   89SAPC    HS 8405   3.562   5.885   7.681  3.9456 -2.1202 -1.7701
   89SAPC   O21 8406   3.608   6.006   7.511  0.0231 -0.0824  0.0568
   89SAPC   C21 8407   3.739   5.969   7.502  1.1210 -0.1223  0.1771
   89SAPC   O22 8408   3.789   5.879   7.567  0.4393  0.1394 -0.4647
   89SAPC   C22 8409   3.823   6.055   7.406  0.6615 -0.1666 -0.9558
   89SAPC   H2R 8410   3.766   6.128   7.344  2.4076  1.6586 -0.4941
   89SAPC   H2S 8411   3.897   6.106   7.471 -2.9131  1.7782  2.0425
   89SAPC    C3 8412   3.511   5.781   7.500 -0.5627  0.1315 -0.4961
   89SAPC    HX 8413   3.445   5.712   7.556  0.8557 -0.6479  0.2713
   89SAPC    HY 8414   3.616   5.745   7.495 -0.4429  0.2714  0.6829
   89SAPC   O31 8415   3.470   5.807   7.363 -0.2058 -0.4373 -0.2292
   89SAPC   C31 8416   3.347   5.749   7.329  0.0460  0.2646 -0.1192
   89SAPC   O32 8417   3.271   5.699   7.404  0.2012 -0.2105 -0.1787
   89SAPC   C32 8418   3.315   5.781   7.180  0.4096  0.5188 -0.5531
   89SAPC   H2X 8419   3.337   5.888   7.161  0.7895  0.6182  0.3852
   89SAPC   H2Y 8420   3.205   5.768   7.170  0.3927  1.1167 -1.1978
   89SAPC   C23 8421   3.889   5.972   7.292  0.2132  0.1584 -0.6383
   89SAPC   H3R 8422   3.962   5.898   7.331  1.2213  1.2090 -0.4485
   89SAPC   H3S 8423   3.951   6.044   7.233  2.1396 -0.8035  0.1102
   89SAPC   C24 8424   3.801   5.906   7.185  0.5592 -0.3348  0.4734
   89SAPC   H4R 8425   3.751   5.818   7.232 -1.2047 -0.4059 -1.3818
   89SAPC   H4S 8426   3.873   5.876   7.105  0.6644  2.9662 -0.7955
   89SAPC   C25 8427   3.698   5.991   7.115 -0.4169  0.5477 -0.8329
   89SAPC   H5R 8428   3.627   6.030   7.189 -1.4760 -0.6054 -1.2295
   89SAPC   C26 8429   3.672   6.011   6.988  0.8776  0.2217  0.1591
   89SAPC   H6R 8430   3.580   6.065   6.959  0.6234 -1.5226 -2.7630
   89SAPC   C27 8431   3.758   5.969   6.864  0.1403 -0.2305  0.2945
   89SAPC   H7R 8432   3.848   5.914   6.898 -0.3142 -0.9767  0.3134
   89SAPC   H7S 8433   3.794   6.060   6.811 -1.5802 -0.3000 -1.0906
   89SAPC   C28 8434   3.689   5.882   6.762 -0.1615 -0.5796 -0.2152
   89SAPC   H8R 8435   3.598   5.831   6.796 -1.3633  0.6502 -1.4494
   89SAPC   C29 8436   3.702   5.897   6.628 -0.0286 -0.1162  0.6808
   89SAPC   H9R 8437   3.644   5.840   6.555  0.2348  0.9150 -0.3721
   89SAPC  C210 8438   3.822   5.970   6.566  0.4596  0.5413  0.7135
   89SAPC  H10R 8439   3.893   6.002   6.645  0.3909 -0.4929  1.2115
   89SAPC  H10S 8440   3.805   6.061   6.505 -2.7333 -0.5634 -0.2537
   89SAPC  C211 8441   3.904   5.878   6.481  0.0013  0.5336  0.1804
   89SAPC  H11R 8442   4.001   5.840   6.517  0.8417  2.6075  0.2235
   89SAPC  C212 8443   3.871   5.846   6.355  0.0638 -0.0012 -0.4219
   89SAPC  H12R 8444   3.946   5.783   6.304 -2.2441 -0.6033 -3.3455
   89SAPC  C213 8445   3.756   5.899   6.271 -0.5176  0.3202  0.2203
   89SAPC  H13R 8446   3.793   5.994   6.227  0.7601 -0.2613  0.0125
   89SAPC  H13S 8447   3.665   5.916   6.333  0.7160 -0.9581  2.5281
   89SAPC  C214 8448   3.723   5.794   6.163 -0.2603 -0.9587 -0.0455
   89SAPC  H14R 8449   3.650   5.719   6.195  0.0526 -0.0169  3.3823
   89SAPC  C215 8450   3.736   5.804   6.032  0.0521 -0.2045  0.6574
   89SAPC  H15R 8451   3.695   5.721   5.972 -2.3559  0.7362  0.8796
   89SAPC  C216 8452   3.798   5.914   5.949 -0.5156  0.4700 -1.0176
   89SAPC  H16R 8453   3.907   5.901   5.959 -0.7261  0.1207  1.7008
   89SAPC  H16S 8454   3.769   6.013   5.992 -0.8168 -0.1066  0.1634
   89SAPC  C217 8455   3.762   5.901   5.801 -0.2598  0.2906  0.3124
   89SAPC  H17R 8456   3.807   5.992   5.757  0.4959 -0.6869 -1.0126
   89SAPC  H17S 8457   3.656   5.902   5.769  0.1337 -2.3104 -1.3800
   89SAPC  C218 8458   3.828   5.780   5.732  0.0381  0.2264  0.8949
   89SAPC  H18R 8459   3.776   5.685   5.756 -0.6880  0.0594 -1.1545
   89SAPC  H18S 8460   3.937   5.767   5.749  0.1845 -0.5348 -0.5182
   89SAPC  C219 8461   3.819   5.798   5.577 -0.1901 -0.2492 -0.3723
   89SAPC  H19R 8462   3.876   5.708   5.545  3.3128  0.8477  2.1736
   89SAPC  H19S 8463   3.860   5.894   5.539 -0.4144  0.8702  2.0262
   89SAPC  C220 8464   3.678   5.790   5.521 -0.3626  0.3215 -0.3206
   89SAPC  H20R 8465   3.624   5.707   5.570 -0.6471  1.7014  1.8550
   89SAPC  H20S 8466   3.668   5.776   5.411 -1.7737 -2.0167  0.0372
   89SAPC  H20T 8467   3.619   5.883   5.539 -1.5692 -0.7750  1.8404
   89SAPC   C33 8468   3.395   5.701   7.067  0.1820 -0.2735 -0.5235
   89SAPC   H3X 8469   3.444   5.610   7.109 -2.5419 -0.4056  2.8683
   89SAPC   H3Y 8470   3.472   5.766   7.021 -0.9852  0.9098 -0.8452
   89SAPC   C34 8471   3.309   5.646   6.951  0.2484 -0.0003  0.3579
   89SAPC   H4X 8472   3.231   5.725   6.938  1.4208  1.1501  0.0815
   89SAPC   H4Y 8473   3.254   5.554   6.978 -0.9250  0.2712 -0.9852
   89SAPC   C35 8474   3.378   5.638   6.819  0.4431 -0.1663 -0.2813
   89SAPC   H5X 8475   3.468   5.573   6.823 -0.8209 -1.9453  3.1443
   89SAPC   H5Y 8476   3.428   5.736   6.802  1.7693 -0.6251  0.8207
   89SAPC   C36 8477   3.298   5.601   6.700  0.8365 -0.0317 -0.3732
   89SAPC   H6X 8478   3.205   5.662   6.702  0.3363 -0.7572  2.4881
   89SAPC   H6Y 8479   3.268   5.495   6.711 -0.9980  0.3457 -1.2609
   89SAPC   C37 8480   3.361   5.633   6.562  0.3711  0.2172  0.6090
   89SAPC   H7X 8481   3.458   5.577   6.564 -0.3530 -1.4777 -3.1808
   89SAPC   H7Y 8482   3.370   5.743   6.555 -0.2649  0.2382  0.1010
   89SAPC   C38 8483   3.284   5.574   6.444 -0.1566  0.5590  1.1978
   89SAPC   H8X 8484   3.177   5.600   6.457 -0.2295  0.5038  0.7437
   89SAPC   H8Y 8485   3.288   5.463   6.440  1.5418  0.5981 -1.8849
   89SAPC   C39 8486   3.341   5.607   6.302 -0.1870  0.1358 -0.8431
   89SAPC   H9X 8487   3.359   5.716   6.287 -1.2330  0.2757 -1.1274
   89SAPC   H9Y 8488   3.261   5.585   6.229  0.1878  0.0210 -1.2264
   89SAPC  C310 8489   3.459   5.514   6.263  0.2619 -0.2111  0.1214
   89SAPC  H10X 8490   3.444   5.410   6.301  3.7738 -0.9756 -0.2422
   89SAPC  H10Y 8491   3.562   5.549   6.283  0.5403 -1.4725  1.0279
   89SAPC  C311 8492   3.455   5.505   6.107  0.0165  0.5505 -0.1290
   89SAPC  H11X 8493   3.472   5.610   6.074  0.0771  0.9044  0.9598
   89SAPC  H11Y 8494   3.355   5.473   6.071 -0.2516  2.5675 -1.3623
   89SAPC  C312 8495   3.558   5.399   6.057  0.6524  0.0583  0.4167
   89SAPC  H12X 8496   3.525   5.297   6.088  0.3464 -0.6206 -1.9189
   89SAPC  H12Y 8497   3.654   5.420   6.110 -0.0621 -0.6633  2.0854
   89SAPC  C313 8498   3.573   5.409   5.909  1.3696  0.2683  0.2425
   89SAPC  H13X 8499   3.614   5.510   5.891  0.2719  1.2472  2.8234
   89SAPC  H13Y 8500   3.473   5.411   5.859  0.4539 -2.2688  1.7510
   89SAPC  C314 8501   3.645   5.289   5.849  0.5377 -0.3186  0.3755
   89SAPC  H14X 8502   3.598   5.190   5.863  0.7432 -0.3517  0.8651
   89SAPC  H14Y 8503   3.739   5.280   5.909  0.1608  2.8836  1.6503
   89SAPC  C315 8504   3.678   5.319   5.701  0.2680  0.6086 -0.0926
   89SAPC  H15X 8505   3.777   5.275   5.678  0.0443 -0.2700  0.5762
   89SAPC  H15Y 8506   3.686   5.428   5.678 -0.1686  0.8004  0.6161
   89SAPC  C316 8507   3.580   5.260   5.609 -0.1707 -0.1493  0.0281
   89SAPC  H16X 8508   3.482   5.305   5.637  0.3827  0.6128  0.7977
   89SAPC  H16Y 8509   3.582   5.151   5.629  1.3487 -0.6730 -2.4646
   89SAPC  C317 8510   3.601   5.303   5.466  0.2998 -0.4215  0.1191
   89SAPC  H17X 8511   3.627   5.410   5.453  1.2628 -0.6784 -0.1690
   89SAPC  H17Y 8512   3.517   5.276   5.399  3.3544 -1.6822 -3.5538
   89SAPC  C318 8513   3.722   5.228   5.410 -0.4392  0.0631 -0.1779
   89SAPC  H18X 8514   3.811   5.246   5.475  1.5155  0.9551 -2.9250
   89SAPC  H18Y 8515   3.765   5.275   5.319 -0.2300  0.4442  0.1152
   89SAPC  H18Z 8516   3.702   5.120   5.390 -1.0818  0.4964 -2.0797
   90SAPC     N 8517   6.042   2.786   8.354 -0.1286 -0.0205 -0.4677
   90SAPC   C12 8518   6.183   2.732   8.320 -0.2606 -0.9218 -0.2010
   90SAPC  H12A 8519   6.173   2.645   8.258  0.3064 -0.5373 -0.8399
   90SAPC  H12B 8520   6.222   2.685   8.409  0.1999 -1.0130 -0.4475
   90SAPC   C13 8521   6.043   2.903   8.447 -0.1397 -0.0786 -0.1990
   90SAPC  H13A 8522   6.093   2.875   8.539  2.4124 -1.6936 -1.9427
   90SAPC  H13B 8523   6.099   2.980   8.395  0.6823  0.0524  0.8492
   90SAPC  H13C 8524   5.946   2.939   8.477 -0.6630 -1.5571 -0.0230
   90SAPC   C14 8525   5.967   2.823   8.229  0.0622 -0.4033  0.1463
   90SAPC  H14A 8526   6.024   2.891   8.167  0.8208 -1.8136 -0.7441
   90SAPC  H14B 8527   5.938   2.739   8.167 -0.7844  0.2023 -0.3087
   90SAPC  H14C 8528   5.879   2.884   8.247  0.7801  0.8654 -0.5173
   90SAPC   C15 8529   5.969   2.676   8.422  0.6448  0.2453 -0.0655
   90SAPC  H15A 8530   5.968   2.588   8.359 -1.3786 -0.8339  1.3457
   90SAPC  H15B 8531   6.009   2.638   8.515  0.8610 -0.8979 -0.5989
   90SAPC  H15C 8532   5.866   2.703   8.439  0.7108  1.9699 -1.9710
   90SAPC   C11 8533   6.284   2.831   8.257 -0.3182  0.2509  0.0695
   90SAPC  H11A 8534   6.381   2.800   8.300 -1.1068 -1.9827  0.3525
   90SAPC  H11B 8535   6.278   2.935   8.297  0.5439 -0.5305  2.3524
   90SAPC     P 8536   6.318   2.717   8.029  0.0208  0.6872  0.3951
   90SAPC   O13 8537   6.465   2.697   8.030 -0.1494 -0.3931  0.3943
   90SAPC   O14 8538   6.242   2.600   8.068 -0.1369 -0.3375 -0.0626
   90SAPC   O12 8539   6.269   2.838   8.116 -0.6402  0.0229  0.1991
   90SAPC   O11 8540   6.276   2.776   7.885 -0.2493  0.6423 -0.5502
   90SAPC    C1 8541   6.160   2.857   7.876  0.5006  1.3388  0.3494
   90SAPC    HA 8542   6.069   2.805   7.914  1.7982 -3.4833 -2.2857
   90SAPC    HB 8543   6.171   2.957   7.923  0.1087  1.7938 -0.5049
   90SAPC    C2 8544   6.141   2.888   7.728 -0.3953  0.1235  0.5480
   90SAPC    HS 8545   6.061   2.964   7.714  0.7339  1.9077  3.1400
   90SAPC   O21 8546   6.126   2.763   7.646 -0.0550  0.2041  0.0094
   90SAPC   C21 8547   6.001   2.722   7.657  1.2148 -0.0392 -0.3069
   90SAPC   O22 8548   5.912   2.781   7.716 -0.5705  0.5085  0.0883
   90SAPC   C22 8549   5.993   2.587   7.579  0.0831 -0.4745 -0.1604
   90SAPC   H2R 8550   5.892   2.588   7.532 -0.4360 -0.1626  0.9242
   90SAPC   H2S 8551   6.053   2.585   7.485 -2.0169 -2.9248 -1.6050
   90SAPC    C3 8552   6.265   2.967   7.659  0.7608  0.0324 -0.5018
   90SAPC    HX 8553   6.345   2.890   7.657  0.7786 -0.3080  3.5227
   90SAPC    HY 8554   6.308   3.042   7.730  2.5337 -1.6359  0.2815
   90SAPC   O31 8555   6.224   3.035   7.539 -0.4696  0.3801 -0.0963
   90SAPC   C31 8556   6.232   2.969   7.418  1.1319 -0.3868 -0.5555
   90SAPC   O32 8557   6.292   2.865   7.397  0.9640  0.2804 -0.5449
   90SAPC   C32 8558   6.150   3.053   7.317 -0.0620  0.4918 -0.3276
   90SAPC   H2X 8559   6.187   3.157   7.329  0.7193 -0.0479  2.8096
   90SAPC   H2Y 8560   6.041   3.040   7.338 -1.0217  1.1329 -4.1016
   90SAPC   C23 8561   5.999   2.461   7.664 -0.1749 -0.1782  0.1869
   90SAPC   H3R 8562   5.908   2.449   7.726 -0.1904  0.9985  0.4027
   90SAPC   H3S 8563   6.087   2.455   7.731 -0.2588 -1.0236  0.2382
   90SAPC   C24 8564   5.995   2.326   7.585  0.4244  0.2168 -0.0609
   90SAPC   H4R 8565   6.015   2.244   7.657 -1.9362 -1.4875 -1.1812
   90SAPC   H4S 8566   6.082   2.329   7.516  1.6392  3.3630  1.4168
   90SAPC   C25 8567   5.867   2.279   7.521 -0.5483  0.5265 -0.2107
   90SAPC   H5R 8568   5.796   2.244   7.597 -0.5832  0.0678 -0.4521
   90SAPC   C26 8569   5.848   2.287   7.391 -0.1453 -0.5212  0.0511
   90SAPC   H6R 8570   5.759   2.248   7.339 -2.5626  1.7967  2.1020
   90SAPC   C27 8571   5.941   2.341   7.281  0.2429  0.4353 -0.3065
   90SAPC   H7R 8572   6.017   2.413   7.318 -0.0743  1.8843 -2.3068
   90SAPC   H7S 8573   5.886   2.402   7.206  1.5494  0.7230 -1.0587
   90SAPC   C28 8574   6.015   2.226   7.212 -0.1991 -0.0753  0.4268
   90SAPC   H8R 8575   6.088   2.168   7.270  0.8175 -1.4732 -2.0647
   90SAPC   C29 8576   6.004   2.185   7.080  0.2847  0.6932  0.0839
   90SAPC   H9R 8577   6.061   2.100   7.040  1.1462  1.5150 -0.4688
   90SAPC  C210 8578   5.896   2.225   6.977 -0.1538  0.7506 -0.4096
   90SAPC  H10R 8579   5.867   2.331   6.989  1.3876  1.3331 -1.5424
   90SAPC  H10S 8580   5.806   2.162   6.996 -0.1444  0.5503 -1.0086
   90SAPC  C211 8581   5.934   2.186   6.837 -0.2537  0.9738  0.5445
   90SAPC  H11R 8582   6.020   2.118   6.835 -0.7944  0.2352  1.7993
   90SAPC  C212 8583   5.874   2.225   6.718 -0.4642  0.8610 -0.7682
   90SAPC  H12R 8584   5.905   2.190   6.618 -1.6352  0.2793 -0.9460
   90SAPC  C213 8585   5.769   2.328   6.703  0.2914  0.1499  0.1284
   90SAPC  H13R 8586   5.781   2.391   6.793 -0.3933 -1.3199  1.2814
   90SAPC  H13S 8587   5.666   2.285   6.704  1.0534 -1.7772  0.0406
   90SAPC  C214 8588   5.798   2.409   6.581  0.0701  0.9409  0.5008
   90SAPC  H14R 8589   5.836   2.509   6.605  1.4547  1.0327 -1.7277
   90SAPC  C215 8590   5.772   2.374   6.452 -0.5314  0.3047 -0.3051
   90SAPC  H15R 8591   5.802   2.433   6.364 -2.0678 -0.0743 -1.1150
   90SAPC  C216 8592   5.703   2.246   6.405 -0.1828  0.2125  0.3637
   90SAPC  H16R 8593   5.694   2.172   6.487  0.9143 -0.8639 -0.4509
   90SAPC  H16S 8594   5.760   2.197   6.324 -0.2663 -0.5565  0.7643
   90SAPC  C217 8595   5.560   2.272   6.351  0.4457 -0.2306  1.1337
   90SAPC  H17R 8596   5.488   2.299   6.432  0.3611 -1.6306  1.5514
   90SAPC  H17S 8597   5.526   2.182   6.297 -1.7060  1.1569 -0.0110
   90SAPC  C218 8598   5.551   2.390   6.248 -0.1805  0.0218  0.0393
   90SAPC  H18R 8599   5.615   2.364   6.161 -0.0229 -0.5693  0.3248
   90SAPC  H18S 8600   5.578   2.485   6.299  1.0856 -1.3097  2.0454
   90SAPC  C219 8601   5.414   2.401   6.173 -0.3555 -0.1513 -0.5559
   90SAPC  H19R 8602   5.397   2.503   6.134 -1.6862 -0.2917 -0.3856
   90SAPC  H19S 8603   5.340   2.385   6.254  0.4022  1.1860  0.4391
   90SAPC  C220 8604   5.371   2.296   6.058  0.2583  0.5386 -0.3603
   90SAPC  H20R 8605   5.269   2.322   6.022 -0.3470  0.6623  1.3549
   90SAPC  H20S 8606   5.376   2.196   6.107 -0.4125  1.6740  2.1470
   90SAPC  H20T 8607   5.439   2.306   5.970  0.4915  1.0011 -0.1283
   90SAPC   C33 8608   6.166   3.004   7.170 -0.1413 -0.0428 -0.2381
   90SAPC   H3X 8609   6.129   2.900   7.161 -1.3686  0.4542 -1.1170
   90SAPC   H3Y 8610   6.273   3.018   7.144  0.0593  0.8920  0.9798
   90SAPC   C34 8611   6.095   3.099   7.076  0.0506 -0.2326  0.0737
   90SAPC   H4X 8612   5.995   3.109   7.122 -1.2471 -0.5701 -2.4878
   90SAPC   H4Y 8613   6.075   3.043   6.982  0.7923  0.7349 -0.6803
   90SAPC   C35 8614   6.159   3.231   7.045  0.5271 -0.2703  0.2625
   90SAPC   H5X 8615   6.232   3.199   6.968  0.1233  0.0704 -0.2657
   90SAPC   H5Y 8616   6.210   3.261   7.138  0.7583  0.1310  0.0068
   90SAPC   C36 8617   6.067   3.345   7.000 -0.3999 -0.1084  0.3729
   90SAPC   H6X 8618   6.103   3.440   7.044 -0.9795  0.6068 -0.6550
   90SAPC   H6Y 8619   5.962   3.335   7.036 -0.4907  0.1554  0.1771
   90SAPC   C37 8620   6.060   3.365   6.845 -0.1590  0.1304 -0.9043
   90SAPC   H7X 8621   6.163   3.392   6.813 -0.4439  1.1567 -0.9947
   90SAPC   H7Y 8622   6.006   3.460   6.825  1.8715  1.9913  1.6042
   90SAPC   C38 8623   5.997   3.245   6.765  0.2136  0.3754 -0.4905
   90SAPC   H8X 8624   5.891   3.250   6.799  0.1809  0.4192 -0.5972
   90SAPC   H8Y 8625   6.024   3.140   6.791 -1.7401  0.0035  0.2082
   90SAPC   C39 8626   6.005   3.274   6.619  0.3125  0.6115  0.2032
   90SAPC   H9X 8627   6.110   3.258   6.588  0.4526 -1.8463  1.7150
   90SAPC   H9Y 8628   5.972   3.377   6.594 -0.5133  0.3036 -0.0304
   90SAPC  C310 8629   5.929   3.178   6.525 -0.2185 -0.3143  0.5005
   90SAPC  H10X 8630   5.830   3.151   6.569 -1.0500  0.8247 -0.6234
   90SAPC  H10Y 8631   5.986   3.082   6.527 -1.0281 -0.8031  1.0144
   90SAPC  C311 8632   5.920   3.224   6.384 -0.7269 -0.2054  0.3189
   90SAPC  H11X 8633   6.025   3.256   6.363  0.1091 -1.3273  2.4268
   90SAPC  H11Y 8634   5.857   3.315   6.391  0.6747  0.7556  0.9433
   90SAPC  C312 8635   5.861   3.128   6.284 -0.6621 -1.6418 -0.1237
   90SAPC  H12X 8636   5.762   3.098   6.324 -0.3171 -2.2655  0.2786
   90SAPC  H12Y 8637   5.928   3.039   6.291  1.9229  0.2787  1.4833
   90SAPC  C313 8638   5.850   3.190   6.143  0.3193 -0.7593 -0.3671
   90SAPC  H13X 8639   5.946   3.210   6.091  0.2498 -1.0105 -0.6000
   90SAPC  H13Y 8640   5.794   3.285   6.153 -1.0257 -1.5805  0.3150
   90SAPC  C314 8641   5.776   3.101   6.038  0.4625 -0.0170 -0.4898
   90SAPC  H14X 8642   5.667   3.096   6.062  0.8499 -1.2445  1.2360
   90SAPC  H14Y 8643   5.809   2.996   6.049  0.7298  0.0947 -0.2192
   90SAPC  C315 8644   5.798   3.153   5.892 -0.1188 -0.4572 -0.7327
   90SAPC  H15X 8645   5.905   3.167   5.865 -0.6089  0.5309 -2.2631
   90SAPC  H15Y 8646   5.760   3.257   5.889  3.0803  0.8029 -2.2592
   90SAPC  C316 8647   5.723   3.065   5.792 -0.1133  0.0603 -0.3464
   90SAPC  H16X 8648   5.635   3.028   5.848 -2.6678  1.8695 -2.8771
   90SAPC  H16Y 8649   5.793   2.985   5.760  1.6704  0.8974  1.2404
   90SAPC  C317 8650   5.669   3.145   5.672  0.8193 -0.0461 -0.1016
   90SAPC  H17X 8651   5.758   3.201   5.635  0.9762 -1.0122 -1.2504
   90SAPC  H17Y 8652   5.596   3.219   5.712  0.8768  0.4425 -0.8796
   90SAPC  C318 8653   5.594   3.064   5.566  0.7144 -0.0373  0.3099
   90SAPC  H18X 8654   5.534   3.128   5.498  0.9981  1.5549  1.4860
   90SAPC  H18Y 8655   5.540   2.978   5.611  1.1488 -0.2004  0.5261
   90SAPC  H18Z 8656   5.672   3.012   5.507  0.6070 -0.2175  0.3272
   91SAPC     N 8657   3.080   4.215   7.989 -0.1590 -0.1740 -0.1479
   91SAPC   C12 8658   3.085   4.248   7.832 -0.3630  0.2806  0.4004
   91SAPC  H12A 8659   2.991   4.220   7.787  0.8271  0.8692 -2.7054
   91SAPC  H12B 8660   3.161   4.180   7.796 -1.2998 -0.6991  0.2423
   91SAPC   C13 8661   3.027   4.080   8.027 -0.2580 -0.0732 -0.8240
   91SAPC  H13A 8662   3.030   4.063   8.134  1.9025 -0.6846 -0.9406
   91SAPC  H13B 8663   2.928   4.067   7.984 -1.4671  0.3202  1.6553
   91SAPC  H13C 8664   3.094   4.007   7.983  1.0970  1.2438 -0.9880
   91SAPC   C14 8665   3.219   4.217   8.055 -0.3163  0.3514  0.0472
   91SAPC  H14A 8666   3.263   4.311   8.026  2.3528 -1.7522 -3.7754
   91SAPC  H14B 8667   3.208   4.191   8.159 -1.0912 -2.1377 -0.5755
   91SAPC  H14C 8668   3.288   4.149   8.006  0.3063  0.8793  0.1672
   91SAPC   C15 8669   2.986   4.313   8.069  0.1484  0.3123  0.3477
   91SAPC  H15A 8670   2.968   4.280   8.170 -1.5834 -0.1097 -0.0488
   91SAPC  H15B 8671   3.027   4.413   8.072  1.8378 -0.3731  1.7879
   91SAPC  H15C 8672   2.886   4.299   8.029  0.3435 -0.7955  0.2124
   91SAPC   C11 8673   3.125   4.388   7.798 -0.9878 -0.5117  0.3062
   91SAPC  H11A 8674   3.070   4.459   7.863 -0.6695  0.4270 -0.4259
   91SAPC  H11B 8675   3.104   4.402   7.689  1.3302 -0.7796 -0.2303
   91SAPC     P 8676   3.335   4.530   7.792 -0.4297 -0.2030  0.1286
   91SAPC   O13 8677   3.263   4.652   7.837  0.0381  0.4259  0.0137
   91SAPC   O14 8678   3.468   4.507   7.846 -0.9780 -0.3121  0.4767
   91SAPC   O12 8679   3.257   4.397   7.831  0.2837 -0.6992 -0.0872
   91SAPC   O11 8680   3.328   4.513   7.635  0.1862  0.2076  0.5355
   91SAPC    C1 8681   3.362   4.399   7.559 -0.5370  0.3367 -0.2074
   91SAPC    HA 8682   3.356   4.308   7.621 -1.3240  0.4515 -0.1116
   91SAPC    HB 8683   3.293   4.380   7.474  0.2695 -0.7339 -0.6461
   91SAPC    C2 8684   3.508   4.407   7.499 -0.0216  0.4874  0.4682
   91SAPC    HS 8685   3.565   4.398   7.594 -0.3132 -0.9018  0.5395
   91SAPC   O21 8686   3.541   4.524   7.434  0.7952 -0.2377  0.7590
   91SAPC   C21 8687   3.664   4.561   7.418 -0.0685 -0.1935 -0.3363
   91SAPC   O22 8688   3.763   4.517   7.484  0.6935  0.0360  0.1637
   91SAPC   C22 8689   3.674   4.679   7.318  0.3253  0.2191 -0.3324
   91SAPC   H2R 8690   3.569   4.714   7.306  0.2755  0.0442 -0.4182
   91SAPC   H2S 8691   3.750   4.747   7.361  0.2015 -0.3352  0.7797
   91SAPC    C3 8692   3.551   4.264   7.443 -0.0384  0.4064  1.2223
   91SAPC    HX 8693   3.512   4.185   7.510 -2.3270 -0.9986 -1.5430
   91SAPC    HY 8694   3.662   4.258   7.431 -0.3578 -1.3528 -2.4328
   91SAPC   O31 8695   3.482   4.248   7.317  0.3693  0.4096  0.3252
   91SAPC   C31 8696   3.530   4.152   7.240  0.0960  0.0314  0.1009
   91SAPC   O32 8697   3.622   4.080   7.275 -0.5051  0.0867  0.2710
   91SAPC   C32 8698   3.451   4.158   7.109 -1.2978 -0.3410 -0.4027
   91SAPC   H2X 8699   3.452   4.266   7.083 -0.8991  0.2071  1.7180
   91SAPC   H2Y 8700   3.347   4.123   7.128 -0.7099 -2.4999 -0.9071
   91SAPC   C23 8701   3.737   4.624   7.189  0.5485 -0.2007 -1.5508
   91SAPC   H3R 8702   3.834   4.577   7.218  0.5401  0.2343 -0.8028
   91SAPC   H3S 8703   3.748   4.711   7.120  0.8649  0.4033 -0.7533
   91SAPC   C24 8704   3.661   4.513   7.114  0.7598  0.0786  0.0872
   91SAPC   H4R 8705   3.641   4.429   7.184 -0.2393 -0.8402 -1.2621
   91SAPC   H4S 8706   3.716   4.459   7.034 -1.2644 -1.3777 -0.4228
   91SAPC   C25 8707   3.526   4.565   7.070  0.2806  0.4457  0.5207
   91SAPC   H5R 8708   3.475   4.609   7.157 -1.5376 -1.2864  0.4132
   91SAPC   C26 8709   3.470   4.545   6.948  0.3753  0.4304 -0.0066
   91SAPC   H6R 8710   3.382   4.607   6.926 -0.9792 -0.4949  2.4437
   91SAPC   C27 8711   3.528   4.471   6.830  0.4111 -0.0033 -0.5641
   91SAPC   H7R 8712   3.579   4.381   6.868 -0.1101 -0.6352 -1.3048
   91SAPC   H7S 8713   3.608   4.532   6.784  0.7876  1.0305  1.3864
   91SAPC   C28 8714   3.411   4.443   6.735  0.1499  0.1346 -0.0683
   91SAPC   H8R 8715   3.316   4.408   6.779  0.7860  1.0558  2.2001
   91SAPC   C29 8716   3.420   4.453   6.598 -0.0399 -0.3030 -0.4200
   91SAPC   H9R 8717   3.327   4.421   6.548 -1.5672  1.3338  1.2152
   91SAPC  C210 8718   3.542   4.508   6.530  0.3818  0.5145  0.1479
   91SAPC  H10R 8719   3.640   4.494   6.580 -0.1011  0.3897  1.0824
   91SAPC  H10S 8720   3.538   4.617   6.511 -3.0496  0.6333  0.8330
   91SAPC  C211 8721   3.546   4.428   6.404 -0.3923  0.6423  0.3197
   91SAPC  H11R 8722   3.620   4.347   6.397 -2.6927 -1.5139 -0.3055
   91SAPC  C212 8723   3.501   4.479   6.283  0.1716 -0.4330 -0.2793
   91SAPC  H12R 8724   3.513   4.413   6.196  0.8606  0.0549 -0.5569
   91SAPC  C213 8725   3.407   4.597   6.269 -0.1560  0.0432 -0.1537
   91SAPC  H13R 8726   3.445   4.673   6.197  0.0811  0.2673  0.2087
   91SAPC  H13S 8727   3.407   4.662   6.358 -0.1508  0.2766 -0.3216
   91SAPC  C214 8728   3.271   4.558   6.214 -0.3444 -0.5703 -0.6315
   91SAPC  H14R 8729   3.192   4.564   6.290  0.6813 -2.0197  0.6180
   91SAPC  C215 8730   3.236   4.547   6.085 -0.1177 -1.3719  0.1851
   91SAPC  H15R 8731   3.127   4.537   6.069 -0.7142  0.1508  2.8520
   91SAPC  C216 8732   3.332   4.557   5.974  0.2117 -0.0660  0.2181
   91SAPC  H16R 8733   3.434   4.530   6.009  0.3328 -0.9896 -0.7946
   91SAPC  H16S 8734   3.342   4.662   5.941  2.1076 -0.4618 -0.6463
   91SAPC  C217 8735   3.298   4.460   5.855  0.1531 -0.0956 -0.1290
   91SAPC  H17R 8736   3.195   4.492   5.828  0.1844  0.8304  0.7543
   91SAPC  H17S 8737   3.302   4.354   5.888  1.3519 -0.2008 -0.5749
   91SAPC  C218 8738   3.388   4.481   5.739  0.4568 -0.5364  0.5172
   91SAPC  H18R 8739   3.486   4.448   5.781  1.5892  0.7188 -1.0086
   91SAPC  H18S 8740   3.383   4.589   5.712 -1.1176 -0.9475 -0.9847
   91SAPC  C219 8741   3.361   4.398   5.609  0.0883 -0.3287 -0.8829
   91SAPC  H19R 8742   3.347   4.295   5.648 -1.9326 -1.1350 -3.4380
   91SAPC  H19S 8743   3.452   4.416   5.548  1.3571 -2.6923  0.2081
   91SAPC  C220 8744   3.234   4.447   5.536 -0.2028  0.0654  0.5315
   91SAPC  H20R 8745   3.241   4.419   5.429  0.5558  0.6374  0.4261
   91SAPC  H20S 8746   3.237   4.558   5.532 -2.4715  0.1270 -0.5959
   91SAPC  H20T 8747   3.139   4.421   5.586  0.8396  1.8844  3.7327
   91SAPC   C33 8748   3.521   4.079   6.993 -0.4728 -0.2845 -0.2860
   91SAPC   H3X 8749   3.537   3.974   7.025  0.1870  0.3879  1.7388
   91SAPC   H3Y 8750   3.621   4.120   6.966  0.5622 -1.2149  1.8976
   91SAPC   C34 8751   3.438   4.090   6.868  0.1560  0.3721  0.2259
   91SAPC   H4X 8752   3.411   4.194   6.841 -3.2502 -0.4917 -0.2282
   91SAPC   H4Y 8753   3.338   4.052   6.898  1.3289  0.2874  4.7454
   91SAPC   C35 8754   3.504   4.016   6.751 -0.5501 -0.3784  0.3104
   91SAPC   H5X 8755   3.496   3.905   6.748  2.3524 -0.6671 -1.7895
   91SAPC   H5Y 8756   3.612   4.042   6.749 -0.1857 -1.6068  1.7367
   91SAPC   C36 8757   3.442   4.058   6.619 -0.2454 -0.2274  0.8433
   91SAPC   H6X 8758   3.486   4.154   6.584  0.3106 -0.8029 -0.0746
   91SAPC   H6Y 8759   3.336   4.085   6.633 -0.4523 -0.1257 -0.6948
   91SAPC   C37 8760   3.456   3.955   6.503 -0.1681  0.5411 -0.1623
   91SAPC   H7X 8761   3.428   3.852   6.536 -0.6617  1.4990  2.6988
   91SAPC   H7Y 8762   3.563   3.942   6.476 -0.4421 -1.8144 -0.3469
   91SAPC   C38 8763   3.379   3.999   6.381  0.1196 -0.1743  0.0142
   91SAPC   H8X 8764   3.410   4.101   6.352  0.7422 -0.6363 -1.0086
   91SAPC   H8Y 8765   3.269   3.992   6.394 -0.1481 -0.1997 -1.9808
   91SAPC   C39 8766   3.409   3.920   6.250  0.3351  0.7012  0.0305
   91SAPC   H9X 8767   3.389   3.811   6.262 -1.0941  0.8783 -0.4695
   91SAPC   H9Y 8768   3.512   3.942   6.216  0.3048  0.5728 -0.1462
   91SAPC  C310 8769   3.323   3.960   6.127  0.1038  0.1509  0.0473
   91SAPC  H10X 8770   3.331   4.070   6.121 -0.9804  0.1983 -0.6302
   91SAPC  H10Y 8771   3.213   3.955   6.134  0.0548  1.0703 -0.0746
   91SAPC  C311 8772   3.369   3.925   5.989 -0.3130  0.3398  0.1400
   91SAPC  H11X 8773   3.391   3.816   5.980 -0.8283  0.2194  0.2957
   91SAPC  H11Y 8774   3.470   3.968   5.971  0.1676 -0.8892 -0.2145
   91SAPC  C312 8775   3.276   3.974   5.888  0.2517 -0.2189 -0.3883
   91SAPC  H12X 8776   3.261   4.082   5.910  0.6706 -0.6864  2.7077
   91SAPC  H12Y 8777   3.176   3.928   5.897  0.6155 -1.1960 -1.1318
   91SAPC  C313 8778   3.318   3.948   5.742  0.1262  0.7476  0.1509
   91SAPC  H13X 8779   3.345   3.840   5.740 -0.0236  0.5480  3.3025
   91SAPC  H13Y 8780   3.412   4.001   5.716  0.5441 -0.2720 -0.4690
   91SAPC  C314 8781   3.212   3.992   5.649 -0.5454  0.7073 -0.0826
   91SAPC  H14X 8782   3.204   4.101   5.666 -1.0889  0.4620  1.4216
   91SAPC  H14Y 8783   3.117   3.941   5.677 -0.6636  0.0254 -1.6163
   91SAPC  C315 8784   3.244   3.955   5.507  0.0192  0.2020  0.6158
   91SAPC  H15X 8785   3.330   4.018   5.475 -0.6457 -0.1895 -2.2631
   91SAPC  H15Y 8786   3.168   3.998   5.438  0.6318 -1.5215 -1.2226
   91SAPC  C316 8787   3.267   3.798   5.482 -0.0441 -0.2257  0.0267
   91SAPC  H16X 8788   3.166   3.752   5.493 -0.1987  0.1313  0.1169
   91SAPC  H16Y 8789   3.329   3.759   5.565  1.9388  1.7048 -0.4631
   91SAPC  C317 8790   3.327   3.756   5.340 -0.2496 -0.1996  0.8587
   91SAPC  H17X 8791   3.348   3.647   5.338  0.3604 -0.1023 -1.3410
   91SAPC  H17Y 8792   3.425   3.804   5.320  0.2509 -2.4777 -3.5954
   91SAPC  C318 8793   3.232   3.801   5.227 -0.1311 -0.2742 -0.0789
   91SAPC  H18X 8794   3.130   3.761   5.247 -0.2623  0.3693  0.5890
   91SAPC  H18Y 8795   3.268   3.754   5.134 -0.4679  0.8916 -0.8192
   91SAPC  H18Z 8796   3.229   3.911   5.210  1.4262 -0.1808  0.1129
   92SAPC     N 8797   4.818   1.351   7.514  0.2165  0.0858 -0.0622
   92SAPC   C12 8798   4.747   1.413   7.395 -0.4406 -0.0958 -0.8845
   92SAPC  H12A 8799   4.663   1.472   7.429  1.3978  2.1504  0.0240
   92SAPC  H12B 8800   4.699   1.338   7.333 -1.6825 -1.6742  1.7891
   92SAPC   C13 8801   4.850   1.460   7.610  0.5121 -0.1730  0.1343
   92SAPC  H13A 8802   4.913   1.434   7.694 -0.2321  0.3758  0.8900
   92SAPC  H13B 8803   4.895   1.542   7.556  1.0039 -1.3202 -1.2310
   92SAPC  H13C 8804   4.757   1.488   7.658  0.2178 -2.2673  0.9164
   92SAPC   C14 8805   4.725   1.265   7.591 -0.1289  0.9270  0.1928
   92SAPC  H14A 8806   4.779   1.219   7.673 -0.4011 -1.4823 -0.8787
   92SAPC  H14B 8807   4.642   1.327   7.622  0.4285  2.2174 -0.8107
   92SAPC  H14C 8808   4.684   1.183   7.535  1.6506  0.0573  0.0836
   92SAPC   C15 8809   4.939   1.278   7.479  0.1159 -0.4243  0.0643
   92SAPC  H15A 8810   4.914   1.214   7.395  1.2857 -2.4814  1.2179
   92SAPC  H15B 8811   5.016   1.347   7.446  1.0670 -2.3016 -1.8702
   92SAPC  H15C 8812   4.986   1.213   7.551 -2.0478 -0.8164  1.1895
   92SAPC   C11 8813   4.826   1.515   7.305  0.5123 -0.2226 -0.1886
   92SAPC  H11A 8814   4.781   1.536   7.205  0.2853  0.2511  0.0113
   92SAPC  H11B 8815   4.930   1.475   7.295  1.9145  2.4808  2.0705
   92SAPC     P 8816   4.905   1.764   7.303  0.3919  0.1724  0.0939
   92SAPC   O13 8817   4.807   1.826   7.205 -0.2242  0.2008 -0.1813
   92SAPC   O14 8818   4.946   1.858   7.409  0.6338 -0.1480  0.0579
   92SAPC   O12 8819   4.838   1.635   7.376  0.0287  0.0920 -0.1777
   92SAPC   O11 8820   5.032   1.697   7.236 -0.3692  0.6950 -0.2360
   92SAPC    C1 8821   5.097   1.743   7.117  0.1922  0.6495  0.3545
   92SAPC    HA 8822   5.106   1.854   7.115 -2.0891  0.8683 -0.6035
   92SAPC    HB 8823   5.202   1.709   7.124 -0.5771 -1.8076  0.9534
   92SAPC    C2 8824   5.022   1.688   6.991  0.0304  0.4130  0.1465
   92SAPC    HS 8825   4.916   1.717   7.009 -0.9833 -2.7113 -0.1802
   92SAPC   O21 8826   5.035   1.543   6.977  0.3637 -0.2708  0.4480
   92SAPC   C21 8827   4.927   1.482   6.968  0.5751  0.1114  0.4909
   92SAPC   O22 8828   4.814   1.523   6.942  0.2005 -0.0477 -0.1118
   92SAPC   C22 8829   4.963   1.333   6.992  0.2342  0.4439  0.4989
   92SAPC   H2R 8830   5.029   1.326   7.080  0.5046  2.0658  0.4626
   92SAPC   H2S 8831   4.867   1.278   6.991  0.9979 -0.9999 -2.0411
   92SAPC    C3 8832   5.087   1.764   6.864 -0.5067 -0.5016 -0.2279
   92SAPC    HX 8833   5.193   1.731   6.868 -0.9520 -1.9390  0.6880
   92SAPC    HY 8834   5.094   1.874   6.877 -1.8826 -0.5780  1.5421
   92SAPC   O31 8835   5.043   1.726   6.734  0.1331  0.6907 -0.0902
   92SAPC   C31 8836   4.926   1.798   6.700  0.3437  0.2202  0.1252
   92SAPC   O32 8837   4.865   1.875   6.773  0.9590 -0.4916  1.0349
   92SAPC   C32 8838   4.874   1.750   6.563 -0.6186  0.0797 -0.0394
   92SAPC   H2X 8839   4.938   1.663   6.537 -2.3258 -1.0583 -0.6049
   92SAPC   H2Y 8840   4.905   1.825   6.488  0.0401 -2.4818 -2.5093
   92SAPC   C23 8841   5.033   1.262   6.869 -0.1248 -0.6770 -0.4318
   92SAPC   H3R 8842   5.041   1.153   6.887  0.1066 -0.6132 -0.1435
   92SAPC   H3S 8843   5.134   1.306   6.859 -0.2624  0.3894  2.0703
   92SAPC   C24 8844   4.958   1.286   6.736  0.7709  0.2217  0.3592
   92SAPC   H4R 8845   4.945   1.396   6.729  0.3881  0.3045  2.0081
   92SAPC   H4S 8846   4.854   1.249   6.744  1.1354 -1.6571 -2.1265
   92SAPC   C25 8847   5.024   1.217   6.622 -0.4586 -0.3786 -0.7940
   92SAPC   H5R 8848   5.041   1.108   6.626  1.6985 -0.1832 -2.4038
   92SAPC   C26 8849   5.065   1.285   6.511  0.3075  0.8855  0.2986
   92SAPC   H6R 8850   5.102   1.227   6.425 -1.0193  0.1132  0.2236
   92SAPC   C27 8851   5.066   1.432   6.485  0.6343 -0.1485 -0.4503
   92SAPC   H7R 8852   5.075   1.488   6.581 -0.3881 -0.9282  0.1092
   92SAPC   H7S 8853   4.964   1.465   6.457  0.0663 -2.0879 -0.7940
   92SAPC   C28 8854   5.172   1.477   6.387 -0.6780 -0.1209  0.1921
   92SAPC   H8R 8855   5.268   1.425   6.401 -1.3876 -1.1698  1.4205
   92SAPC   C29 8856   5.162   1.568   6.290  0.4156  0.2085 -0.0594
   92SAPC   H9R 8857   5.243   1.584   6.218  1.1086 -2.9916 -0.1391
   92SAPC  C210 8858   5.055   1.656   6.234  0.1477  0.2660 -1.0374
   92SAPC  H10R 8859   5.104   1.743   6.187 -0.0404  0.4903 -0.8194
   92SAPC  H10S 8860   4.981   1.688   6.311 -2.5112 -2.0203 -2.4366
   92SAPC  C211 8861   4.965   1.584   6.136  0.0365  0.6386 -0.7171
   92SAPC  H11R 8862   4.961   1.474   6.134  0.6146  0.5475  1.2477
   92SAPC  C212 8863   4.901   1.643   6.037 -0.1755 -0.1095  0.1845
   92SAPC  H12R 8864   4.845   1.589   5.959 -0.5124 -0.4183  0.6391
   92SAPC  C213 8865   4.894   1.793   6.013  0.2973  0.6918  0.1111
   92SAPC  H13R 8866   4.882   1.847   6.109 -0.1481 -0.3032  0.6278
   92SAPC  H13S 8867   4.797   1.801   5.959  0.1241  0.8370  0.4422
   92SAPC  C214 8868   5.015   1.838   5.928 -0.6727  0.1350 -0.4076
   92SAPC  H14R 8869   5.112   1.838   5.980 -1.3736  0.5441  0.9580
   92SAPC  C215 8870   5.016   1.878   5.795  0.3381  0.1685  0.0204
   92SAPC  H15R 8871   5.101   1.922   5.741 -1.1458  1.4980 -1.3226
   92SAPC  C216 8872   4.895   1.877   5.712 -0.0088  0.6286 -0.3680
   92SAPC  H16R 8873   4.801   1.879   5.771  0.3930  1.6719  0.2581
   92SAPC  H16S 8874   4.890   1.779   5.660 -0.8109  0.1278  0.6160
   92SAPC  C217 8875   4.904   1.979   5.605  0.1554 -0.3401 -0.1400
   92SAPC  H17R 8876   4.980   1.955   5.528 -0.5338 -0.0323 -0.9348
   92SAPC  H17S 8877   4.931   2.081   5.640  3.5954 -1.6406  1.4003
   92SAPC  C218 8878   4.776   1.997   5.534 -0.4614 -0.1093  0.0053
   92SAPC  H18R 8879   4.690   1.978   5.602  0.1657 -0.1128  0.8069
   92SAPC  H18S 8880   4.748   1.910   5.471 -1.2494 -0.8008  1.2567
   92SAPC  C219 8881   4.761   2.130   5.458  0.4938 -0.2728 -0.4836
   92SAPC  H19R 8882   4.796   2.207   5.531  1.3324  1.2213 -2.3948
   92SAPC  H19S 8883   4.653   2.143   5.436  0.2008 -1.0525  0.3836
   92SAPC  C220 8884   4.843   2.152   5.330  0.1748  0.4903 -0.3447
   92SAPC  H20R 8885   4.952   2.147   5.350  0.1910  0.2430 -0.4849
   92SAPC  H20S 8886   4.833   2.248   5.277  1.0365  0.4964 -0.5103
   92SAPC  H20T 8887   4.823   2.073   5.254 -1.5184 -1.0049  1.5281
   92SAPC   C33 8888   4.725   1.712   6.580 -0.5517  0.4261  0.4100
   92SAPC   H3X 8889   4.677   1.810   6.600  0.6400  0.9224  0.9154
   92SAPC   H3Y 8890   4.713   1.643   6.665  0.2691  0.4423  0.5472
   92SAPC   C34 8891   4.676   1.648   6.450 -0.8717  0.0037  0.0987
   92SAPC   H4X 8892   4.747   1.565   6.428 -1.2020  0.2911 -2.3088
   92SAPC   H4Y 8893   4.695   1.721   6.368  0.1867 -0.4111 -0.0436
   92SAPC   C35 8894   4.532   1.608   6.449 -0.5057  0.2014  0.6037
   92SAPC   H5X 8895   4.515   1.550   6.543  0.0557  1.5211  1.5523
   92SAPC   H5Y 8896   4.526   1.533   6.367  0.4105 -2.4854  2.8391
   92SAPC   C36 8897   4.427   1.716   6.438 -0.3885 -0.0127  0.2437
   92SAPC   H6X 8898   4.443   1.782   6.526 -0.4028 -0.0027  0.2383
   92SAPC   H6Y 8899   4.326   1.672   6.442 -0.4006  0.0331  0.4494
   92SAPC   C37 8900   4.430   1.799   6.309 -0.2369 -0.1475 -0.2301
   92SAPC   H7X 8901   4.523   1.860   6.302 -0.4660  0.1205 -1.1929
   92SAPC   H7Y 8902   4.350   1.877   6.309  1.2849  1.4748  0.4792
   92SAPC   C38 8903   4.421   1.707   6.183  0.2572  0.2439  0.1302
   92SAPC   H8X 8904   4.327   1.650   6.199  0.6841 -0.0503  1.8217
   92SAPC   H8Y 8905   4.515   1.647   6.181  1.0699  1.4788 -1.6678
   92SAPC   C39 8906   4.422   1.795   6.062  0.0587  0.7482  0.4608
   92SAPC   H9X 8907   4.511   1.861   6.067  1.2065 -0.5407 -1.6327
   92SAPC   H9Y 8908   4.326   1.852   6.057 -0.7475 -0.5882  0.1459
   92SAPC  C310 8909   4.448   1.723   5.930  0.4394  0.0630 -0.2274
   92SAPC  H10X 8910   4.362   1.655   5.911 -0.1575  0.2478  1.5843
   92SAPC  H10Y 8911   4.535   1.657   5.950 -0.8176 -1.6945 -0.3221
   92SAPC  C311 8912   4.469   1.816   5.812 -0.6059  0.4913 -0.8279
   92SAPC  H11X 8913   4.526   1.907   5.842  0.4956 -0.5602  0.4337
   92SAPC  H11Y 8914   4.372   1.857   5.779 -1.1033 -0.9819 -1.2714
   92SAPC  C312 8915   4.533   1.740   5.699 -0.3461 -0.8531  0.5057
   92SAPC  H12X 8916   4.631   1.716   5.746 -0.4451  1.0652  1.7868
   92SAPC  H12Y 8917   4.556   1.800   5.608  1.1077 -0.5565  1.0339
   92SAPC  C313 8918   4.458   1.617   5.645  0.2083  0.1293 -0.2393
   92SAPC  H13X 8919   4.349   1.637   5.633  0.6982  2.8822 -0.7811
   92SAPC  H13Y 8920   4.462   1.540   5.724  0.4803 -0.9816 -1.3107
   92SAPC  C314 8921   4.516   1.567   5.511  0.4218 -0.3821  0.2825
   92SAPC  H14X 8922   4.627   1.576   5.520  0.2869  2.5650 -0.0104
   92SAPC  H14Y 8923   4.475   1.639   5.438  0.6253  0.2636  0.8000
   92SAPC  C315 8924   4.474   1.430   5.464 -0.0767 -0.1379  0.1415
   92SAPC  H15X 8925   4.365   1.410   5.469  0.0702 -1.0181  0.0058
   92SAPC  H15Y 8926   4.522   1.364   5.540 -0.0467 -0.0356  0.2123
   92SAPC  C316 8927   4.514   1.392   5.321  0.1667  0.1788 -0.2296
   92SAPC  H16X 8928   4.625   1.393   5.314  0.1975  0.0935  0.2623
   92SAPC  H16Y 8929   4.480   1.469   5.248  1.8130 -1.0925 -2.4501
   92SAPC  C317 8930   4.445   1.256   5.277 -0.3502  0.4819  0.5586
   92SAPC  H17X 8931   4.481   1.223   5.177 -1.3463 -0.5681  0.5241
   92SAPC  H17Y 8932   4.337   1.270   5.256 -0.3396 -0.5577 -0.3051
   92SAPC  C318 8933   4.458   1.138   5.377 -0.7881 -0.1720 -0.4642
   92SAPC  H18X 8934   4.398   1.155   5.469  0.7994  0.7954  0.4470
   92SAPC  H18Y 8935   4.562   1.127   5.414 -0.9467  0.1954  0.1046
   92SAPC  H18Z 8936   4.421   1.041   5.337 -0.8522 -0.4862  0.3552
   93SAPC     N 8937   6.123   4.629   7.587  0.4428  0.2376  0.3206
   93SAPC   C12 8938   6.025   4.555   7.499  0.7735  0.2810 -0.1629
   93SAPC  H12A 8939   5.957   4.627   7.455 -0.8383 -1.9872 -1.5888
   93SAPC  H12B 8940   5.960   4.488   7.555  0.0386 -1.5645 -3.0367
   93SAPC   C13 8941   6.061   4.732   7.670  0.0231  0.6174 -0.0286
   93SAPC  H13A 8942   5.987   4.682   7.731  2.1934 -1.5955  0.9351
   93SAPC  H13B 8943   6.141   4.780   7.724  1.2933  0.0662 -1.3640
   93SAPC  H13C 8944   6.024   4.821   7.620  2.2576  2.7817  1.9668
   93SAPC   C14 8945   6.194   4.546   7.687 -0.1903  1.1111  0.3913
   93SAPC  H14A 8946   6.184   4.442   7.660 -0.3486  1.4543 -0.9069
   93SAPC  H14B 8947   6.301   4.561   7.689  0.0329 -0.1447  3.4175
   93SAPC  H14C 8948   6.162   4.556   7.790  0.1713 -1.7985  0.8690
   93SAPC   C15 8949   6.217   4.704   7.501  0.7193  0.0398  0.0402
   93SAPC  H15A 8950   6.258   4.632   7.432 -0.8003 -1.0827  0.2378
   93SAPC  H15B 8951   6.156   4.778   7.451 -2.2742 -1.8917  0.5826
   93SAPC  H15C 8952   6.305   4.740   7.551 -0.3545 -0.5625  2.5631
   93SAPC   C11 8953   6.086   4.470   7.383 -0.1266  0.4580 -0.4775
   93SAPC  H11A 8954   6.161   4.526   7.324 -1.1094  1.3386 -0.9152
   93SAPC  H11B 8955   6.009   4.429   7.313  1.1644 -0.0057 -1.6697
   93SAPC     P 8956   6.075   4.236   7.503  0.1348 -0.2011 -0.1924
   93SAPC   O13 8957   6.170   4.133   7.546 -0.2236 -0.2167 -0.2953
   93SAPC   O14 8958   5.981   4.294   7.603  0.5407  0.4404  0.1268
   93SAPC   O12 8959   6.153   4.359   7.440  0.3943  0.7486  0.2294
   93SAPC   O11 8960   5.995   4.187   7.384  0.3213 -0.0040 -0.0293
   93SAPC    C1 8961   5.880   4.111   7.377  0.8145 -0.5244 -0.2750
   93SAPC    HA 8962   5.891   4.016   7.321  0.3511  0.4085 -2.0058
   93SAPC    HB 8963   5.843   4.079   7.477 -0.3772 -2.1736 -1.1816
   93SAPC    C2 8964   5.765   4.194   7.325  0.3045  0.1083  0.1825
   93SAPC    HS 8965   5.682   4.121   7.314  0.4282 -0.0621  0.3755
   93SAPC   O21 8966   5.796   4.253   7.191 -0.1447 -0.0451  0.2768
   93SAPC   C21 8967   5.808   4.169   7.090 -0.0687 -0.0005  0.3447
   93SAPC   O22 8968   5.785   4.049   7.083  0.0323  0.0446 -0.4390
   93SAPC   C22 8969   5.872   4.255   6.977 -0.1013  0.1012  0.2194
   93SAPC   H2R 8970   5.798   4.336   6.956  0.7468  0.2166 -2.9187
   93SAPC   H2S 8971   5.964   4.298   7.021  0.0854 -1.4607  1.4077
   93SAPC    C3 8972   5.709   4.301   7.430  0.5077 -0.1756 -0.0723
   93SAPC    HX 8973   5.762   4.398   7.416 -1.8378  0.9675 -1.6082
   93SAPC    HY 8974   5.733   4.261   7.531  1.4832  1.1084  0.2463
   93SAPC   O31 8975   5.564   4.318   7.411  0.1682 -0.0854  0.1580
   93SAPC   C31 8976   5.528   4.444   7.362  0.4289  0.0003  0.0462
   93SAPC   O32 8977   5.598   4.528   7.312 -0.0868  0.2158 -0.0025
   93SAPC   C32 8978   5.377   4.461   7.381  0.1153 -0.2217  0.4123
   93SAPC   H2X 8979   5.360   4.461   7.491  1.1709  5.1873  0.8347
   93SAPC   H2Y 8980   5.318   4.382   7.329 -1.9493 -0.0190  2.2725
   93SAPC   C23 8981   5.899   4.179   6.849 -0.1505  0.2602 -0.3505
   93SAPC   H3R 8982   5.978   4.103   6.871 -1.2099 -0.0493  2.9928
   93SAPC   H3S 8983   5.943   4.238   6.767 -0.8512  0.2983 -0.7043
   93SAPC   C24 8984   5.773   4.115   6.780  0.1078 -0.0535 -0.3482
   93SAPC   H4R 8985   5.714   4.055   6.853  0.9326 -1.1602 -0.5600
   93SAPC   H4S 8986   5.809   4.049   6.697  1.2205  1.6902 -1.3122
   93SAPC   C25 8987   5.689   4.226   6.725 -0.0341  0.0379  0.3636
   93SAPC   H5R 8988   5.622   4.277   6.796  0.0389  1.0719 -0.2930
   93SAPC   C26 8989   5.673   4.261   6.599  0.3666 -0.0806  0.3022
   93SAPC   H6R 8990   5.627   4.359   6.578 -0.0258  0.3235  2.6937
   93SAPC   C27 8991   5.754   4.198   6.484 -0.0330 -0.0903  0.0405
   93SAPC   H7R 8992   5.830   4.135   6.536 -0.5204  0.2736  1.2385
   93SAPC   H7S 8993   5.814   4.278   6.437  1.5945 -1.6297 -0.6316
   93SAPC   C28 8994   5.676   4.108   6.395  0.9221 -0.1032 -1.3024
   93SAPC   H8R 8995   5.596   4.056   6.450  0.4441 -0.6330 -2.4641
   93SAPC   C29 8996   5.699   4.074   6.270 -0.4906 -0.0496 -0.0718
   93SAPC   H9R 8997   5.616   4.023   6.217 -1.8013  1.1067  0.7942
   93SAPC  C210 8998   5.803   4.141   6.176  0.2945 -0.4689  0.1657
   93SAPC  H10R 8999   5.897   4.165   6.231 -0.3436 -1.1506  1.6054
   93SAPC  H10S 9000   5.762   4.231   6.127  0.6920 -1.0026 -1.1924
   93SAPC  C211 9001   5.841   4.045   6.062  0.1249  0.0692 -0.0676
   93SAPC  H11R 9002   5.920   3.974   6.090  0.1124 -0.6257 -1.7099
   93SAPC  C212 9003   5.764   4.029   5.951  0.0813  0.2679  0.2467
   93SAPC  H12R 9004   5.796   3.951   5.881  0.9348  1.3902 -0.6517
   93SAPC  C213 9005   5.638   4.108   5.913 -0.4981  0.7833 -0.0757
   93SAPC  H13R 9006   5.666   4.179   5.832  0.8048  2.9091  2.1086
   93SAPC  H13S 9007   5.595   4.171   5.994  1.5435  2.6251 -0.3263
   93SAPC  C214 9008   5.541   4.002   5.870 -0.5899 -0.4084 -0.5590
   93SAPC  H14R 9009   5.516   3.933   5.953 -2.1147  0.3388 -0.3640
   93SAPC  C215 9010   5.500   3.974   5.746  0.0971 -0.5172  0.4122
   93SAPC  H15R 9011   5.454   3.876   5.729  0.3422 -1.1645  3.0641
   93SAPC  C216 9012   5.552   4.048   5.616 -0.0125  0.1444 -0.1787
   93SAPC  H16R 9013   5.562   3.977   5.531 -1.9010 -2.3582  1.5262
   93SAPC  H16S 9014   5.651   4.096   5.636  0.2840 -1.1441  1.7889
   93SAPC  C217 9015   5.441   4.150   5.574  0.5182  0.3349  0.6599
   93SAPC  H17R 9016   5.398   4.208   5.659  0.9725 -0.0748  1.1781
   93SAPC  H17S 9017   5.358   4.086   5.539  0.5427 -1.2745  3.2364
   93SAPC  C218 9018   5.490   4.229   5.454  0.2390 -0.5499 -0.0586
   93SAPC  H18R 9019   5.522   4.162   5.371 -2.8012 -0.5019 -1.4000
   93SAPC  H18S 9020   5.580   4.287   5.484  0.8449 -1.1417 -0.6929
   93SAPC  C219 9021   5.380   4.327   5.403 -0.4234  0.5528 -0.6846
   93SAPC  H19R 9022   5.285   4.278   5.376 -0.2711 -0.5879  0.7292
   93SAPC  H19S 9023   5.410   4.387   5.315  0.3378  1.6063  0.2571
   93SAPC  C220 9024   5.339   4.440   5.505  0.3962 -0.4276  0.9664
   93SAPC  H20R 9025   5.422   4.485   5.563 -0.8339 -0.9377  3.2660
   93SAPC  H20S 9026   5.273   4.403   5.587 -1.5103  0.6115 -0.0357
   93SAPC  H20T 9027   5.282   4.519   5.450  1.0906  0.2231  1.1660
   93SAPC   C33 9028   5.331   4.604   7.333 -0.0146  0.2248 -0.5506
   93SAPC   H3X 9029   5.370   4.619   7.230 -1.2566  0.4822 -1.0008
   93SAPC   H3Y 9030   5.356   4.695   7.392  3.7755 -0.5635 -0.6874
   93SAPC   C34 9031   5.181   4.593   7.322 -0.0128  0.6410  0.2645
   93SAPC   H4X 9032   5.146   4.616   7.425  1.0971 -0.2781  0.8778
   93SAPC   H4Y 9033   5.133   4.497   7.294  1.6018  0.5967 -2.7408
   93SAPC   C35 9034   5.121   4.685   7.219  0.5269  0.0364  0.1234
   93SAPC   H5X 9035   5.150   4.660   7.114  0.1252  0.2272 -0.0372
   93SAPC   H5Y 9036   5.156   4.789   7.236 -1.0384  0.2520  2.3984
   93SAPC   C36 9037   4.966   4.682   7.224 -0.1273 -0.7254  0.8379
   93SAPC   H6X 9038   4.925   4.719   7.320 -4.4482  1.0355 -1.4357
   93SAPC   H6Y 9039   4.934   4.577   7.213 -2.8419  0.1731 -0.5601
   93SAPC   C37 9040   4.895   4.761   7.109 -0.0170 -0.2183 -0.4894
   93SAPC   H7X 9041   4.956   4.770   7.016 -1.5888  1.4998 -1.4311
   93SAPC   H7Y 9042   4.883   4.868   7.135  4.1713  0.5529 -0.9975
   93SAPC   C38 9043   4.767   4.694   7.059 -0.5912  0.5898 -0.5048
   93SAPC   H8X 9044   4.696   4.702   7.145 -1.2019 -0.9228 -0.8377
   93SAPC   H8Y 9045   4.796   4.588   7.046  1.6638  1.3223 -2.0322
   93SAPC   C39 9046   4.704   4.751   6.936  0.4673 -0.4374  0.5333
   93SAPC   H9X 9047   4.720   4.860   6.936  1.7141 -0.6059  0.1206
   93SAPC   H9Y 9048   4.599   4.714   6.940  1.0476 -2.2112  0.5662
   93SAPC  C310 9049   4.758   4.687   6.803  0.1115 -1.0539 -0.2166
   93SAPC  H10X 9050   4.676   4.683   6.728  0.2257 -0.0371 -0.4143
   93SAPC  H10Y 9051   4.790   4.583   6.824  0.7285 -1.0909 -1.2682
   93SAPC  C311 9052   4.876   4.768   6.745  0.1666  0.3193  0.1865
   93SAPC  H11X 9053   4.958   4.746   6.816 -0.7996  0.1780  1.2852
   93SAPC  H11Y 9054   4.866   4.879   6.744 -2.5594  0.1746 -1.7571
   93SAPC  C312 9055   4.926   4.714   6.606  0.0832 -0.1446 -0.6977
   93SAPC  H12X 9056   4.919   4.603   6.608 -0.9756 -0.1045  2.0106
   93SAPC  H12Y 9057   5.030   4.751   6.592 -0.2373  0.8271 -0.5976
   93SAPC  C313 9058   4.841   4.781   6.503 -0.2291  0.2432 -0.4262
   93SAPC  H13X 9059   4.885   4.882   6.492 -0.7604  0.5508  0.1732
   93SAPC  H13Y 9060   4.740   4.787   6.550  1.0808 -0.3410  2.7443
   93SAPC  C314 9061   4.836   4.709   6.367 -0.1673  0.1698  0.6691
   93SAPC  H14X 9062   4.773   4.618   6.377  0.7183 -0.5010  0.2029
   93SAPC  H14Y 9063   4.937   4.671   6.342 -0.5072 -0.1683 -0.2234
   93SAPC  C315 9064   4.772   4.799   6.250 -0.4788  0.4726 -0.7914
   93SAPC  H15X 9065   4.854   4.870   6.229 -0.4173  0.9209  0.8340
   93SAPC  H15Y 9066   4.684   4.858   6.283 -0.7471  0.7630 -1.9962
   93SAPC  C316 9067   4.745   4.717   6.127  0.6148  0.1037  0.9006
   93SAPC  H16X 9068   4.708   4.786   6.048  0.6182  0.0516  0.8542
   93SAPC  H16Y 9069   4.657   4.653   6.151 -0.2393  0.8522 -0.1246
   93SAPC  C317 9070   4.861   4.628   6.079  0.6889  0.0439  0.6159
   93SAPC  H17X 9071   4.839   4.576   5.983  0.1829 -1.0824  1.3144
   93SAPC  H17Y 9072   4.867   4.543   6.150 -1.8155 -1.1406 -0.4529
   93SAPC  C318 9073   5.001   4.683   6.064  0.5099 -0.6695 -0.0912
   93SAPC  H18X 9074   5.030   4.766   6.132 -0.9889 -0.6002  0.5009
   93SAPC  H18Y 9075   5.013   4.730   5.964  0.6380 -2.7078 -1.0928
   93SAPC  H18Z 9076   5.072   4.598   6.071  0.0404 -1.0896 -0.3776
   94SAPC     N 9077   5.806   1.550   7.731  0.2234 -0.3978  0.3791
   94SAPC   C12 9078   5.868   1.464   7.629  0.5021  0.4900  0.7424
   94SAPC  H12A 9079   5.940   1.404   7.683  0.5290  0.7785  1.0322
   94SAPC  H12B 9080   5.931   1.521   7.562 -0.0681 -0.9144 -1.0862
   94SAPC   C13 9081   5.682   1.609   7.688  0.0810  0.0853  0.4949
   94SAPC  H13A 9082   5.619   1.526   7.661  0.0685 -0.9333  3.3476
   94SAPC  H13B 9083   5.644   1.655   7.778 -0.9228 -2.7005  1.5892
   94SAPC  H13C 9084   5.703   1.678   7.607  0.6260  1.3360  1.6708
   94SAPC   C14 9085   5.806   1.476   7.859  0.1168 -0.3899 -0.1871
   94SAPC  H14A 9086   5.765   1.536   7.939 -1.9023 -0.2271 -1.2807
   94SAPC  H14B 9087   5.744   1.388   7.849 -0.5196  0.2133 -1.9160
   94SAPC  H14C 9088   5.901   1.433   7.887  0.7723  2.2043  1.9470
   94SAPC   C15 9089   5.891   1.675   7.756  0.1475  0.2461 -0.1653
   94SAPC  H15A 9090   5.863   1.743   7.834  2.9499  0.5560  0.7032
   94SAPC  H15B 9091   5.995   1.652   7.774  0.5200  1.3199 -0.8118
   94SAPC  H15C 9092   5.898   1.731   7.663  0.6040 -0.9374 -0.8729
   94SAPC   C11 9093   5.777   1.362   7.560  0.2213  0.1684 -0.2691
   94SAPC  H11A 9094   5.829   1.302   7.483 -0.3570  0.0879 -0.6051
   94SAPC  H11B 9095   5.690   1.402   7.503 -1.2894 -1.0537  1.0545
   94SAPC     P 9096   5.800   1.147   7.717  0.0513  0.2035 -0.2425
   94SAPC   O13 9097   5.939   1.182   7.757 -0.5747  0.1475  0.0693
   94SAPC   O14 9098   5.714   1.085   7.816  0.3052  0.5026 -0.1234
   94SAPC   O12 9099   5.725   1.274   7.657  0.0330 -0.2724 -0.4872
   94SAPC   O11 9100   5.800   1.050   7.591 -0.2244  0.5143  0.0821
   94SAPC    C1 9101   5.681   1.002   7.534  0.7112  0.6906  0.2742
   94SAPC    HA 9102   5.632   0.915   7.584 -1.2010  0.3136 -2.0893
   94SAPC    HB 9103   5.604   1.078   7.508 -1.5545 -1.4578  0.2279
   94SAPC    C2 9104   5.721   0.941   7.395  0.3414 -0.5561 -0.4015
   94SAPC    HS 9105   5.806   0.873   7.419  1.7319  0.9078 -1.0218
   94SAPC   O21 9106   5.756   1.056   7.313  0.3617 -0.7357 -0.1280
   94SAPC   C21 9107   5.849   1.028   7.226 -0.3369 -0.6150  0.3834
   94SAPC   O22 9108   5.897   0.919   7.198  0.3167  0.5168  0.0460
   94SAPC   C22 9109   5.887   1.161   7.155  0.0113  0.0691  0.6138
   94SAPC   H2R 9110   5.790   1.195   7.112 -0.3762 -1.4281  0.2573
   94SAPC   H2S 9111   5.921   1.230   7.236  0.7598 -2.3308  2.4571
   94SAPC    C3 9112   5.606   0.858   7.322 -0.3433 -0.0326  0.8585
   94SAPC    HX 9113   5.524   0.930   7.301  0.2379 -0.0147 -1.7170
   94SAPC    HY 9114   5.575   0.786   7.401  0.4874 -0.9534  0.3681
   94SAPC   O31 9115   5.646   0.790   7.205 -0.1621  0.2137 -0.3342
   94SAPC   C31 9116   5.701   0.672   7.224 -0.2363  0.2632 -0.3816
   94SAPC   O32 9117   5.714   0.623   7.338  0.0713 -0.6262  0.0553
   94SAPC   C32 9118   5.737   0.605   7.094  0.0944 -0.3692 -0.2908
   94SAPC   H2X 9119   5.842   0.572   7.086  0.3799  0.3282  0.4997
   94SAPC   H2Y 9120   5.701   0.663   7.006  1.5675  0.8046 -0.1459
   94SAPC   C23 9121   5.996   1.150   7.044  0.7227  0.1181  0.2951
   94SAPC   H3R 9122   6.072   1.079   7.084  1.1322 -1.0030 -2.2518
   94SAPC   H3S 9123   6.059   1.240   7.030  0.8070 -0.1717 -1.3928
   94SAPC   C24 9124   5.945   1.100   6.906 -0.4293 -0.3758  0.1193
   94SAPC   H4R 9125   5.841   1.139   6.901 -1.1380 -2.2506 -0.5730
   94SAPC   H4S 9126   5.930   0.990   6.911  3.3580 -1.0133 -0.0518
   94SAPC   C25 9127   6.032   1.151   6.793 -0.0752  0.5199  0.5395
   94SAPC   H5R 9128   6.134   1.187   6.813 -0.6373  2.7624 -0.2574
   94SAPC   C26 9129   5.981   1.155   6.665 -0.0665 -0.6014  0.2378
   94SAPC   H6R 9130   6.044   1.176   6.577 -2.0823  0.4372 -1.0237
   94SAPC   C27 9131   5.832   1.129   6.641 -0.7463  0.0570 -0.0280
   94SAPC   H7R 9132   5.774   1.222   6.625  2.0062  1.7538 -0.7411
   94SAPC   H7S 9133   5.778   1.077   6.723  0.6052  0.9469  1.4666
   94SAPC   C28 9134   5.816   1.029   6.528 -0.4245 -0.2131 -0.3514
   94SAPC   H8R 9135   5.874   0.937   6.547 -0.5488 -0.2078  0.0648
   94SAPC   C29 9136   5.743   1.043   6.412  0.0491  0.2604  0.2764
   94SAPC   H9R 9137   5.728   0.950   6.354 -0.2099  0.3957  0.1213
   94SAPC  C210 9138   5.654   1.161   6.380 -0.0043 -0.0984 -0.7879
   94SAPC  H10R 9139   5.630   1.132   6.275 -0.2653 -2.0585 -0.2256
   94SAPC  H10S 9140   5.710   1.256   6.392 -0.1887 -0.2341  1.5709
   94SAPC  C211 9141   5.521   1.180   6.459 -0.3288  0.1791 -0.1625
   94SAPC  H11R 9142   5.531   1.214   6.563  2.0662  0.5632 -0.4571
   94SAPC  C212 9143   5.402   1.147   6.414 -0.5184  0.0815 -0.0337
   94SAPC  H12R 9144   5.320   1.156   6.487  0.4008  0.9229  0.9237
   94SAPC  C213 9145   5.359   1.092   6.280  0.0836 -0.2171  0.6751
   94SAPC  H13R 9146   5.308   0.997   6.303  0.6279 -0.5219  0.6362
   94SAPC  H13S 9147   5.442   1.067   6.211  0.9916  0.6911  1.4106
   94SAPC  C214 9148   5.263   1.172   6.195 -0.5508  0.4474  0.4071
   94SAPC  H14R 9149   5.157   1.147   6.211 -0.9905  1.7162 -0.2916
   94SAPC  C215 9150   5.296   1.267   6.107  0.4801 -0.2704  0.6237
   94SAPC  H15R 9151   5.220   1.318   6.047  0.6068  0.4402  1.0589
   94SAPC  C216 9152   5.435   1.320   6.085  0.1837 -0.0097 -0.2489
   94SAPC  H16R 9153   5.491   1.321   6.181 -0.4623 -1.3681  0.1571
   94SAPC  H16S 9154   5.416   1.425   6.054 -0.7825 -0.7902 -2.5175
   94SAPC  C217 9155   5.515   1.233   5.994 -0.5917  0.4970 -0.7397
   94SAPC  H17R 9156   5.459   1.204   5.902 -1.5478 -0.6172  0.1595
   94SAPC  H17S 9157   5.543   1.137   6.042 -0.0972  0.3414 -1.3265
   94SAPC  C218 9158   5.643   1.309   5.956  0.0188 -0.3634  0.4222
   94SAPC  H18R 9159   5.605   1.389   5.889 -2.4579  0.6412  2.8400
   94SAPC  H18S 9160   5.719   1.249   5.903 -0.7595  0.9490 -2.4123
   94SAPC  C219 9161   5.703   1.389   6.072 -0.2679  0.5551  0.1274
   94SAPC  H19R 9162   5.720   1.328   6.163 -1.6316  0.0370  0.0586
   94SAPC  H19S 9163   5.635   1.474   6.091 -0.2723  0.9465 -1.4462
   94SAPC  C220 9164   5.834   1.448   6.019  0.0493 -0.4626  0.4174
   94SAPC  H20R 9165   5.917   1.380   5.989  2.2663  2.0769  0.3479
   94SAPC  H20S 9166   5.894   1.499   6.098 -0.1281 -0.1063  0.3259
   94SAPC  H20T 9167   5.817   1.516   5.932 -0.3977  1.7288  2.1271
   94SAPC   C33 9168   5.659   0.474   7.075 -0.1275  0.5205  0.1747
   94SAPC   H3X 9169   5.553   0.494   7.046 -0.5211 -0.8910  0.5656
   94SAPC   H3Y 9170   5.665   0.411   7.166  0.8900  0.1726 -0.1287
   94SAPC   C34 9171   5.713   0.392   6.956  0.0490 -0.1068 -0.7612
   94SAPC   H4X 9172   5.821   0.374   6.971 -0.0502 -0.3450 -0.3029
   94SAPC   H4Y 9173   5.705   0.452   6.863  2.0570  0.6993 -0.4507
   94SAPC   C35 9174   5.663   0.245   6.949 -0.1051 -0.0449  0.0470
   94SAPC   H5X 9175   5.552   0.250   6.954 -0.0420  0.8372  0.8499
   94SAPC   H5Y 9176   5.702   0.185   7.033  2.2088  2.0616  0.6136
   94SAPC   C36 9177   5.703   0.166   6.824  0.3253  0.1460  0.0253
   94SAPC   H6X 9178   5.647   0.070   6.830 -0.7827  0.7140 -0.8184
   94SAPC   H6Y 9179   5.811   0.142   6.824  0.4145  0.5293  1.0578
   94SAPC   C37 9180   5.665   0.235   6.688 -0.1062  0.2082  0.3946
   94SAPC   H7X 9181   5.727   0.322   6.657  0.4904 -1.7601 -5.0905
   94SAPC   H7Y 9182   5.557   0.261   6.681 -0.5693 -1.9133 -1.6643
   94SAPC   C38 9183   5.690   0.144   6.571  0.4205  0.6940 -0.1507
   94SAPC   H8X 9184   5.614   0.064   6.564  0.3206  0.8040 -0.3157
   94SAPC   H8Y 9185   5.787   0.091   6.587 -0.3421 -1.0061 -0.9266
   94SAPC   C39 9186   5.701   0.198   6.428  0.6807 -0.5892  0.2364
   94SAPC   H9X 9187   5.778   0.279   6.426 -0.8660  0.9437 -0.4945
   94SAPC   H9Y 9188   5.605   0.239   6.391  1.0561 -0.2763 -0.3974
   94SAPC  C310 9189   5.734   0.090   6.329  0.4742 -0.2023  0.2447
   94SAPC  H10X 9190   5.662   0.010   6.357 -0.5504  0.6951  0.2459
   94SAPC  H10Y 9191   5.833   0.052   6.362 -0.4741 -0.9056  2.4697
   94SAPC  C311 9192   5.718   0.132   6.186  0.3332  0.2110  0.2593
   94SAPC  H11X 9193   5.619   0.178   6.170  0.7605  1.6669  1.5072
   94SAPC  H11Y 9194   5.723   0.036   6.131  0.4771 -0.0086  0.6515
   94SAPC  C312 9195   5.825   0.232   6.134 -0.8678 -0.6374 -0.2287
   94SAPC  H12X 9196   5.916   0.214   6.195 -2.0276 -1.4677  1.3071
   94SAPC  H12Y 9197   5.798   0.337   6.157  0.6966 -0.5476  1.4440
   94SAPC  C313 9198   5.862   0.224   5.983  0.5856  0.5365 -0.4735
   94SAPC  H13X 9199   5.917   0.129   5.969 -1.8710 -1.0613  0.0460
   94SAPC  H13Y 9200   5.931   0.307   5.958  1.8425 -0.4924 -0.5271
   94SAPC  C314 9201   5.745   0.219   5.882  0.1296  0.1813  0.0110
   94SAPC  H14X 9202   5.673   0.301   5.904  1.9738  1.8527  0.1383
   94SAPC  H14Y 9203   5.698   0.119   5.896 -2.1579  1.1950 -0.0176
   94SAPC  C315 9204   5.784   0.235   5.730  0.5756 -0.4079 -0.7904
   94SAPC  H15X 9205   5.690   0.219   5.675  1.6165  2.8280 -3.8917
   94SAPC  H15Y 9206   5.868   0.166   5.705  1.9609  0.7997  0.3262
   94SAPC  C316 9207   5.815   0.382   5.695  0.5744 -0.4439  1.3067
   94SAPC  H16X 9208   5.836   0.376   5.586 -2.0015 -1.6497  0.7981
   94SAPC  H16Y 9209   5.910   0.413   5.744  1.4685 -0.2205 -0.4754
   94SAPC  C317 9210   5.712   0.491   5.733 -0.6639  0.0040 -0.6841
   94SAPC  H17X 9211   5.689   0.490   5.842 -0.5827 -0.4349 -0.6687
   94SAPC  H17Y 9212   5.620   0.464   5.678 -1.1474  0.1335  0.0437
   94SAPC  C318 9213   5.741   0.636   5.690 -0.7842 -0.2428 -0.5459
   94SAPC  H18X 9214   5.657   0.702   5.721  1.2322  2.6987 -0.8759
   94SAPC  H18Y 9215   5.750   0.642   5.579 -0.0871 -0.6847 -0.5235
   94SAPC  H18Z 9216   5.835   0.656   5.747 -0.1976 -0.0042 -1.5710
   95SAPC     N 9217   0.209   2.826   2.946  0.7858  0.3636  0.0844
   95SAPC   C12 9218   0.307   2.757   3.035 -0.3088  0.0645  0.6296
   95SAPC  H12A 9219   0.396   2.817   3.029  0.5906 -1.2822 -0.0448
   95SAPC  H12B 9220   0.328   2.664   2.985 -2.1703  0.3828 -0.8737
   95SAPC   C13 9221   0.177   2.952   3.010 -0.5487 -0.0212  0.1763
   95SAPC  H13A 9222   0.163   2.945   3.117  0.7545  1.6926  0.5133
   95SAPC  H13B 9223   0.257   3.024   2.998 -0.0691 -0.6196 -0.3191
   95SAPC  H13C 9224   0.090   2.997   2.964  0.8722  3.3711  0.5140
   95SAPC   C14 9225   0.271   2.846   2.809  0.0398  0.5027  0.3342
   95SAPC  H14A 9226   0.338   2.930   2.806  1.5773 -0.6688  0.4249
   95SAPC  H14B 9227   0.311   2.758   2.760  1.0991  1.4106 -0.4992
   95SAPC  H14C 9228   0.188   2.870   2.745 -0.4634 -0.5619  0.5586
   95SAPC   C15 9229   0.074   2.753   2.924  0.4153 -0.2032 -0.3387
   95SAPC  H15A 9230   0.094   2.659   2.875  3.4522  0.1349  0.0463
   95SAPC  H15B 9231   0.020   2.731   3.015 -1.3916  1.7522 -0.8395
   95SAPC  H15C 9232   0.008   2.808   2.858  0.2435  0.6246  0.4932
   95SAPC   C11 9233   0.275   2.727   3.184  0.5459  0.0905  0.3792
   95SAPC  H11A 9234   0.254   2.816   3.247  3.5504  0.7738  0.5519
   95SAPC  H11B 9235   0.365   2.684   3.231  1.3305 -0.1413 -1.2655
   95SAPC     P 9236   0.176   2.485   3.136  0.0256 -0.3018 -0.5282
   95SAPC   O13 9237   0.035   2.443   3.121 -0.0627 -0.4228  0.1103
   95SAPC   O14 9238   0.272   2.463   3.022 -0.3014  0.4142 -0.4363
   95SAPC   O12 9239   0.175   2.632   3.180 -0.2590 -0.1594 -0.8444
   95SAPC   O11 9240   0.245   2.419   3.264  0.4808  0.1702  0.0941
   95SAPC    C1 9241   0.172   2.406   3.383  0.1400 -1.0058 -0.7997
   95SAPC    HA 9242   0.086   2.476   3.393  1.2830  0.4755 -0.9500
   95SAPC    HB 9243   0.142   2.300   3.399 -0.6199 -0.3527  3.2249
   95SAPC    C2 9244   0.258   2.451   3.511  0.8856 -0.1732  0.6998
   95SAPC    HS 9245   0.338   2.374   3.523  2.1698  0.3008 -3.3581
   95SAPC   O21 9246   0.189   2.478   3.635  0.5469 -0.0479  0.3679
   95SAPC   C21 9247   0.100   2.390   3.676 -0.0800 -0.1782 -0.0175
   95SAPC   O22 9248   0.072   2.281   3.626 -0.1683 -0.3318 -0.1420
   95SAPC   C22 9249   0.034   2.441   3.799  0.2092 -0.8913 -0.4914
   95SAPC   H2R 9250   0.048   2.550   3.809  0.5034 -0.7810 -1.8650
   95SAPC   H2S 9251  -0.076   2.424   3.795 -0.2691  1.8263 -0.6236
   95SAPC    C3 9252   0.343   2.578   3.474  0.2913  0.2032 -1.0994
   95SAPC    HX 9253   0.264   2.653   3.456 -0.4333 -1.0604 -3.5248
   95SAPC    HY 9254   0.400   2.560   3.380  1.7372  4.0083 -1.1371
   95SAPC   O31 9255   0.421   2.631   3.582  0.3093  0.2873  0.6044
   95SAPC   C31 9256   0.523   2.556   3.618  0.3146 -0.0833  0.3572
   95SAPC   O32 9257   0.564   2.457   3.561  0.1072  0.3948  0.1426
   95SAPC   C32 9258   0.580   2.621   3.746 -0.0149  0.1136  0.3119
   95SAPC   H2X 9259   0.613   2.721   3.711 -0.9924  0.7714  1.2111
   95SAPC   H2Y 9260   0.664   2.556   3.779 -0.2954  0.1819  1.1843
   95SAPC   C23 9261   0.092   2.379   3.932  0.1034  0.1466  0.2984
   95SAPC   H3R 9262   0.195   2.419   3.941  0.0812  0.2800 -0.0188
   95SAPC   H3S 9263   0.115   2.270   3.925 -0.8757 -0.4584  4.0671
   95SAPC   C24 9264   0.002   2.422   4.056 -0.8318  0.0472  0.0811
   95SAPC   H4R 9265  -0.088   2.360   4.041 -0.4625 -0.6131  0.5530
   95SAPC   H4S 9266  -0.036   2.526   4.045 -1.8825 -0.3703 -0.3087
   95SAPC   C25 9267   0.065   2.374   4.186  0.3659  0.7232  0.0603
   95SAPC   H5R 9268   0.139   2.442   4.232  0.6480  0.5536 -0.1441
   95SAPC   C26 9269   0.030   2.263   4.261 -0.7992 -0.7474  0.1361
   95SAPC   H6R 9270   0.073   2.258   4.362 -0.8165  2.1157  0.3772
   95SAPC   C27 9271  -0.075   2.158   4.245 -0.5334 -0.1976  0.0658
   95SAPC   H7R 9272  -0.045   2.070   4.305 -1.9805 -0.3898  0.5425
   95SAPC   H7S 9273  -0.072   2.121   4.140  1.8745  2.1936 -0.8300
   95SAPC   C28 9274  -0.210   2.214   4.275 -0.1687 -0.2771 -0.3329
   95SAPC   H8R 9275  -0.257   2.282   4.203 -2.0588  0.2051  1.2633
   95SAPC   C29 9276  -0.281   2.191   4.388  0.2209 -0.5357 -0.2489
   95SAPC   H9R 9277  -0.376   2.244   4.408 -0.1443 -1.7295  1.4041
   95SAPC  C210 9278  -0.238   2.096   4.502  0.2760  0.3121 -0.1643
   95SAPC  H10R 9279  -0.133   2.107   4.535 -0.2152 -0.7658  1.9006
   95SAPC  H10S 9280  -0.250   1.990   4.470 -0.9200  0.0006  1.2085
   95SAPC  C211 9281  -0.336   2.122   4.618 -0.0905 -0.1405  0.8098
   95SAPC  H11R 9282  -0.424   2.056   4.617 -0.9937  1.0170 -0.7026
   95SAPC  C212 9283  -0.328   2.216   4.715  0.2889 -0.3814  0.1465
   95SAPC  H12R 9284  -0.418   2.223   4.777  0.5081  0.6513  0.3572
   95SAPC  C213 9285  -0.219   2.315   4.725  0.2173  0.2486 -0.5092
   95SAPC  H13R 9286  -0.130   2.285   4.665  2.1452  1.7954  1.4257
   95SAPC  H13S 9287  -0.188   2.311   4.832 -0.7935 -0.0633 -0.2150
   95SAPC  C214 9288  -0.273   2.449   4.674  0.2085  0.4705  0.1285
   95SAPC  H14R 9289  -0.291   2.448   4.565  1.1013  0.1582 -0.0197
   95SAPC  C215 9290  -0.288   2.560   4.745  0.2078  0.3028 -0.6953
   95SAPC  H15R 9291  -0.310   2.650   4.686  0.3367  1.5423  1.0786
   95SAPC  C216 9292  -0.282   2.569   4.895 -0.0279 -0.2408  0.4508
   95SAPC  H16R 9293  -0.246   2.478   4.948 -1.1985 -0.9972 -0.0060
   95SAPC  H16S 9294  -0.385   2.589   4.932 -0.9190 -1.1644 -1.3975
   95SAPC  C217 9295  -0.178   2.672   4.938 -0.5415  0.0739  0.1654
   95SAPC  H17R 9296  -0.196   2.767   4.883 -0.0186  0.0508 -0.0493
   95SAPC  H17S 9297  -0.078   2.637   4.905 -1.3486  0.2647 -2.7651
   95SAPC  C218 9298  -0.185   2.696   5.090 -0.2752  0.0099  1.0549
   95SAPC  H18R 9299  -0.177   2.600   5.145  0.4661  0.2909  1.4448
   95SAPC  H18S 9300  -0.283   2.740   5.120 -0.0088  1.0656  0.4408
   95SAPC  C219 9301  -0.070   2.780   5.143 -0.0801 -0.2354  0.0037
   95SAPC  H19R 9302   0.022   2.759   5.085  0.3132  1.2528  0.0541
   95SAPC  H19S 9303  -0.048   2.744   5.245  0.0310 -1.3671 -0.4086
   95SAPC  C220 9304  -0.090   2.939   5.150  0.1586  0.0391 -0.1142
   95SAPC  H20R 9305  -0.090   2.966   5.043 -1.4474 -4.0214 -1.3372
   95SAPC  H20S 9306   0.001   2.967   5.207  0.5191 -0.7962 -0.2610
   95SAPC  H20T 9307  -0.186   2.960   5.203 -0.4619  0.2538 -1.3045
   95SAPC   C33 9308   0.475   2.636   3.853  0.2205  0.2233  0.1579
   95SAPC   H3X 9309   0.431   2.539   3.883  0.0629  0.5776  1.1136
   95SAPC   H3Y 9310   0.387   2.693   3.817  1.0531  1.4019 -0.0671
   95SAPC   C34 9311   0.519   2.687   3.990 -0.1140  0.4775  0.1909
   95SAPC   H4X 9312   0.541   2.796   3.988 -1.2771  0.7109 -0.6669
   95SAPC   H4Y 9313   0.613   2.637   4.023 -1.1745 -3.1636 -1.7799
   95SAPC   C35 9314   0.400   2.652   4.079 -0.2431  0.1238 -0.5290
   95SAPC   H5X 9315   0.402   2.545   4.109 -1.8100  1.1023  3.8156
   95SAPC   H5Y 9316   0.304   2.683   4.033  0.1169  1.9965 -0.1189
   95SAPC   C36 9317   0.410   2.719   4.217 -0.1242  0.5709  0.1184
   95SAPC   H6X 9318   0.396   2.827   4.196  2.0331  0.7385 -0.8188
   95SAPC   H6Y 9319   0.512   2.710   4.261 -0.3566 -0.0193  0.5593
   95SAPC   C37 9320   0.300   2.664   4.314  0.8756  0.1386  0.1646
   95SAPC   H7X 9321   0.342   2.569   4.354 -1.4065 -2.0971 -2.3220
   95SAPC   H7Y 9322   0.213   2.641   4.249  0.9122  1.1046 -0.2414
   95SAPC   C38 9323   0.276   2.756   4.434  0.1117  0.1849  0.1203
   95SAPC   H8X 9324   0.222   2.849   4.408 -1.0921 -0.6245 -0.3631
   95SAPC   H8Y 9325   0.376   2.790   4.469  0.4441 -1.1596  0.5221
   95SAPC   C39 9326   0.205   2.668   4.538  0.1128  0.4289  0.1771
   95SAPC   H9X 9327   0.257   2.570   4.549 -0.1328  0.3967  1.1751
   95SAPC   H9Y 9328   0.107   2.641   4.495  0.8066 -0.3445 -0.9633
   95SAPC  C310 9329   0.183   2.740   4.667  0.1363 -0.6120 -0.7149
   95SAPC  H10X 9330   0.284   2.770   4.701  1.0374  0.0431 -3.7251
   95SAPC  H10Y 9331   0.151   2.672   4.749  0.7760 -0.5266 -0.3877
   95SAPC  C311 9332   0.092   2.864   4.657  0.0700  0.4184  0.2319
   95SAPC  H11X 9333  -0.010   2.827   4.632 -0.1311  1.4108 -0.4650
   95SAPC  H11Y 9334   0.126   2.930   4.575  2.7862 -1.7499 -0.5416
   95SAPC  C312 9335   0.091   2.950   4.783 -0.3574 -0.7302  0.9815
   95SAPC  H12X 9336   0.094   2.891   4.877  0.8650 -0.2581  1.2598
   95SAPC  H12Y 9337  -0.008   3.000   4.777  0.0475  0.2483  1.8959
   95SAPC  C313 9338   0.209   3.050   4.779 -0.5257 -0.1000 -0.0841
   95SAPC  H13X 9339   0.196   3.132   4.705  1.5422 -0.6325 -1.1159
   95SAPC  H13Y 9340   0.303   2.997   4.751 -0.2759 -0.0577  0.6518
   95SAPC  C314 9341   0.226   3.121   4.910 -0.7472 -0.7374  0.2625
   95SAPC  H14X 9342   0.126   3.127   4.958  0.0323 -0.5408  1.9184
   95SAPC  H14Y 9343   0.264   3.225   4.898 -1.4780 -0.4683  0.1874
   95SAPC  C315 9344   0.326   3.052   5.010 -0.1327  0.1001  0.3753
   95SAPC  H15X 9345   0.431   3.063   4.976 -0.1301 -1.3299 -0.1269
   95SAPC  H15Y 9346   0.297   2.945   5.013  0.8102 -0.1627  0.5037
   95SAPC  C316 9347   0.317   3.107   5.154  1.0295  0.7928  0.3100
   95SAPC  H16X 9348   0.239   3.047   5.206  1.2875  0.2087  0.0388
   95SAPC  H16Y 9349   0.289   3.214   5.145 -0.7917  0.3703  0.7068
   95SAPC  C317 9350   0.442   3.085   5.234 -0.3968 -0.2316  0.3474
   95SAPC  H17X 9351   0.423   3.126   5.336 -1.5147 -0.5124  0.2599
   95SAPC  H17Y 9352   0.532   3.136   5.193 -2.9699  3.3265 -1.3499
   95SAPC  C318 9353   0.475   2.934   5.258  0.0457 -0.5491 -0.0315
   95SAPC  H18X 9354   0.389   2.878   5.300 -1.5753  1.9186  0.1358
   95SAPC  H18Y 9355   0.563   2.922   5.324  0.4695 -0.2694 -0.5364
   95SAPC  H18Z 9356   0.509   2.883   5.165  0.4756 -0.5410  0.1223
   96SAPC     N 9357   1.214   1.699   3.149  0.2883 -0.1297  0.2000
   96SAPC   C12 9358   1.317   1.660   3.251  0.7121  0.9666 -0.1237
   96SAPC  H12A 9359   1.342   1.746   3.312 -1.2675  1.7716 -0.3628
   96SAPC  H12B 9360   1.406   1.626   3.200 -0.6329  0.3619 -2.1753
   96SAPC   C13 9361   1.170   1.580   3.069 -0.7538 -0.2759  0.1755
   96SAPC  H13A 9362   1.250   1.551   3.003  0.3991  2.0548  0.4407
   96SAPC  H13B 9363   1.148   1.491   3.126 -1.8363  0.3799  0.8328
   96SAPC  H13C 9364   1.088   1.610   3.005  0.4853  0.2964 -1.1974
   96SAPC   C14 9365   1.102   1.762   3.226  0.6065  0.3516 -0.1907
   96SAPC  H14A 9366   1.064   1.695   3.301  0.3201  0.0642 -0.5860
   96SAPC  H14B 9367   1.127   1.856   3.273 -1.1939  1.1142 -0.7037
   96SAPC  H14C 9368   1.019   1.781   3.159 -1.7512 -2.0615  1.8477
   96SAPC   C15 9369   1.266   1.794   3.052 -0.1436 -1.5329  0.1155
   96SAPC  H15A 9370   1.269   1.885   3.111  0.7545 -2.6701  1.9439
   96SAPC  H15B 9371   1.364   1.771   3.013 -0.1615  1.1880 -1.8025
   96SAPC  H15C 9372   1.204   1.805   2.965 -0.0500 -0.4608  0.1753
   96SAPC   C11 9373   1.272   1.543   3.353  0.2943  0.3313  0.4502
   96SAPC  H11A 9374   1.167   1.547   3.388  0.0834 -1.6427  0.1711
   96SAPC  H11B 9375   1.328   1.559   3.447  0.6811 -0.4885  0.3665
   96SAPC     P 9376   1.430   1.338   3.330  0.0849  0.0212 -0.2653
   96SAPC   O13 9377   1.431   1.215   3.244  0.0385  0.2807 -0.1804
   96SAPC   O14 9378   1.544   1.429   3.319 -0.1452 -0.8693 -0.9519
   96SAPC   O12 9379   1.300   1.415   3.298  0.4121  0.7067 -0.6527
   96SAPC   O11 9380   1.405   1.294   3.476 -0.1383 -0.2024 -0.4672
   96SAPC    C1 9381   1.278   1.236   3.510  0.1876 -0.1131  0.3105
   96SAPC    HA 9382   1.192   1.300   3.482 -0.8420 -2.0217 -1.2474
   96SAPC    HB 9383   1.256   1.147   3.447 -0.5072  1.3783 -1.6542
   96SAPC    C2 9384   1.267   1.179   3.657 -0.2840 -0.8611 -0.3319
   96SAPC    HS 9385   1.160   1.149   3.663 -0.1768 -1.0274  1.1153
   96SAPC   O21 9386   1.298   1.281   3.752  0.8027  0.2284  0.3636
   96SAPC   C21 9387   1.227   1.386   3.747 -0.7177 -0.4063 -0.6993
   96SAPC   O22 9388   1.122   1.403   3.683 -0.7134  0.2150 -0.4301
   96SAPC   C22 9389   1.293   1.487   3.852 -0.5213  0.2814  0.5277
   96SAPC   H2R 9390   1.296   1.428   3.947 -1.2565  0.2476  0.5337
   96SAPC   H2S 9391   1.394   1.524   3.824 -0.6792  0.3912  0.0997
   96SAPC    C3 9392   1.367   1.062   3.692 -0.2106 -0.1325 -0.2338
   96SAPC    HX 9393   1.471   1.100   3.691  0.4346 -1.7440  1.4007
   96SAPC    HY 9394   1.356   0.992   3.606  1.7186  0.0124 -0.6334
   96SAPC   O31 9395   1.356   1.000   3.815 -0.3999 -0.1014 -0.5109
   96SAPC   C31 9396   1.233   0.956   3.851 -0.2155  0.2552  1.0840
   96SAPC   O32 9397   1.141   0.942   3.771  0.1398 -0.3902  0.8511
   96SAPC   C32 9398   1.222   0.936   3.998  0.0449  0.2509 -0.1200
   96SAPC   H2X 9399   1.259   1.023   4.056 -3.1474  1.0330  0.9505
   96SAPC   H2Y 9400   1.282   0.844   4.017 -1.1367 -0.7997 -1.2176
   96SAPC   C23 9401   1.201   1.612   3.866  0.5244 -0.2636 -0.1700
   96SAPC   H3R 9402   1.097   1.576   3.882 -0.2328  2.1799  1.1236
   96SAPC   H3S 9403   1.209   1.671   3.773 -1.2555 -0.0098 -0.1968
   96SAPC   C24 9404   1.216   1.700   3.987 -0.6072  0.5932  0.2836
   96SAPC   H4R 9405   1.227   1.652   4.087  2.7370 -2.3389 -1.2908
   96SAPC   H4S 9406   1.121   1.757   3.992 -0.7417  0.4054 -0.1326
   96SAPC   C25 9407   1.321   1.804   3.969 -0.1121  0.5118 -0.2626
   96SAPC   H5R 9408   1.279   1.891   3.915  0.1238  1.6366  1.2952
   96SAPC   C26 9409   1.445   1.802   4.024  0.1498  0.6370 -0.2959
   96SAPC   H6R 9410   1.504   1.894   4.011  1.7929  0.0709  2.3540
   96SAPC   C27 9411   1.517   1.704   4.117  0.6787  0.2901  0.6404
   96SAPC   H7R 9412   1.440   1.639   4.163  0.9409  0.3541  1.1872
   96SAPC   H7S 9413   1.571   1.766   4.192  4.3999  0.2630 -1.7309
   96SAPC   C28 9414   1.616   1.624   4.040 -0.2588 -0.1022  0.1805
   96SAPC   H8R 9415   1.677   1.688   3.974  0.7154 -0.3055  0.8701
   96SAPC   C29 9416   1.633   1.490   4.043  0.7564  0.6826  0.5296
   96SAPC   H9R 9417   1.706   1.451   3.970  0.1228  2.7422 -1.3348
   96SAPC  C210 9418   1.551   1.378   4.111  0.1375  0.2129  1.0938
   96SAPC  H10R 9419   1.448   1.407   4.140 -0.4223 -1.1459  0.5591
   96SAPC  H10S 9420   1.608   1.336   4.197  0.0609 -0.8737  0.6329
   96SAPC  C211 9421   1.523   1.266   4.006  0.8302  0.1566  0.1088
   96SAPC  H11R 9422   1.482   1.305   3.912  2.8534  1.8954 -0.1339
   96SAPC  C212 9423   1.555   1.137   4.016 -0.1209  0.5951  0.0511
   96SAPC  H12R 9424   1.524   1.067   3.936  1.0870  0.6122 -0.4405
   96SAPC  C213 9425   1.622   1.075   4.127 -0.1543  0.7944 -0.5725
   96SAPC  H13R 9426   1.715   1.128   4.156  1.1997 -0.3579 -2.5713
   96SAPC  H13S 9427   1.659   0.973   4.102 -2.2107  0.1268 -1.1048
   96SAPC  C214 9428   1.519   1.066   4.243 -0.7077 -0.0980  0.3597
   96SAPC  H14R 9429   1.427   1.124   4.226  0.6843  2.2069  0.2728
   96SAPC  C215 9430   1.537   0.974   4.348  0.3589 -0.1043 -0.3807
   96SAPC  H15R 9431   1.450   0.959   4.414  0.1312  2.5178  0.0037
   96SAPC  C216 9432   1.656   0.881   4.374  0.1074  0.3732 -0.0181
   96SAPC  H16R 9433   1.741   0.911   4.308 -0.0825 -1.5472 -1.2039
   96SAPC  H16S 9434   1.614   0.785   4.337 -1.9988  1.6782 -1.1479
   96SAPC  C217 9435   1.700   0.860   4.515 -0.2382  0.1145  0.0033
   96SAPC  H17R 9436   1.638   0.784   4.566  2.0285 -0.7239  1.6688
   96SAPC  H17S 9437   1.683   0.955   4.571 -0.8482 -0.7787  1.3870
   96SAPC  C218 9438   1.848   0.830   4.532 -0.0409  0.7318  0.5018
   96SAPC  H18R 9439   1.861   0.790   4.635  0.4314 -2.6330 -0.7381
   96SAPC  H18S 9440   1.905   0.925   4.527 -0.4444  1.0925  2.2347
   96SAPC  C219 9441   1.907   0.717   4.434 -0.0319 -0.2134 -0.0307
   96SAPC  H19R 9442   1.909   0.759   4.331 -2.0287  0.5618  0.2161
   96SAPC  H19S 9443   1.851   0.621   4.440 -0.3487 -0.1936 -2.0229
   96SAPC  C220 9444   2.052   0.679   4.478  0.5200 -0.6629 -0.5858
   96SAPC  H20R 9445   2.132   0.754   4.458  0.2623 -0.7682 -2.0861
   96SAPC  H20S 9446   2.088   0.586   4.430  1.2813 -0.8413  0.3041
   96SAPC  H20T 9447   2.037   0.647   4.583 -2.1189 -0.6771 -0.9075
   96SAPC   C33 9448   1.075   0.922   4.050 -0.1136 -0.0117 -0.0824
   96SAPC   H3X 9449   1.032   0.824   4.020 -0.1514 -0.1547  0.4430
   96SAPC   H3Y 9450   1.021   1.005   3.999  0.4782  0.9995  0.8844
   96SAPC   C34 9451   1.084   0.932   4.200 -0.0159  0.2498 -0.5733
   96SAPC   H4X 9452   1.130   1.033   4.209  3.5208 -1.3894  1.6996
   96SAPC   H4Y 9453   1.154   0.862   4.249 -1.8675 -1.0520  0.3046
   96SAPC   C35 9454   0.951   0.937   4.270 -0.4615  0.0064 -0.5610
   96SAPC   H5X 9455   0.932   0.827   4.280 -2.0411  0.1912 -1.2436
   96SAPC   H5Y 9456   0.878   0.984   4.201 -1.2353  0.5333  0.5735
   96SAPC   C36 9457   0.964   1.014   4.406  0.1566 -0.4791  0.1686
   96SAPC   H6X 9458   0.870   1.072   4.418  1.4941  2.3546 -1.8730
   96SAPC   H6Y 9459   1.041   1.093   4.395  0.2027 -0.4237  0.8423
   96SAPC   C37 9460   0.993   0.929   4.532  0.0834 -0.1595 -0.4782
   96SAPC   H7X 9461   1.097   0.891   4.519 -0.4201 -1.2584 -1.5029
   96SAPC   H7Y 9462   0.915   0.851   4.542  0.8403 -0.9948 -0.9462
   96SAPC   C38 9463   0.989   1.009   4.666 -0.7867  0.4913  0.6502
   96SAPC   H8X 9464   1.061   1.091   4.649 -0.5088 -0.2404 -2.4633
   96SAPC   H8Y 9465   1.028   0.953   4.754 -2.9891  1.0579  2.0666
   96SAPC   C39 9466   0.848   1.062   4.703 -0.3673 -0.5641  0.2290
   96SAPC   H9X 9467   0.778   0.976   4.712  0.2707 -1.1596 -0.4230
   96SAPC   H9Y 9468   0.793   1.104   4.616 -1.0765 -0.4048  0.7467
   96SAPC  C310 9469   0.829   1.159   4.823  0.6480  0.3679  0.5694
   96SAPC  H10X 9470   0.728   1.200   4.842  0.8945  0.3886  1.9186
   96SAPC  H10Y 9471   0.883   1.249   4.787  1.3726 -0.4882 -0.5683
   96SAPC  C311 9472   0.895   1.109   4.952 -0.6715 -0.0050  0.0728
   96SAPC  H11X 9473   1.005   1.102   4.942 -0.6626 -1.2564  0.8005
   96SAPC  H11Y 9474   0.863   1.009   4.990  0.9015 -0.9229 -0.9003
   96SAPC  C312 9475   0.855   1.210   5.058 -0.4315  0.1693 -0.0624
   96SAPC  H12X 9476   0.745   1.215   5.073 -0.3173 -0.2719  1.0254
   96SAPC  H12Y 9477   0.884   1.311   5.022  0.0984  0.9590  2.3718
   96SAPC  C313 9478   0.913   1.196   5.199  0.3289  0.5576  0.6334
   96SAPC  H13X 9479   0.859   1.266   5.265 -2.3627 -0.9255  0.1347
   96SAPC  H13Y 9480   1.020   1.225   5.196  0.8357 -1.1174 -2.5881
   96SAPC  C314 9481   0.898   1.051   5.261  0.1035 -0.4647  0.2955
   96SAPC  H14X 9482   0.962   1.039   5.350 -0.2516 -0.2226  0.5857
   96SAPC  H14Y 9483   0.939   0.980   5.186  0.2338 -0.8538  0.7282
   96SAPC  C315 9484   0.755   1.006   5.301  0.6980  0.2856 -0.1595
   96SAPC  H15X 9485   0.688   0.992   5.214 -1.8133 -0.4887  1.7677
   96SAPC  H15Y 9486   0.700   1.079   5.364  1.2457 -1.5122  2.5960
   96SAPC  C316 9487   0.755   0.866   5.365 -0.5719 -0.3353  0.2226
   96SAPC  H16X 9488   0.825   0.890   5.448 -1.6352  0.5822  0.8800
   96SAPC  H16Y 9489   0.802   0.792   5.297 -0.1518 -0.8151  1.0149
   96SAPC  C317 9490   0.624   0.811   5.413  0.7816  0.0917 -0.2011
   96SAPC  H17X 9491   0.562   0.802   5.321 -1.1668  0.1480  1.0532
   96SAPC  H17Y 9492   0.572   0.885   5.477  1.8645  0.7311 -0.0493
   96SAPC  C318 9493   0.630   0.685   5.509 -0.7509  0.7823 -0.7244
   96SAPC  H18X 9494   0.689   0.714   5.599 -0.6331 -0.9085 -0.2224
   96SAPC  H18Y 9495   0.698   0.610   5.463  3.1954  1.4054  3.4010
   96SAPC  H18Z 9496   0.523   0.659   5.522 -1.1367  2.4228 -0.3531
   97SAPC     N 9497   0.863   2.742   2.795  0.1475 -0.2929 -0.1631
   97SAPC   C12 9498   0.947   2.649   2.878 -0.1411  0.4935 -0.0087
   97SAPC  H12A 9499   1.052   2.677   2.870  0.3583 -1.5392 -1.2803
   97SAPC  H12B 9500   0.939   2.550   2.836 -1.9893  1.0191 -1.0071
   97SAPC   C13 9501   0.927   2.777   2.662 -0.0369  0.4396 -0.2095
   97SAPC  H13A 9502   1.025   2.819   2.678  0.5048 -1.1735  0.9526
   97SAPC  H13B 9503   0.932   2.686   2.604 -0.7246  0.2216  0.0568
   97SAPC  H13C 9504   0.860   2.846   2.612  0.0551 -0.1192 -1.1328
   97SAPC   C14 9505   0.735   2.671   2.757 -0.1214 -0.0526  0.0928
   97SAPC  H14A 9506   0.683   2.650   2.850  0.5263  0.8925  0.6840
   97SAPC  H14B 9507   0.670   2.736   2.700  1.7190  2.2302  0.4510
   97SAPC  H14C 9508   0.753   2.577   2.708  0.9155 -0.5501  1.3754
   97SAPC   C15 9509   0.836   2.872   2.874 -0.4025  0.1994 -0.0136
   97SAPC  H15A 9510   0.804   2.947   2.804  0.9422 -0.2212 -1.1082
   97SAPC  H15B 9511   0.763   2.855   2.952 -1.9104 -1.8357 -1.7507
   97SAPC  H15C 9512   0.924   2.910   2.924  0.1500  1.4157 -1.8314
   97SAPC   C11 9513   0.916   2.638   3.022 -0.3500 -0.9152  0.2053
   97SAPC  H11A 9514   0.811   2.607   3.041 -1.1505  1.5357  0.0983
   97SAPC  H11B 9515   0.923   2.740   3.066 -2.0395 -0.2679 -0.9188
   97SAPC     P 9516   1.140   2.574   3.117  0.1263  0.4873 -0.0284
   97SAPC   O13 9517   1.219   2.448   3.135 -0.3262  0.2953 -0.1020
   97SAPC   O14 9518   1.201   2.657   3.010 -0.1143  0.1718 -0.7361
   97SAPC   O12 9519   0.995   2.536   3.084  0.0990  0.1517 -0.0671
   97SAPC   O11 9520   1.124   2.652   3.252  0.1690 -0.1644  0.8159
   97SAPC    C1 9521   1.016   2.634   3.342 -0.1662  0.1867 -0.4248
   97SAPC    HA 9522   0.920   2.661   3.294  0.0918  1.1775 -0.4221
   97SAPC    HB 9523   1.014   2.526   3.365  1.8048  0.6779  2.6339
   97SAPC    C2 9524   1.039   2.697   3.483 -0.3512 -0.6970 -0.3477
   97SAPC    HS 9525   0.946   2.680   3.541  0.4230  1.2770  1.6168
   97SAPC   O21 9526   1.067   2.838   3.482  0.0323 -0.2572 -0.5605
   97SAPC   C21 9527   0.958   2.912   3.477  0.1318  0.3841  0.3498
   97SAPC   O22 9528   0.846   2.873   3.472  0.1442 -0.0815 -0.6752
   97SAPC   C22 9529   0.995   3.061   3.488  0.4015 -0.4574  0.1009
   97SAPC   H2R 9530   1.075   3.064   3.566 -0.5644  1.1141  1.0927
   97SAPC   H2S 9531   1.032   3.101   3.392  0.8596 -1.1497 -0.0166
   97SAPC    C3 9532   1.158   2.630   3.557 -0.4957 -0.2049 -0.2532
   97SAPC    HX 9533   1.242   2.665   3.493 -0.1097 -2.9749 -1.4132
   97SAPC    HY 9534   1.147   2.520   3.543  0.8495 -0.0922 -2.8961
   97SAPC   O31 9535   1.169   2.659   3.698  0.0172  0.0158 -0.0204
   97SAPC   C31 9536   1.282   2.611   3.748  0.1464  0.4548 -0.4534
   97SAPC   O32 9537   1.367   2.553   3.683 -0.6262  0.5759 -1.0890
   97SAPC   C32 9538   1.300   2.662   3.892  0.0925 -0.6607 -0.7774
   97SAPC   H2X 9539   1.212   2.727   3.911  0.6021  0.9988 -3.6360
   97SAPC   H2Y 9540   1.390   2.727   3.890  0.6190 -1.3998 -1.6582
   97SAPC   C23 9541   0.881   3.167   3.505 -0.5462  0.5481 -0.4014
   97SAPC   H3R 9542   0.803   3.157   3.427 -1.3554  0.3883  0.4077
   97SAPC   H3S 9543   0.929   3.266   3.493  1.8442 -0.2886  1.2955
   97SAPC   C24 9544   0.806   3.153   3.638 -0.5163  0.0521  0.3342
   97SAPC   H4R 9545   0.750   3.057   3.637  1.4284 -1.1376  1.0063
   97SAPC   H4S 9546   0.742   3.243   3.648  1.1299  1.6810 -2.5476
   97SAPC   C25 9547   0.908   3.153   3.747  0.0107 -0.1676 -0.1520
   97SAPC   H5R 9548   0.974   3.241   3.752 -2.5025  1.7864  2.5059
   97SAPC   C26 9549   0.915   3.059   3.843  0.0035  0.4041  0.4564
   97SAPC   H6R 9550   0.988   3.073   3.924 -0.7564 -0.1292  1.2470
   97SAPC   C27 9551   0.830   2.931   3.855 -0.3680  0.2732  0.2770
   97SAPC   H7R 9552   0.749   2.919   3.781 -0.0361 -0.2919 -0.0042
   97SAPC   H7S 9553   0.769   2.943   3.947  0.2861 -1.2934  0.9549
   97SAPC   C28 9554   0.900   2.803   3.875 -0.5832 -0.0467 -0.1079
   97SAPC   H8R 9555   0.948   2.758   3.787  1.6976  0.4821  0.7923
   97SAPC   C29 9556   0.932   2.735   3.988 -0.3962  0.1628 -0.3117
   97SAPC   H9R 9557   1.011   2.660   3.977 -0.7537 -0.0794 -1.4471
   97SAPC  C210 9558   0.883   2.778   4.126 -0.4641  0.0860  0.4913
   97SAPC  H10R 9559   0.898   2.689   4.192 -0.2333  0.9656  1.6594
   97SAPC  H10S 9560   0.774   2.798   4.122 -0.4635  0.0610  0.3629
   97SAPC  C211 9561   0.965   2.889   4.193 -0.0278  0.1838  0.5158
   97SAPC  H11R 9562   1.043   2.935   4.130 -0.6910 -2.7539 -2.7710
   97SAPC  C212 9563   0.945   2.941   4.318 -0.0397 -0.2651  0.1066
   97SAPC  H12R 9564   1.006   3.022   4.361  0.2928 -0.6337  0.3418
   97SAPC  C213 9565   0.838   2.876   4.399 -0.3280  0.3210 -0.2549
   97SAPC  H13R 9566   0.750   2.834   4.345  0.8575 -0.2756 -1.7990
   97SAPC  H13S 9567   0.806   2.950   4.476  0.7462 -0.1971  0.7253
   97SAPC  C214 9568   0.896   2.754   4.472  0.0488 -0.0508 -0.0913
   97SAPC  H14R 9569   0.999   2.729   4.443  1.1539  2.7572  1.0436
   97SAPC  C215 9570   0.835   2.691   4.573  0.0786  0.7329  0.1833
   97SAPC  H15R 9571   0.892   2.613   4.625  1.4447  1.5609 -0.0270
   97SAPC  C216 9572   0.695   2.724   4.631 -0.9832  0.0831 -0.2060
   97SAPC  H16R 9573   0.626   2.638   4.615  2.5540 -2.9717 -0.5440
   97SAPC  H16S 9574   0.649   2.811   4.580  1.2154  1.3204 -0.2141
   97SAPC  C217 9575   0.696   2.760   4.783 -0.4921 -0.0136  0.7652
   97SAPC  H17R 9576   0.758   2.851   4.802 -1.5250  1.3043 -1.6719
   97SAPC  H17S 9577   0.738   2.677   4.844  2.2362 -0.0483 -1.0108
   97SAPC  C218 9578   0.553   2.788   4.838  0.0846  0.1026 -0.0215
   97SAPC  H18R 9579   0.488   2.855   4.777  1.1974 -0.6229 -2.1029
   97SAPC  H18S 9580   0.558   2.833   4.940 -1.8528  0.8123 -0.1964
   97SAPC  C219 9581   0.490   2.651   4.860 -0.9494 -0.1920 -0.3117
   97SAPC  H19R 9582   0.562   2.568   4.877  1.1577  1.2397 -1.6425
   97SAPC  H19S 9583   0.417   2.623   4.781 -0.6665  0.3147 -0.7638
   97SAPC  C220 9584   0.394   2.643   4.977  0.2227  0.5834  0.2289
   97SAPC  H20R 9585   0.355   2.539   4.985  4.2204 -1.0435  0.7755
   97SAPC  H20S 9586   0.314   2.719   4.962 -1.5069 -0.8814  1.6373
   97SAPC  H20T 9587   0.448   2.657   5.073 -1.1063 -0.4794  1.1656
   97SAPC   C33 9588   1.305   2.551   3.988 -0.2664  0.2357 -0.3763
   97SAPC   H3X 9589   1.403   2.500   3.982 -0.6192 -0.4480 -0.4963
   97SAPC   H3Y 9590   1.226   2.475   3.967 -0.0088 -0.0823 -0.1941
   97SAPC   C34 9591   1.280   2.613   4.128 -0.2588  1.1671 -0.3777
   97SAPC   H4X 9592   1.186   2.673   4.131  0.5164  2.3990  0.1505
   97SAPC   H4Y 9593   1.350   2.696   4.150  0.1388  0.9727 -0.8834
   97SAPC   C35 9594   1.275   2.517   4.249 -0.2828  0.7572  0.1255
   97SAPC   H5X 9595   1.378   2.477   4.259 -0.6393 -0.0191  0.8626
   97SAPC   H5Y 9596   1.213   2.430   4.220  0.4067 -0.4030  1.9687
   97SAPC   C36 9597   1.225   2.566   4.384 -0.4244  0.1430  0.2400
   97SAPC   H6X 9598   1.115   2.581   4.397 -0.1713  1.9392  0.5619
   97SAPC   H6Y 9599   1.276   2.660   4.412 -0.5938 -0.3414  2.2909
   97SAPC   C37 9600   1.260   2.462   4.496 -0.7208  0.6340 -0.3981
   97SAPC   H7X 9601   1.367   2.437   4.487 -0.9040 -0.3991  0.1362
   97SAPC   H7Y 9602   1.204   2.369   4.472 -0.4615 -0.0964  1.6086
   97SAPC   C38 9603   1.230   2.511   4.641  0.5433 -0.2067 -0.1994
   97SAPC   H8X 9604   1.141   2.576   4.642  0.3857 -0.4139 -0.4657
   97SAPC   H8Y 9605   1.316   2.566   4.686 -0.0272  0.9736 -0.5199
   97SAPC   C39 9606   1.209   2.392   4.733  0.5730 -0.0519 -0.2798
   97SAPC   H9X 9607   1.291   2.320   4.713  0.9520  0.5498 -0.9636
   97SAPC   H9Y 9608   1.120   2.327   4.724  0.4028  0.3186 -1.4856
   97SAPC  C310 9609   1.219   2.436   4.882 -0.2523  0.8326 -0.3988
   97SAPC  H10X 9610   1.309   2.494   4.910 -1.4940  1.8815  1.6396
   97SAPC  H10Y 9611   1.227   2.335   4.928 -1.0012 -0.3289 -2.6564
   97SAPC  C311 9612   1.098   2.521   4.930  0.7113 -0.1620  0.5809
   97SAPC  H11X 9613   1.006   2.477   4.887  0.6228 -0.5753  1.1733
   97SAPC  H11Y 9614   1.107   2.625   4.892 -0.8794  0.4852  1.9023
   97SAPC  C312 9615   1.065   2.506   5.082 -0.0438  0.4879 -1.5728
   97SAPC  H12X 9616   1.164   2.501   5.133 -1.3093 -1.2487  0.9308
   97SAPC  H12Y 9617   1.024   2.405   5.105  0.1372  0.5203 -1.0872
   97SAPC  C313 9618   0.966   2.608   5.133 -0.2887 -0.0237 -0.3590
   97SAPC  H13X 9619   0.899   2.631   5.047  1.8621 -0.3563 -2.2217
   97SAPC  H13Y 9620   1.032   2.697   5.140  1.3979 -1.2807  0.1777
   97SAPC  C314 9621   0.897   2.585   5.264 -0.1462 -0.3747 -0.7975
   97SAPC  H14X 9622   0.847   2.680   5.292  0.1315 -0.2301 -0.7884
   97SAPC  H14Y 9623   0.974   2.574   5.343 -1.1831 -4.2014 -0.0762
   97SAPC  C315 9624   0.803   2.464   5.267 -0.0129 -0.3466  0.4076
   97SAPC  H15X 9625   0.871   2.376   5.277  1.5927  0.8073  0.0512
   97SAPC  H15Y 9626   0.761   2.458   5.164  1.1280  1.1233 -0.1880
   97SAPC  C316 9627   0.691   2.497   5.364 -0.1974 -0.2468 -0.1930
   97SAPC  H16X 9628   0.639   2.588   5.325  0.0641  0.5908  1.3649
   97SAPC  H16Y 9629   0.721   2.516   5.469 -1.5415 -0.8098  0.3211
   97SAPC  C317 9630   0.574   2.391   5.366 -0.0578  0.4316  0.6133
   97SAPC  H17X 9631   0.520   2.405   5.270  1.7425  0.8261 -0.4094
   97SAPC  H17Y 9632   0.505   2.419   5.449 -0.9316  2.2470 -0.6518
   97SAPC  C318 9633   0.624   2.245   5.375  0.3955 -0.4235 -1.2406
   97SAPC  H18X 9634   0.693   2.221   5.459 -0.2951  0.2735 -0.4574
   97SAPC  H18Y 9635   0.675   2.212   5.282  0.9463 -0.0088 -1.0942
   97SAPC  H18Z 9636   0.536   2.180   5.392 -0.6793  1.6288  2.0596
   98SAPC     N 9637   4.030   5.805   2.766  0.7177  0.0718 -0.3666
   98SAPC   C12 9638   4.057   5.724   2.894  0.1657 -0.0800 -0.2854
   98SAPC  H12A 9639   4.093   5.798   2.964 -2.2534  2.3668 -1.4195
   98SAPC  H12B 9640   4.137   5.653   2.877 -0.0552 -0.0749 -1.4429
   98SAPC   C13 9641   4.003   5.729   2.641  0.1717  0.1304  0.2720
   98SAPC  H13A 9642   3.923   5.661   2.663  0.3567  0.2393  1.3411
   98SAPC  H13B 9643   3.973   5.797   2.563  0.4691 -0.9634 -0.8353
   98SAPC  H13C 9644   4.092   5.677   2.606 -0.3450 -1.4681  1.2298
   98SAPC   C14 9645   3.903   5.877   2.780 -0.3266  0.3497 -0.4684
   98SAPC  H14A 9646   3.900   5.946   2.863 -1.5851  0.2605 -0.4253
   98SAPC  H14B 9647   3.892   5.928   2.685 -0.4502  0.8482 -0.1896
   98SAPC  H14C 9648   3.819   5.814   2.806  0.8559 -0.5936  1.2556
   98SAPC   C15 9649   4.139   5.906   2.749  0.6852  0.2160  0.2002
   98SAPC  H15A 9650   4.233   5.857   2.767  0.6200  0.1291  0.3058
   98SAPC  H15B 9651   4.150   5.935   2.646  2.7550 -0.3485  0.2227
   98SAPC  H15C 9652   4.128   5.998   2.805  0.3417 -0.1297  0.7045
   98SAPC   C11 9653   3.942   5.644   2.953  0.1425 -0.4044  0.1908
   98SAPC  H11A 9654   3.860   5.711   2.987  0.9769  0.5546  0.3701
   98SAPC  H11B 9655   3.983   5.600   3.047 -1.9133 -2.3517  0.2533
   98SAPC     P 9656   3.964   5.398   2.852 -0.6581  0.1326  0.2583
   98SAPC   O13 9657   3.892   5.328   2.742  0.2931 -0.1721 -0.4854
   98SAPC   O14 9658   4.105   5.418   2.823 -0.1439 -0.3139 -0.2077
   98SAPC   O12 9659   3.898   5.537   2.871 -0.1020  0.0977 -0.2859
   98SAPC   O11 9660   3.943   5.332   2.990 -0.2436  0.3099  0.0238
   98SAPC    C1 9661   3.829   5.251   3.018  0.6955 -0.8044  0.3387
   98SAPC    HA 9662   3.823   5.175   2.937  2.9139  1.3840 -2.0617
   98SAPC    HB 9663   3.841   5.192   3.111  0.5288  1.7680  2.0982
   98SAPC    C2 9664   3.704   5.341   3.043 -0.1574 -0.2922 -0.0719
   98SAPC    HS 9665   3.685   5.391   2.945 -2.0587 -1.3112 -0.2818
   98SAPC   O21 9666   3.736   5.434   3.150  0.2013  0.4121 -0.4471
   98SAPC   C21 9667   3.681   5.551   3.149  0.0112  0.4582 -0.5080
   98SAPC   O22 9668   3.606   5.582   3.056 -0.5378  0.3990 -0.0788
   98SAPC   C22 9669   3.748   5.647   3.245 -0.3503 -0.1745  0.5455
   98SAPC   H2R 9670   3.733   5.627   3.354  1.0725  0.9783  0.9890
   98SAPC   H2S 9671   3.858   5.645   3.228 -0.4923 -0.6094 -0.3870
   98SAPC    C3 9672   3.587   5.260   3.089  0.3119  0.3390 -0.1609
   98SAPC    HX 9673   3.580   5.178   3.014  0.9666 -1.5029  1.7180
   98SAPC    HY 9674   3.500   5.328   3.076  1.8335  2.0542 -2.2754
   98SAPC   O31 9675   3.587   5.201   3.219 -0.1994  0.5620  0.1353
   98SAPC   C31 9676   3.508   5.241   3.315 -1.1732  0.2294  0.3672
   98SAPC   O32 9677   3.445   5.346   3.316 -0.1806  0.2776  0.3029
   98SAPC   C32 9678   3.513   5.136   3.420 -0.2653  0.0698 -0.0205
   98SAPC   H2X 9679   3.592   5.064   3.390 -0.1876 -0.1619  0.7042
   98SAPC   H2Y 9680   3.414   5.088   3.412 -0.2612 -0.4380  2.2715
   98SAPC   C23 9681   3.717   5.794   3.235  0.0226 -0.0018 -0.4673
   98SAPC   H3R 9682   3.607   5.807   3.225  0.0412  0.8303  0.2456
   98SAPC   H3S 9683   3.767   5.826   3.140 -0.8217 -1.0151 -1.2720
   98SAPC   C24 9684   3.768   5.871   3.357 -0.2986  0.6205 -0.9114
   98SAPC   H4R 9685   3.725   5.832   3.452  0.9943  1.6875  0.1430
   98SAPC   H4S 9686   3.734   5.976   3.351  0.9740  1.4480  3.2484
   98SAPC   C25 9687   3.920   5.872   3.367 -0.3840  0.3362  0.0474
   98SAPC   H5R 9688   3.959   5.918   3.275 -1.3219  1.8273  0.3695
   98SAPC   C26 9689   4.005   5.825   3.463 -0.2710 -0.1393 -0.3514
   98SAPC   H6R 9690   4.110   5.858   3.459  0.0626 -1.0029  1.0065
   98SAPC   C27 9691   3.951   5.765   3.592 -0.0785  0.2271  0.5599
   98SAPC   H7R 9692   4.039   5.709   3.629 -2.3856 -3.8368  0.4687
   98SAPC   H7S 9693   3.884   5.681   3.562 -0.0013 -0.0360  1.1129
   98SAPC   C28 9694   3.880   5.855   3.688 -0.8130 -0.0921  0.4043
   98SAPC   H8R 9695   3.785   5.884   3.640 -2.2028 -4.5775  0.0528
   98SAPC   C29 9696   3.923   5.898   3.812  0.3797  0.1009  0.4253
   98SAPC   H9R 9697   3.860   5.970   3.867  2.3961  2.4208 -0.1520
   98SAPC  C210 9698   4.052   5.860   3.880  0.4817 -0.5024 -0.0144
   98SAPC  H10R 9699   4.137   5.859   3.808 -1.8972  0.8578 -3.0958
   98SAPC  H10S 9700   4.032   5.766   3.936 -1.7530  1.4269  2.7014
   98SAPC  C211 9701   4.101   5.957   3.991  0.3862 -0.0416  0.3742
   98SAPC  H11R 9702   4.180   6.030   3.965 -1.5946  2.0671 -0.0800
   98SAPC  C212 9703   4.057   5.962   4.110 -0.2907  0.0224 -0.1535
   98SAPC  H12R 9704   4.114   6.019   4.185 -2.2772 -0.0537  1.4914
   98SAPC  C213 9705   3.951   5.882   4.169  0.3504 -0.9269 -0.1378
   98SAPC  H13R 9706   4.000   5.831   4.255  1.1138 -1.2093 -0.7335
   98SAPC  H13S 9707   3.899   5.808   4.105 -1.9789  0.8939 -0.5144
   98SAPC  C214 9708   3.840   5.973   4.216 -0.2046 -0.2741  0.5455
   98SAPC  H14R 9709   3.787   6.031   4.139 -1.1313  0.0773  1.4202
   98SAPC  C215 9710   3.792   5.975   4.343 -0.0990 -0.1092  1.1478
   98SAPC  H15R 9711   3.713   6.045   4.373  1.9035  3.1346 -0.5710
   98SAPC  C216 9712   3.840   5.893   4.460 -0.2158 -0.1476 -0.9009
   98SAPC  H16R 9713   3.897   5.806   4.420 -0.8960 -0.0702 -2.0597
   98SAPC  H16S 9714   3.749   5.849   4.507  0.0831 -0.1952 -0.3542
   98SAPC  C217 9715   3.923   5.967   4.559  0.1840  0.5549 -0.5524
   98SAPC  H17R 9716   3.854   6.043   4.602 -1.4322 -0.7097 -0.8176
   98SAPC  H17S 9717   4.007   6.013   4.502  2.1585 -0.8213  1.1331
   98SAPC  C218 9718   3.986   5.881   4.675 -0.2104  0.0170 -0.3905
   98SAPC  H18R 9719   3.912   5.822   4.734 -0.4293  0.1378 -0.5450
   98SAPC  H18S 9720   4.038   5.947   4.748  2.6687 -1.1399 -1.2491
   98SAPC  C219 9721   4.080   5.772   4.633 -0.1414  0.6336 -0.2107
   98SAPC  H19R 9722   4.134   5.812   4.545  0.6745 -1.0425 -0.5091
   98SAPC  H19S 9723   4.018   5.685   4.600  0.8023 -0.8303  1.6537
   98SAPC  C220 9724   4.187   5.723   4.733 -0.3654  0.2116  0.0802
   98SAPC  H20R 9725   4.249   5.801   4.784  1.9994 -1.4440 -0.0867
   98SAPC  H20S 9726   4.251   5.651   4.678 -1.3743 -0.1646 -0.6202
   98SAPC  H20T 9727   4.136   5.677   4.821  1.5137 -2.6263 -0.1977
   98SAPC   C33 9728   3.545   5.200   3.560 -0.6401 -0.2252  0.4324
   98SAPC   H3X 9729   3.463   5.271   3.585 -0.3319  0.0272  0.7380
   98SAPC   H3Y 9730   3.633   5.268   3.565  0.2550 -1.4123  1.5424
   98SAPC   C34 9731   3.562   5.100   3.673  0.6275  0.1826 -0.2501
   98SAPC   H4X 9732   3.655   5.040   3.664  1.7046  1.9390 -1.4729
   98SAPC   H4Y 9733   3.473   5.034   3.686 -1.4349  2.9663  0.5961
   98SAPC   C35 9734   3.583   5.182   3.795 -0.3629 -0.5267 -0.9650
   98SAPC   H5X 9735   3.507   5.263   3.808 -1.2637 -1.1738 -2.0066
   98SAPC   H5Y 9736   3.683   5.230   3.793 -0.2320 -0.7468 -0.1264
   98SAPC   C36 9737   3.574   5.104   3.921  0.3487 -0.2490 -0.9803
   98SAPC   H6X 9738   3.642   5.018   3.939 -0.8899 -0.8337  1.2729
   98SAPC   H6Y 9739   3.470   5.065   3.914 -0.1133  0.6404  0.5950
   98SAPC   C37 9740   3.586   5.188   4.050 -0.2517  0.1653 -0.1544
   98SAPC   H7X 9741   3.509   5.268   4.052 -1.2598 -0.7806  1.7527
   98SAPC   H7Y 9742   3.683   5.241   4.048 -0.8672  1.3993  1.1586
   98SAPC   C38 9743   3.555   5.112   4.175 -0.2765 -0.4304 -0.7172
   98SAPC   H8X 9744   3.625   5.026   4.183  0.6515  0.4787  2.6127
   98SAPC   H8Y 9745   3.456   5.065   4.152 -1.2029  1.0036  0.1598
   98SAPC   C39 9746   3.561   5.190   4.300 -0.3529  0.1134 -0.2234
   98SAPC   H9X 9747   3.496   5.279   4.295  0.5164  0.8471  0.9834
   98SAPC   H9Y 9748   3.669   5.212   4.315 -0.2165 -1.3797  1.3181
   98SAPC  C310 9749   3.508   5.091   4.404  0.0310 -0.0526 -0.4863
   98SAPC  H10X 9750   3.555   4.992   4.387 -0.0638 -0.1929  0.0414
   98SAPC  H10Y 9751   3.401   5.067   4.392 -0.0998 -0.1434  0.7266
   98SAPC  C311 9752   3.528   5.149   4.543  0.0896  0.7695  0.3283
   98SAPC  H11X 9753   3.498   5.254   4.564 -4.4222 -0.3235  0.3874
   98SAPC  H11Y 9754   3.638   5.140   4.559  0.5338 -1.5734 -2.8646
   98SAPC  C312 9755   3.464   5.070   4.664 -0.4378 -0.2645 -0.8259
   98SAPC  H12X 9756   3.509   4.969   4.669 -0.3305 -0.2501 -1.3834
   98SAPC  H12Y 9757   3.355   5.062   4.647 -0.3239 -1.0750 -1.2430
   98SAPC  C313 9758   3.499   5.134   4.799 -0.2144 -0.4171 -0.0294
   98SAPC  H13X 9759   3.440   5.228   4.804  0.2943 -0.1590  1.4404
   98SAPC  H13Y 9760   3.605   5.166   4.809 -1.2390  3.7896 -0.8534
   98SAPC  C314 9761   3.458   5.038   4.915  1.0338 -0.1378  0.0469
   98SAPC  H14X 9762   3.500   5.082   5.008 -0.6557 -1.9419  1.7458
   98SAPC  H14Y 9763   3.498   4.935   4.909  0.4451 -0.3510 -0.2892
   98SAPC  C315 9764   3.306   5.035   4.947  0.1164 -0.9708  0.8516
   98SAPC  H15X 9765   3.247   4.976   4.874  1.9172 -0.2315 -1.3380
   98SAPC  H15Y 9766   3.275   5.141   4.956  2.0849 -0.0059 -2.2331
   98SAPC  C316 9767   3.265   4.966   5.077 -0.0859 -0.1211  0.4320
   98SAPC  H16X 9768   3.281   4.856   5.072  0.6278 -0.0925  1.7375
   98SAPC  H16Y 9769   3.159   4.994   5.091 -0.5032 -0.4461 -1.6879
   98SAPC  C317 9770   3.343   5.021   5.194  0.4891  1.4275 -0.1691
   98SAPC  H17X 9771   3.320   5.130   5.204  0.7438  1.7373 -2.5190
   98SAPC  H17Y 9772   3.453   5.015   5.198  0.3678 -3.3459  1.6984
   98SAPC  C318 9773   3.317   4.934   5.317  0.6697  0.3643 -0.1099
   98SAPC  H18X 9774   3.206   4.926   5.330  0.7112 -1.4831 -0.5224
   98SAPC  H18Y 9775   3.363   4.964   5.413 -0.2920 -1.3796  0.9740
   98SAPC  H18Z 9776   3.344   4.829   5.293  0.6847 -0.3842  2.7881
   99SAPC     N 9777   2.009   3.510   3.278 -0.1376  0.9762 -0.3707
   99SAPC   C12 9778   2.100   3.622   3.295 -0.0201 -0.4346 -0.2423
   99SAPC  H12A 9779   2.046   3.711   3.322  1.1148 -0.0274  0.7394
   99SAPC  H12B 9780   2.145   3.654   3.202  1.4928 -0.8394  0.3208
   99SAPC   C13 9781   1.897   3.553   3.188 -0.3859  0.5257 -0.4162
   99SAPC  H13A 9782   1.845   3.630   3.243 -0.9556  0.4844 -0.8903
   99SAPC  H13B 9783   1.943   3.583   3.095  2.9035  0.6226  1.0954
   99SAPC  H13C 9784   1.838   3.467   3.161 -1.0408  0.7534  0.2708
   99SAPC   C14 9785   2.073   3.389   3.231 -0.0127  0.5602  0.3487
   99SAPC  H14A 9786   2.093   3.387   3.125 -0.0916 -0.0887  0.3459
   99SAPC  H14B 9787   2.172   3.371   3.270 -0.2902 -0.2278  0.6927
   99SAPC  H14C 9788   2.005   3.306   3.242  2.3030 -1.5635 -0.4590
   99SAPC   C15 9789   1.942   3.475   3.406 -0.9185 -0.0025  0.3054
   99SAPC  H15A 9790   2.018   3.436   3.473  0.0458  0.1430 -0.6691
   99SAPC  H15B 9791   1.883   3.557   3.443 -0.2824  0.7728 -0.3475
   99SAPC  H15C 9792   1.885   3.384   3.396  0.4987 -1.0588  1.3277
   99SAPC   C11 9793   2.207   3.609   3.406 -0.1903  0.4460 -0.1398
   99SAPC  H11A 9794   2.167   3.594   3.509  0.8554  2.0603  0.5408
   99SAPC  H11B 9795   2.268   3.702   3.410  1.8517 -0.8028 -0.5879
   99SAPC     P 9796   2.405   3.500   3.267 -0.0886  0.5805 -0.5504
   99SAPC   O13 9797   2.428   3.356   3.216  0.6229 -0.3717  0.2523
   99SAPC   O14 9798   2.375   3.606   3.168 -0.6056 -0.2041 -0.4819
   99SAPC   O12 9799   2.296   3.497   3.382 -0.1435 -0.0375  0.7793
   99SAPC   O11 9800   2.522   3.553   3.351  0.7897 -0.3137  0.1723
   99SAPC    C1 9801   2.551   3.514   3.488  0.8207 -0.0657  0.1801
   99SAPC    HA 9802   2.634   3.572   3.533  0.3815  0.0827  0.8291
   99SAPC    HB 9803   2.466   3.539   3.556 -1.6039 -1.9169 -1.9511
   99SAPC    C2 9804   2.589   3.359   3.505  0.0280 -0.0913  0.6153
   99SAPC    HS 9805   2.647   3.345   3.411  1.4511  3.1979  0.8739
   99SAPC   O21 9806   2.475   3.276   3.515  1.1060 -0.7605  0.0412
   99SAPC   C21 9807   2.483   3.157   3.448 -0.0730 -0.0859  0.2232
   99SAPC   O22 9808   2.581   3.115   3.389 -0.1560 -0.1527 -0.6878
   99SAPC   C22 9809   2.349   3.086   3.449  0.3274  0.0170 -0.0448
   99SAPC   H2R 9810   2.288   3.120   3.536 -0.0792  2.5015 -1.2212
   99SAPC   H2S 9811   2.304   3.117   3.352  0.3668 -2.1842 -0.8109
   99SAPC    C3 9812   2.666   3.330   3.628  0.1707 -0.5500  0.5691
   99SAPC    HX 9813   2.769   3.365   3.605  0.0600 -0.3614  0.3649
   99SAPC    HY 9814   2.669   3.219   3.640 -3.2379 -1.0819 -2.1127
   99SAPC   O31 9815   2.616   3.403   3.741 -0.4882 -0.1355 -0.2469
   99SAPC   C31 9816   2.526   3.357   3.827  0.5255  0.2564  0.3123
   99SAPC   O32 9817   2.469   3.249   3.813 -0.2555 -0.5027 -0.0008
   99SAPC   C32 9818   2.510   3.461   3.943 -0.4884 -0.1126  0.6323
   99SAPC   H2X 9819   2.433   3.533   3.908 -1.3305 -0.9238  0.7955
   99SAPC   H2Y 9820   2.605   3.519   3.952 -1.3511  1.6834 -0.9700
   99SAPC   C23 9821   2.357   2.933   3.434 -0.0753  1.1294  0.6037
   99SAPC   H3R 9822   2.415   2.909   3.342 -0.1383  2.1594  0.2752
   99SAPC   H3S 9823   2.253   2.897   3.416  0.7561 -0.8094 -0.6594
   99SAPC   C24 9824   2.414   2.849   3.556  0.5319 -0.4036 -0.9395
   99SAPC   H4R 9825   2.375   2.746   3.542  1.6989 -0.9856 -0.0887
   99SAPC   H4S 9826   2.369   2.879   3.654  2.4904  0.0977 -0.1571
   99SAPC   C25 9827   2.567   2.850   3.577 -0.4866 -0.3842  0.2963
   99SAPC   H5R 9828   2.624   2.838   3.484  0.0478 -0.0522  0.5775
   99SAPC   C26 9829   2.643   2.858   3.689 -0.2912 -0.2807 -0.4035
   99SAPC   H6R 9830   2.752   2.856   3.676 -0.2407 -0.5340  0.0349
   99SAPC   C27 9831   2.599   2.876   3.835  0.9997  0.8948 -0.5232
   99SAPC   H7R 9832   2.489   2.860   3.845  1.4713 -2.0435  1.0545
   99SAPC   H7S 9833   2.627   2.978   3.868 -0.7615  0.7688  1.5629
   99SAPC   C28 9834   2.668   2.778   3.926 -0.1003 -0.6609  0.4506
   99SAPC   H8R 9835   2.761   2.738   3.885  0.7393  1.1235  0.5203
   99SAPC   C29 9836   2.623   2.759   4.051 -0.4169 -0.2679  0.1214
   99SAPC   H9R 9837   2.667   2.683   4.116  0.4693  0.9638  1.0041
   99SAPC  C210 9838   2.500   2.823   4.121 -0.9554  0.1037 -0.3391
   99SAPC  H10R 9839   2.453   2.749   4.189  0.5480 -1.1438 -0.5898
   99SAPC  H10S 9840   2.432   2.850   4.037 -1.2822  3.1681  0.7969
   99SAPC  C211 9841   2.538   2.949   4.199  0.0046  0.0043  0.5120
   99SAPC  H11R 9842   2.609   3.013   4.145 -0.3364  0.6131  0.7703
   99SAPC  C212 9843   2.487   2.990   4.316 -0.3707  0.0642 -0.1420
   99SAPC  H12R 9844   2.528   3.083   4.356  0.7066  0.2187 -1.5237
   99SAPC  C213 9845   2.374   2.921   4.395 -0.5834  0.3485  0.5103
   99SAPC  H13R 9846   2.329   2.837   4.339  0.4636  2.4497 -3.8691
   99SAPC  H13S 9847   2.289   2.992   4.398  0.4863  2.0187 -3.0695
   99SAPC  C214 9848   2.418   2.891   4.542  0.2764  0.4021  0.0195
   99SAPC  H14R 9849   2.464   2.792   4.554  1.9129  1.3663  2.3038
   99SAPC  C215 9850   2.395   2.967   4.649 -0.0199  0.4600 -0.4942
   99SAPC  H15R 9851   2.443   2.940   4.744 -0.0845  1.4715 -0.1696
   99SAPC  C216 9852   2.326   3.100   4.645 -0.6298 -0.6261  0.7366
   99SAPC  H16R 9853   2.310   3.145   4.545 -1.6138  0.3452  1.3033
   99SAPC  H16S 9854   2.388   3.180   4.690  0.9909 -0.3554 -1.7846
   99SAPC  C217 9855   2.184   3.105   4.710 -0.2204 -0.0761 -0.2095
   99SAPC  H17R 9856   2.118   3.021   4.679 -2.1390  1.8652 -1.6632
   99SAPC  H17S 9857   2.129   3.197   4.682  1.2325  1.8099  2.6197
   99SAPC  C218 9858   2.174   3.111   4.863  0.4828 -0.0114 -0.2447
   99SAPC  H18R 9859   2.213   3.204   4.909 -0.1532 -0.9670  2.3612
   99SAPC  H18S 9860   2.239   3.029   4.902 -0.0019  1.1100  3.2585
   99SAPC  C219 9861   2.018   3.090   4.901  0.1441 -0.0304  0.4081
   99SAPC  H19R 9862   1.989   2.993   4.854  2.5612 -1.0496  0.8666
   99SAPC  H19S 9863   1.960   3.169   4.849  3.0035  0.6935 -1.9518
   99SAPC  C220 9864   2.007   3.067   5.051 -0.4979  0.2880 -0.2596
   99SAPC  H20R 9865   2.042   3.159   5.101 -1.1628  0.7881 -0.6953
   99SAPC  H20S 9866   2.057   2.973   5.082 -0.4920 -0.5982 -2.7481
   99SAPC  H20T 9867   1.904   3.052   5.092 -0.1310  3.4591  2.1386
   99SAPC   C33 9868   2.457   3.393   4.069 -0.4014 -0.1444 -0.0439
   99SAPC   H3X 9869   2.519   3.303   4.090 -0.4969 -0.0758  0.5434
   99SAPC   H3Y 9870   2.356   3.349   4.052 -0.7686  0.3132  0.9040
   99SAPC   C34 9871   2.470   3.483   4.195 -0.6685 -0.2515 -0.1558
   99SAPC   H4X 9872   2.413   3.572   4.161 -1.1897 -1.3437 -2.3422
   99SAPC   H4Y 9873   2.576   3.514   4.207 -0.6811 -0.7907  1.5302
   99SAPC   C35 9874   2.426   3.421   4.330  0.1944  0.1389 -0.0175
   99SAPC   H5X 9875   2.486   3.328   4.340  1.4560  0.4281 -3.6261
   99SAPC   H5Y 9876   2.322   3.384   4.322  1.0068 -2.7976  1.5104
   99SAPC   C36 9877   2.453   3.525   4.443 -0.3408 -0.3201  0.2496
   99SAPC   H6X 9878   2.393   3.616   4.421  0.2362 -0.1352 -0.6265
   99SAPC   H6Y 9879   2.560   3.549   4.454 -0.4312 -0.3516  1.2157
   99SAPC   C37 9880   2.397   3.484   4.579  0.1228 -0.1242 -0.4190
   99SAPC   H7X 9881   2.436   3.382   4.598  0.0711 -1.0347 -4.4085
   99SAPC   H7Y 9882   2.286   3.471   4.572 -0.1692  0.5553  1.9345
   99SAPC   C38 9883   2.431   3.573   4.691 -0.6871 -0.3327  0.2086
   99SAPC   H8X 9884   2.389   3.674   4.677  0.6365 -0.0900 -2.9884
   99SAPC   H8Y 9885   2.535   3.613   4.685 -0.8965 -0.0107 -3.0389
   99SAPC   C39 9886   2.408   3.515   4.835  0.4305 -1.1770 -0.2035
   99SAPC   H9X 9887   2.439   3.410   4.852  0.4445 -1.0208  0.7780
   99SAPC   H9Y 9888   2.302   3.525   4.865  0.7293  0.1270  0.4915
   99SAPC  C310 9889   2.494   3.592   4.935  0.0672  0.0163 -0.1864
   99SAPC  H10X 9890   2.603   3.583   4.917 -0.0439 -0.8786 -0.4747
   99SAPC  H10Y 9891   2.478   3.542   5.033 -1.2189  1.3201  0.3120
   99SAPC  C311 9892   2.457   3.741   4.931  0.1806  0.2584 -0.5835
   99SAPC  H11X 9893   2.355   3.760   4.889 -0.0635 -0.7223 -0.4547
   99SAPC  H11Y 9894   2.526   3.786   4.857  1.0104 -2.1575 -1.3803
   99SAPC  C312 9895   2.481   3.814   5.064  0.8839  0.2002  0.9387
   99SAPC  H12X 9896   2.441   3.916   5.048 -0.2476 -0.2849  0.5722
   99SAPC  H12Y 9897   2.589   3.823   5.086  1.2851 -1.9318  0.0846
   99SAPC  C313 9898   2.401   3.755   5.177  0.7310  0.1767 -0.2877
   99SAPC  H13X 9899   2.439   3.654   5.204 -1.7265 -0.6102  0.5140
   99SAPC  H13Y 9900   2.295   3.737   5.149  0.9005 -3.2603  0.7605
   99SAPC  C314 9901   2.411   3.830   5.302 -0.5169  0.3886  0.2658
   99SAPC  H14X 9902   2.343   3.783   5.376  0.8428 -1.1207  0.6100
   99SAPC  H14Y 9903   2.359   3.926   5.280 -1.6434  0.0263  1.2541
   99SAPC  C315 9904   2.551   3.851   5.359  0.0010 -0.5566  0.8670
   99SAPC  H15X 9905   2.526   3.906   5.453  2.2313 -3.0355  3.0739
   99SAPC  H15Y 9906   2.614   3.917   5.296  0.6695 -2.2939 -0.3246
   99SAPC  C316 9907   2.627   3.733   5.409 -0.0396  0.7611 -0.2856
   99SAPC  H16X 9908   2.716   3.743   5.476 -1.0133 -0.2801  1.2278
   99SAPC  H16Y 9909   2.664   3.675   5.322 -0.2532  0.9912 -0.5295
   99SAPC  C317 9910   2.536   3.650   5.498 -0.6044  0.2976  0.1413
   99SAPC  H17X 9911   2.442   3.612   5.452 -0.3317 -1.8402  1.2295
   99SAPC  H17Y 9912   2.513   3.719   5.581  3.5434  2.8940 -0.5687
   99SAPC  C318 9913   2.604   3.531   5.560  0.7711  0.1282 -0.1861
   99SAPC  H18X 9914   2.631   3.448   5.492  0.9823 -0.0226  0.0773
   99SAPC  H18Y 9915   2.543   3.478   5.636 -2.1609  1.0760 -1.7037
   99SAPC  H18Z 9916   2.700   3.562   5.608  0.1663  0.7993  0.6201
  100SAPC     N 9917   6.248   5.031   3.251  0.7074  0.6164  0.3721
  100SAPC   C12 9918   6.166   5.050   3.379 -0.5252 -0.1313  0.8608
  100SAPC  H12A 9919   6.103   5.137   3.366  0.9501  0.9391  0.6063
  100SAPC  H12B 9920   6.230   5.072   3.463  0.5371  0.2257 -0.0237
  100SAPC   C13 9921   6.352   5.135   3.253  0.1295  0.0027  0.7526
  100SAPC  H13A 9922   6.326   5.196   3.167 -1.7965  1.3477  2.1777
  100SAPC  H13B 9923   6.343   5.195   3.342  1.6800  2.9395 -0.8985
  100SAPC  H13C 9924   6.456   5.108   3.254 -0.0738 -0.7724  0.8878
  100SAPC   C14 9925   6.313   4.899   3.242 -0.2556  0.4549  0.0681
  100SAPC  H14A 9926   6.238   4.821   3.241 -0.2289  0.4343 -0.6045
  100SAPC  H14B 9927   6.358   4.892   3.144 -4.7721  0.7665 -2.2949
  100SAPC  H14C 9928   6.386   4.892   3.321 -0.4667  4.1381  0.7852
  100SAPC   C15 9929   6.171   5.060   3.125  0.3465  0.0307 -0.0148
  100SAPC  H15A 9930   6.219   5.047   3.029  0.2132  0.6639 -0.1708
  100SAPC  H15B 9931   6.083   4.999   3.120  1.4247 -1.4919 -1.9961
  100SAPC  H15C 9932   6.132   5.161   3.128 -0.3847 -0.1950 -1.3896
  100SAPC   C11 9933   6.070   4.938   3.431 -0.9698 -0.4015  0.2220
  100SAPC  H11A 9934   6.040   4.976   3.531  0.4927 -0.2321  0.6180
  100SAPC  H11B 9935   6.140   4.853   3.448 -2.8462 -2.0524  0.0373
  100SAPC     P 9936   5.848   4.988   3.304  0.0291 -0.0134 -0.3805
  100SAPC   O13 9937   5.897   5.126   3.288 -0.2972  0.3549 -0.1004
  100SAPC   O14 9938   5.769   4.934   3.189 -0.3891 -0.0850 -0.3169
  100SAPC   O12 9939   5.964   4.893   3.344 -0.2290 -0.0611  0.2500
  100SAPC   O11 9940   5.752   5.000   3.429 -0.0565 -0.2414  0.8553
  100SAPC    C1 9941   5.702   4.880   3.483 -0.1194 -0.0598  0.1503
  100SAPC    HA 9942   5.615   4.840   3.426 -1.3623  2.6996 -0.0369
  100SAPC    HB 9943   5.770   4.793   3.480 -0.7923 -0.5758 -2.0107
  100SAPC    C2 9944   5.652   4.905   3.628 -0.6014  0.2160 -0.2678
  100SAPC    HS 9945   5.594   5.000   3.627 -1.6645 -0.3918  0.7848
  100SAPC   O21 9946   5.773   4.895   3.712  0.1296  0.0317 -0.2950
  100SAPC   C21 9947   5.823   5.014   3.734  0.6525 -0.3367  0.3475
  100SAPC   O22 9948   5.775   5.122   3.703  0.3470 -0.2947  0.2208
  100SAPC   C22 9949   5.957   4.992   3.798  0.2701  0.2620  0.4393
  100SAPC   H2R 9950   5.942   4.957   3.903  1.5738 -0.6009  0.3577
  100SAPC   H2S 9951   6.016   4.914   3.746 -1.0580  0.3612 -1.3313
  100SAPC    C3 9952   5.557   4.795   3.673 -0.2091  0.4021 -0.3119
  100SAPC    HX 9953   5.599   4.701   3.631 -0.1445 -0.1484  0.9529
  100SAPC    HY 9954   5.456   4.802   3.627 -1.5406  0.8967  2.5011
  100SAPC   O31 9955   5.559   4.783   3.814  0.2101 -0.2267 -0.7652
  100SAPC   C31 9956   5.444   4.746   3.871 -0.6720  0.3106  0.4439
  100SAPC   O32 9957   5.340   4.715   3.816  0.0416  0.4617  0.4000
  100SAPC   C32 9958   5.447   4.773   4.025  0.2449 -0.3929  0.2130
  100SAPC   H2X 9959   5.554   4.803   4.039 -0.0961  1.0030  0.0318
  100SAPC   H2Y 9960   5.399   4.683   4.069 -1.2871 -0.5063 -1.5860
  100SAPC   C23 9961   6.047   5.120   3.824 -0.1692 -0.1061 -0.0714
  100SAPC   H3R 9962   6.044   5.194   3.741  0.6479  0.3417  0.2976
  100SAPC   H3S 9963   6.153   5.089   3.812 -0.0177  1.0141 -2.1610
  100SAPC   C24 9964   6.041   5.197   3.959 -0.1724  0.4042 -0.2656
  100SAPC   H4R 9965   5.938   5.234   3.971 -0.0463  0.7715 -0.3103
  100SAPC   H4S 9966   6.110   5.284   3.952  0.9116 -0.3590  0.4359
  100SAPC   C25 9967   6.078   5.114   4.078  1.1569 -0.0647  0.6558
  100SAPC   H5R 9968   6.182   5.080   4.070  1.3500  0.8403 -1.2110
  100SAPC   C26 9969   5.996   5.068   4.175  0.6068  0.5967  0.1321
  100SAPC   H6R 9970   6.043   5.004   4.251 -1.7669 -0.5195  0.7399
  100SAPC   C27 9971   5.852   5.103   4.216  0.2562 -1.0305 -0.6239
  100SAPC   H7R 9972   5.807   5.162   4.133  0.3520 -0.6139 -0.3823
  100SAPC   H7S 9973   5.841   5.161   4.310  1.0741  5.0319 -3.7669
  100SAPC   C28 9974   5.777   4.973   4.223 -0.6648  0.8147  0.2745
  100SAPC   H8R 9975   5.783   4.916   4.130 -0.1677 -1.6292  1.7002
  100SAPC   C29 9976   5.742   4.900   4.329  0.3029  0.7372 -0.2742
  100SAPC   H9R 9977   5.675   4.816   4.302  2.6235 -0.8729 -1.3238
  100SAPC  C210 9978   5.721   4.946   4.473  0.1581 -0.2015 -0.0057
  100SAPC  H10R 9979   5.805   5.012   4.507 -1.1305  1.4050  0.2055
  100SAPC  H10S 9980   5.728   4.853   4.534  0.5429  0.7906  1.5307
  100SAPC  C211 9981   5.590   5.027   4.486 -0.2061  0.3540 -0.5585
  100SAPC  H11R 9982   5.543   5.050   4.389  0.3762 -2.1954 -1.5374
  100SAPC  C212 9983   5.533   5.070   4.598  0.3781  0.7343  0.0527
  100SAPC  H12R 9984   5.433   5.115   4.605 -1.0131 -1.3488 -3.8676
  100SAPC  C213 9985   5.599   5.044   4.729  1.0544 -0.1672 -0.1246
  100SAPC  H13R 9986   5.690   5.105   4.749 -0.3677  1.3004  2.3242
  100SAPC  H13S 9987   5.629   4.937   4.741  1.3172 -0.4375 -2.5954
  100SAPC  C214 9988   5.507   5.088   4.841  0.0719 -0.2366  0.4964
  100SAPC  H14R 9989   5.404   5.113   4.812  0.6368  2.7670  0.8117
  100SAPC  C215 9990   5.531   5.087   4.973  0.1018  0.2951  0.2369
  100SAPC  H15R 9991   5.461   5.144   5.036  0.3837  1.9843 -0.9124
  100SAPC  C216 9992   5.658   5.053   5.043  0.3991 -0.3986 -0.2888
  100SAPC  H16R 9993   5.701   5.136   5.103 -0.6329  0.8089 -1.1740
  100SAPC  H16S 9994   5.736   5.026   4.968  0.1620  0.5859 -0.9147
  100SAPC  C217 9995   5.641   4.933   5.135 -0.4023 -0.0705 -0.2947
  100SAPC  H17R 9996   5.602   4.850   5.071  0.0372 -0.8724  0.4470
  100SAPC  H17S 9997   5.554   4.957   5.200  0.2737 -0.4366  0.7690
  100SAPC  C218 9998   5.761   4.886   5.220  0.1232 -0.7472  0.5698
  100SAPC  H18R 9999   5.713   4.807   5.282 -1.1331  0.2862  0.9709
  100SAPC  H18S10000   5.780   4.963   5.298  0.9973 -0.2826 -0.0911
  100SAPC  C21910001   5.884   4.837   5.154  0.8945 -0.3642  0.3782
  100SAPC  H19R10002   5.919   4.905   5.073 -1.7858  0.4617 -0.1704
  100SAPC  H19S10003   5.854   4.742   5.106 -0.6051  0.4889 -0.4608
  100SAPC  C22010004   5.989   4.809   5.263 -0.2792  0.4018  0.0209
  100SAPC  H20R10005   6.017   4.898   5.323  0.3798  1.0218 -1.1767
  100SAPC  H20S10006   6.087   4.777   5.222 -0.5257 -1.4739  0.7798
  100SAPC  H20T10007   5.946   4.738   5.337 -1.8394 -0.3379 -1.5275
  100SAPC   C3310008   5.366   4.903   4.058 -0.1870 -0.2737 -0.1309
  100SAPC   H3X10009   5.344   4.901   4.167  0.6017 -2.6242  0.0260
  100SAPC   H3Y10010   5.264   4.895   4.015 -0.6788  1.4235  0.6176
  100SAPC   C3410011   5.420   5.035   4.021  0.2333 -0.5689  0.0599
  100SAPC   H4X10012   5.426   5.029   3.910  0.7105 -0.6964  0.0915
  100SAPC   H4Y10013   5.523   5.041   4.061 -0.1395  0.3874  0.9297
  100SAPC   C3510014   5.337   5.166   4.062 -0.3677  0.4482  0.3184
  100SAPC   H5X10015   5.235   5.155   4.021 -0.3145 -0.0786  0.3235
  100SAPC   H5Y10016   5.385   5.249   4.005 -1.2721  1.0571  0.4392
  100SAPC   C3610017   5.338   5.191   4.216  0.1222 -1.0496 -0.0588
  100SAPC   H6X10018   5.381   5.291   4.239 -0.5740 -0.4927 -1.0987
  100SAPC   H6Y10019   5.409   5.117   4.259 -0.0960 -0.8255  0.7057
  100SAPC   C3710020   5.210   5.178   4.290 -0.6204  0.3400 -0.3660
  100SAPC   H7X10021   5.162   5.078   4.281  0.1931 -0.1511  0.5572
  100SAPC   H7Y10022   5.146   5.260   4.252  0.1892 -0.1497 -2.9710
  100SAPC   C3810023   5.234   5.186   4.441  0.1480 -0.2164 -0.1515
  100SAPC   H8X10024   5.310   5.263   4.467 -0.5692  0.1682  0.8333
  100SAPC   H8Y10025   5.276   5.089   4.476 -0.7637  0.6523  3.8631
  100SAPC   C3910026   5.099   5.197   4.515 -1.2589  0.0185  0.9253
  100SAPC   H9X10027   5.027   5.133   4.460 -1.3667 -0.1586  1.2721
  100SAPC   H9Y10028   5.049   5.297   4.511  0.6297  0.9865 -0.1744
  100SAPC  C31010029   5.113   5.142   4.654  0.6718  0.0388  0.2534
  100SAPC  H10X10030   5.170   5.046   4.656  1.5977  0.5640  0.0261
  100SAPC  H10Y10031   5.010   5.129   4.694  0.1718 -1.5505 -1.4101
  100SAPC  C31110032   5.170   5.252   4.751  0.3375  0.2186  0.4813
  100SAPC  H11X10033   5.111   5.344   4.733  1.0336  0.4242 -0.8982
  100SAPC  H11Y10034   5.279   5.268   4.733  1.0662 -2.5122  1.8884
  100SAPC  C31210035   5.154   5.206   4.896 -0.4017 -0.1628  1.0256
  100SAPC  H12X10036   5.238   5.134   4.907 -1.1759 -1.4471 -0.9847
  100SAPC  H12Y10037   5.057   5.154   4.911 -0.3883 -0.9603 -1.2526
  100SAPC  C31310038   5.173   5.314   4.998 -0.7972 -0.0151  0.5071
  100SAPC  H13X10039   5.094   5.392   4.991 -0.2083  0.4727 -1.2373
  100SAPC  H13Y10040   5.277   5.345   4.976 -0.0778 -2.2293  0.5462
  100SAPC  C31410041   5.164   5.256   5.137  0.2124  0.2588 -0.5423
  100SAPC  H14X10042   5.187   5.335   5.212  1.7940 -1.1471  0.5102
  100SAPC  H14Y10043   5.239   5.174   5.148 -1.1725 -0.9526  0.1956
  100SAPC  C31510044   5.023   5.214   5.178  0.5087 -0.5597  0.1888
  100SAPC  H15X10045   5.018   5.108   5.147 -1.1431 -0.0630 -1.4152
  100SAPC  H15Y10046   4.945   5.265   5.118 -1.0723 -3.2106 -0.1679
  100SAPC  C31610047   4.992   5.216   5.327  0.6474 -0.1678  0.1713
  100SAPC  H16X10048   5.081   5.182   5.386  0.4445 -0.6636  0.1995
  100SAPC  H16Y10049   4.909   5.143   5.341 -1.5168  2.1727  0.0938
  100SAPC  C31710050   4.960   5.355   5.390 -0.2278 -0.1833  0.1202
  100SAPC  H17X10051   5.035   5.426   5.350 -1.3492  0.8480 -0.2310
  100SAPC  H17Y10052   4.969   5.351   5.501  0.3445 -1.7458  0.0414
  100SAPC  C31810053   4.827   5.417   5.358  0.8969 -0.5637  1.0875
  100SAPC  H18X10054   4.837   5.528   5.363  1.9886 -0.5284 -0.9678
  100SAPC  H18Y10055   4.747   5.384   5.427 -0.1753 -1.5511 -0.5751
  100SAPC  H18Z10056   4.805   5.398   5.251  1.1579 -0.4482  1.0114
  101OSM      N10057   2.932   6.143   7.680 -0.5902 -0.2345  0.5519
  101OSM    C1510058   2.878   6.141   7.817 -0.6174  0.4632  0.3353
  101OSM   H15A10059   2.781   6.095   7.815 -0.7420  0.6840 -1.8933
  101OSM   H15B10060   2.863   6.242   7.849 -2.0622  0.1054  0.8326
  101OSM   H15C10061   2.949   6.093   7.883  0.0836 -0.6790 -1.1588
  101OSM    C1410062   3.080   6.152   7.671 -1.2913 -0.2979 -0.0823
  101OSM   H14A10063   3.120   6.177   7.574 -2.0073  1.4049  0.0317
  101OSM   H14B10064   3.116   6.056   7.705  0.7165  0.2925 -0.4228
  101OSM   H14C10065   3.115   6.225   7.742  0.6377  0.0067 -1.2699
  101OSM    C1310066   2.889   6.011   7.626 -0.0104 -0.1606  0.3648
  101OSM   H13A10067   2.918   6.002   7.523  0.8926  0.5202  0.5536
  101OSM   H13B10068   2.782   6.006   7.642  0.1644  1.2469  2.3909
  101OSM   H13C10069   2.948   5.940   7.682 -1.3055 -1.1106  0.5961
  101OSM    C1210070   2.878   6.250   7.595 -0.0093  0.3871  0.1395
  101OSM   H12A10071   2.915   6.347   7.626 -0.5591 -0.1437  2.6611
  101OSM   H12B10072   2.773   6.258   7.618 -0.1705  0.1395 -0.5107
  101OSM    C1110073   2.906   6.235   7.439 -0.0693 -0.1741  0.0439
  101OSM   H11A10074   2.853   6.318   7.386 -0.3136 -1.0735 -1.1630
  101OSM   H11B10075   2.873   6.145   7.383  2.0422 -0.1229 -1.3841
  101OSM      P10076   3.122   6.382   7.411  0.0803 -0.3090 -0.3310
  101OSM    O1310077   3.076   6.472   7.522  0.1439  1.1079  0.1351
  101OSM    O1410078   3.266   6.353   7.399  0.1649 -0.4969 -0.3929
  101OSM    O1110079   3.065   6.444   7.274  0.4167 -0.2219  0.4612
  101OSM    O1210080   3.044   6.246   7.415 -0.2984  0.2036 -0.3437
  101OSM    C1S10081   3.114   6.409   7.147 -0.0491 -0.9967 -0.0481
  101OSM    H1S10082   3.196   6.335   7.163  0.6844  0.0993  1.5322
  101OSM    H1T10083   3.152   6.500   7.096 -1.2673 -0.6221 -0.3098
  101OSM     NF10084   3.040   6.302   6.937  0.6636 -0.1492  0.8202
  101OSM    HNF10085   2.998   6.346   6.858 -1.4230  0.7090  2.3099
  101OSM    C2S10086   2.995   6.345   7.066 -0.7597 -0.3116 -0.2033
  101OSM    H2S10087   2.969   6.255   7.126  2.2947 -0.0158  1.8255
  101OSM    C3S10088   2.871   6.435   7.051  1.1003 -0.2543  0.1788
  101OSM    H3S10089   2.901   6.530   7.001  1.8888 -0.4615  0.2486
  101OSM     O310090   2.831   6.488   7.178 -0.3248 -0.0093 -0.1075
  101OSM    HO310091   2.915   6.481   7.225  0.7503  0.5819 -1.8613
  101OSM    C4S10092   2.763   6.365   6.969  0.2369  0.3127  1.2682
  101OSM    H4S10093   2.773   6.389   6.862  0.9206  2.3141  1.7174
  101OSM    C5S10094   2.662   6.279   7.016 -0.2554  0.0957  0.5352
  101OSM    H5S10095   2.658   6.255   7.123  2.1184 -0.2134  0.6175
  101OSM    C6S10096   2.559   6.207   6.934  0.6283 -0.1119  0.0079
  101OSM    H6S10097   2.465   6.261   6.957  1.3323  1.3539 -0.4608
  101OSM    H6T10098   2.541   6.104   6.971 -1.7425  0.3376  0.2557
  101OSM    C7S10099   2.581   6.202   6.788  0.2272  0.5830  0.6264
  101OSM    H7S10100   2.689   6.176   6.777 -0.6814 -2.9970 -1.6318
  101OSM    H7T10101   2.568   6.305   6.748  0.1509  0.5619  0.5965
  101OSM    C8S10102   2.498   6.098   6.709  0.1716  0.1754 -0.4074
  101OSM    H8S10103   2.390   6.118   6.721 -0.1734 -0.8708 -1.5816
  101OSM    H8T10104   2.515   5.994   6.744  2.2886  0.7300  0.3750
  101OSM    C9S10105   2.550   6.118   6.569 -0.0431  0.6509 -0.4277
  101OSM    H9S10106   2.657   6.103   6.544 -0.2721  1.0824 -1.7235
  101OSM    H9T10107   2.516   6.220   6.543  2.3817  0.8145 -3.5095
  101OSM   C10S10108   2.477   6.024   6.481  0.2961 -0.3049 -0.3922
  101OSM   H10S10109   2.367   6.039   6.492  0.2961 -0.4398 -0.1965
  101OSM   H10T10110   2.483   5.920   6.520 -1.6938 -1.0428 -1.8559
  101OSM   C11S10111   2.500   6.033   6.333 -0.6922 -0.2405 -0.0473
  101OSM   H11S10112   2.608   6.028   6.306 -1.1089  1.7291 -2.4256
  101OSM   H11T10113   2.463   6.134   6.307 -3.1777 -0.9888  0.3040
  101OSM   C12S10114   2.421   5.929   6.263  0.0199 -0.3303 -0.8099
  101OSM   H12S10115   2.314   5.939   6.289  0.0928 -2.3201  0.4656
  101OSM   H12T10116   2.463   5.832   6.299  1.6261  1.3491  2.1869
  101OSM   C13S10117   2.432   5.939   6.111  0.8847  0.6000  0.0434
  101OSM   H13S10118   2.533   5.911   6.073  0.9789 -0.3443  0.9462
  101OSM   H13T10119   2.412   6.046   6.088  0.0330 -0.0607 -2.7068
  101OSM   C14S10120   2.326   5.854   6.030 -0.2383  0.0651 -0.6953
  101OSM   H14S10121   2.239   5.873   6.095  0.8207  2.7936  0.0949
  101OSM   H14T10122   2.341   5.744   6.031 -0.8245 -0.0156 -0.5847
  101OSM   C15S10123   2.302   5.926   5.896  0.2162  0.1503 -0.4732
  101OSM   H15S10124   2.387   5.915   5.825  1.3051 -2.0036  1.0315
  101OSM   H15T10125   2.277   6.030   5.923 -2.5178 -0.5827  0.1331
  101OSM   C16S10126   2.178   5.869   5.824  0.6053  0.2990 -0.1263
  101OSM   H16S10127   2.184   5.758   5.818  0.6256  0.1886  1.6460
  101OSM   H16T10128   2.175   5.906   5.719  1.1500 -0.2090 -0.3250
  101OSM   C17S10129   2.039   5.904   5.886 -0.4613  0.2403  0.1761
  101OSM   H17S10130   2.042   6.011   5.917  1.5046  0.5033 -0.7338
  101OSM   H17T10131   2.017   5.833   5.968 -0.4862 -1.7388 -1.4444
  101OSM   C18S10132   1.921   5.875   5.788  0.2876  0.1294  0.7845
  101OSM   H18S10133   1.821   5.889   5.832 -1.0769 -1.3482 -1.5830
  101OSM   H18T10134   1.941   5.773   5.746  1.6942  0.2517  1.1001
  101OSM   H18U10135   1.930   5.939   5.697  1.8425 -0.3791  0.5379
  101OSM    C1F10136   3.130   6.198   6.927 -0.2282 -0.2233 -0.2928
  101OSM     OF10137   3.166   6.146   7.027 -0.2907 -0.2109 -0.3720
  101OSM    C2F10138   3.165   6.153   6.789 -0.8582 -0.5338 -0.1660
  101OSM    H2F10139   3.181   6.237   6.719 -0.8896  0.4681  1.0072
  101OSM    H2G10140   3.073   6.103   6.752 -1.5628 -0.4498  1.4322
  101OSM    C3F10141   3.292   6.059   6.782  0.7406 -0.2067 -0.4648
  101OSM    H3F10142   3.256   5.971   6.838  0.0931  0.6164  0.4511
  101OSM    H3G10143   3.377   6.097   6.842  0.7347  2.5469 -2.0195
  101OSM    C4F10144   3.328   6.016   6.637 -0.0581 -0.4830 -0.2579
  101OSM    H4F10145   3.405   5.937   6.624  0.8781  0.5016 -0.9123
  101OSM    H4G10146   3.356   6.113   6.590 -4.1825  1.8495  1.5704
  101OSM    C5F10147   3.211   5.958   6.553 -0.8892  0.0712 -0.3317
  101OSM    H5F10148   3.121   6.022   6.568 -1.4293  0.0077 -2.9588
  101OSM    H5G10149   3.180   5.857   6.586 -0.5383 -0.5487 -1.8431
  101OSM    C6F10150   3.244   5.966   6.403  0.2560 -0.6515 -0.4352
  101OSM    H6F10151   3.328   5.896   6.385  2.7066  1.1421  3.0253
  101OSM    H6G10152   3.268   6.070   6.374 -0.1397 -0.8680 -1.5623
  101OSM    C7F10153   3.117   5.923   6.316 -0.5943 -0.2131 -0.1423
  101OSM    H7F10154   3.023   5.970   6.353  0.2524  2.0364 -0.6568
  101OSM    H7G10155   3.105   5.813   6.324 -0.1835 -0.2424  0.1113
  101OSM    C8F10156   3.146   5.952   6.164  0.3012 -0.0710 -0.1798
  101OSM    H8F10157   3.117   6.058   6.150 -1.3250 -0.6351 -1.2797
  101OSM    H8G10158   3.059   5.904   6.115  0.8727 -1.2352 -0.0846
  101OSM    C9F10159   3.281   5.900   6.108 -0.0682 -0.0819  0.2496
  101OSM    H9F10160   3.375   5.941   6.147  0.3074  1.3535 -1.9783
  101OSM   C10F10161   3.291   5.824   5.997 -0.8809  0.1902  0.3036
  101OSM   H10F10162   3.388   5.787   5.961 -0.7566 -1.4896  2.1592
  101OSM   C11F10163   3.181   5.765   5.904 -0.4428 -0.2840  0.1145
  101OSM   H11F10164   3.083   5.803   5.939  0.1315 -0.7428  2.4035
  101OSM   H11G10165   3.180   5.655   5.918 -1.2887 -0.1500  1.2797
  101OSM   C12F10166   3.192   5.804   5.755  0.1504 -0.4258 -0.6461
  101OSM   H12F10167   3.201   5.914   5.744 -1.4672  0.2306  3.0497
  101OSM   H12G10168   3.100   5.769   5.703 -0.6789  0.6397  0.0469
  101OSM   C13F10169   3.301   5.726   5.685 -0.3695  0.1187 -0.3573
  101OSM   H13F10170   3.280   5.618   5.699  1.5311 -0.1962  0.4156
  101OSM   H13G10171   3.400   5.758   5.725 -0.4271 -1.1463  0.8620
  101OSM   C14F10172   3.301   5.736   5.541 -0.0793 -0.0250  0.4200
  101OSM   H14F10173   3.388   5.798   5.509  2.2492 -2.7480  1.0473
  101OSM   H14G10174   3.209   5.784   5.503  1.8541  1.0726 -3.4532
  101OSM   C15F10175   3.316   5.604   5.457  0.2949  0.2183 -0.4082
  101OSM   H15F10176   3.220   5.550   5.467  0.6998 -0.3922  0.2792
  101OSM   H15G10177   3.393   5.539   5.504  0.7819  0.8221 -0.3625
  101OSM   C16F10178   3.358   5.631   5.311  0.1174 -0.5772 -0.7682
  101OSM   H16F10179   3.467   5.653   5.307 -0.0249  0.6393  0.9841
  101OSM   H16G10180   3.294   5.714   5.274 -0.1995 -1.4540 -2.2414
  101OSM   C17F10181   3.324   5.508   5.229 -0.0949  0.2192  0.3817
  101OSM   H17F10182   3.236   5.463   5.280  2.2911 -1.5199  3.2860
  101OSM   H17G10183   3.404   5.432   5.229  0.2075  0.5002 -1.4620
  101OSM   C18F10184   3.302   5.558   5.090 -0.1549  0.0465  0.2730
  101OSM   H18F10185   3.249   5.486   5.024 -0.5437  0.1976  0.4159
  101OSM   H18G10186   3.398   5.590   5.044 -0.5426 -0.2701 -0.7685
  101OSM   H18H10187   3.239   5.650   5.093  1.5126  1.2683 -0.6149
  102OSM      N10188   2.158   6.096   7.890 -0.4573  0.1873  0.1384
  102OSM    C1510189   2.155   6.193   7.775 -0.2478  0.0220  0.3699
  102OSM   H15A10190   2.174   6.142   7.682 -0.3054 -1.0868  0.9554
  102OSM   H15B10191   2.231   6.270   7.784  0.2323 -0.4204  0.1504
  102OSM   H15C10192   2.061   6.246   7.772 -0.0038  0.4621  0.3376
  102OSM    C1410193   2.152   6.168   8.019  0.4540  0.2953 -0.6292
  102OSM   H14A10194   2.238   6.232   8.032  0.0329  0.7319  0.1297
  102OSM   H14B10195   2.153   6.097   8.100  1.2216 -0.7243 -1.5220
  102OSM   H14C10196   2.062   6.228   8.025 -0.0540 -0.3717 -1.3832
  102OSM    C1310197   2.049   5.994   7.891  0.1249 -0.2741 -0.3956
  102OSM   H13A10198   2.045   5.937   7.800  1.9631 -1.4963  0.2391
  102OSM   H13B10199   1.952   6.042   7.896 -0.5058 -1.5854  0.5952
  102OSM   H13C10200   2.059   5.916   7.966 -0.1884 -1.8492 -1.9372
  102OSM    C1210201   2.290   6.032   7.893 -0.2440  0.7469 -0.4714
  102OSM   H12A10202   2.294   5.967   7.979 -3.1713  1.1561  0.0871
  102OSM   H12B10203   2.356   6.114   7.918 -1.6823  1.7772  0.0952
  102OSM    C1110204   2.350   5.959   7.774 -0.0523  1.1748 -0.8737
  102OSM   H11A10205   2.277   5.877   7.756 -0.0913  1.0271 -0.1147
  102OSM   H11B10206   2.444   5.907   7.805  0.3017  2.9669  1.4259
  102OSM      P10207   2.505   6.108   7.641 -0.0537  0.3322 -0.0133
  102OSM    O1310208   2.485   6.243   7.581 -0.3751  0.1543 -0.1368
  102OSM    O1410209   2.573   6.105   7.767  0.2845  0.2881  0.3387
  102OSM    O1110210   2.579   6.016   7.537  0.2178  0.0114  0.4375
  102OSM    O1210211   2.366   6.040   7.654 -0.2920  0.4394 -0.0759
  102OSM    C1S10212   2.525   5.885   7.504 -0.1155  0.4146  0.4359
  102OSM    H1S10213   2.419   5.898   7.473 -0.4993  0.5013  1.7146
  102OSM    H1T10214   2.529   5.829   7.599 -2.1271  0.9596  0.8809
  102OSM     NF10215   2.721   5.753   7.422 -0.3237  0.3306 -0.3912
  102OSM    HNF10216   2.812   5.792   7.430 -0.0754 -0.5587  4.3630
  102OSM    C2S10217   2.604   5.832   7.383 -0.7564  0.2505  0.9996
  102OSM    H2S10218   2.538   5.765   7.325  0.8868 -0.2784 -0.3366
  102OSM    C3S10219   2.639   5.957   7.294  0.0976  0.5531  0.0988
  102OSM    H3S10220   2.714   6.022   7.344 -0.1480  0.2446  0.8737
  102OSM     O310221   2.525   6.038   7.257  0.2950 -0.4552  1.2584
  102OSM    HO310222   2.454   6.028   7.321 -2.6059  0.7438 -1.5243
  102OSM    C4S10223   2.697   5.895   7.164  0.1022 -0.0795  0.1961
  102OSM    H4S10224   2.616   5.848   7.107  1.5998 -1.1689 -1.1534
  102OSM    C5S10225   2.827   5.894   7.128  0.0374  0.1382 -0.5182
  102OSM    H5S10226   2.901   5.943   7.194 -0.9841  2.0808 -0.7563
  102OSM    C6S10227   2.887   5.835   7.006 -0.1505  0.2791  0.6926
  102OSM    H6S10228   2.914   5.729   7.024  1.1820  0.4936  0.0621
  102OSM    H6T10229   2.986   5.884   6.994  1.0977 -2.1373  0.5480
  102OSM    C7S10230   2.809   5.868   6.879  0.2143  0.0632 -0.3317
  102OSM    H7S10231   2.811   5.979   6.868  0.0718  0.1295  0.2383
  102OSM    H7T10232   2.704   5.833   6.889  1.0093 -2.7872 -1.1909
  102OSM    C8S10233   2.877   5.827   6.754 -0.4719  0.3494  1.0567
  102OSM    H8S10234   2.894   5.717   6.755  0.9859  0.5225 -0.4447
  102OSM    H8T10235   2.980   5.870   6.758 -0.3926  0.1469  1.2706
  102OSM    C9S10236   2.802   5.852   6.625 -0.2694 -0.0645 -0.8145
  102OSM    H9S10237   2.815   5.961   6.607  1.7324 -0.0480  0.3840
  102OSM    H9T10238   2.697   5.824   6.645  0.5358 -0.7254  3.4070
  102OSM   C10S10239   2.848   5.768   6.507  0.8285 -0.5707  0.0368
  102OSM   H10S10240   2.827   5.659   6.519 -1.8151  0.0652  2.0207
  102OSM   H10T10241   2.958   5.783   6.501  1.0850 -2.4600 -1.2559
  102OSM   C11S10242   2.777   5.803   6.374  0.1841 -0.1846 -0.2477
  102OSM   H11S10243   2.803   5.910   6.360 -0.9570  0.1979  0.4291
  102OSM   H11T10244   2.668   5.785   6.386 -0.3482  2.4165 -0.4948
  102OSM   C12S10245   2.817   5.706   6.262  0.2984 -0.4360  0.1141
  102OSM   H12S10246   2.792   5.603   6.295  0.4476 -0.7626 -0.7620
  102OSM   H12T10247   2.927   5.709   6.243  0.2608  0.5428  0.0049
  102OSM   C13S10248   2.754   5.738   6.127 -0.0458  0.1274 -0.0409
  102OSM   H13S10249   2.752   5.849   6.116  2.8360  0.2563  0.0843
  102OSM   H13T10250   2.655   5.689   6.117  0.8739 -1.6128 -1.2696
  102OSM   C14S10251   2.833   5.685   6.010 -0.2333 -0.4609 -0.4602
  102OSM   H14S10252   2.830   5.575   6.004  0.0571 -0.3745 -3.6582
  102OSM   H14T10253   2.940   5.701   6.037 -0.9895  0.0379  2.6273
  102OSM   C15S10254   2.788   5.749   5.876 -0.0485 -0.4656  0.7640
  102OSM   H15S10255   2.849   5.717   5.789  1.2575  2.3576  0.5144
  102OSM   H15T10256   2.803   5.859   5.878 -1.0602 -0.3090  3.2405
  102OSM   C16S10257   2.648   5.724   5.841  0.5279  0.8576 -0.3795
  102OSM   H16S10258   2.571   5.768   5.908  1.2051  0.0455  0.9752
  102OSM   H16T10259   2.635   5.615   5.854  0.7202  1.0398  1.6963
  102OSM   C17S10260   2.597   5.757   5.700  0.8749 -0.1842 -0.8350
  102OSM   H17S10261   2.685   5.747   5.633  0.5682  0.7766 -1.4001
  102OSM   H17T10262   2.563   5.862   5.692  1.4872  0.0879 -0.0773
  102OSM   C18S10263   2.480   5.671   5.648 -1.2306  0.4247  0.3464
  102OSM   H18S10264   2.527   5.571   5.650 -1.2834  0.3933  0.0780
  102OSM   H18T10265   2.435   5.699   5.550 -0.2771  0.2216 -0.1670
  102OSM   H18U10266   2.403   5.663   5.726 -0.9333 -0.0775  0.5880
  102OSM    C1F10267   2.707   5.640   7.493 -0.0530 -0.6190  0.4989
  102OSM     OF10268   2.602   5.581   7.490  0.0701  0.4896  0.5043
  102OSM    C2F10269   2.821   5.592   7.578 -0.3837  0.0265  0.8296
  102OSM    H2F10270   2.777   5.568   7.677 -0.4320 -1.5811  0.4577
  102OSM    H2G10271   2.900   5.669   7.588  1.4628 -1.5475 -0.8307
  102OSM    C3F10272   2.888   5.458   7.529  0.1243  0.3207 -0.4206
  102OSM    H3F10273   2.805   5.387   7.506  0.6973 -0.1690 -1.0134
  102OSM    H3G10274   2.944   5.428   7.620 -0.2124  0.8740 -0.0242
  102OSM    C4F10275   2.980   5.464   7.403 -0.1351 -0.8098 -0.0012
  102OSM    H4F10276   3.078   5.494   7.444  1.1456 -2.8905 -1.3252
  102OSM    H4G10277   2.937   5.533   7.327  0.3254 -1.8985 -1.3087
  102OSM    C5F10278   2.993   5.333   7.331 -0.2256  0.6083  0.5505
  102OSM    H5F10279   2.889   5.309   7.301  0.2935 -0.5318 -0.4116
  102OSM    H5G10280   3.026   5.265   7.412 -1.6451  1.5121  1.9337
  102OSM    C6F10281   3.093   5.335   7.219  0.0681  0.2459  0.2211
  102OSM    H6F10282   3.194   5.351   7.263  0.6442 -0.3108 -0.8392
  102OSM    H6G10283   3.068   5.421   7.154  3.7981  1.0574 -0.3660
  102OSM    C7F10284   3.084   5.207   7.135 -1.0781 -0.0921 -1.3775
  102OSM    H7F10285   2.984   5.197   7.089 -1.1992 -1.0005 -0.9381
  102OSM    H7G10286   3.107   5.119   7.200 -1.8308  1.0416  0.4920
  102OSM    C8F10287   3.182   5.218   7.015 -0.9716  0.0937 -0.0315
  102OSM    H8F10288   3.135   5.293   6.948  1.4282  0.1008 -1.8418
  102OSM    H8G10289   3.166   5.120   6.965 -1.1182  0.8402 -1.4959
  102OSM    C9F10290   3.329   5.250   7.044 -0.2994 -0.3936  0.2465
  102OSM    H9F10291   3.354   5.323   7.122 -0.0987 -0.6380  0.4124
  102OSM   C10F10292   3.430   5.198   6.978  0.3226  0.0876 -0.0891
  102OSM   H10F10293   3.530   5.236   7.003  0.1054  0.2366  0.5740
  102OSM   C11F10294   3.416   5.095   6.864 -0.2496 -0.3105  0.8245
  102OSM   H11F10295   3.323   5.035   6.866 -0.2145 -0.4169 -0.1830
  102OSM   H11G10296   3.502   5.026   6.881 -0.3915 -1.1975 -1.6794
  102OSM   C12F10297   3.429   5.172   6.731  0.8223  0.3316 -0.7977
  102OSM   H12F10298   3.538   5.180   6.712  1.2974  0.5423  1.6162
  102OSM   H12G10299   3.381   5.272   6.740 -2.4352 -1.0637 -1.3343
  102OSM   C13F10300   3.368   5.099   6.611  0.0857  0.3996  0.4577
  102OSM   H13F10301   3.261   5.125   6.616 -0.5158 -1.5113 -1.1471
  102OSM   H13G10302   3.389   4.990   6.626  0.0716 -0.1751 -2.9377
  102OSM   C14F10303   3.416   5.130   6.467  0.2145 -0.1500  0.8176
  102OSM   H14F10304   3.524   5.118   6.445  0.4037  2.1582  0.2649
  102OSM   H14G10305   3.396   5.236   6.444 -1.1554 -0.6089 -0.1946
  102OSM   C15F10306   3.342   5.053   6.351 -0.3145  0.5442 -0.4623
  102OSM   H15F10307   3.238   5.087   6.369 -0.5421 -0.6122  0.4381
  102OSM   H15G10308   3.356   4.947   6.380  0.0124  0.9687  1.0093
  102OSM   C16F10309   3.393   5.074   6.204  0.3407 -0.3455  0.3782
  102OSM   H16F10310   3.504   5.077   6.195  0.2801 -1.8480 -2.0100
  102OSM   H16G10311   3.352   5.173   6.175 -0.5230 -0.5568  0.8547
  102OSM   C17F10312   3.340   4.971   6.096  0.0364 -0.2416  0.1666
  102OSM   H17F10313   3.229   4.974   6.084 -0.1647  1.9068  1.9185
  102OSM   H17G10314   3.351   4.868   6.134 -0.8551 -1.1784 -1.9683
  102OSM   C18F10315   3.402   4.986   5.955  0.5841  0.2402  0.6187
  102OSM   H18F10316   3.348   4.909   5.895 -0.8481  0.3574  1.7141
  102OSM   H18G10317   3.511   4.974   5.938  1.1073  4.1190  0.3083
  102OSM   H18H10318   3.387   5.089   5.914 -0.6275 -1.2875 -3.3471
  103OSM      N10319   3.399   6.677   7.453  0.5329 -0.0559 -0.2182
  103OSM    C1510320   3.334   6.616   7.570  0.7010 -1.1418  0.0718
  103OSM   H15A10321   3.382   6.523   7.600 -0.6015 -1.5431  1.0079
  103OSM   H15B10322   3.238   6.580   7.535 -0.7070  0.8440  1.6865
  103OSM   H15C10323   3.296   6.682   7.646 -0.8888  0.2711 -1.8676
  103OSM    C1410324   3.480   6.568   7.386 -0.7565 -0.3576 -0.1051
  103OSM   H14A10325   3.559   6.538   7.454 -1.3340 -0.6170  0.4691
  103OSM   H14B10326   3.518   6.594   7.289 -0.4498 -0.5617 -0.0412
  103OSM   H14C10327   3.413   6.485   7.366  0.7988 -1.6554 -0.1653
  103OSM    C1310328   3.294   6.724   7.355 -0.1318 -0.1474 -0.5889
  103OSM   H13A10329   3.226   6.795   7.401 -0.7199 -0.0074 -1.6326
  103OSM   H13B10330   3.238   6.640   7.316 -2.4734  0.4623  1.2075
  103OSM   H13C10331   3.352   6.782   7.285 -0.4460  1.9202  0.7489
  103OSM    C1210332   3.487   6.796   7.491 -0.9753  0.3472 -0.0447
  103OSM   H12A10333   3.530   6.842   7.403 -0.8930  0.4490  0.0484
  103OSM   H12B10334   3.576   6.758   7.540 -0.1154 -0.0896 -1.8695
  103OSM    C1110335   3.427   6.906   7.579 -0.2889 -0.4261  0.2508
  103OSM   H11A10336   3.481   6.998   7.547 -2.3607  0.2410 -1.6199
  103OSM   H11B10337   3.445   6.881   7.686 -0.8735 -1.2471  0.1597
  103OSM      P10338   3.220   7.068   7.548  0.1764 -0.0198  0.4301
  103OSM    O1310339   3.074   7.043   7.587  0.3187 -0.2746 -0.6013
  103OSM    O1410340   3.301   7.160   7.630 -0.3891  0.8227 -0.1011
  103OSM    O1110341   3.227   7.115   7.397  0.3446  0.2463 -0.0766
  103OSM    O1210342   3.280   6.925   7.549  0.3111  0.1783 -0.0866
  103OSM    C1S10343   3.336   7.085   7.313  1.2179 -0.1428  0.4070
  103OSM    H1S10344   3.352   6.975   7.302 -0.2855 -0.3740  0.3764
  103OSM    H1T10345   3.426   7.127   7.361  1.2463  0.1987  0.0606
  103OSM     NF10346   3.445   7.115   7.092 -0.0997 -0.0114  0.3184
  103OSM    HNF10347   3.498   7.195   7.064 -0.0971 -0.7170 -1.9023
  103OSM    C2S10348   3.324   7.143   7.162 -0.1483 -0.4429 -0.5014
  103OSM    H2S10349   3.242   7.094   7.106  0.5464 -1.6618 -0.5075
  103OSM    C3S10350   3.286   7.289   7.172  0.1670 -0.4344 -0.2496
  103OSM    H3S10351   3.359   7.349   7.231  0.8713 -0.8868 -0.6381
  103OSM     O310352   3.167   7.309   7.235  0.5958 -0.4142 -0.6832
  103OSM    HO310353   3.163   7.243   7.304 -0.6882 -2.4158 -2.5306
  103OSM    C4S10354   3.258   7.335   7.040  0.1190 -0.0426 -0.4672
  103OSM    H4S10355   3.161   7.303   7.001 -0.5769 -1.1116  2.0015
  103OSM    C5S10356   3.333   7.422   6.962  0.6004 -0.0475 -0.3374
  103OSM    H5S10357   3.434   7.450   6.995  0.7444  2.1750 -2.3983
  103OSM    C6S10358   3.289   7.460   6.822  0.7813 -0.2345  0.1848
  103OSM    H6S10359   3.374   7.517   6.776  1.1024 -1.2641 -0.5314
  103OSM    H6T10360   3.204   7.532   6.827  1.1817  0.2887 -0.3630
  103OSM    C7S10361   3.268   7.357   6.710  0.6178 -0.2935  0.3795
  103OSM    H7S10362   3.210   7.269   6.747 -0.9051  1.2041  1.6793
  103OSM    H7T10363   3.366   7.318   6.676  1.9729  0.4303  3.1790
  103OSM    C8S10364   3.193   7.426   6.596 -0.2815 -0.2308 -0.4111
  103OSM    H8S10365   3.250   7.514   6.557  1.4865 -0.8721  0.6358
  103OSM    H8T10366   3.099   7.464   6.641  0.6163  1.4797  0.1189
  103OSM    C9S10367   3.180   7.329   6.481 -0.0545 -0.2890  0.5683
  103OSM    H9S10368   3.135   7.231   6.508 -0.7882  0.3096  1.5320
  103OSM    H9T10369   3.280   7.307   6.437 -0.5705  0.4611 -1.0457
  103OSM   C10S10370   3.100   7.390   6.361 -0.6586 -0.7126 -0.9037
  103OSM   H10S10371   3.068   7.494   6.382  0.3601 -0.9330  2.1305
  103OSM   H10T10372   3.005   7.332   6.360 -0.3833 -1.1813 -0.4281
  103OSM   C11S10373   3.177   7.393   6.224  0.5652 -0.5110 -0.5809
  103OSM   H11S10374   3.234   7.297   6.216  2.5800  0.6628 -0.9329
  103OSM   H11T10375   3.257   7.470   6.231 -0.8912  1.0408 -0.3810
  103OSM   C12S10376   3.097   7.434   6.101  0.1392  0.2632  0.6059
  103OSM   H12S10377   3.162   7.470   6.018 -1.8599  0.5384 -0.9289
  103OSM   H12T10378   3.036   7.518   6.140 -0.6810 -0.2507  0.4696
  103OSM   C13S10379   3.010   7.321   6.045  0.0334  0.1152  0.2939
  103OSM   H13S10380   2.920   7.366   5.999 -0.2293 -0.8958 -0.2089
  103OSM   H13T10381   2.968   7.255   6.124 -0.3174 -1.8540 -1.4573
  103OSM   C14S10382   3.069   7.238   5.923 -0.2404  0.3252 -0.1465
  103OSM   H14S10383   3.158   7.185   5.964  0.6336  0.4428 -1.7797
  103OSM   H14T10384   3.099   7.307   5.842 -2.1077  2.0448  0.5455
  103OSM   C15S10385   2.969   7.137   5.874  0.0056 -0.3699  0.2272
  103OSM   H15S10386   2.872   7.180   5.841  0.1671 -1.0163 -1.1617
  103OSM   H15T10387   2.940   7.061   5.950 -2.2015  0.1766  0.0096
  103OSM   C16S10388   3.024   7.067   5.749 -0.8089 -0.3104 -0.8425
  103OSM   H16S10389   3.121   7.027   5.785 -1.9226 -0.8094  1.8048
  103OSM   H16T10390   3.041   7.146   5.673  1.1561 -0.2754 -0.4146
  103OSM   C17S10391   2.928   6.955   5.714 -0.3037  0.9382  0.6470
  103OSM   H17S10392   2.827   6.993   5.688 -1.2164  0.0398  2.6663
  103OSM   H17T10393   2.907   6.884   5.796  0.6753 -0.9988 -0.6906
  103OSM   C18S10394   2.994   6.872   5.593  0.0922 -0.5850  0.0276
  103OSM   H18S10395   2.917   6.805   5.549 -0.3040  1.4433 -2.6450
  103OSM   H18T10396   3.083   6.814   5.626  0.8110  0.9614  0.9096
  103OSM   H18U10397   3.022   6.942   5.511 -0.6912  0.1522  0.3858
  103OSM    C1F10398   3.504   6.999   7.064  0.1766  0.6141 -0.1356
  103OSM     OF10399   3.459   6.893   7.111  0.6486 -0.3383  0.2430
  103OSM    C2F10400   3.637   7.000   7.003 -0.0248 -0.1212  0.5683
  103OSM    H2F10401   3.671   6.896   6.980  0.5498  0.7658 -3.0682
  103OSM    H2G10402   3.721   7.045   7.061  0.7652 -1.8572  0.8393
  103OSM    C3F10403   3.629   7.073   6.865 -0.1837 -0.1054  0.2655
  103OSM    H3F10404   3.600   7.178   6.885  1.4630  1.0175 -2.7039
  103OSM    H3G10405   3.548   7.024   6.806  0.4630  0.9877 -1.6067
  103OSM    C4F10406   3.758   7.082   6.797 -0.3295  1.3053  0.7677
  103OSM    H4F10407   3.804   6.982   6.782  1.7048  2.4528 -1.3452
  103OSM    H4G10408   3.833   7.144   6.851  1.2227 -1.2311  1.6718
  103OSM    C5F10409   3.739   7.130   6.660  0.5665 -0.0433 -0.3474
  103OSM    H5F10410   3.641   7.095   6.620  0.3970 -0.3808  0.3426
  103OSM    H5G10411   3.814   7.092   6.588  1.5705 -1.4670  1.3660
  103OSM    C6F10412   3.718   7.283   6.647 -0.3945 -0.3039  0.4174
  103OSM    H6F10413   3.805   7.349   6.666 -1.7446  1.5678  0.4876
  103OSM    H6G10414   3.646   7.318   6.725  1.8147  0.1987  2.3474
  103OSM    C7F10415   3.656   7.313   6.506 -0.9886  0.0633 -0.2736
  103OSM    H7F10416   3.558   7.261   6.511 -1.2018  0.1860 -2.4272
  103OSM    H7G10417   3.722   7.263   6.432 -0.6610  2.2989 -1.5809
  103OSM    C8F10418   3.648   7.459   6.473  0.8218  0.4937 -0.0289
  103OSM    H8F10419   3.753   7.495   6.468  1.0112  0.0310  0.4894
  103OSM    H8G10420   3.598   7.511   6.557 -0.4905  0.5009 -0.7866
  103OSM    C9F10421   3.565   7.491   6.350 -0.3457 -0.0640  0.0363
  103OSM    H9F10422   3.460   7.499   6.380 -0.8334 -3.0172 -0.5959
  103OSM   C10F10423   3.612   7.508   6.220 -0.2189  0.2683 -0.2970
  103OSM   H10F10424   3.529   7.523   6.149  0.5141  1.6636 -0.8969
  103OSM   C11F10425   3.756   7.483   6.174 -0.2877  0.2803 -0.5433
  103OSM   H11F10426   3.789   7.390   6.224 -0.0980  0.6472  0.0200
  103OSM   H11G10427   3.819   7.561   6.220  0.1988 -0.4071 -0.0404
  103OSM   C12F10428   3.787   7.478   6.024  0.8513 -0.3233  0.1002
  103OSM   H12F10429   3.728   7.392   5.985  0.5013 -1.0654  2.1171
  103OSM   H12G10430   3.895   7.455   6.020  1.0767  0.8607 -0.9560
  103OSM   C13F10431   3.772   7.606   5.956  1.1009 -0.3312 -0.6744
  103OSM   H13F10432   3.775   7.680   6.038  0.8562 -0.9457 -0.0962
  103OSM   H13G10433   3.676   7.613   5.899  0.6270 -3.5286 -0.4953
  103OSM   C14F10434   3.889   7.647   5.871 -0.6561 -0.5391  0.0727
  103OSM   H14F10435   3.976   7.658   5.940  0.9495  0.5175 -2.0023
  103OSM   H14G10436   3.869   7.748   5.831  0.1609 -0.7850 -1.0014
  103OSM   C15F10437   3.917   7.554   5.755 -0.9332 -0.0108 -0.9801
  103OSM   H15F10438   3.820   7.543   5.701 -2.2510  1.7381  0.8965
  103OSM   H15G10439   3.955   7.458   5.796  2.5239  1.5839 -0.1192
  103OSM   C16F10440   4.023   7.611   5.655 -0.3667 -0.0688  0.0165
  103OSM   H16F10441   4.121   7.622   5.706  0.2030 -1.6284 -0.6662
  103OSM   H16G10442   3.985   7.709   5.620  0.2190  0.1366 -0.0620
  103OSM   C17F10443   4.037   7.517   5.526 -0.1997  0.4480 -0.0294
  103OSM   H17F10444   3.940   7.515   5.472 -0.4762 -1.4751  0.4952
  103OSM   H17G10445   4.054   7.411   5.554  0.5711  0.5902  0.0791
  103OSM   C18F10446   4.147   7.563   5.432  0.4073 -0.2476  0.4831
  103OSM   H18F10447   4.245   7.566   5.484  1.4182  2.2128 -1.3651
  103OSM   H18G10448   4.114   7.661   5.390  0.8027 -0.7829 -1.1660
  103OSM   H18H10449   4.160   7.500   5.341  1.3952 -1.0418  1.1537
  104OSM      N10450   3.596   0.724   7.667  0.5791 -0.3928 -0.3035
  104OSM    C1510451   3.609   0.866   7.637  0.1017  0.1463 -0.6949
  104OSM   H15A10452   3.704   0.887   7.684  0.9488 -1.2016 -1.7129
  104OSM   H15B10453   3.527   0.924   7.676  1.2225  0.0287  2.0445
  104OSM   H15C10454   3.622   0.881   7.531  0.5425  2.7114 -0.3474
  104OSM    C1410455   3.578   0.707   7.816  0.0098 -0.3373  0.7171
  104OSM   H14A10456   3.580   0.600   7.832  0.1825 -0.7890 -1.8550
  104OSM   H14B10457   3.499   0.764   7.861 -1.8058 -1.8811 -0.3702
  104OSM   H14C10458   3.668   0.737   7.868  1.0445 -0.3328 -0.9908
  104OSM    C1310459   3.480   0.672   7.591  0.3982 -0.3090  0.0113
  104OSM   H13A10460   3.403   0.749   7.586 -0.2773 -1.0638 -2.2960
  104OSM   H13B10461   3.437   0.581   7.630 -0.3521  0.7379  1.7725
  104OSM   H13C10462   3.501   0.644   7.489  1.3195  0.3798  0.0054
  104OSM    C1210463   3.725   0.647   7.639 -0.1349 -0.2691 -0.2767
  104OSM   H12A10464   3.704   0.545   7.667  0.3435 -0.2728  0.0869
  104OSM   H12B10465   3.804   0.684   7.703 -1.7139  0.6196  1.2391
  104OSM    C1110466   3.772   0.656   7.490 -0.1596 -0.7212 -0.1701
  104OSM   H11A10467   3.687   0.624   7.425 -1.0877 -0.7480  1.0169
  104OSM   H11B10468   3.851   0.581   7.471  0.8582  0.7806 -2.2209
  104OSM      P10469   3.957   0.814   7.383  0.2076 -0.3804  0.1834
  104OSM    O1310470   4.011   0.936   7.449 -0.6620  0.3986  0.1010
  104OSM    O1410471   4.039   0.689   7.381  0.3746  0.2891  0.7321
  104OSM    O1110472   3.920   0.850   7.239 -0.4424  0.0580  0.0910
  104OSM    O1210473   3.816   0.786   7.451  0.9619  0.0853 -0.3909
  104OSM    C1S10474   3.821   0.950   7.203 -0.1359  0.5996 -0.1979
  104OSM    H1S10475   3.828   1.045   7.261 -2.0770  0.9873 -0.5230
  104OSM    H1T10476   3.716   0.915   7.212  0.3594 -0.7360  0.6388
  104OSM     NF10477   3.783   1.127   7.036 -0.5271 -0.2852  0.4083
  104OSM    HNF10478   3.687   1.125   7.010 -0.1224 -0.9739 -1.1523
  104OSM    C2S10479   3.853   0.998   7.058  0.4847 -1.3532 -0.0064
  104OSM    H2S10480   3.961   1.021   7.049 -0.1054  1.5427 -0.7884
  104OSM    C3S10481   3.813   0.881   6.967  0.6765 -0.3660  1.2476
  104OSM    H3S10482   3.706   0.865   6.944  0.6886 -1.3495  1.8179
  104OSM     O310483   3.858   0.753   7.007 -0.4175  0.1202 -0.2268
  104OSM    HO310484   3.907   0.754   7.090  0.8758  1.0560 -0.9712
  104OSM    C4S10485   3.880   0.908   6.835 -0.2557 -0.0394  0.1366
  104OSM    H4S10486   3.989   0.906   6.845 -0.1816 -0.7301 -0.7355
  104OSM    C5S10487   3.816   0.950   6.719  0.1562 -0.2454  0.4757
  104OSM    H5S10488   3.707   0.944   6.721  0.0665  0.5638 -0.9111
  104OSM    C6S10489   3.879   0.986   6.589 -0.1947 -0.0228  0.4828
  104OSM    H6S10490   3.898   1.096   6.588 -0.0925 -0.0419  0.0762
  104OSM    H6T10491   3.811   0.969   6.503 -0.8933 -0.1633  1.0477
  104OSM    C7S10492   4.025   0.927   6.584  0.2516  0.0558 -0.0695
  104OSM    H7S10493   4.034   0.816   6.585 -0.2021  0.0194  0.2673
  104OSM    H7T10494   4.073   0.976   6.672 -2.6399  0.7150  1.2577
  104OSM    C8S10495   4.109   0.967   6.463  0.6419 -0.2257 -0.0814
  104OSM    H8S10496   4.112   1.078   6.463 -1.5374 -0.1241 -0.8709
  104OSM    H8T10497   4.047   0.932   6.377 -0.9138  0.1510  0.8403
  104OSM    C9S10498   4.251   0.906   6.457 -0.2287  0.1584 -0.5611
  104OSM    H9S10499   4.243   0.795   6.466 -0.8414  0.1463 -1.1984
  104OSM    H9T10500   4.302   0.945   6.548  0.9595 -0.7836 -0.7914
  104OSM   C10S10501   4.334   0.940   6.332  0.5122  0.0238  0.2200
  104OSM   H10S10502   4.431   0.890   6.350  0.0717 -0.6392  0.8314
  104OSM   H10T10503   4.349   1.050   6.327  0.7384 -0.0383 -0.6891
  104OSM   C11S10504   4.277   0.883   6.199  0.8201 -0.4059 -0.0294
  104OSM   H11S10505   4.170   0.913   6.194  0.3049 -2.2944 -1.5554
  104OSM   H11T10506   4.269   0.772   6.197  0.8331 -0.4341  0.9299
  104OSM   C12S10507   4.360   0.909   6.079  0.3679  0.3954 -0.4338
  104OSM   H12S10508   4.458   0.861   6.102 -0.6231 -1.4056  0.1430
  104OSM   H12T10509   4.391   1.016   6.068  2.1122 -0.0712 -0.3338
  104OSM   C13S10510   4.293   0.868   5.951 -0.2318 -0.2426 -0.1833
  104OSM   H13S10511   4.226   0.949   5.916  0.9760 -0.4667 -3.3265
  104OSM   H13T10512   4.234   0.780   5.982  1.0859 -0.2017  2.7824
  104OSM   C14S10513   4.381   0.823   5.835  0.5135 -0.6419  0.1184
  104OSM   H14S10514   4.318   0.814   5.743  0.2515  2.4023 -0.0901
  104OSM   H14T10515   4.434   0.728   5.859 -0.2257 -0.5959  2.0848
  104OSM   C15S10516   4.491   0.923   5.810 -0.2278  0.3899  0.0412
  104OSM   H15S10517   4.559   0.936   5.897 -2.7074  0.5433  2.0640
  104OSM   H15T10518   4.441   1.021   5.794 -0.4642  0.2584 -0.0226
  104OSM   C16S10519   4.579   0.906   5.691 -0.7433 -0.2147  0.1304
  104OSM   H16S10520   4.524   0.910   5.594  1.1284 -1.3617 -1.0448
  104OSM   H16T10521   4.628   0.806   5.695  0.3299  0.3150  0.6231
  104OSM   C17S10522   4.706   0.999   5.690  0.6898 -0.1613 -0.0832
  104OSM   H17S10523   4.762   0.965   5.780  0.3124 -3.5392 -0.9722
  104OSM   H17T10524   4.670   1.103   5.707 -0.0331 -0.6122  1.2539
  104OSM   C18S10525   4.788   0.985   5.562  0.1714 -0.3726 -0.1659
  104OSM   H18S10526   4.857   0.898   5.566 -0.0550 -0.6573 -1.8042
  104OSM   H18T10527   4.859   1.068   5.546 -0.2563  0.2629  1.1133
  104OSM   H18U10528   4.718   0.980   5.476  0.8772 -0.9566 -0.7148
  104OSM    C1F10529   3.827   1.244   7.097  0.2587 -0.0306  0.3034
  104OSM     OF10530   3.929   1.242   7.157  0.4963 -0.1722 -0.1306
  104OSM    C2F10531   3.752   1.367   7.084  0.5855 -0.6128  0.0924
  104OSM    H2F10532   3.733   1.417   7.181 -2.2204 -0.9250 -0.2186
  104OSM    H2G10533   3.654   1.357   7.032  0.1909 -0.4660  0.8006
  104OSM    C3F10534   3.843   1.457   7.000  0.3518 -0.2717 -0.1795
  104OSM    H3F10535   3.839   1.419   6.896 -0.9103 -1.1407  0.1601
  104OSM    H3G10536   3.948   1.465   7.034  0.4357 -0.2992 -0.4366
  104OSM    C4F10537   3.806   1.615   7.005  0.8285  0.2582 -0.5960
  104OSM    H4F10538   3.878   1.668   6.939  0.9428  0.5962 -0.2044
  104OSM    H4G10539   3.816   1.650   7.110 -3.6299  1.1097 -0.2259
  104OSM    C5F10540   3.668   1.653   6.965 -0.0094 -0.3936 -0.2587
  104OSM    H5F10541   3.639   1.758   6.984  0.7864  0.0369 -1.3417
  104OSM    H5G10542   3.605   1.592   7.034  1.3969 -2.0773 -0.3959
  104OSM    C6F10543   3.651   1.634   6.820 -0.1567  0.4304  0.3336
  104OSM    H6F10544   3.647   1.532   6.774 -2.0678  1.1096 -1.1735
  104OSM    H6G10545   3.728   1.700   6.775  0.4787 -0.0774  0.6551
  104OSM    C7F10546   3.517   1.699   6.778 -0.4435  0.2096  0.4227
  104OSM    H7F10547   3.507   1.788   6.843  2.2744  1.5111 -0.7914
  104OSM    H7G10548   3.435   1.626   6.795 -1.3444  0.9664 -0.5173
  104OSM    C8F10549   3.509   1.749   6.629  0.3982 -0.0761 -0.0243
  104OSM    H8F10550   3.582   1.832   6.614  0.6249 -0.4942 -1.4116
  104OSM    H8G10551   3.411   1.791   6.599  0.8209 -0.3799 -1.9537
  104OSM    C9F10552   3.544   1.627   6.539  0.6804 -0.8232  0.1153
  104OSM    H9F10553   3.606   1.546   6.580  1.3042 -1.1803 -1.4283
  104OSM   C10F10554   3.505   1.612   6.409 -0.0665  0.1919  0.2908
  104OSM   H10F10555   3.550   1.528   6.353  1.3364 -1.0282  3.0631
  104OSM   C11F10556   3.439   1.713   6.320  0.4873 -0.5050 -0.2267
  104OSM   H11F10557   3.515   1.788   6.290 -0.0093 -0.1301 -0.5667
  104OSM   H11G10558   3.353   1.753   6.378  2.7652  2.5952  1.2913
  104OSM   C12F10559   3.393   1.644   6.189  0.0215  0.5471 -0.7518
  104OSM   H12F10560   3.304   1.703   6.157  0.3197  3.7037  3.3634
  104OSM   H12G10561   3.351   1.542   6.200  1.6097  0.1091  2.0718
  104OSM   C13F10562   3.512   1.634   6.081 -0.1299 -0.5048  0.6011
  104OSM   H13F10563   3.598   1.569   6.108 -0.7961 -1.4839  0.4142
  104OSM   H13G10564   3.557   1.735   6.082  1.0248 -0.9894  2.1158
  104OSM   C14F10565   3.468   1.602   5.939  0.5245  0.3024  0.0350
  104OSM   H14F10566   3.390   1.675   5.908  0.4682  0.5851  0.8309
  104OSM   H14G10567   3.433   1.496   5.942  2.4807 -0.3667  0.5183
  104OSM   C15F10568   3.586   1.605   5.840 -0.0911 -0.0678  0.0901
  104OSM   H15F10569   3.676   1.574   5.898 -0.0228  1.4001  0.8331
  104OSM   H15G10570   3.597   1.710   5.806 -1.1937 -0.9475 -3.4585
  104OSM   C16F10571   3.568   1.501   5.728  0.2403  0.0411 -0.1037
  104OSM   H16F10572   3.489   1.544   5.662 -0.0273 -0.1683  0.0775
  104OSM   H16G10573   3.532   1.405   5.771  3.2008 -0.4512  1.4637
  104OSM   C17F10574   3.704   1.471   5.663 -0.3901 -0.1746 -0.5366
  104OSM   H17F10575   3.781   1.457   5.741 -3.3978 -1.9922  2.3860
  104OSM   H17G10576   3.725   1.567   5.610 -1.7828  0.7253  0.4610
  104OSM   C18F10577   3.710   1.357   5.561  0.2553  0.3517  0.3583
  104OSM   H18F10578   3.663   1.385   5.465 -1.1147 -2.1970  0.2157
  104OSM   H18G10579   3.650   1.273   5.602 -0.0765 -0.5451 -1.8635
  104OSM   H18H10580   3.813   1.321   5.542  0.2131  0.5080 -0.1700
  105OSM      N10581   6.013   6.099   7.915  0.4404  0.0149  0.1733
  105OSM    C1510582   6.154   6.052   7.949 -0.9873 -0.9003  0.7576
  105OSM   H15A10583   6.153   5.956   7.999  0.8813 -1.1390  0.4051
  105OSM   H15B10584   6.193   6.124   8.018 -1.6949  1.4948 -1.1830
  105OSM   H15C10585   6.219   6.032   7.865 -0.6155  1.7806  0.3312
  105OSM    C1410586   5.926   6.091   8.038 -0.0217 -0.3680 -0.1955
  105OSM   H14A10587   5.822   6.107   8.011  0.6742 -0.5760 -3.2405
  105OSM   H14B10588   5.954   6.157   8.119 -0.7121 -1.4473  0.9674
  105OSM   H14C10589   5.919   5.992   8.082 -1.5354 -0.6868 -1.0558
  105OSM    C1310590   6.022   6.241   7.880  0.1661 -0.2153  0.2288
  105OSM   H13A10591   6.093   6.254   7.799  0.2609 -2.4085 -0.1022
  105OSM   H13B10592   6.054   6.309   7.958 -0.1695 -1.5673  1.5872
  105OSM   H13C10593   5.934   6.283   7.833  2.0556  1.0413 -2.4465
  105OSM    C1210594   5.954   6.016   7.802  0.6309  0.6145  0.9911
  105OSM   H12A10595   5.962   5.911   7.824 -2.3223 -0.3353 -1.6125
  105OSM   H12B10596   6.017   6.035   7.716  0.7285 -1.4248  0.5511
  105OSM    C1110597   5.811   6.038   7.755 -0.4990  0.7666  1.5510
  105OSM   H11A10598   5.794   5.986   7.658 -0.5048  1.2117  1.3101
  105OSM   H11B10599   5.794   6.147   7.741 -1.1838  0.6255  1.2070
  105OSM      P10600   5.582   6.062   7.885  0.0814 -0.7807  0.2962
  105OSM    O1310601   5.501   5.964   7.952  0.3634 -0.7026  0.1098
  105OSM    O1410602   5.610   6.186   7.961  0.0637 -0.0052 -0.0352
  105OSM    O1110603   5.526   6.098   7.738  0.3506  0.2827 -0.2467
  105OSM    O1210604   5.725   5.985   7.848 -0.1677  0.4830  0.3339
  105OSM    C1S10605   5.455   5.985   7.677 -0.4985 -0.0094  0.1493
  105OSM    H1S10606   5.366   5.956   7.736 -1.3715  1.9810 -0.1254
  105OSM    H1T10607   5.532   5.905   7.666  1.8871  1.3242  4.7310
  105OSM     NF10608   5.304   5.910   7.493 -0.2378 -0.3412 -0.3726
  105OSM    HNF10609   5.340   5.837   7.436 -1.1917  0.0011 -1.4520
  105OSM    C2S10610   5.396   6.014   7.535  0.9105  0.3356  0.1643
  105OSM    H2S10611   5.328   6.102   7.540  0.9620  0.3776  0.1145
  105OSM    C3S10612   5.511   6.057   7.436 -0.0578  0.0912  0.2226
  105OSM    H3S10613   5.579   5.971   7.419 -0.4491 -0.0736 -0.5528
  105OSM     O310614   5.595   6.162   7.487  0.0120  1.1951 -0.2486
  105OSM    HO310615   5.580   6.146   7.580 -1.5036 -0.9420 -0.7805
  105OSM    C4S10616   5.456   6.099   7.307  0.2083 -0.5220 -0.2575
  105OSM    H4S10617   5.409   6.199   7.314 -0.5869 -0.9559  0.9316
  105OSM    C5S10618   5.478   6.040   7.186 -0.4563 -0.2514  0.1247
  105OSM    H5S10619   5.545   5.953   7.192  0.2941  0.3972  2.0401
  105OSM    C6S10620   5.435   6.078   7.043  0.2779 -0.2419 -0.8130
  105OSM    H6S10621   5.520   6.130   6.993  0.0287  0.1450 -0.8338
  105OSM    H6T10622   5.347   6.145   7.048 -1.3923 -2.4102  1.1889
  105OSM    C7S10623   5.407   5.951   6.960  0.3433  0.7032  0.5441
  105OSM    H7S10624   5.354   5.971   6.865 -1.9130 -2.6676  0.9067
  105OSM    H7T10625   5.344   5.870   7.003 -0.6105 -0.1748 -2.2884
  105OSM    C8S10626   5.535   5.874   6.917  0.2463 -0.0154 -0.5995
  105OSM    H8S10627   5.510   5.773   6.878 -0.5696 -0.8445  1.8935
  105OSM    H8T10628   5.597   5.850   7.006  0.8398 -0.7906 -1.2040
  105OSM    C9S10629   5.606   5.946   6.807  0.0496  0.3038  0.2237
  105OSM    H9S10630   5.712   5.915   6.816  0.3061  0.6175 -1.4253
  105OSM    H9T10631   5.596   6.057   6.812 -0.6725  0.2183  1.1563
  105OSM   C10S10632   5.578   5.883   6.672 -0.3638  0.0557 -0.1323
  105OSM   H10S10633   5.469   5.873   6.657 -0.6894  0.4878  1.6818
  105OSM   H10T10634   5.623   5.784   6.652  0.0538  0.7246 -2.9852
  105OSM   C11S10635   5.636   5.968   6.560  0.3300  0.1070  0.2333
  105OSM   H11S10636   5.744   5.982   6.580  0.3964  0.1132 -0.1163
  105OSM   H11T10637   5.589   6.068   6.561 -0.1466 -0.1116  0.0272
  105OSM   C12S10638   5.616   5.911   6.420  0.4340 -0.1893 -0.4114
  105OSM   H12S10639   5.505   5.910   6.414  0.4142 -2.9502 -1.1259
  105OSM   H12T10640   5.655   5.807   6.407  0.1710 -0.1585 -1.5460
  105OSM   C13S10641   5.671   5.990   6.302  0.5452 -0.1965 -0.3678
  105OSM   H13S10642   5.780   5.967   6.297  0.1003 -2.7501 -0.0784
  105OSM   H13T10643   5.642   6.097   6.303 -3.1767 -1.0154 -2.1504
  105OSM   C14S10644   5.605   5.949   6.170 -0.4515  0.6186 -0.0173
  105OSM   H14S10645   5.506   6.000   6.169 -0.5492  0.4266 -0.1456
  105OSM   H14T10646   5.586   5.840   6.167 -2.3261  0.8034  2.0232
  105OSM   C15S10647   5.670   6.002   6.047  0.8069 -0.0325  0.0987
  105OSM   H15S10648   5.773   5.960   6.041  0.2123 -1.4650 -0.3289
  105OSM   H15T10649   5.675   6.113   6.037 -0.3968 -0.1473 -2.7111
  105OSM   C16S10650   5.590   5.972   5.920  0.0328 -0.5025  0.8176
  105OSM   H16S10651   5.631   6.041   5.844  0.5059 -0.4314  1.1349
  105OSM   H16T10652   5.482   5.998   5.929  0.7094  2.3049  1.7615
  105OSM   C17S10653   5.599   5.830   5.863 -0.6859  0.4593  0.4075
  105OSM   H17S10654   5.522   5.827   5.783  0.1837  1.2799 -0.4861
  105OSM   H17T10655   5.556   5.747   5.923 -1.0105 -0.5387 -1.1315
  105OSM   C18S10656   5.738   5.794   5.814  0.4027 -0.1243  0.6279
  105OSM   H18S10657   5.790   5.884   5.774  1.3087  0.5493  3.1437
  105OSM   H18T10658   5.734   5.712   5.739 -0.5432 -0.1414  0.6827
  105OSM   H18U10659   5.793   5.751   5.901  1.6948  2.2043  1.0456
  105OSM    C1F10660   5.174   5.892   7.534  0.7267 -0.1134  0.4996
  105OSM     OF10661   5.117   5.974   7.604  0.3629  0.6110  0.4696
  105OSM    C2F10662   5.119   5.758   7.485 -0.2570 -0.6990 -0.0575
  105OSM    H2F10663   5.075   5.710   7.575 -3.7694  3.8594  0.9916
  105OSM    H2G10664   5.205   5.697   7.447 -0.4759 -0.1384 -1.5372
  105OSM    C3F10665   5.006   5.773   7.375 -0.3622  0.3387  0.4425
  105OSM    H3F10666   4.915   5.822   7.415 -0.4189 -1.2981  2.4567
  105OSM    H3G10667   4.975   5.669   7.352  0.1778  0.4158 -0.7105
  105OSM    C4F10668   5.046   5.853   7.250  0.3414 -0.8942 -0.4271
  105OSM    H4F10669   5.080   5.777   7.176  0.3552  0.7539 -2.2078
  105OSM    H4G10670   5.132   5.922   7.261 -0.1453 -0.3524  0.0487
  105OSM    C5F10671   4.928   5.926   7.186 -0.0931  0.1015  0.8582
  105OSM    H5F10672   4.879   5.993   7.261 -1.3823  0.5245 -0.3272
  105OSM    H5G10673   4.853   5.851   7.154 -0.7509  1.4710 -0.9722
  105OSM    C6F10674   4.971   6.002   7.062  0.3850 -0.5909 -0.2025
  105OSM    H6F10675   5.061   6.066   7.073  0.2379 -0.0254 -1.9511
  105OSM    H6G10676   4.893   6.076   7.034  1.3444 -0.0160 -1.4570
  105OSM    C7F10677   5.012   5.913   6.940  0.4367 -0.0389  0.3390
  105OSM    H7F10678   4.937   5.832   6.930  0.8675 -0.4343  0.3061
  105OSM    H7G10679   5.112   5.868   6.958  0.3920 -0.1132  0.3974
  105OSM    C8F10680   5.010   5.986   6.809  0.2291  0.3595 -0.0228
  105OSM    H8F10681   4.904   6.016   6.793 -0.0377  0.2449  1.3551
  105OSM    H8G10682   5.046   5.912   6.735  1.5507  0.0329  0.9021
  105OSM    C9F10683   5.099   6.109   6.807 -0.2412  0.4140  0.1968
  105OSM    H9F10684   5.138   6.142   6.904 -0.6542 -0.7525  0.7869
  105OSM   C10F10685   5.139   6.173   6.696 -0.2346 -1.4810  0.0085
  105OSM   H10F10686   5.203   6.262   6.708 -1.0836 -1.0230  1.3155
  105OSM   C11F10687   5.111   6.143   6.550 -1.2466  0.5085 -0.1521
  105OSM   H11F10688   5.129   6.237   6.493  0.9372  0.6806  0.7215
  105OSM   H11G10689   5.005   6.114   6.542 -1.4413  0.9871  0.5813
  105OSM   C12F10690   5.211   6.036   6.491 -0.0882 -0.5187 -0.6432
  105OSM   H12F10691   5.190   5.936   6.536 -2.0359  0.3541  0.5401
  105OSM   H12G10692   5.317   6.064   6.506 -0.6202  0.6908  1.2108
  105OSM   C13F10693   5.212   6.025   6.338 -0.0008 -0.0228  0.6219
  105OSM   H13F10694   5.310   5.985   6.305  0.7982  1.5288  1.0085
  105OSM   H13G10695   5.210   6.130   6.303 -0.5772  0.0696  0.9183
  105OSM   C14F10696   5.087   5.947   6.283  0.2463  0.1525  0.0931
  105OSM   H14F10697   4.996   6.006   6.306 -0.1301 -0.9751  1.7014
  105OSM   H14G10698   5.071   5.849   6.334 -0.9304 -0.2901 -1.0803
  105OSM   C15F10699   5.096   5.927   6.132  0.8318 -0.4470 -0.6733
  105OSM   H15F10700   4.987   5.917   6.111  0.3237 -0.1204  1.5541
  105OSM   H15G10701   5.153   5.833   6.115  1.6197  0.2505 -2.0534
  105OSM   C16F10702   5.137   6.037   6.033  0.2052 -0.5862  0.0203
  105OSM   H16F10703   5.248   6.045   6.038  0.1648 -0.1191  0.2600
  105OSM   H16G10704   5.102   6.136   6.070  0.0607 -0.0528 -1.4864
  105OSM   C17F10705   5.096   6.023   5.890  0.1293  0.1201 -0.2298
  105OSM   H17F10706   5.140   6.105   5.830  1.7718 -0.1039  0.6205
  105OSM   H17G10707   4.985   6.036   5.892  0.0413 -0.6394  0.5647
  105OSM   C18F10708   5.130   5.889   5.832 -0.1408  0.1918  0.6192
  105OSM   H18F10709   5.084   5.809   5.895  0.0316  0.6125  1.2947
  105OSM   H18G10710   5.241   5.885   5.839 -0.1477  0.9561  1.2319
  105OSM   H18H10711   5.085   5.887   5.731  1.0479  1.3750  0.0375
  106OSM      N10712   1.864   4.704   8.066 -1.2884  0.3986 -0.4277
  106OSM    C1510713   1.947   4.581   8.076  0.1888  0.0473 -0.4407
  106OSM   H15A10714   2.044   4.597   8.032  1.1753 -3.8778 -0.0389
  106OSM   H15B10715   1.903   4.497   8.023 -1.5698  0.9781 -0.5523
  106OSM   H15C10716   1.970   4.551   8.177  1.1976  0.6978 -0.4659
  106OSM    C1410717   1.731   4.677   8.119  0.4431 -0.5879  0.3730
  106OSM   H14A10718   1.687   4.776   8.122  0.7331 -0.4145 -0.5897
  106OSM   H14B10719   1.743   4.649   8.223  1.7498  0.9762  0.6833
  106OSM   H14C10720   1.677   4.603   8.063  3.2768 -1.1521 -1.8575
  106OSM    C1310721   1.927   4.808   8.152  0.0462 -0.1366 -0.2766
  106OSM   H13A10722   1.898   4.802   8.256  1.9091 -1.4734  0.2249
  106OSM   H13B10723   1.897   4.904   8.113  3.3859  1.3126  0.3731
  106OSM   H13C10724   2.034   4.797   8.143  0.5186  2.3604  1.3410
  106OSM    C1210725   1.855   4.739   7.920  0.3676 -0.6938  0.4451
  106OSM   H12A10726   1.791   4.670   7.867 -1.0161  1.0744 -0.3103
  106OSM   H12B10727   1.954   4.734   7.879  0.2763 -2.5903  0.3886
  106OSM    C1110728   1.807   4.876   7.882 -0.2780  0.1417 -0.6750
  106OSM   H11A10729   1.714   4.903   7.936  0.3235  0.9835 -0.0385
  106OSM   H11B10730   1.785   4.880   7.773 -0.6141 -1.6278 -0.7018
  106OSM      P10731   2.048   4.977   7.879  0.1872 -0.7595 -0.0956
  106OSM    O1310732   2.116   5.069   7.978 -0.8318  0.6767  0.5218
  106OSM    O1410733   2.118   4.848   7.838  0.9710  0.1382  0.1456
  106OSM    O1110734   2.039   5.069   7.754  0.2148  0.2595  0.2171
  106OSM    O1210735   1.897   4.975   7.922  0.5964  0.4657 -0.2148
  106OSM    C1S10736   2.159   5.103   7.684  0.0383 -0.6286 -0.1832
  106OSM    H1S10737   2.247   5.087   7.750 -0.7747 -1.7778  0.6460
  106OSM    H1T10738   2.157   5.211   7.658 -0.1323 -0.3783  0.8660
  106OSM     NF10739   2.319   5.034   7.507 -0.2535 -0.4615 -0.1704
  106OSM    HNF10740   2.340   5.109   7.445 -0.5978 -0.7389 -0.6272
  106OSM    C2S10741   2.181   5.029   7.549  0.5727  0.1781 -0.8095
  106OSM    H2S10742   2.166   4.923   7.578 -0.8645  0.2264 -1.2598
  106OSM    C3S10743   2.072   5.073   7.453  0.2735  0.7269  0.6970
  106OSM    H3S10744   2.072   5.184   7.442 -1.7900  0.6051 -1.1221
  106OSM     O310745   1.941   5.055   7.508  0.3046  0.3404 -0.1102
  106OSM    HO310746   1.962   5.030   7.598  0.8104 -1.2474 -0.6279
  106OSM    C4S10747   2.076   5.002   7.322  0.4707 -0.3807  0.5722
  106OSM    H4S10748   1.985   4.949   7.290  0.9869 -0.7393 -0.3402
  106OSM    C5S10749   2.165   5.022   7.221 -0.4156  0.6340  0.1230
  106OSM    H5S10750   2.245   5.096   7.234  0.1030 -0.0140  0.7136
  106OSM    C6S10751   2.158   4.956   7.085 -0.7268  0.6553  0.1452
  106OSM    H6S10752   2.063   4.902   7.065  0.0429 -0.6546 -0.1215
  106OSM    H6T10753   2.243   4.886   7.071 -0.3335  0.2941  3.5534
  106OSM    C7S10754   2.161   5.067   6.975 -0.1414  0.1110 -0.7481
  106OSM    H7S10755   2.239   5.145   6.989  1.1723 -1.1022 -1.1020
  106OSM    H7T10756   2.062   5.118   6.976 -0.2494 -0.0750  1.1081
  106OSM    C8S10757   2.188   5.009   6.830 -0.0835  0.5872 -0.6096
  106OSM    H8S10758   2.281   4.949   6.825 -0.2390  0.3340 -0.4921
  106OSM    H8T10759   2.201   5.097   6.763 -1.9017  1.4211  0.0439
  106OSM    C9S10760   2.078   4.920   6.778  1.3483  0.5685  0.3652
  106OSM    H9S10761   1.981   4.974   6.784  0.9915 -0.2170  2.2871
  106OSM    H9T10762   2.066   4.834   6.847  1.6638  1.8656  2.1232
  106OSM   C10S10763   2.100   4.879   6.626  0.6530  0.9949 -0.1752
  106OSM   H10S10764   2.176   4.800   6.616 -0.5165 -0.1884 -0.0170
  106OSM   H10T10765   2.142   4.963   6.566  2.3253  0.8389  0.7360
  106OSM   C11S10766   1.980   4.823   6.548  0.1360 -0.9139  0.6296
  106OSM   H11S10767   1.892   4.887   6.569  2.0534  1.1969  2.6711
  106OSM   H11T10768   1.960   4.724   6.595 -2.1356  0.8564  3.7712
  106OSM   C12S10769   2.009   4.824   6.400  0.8851  0.5829 -0.1113
  106OSM   H12S10770   2.102   4.769   6.377  0.9178  0.6685 -0.1886
  106OSM   H12T10771   2.041   4.926   6.370  3.4917  0.1555  0.9540
  106OSM   C13S10772   1.889   4.767   6.324  0.2812  0.3052  0.3909
  106OSM   H13S10773   1.795   4.826   6.336 -0.0772 -0.5826  2.5233
  106OSM   H13T10774   1.847   4.670   6.359 -1.3413  0.4169 -1.0922
  106OSM   C14S10775   1.904   4.762   6.172  0.3502 -0.1724 -0.2391
  106OSM   H14S10776   1.939   4.859   6.130 -1.8605  0.0984 -1.5914
  106OSM   H14T10777   1.808   4.748   6.119  1.1904  1.1955 -2.2662
  106OSM   C15S10778   1.990   4.647   6.125  0.5723 -0.0880 -0.5734
  106OSM   H15S10779   1.964   4.554   6.179 -1.7297  0.2648 -0.9749
  106OSM   H15T10780   2.094   4.670   6.156  0.4205 -0.0722 -0.0614
  106OSM   C16S10781   1.989   4.629   5.972  0.4819 -0.0389 -0.1397
  106OSM   H16S10782   2.017   4.726   5.926 -0.7930  0.3036 -0.2220
  106OSM   H16T10783   1.885   4.617   5.934  0.8169 -3.4258 -0.2936
  106OSM   C17S10784   2.062   4.515   5.907 -0.0791  0.1263 -0.0363
  106OSM   H17S10785   2.050   4.425   5.972 -2.5565  0.6440  0.3057
  106OSM   H17T10786   2.171   4.536   5.899 -0.2557  0.2775 -3.0192
  106OSM   C18S10787   2.017   4.465   5.761  0.1072 -0.1915  0.3239
  106OSM   H18S10788   1.919   4.415   5.766  0.4950 -0.9756  0.1638
  106OSM   H18T10789   2.093   4.398   5.716  0.6467  1.9781 -2.2927
  106OSM   H18U10790   2.018   4.551   5.690 -2.0360  1.6343  2.3159
  106OSM    C1F10791   2.416   4.976   7.569  1.1128 -0.6120  0.5497
  106OSM     OF10792   2.392   4.877   7.637 -0.6273 -0.2548 -0.3258
  106OSM    C2F10793   2.552   5.026   7.549 -0.4379  0.0625  0.6425
  106OSM    H2F10794   2.585   5.080   7.640  2.0587 -0.1508 -0.0741
  106OSM    H2G10795   2.556   5.095   7.462 -1.7700  0.1062  0.5967
  106OSM    C3F10796   2.645   4.906   7.512 -0.8879 -0.1869  0.0557
  106OSM    H3F10797   2.633   4.827   7.589  2.4062 -1.3279 -0.4405
  106OSM    H3G10798   2.750   4.941   7.521 -0.5757 -1.3243  0.9958
  106OSM    C4F10799   2.630   4.861   7.369  0.0206  0.1695  0.2055
  106OSM    H4F10800   2.608   4.954   7.312 -0.2955  0.5309  0.9001
  106OSM    H4G10801   2.539   4.799   7.357 -0.1916  0.5336 -0.0925
  106OSM    C5F10802   2.754   4.799   7.314 -0.3986 -0.0885  0.0999
  106OSM    H5F10803   2.765   4.700   7.364 -1.5568 -0.0985  0.3851
  106OSM    H5G10804   2.845   4.849   7.351 -1.8470  1.7295  1.4119
  106OSM    C6F10805   2.732   4.781   7.163 -0.5036 -0.8773 -0.2201
  106OSM    H6F10806   2.625   4.752   7.154 -0.7447 -0.8738  2.0909
  106OSM    H6G10807   2.790   4.692   7.133  0.7189  0.1412 -1.0006
  106OSM    C7F10808   2.763   4.893   7.068  0.1709 -0.4110  0.3742
  106OSM    H7F10809   2.866   4.927   7.087  0.1291 -0.0062 -0.1103
  106OSM    H7G10810   2.695   4.975   7.099  0.8106 -0.4438  1.9275
  106OSM    C8F10811   2.734   4.877   6.918 -1.2017 -0.7135 -0.0822
  106OSM    H8F10812   2.630   4.842   6.912 -1.5860  0.0452  1.4526
  106OSM    H8G10813   2.800   4.793   6.887 -0.6033  0.4724 -2.2766
  106OSM    C9F10814   2.764   4.995   6.831 -0.9491  0.0667 -0.3092
  106OSM    H9F10815   2.865   5.036   6.842 -0.4591 -1.5467  1.8671
  106OSM   C10F10816   2.682   5.060   6.743 -0.2226 -0.2840 -0.1508
  106OSM   H10F10817   2.721   5.154   6.700  0.2757  0.3102  1.5248
  106OSM   C11F10818   2.537   5.038   6.702 -0.0383  0.0041  0.7948
  106OSM   H11F10819   2.478   5.126   6.735  0.0321  0.9419 -1.3625
  106OSM   H11G10820   2.493   4.950   6.753  2.7381 -2.0178 -0.0393
  106OSM   C12F10821   2.498   5.030   6.553  0.0501 -0.0212  0.1479
  106OSM   H12F10822   2.526   5.116   6.489 -1.9450  1.2565  0.8878
  106OSM   H12G10823   2.388   5.014   6.545 -0.3449  1.6007  1.6226
  106OSM   C13F10824   2.563   4.910   6.491 -0.4937  0.3087  0.0096
  106OSM   H13F10825   2.544   4.819   6.552 -0.1697 -0.0366 -0.4001
  106OSM   H13G10826   2.670   4.930   6.516 -0.8809  2.2170  0.2292
  106OSM   C14F10827   2.539   4.887   6.340 -0.4730  0.9490  0.3361
  106OSM   H14F10828   2.626   4.827   6.305  0.9607  2.3093  1.4050
  106OSM   H14G10829   2.533   4.988   6.293  1.0914 -0.2108 -2.6345
  106OSM   C15F10830   2.400   4.820   6.318  0.7298 -0.1375  0.4250
  106OSM   H15F10831   2.314   4.877   6.359 -0.0096 -0.1610 -1.0376
  106OSM   H15G10832   2.407   4.732   6.386  1.3333 -1.0626 -0.7954
  106OSM   C16F10833   2.374   4.768   6.178 -0.2361  0.2084  0.4561
  106OSM   H16F10834   2.286   4.700   6.173 -1.5411  1.8318  0.5086
  106OSM   H16G10835   2.465   4.713   6.148  0.7169  1.1142  1.6003
  106OSM   C17F10836   2.352   4.884   6.080 -0.3967  0.1167 -0.0825
  106OSM   H17F10837   2.350   4.841   5.977 -0.7993 -0.8602  0.3191
  106OSM   H17G10838   2.444   4.945   6.079 -0.1069 -0.3193 -0.3136
  106OSM   C18F10839   2.228   4.970   6.095 -0.1196  0.2871 -0.2504
  106OSM   H18F10840   2.139   4.904   6.097  1.2588 -1.6672  0.5900
  106OSM   H18G10841   2.234   5.040   6.009 -0.8774 -0.1816 -0.7011
  106OSM   H18H10842   2.230   5.021   6.193 -1.1256 -3.3612  1.8773
  107OSM      N10843   1.642   0.998   7.909 -0.5115 -0.7638 -0.2315
  107OSM    C1510844   1.581   0.928   8.020 -0.1366 -0.0717 -0.1748
  107OSM   H15A10845   1.481   0.897   7.994  0.5331 -3.0019  0.3397
  107OSM   H15B10846   1.565   0.992   8.106 -1.1262  0.5436 -0.8016
  107OSM   H15C10847   1.635   0.839   8.049 -1.7297 -1.3436 -0.9803
  107OSM    C1410848   1.553   1.120   7.854 -0.4292  0.5081  0.6603
  107OSM   H14A10849   1.602   1.183   7.781 -1.6858  2.6420  1.5731
  107OSM   H14B10850   1.539   1.195   7.930  2.0136  1.1865  0.5522
  107OSM   H14C10851   1.459   1.089   7.811 -1.2682  2.0621  1.2854
  107OSM    C1310852   1.769   1.052   7.955 -0.2015  0.7640 -0.1694
  107OSM   H13A10853   1.816   1.103   7.873 -1.7554  0.5952 -1.1969
  107OSM   H13B10854   1.837   0.975   7.989 -1.1530 -0.1561 -0.3036
  107OSM   H13C10855   1.765   1.122   8.038  1.5221 -0.1632  0.7539
  107OSM    C1210856   1.658   0.908   7.788  0.0550  0.2183  0.0292
  107OSM   H12A10857   1.562   0.862   7.770  0.2556 -0.7267  1.1736
  107OSM   H12B10858   1.717   0.822   7.818  1.4896  1.5689  1.2012
  107OSM    C1110859   1.722   0.972   7.658  0.5028  0.1761 -0.0508
  107OSM   H11A10860   1.642   1.029   7.606  1.3175  1.3432 -0.0650
  107OSM   H11B10861   1.750   0.886   7.594 -1.0304  1.5877 -2.8134
  107OSM      P10862   1.848   1.197   7.631  0.0510 -0.2704 -0.2739
  107OSM    O1310863   1.871   1.279   7.753 -0.4408  0.4475 -0.2419
  107OSM    O1410864   1.939   1.201   7.517 -0.2825 -0.3255  0.1783
  107OSM    O1110865   1.707   1.246   7.569  0.1627  0.2148 -0.1126
  107OSM    O1210866   1.838   1.052   7.677 -0.2550  0.4803  0.1842
  107OSM    C1S10867   1.696   1.373   7.494 -0.6327 -0.3920 -0.1648
  107OSM    H1S10868   1.773   1.447   7.523 -0.1078 -1.5718  1.6361
  107OSM    H1T10869   1.602   1.421   7.531 -0.2364 -0.7841  1.4525
  107OSM     NF10870   1.715   1.462   7.264  0.2071  0.4527  0.0324
  107OSM    HNF10871   1.636   1.518   7.242 -1.5327 -1.3317  1.3949
  107OSM    C2S10872   1.688   1.345   7.340 -0.5287 -0.9938 -0.2480
  107OSM    H2S10873   1.766   1.266   7.332 -0.7634 -1.3716  0.9422
  107OSM    C3S10874   1.553   1.278   7.304 -0.2794 -0.7289 -0.5388
  107OSM    H3S10875   1.463   1.328   7.345 -1.4400 -3.4676  0.5236
  107OSM     O310876   1.548   1.149   7.356  0.3286 -0.0603 -0.1871
  107OSM    HO310877   1.637   1.142   7.391 -0.1094 -0.4969  0.8959
  107OSM    C4S10878   1.546   1.274   7.155  0.8652 -0.2255  0.2964
  107OSM    H4S10879   1.642   1.260   7.102 -0.2353  3.5126 -3.2730
  107OSM    C5S10880   1.438   1.302   7.078 -0.2202 -0.5345 -1.1339
  107OSM    H5S10881   1.343   1.329   7.126  0.0139  1.3445 -1.6311
  107OSM    C6S10882   1.439   1.320   6.926  0.1705  0.1832  0.2003
  107OSM    H6S10883   1.338   1.304   6.882  0.3619 -0.0546 -0.1643
  107OSM    H6T10884   1.488   1.236   6.871  0.2864  0.3745  0.0108
  107OSM    C7S10885   1.481   1.460   6.874 -0.2891  1.1779 -0.1597
  107OSM    H7S10886   1.588   1.482   6.893  1.9637 -4.6290 -3.5604
  107OSM    H7T10887   1.420   1.536   6.928  0.8277  1.7207  0.3540
  107OSM    C8S10888   1.446   1.495   6.723  0.2021  0.0588  0.5312
  107OSM    H8S10889   1.364   1.425   6.692  0.9228 -0.7076  0.3148
  107OSM    H8T10890   1.535   1.476   6.660  0.4479  1.8662  0.3060
  107OSM    C9S10891   1.396   1.635   6.705 -0.0443  0.4425 -0.6361
  107OSM    H9S10892   1.483   1.698   6.732 -1.3129  1.3155  1.7771
  107OSM    H9T10893   1.322   1.678   6.776  0.4257  0.9643 -0.4583
  107OSM   C10S10894   1.335   1.665   6.571  0.1225  0.3190  0.0776
  107OSM   H10S10895   1.236   1.617   6.559 -0.0649  1.0726 -1.7040
  107OSM   H10T10896   1.396   1.609   6.497  0.6439  2.1171 -0.9290
  107OSM   C11S10897   1.333   1.816   6.532 -0.2235  0.7742  0.6252
  107OSM   H11S10898   1.435   1.859   6.528  0.6095 -1.1118  0.2394
  107OSM   H11T10899   1.274   1.878   6.603  0.1292  1.1582  0.5838
  107OSM   C12S10900   1.257   1.824   6.402  0.1569 -0.7914  0.2253
  107OSM   H12S10901   1.232   1.927   6.366 -2.3072 -2.1749 -2.4160
  107OSM   H12T10902   1.157   1.776   6.408  0.2749 -1.5431 -2.4455
  107OSM   C13S10903   1.322   1.765   6.283 -0.4090 -0.1986  0.2702
  107OSM   H13S10904   1.300   1.656   6.290  0.3882 -0.3648  0.2489
  107OSM   H13T10905   1.431   1.782   6.295 -0.7050  1.5619  0.6878
  107OSM   C14S10906   1.277   1.824   6.148 -0.3264  0.2834 -0.6252
  107OSM   H14S10907   1.312   1.929   6.137 -1.4983  0.7302 -0.2795
  107OSM   H14T10908   1.167   1.834   6.134 -0.4014  0.3503 -0.0056
  107OSM   C15S10909   1.327   1.741   6.030 -0.0100  0.3371  0.4895
  107OSM   H15S10910   1.280   1.641   6.044  0.7050 -0.7156 -3.5510
  107OSM   H15T10911   1.438   1.736   6.024 -0.1233 -0.7457 -1.6244
  107OSM   C16S10912   1.279   1.776   5.889  0.0085 -0.1543 -0.8979
  107OSM   H16S10913   1.172   1.746   5.880  0.4471 -2.7613  1.0783
  107OSM   H16T10914   1.339   1.716   5.818  2.8055  2.1091 -0.6101
  107OSM   C17S10915   1.296   1.928   5.859  0.5376  0.8877 -0.4674
  107OSM   H17S10916   1.399   1.962   5.883  0.6313  1.5057 -1.6947
  107OSM   H17T10917   1.233   1.988   5.928 -0.9038  0.5781 -1.4576
  107OSM   C18S10918   1.267   1.955   5.713  0.2604 -0.0796 -0.1261
  107OSM   H18S10919   1.349   1.918   5.649  1.1730  1.2167  0.2489
  107OSM   H18T10920   1.251   2.064   5.699 -0.5434  0.3630  3.2805
  107OSM   H18U10921   1.173   1.899   5.692  0.2000 -0.7590  1.7038
  107OSM    C1F10922   1.845   1.506   7.265  0.7963 -0.5484  0.7823
  107OSM     OF10923   1.933   1.424   7.292 -0.0418 -0.0202 -0.1415
  107OSM    C2F10924   1.871   1.648   7.231  0.2469 -0.1707 -0.1148
  107OSM    H2F10925   1.927   1.681   7.321 -1.1419  1.1634  0.3077
  107OSM    H2G10926   1.783   1.716   7.235 -0.7992 -1.2411 -2.8371
  107OSM    C3F10927   1.968   1.673   7.112 -0.1057 -0.4863  0.4438
  107OSM    H3F10928   2.041   1.590   7.103 -0.1917 -0.5477  0.2999
  107OSM    H3G10929   2.042   1.756   7.115  0.8064 -0.6602 -5.2669
  107OSM    C4F10930   1.894   1.670   6.973 -0.3502  0.0752  0.3321
  107OSM    H4F10931   1.823   1.756   6.970 -2.3129 -1.4664  0.4864
  107OSM    H4G10932   1.825   1.583   6.976  0.2345 -0.4740 -1.1323
  107OSM    C5F10933   1.986   1.660   6.853  0.1080 -0.6329 -1.1739
  107OSM    H5F10934   2.079   1.600   6.864  0.2404 -0.4877 -1.4713
  107OSM    H5G10935   2.037   1.759   6.848  1.3170 -1.0025  1.6927
  107OSM    C6F10936   1.905   1.608   6.731 -0.1677  0.2664 -0.2307
  107OSM    H6F10937   1.814   1.671   6.721 -1.8982 -2.4163 -2.7964
  107OSM    H6G10938   1.873   1.502   6.743 -2.6714  0.9360 -0.3709
  107OSM    C7F10939   1.984   1.626   6.595  0.3022  0.0219  0.4774
  107OSM    H7F10940   2.075   1.562   6.600  1.0211  0.7713 -1.6726
  107OSM    H7G10941   2.016   1.733   6.596  0.0487  0.1001  1.2305
  107OSM    C8F10942   1.890   1.598   6.473 -0.3937 -0.1712 -0.2762
  107OSM    H8F10943   1.867   1.491   6.489 -0.9680  0.4081  3.9099
  107OSM    H8G10944   1.969   1.614   6.397  0.3735  0.6760  0.6777
  107OSM    C9F10945   1.768   1.688   6.456  0.1415 -0.6281 -0.8872
  107OSM    H9F10946   1.715   1.727   6.544 -0.0466  1.3834 -1.8233
  107OSM   C10F10947   1.734   1.747   6.345 -0.5478  0.2794  1.1417
  107OSM   H10F10948   1.649   1.816   6.335 -0.6107 -0.1578 -3.3956
  107OSM   C11F10949   1.815   1.726   6.216  1.0440 -0.6181  0.3310
  107OSM   H11F10950   1.834   1.618   6.194 -1.9018 -1.0810 -0.2562
  107OSM   H11G10951   1.911   1.781   6.227 -0.6208  2.6782 -0.4289
  107OSM   C12F10952   1.732   1.789   6.097 -0.3652  0.1391  0.5091
  107OSM   H12F10953   1.707   1.897   6.109 -1.2939  0.3547 -2.5419
  107OSM   H12G10954   1.639   1.732   6.080 -1.1722  1.8798 -1.1805
  107OSM   C13F10955   1.803   1.784   5.963 -0.1217  0.1191  0.5604
  107OSM   H13F10956   1.831   1.679   5.939  0.3842  0.6834 -1.5270
  107OSM   H13G10957   1.898   1.841   5.962  0.4002 -0.7457  0.1031
  107OSM   C14F10958   1.708   1.823   5.845  0.6995 -0.0381 -0.1237
  107OSM   H14F10959   1.671   1.927   5.840  2.9924  0.8681  0.4727
  107OSM   H14G10960   1.618   1.759   5.834  0.4391  0.4158 -0.7289
  107OSM   C15F10961   1.778   1.814   5.709  0.1198  0.4800 -0.6972
  107OSM   H15F10962   1.816   1.711   5.693  1.0235  0.8982 -1.2901
  107OSM   H15G10963   1.862   1.886   5.696  0.6708  0.2449  1.3252
  107OSM   C16F10964   1.681   1.849   5.592 -0.2596  0.0939 -0.2526
  107OSM   H16F10965   1.651   1.956   5.594  0.4732  0.3248 -1.2134
  107OSM   H16G10966   1.591   1.783   5.601  0.4129 -0.9609 -1.0300
  107OSM   C17F10967   1.754   1.826   5.461  0.7944  0.7311  0.4753
  107OSM   H17F10968   1.699   1.872   5.377 -1.5549 -0.6125  1.1946
  107OSM   H17G10969   1.781   1.719   5.443  0.8197  0.8862 -0.4251
  107OSM   C18F10970   1.894   1.891   5.444  0.7911 -0.6175  0.4901
  107OSM   H18F10971   1.961   1.876   5.531  0.7223 -0.3585  0.5874
  107OSM   H18G10972   1.885   2.000   5.422  1.0021 -0.4035  1.4397
  107OSM   H18H10973   1.943   1.844   5.356 -0.4318 -1.8896  0.4435
  108OSM      N10974   4.294   2.434   7.836  0.1399  0.4635  0.0424
  108OSM    C1510975   4.205   2.551   7.842  0.7020 -0.2386  0.3636
  108OSM   H15A10976   4.144   2.556   7.931 -1.0440  0.1529 -0.7851
  108OSM   H15B10977   4.126   2.557   7.767 -0.8374  1.6239  2.0122
  108OSM   H15C10978   4.258   2.645   7.832 -0.0362  0.0927 -0.6127
  108OSM    C1410979   4.207   2.318   7.878 -0.2661 -0.1148  0.0659
  108OSM   H14A10980   4.148   2.349   7.963 -0.9185  1.7300 -1.0005
  108OSM   H14B10981   4.261   2.225   7.884  0.5246  0.3442  0.1507
  108OSM   H14C10982   4.139   2.319   7.794 -0.8113  3.3749  0.3855
  108OSM    C1310983   4.352   2.413   7.690  0.3039 -0.2686 -0.1310
  108OSM   H13A10984   4.265   2.412   7.626  0.1535 -0.8516  0.0758
  108OSM   H13B10985   4.393   2.313   7.697  0.9113  0.0497  1.0088
  108OSM   H13C10986   4.419   2.494   7.669  0.9475 -0.2838  1.6758
  108OSM    C1210987   4.404   2.446   7.937 -0.0378  0.0506 -0.6048
  108OSM   H12A10988   4.361   2.462   8.035  2.4882 -2.1406  0.9990
  108OSM   H12B10989   4.472   2.527   7.917 -0.1137  1.2807  3.1985
  108OSM    C1110990   4.492   2.319   7.960  0.1492  0.4169 -0.0872
  108OSM   H11A10991   4.424   2.237   7.991  0.8608 -0.8182 -1.7026
  108OSM   H11B10992   4.547   2.346   8.053  1.5219  1.0303 -1.0597
  108OSM      P10993   4.710   2.373   7.847  0.0340  0.3878 -0.2027
  108OSM    O1310994   4.672   2.517   7.858  0.0359  0.4228 -0.3994
  108OSM    O1410995   4.810   2.322   7.948 -0.2907 -0.1004  0.0651
  108OSM    O1110996   4.761   2.332   7.702  0.1134 -0.1825 -0.2794
  108OSM    O1210997   4.580   2.281   7.851  0.1734 -0.5582 -0.0076
  108OSM    C1S10998   4.671   2.329   7.589 -0.0219  0.3345 -0.1817
  108OSM    H1S10999   4.598   2.413   7.592 -1.4966 -0.8854 -0.4366
  108OSM    H1T11000   4.626   2.228   7.582  1.2545 -0.3584  1.1417
  108OSM     NF11001   4.670   2.342   7.338 -0.0240 -0.3720  0.6160
  108OSM    HNF11002   4.697   2.268   7.277  0.7021  0.1345  0.3070
  108OSM    C2S11003   4.749   2.350   7.459 -0.5004  0.0054  0.2467
  108OSM    H2S11004   4.779   2.457   7.468 -2.2054  0.4315  1.3458
  108OSM    C3S11005   4.882   2.266   7.450 -1.1856  0.2678  0.1911
  108OSM    H3S11006   4.847   2.160   7.445 -3.1855  0.9222 -0.7420
  108OSM     O311007   4.975   2.268   7.559 -0.1563  0.2170  0.1511
  108OSM    HO311008   4.926   2.314   7.628 -0.9326  0.7092 -0.7016
  108OSM    C4S11009   4.964   2.297   7.324  0.5010 -0.5066 -0.5715
  108OSM    H4S11010   4.985   2.403   7.304 -2.8919  0.7119  1.5094
  108OSM    C5S11011   5.020   2.204   7.241 -0.2619  0.4435  0.0249
  108OSM    H5S11012   5.004   2.101   7.276  1.9954  0.6487  1.9140
  108OSM    C6S11013   5.094   2.214   7.111  0.2376 -0.5905  0.5850
  108OSM    H6S11014   5.159   2.124   7.104 -0.2182 -0.8093 -1.1353
  108OSM    H6T11015   5.169   2.296   7.121 -3.5322  3.1096  1.8579
  108OSM    C7S11016   5.016   2.208   6.976  0.4482 -1.0589  0.3363
  108OSM    H7S11017   4.956   2.115   6.967  0.0881 -0.9334  1.2991
  108OSM    H7T11018   5.091   2.198   6.895  0.2118 -0.2949  0.0091
  108OSM    C8S11019   4.928   2.333   6.951 -0.1997  0.7580  0.6550
  108OSM    H8S11020   4.981   2.426   6.981  1.4510  0.3813 -0.9065
  108OSM    H8T11021   4.841   2.318   7.018  0.7055  0.9264  1.9107
  108OSM    C9S11022   4.883   2.351   6.806  0.3118  0.1754 -0.7992
  108OSM    H9S11023   4.786   2.300   6.788  0.9311 -0.6629 -1.9684
  108OSM    H9T11024   4.955   2.297   6.741 -0.3755 -1.0388 -0.5799
  108OSM   C10S11025   4.875   2.500   6.765  0.5725  0.0850  0.8495
  108OSM   H10S11026   4.973   2.553   6.760  1.0989 -0.9174  0.2012
  108OSM   H10T11027   4.824   2.546   6.852  1.7874 -1.0188  2.2132
  108OSM   C11S11028   4.808   2.533   6.634  0.2860 -0.2833  0.1493
  108OSM   H11S11029   4.780   2.640   6.645  1.1222 -0.3217  3.5543
  108OSM   H11T11030   4.720   2.473   6.601  0.9674  0.0262 -2.4597
  108OSM   C12S11031   4.923   2.531   6.532  0.1507 -0.2503  1.0346
  108OSM   H12S11032   4.971   2.431   6.536 -1.1214 -0.8471  2.6332
  108OSM   H12T11033   5.003   2.606   6.547  1.9479 -1.9504  0.2972
  108OSM   C13S11034   4.868   2.528   6.390 -0.0777  0.4242  0.7585
  108OSM   H13S11035   4.771   2.581   6.384 -0.2760 -0.0341 -0.2403
  108OSM   H13T11036   4.842   2.425   6.359  0.8698  0.5614 -0.5792
  108OSM   C14S11037   4.956   2.584   6.273 -0.2968  0.2438 -0.1378
  108OSM   H14S11038   5.045   2.518   6.267 -0.9261 -0.4741 -2.1060
  108OSM   H14T11039   4.985   2.685   6.309 -0.1419 -0.1732  0.9767
  108OSM   C15S11040   4.878   2.607   6.143 -0.2339  0.3729  0.9109
  108OSM   H15S11041   4.786   2.668   6.160 -1.5653 -1.3040  0.0345
  108OSM   H15T11042   4.852   2.506   6.105 -1.7723  0.6347  1.1841
  108OSM   C16S11043   4.968   2.684   6.040 -0.8118  0.1453 -0.1946
  108OSM   H16S11044   5.065   2.632   6.022 -1.1866  0.3948 -3.7065
  108OSM   H16T11045   4.997   2.784   6.079  0.6618  0.0726 -1.0063
  108OSM   C17S11046   4.905   2.704   5.899 -0.3009  0.1314  1.0691
  108OSM   H17S11047   4.905   2.604   5.851  0.3550  0.4040  0.4984
  108OSM   H17T11048   4.961   2.778   5.838 -2.9484  0.4423 -1.1812
  108OSM   C18S11049   4.761   2.755   5.904 -0.2983  0.6036 -0.2416
  108OSM   H18S11050   4.694   2.677   5.946 -1.4219  1.0065 -1.2159
  108OSM   H18T11051   4.712   2.778   5.807  0.7485 -1.0210 -1.1996
  108OSM   H18U11052   4.764   2.838   5.978  0.5434 -0.9686  1.5816
  108OSM    C1F11053   4.561   2.419   7.311 -0.0326 -0.2122 -0.5491
  108OSM     OF11054   4.527   2.514   7.380  0.1644  0.0975 -0.3003
  108OSM    C2F11055   4.472   2.379   7.197  0.8827  0.0324  0.2293
  108OSM    H2F11056   4.370   2.405   7.232  0.1944 -0.1048 -1.6016
  108OSM    H2G11057   4.484   2.269   7.187 -0.7880 -0.1176 -0.3193
  108OSM    C3F11058   4.515   2.437   7.055 -0.4105 -0.5678 -0.3829
  108OSM    H3F11059   4.622   2.411   7.038 -1.0200 -1.9538 -2.4726
  108OSM    H3G11060   4.504   2.547   7.066 -0.9365 -0.6537 -0.0096
  108OSM    C4F11061   4.427   2.382   6.943  0.2774  0.2389 -0.0836
  108OSM    H4F11062   4.330   2.435   6.948 -0.5347 -1.2595  0.7460
  108OSM    H4G11063   4.423   2.272   6.960 -1.7923  0.2502 -0.2671
  108OSM    C5F11064   4.484   2.409   6.798  0.1457 -0.2504  1.2735
  108OSM    H5F11065   4.595   2.399   6.805  0.1899 -0.7865  0.1039
  108OSM    H5G11066   4.454   2.511   6.768 -0.5938  0.5846  4.4828
  108OSM    C6F11067   4.417   2.314   6.695 -1.3698  0.3464  0.1634
  108OSM    H6F11068   4.309   2.312   6.721 -1.1859 -1.1571  0.8816
  108OSM    H6G11069   4.456   2.211   6.707 -1.9645  0.0810 -0.1915
  108OSM    C7F11070   4.426   2.359   6.549 -0.3814 -0.1872  0.0256
  108OSM    H7F11071   4.534   2.370   6.524 -1.1226 -0.4431 -3.9138
  108OSM    H7G11072   4.390   2.464   6.538  2.1126  0.6676 -0.6047
  108OSM    C8F11073   4.371   2.251   6.454  0.6321  0.0234  0.1229
  108OSM    H8F11074   4.353   2.300   6.357 -2.1778  1.7289  1.3869
  108OSM    H8G11075   4.276   2.213   6.496  0.5219  0.8016  0.6035
  108OSM    C9F11076   4.464   2.131   6.438  0.1725  0.4327 -0.7349
  108OSM    H9F11077   4.448   2.047   6.508 -1.4236  0.8649 -0.5482
  108OSM   C10F11078   4.576   2.126   6.366  0.3885 -0.5768 -0.8308
  108OSM   H10F11079   4.624   2.027   6.362 -1.5879 -1.5639 -1.4762
  108OSM   C11F11080   4.620   2.226   6.265  0.1815 -0.1797 -0.4946
  108OSM   H11F11081   4.728   2.239   6.286 -0.4847 -1.2199  5.5544
  108OSM   H11G11082   4.566   2.321   6.283 -0.7135 -0.8261  0.3312
  108OSM   C12F11083   4.567   2.191   6.124 -0.1310  0.7853  0.0089
  108OSM   H12F11084   4.458   2.167   6.133  0.3860 -2.8760 -1.5163
  108OSM   H12G11085   4.619   2.099   6.089 -0.3818  0.5683  0.1948
  108OSM   C13F11086   4.597   2.294   6.015  0.0671  0.4143  0.4931
  108OSM   H13F11087   4.704   2.323   6.002 -0.5582  2.3744 -0.6847
  108OSM   H13G11088   4.544   2.385   6.049  0.0250  0.4699  0.2761
  108OSM   C14F11089   4.537   2.247   5.878 -0.6786 -0.3288 -0.3609
  108OSM   H14F11090   4.438   2.201   5.900 -0.6192 -0.0510  0.5259
  108OSM   H14G11091   4.598   2.163   5.839 -0.1518  0.0955 -0.4664
  108OSM   C15F11092   4.523   2.352   5.767 -0.1908 -0.0444 -0.2968
  108OSM   H15F11093   4.449   2.423   5.808 -0.0927  0.3252 -0.7562
  108OSM   H15G11094   4.474   2.304   5.679  1.5217  0.9268 -1.8466
  108OSM   C16F11095   4.646   2.425   5.731  0.2983  0.4346  0.3065
  108OSM   H16F11096   4.725   2.362   5.684  0.0790  1.7262 -1.9305
  108OSM   H16G11097   4.683   2.460   5.830  0.9506 -1.3826  0.7518
  108OSM   C17F11098   4.628   2.547   5.643  0.2219 -0.0306  0.5579
  108OSM   H17F11099   4.717   2.613   5.640 -1.0330  1.6988 -0.1107
  108OSM   H17G11100   4.541   2.614   5.657  0.0231  0.1809 -1.4809
  108OSM   C18F11101   4.623   2.499   5.497  0.4438  0.3923 -0.6517
  108OSM   H18F11102   4.530   2.458   5.453  0.8450 -1.4318  0.1219
  108OSM   H18G11103   4.706   2.431   5.469 -0.4522 -0.9177 -0.2358
  108OSM   H18H11104   4.641   2.596   5.446  1.7523  1.1159  1.0840
  109OSM      N11105   1.774   5.338   7.739  0.0378 -0.5126  0.4141
  109OSM    C1511106   1.683   5.320   7.855  1.0056 -0.1939  0.2460
  109OSM   H15A11107   1.580   5.320   7.821  1.4667  1.4069 -1.2793
  109OSM   H15B11108   1.692   5.387   7.939 -2.1888 -1.0037  1.4103
  109OSM   H15C11109   1.698   5.217   7.884 -0.5582 -1.0527 -1.7244
  109OSM    C1411110   1.743   5.239   7.632 -0.0681 -0.0969  0.7917
  109OSM   H14A11111   1.748   5.143   7.682 -1.2080 -1.4602 -1.5643
  109OSM   H14B11112   1.817   5.246   7.554 -0.1994 -2.4919  0.3682
  109OSM   H14C11113   1.642   5.242   7.594  0.1522 -0.0016  0.2083
  109OSM    C1311114   1.742   5.472   7.686 -0.1881 -0.0536 -0.6799
  109OSM   H13A11115   1.805   5.494   7.602  1.8840 -0.1855  0.7644
  109OSM   H13B11116   1.772   5.542   7.762 -0.9988 -0.1405 -0.2640
  109OSM   H13C11117   1.637   5.490   7.666 -0.3457  1.0511  0.9372
  109OSM    C1211118   1.924   5.328   7.780  0.0319  0.3801 -0.0877
  109OSM   H12A11119   1.981   5.340   7.689 -4.4176  1.4156 -3.0536
  109OSM   H12B11120   1.945   5.234   7.829 -1.5335  0.3167  0.5220
  109OSM    C1111121   1.988   5.424   7.883 -0.1901 -0.3602  0.0333
  109OSM   H11A11122   2.089   5.383   7.901 -0.8663 -2.5996 -0.9916
  109OSM   H11B11123   1.932   5.425   7.979  1.5038 -2.3350  1.1143
  109OSM      P11124   2.122   5.604   7.739  0.4777 -0.3635 -0.1121
  109OSM    O1311125   2.098   5.735   7.673  0.1518 -0.1293 -0.4384
  109OSM    O1411126   2.242   5.581   7.817  0.2870 -0.5916  0.0905
  109OSM    O1111127   2.110   5.486   7.624  0.0192  0.2977 -1.0347
  109OSM    O1211128   2.001   5.563   7.826 -0.0253  0.7306  0.5525
  109OSM    C1S11129   2.214   5.486   7.526  0.9866  1.1596 -0.1386
  109OSM    H1S11130   2.283   5.400   7.542  1.9600  1.9618  0.0508
  109OSM    H1T11131   2.278   5.576   7.516  0.9457  1.0120 -2.0716
  109OSM     NF11132   2.288   5.466   7.293  0.8452 -0.4499  0.6107
  109OSM    HNF11133   2.296   5.541   7.228 -0.0724 -2.3088 -1.8041
  109OSM    C2S11134   2.167   5.470   7.380  0.4450 -0.1348 -0.9954
  109OSM    H2S11135   2.116   5.372   7.364  1.7249 -1.8538  3.6539
  109OSM    C3S11136   2.059   5.579   7.327  0.0212 -0.1154 -0.0778
  109OSM    H3S11137   2.108   5.678   7.342 -0.2337 -0.0940  0.6153
  109OSM     O311138   1.942   5.587   7.409  0.0789  0.0574 -0.0857
  109OSM    HO311139   1.977   5.564   7.495 -0.1632 -1.0252 -0.2706
  109OSM    C4S11140   2.018   5.559   7.186  0.6224 -0.7415  0.0150
  109OSM    H4S11141   2.051   5.637   7.117  0.3448 -1.4714 -0.9628
  109OSM    C5S11142   1.926   5.474   7.143  0.2511 -0.3191 -0.0120
  109OSM    H5S11143   1.882   5.405   7.217  1.4517  1.5877  2.6261
  109OSM    C6S11144   1.867   5.454   7.003 -0.0719 -1.4051 -0.1047
  109OSM    H6S11145   1.894   5.548   6.950 -0.9362 -1.4041 -0.5571
  109OSM    H6T11146   1.758   5.451   7.022 -0.1238 -0.8838 -0.2997
  109OSM    C7S11147   1.913   5.342   6.912  0.0052  0.4147 -0.2934
  109OSM    H7S11148   1.900   5.244   6.963 -2.9697  0.9459  0.1281
  109OSM    H7T11149   2.021   5.355   6.888  0.6104  0.7565  2.2504
  109OSM    C8S11150   1.825   5.340   6.780 -0.0690 -0.1854  0.2689
  109OSM    H8S11151   1.839   5.434   6.722  0.3564 -0.2723  0.2262
  109OSM    H8T11152   1.718   5.344   6.811 -0.1095  1.4133  0.0406
  109OSM    C9S11153   1.845   5.220   6.687 -0.4664  0.9354 -0.2278
  109OSM    H9S11154   1.821   5.137   6.757  3.3298  2.0441  2.6687
  109OSM    H9T11155   1.953   5.205   6.667  0.5811  3.3563  2.9442
  109OSM   C10S11156   1.765   5.214   6.564 -0.3354 -0.0833 -0.4469
  109OSM   H10S11157   1.676   5.280   6.556 -0.8430 -0.6003  0.6921
  109OSM   H10T11158   1.721   5.113   6.561 -1.8312  0.3933  2.0219
  109OSM   C11S11159   1.852   5.242   6.438  0.4619  0.2879  0.1985
  109OSM   H11S11160   1.942   5.179   6.450  0.2115  0.2067  1.8704
  109OSM   H11T11161   1.890   5.346   6.441 -0.1258  0.4839  1.4611
  109OSM   C12S11162   1.790   5.217   6.302  0.2778  0.4242 -0.2982
  109OSM   H12S11163   1.696   5.276   6.299  0.0118 -0.0247 -1.2741
  109OSM   H12T11164   1.756   5.112   6.316  1.6137  0.1868  1.5936
  109OSM   C13S11165   1.889   5.225   6.182 -0.4060  0.0093  0.1156
  109OSM   H13S11166   1.981   5.164   6.191  0.3661  1.1152 -0.0385
  109OSM   H13T11167   1.929   5.329   6.180 -2.2871  0.8279  1.5072
  109OSM   C14S11168   1.824   5.188   6.048 -0.5380 -0.1847 -0.1474
  109OSM   H14S11169   1.749   5.267   6.027 -0.1023  0.2279 -0.1786
  109OSM   H14T11170   1.766   5.094   6.050  1.8207 -1.7430 -0.2077
  109OSM   C15S11171   1.919   5.201   5.921 -1.0338 -0.0677  0.4031
  109OSM   H15S11172   1.887   5.147   5.829  1.2608 -0.2669 -0.3579
  109OSM   H15T11173   2.012   5.145   5.945 -1.4436 -1.0012 -0.0966
  109OSM   C16S11174   1.931   5.345   5.866  0.2431 -0.1669 -0.1593
  109OSM   H16S11175   1.967   5.414   5.945  0.6262 -2.3026  1.6213
  109OSM   H16T11176   1.826   5.373   5.842 -0.1414  0.2909  1.8919
  109OSM   C17S11177   2.021   5.357   5.746 -0.5064 -0.1131 -0.2394
  109OSM   H17S11178   1.979   5.297   5.662 -1.2927 -0.2745  0.2583
  109OSM   H17T11179   2.123   5.320   5.766 -0.5306  0.2143  0.5288
  109OSM   C18S11180   2.023   5.500   5.687  0.2429 -0.9678 -0.2081
  109OSM   H18S11181   2.092   5.521   5.603 -0.1562  1.8996  0.0641
  109OSM   H18T11182   2.050   5.564   5.774 -0.9669 -1.5244  0.6146
  109OSM   H18U11183   1.920   5.524   5.651  0.1071 -1.4784 -0.1709
  109OSM    C1F11184   2.373   5.362   7.300  0.5938  0.0981 -0.3341
  109OSM     OF11185   2.347   5.263   7.365 -0.2759 -0.0449 -0.2428
  109OSM    C2F11186   2.504   5.383   7.231 -0.2485  0.0128 -0.2887
  109OSM    H2F11187   2.583   5.390   7.308 -0.9330  1.4962  0.3279
  109OSM    H2G11188   2.497   5.476   7.171  0.7221  0.1660 -0.1658
  109OSM    C3F11189   2.525   5.267   7.132  0.6710  0.1858 -0.5722
  109OSM    H3F11190   2.446   5.264   7.053 -0.0931  3.2248 -0.0437
  109OSM    H3G11191   2.531   5.172   7.189  0.4573  0.8215  0.5394
  109OSM    C4F11192   2.664   5.257   7.070  0.4068  0.2510 -0.1768
  109OSM    H4F11193   2.664   5.160   7.015  1.6888  0.9093 -1.4031
  109OSM    H4G11194   2.730   5.253   7.159  0.6004  2.4682 -0.1812
  109OSM    C5F11195   2.684   5.367   6.969 -0.1452  0.3330  0.7082
  109OSM    H5F11196   2.665   5.468   7.011 -0.2081  2.6256 -4.1581
  109OSM    H5G11197   2.606   5.377   6.891 -0.3470 -2.2285  0.4773
  109OSM    C6F11198   2.820   5.363   6.899 -0.0889  0.1080 -0.3514
  109OSM    H6F11199   2.835   5.254   6.883 -1.8249 -0.5218  1.7310
  109OSM    H6G11200   2.904   5.401   6.960 -1.4750  0.0986  1.6762
  109OSM    C7F11201   2.823   5.432   6.761 -0.0509  0.0123 -0.3089
  109OSM    H7F11202   2.794   5.535   6.792 -0.1571 -0.0560 -0.1795
  109OSM    H7G11203   2.744   5.399   6.691  0.5195 -1.3187 -0.3493
  109OSM    C8F11204   2.963   5.432   6.691  1.1555  0.1747 -0.3696
  109OSM    H8F11205   3.036   5.472   6.765  0.4180 -3.2755  2.4860
  109OSM    H8G11206   2.966   5.509   6.611  0.2236  2.0430  1.2951
  109OSM    C9F11207   3.001   5.295   6.639  0.4943  0.3285 -1.1081
  109OSM    H9F11208   3.023   5.216   6.711 -1.8399  1.3221  0.8389
  109OSM   C10F11209   3.000   5.263   6.510  0.0172 -0.2320 -0.2870
  109OSM   H10F11210   3.022   5.158   6.485 -0.1468 -0.4422  0.4395
  109OSM   C11F11211   2.971   5.358   6.397 -0.3861 -0.1734  0.4559
  109OSM   H11F11212   2.985   5.468   6.406  3.2761 -0.3320 -1.4649
  109OSM   H11G11213   2.863   5.338   6.381 -0.1979 -0.4669 -0.5528
  109OSM   C12F11214   3.055   5.313   6.279  0.5169  0.4805 -0.7157
  109OSM   H12F11215   3.042   5.205   6.258  0.9335 -0.2820  2.4623
  109OSM   H12G11216   3.162   5.327   6.304 -0.1953  0.1447  3.1772
  109OSM   C13F11217   3.034   5.386   6.151  0.0547 -0.5930 -0.4278
  109OSM   H13F11218   3.068   5.490   6.172 -0.1616 -0.4839 -0.6128
  109OSM   H13G11219   2.924   5.391   6.133  0.0856  0.2231 -0.4528
  109OSM   C14F11220   3.109   5.334   6.029  0.0845  1.0804 -0.1140
  109OSM   H14F11221   3.202   5.293   6.076  0.4730  1.5428 -0.4774
  109OSM   H14G11222   3.137   5.416   5.960 -0.8569  1.5233  0.0149
  109OSM   C15F11223   3.040   5.227   5.938 -0.0589 -0.5484  0.2350
  109OSM   H15F11224   2.971   5.169   6.003 -0.9339 -0.3752 -0.5058
  109OSM   H15G11225   3.123   5.165   5.899 -0.0770 -1.5701  1.7402
  109OSM   C16F11226   2.951   5.285   5.825 -0.7813  0.2661 -0.2652
  109OSM   H16F11227   3.028   5.332   5.759 -0.2734 -0.7172 -0.3906
  109OSM   H16G11228   2.883   5.364   5.864  0.7073  0.9534  1.0873
  109OSM   C17F11229   2.881   5.175   5.747 -0.6807 -0.4776 -0.5890
  109OSM   H17F11230   2.824   5.222   5.664 -0.1707 -1.6478 -1.6500
  109OSM   H17G11231   2.814   5.125   5.820  0.2401 -1.6251 -0.4819
  109OSM   C18F11232   2.964   5.066   5.690  0.6248 -0.4983  0.1030
  109OSM   H18F11233   3.003   5.003   5.773  3.0648  0.4621 -0.2439
  109OSM   H18G11234   3.053   5.112   5.642 -0.7672  1.8092 -0.4183
  109OSM   H18H11235   2.905   5.005   5.619 -1.0172  1.0050  0.0938
  110OSM      N11236   4.810   1.961   7.895 -0.4504  0.7822 -0.4836
  110OSM    C1511237   4.796   1.810   7.925  0.1484 -0.0570 -0.4429
  110OSM   H15A11238   4.879   1.771   7.983 -1.3987  1.3382  2.9987
  110OSM   H15B11239   4.783   1.756   7.832  0.6198 -1.9709  0.5426
  110OSM   H15C11240   4.715   1.782   7.990  1.6644 -3.1597  0.3100
  110OSM    C1411241   4.858   2.029   8.021  0.4168  1.1122 -0.6209
  110OSM   H14A11242   4.875   2.136   8.012 -0.8120  1.6459  2.1335
  110OSM   H14B11243   4.947   1.983   8.061 -0.4410  1.4036  1.7984
  110OSM   H14C11244   4.780   2.022   8.096 -0.9121  1.6359 -1.9115
  110OSM    C1311245   4.919   1.965   7.796 -1.3134  0.0319 -0.5077
  110OSM   H13A11246   4.999   1.897   7.822 -2.0145 -1.2730 -1.5882
  110OSM   H13B11247   4.952   2.065   7.771  0.6417 -0.3592  0.2796
  110OSM   H13C11248   4.876   1.925   7.705 -0.4907 -1.3205 -0.3412
  110OSM    C1211249   4.689   2.018   7.845  0.0689  0.3257  0.5016
  110OSM   H12A11250   4.696   2.126   7.844  1.4474  0.2451  0.2012
  110OSM   H12B11251   4.607   1.990   7.911  0.1461 -1.9933 -0.3012
  110OSM    C1111252   4.645   1.961   7.710  0.3826 -0.5592  0.3712
  110OSM   H11A11253   4.697   2.020   7.630 -0.9796 -0.0524 -0.1749
  110OSM   H11B11254   4.548   2.004   7.678  1.0341 -0.8208 -2.2766
  110OSM      P11255   4.534   1.725   7.693  0.3636 -0.5335  0.2014
  110OSM    O1311256   4.582   1.589   7.681 -0.0815 -0.5514  0.3395
  110OSM    O1411257   4.449   1.741   7.816  0.2733  0.2694  0.3087
  110OSM    O1111258   4.450   1.768   7.556  0.1279 -0.2454 -0.4172
  110OSM    O1211259   4.649   1.822   7.683  0.1170 -0.4910  0.0560
  110OSM    C1S11260   4.502   1.723   7.435 -0.2422 -0.3968  0.3952
  110OSM    H1S11261   4.486   1.614   7.421  0.9649 -0.4696 -0.5515
  110OSM    H1T11262   4.610   1.740   7.419  0.0093 -0.7729  1.5956
  110OSM     NF11263   4.480   1.715   7.191 -0.2565  0.3035 -0.2132
  110OSM    HNF11264   4.554   1.765   7.146  1.2020 -1.4493  0.1106
  110OSM    C2S11265   4.425   1.783   7.308  0.2076  0.4028 -0.2746
  110OSM    H2S11266   4.319   1.753   7.321  0.5298 -0.6851 -0.1095
  110OSM    C3S11267   4.431   1.944   7.315 -0.1057  0.1715  1.0080
  110OSM    H3S11268   4.537   1.978   7.319 -0.6452  1.8894  1.5095
  110OSM     O311269   4.375   1.997   7.433  0.7844 -0.6547 -0.3946
  110OSM    HO311270   4.378   1.920   7.489 -1.4289 -0.3784  0.1860
  110OSM    C4S11271   4.354   1.982   7.186  0.4360  0.0843  0.0945
  110OSM    H4S11272   4.418   2.017   7.104  0.4291  0.3614  0.2057
  110OSM    C5S11273   4.221   1.997   7.181  0.0270 -0.0832  0.0544
  110OSM    H5S11274   4.162   1.960   7.266  0.9464 -2.0391 -0.0985
  110OSM    C6S11275   4.147   2.048   7.063  0.3139 -0.6814 -0.0041
  110OSM    H6S11276   4.132   2.158   7.067 -0.8926 -0.8292 -0.2351
  110OSM    H6T11277   4.046   2.001   7.069 -0.5680  1.1105 -0.2651
  110OSM    C7S11278   4.206   2.019   6.923 -0.0930  0.3660  0.5636
  110OSM    H7S11279   4.228   1.910   6.925  1.1233  0.5527 -0.9475
  110OSM    H7T11280   4.299   2.077   6.904 -0.2335  1.3397  2.5604
  110OSM    C8S11281   4.096   2.050   6.814 -0.4186  0.4022  0.0407
  110OSM    H8S11282   4.074   2.158   6.810 -2.1569  0.0373 -1.8877
  110OSM    H8T11283   4.001   1.998   6.837 -0.0448  0.0350  0.8364
  110OSM    C9S11284   4.137   1.994   6.677  0.0413  0.0261  0.4695
  110OSM    H9S11285   4.162   1.886   6.685  0.0925  0.1621  2.8454
  110OSM    H9T11286   4.225   2.043   6.631 -0.7041 -1.0894 -2.3751
  110OSM   C10S11287   4.027   2.008   6.567  0.3269  0.4842  0.0780
  110OSM   H10S11288   4.010   2.115   6.546  0.9389  0.4213 -0.8043
  110OSM   H10T11289   3.932   1.962   6.602  1.4838 -1.4035  0.8912
  110OSM   C11S11290   4.075   1.942   6.437  0.2508  0.0367  0.1101
  110OSM   H11S11291   4.134   1.853   6.468  0.0305 -0.7339 -1.5780
  110OSM   H11T11292   4.142   2.010   6.381 -1.1384  0.3341 -1.2664
  110OSM   C12S11293   3.961   1.898   6.345 -0.2994 -0.7561 -0.3276
  110OSM   H12S11294   3.896   1.983   6.315  0.1463 -0.1315  0.4237
  110OSM   H12T11295   3.896   1.826   6.400 -0.6787 -0.9176 -0.9728
  110OSM   C13S11296   4.012   1.830   6.216  0.0997  0.1524 -0.3756
  110OSM   H13S11297   4.089   1.756   6.250 -3.1807 -2.3976  2.2421
  110OSM   H13T11298   4.056   1.913   6.158  0.9844 -0.4342 -0.5623
  110OSM   C14S11299   3.907   1.751   6.128  0.1855  0.0539  0.0511
  110OSM   H14S11300   3.824   1.823   6.113 -0.6010 -0.9283 -0.4784
  110OSM   H14T11301   3.870   1.670   6.195 -1.6579  2.3415  1.9492
  110OSM   C15S11302   3.958   1.688   6.001  0.0123 -0.1548 -0.1526
  110OSM   H15S11303   3.891   1.610   5.959 -1.7273  1.9710 -1.5577
  110OSM   H15T11304   4.059   1.646   6.019  1.2857  1.7378 -2.3059
  110OSM   C16S11305   3.981   1.801   5.901 -0.0083  0.1093 -0.0210
  110OSM   H16S11306   4.065   1.856   5.947  2.0442 -2.3841 -0.5229
  110OSM   H16T11307   3.895   1.872   5.895 -0.3750 -0.4038 -4.1158
  110OSM   C17S11308   4.015   1.758   5.758 -0.8466  0.1908  0.0801
  110OSM   H17S11309   3.942   1.695   5.701 -1.1090  0.1980  0.4077
  110OSM   H17T11310   4.109   1.699   5.762 -1.0902 -0.3052 -0.9862
  110OSM   C18S11311   4.043   1.881   5.671  0.4847 -0.1200 -0.2842
  110OSM   H18S11312   4.062   1.864   5.563 -1.8524  0.9650 -0.9277
  110OSM   H18T11313   4.139   1.921   5.710  1.5552 -2.2087 -0.6221
  110OSM   H18U11314   3.964   1.959   5.671  0.3699 -0.1759  1.9603
  110OSM    C1F11315   4.446   1.590   7.156 -0.4622  0.5563  0.0912
  110OSM     OF11316   4.363   1.524   7.217 -0.0769  0.5258 -0.5168
  110OSM    C2F11317   4.528   1.533   7.037  0.0413 -0.4588 -0.0902
  110OSM    H2F11318   4.575   1.436   7.064  0.9132 -0.0593 -0.1559
  110OSM    H2G11319   4.605   1.611   7.016 -0.9681  1.9002  3.8535
  110OSM    C3F11320   4.447   1.515   6.902 -0.7446  0.1559 -0.3721
  110OSM    H3F11321   4.376   1.433   6.927 -0.9002  0.6415  0.7995
  110OSM    H3G11322   4.515   1.477   6.822 -0.0049 -1.0973  0.8053
  110OSM    C4F11323   4.357   1.634   6.852 -0.0613  0.1655 -0.0376
  110OSM    H4F11324   4.424   1.716   6.817  0.2610  0.7387  1.7949
  110OSM    H4G11325   4.309   1.659   6.949  1.5224  0.2222  0.7800
  110OSM    C5F11326   4.252   1.607   6.750  0.0653  0.0879 -0.2179
  110OSM    H5F11327   4.293   1.590   6.649 -0.6973 -3.1632 -0.0821
  110OSM    H5G11328   4.187   1.698   6.750  0.3684  0.3261  1.2198
  110OSM    C6F11329   4.154   1.492   6.797 -0.0109  0.4648 -0.4994
  110OSM    H6F11330   4.131   1.512   6.904  1.3549  1.6816 -0.3949
  110OSM    H6G11331   4.192   1.389   6.784 -0.5226  0.1339  0.5199
  110OSM    C7F11332   4.023   1.492   6.716 -0.1651  0.2855 -0.1869
  110OSM    H7F11333   3.953   1.569   6.756  1.5935  1.7746  0.1457
  110OSM    H7G11334   3.971   1.394   6.721 -1.3816  0.8632 -1.0213
  110OSM    C8F11335   4.038   1.518   6.567 -0.4820 -0.1543 -0.5481
  110OSM    H8F11336   4.119   1.460   6.517 -0.6899 -0.5375 -0.4510
  110OSM    H8G11337   4.060   1.626   6.564  2.1783 -0.5253  1.6612
  110OSM    C9F11338   3.909   1.514   6.495  0.2372  0.1785 -0.0695
  110OSM    H9F11339   3.849   1.604   6.511  0.0770  0.3386 -1.4384
  110OSM   C10F11340   3.873   1.430   6.395  0.2753  0.3068  0.2066
  110OSM   H10F11341   3.783   1.456   6.337 -0.9255 -1.3953  1.2066
  110OSM   C11F11342   3.957   1.317   6.348  0.6578  0.2582 -0.6122
  110OSM   H11F11343   3.893   1.232   6.318 -1.8997  2.1630 -0.9094
  110OSM   H11G11344   4.031   1.282   6.423  0.4229 -0.1833 -0.5846
  110OSM   C12F11345   4.036   1.361   6.221  0.5207  0.7546  0.5177
  110OSM   H12F11346   4.093   1.453   6.247  2.3947 -0.2810  0.3168
  110OSM   H12G11347   3.973   1.377   6.131 -1.5096 -2.0416  1.3220
  110OSM   C13F11348   4.142   1.257   6.172 -0.8327  0.6453 -0.2171
  110OSM   H13F11349   4.080   1.169   6.143  0.7297 -0.6142  0.1097
  110OSM   H13G11350   4.204   1.221   6.257  0.4734 -0.3580 -1.5433
  110OSM   C14F11351   4.227   1.308   6.052 -0.1424 -0.0587 -0.0840
  110OSM   H14F11352   4.302   1.229   6.033  0.0854 -0.0602  0.7879
  110OSM   H14G11353   4.269   1.408   6.078 -0.6891  1.7684 -5.0718
  110OSM   C15F11354   4.131   1.326   5.929 -0.1141  0.2085  0.1698
  110OSM   H15F11355   4.051   1.401   5.939 -1.6660 -1.3010 -0.4755
  110OSM   H15G11356   4.076   1.233   5.904  0.5453 -0.4282  1.0135
  110OSM   C16F11357   4.208   1.385   5.805  0.3665  0.5910 -0.7515
  110OSM   H16F11358   4.308   1.337   5.804  0.3864  0.6107  0.1942
  110OSM   H16G11359   4.231   1.491   5.828  0.2870  0.7884 -1.5542
  110OSM   C17F11360   4.132   1.389   5.669  0.2227  0.1175  0.8255
  110OSM   H17F11361   4.182   1.453   5.594 -0.1185  0.7834  1.1596
  110OSM   H17G11362   4.036   1.444   5.684  0.2485  0.7204 -0.9296
  110OSM   C18F11363   4.092   1.251   5.615  0.3065  0.2062 -0.8767
  110OSM   H18F11364   4.049   1.246   5.512 -1.7367  1.3869 -0.1491
  110OSM   H18G11365   4.020   1.205   5.686  0.1332 -1.1616 -1.8800
  110OSM   H18H11366   4.182   1.186   5.618  1.0976  1.3445  0.9538
  111OSM      N11367   0.499   5.895   7.975 -0.0224 -0.5564  0.2043
  111OSM    C1511368   0.485   6.034   8.030 -0.1570 -0.3867  0.3789
  111OSM   H15A11369   0.544   6.109   7.979  1.4618 -0.6128  1.8349
  111OSM   H15B11370   0.506   6.039   8.135 -1.4191 -4.0315  0.9494
  111OSM   H15C11371   0.381   6.063   8.017 -0.2381 -0.8741 -0.1258
  111OSM    C1411372   0.647   5.867   8.000  0.9778  0.4172  0.2325
  111OSM   H14A11373   0.677   5.860   8.103  0.5276 -1.3541  0.2692
  111OSM   H14B11374   0.702   5.943   7.946 -0.3926  0.9978 -0.3832
  111OSM   H14C11375   0.678   5.772   7.960  3.1617 -0.2630  3.2046
  111OSM    C1311376   0.414   5.806   8.058  0.0762  0.0661  0.0720
  111OSM   H13A11377   0.310   5.829   8.038  0.1358 -0.0350 -0.3781
  111OSM   H13B11378   0.434   5.806   8.164 -1.4817 -1.1571  0.4047
  111OSM   H13C11379   0.424   5.702   8.030 -3.2927 -0.7692  1.4440
  111OSM    C1211380   0.460   5.892   7.828  0.3229  0.4782  0.5743
  111OSM   H12A11381   0.354   5.902   7.810  0.6138 -0.4862 -2.1609
  111OSM   H12B11382   0.478   5.794   7.786 -0.1082  0.8464 -0.4921
  111OSM    C1111383   0.530   6.002   7.736  0.1085  0.0897  0.3181
  111OSM   H11A11384   0.492   6.099   7.774 -1.1348 -1.0714  2.1969
  111OSM   H11B11385   0.485   5.985   7.635  2.4563 -0.8233 -0.6474
  111OSM      P11386   0.760   6.069   7.624  0.2423  0.4898  0.3993
  111OSM    O1311387   0.826   6.155   7.719 -0.6414 -0.6792  0.5105
  111OSM    O1411388   0.835   5.977   7.537 -0.7388 -0.2577 -0.4223
  111OSM    O1111389   0.664   6.158   7.538 -0.1359 -0.1157  0.1285
  111OSM    O1211390   0.667   5.981   7.720  0.4120 -0.2119  0.2699
  111OSM    C1S11391   0.707   6.227   7.421  0.1003  0.1003  0.0341
  111OSM    H1S11392   0.810   6.203   7.385  0.6908  0.3643  1.4976
  111OSM    H1T11393   0.713   6.337   7.431 -1.2448  0.2274 -0.3737
  111OSM     NF11394   0.664   6.240   7.179 -0.5298 -0.3761  0.1298
  111OSM    HNF11395   0.658   6.329   7.132  1.6913 -0.7272 -0.9689
  111OSM    C2S11396   0.600   6.215   7.307 -0.5403 -0.1051  0.1423
  111OSM    H2S11397   0.566   6.110   7.300  3.2294 -1.5751  1.4856
  111OSM    C3S11398   0.476   6.302   7.347  0.3687  0.6448 -0.1557
  111OSM    H3S11399   0.493   6.411   7.331 -0.0618  0.6443 -0.6709
  111OSM     O311400   0.427   6.294   7.487 -0.4137 -0.7916 -0.0439
  111OSM    HO311401   0.500   6.241   7.521 -0.2673 -0.7392 -0.2758
  111OSM    C4S11402   0.365   6.269   7.252  0.6903  0.4529 -0.5861
  111OSM    H4S11403   0.372   6.332   7.162 -1.2119 -0.4506 -1.4097
  111OSM    C5S11404   0.261   6.183   7.260 -0.1418 -0.2855 -0.4581
  111OSM    H5S11405   0.256   6.106   7.339  1.7640 -0.5630 -0.5581
  111OSM    C6S11406   0.158   6.160   7.155  0.4682 -0.1083  0.2321
  111OSM    H6S11407   0.061   6.209   7.180  0.0079 -0.1792 -1.3080
  111OSM    H6T11408   0.134   6.052   7.151  1.9969 -0.6657  3.1938
  111OSM    C7S11409   0.194   6.219   7.012  0.9177  0.1706  0.2018
  111OSM    H7S11410   0.207   6.329   7.015 -2.0389  0.5795  0.9007
  111OSM    H7T11411   0.106   6.210   6.944  0.6975 -0.9542  0.6036
  111OSM    C8S11412   0.318   6.150   6.951 -0.0012 -0.8116 -0.2742
  111OSM    H8S11413   0.322   6.047   6.992 -0.5947 -0.8567 -0.3138
  111OSM    H8T11414   0.411   6.195   6.991 -0.1594  0.0996 -0.9055
  111OSM    C9S11415   0.315   6.152   6.797  0.4921 -0.5291 -0.6626
  111OSM    H9S11416   0.216   6.128   6.754  0.0333  0.7487 -0.3730
  111OSM    H9T11417   0.388   6.079   6.758 -0.0261 -1.2911 -0.2237
  111OSM   C10S11418   0.353   6.290   6.743 -0.0326 -0.1491  0.5823
  111OSM   H10S11419   0.451   6.324   6.784  0.6928 -0.3629 -0.9125
  111OSM   H10T11420   0.268   6.353   6.776  0.3199  0.4899  0.2946
  111OSM   C11S11421   0.343   6.302   6.590 -0.2018  0.3001  0.4077
  111OSM   H11S11422   0.235   6.293   6.567 -0.5314 -0.7960  2.2121
  111OSM   H11T11423   0.410   6.224   6.549  0.0446 -0.0221  1.3893
  111OSM   C12S11424   0.385   6.441   6.538  0.1394  0.3953  0.1822
  111OSM   H12S11425   0.492   6.470   6.552 -0.0629  0.9218  0.6748
  111OSM   H12T11426   0.324   6.519   6.588  0.7263 -0.1110  1.7695
  111OSM   C13S11427   0.350   6.452   6.389 -0.0698  0.1128  0.0674
  111OSM   H13S11428   0.368   6.553   6.345 -0.3132 -0.7658 -2.2040
  111OSM   H13T11429   0.240   6.441   6.382 -0.2213 -1.9867  3.4638
  111OSM   C14S11430   0.399   6.335   6.305 -0.1685  0.1808 -0.6420
  111OSM   H14S11431   0.345   6.246   6.344  0.1082  0.8346  1.3428
  111OSM   H14T11432   0.502   6.298   6.324 -0.4040  0.2945  0.9476
  111OSM   C15S11433   0.380   6.353   6.153  0.1854  0.2509 -0.6554
  111OSM   H15S11434   0.442   6.441   6.126  1.2283  0.4832  2.1594
  111OSM   H15T11435   0.283   6.407   6.140  0.9673  2.3016  1.3518
  111OSM   C16S11436   0.409   6.221   6.076 -0.2839 -0.1155  0.4274
  111OSM   H16S11437   0.326   6.152   6.102 -1.7563  0.1396 -2.9557
  111OSM   H16T11438   0.514   6.189   6.088 -0.0550  1.0131  1.5782
  111OSM   C17S11439   0.383   6.251   5.926 -0.1092  0.3668 -0.5983
  111OSM   H17S11440   0.463   6.320   5.894  0.4282  0.4326  0.8256
  111OSM   H17T11441   0.284   6.299   5.906 -1.3241 -1.9964 -0.6077
  111OSM   C18S11442   0.386   6.121   5.851 -0.0515 -0.1511 -0.1442
  111OSM   H18S11443   0.292   6.065   5.873 -0.6323  0.8320 -0.0426
  111OSM   H18T11444   0.468   6.052   5.881 -0.7503 -0.9566 -0.0258
  111OSM   H18U11445   0.384   6.143   5.742 -0.3810  0.2443 -0.0609
  111OSM    C1F11446   0.746   6.151   7.117  1.1237  0.4177  0.2502
  111OSM     OF11447   0.781   6.051   7.173 -0.1251  0.1568  0.1592
  111OSM    C2F11448   0.779   6.184   6.974 -0.5293  0.8085  0.2220
  111OSM    H2F11449   0.888   6.174   6.956 -0.9804 -1.2946 -1.8998
  111OSM    H2G11450   0.746   6.287   6.946 -0.1710  0.5257 -1.3472
  111OSM    C3F11451   0.711   6.085   6.871 -1.0630  0.0588 -0.3962
  111OSM    H3F11452   0.610   6.129   6.854 -1.0222  0.9164  1.3988
  111OSM    H3G11453   0.713   5.979   6.902  1.4707 -0.3143 -1.5885
  111OSM    C4F11454   0.777   6.099   6.732 -0.2129  0.9622  0.2202
  111OSM    H4F11455   0.742   6.020   6.662 -0.0598  1.3116 -0.2607
  111OSM    H4G11456   0.887   6.083   6.737 -0.1016  0.8760 -1.7713
  111OSM    C5F11457   0.752   6.226   6.648 -0.6252 -0.2431 -0.3962
  111OSM    H5F11458   0.804   6.312   6.694 -2.0970  1.3896 -1.6006
  111OSM    H5G11459   0.645   6.255   6.659 -0.4952 -0.3580  1.4789
  111OSM    C6F11460   0.816   6.206   6.511  0.2827  0.5034 -0.0192
  111OSM    H6F11461   0.746   6.154   6.442 -0.4272  0.2333  0.8899
  111OSM    H6G11462   0.909   6.145   6.512 -0.2146 -0.4936 -3.4091
  111OSM    C7F11463   0.867   6.334   6.442  0.3821  0.4508  0.0011
  111OSM    H7F11464   0.922   6.398   6.515  0.6551 -0.0484  0.2371
  111OSM    H7G11465   0.777   6.391   6.412  0.2587  0.1121 -0.2839
  111OSM    C8F11466   0.959   6.320   6.323 -0.1102  0.8802 -0.1263
  111OSM    H8F11467   1.049   6.270   6.367 -0.7572  0.2948  0.5831
  111OSM    H8G11468   1.001   6.416   6.287  0.6649  0.5241 -0.2091
  111OSM    C9F11469   0.897   6.225   6.228  0.9830 -0.0262  0.3613
  111OSM    H9F11470   0.930   6.120   6.235  0.6438 -0.1266  0.4792
  111OSM   C10F11471   0.811   6.266   6.131 -0.4126  0.3026  0.2477
  111OSM   H10F11472   0.775   6.191   6.059 -0.9493  0.1267  0.6924
  111OSM   C11F11473   0.780   6.413   6.101 -0.0998 -0.1035 -0.3880
  111OSM   H11F11474   0.820   6.483   6.178  1.6524  1.0384 -2.2524
  111OSM   H11G11475   0.669   6.413   6.099 -0.1809 -1.6739  1.0500
  111OSM   C12F11476   0.846   6.450   5.960  0.1598  0.6287  0.1376
  111OSM   H12F11477   0.951   6.414   5.968  0.4687  1.0369 -1.6479
  111OSM   H12G11478   0.838   6.561   5.955  1.6065  0.8112  1.3897
  111OSM   C13F11479   0.783   6.393   5.831 -0.5758 -0.4324 -0.7712
  111OSM   H13F11480   0.689   6.450   5.819 -0.7190 -0.1583  1.2659
  111OSM   H13G11481   0.755   6.285   5.831 -2.5033  0.0307 -0.5604
  111OSM   C14F11482   0.877   6.427   5.713  0.0516 -0.0180 -0.1534
  111OSM   H14F11483   0.975   6.376   5.726  0.0422  0.1517  0.6033
  111OSM   H14G11484   0.898   6.536   5.708  0.3936  0.0940  2.5424
  111OSM   C15F11485   0.817   6.374   5.578 -0.0736  0.7557  0.9046
  111OSM   H15F11486   0.712   6.408   5.567  0.1186  0.8824 -0.7813
  111OSM   H15G11487   0.822   6.263   5.571  0.2848  0.8727 -1.0621
  111OSM   C16F11488   0.904   6.423   5.458  0.1077 -0.7626  0.5441
  111OSM   H16F11489   0.915   6.533   5.473  0.0156 -0.7585  0.5877
  111OSM   H16G11490   0.844   6.418   5.364  1.6421  1.8175 -0.6962
  111OSM   C17F11491   1.040   6.360   5.447  0.1102 -0.4473  0.5067
  111OSM   H17F11492   1.027   6.251   5.465 -0.6225 -0.9549 -2.5563
  111OSM   H17G11493   1.105   6.393   5.531 -0.5349 -1.9835  1.6626
  111OSM   C18F11494   1.111   6.371   5.307 -0.5444 -0.2278 -0.1389
  111OSM   H18F11495   1.102   6.473   5.264 -1.1314 -0.5065 -0.6936
  111OSM   H18G11496   1.069   6.303   5.230 -0.5176 -0.9374  0.4660
  111OSM   H18H11497   1.211   6.329   5.331 -0.7827 -1.0803 -0.6072
  112OSM      N11498   3.207   2.660   7.595  0.3249  0.1830  0.9448
  112OSM    C1511499   3.284   2.533   7.616 -0.7670 -0.0792  0.7242
  112OSM   H15A11500   3.262   2.462   7.537  0.4883  2.1758 -1.8370
  112OSM   H15B11501   3.261   2.499   7.716  2.6330 -2.1748  0.9662
  112OSM   H15C11502   3.388   2.551   7.592 -1.3188  1.3403 -0.7798
  112OSM    C1411503   3.246   2.711   7.462 -0.1325  0.5875 -0.0468
  112OSM   H14A11504   3.349   2.743   7.460  0.5335 -1.4522 -1.0070
  112OSM   H14B11505   3.190   2.797   7.427  0.8950  0.6291 -1.6965
  112OSM   H14C11506   3.239   2.636   7.385 -1.2965  0.0089  0.5993
  112OSM    C1311507   3.060   2.623   7.592  0.1361  0.2372  0.4209
  112OSM   H13A11508   3.038   2.574   7.498  1.5713  1.0285 -0.3595
  112OSM   H13B11509   3.004   2.716   7.593  1.5921  1.1412  1.6853
  112OSM   H13C11510   3.025   2.574   7.682  0.0524  2.1510  1.4825
  112OSM    C1211511   3.233   2.764   7.700  0.3549 -0.5747 -0.2732
  112OSM   H12A11512   3.339   2.779   7.713  0.3885 -1.5955  0.8534
  112OSM   H12B11513   3.203   2.718   7.794  1.1861  0.1011  0.3385
  112OSM    C1111514   3.155   2.898   7.702 -1.0401 -0.1186  0.8845
  112OSM   H11A11515   3.165   2.934   7.597  0.2445 -0.2923  0.9351
  112OSM   H11B11516   3.202   2.963   7.779 -0.9796  0.3901  0.4242
  112OSM      P11517   2.923   2.995   7.732 -0.0959 -0.5082  0.2595
  112OSM    O1311518   2.807   2.972   7.816  0.0164  0.0387 -0.4712
  112OSM    O1411519   2.999   3.115   7.766 -0.0978  0.2590 -0.4485
  112OSM    O1111520   2.883   2.987   7.583  0.5805 -0.3780 -0.8117
  112OSM    O1211521   3.019   2.875   7.748 -0.2216  0.0800  0.2644
  112OSM    C1S11522   2.774   2.918   7.536 -0.2259  0.5968  0.4118
  112OSM    H1S11523   2.679   2.969   7.563 -1.2850 -1.8420  1.6598
  112OSM    H1T11524   2.766   2.813   7.572 -1.2583  0.4280 -0.2587
  112OSM     NF11525   2.652   2.822   7.344  0.4988 -0.1072 -0.4388
  112OSM    HNF11526   2.659   2.724   7.330 -0.2454 -0.4035  1.0497
  112OSM    C2S11527   2.773   2.895   7.381  0.6218 -0.1162 -0.6903
  112OSM    H2S11528   2.761   2.996   7.336  1.9462  0.2518 -0.2767
  112OSM    C3S11529   2.909   2.838   7.321  0.2502 -0.0722  0.3083
  112OSM    H3S11530   2.931   2.743   7.374 -0.8857  0.9476  2.7218
  112OSM     O311531   3.028   2.909   7.347  0.1466 -0.6404 -0.1211
  112OSM    HO311532   3.007   2.962   7.424 -0.3753 -0.9323 -0.0590
  112OSM    C4S11533   2.895   2.810   7.169  0.1763 -0.2200  0.4784
  112OSM    H4S11534   2.848   2.716   7.134 -2.4952  1.5216 -1.0206
  112OSM    C5S11535   2.949   2.880   7.069 -0.5767 -0.3287 -0.0697
  112OSM    H5S11536   3.016   2.964   7.090  1.1852 -1.7137  0.0793
  112OSM    C6S11537   2.949   2.845   6.922  0.0695  0.0554 -0.2846
  112OSM    H6S11538   3.052   2.849   6.879  1.4410  1.0680  2.7888
  112OSM    H6T11539   2.891   2.924   6.870 -1.9865  0.1066  1.9333
  112OSM    C7S11540   2.885   2.715   6.870 -0.7597  0.3105  0.3934
  112OSM    H7S11541   2.778   2.713   6.900 -1.1187 -0.0970 -0.8725
  112OSM    H7T11542   2.934   2.622   6.907  0.4593  0.7496 -0.0640
  112OSM    C8S11543   2.894   2.699   6.720 -0.0968  0.4328  0.4259
  112OSM    H8S11544   2.993   2.684   6.673 -0.4629  2.2097 -1.0156
  112OSM    H8T11545   2.858   2.793   6.673 -0.5294 -0.3136 -0.7558
  112OSM    C9S11546   2.804   2.587   6.666 -0.7173 -0.2991 -0.2715
  112OSM    H9S11547   2.710   2.587   6.726 -1.4564 -1.2461 -1.3753
  112OSM    H9T11548   2.855   2.492   6.691  1.3783  0.6876 -0.5530
  112OSM   C10S11549   2.777   2.587   6.516 -0.5943 -0.3606  1.2623
  112OSM   H10S11550   2.733   2.686   6.490  1.3610  0.7575  2.0057
  112OSM   H10T11551   2.698   2.512   6.494 -0.8831  0.2746  0.0185
  112OSM   C11S11552   2.895   2.554   6.424  0.2171  0.1790  0.6745
  112OSM   H11S11553   2.933   2.453   6.452 -0.8145 -1.3306 -2.8425
  112OSM   H11T11554   2.987   2.617   6.426 -0.0090  0.7227 -2.1628
  112OSM   C12S11555   2.856   2.542   6.273  0.9313 -0.2874 -0.4034
  112OSM   H12S11556   2.817   2.640   6.239 -0.1850  0.5115  2.8236
  112OSM   H12T11557   2.776   2.466   6.270  0.8419 -0.1780 -0.9283
  112OSM   C13S11558   2.969   2.493   6.182 -0.1337 -0.1009  0.4951
  112OSM   H13S11559   3.012   2.400   6.225 -0.0970 -0.3343 -0.0423
  112OSM   H13T11560   3.049   2.568   6.200  0.9359 -0.0909 -3.3772
  112OSM   C14S11561   2.922   2.482   6.039 -0.4735  0.7061  0.0777
  112OSM   H14S11562   2.869   2.576   6.011 -1.8691  0.1768  0.8261
  112OSM   H14T11563   2.842   2.407   6.019  0.3255  0.2938 -1.7839
  112OSM   C15S11564   3.034   2.445   5.947 -0.3679  0.2915 -0.0108
  112OSM   H15S11565   3.089   2.358   5.989 -0.5722  0.6689  1.0689
  112OSM   H15T11566   3.104   2.528   5.925 -1.2463  1.0743  0.1049
  112OSM   C16S11567   2.984   2.400   5.802  0.5224 -0.6679 -0.4572
  112OSM   H16S11568   2.926   2.481   5.752  1.0837  0.3253  0.4800
  112OSM   H16T11569   2.911   2.318   5.818  0.1021 -0.5216 -1.5399
  112OSM   C17S11570   3.099   2.342   5.724 -0.0542 -1.1357  0.0781
  112OSM   H17S11571   3.062   2.283   5.637 -2.0958 -0.9890  0.8026
  112OSM   H17T11572   3.149   2.271   5.793 -2.3060 -1.3824  1.5591
  112OSM   C18S11573   3.206   2.455   5.676  0.6053 -0.3213 -0.6309
  112OSM   H18S11574   3.284   2.387   5.637 -0.0179 -0.4368 -1.7115
  112OSM   H18T11575   3.245   2.521   5.757  1.6841 -0.0924 -1.3178
  112OSM   H18U11576   3.150   2.506   5.596  0.8339  2.3915  0.8194
  112OSM    C1F11577   2.530   2.879   7.368 -0.3963 -0.0384  0.7322
  112OSM     OF11578   2.526   3.001   7.386 -0.4960 -0.0580 -0.2332
  112OSM    C2F11579   2.417   2.785   7.359 -0.1136  0.2779 -0.4020
  112OSM    H2F11580   2.411   2.724   7.452 -0.4835  1.0556  0.0969
  112OSM    H2G11581   2.431   2.717   7.273  3.4131  0.8171 -0.4083
  112OSM    C3F11582   2.275   2.834   7.338 -0.3173  0.3570  0.5593
  112OSM    H3F11583   2.277   2.907   7.254 -0.7872 -0.2183  0.0445
  112OSM    H3G11584   2.236   2.891   7.426 -1.0636 -3.1885  2.7355
  112OSM    C4F11585   2.166   2.721   7.306 -0.4025 -0.2631 -0.2806
  112OSM    H4F11586   2.152   2.654   7.393 -0.3325  1.1519  0.8686
  112OSM    H4G11587   2.211   2.654   7.229 -0.2061 -1.3484  0.7476
  112OSM    C5F11588   2.030   2.777   7.280  0.4347  0.3980  0.5278
  112OSM    H5F11589   2.000   2.843   7.364 -0.8454  1.9455 -1.0705
  112OSM    H5G11590   1.959   2.694   7.259 -0.7123  1.4756  0.0433
  112OSM    C6F11591   2.008   2.863   7.153  0.2609 -0.4268 -0.4023
  112OSM    H6F11592   2.039   2.808   7.061  1.4484  0.1856 -0.3942
  112OSM    H6G11593   2.050   2.966   7.151  0.7643 -0.5930  0.7104
  112OSM    C7F11594   1.862   2.905   7.145 -0.1835 -0.3228 -0.0214
  112OSM    H7F11595   1.836   2.978   7.225  1.0922 -0.5540  0.6243
  112OSM    H7G11596   1.805   2.810   7.154  0.0731 -0.4020  0.8335
  112OSM    C8F11597   1.823   2.946   6.996 -0.2134  0.1413 -0.9709
  112OSM    H8F11598   1.722   2.901   6.980  0.2237 -2.2643  2.1150
  112OSM    H8G11599   1.891   2.898   6.923 -0.9370 -0.8670 -1.0077
  112OSM    C9F11600   1.819   3.095   6.997 -0.0723 -0.4464 -0.5804
  112OSM    H9F11601   1.745   3.154   7.053  0.2452 -0.3447 -0.2600
  112OSM   C10F11602   1.886   3.165   6.909  0.0044 -0.3353 -0.0884
  112OSM   H10F11603   1.870   3.273   6.917 -0.4493 -0.5317  2.1282
  112OSM   C11F11604   1.999   3.112   6.828  0.1492  0.5945  0.0166
  112OSM   H11F11605   1.973   3.016   6.778 -0.3025 -0.2620  1.8010
  112OSM   H11G11606   2.090   3.097   6.890  0.4530  0.5641 -0.4345
  112OSM   C12F11607   2.031   3.220   6.726 -0.1100  0.6356  0.5143
  112OSM   H12F11608   2.050   3.323   6.766  0.1251  0.5930  0.5144
  112OSM   H12G11609   1.948   3.221   6.653  0.1744  0.2646  0.1829
  112OSM   C13F11610   2.158   3.194   6.640 -0.6098  0.7648  0.1387
  112OSM   H13F11611   2.150   3.088   6.608  0.3881  0.5624  0.5182
  112OSM   H13G11612   2.248   3.206   6.705  2.4603  1.3210 -3.7968
  112OSM   C14F11613   2.190   3.276   6.516 -0.2377  0.1744  0.0066
  112OSM   H14F11614   2.292   3.251   6.478  1.3858  3.4995  1.6740
  112OSM   H14G11615   2.201   3.375   6.566  5.1924 -1.0702  2.0225
  112OSM   C15F11616   2.084   3.269   6.398 -0.0688 -0.3301 -0.6149
  112OSM   H15F11617   2.130   3.338   6.324 -0.0490  0.1813 -0.1295
  112OSM   H15G11618   1.984   3.312   6.418 -0.9013 -1.2053 -2.6255
  112OSM   C16F11619   2.073   3.141   6.325 -0.0951  0.9820  0.0191
  112OSM   H16F11620   2.057   3.058   6.396 -0.0503  0.4209 -0.6152
  112OSM   H16G11621   2.169   3.120   6.274 -0.9174 -2.1739 -0.4231
  112OSM   C17F11622   1.956   3.144   6.218  0.0938 -0.1703 -0.1714
  112OSM   H17F11623   1.998   3.221   6.149  0.7790  0.6938  1.1717
  112OSM   H17G11624   1.875   3.180   6.284  2.0230  3.0779  0.6371
  112OSM   C18F11625   1.922   3.010   6.146 -0.1103 -0.3313 -0.2858
  112OSM   H18F11626   1.864   2.950   6.219 -0.7716 -0.4844 -0.9278
  112OSM   H18G11627   2.017   2.957   6.124  0.0211 -1.5922  2.9236
  112OSM   H18H11628   1.858   3.017   6.055  0.1295 -2.4650 -0.6682
  113OSM      N11629   0.176   3.699   8.033  0.2048 -0.1347  0.1495
  113OSM    C1511630   0.184   3.619   8.164  0.0930 -0.2403 -0.1215
  113OSM   H15A11631   0.117   3.534   8.166 -1.2022  0.7468  0.5690
  113OSM   H15B11632   0.165   3.687   8.246 -0.0147 -1.2760  0.7365
  113OSM   H15C11633   0.284   3.583   8.180 -0.0565 -0.9790 -0.7587
  113OSM    C1411634   0.040   3.760   8.042  0.6872 -0.3059  0.3257
  113OSM   H14A11635  -0.044   3.693   8.053  1.0985 -0.6744  1.3757
  113OSM   H14B11636   0.016   3.820   7.955  0.6859 -0.2062  0.3952
  113OSM   H14C11637   0.027   3.835   8.118  1.5012  0.1606  0.0165
  113OSM    C1311638   0.278   3.805   8.041 -0.1656 -0.0580  0.3719
  113OSM   H13A11639   0.255   3.865   8.127 -2.6403 -0.2766 -0.0523
  113OSM   H13B11640   0.265   3.853   7.945 -0.8353 -3.5872 -1.4870
  113OSM   H13C11641   0.375   3.760   8.030 -0.3329 -0.5514  0.8447
  113OSM    C1211642   0.184   3.611   7.913 -0.4054  0.0549  0.1829
  113OSM   H12A11643   0.137   3.514   7.921  2.0955 -1.3067 -0.5397
  113OSM   H12B11644   0.288   3.587   7.903 -0.4679 -1.5244  2.6431
  113OSM    C1111645   0.133   3.672   7.778  0.8598  0.5176  0.9000
  113OSM   H11A11646   0.024   3.693   7.780  0.7991  0.3566 -0.1485
  113OSM   H11B11647   0.156   3.600   7.697  2.4384  1.0245  0.8706
  113OSM      P11648   0.145   3.931   7.728 -0.3167  0.0509  0.0991
  113OSM    O1311649   0.026   3.956   7.809 -0.5945  0.1662  0.0854
  113OSM    O1411650   0.250   4.034   7.745 -0.1621  0.8384  0.0868
  113OSM    O1111651   0.094   3.919   7.584 -0.3975 -0.7848  0.8681
  113OSM    O1211652   0.213   3.789   7.753  0.2490  0.0530 -0.3372
  113OSM    C1S11653  -0.035   3.873   7.549  0.2159 -0.2864  0.0743
  113OSM    H1S11654  -0.104   3.960   7.562  0.0606 -0.3347 -0.3846
  113OSM    H1T11655  -0.060   3.788   7.615 -0.6484  1.5340  2.2214
  113OSM     NF11656  -0.183   3.787   7.370 -0.2704  0.4094 -0.1756
  113OSM    HNF11657  -0.197   3.689   7.360  0.2388  0.0278  2.3260
  113OSM    C2S11658  -0.045   3.825   7.402 -1.0533 -0.4719 -0.0764
  113OSM    H2S11659  -0.035   3.928   7.360  0.2109  0.8890  3.1931
  113OSM    C3S11660   0.060   3.733   7.355  0.2105  0.3127 -0.3314
  113OSM    H3S11661   0.037   3.635   7.402 -3.0705  1.6475  1.1529
  113OSM     O311662   0.199   3.750   7.392  0.2991 -0.3243 -0.6829
  113OSM    HO311663   0.189   3.791   7.478 -0.9767 -1.1195 -0.4306
  113OSM    C4S11664   0.049   3.711   7.204 -0.3846 -0.2789 -0.5274
  113OSM    H4S11665  -0.030   3.638   7.184  0.8066 -1.9718  0.6379
  113OSM    C5S11666   0.106   3.766   7.100 -0.7571  0.6046 -0.2299
  113OSM    H5S11667   0.192   3.834   7.114 -1.0757  0.8683  0.4840
  113OSM    C6S11668   0.066   3.725   6.963  0.5258 -0.8484  0.0457
  113OSM    H6S11669  -0.035   3.679   6.968 -0.4764  1.2199 -0.2241
  113OSM    H6T11670   0.126   3.643   6.919  0.3033  0.1986 -2.4349
  113OSM    C7S11671   0.062   3.838   6.856  0.4534  0.4596 -0.3867
  113OSM    H7S11672   0.164   3.880   6.844  0.2114  1.0299 -0.4946
  113OSM    H7T11673  -0.007   3.917   6.893 -0.9083 -1.7046  2.0422
  113OSM    C8S11674   0.004   3.785   6.719 -0.2756  0.2368 -0.0159
  113OSM    H8S11675  -0.100   3.748   6.733  0.4728 -1.3079  2.1835
  113OSM    H8T11676   0.056   3.697   6.675 -1.6575 -1.2993  1.3051
  113OSM    C9S11677   0.014   3.882   6.603  0.0373  0.3638  0.0559
  113OSM    H9S11678   0.121   3.914   6.600 -0.0575  0.8559  1.2269
  113OSM    H9T11679  -0.058   3.964   6.626  0.7766  0.7474  1.0784
  113OSM   C10S11680  -0.028   3.823   6.464  0.0804  0.0624 -0.3531
  113OSM   H10S11681  -0.133   3.787   6.470  0.5225 -2.4285 -4.1042
  113OSM   H10T11682   0.032   3.731   6.444 -0.9426 -1.5161  2.9277
  113OSM   C11S11683  -0.013   3.918   6.347 -0.0761  0.6703  0.0102
  113OSM   H11S11684   0.092   3.952   6.335 -0.7049  2.6144 -0.3563
  113OSM   H11T11685  -0.076   4.007   6.370 -1.5224  0.2152 -1.8761
  113OSM   C12S11686  -0.056   3.852   6.217 -0.2635 -0.2310  0.3996
  113OSM   H12S11687  -0.020   3.748   6.208  1.5422  0.4137 -0.1671
  113OSM   H12T11688  -0.008   3.903   6.131  1.4514 -0.2421  1.3061
  113OSM   C13S11689  -0.208   3.860   6.196  0.0886  0.0069 -0.3095
  113OSM   H13S11690  -0.243   3.949   6.253  0.3680 -0.2320  0.2416
  113OSM   H13T11691  -0.264   3.780   6.248  1.6868  0.9659  3.1657
  113OSM   C14S11692  -0.261   3.884   6.057  0.1066 -0.3935  0.2183
  113OSM   H14S11693  -0.218   3.819   5.978  1.0595  1.0534 -0.5116
  113OSM   H14T11694  -0.225   3.980   6.014 -0.9438 -0.3295 -0.5650
  113OSM   C15S11695  -0.417   3.878   6.052  0.4904 -0.4227 -0.7318
  113OSM   H15S11696  -0.451   3.951   6.128 -1.1675 -2.8975  1.0765
  113OSM   H15T11697  -0.450   3.777   6.084  0.3788 -0.6110 -1.4420
  113OSM   C16S11698  -0.471   3.897   5.908 -0.1082 -0.1734 -0.1037
  113OSM   H16S11699  -0.528   3.806   5.879 -2.4867  1.0441  0.5652
  113OSM   H16T11700  -0.380   3.910   5.845 -0.4365  3.4725 -0.0446
  113OSM   C17S11701  -0.548   4.027   5.890 -1.0742 -0.4402  0.6341
  113OSM   H17S11702  -0.487   4.110   5.932 -2.5146  0.3173  1.2819
  113OSM   H17T11703  -0.645   4.014   5.943 -2.3584 -0.5166 -1.6250
  113OSM   C18S11704  -0.583   4.062   5.746 -0.7465  0.0841  0.0781
  113OSM   H18S11705  -0.492   4.111   5.706 -0.1591  0.5968  1.8992
  113OSM   H18T11706  -0.673   4.126   5.736  0.8081  2.5320  0.8604
  113OSM   H18U11707  -0.598   3.973   5.683  1.0555  0.4361 -0.9270
  113OSM    C1F11708  -0.287   3.866   7.375 -0.1031  0.3515  0.0407
  113OSM     OF11709  -0.270   3.989   7.388  0.3772  0.0690 -0.4318
  113OSM    C2F11710  -0.420   3.808   7.393  0.5897  0.5948  0.1187
  113OSM    H2F11711  -0.451   3.832   7.497 -0.1992  0.2225 -0.0258
  113OSM    H2G11712  -0.401   3.699   7.384 -0.1609  0.4065  0.7447
  113OSM    C3F11713  -0.521   3.859   7.286  0.7897 -0.2382 -0.7415
  113OSM    H3F11714  -0.527   3.968   7.265  1.1548  0.0039  0.3621
  113OSM    H3G11715  -0.623   3.836   7.324  1.4846  0.2839  1.6450
  113OSM    C4F11716  -0.504   3.798   7.150  0.5483 -0.7760  0.2858
  113OSM    H4F11717  -0.481   3.689   7.150 -1.0902 -1.1483  1.1260
  113OSM    H4G11718  -0.433   3.857   7.088 -0.4339 -0.1815 -0.3009
  113OSM    C5F11719  -0.636   3.803   7.069 -0.2497 -0.0173 -0.0004
  113OSM    H5F11720  -0.665   3.909   7.051  2.3933  1.1015  1.7466
  113OSM    H5G11721  -0.721   3.757   7.124  2.2060 -1.0341  3.1975
  113OSM    C6F11722  -0.617   3.750   6.922 -0.2860 -0.0150 -0.1094
  113OSM    H6F11723  -0.567   3.652   6.916  0.2324  0.2363  0.0670
  113OSM    H6G11724  -0.555   3.821   6.862 -1.8771  0.5384 -1.1636
  113OSM    C7F11725  -0.755   3.774   6.848 -0.0706 -0.4141  0.3124
  113OSM    H7F11726  -0.791   3.879   6.846 -1.2785 -0.5877  4.2070
  113OSM    H7G11727  -0.837   3.714   6.893  1.2525 -0.4861  2.7806
  113OSM    C8F11728  -0.746   3.736   6.697 -0.0127  0.4920  1.0806
  113OSM    H8F11729  -0.846   3.719   6.652  0.1253 -0.0061  0.9512
  113OSM    H8G11730  -0.703   3.634   6.692  1.9080  1.2974  0.0717
  113OSM    C9F11731  -0.668   3.831   6.609  1.1141  0.1556  0.3726
  113OSM    H9F11732  -0.698   3.937   6.605  0.5793  0.0556  1.4995
  113OSM   C10F11733  -0.559   3.806   6.537  0.1166  0.5306  1.2161
  113OSM   H10F11734  -0.511   3.883   6.474 -1.5013  0.6843  0.0880
  113OSM   C11F11735  -0.492   3.670   6.518 -0.2134  0.1842 -0.8281
  113OSM   H11F11736  -0.476   3.625   6.618 -0.1084 -1.7091 -1.6542
  113OSM   H11G11737  -0.391   3.678   6.474 -0.4291  1.9312 -1.0665
  113OSM   C12F11738  -0.575   3.575   6.419 -0.1321 -0.5466  0.1748
  113OSM   H12F11739  -0.682   3.589   6.445 -0.0001 -0.9469  0.9459
  113OSM   H12G11740  -0.549   3.468   6.431  1.7349  0.0136  1.8468
  113OSM   C13F11741  -0.568   3.610   6.266 -0.1737  0.1010 -0.2012
  113OSM   H13F11742  -0.463   3.626   6.235 -0.4749 -0.7893 -1.7875
  113OSM   H13G11743  -0.614   3.707   6.235  0.6641  0.8418  0.8234
  113OSM   C14F11744  -0.629   3.501   6.174  0.0304 -0.1571  0.5183
  113OSM   H14F11745  -0.738   3.482   6.186  0.2244 -1.2528  0.6531
  113OSM   H14G11746  -0.582   3.406   6.205 -1.0389  0.1318  3.3323
  113OSM   C15F11747  -0.597   3.540   6.031 -0.0545  0.4741 -0.0647
  113OSM   H15F11748  -0.487   3.530   6.017 -0.0126 -0.9210  1.0565
  113OSM   H15G11749  -0.620   3.649   6.023 -2.0573  0.0347 -1.0302
  113OSM   C16F11750  -0.671   3.449   5.930  0.3727 -0.3126  0.6308
  113OSM   H16F11751  -0.765   3.411   5.977  0.9791 -3.1573 -0.2882
  113OSM   H16G11752  -0.612   3.356   5.916 -0.2080 -0.3687 -1.8023
  113OSM   C17F11753  -0.690   3.525   5.796  0.9825 -0.6570 -0.3773
  113OSM   H17F11754  -0.605   3.594   5.778  0.6728 -0.7286 -2.3330
  113OSM   H17G11755  -0.767   3.604   5.810  1.8341  0.3009 -0.9946
  113OSM   C18F11756  -0.723   3.437   5.675 -0.2106 -0.8039  0.0673
  113OSM   H18F11757  -0.643   3.364   5.648 -3.1373 -3.5675 -1.8647
  113OSM   H18G11758  -0.729   3.501   5.585 -0.5947 -0.5850  0.2477
  113OSM   H18H11759  -0.820   3.383   5.687 -0.3978 -0.6665 -0.7891
  114OSM      N11760   4.654   3.498   7.788 -0.2506  0.0001 -0.4884
  114OSM    C1511761   4.775   3.561   7.836 -0.3362 -0.7487 -0.6899
  114OSM   H15A11762   4.759   3.614   7.929  1.0635  0.4083 -1.0693
  114OSM   H15B11763   4.813   3.634   7.766  2.2869 -0.3920  0.9911
  114OSM   H15C11764   4.861   3.495   7.839  0.8359  0.6191 -2.2747
  114OSM    C1411765   4.553   3.599   7.752  0.0246 -0.2803  0.0181
  114OSM   H14A11766   4.454   3.557   7.740 -0.0231 -0.1708  0.0200
  114OSM   H14B11767   4.587   3.646   7.661 -0.5125  1.8670  0.8580
  114OSM   H14C11768   4.536   3.678   7.824 -0.7167  2.3614 -2.8204
  114OSM    C1311769   4.685   3.411   7.671 -0.4042 -0.4522  0.3001
  114OSM   H13A11770   4.767   3.342   7.674 -0.1340 -0.2032 -0.8062
  114OSM   H13B11771   4.712   3.475   7.588  0.6331 -1.4142 -0.1125
  114OSM   H13C11772   4.596   3.351   7.657  0.1340 -1.6804  1.9054
  114OSM    C1211773   4.596   3.410   7.903 -0.6156  0.2981  0.6383
  114OSM   H12A11774   4.591   3.472   7.992  4.4508  2.3217 -0.1387
  114OSM   H12B11775   4.670   3.339   7.936 -0.1302  0.3030 -0.4134
  114OSM    C1111776   4.467   3.326   7.877 -0.2128  0.4281  0.2915
  114OSM   H11A11777   4.381   3.392   7.856 -2.2511 -0.9083  3.5912
  114OSM   H11B11778   4.433   3.276   7.970  1.0228 -1.3737 -0.1624
  114OSM      P11779   4.367   3.158   7.704 -0.0477 -0.0863 -0.6666
  114OSM    O1311780   4.335   3.030   7.772 -0.2219  0.5441 -0.6149
  114OSM    O1411781   4.258   3.258   7.689 -0.1099  0.5423  0.3221
  114OSM    O1111782   4.433   3.135   7.561 -0.2040 -0.2210  0.0014
  114OSM    O1211783   4.491   3.222   7.775  0.2598 -0.0307  0.6812
  114OSM    C1S11784   4.560   3.077   7.540 -0.2050 -0.7124  0.1170
  114OSM    H1S11785   4.561   2.969   7.562 -0.4809 -0.9296 -0.8796
  114OSM    H1T11786   4.646   3.113   7.601 -0.3322 -1.3367  0.6707
  114OSM     NF11787   4.707   3.008   7.353 -0.0325  0.0872 -0.8786
  114OSM    HNF11788   4.792   3.060   7.354  0.3478 -0.5288  0.0796
  114OSM    C2S11789   4.591   3.092   7.393  0.3926 -0.8554  0.4815
  114OSM    H2S11790   4.495   3.056   7.350  1.0442 -1.3600 -0.5813
  114OSM    C3S11791   4.609   3.239   7.351  0.2454  0.2410 -0.5711
  114OSM    H3S11792   4.705   3.279   7.390  0.6656 -1.0677 -0.2226
  114OSM     O311793   4.509   3.334   7.391  0.1719 -0.7342 -0.3376
  114OSM    HO311794   4.450   3.287   7.449  0.4130  0.3298  0.8084
  114OSM    C4S11795   4.621   3.253   7.192 -0.2764  0.7799 -0.1353
  114OSM    H4S11796   4.544   3.193   7.143 -0.8625  1.9929 -0.7508
  114OSM    C5S11797   4.722   3.315   7.126  0.0399 -0.0348 -0.0459
  114OSM    H5S11798   4.814   3.336   7.184  1.2553 -1.0103 -1.5356
  114OSM    C6S11799   4.737   3.294   6.977 -0.5335 -0.0455 -0.8783
  114OSM    H6S11800   4.792   3.198   6.962  1.0104  0.6224  0.2217
  114OSM    H6T11801   4.808   3.370   6.939  0.7894  0.1837  1.7613
  114OSM    C7S11802   4.607   3.291   6.897 -0.2512 -0.2294 -0.1562
  114OSM    H7S11803   4.538   3.371   6.931  1.4304  0.5517  1.6015
  114OSM    H7T11804   4.552   3.195   6.913 -0.8992  0.1617 -0.0020
  114OSM    C8S11805   4.639   3.291   6.751  0.1117 -0.1053 -0.7446
  114OSM    H8S11806   4.695   3.199   6.724  0.0438 -1.3486  2.7823
  114OSM    H8T11807   4.702   3.380   6.729 -3.7180  2.2218 -3.5120
  114OSM    C9S11808   4.517   3.304   6.661 -0.2377 -0.4808 -0.1042
  114OSM    H9S11809   4.494   3.411   6.675 -2.6906 -1.1810  1.8928
  114OSM    H9T11810   4.433   3.237   6.690 -0.2165  0.0463  1.2386
  114OSM   C10S11811   4.552   3.276   6.513 -0.1478  0.4361  0.0536
  114OSM   H10S11812   4.554   3.165   6.503  1.7179  0.5074 -0.7845
  114OSM   H10T11813   4.654   3.315   6.495  0.2866 -0.9174 -0.6046
  114OSM   C11S11814   4.436   3.339   6.432 -0.1590 -0.3117 -0.2341
  114OSM   H11S11815   4.366   3.402   6.490 -4.6270 -2.3920 -2.8071
  114OSM   H11T11816   4.368   3.252   6.422 -2.1207  1.1892 -0.3865
  114OSM   C12S11817   4.483   3.384   6.291 -0.2968 -0.2553  0.0359
  114OSM   H12S11818   4.556   3.308   6.253 -0.4719 -1.3406  1.7786
  114OSM   H12T11819   4.537   3.480   6.305  1.5889 -1.3021  0.3040
  114OSM   C13S11820   4.360   3.387   6.192 -0.5573  0.2395 -0.0629
  114OSM   H13S11821   4.278   3.446   6.238  0.0818  3.6016 -2.7735
  114OSM   H13T11822   4.327   3.282   6.184 -1.2297  0.5405 -1.5970
  114OSM   C14S11823   4.397   3.422   6.045 -0.0156 -1.1306 -0.7491
  114OSM   H14S11824   4.313   3.425   5.973 -0.2472 -2.8615 -0.5941
  114OSM   H14T11825   4.467   3.344   6.008  0.8361 -0.6073 -0.2938
  114OSM   C15S11826   4.457   3.559   6.034 -0.5124 -0.7769 -0.3379
  114OSM   H15S11827   4.513   3.581   6.127 -0.2399 -0.8881 -0.4744
  114OSM   H15T11828   4.381   3.640   6.035  1.6210  1.3440 -1.0907
  114OSM   C16S11829   4.564   3.577   5.920  0.0073  0.1274 -0.6283
  114OSM   H16S11830   4.639   3.497   5.936 -1.3882 -1.7464 -2.9040
  114OSM   H16T11831   4.614   3.675   5.937  1.0773 -0.7142  1.3692
  114OSM   C17S11832   4.499   3.567   5.779  0.5998  0.3050 -0.1704
  114OSM   H17S11833   4.411   3.636   5.775 -0.6696 -1.2974 -1.5896
  114OSM   H17T11834   4.470   3.461   5.761  1.3909  0.1390 -0.5150
  114OSM   C18S11835   4.573   3.603   5.655 -0.3005 -0.1996  0.2041
  114OSM   H18S11836   4.646   3.524   5.625 -1.1315  0.0922 -2.9377
  114OSM   H18T11837   4.622   3.702   5.660 -0.1923 -0.2458  0.0828
  114OSM   H18U11838   4.510   3.607   5.564 -0.8081  1.1367  0.6015
  114OSM    C1F11839   4.708   2.874   7.354 -0.7860 -0.2346 -0.5527
  114OSM     OF11840   4.611   2.809   7.383 -0.4922  1.1540  0.2866
  114OSM    C2F11841   4.839   2.807   7.316  0.4871  0.6719 -0.7873
  114OSM    H2F11842   4.873   2.754   7.407 -2.2923  0.7991  0.4108
  114OSM    H2G11843   4.911   2.885   7.282  1.1149 -0.0274 -1.0836
  114OSM    C3F11844   4.817   2.693   7.218  0.7748  0.1524  0.1994
  114OSM    H3F11845   4.728   2.633   7.249  0.8083 -0.3012 -0.5735
  114OSM    H3G11846   4.895   2.615   7.228  0.6471 -0.1440 -1.0275
  114OSM    C4F11847   4.810   2.740   7.074 -0.5649  0.0597  0.4474
  114OSM    H4F11848   4.757   2.835   7.094 -0.8490  0.0720 -0.3406
  114OSM    H4G11849   4.751   2.669   7.012  0.5643 -1.6055  1.1813
  114OSM    C5F11850   4.945   2.765   7.005 -0.0073  0.4209  0.0772
  114OSM    H5F11851   4.986   2.668   6.969  1.1043  0.3328  1.5132
  114OSM    H5G11852   5.026   2.797   7.074  0.5735 -1.0496  0.1045
  114OSM    C6F11853   4.939   2.873   6.897 -0.1095  0.2398  0.0769
  114OSM    H6F11854   4.920   2.976   6.934  1.1465  1.2844 -2.0140
  114OSM    H6G11855   4.867   2.834   6.822 -0.3069 -1.8969  1.2813
  114OSM    C7F11856   5.082   2.899   6.824 -0.1057  0.5396 -0.0507
  114OSM    H7F11857   5.128   2.803   6.791  0.7766  2.0066 -3.4958
  114OSM    H7G11858   5.158   2.930   6.899  0.9612  0.2945 -0.9885
  114OSM    C8F11859   5.091   2.997   6.707 -0.4459  0.0503  0.1158
  114OSM    H8F11860   5.189   3.048   6.694 -0.4682  1.0513  3.1056
  114OSM    H8G11861   5.029   3.077   6.752 -1.7292 -1.3453  0.9246
  114OSM    C9F11862   5.041   2.942   6.579  0.4522 -0.2017  0.7632
  114OSM    H9F11863   5.068   2.835   6.569  2.0181  0.0427  2.1117
  114OSM   C10F11864   4.957   3.006   6.486  0.2557 -0.0338  0.5194
  114OSM   H10F11865   4.921   2.947   6.401 -1.6887 -1.1768  2.0604
  114OSM   C11F11866   4.895   3.151   6.494  0.0363 -0.1593 -0.1692
  114OSM   H11F11867   4.912   3.197   6.594  2.3541  0.0492 -0.6093
  114OSM   H11G11868   4.784   3.145   6.490 -0.2232 -1.9074  4.1063
  114OSM   C12F11869   4.952   3.250   6.385 -0.5495 -0.7978 -0.4078
  114OSM   H12F11870   5.058   3.264   6.415 -1.0065  2.0053  0.1735
  114OSM   H12G11871   4.888   3.341   6.385  3.0674  1.9516 -1.3317
  114OSM   C13F11872   4.949   3.201   6.236 -0.3469 -0.3534  0.5898
  114OSM   H13F11873   5.000   3.103   6.235 -2.7505 -1.7161  1.8625
  114OSM   H13G11874   5.007   3.270   6.171 -0.4138 -2.6367 -2.0832
  114OSM   C14F11875   4.805   3.198   6.177 -0.1737  0.1339 -0.1994
  114OSM   H14F11876   4.755   3.298   6.178  0.1989  0.3262 -0.3868
  114OSM   H14G11877   4.745   3.122   6.231  0.5600 -0.0705  0.3469
  114OSM   C15F11878   4.816   3.145   6.034  0.5382  0.7682 -1.0600
  114OSM   H15F11879   4.861   3.044   6.036 -1.3514 -0.1199 -1.4124
  114OSM   H15G11880   4.899   3.199   5.983  1.0743  0.1081 -0.8996
  114OSM   C16F11881   4.682   3.133   5.957  0.4658 -0.2796 -0.3808
  114OSM   H16F11882   4.635   3.233   5.966  0.7943 -0.2751  1.8428
  114OSM   H16G11883   4.622   3.054   6.006 -0.2092  0.5157  0.0828
  114OSM   C17F11884   4.703   3.092   5.811  0.7682 -0.3435  1.0951
  114OSM   H17F11885   4.682   2.983   5.803 -0.8236 -0.0328  0.7702
  114OSM   H17G11886   4.808   3.101   5.776  0.2703 -1.1318 -0.7297
  114OSM   C18F11887   4.628   3.173   5.706 -0.5739 -0.0477  0.3828
  114OSM   H18F11888   4.540   3.228   5.744 -0.2373  0.7709 -0.0003
  114OSM   H18G11889   4.616   3.096   5.627  2.9932 -0.4940  0.0915
  114OSM   H18H11890   4.697   3.248   5.660 -0.5980 -0.1525  0.1750
  115OSM      N11891   4.014   5.212   8.158 -0.2386 -0.2122 -0.7778
  115OSM    C1511892   4.137   5.125   8.163  1.2062 -0.6001 -0.4673
  115OSM   H15A11893   4.095   5.025   8.161 -0.1492 -0.0575 -2.8075
  115OSM   H15B11894   4.205   5.128   8.247  0.7078 -2.2733  0.0417
  115OSM   H15C11895   4.184   5.154   8.070 -3.0022 -1.0602 -3.0116
  115OSM    C1411896   3.927   5.174   8.278  1.0915 -0.0640 -0.5447
  115OSM   H14A11897   3.983   5.161   8.369 -2.8019 -0.9537  1.9772
  115OSM   H14B11898   3.889   5.074   8.263  0.9430 -0.2064  0.6622
  115OSM   H14C11899   3.846   5.244   8.294  0.5342 -0.4316 -1.6534
  115OSM    C1311900   4.069   5.344   8.187  1.0875 -0.4976  0.0743
  115OSM   H13A11901   4.128   5.378   8.104 -0.2839 -1.3769 -1.3136
  115OSM   H13B11902   4.137   5.335   8.271 -0.1104 -1.2993  1.0038
  115OSM   H13C11903   3.997   5.423   8.203  2.9733  1.6835 -1.6173
  115OSM    C1211904   3.941   5.193   8.027 -0.3893  0.2836 -0.2327
  115OSM   H12A11905   3.850   5.252   8.019 -0.8009 -0.5117 -1.8529
  115OSM   H12B11906   3.907   5.093   8.006  3.1994 -1.3579  0.9364
  115OSM    C1111907   4.035   5.227   7.906  0.4532 -0.0944  0.3068
  115OSM   H11A11908   4.089   5.323   7.921 -0.6841  0.6746 -0.3411
  115OSM   H11B11909   3.979   5.262   7.817  0.2346  0.0915  0.5153
  115OSM      P11910   4.073   4.992   7.822 -0.3226 -0.0753 -0.4020
  115OSM    O1311911   4.186   4.893   7.821 -0.1709 -0.5525  0.3375
  115OSM    O1411912   3.953   4.947   7.895  0.0778 -0.5320  0.4996
  115OSM    O1111913   4.036   5.027   7.673 -0.8571 -0.1054 -0.4109
  115OSM    O1211914   4.133   5.128   7.885  0.4276 -0.4066  0.2108
  115OSM    C1S11915   4.146   5.067   7.589  1.2064  0.1337  0.5688
  115OSM    H1S11916   4.230   4.995   7.593 -1.1418 -2.8695 -0.4818
  115OSM    H1T11917   4.186   5.166   7.621 -1.1183  0.8115  1.5718
  115OSM     NF11918   4.222   5.120   7.349 -0.0126  0.1643  0.1939
  115OSM    HNF11919   4.223   5.208   7.302  0.1975  0.1608  0.1923
  115OSM    C2S11920   4.109   5.080   7.435 -0.0594  0.2170  0.6402
  115OSM    H2S11921   4.091   4.974   7.407 -0.6649 -0.1223  2.2021
  115OSM    C3S11922   3.981   5.169   7.407  1.3233 -0.0227 -0.5070
  115OSM    H3S11923   4.022   5.272   7.418  0.1579  0.3427  0.7150
  115OSM     O311924   3.877   5.144   7.507  0.0926 -0.2218  0.2032
  115OSM    HO311925   3.923   5.085   7.567 -0.2319  0.7961  1.4958
  115OSM    C4S11926   3.929   5.145   7.272 -0.5328 -0.1261 -0.5257
  115OSM    H4S11927   3.988   5.202   7.199  1.2178 -2.0996 -0.7741
  115OSM    C5S11928   3.831   5.064   7.223  0.9233 -0.1016 -0.3742
  115OSM    H5S11929   3.775   5.014   7.304  3.0425 -1.0698  0.5831
  115OSM    C6S11930   3.794   5.048   7.080 -0.2511  0.6748 -0.0193
  115OSM    H6S11931   3.698   5.102   7.066 -0.1048  1.1872  0.8341
  115OSM    H6T11932   3.784   4.938   7.066 -0.6297  0.7634 -0.4602
  115OSM    C7S11933   3.895   5.101   6.972 -0.4049 -0.3096  0.7110
  115OSM    H7S11934   3.990   5.044   6.973  0.6644  1.3235 -1.0914
  115OSM    H7T11935   3.907   5.211   6.987 -1.6382  0.1094 -1.0564
  115OSM    C8S11936   3.836   5.090   6.822  0.3728  0.3019  0.3634
  115OSM    H8S11937   3.915   5.137   6.759 -1.0520  2.1361 -0.1216
  115OSM    H8T11938   3.736   5.137   6.820 -0.4828 -1.3691  1.5707
  115OSM    C9S11939   3.811   4.941   6.780  0.7852 -0.3184  0.4459
  115OSM    H9S11940   3.731   4.896   6.842 -0.0945 -1.0888 -1.1810
  115OSM    H9T11941   3.905   4.882   6.782  0.9545 -0.0227  1.6509
  115OSM   C10S11942   3.760   4.935   6.637  0.7082  0.3724  0.5667
  115OSM   H10S11943   3.804   5.017   6.576  1.5777  0.4305  1.2563
  115OSM   H10T11944   3.649   4.939   6.645  0.6916  2.7669  0.0764
  115OSM   C11S11945   3.798   4.795   6.569  0.2740  0.2617 -0.2307
  115OSM   H11S11946   3.775   4.706   6.633 -1.6075  0.3572 -0.7151
  115OSM   H11T11947   3.908   4.791   6.556  0.1354 -0.4940 -1.3143
  115OSM   C12S11948   3.740   4.770   6.430  0.3575  0.0936  0.5513
  115OSM   H12S11949   3.654   4.840   6.422  1.0642  0.8496 -0.8767
  115OSM   H12T11950   3.722   4.661   6.424 -2.9245  0.2917  3.4242
  115OSM   C13S11951   3.836   4.802   6.311 -0.9031 -0.0047 -0.8446
  115OSM   H13S11952   3.920   4.730   6.307 -1.2721 -0.9286  3.3532
  115OSM   H13T11953   3.875   4.904   6.333  0.6016 -0.4227 -1.4512
  115OSM   C14S11954   3.756   4.776   6.187 -0.3729 -0.3066  0.0254
  115OSM   H14S11955   3.656   4.825   6.185  0.7349  2.2579  2.4337
  115OSM   H14T11956   3.738   4.668   6.166  0.4818 -0.3253 -0.6694
  115OSM   C15S11957   3.826   4.830   6.064  0.2605 -0.5323 -0.0013
  115OSM   H15S11958   3.930   4.791   6.056  0.8887  0.7023  1.6112
  115OSM   H15T11959   3.837   4.938   6.088  1.2820 -1.1870  2.8645
  115OSM   C16S11960   3.747   4.787   5.939  0.6305 -0.0655  0.1964
  115OSM   H16S11961   3.638   4.777   5.958  0.8316  0.0667  1.4676
  115OSM   H16T11962   3.790   4.689   5.908  0.3378 -0.1439  0.0324
  115OSM   C17S11963   3.780   4.879   5.820 -0.1809 -0.3908  0.1514
  115OSM   H17S11964   3.887   4.870   5.794  0.0179 -1.3500  1.2076
  115OSM   H17T11965   3.748   4.981   5.850 -2.3768 -0.7823 -0.6530
  115OSM   C18S11966   3.683   4.850   5.706  0.4133  0.6671  0.5186
  115OSM   H18S11967   3.680   4.740   5.690 -1.8837  0.8739 -0.9212
  115OSM   H18T11968   3.709   4.888   5.604 -2.0122 -2.5789 -1.5143
  115OSM   H18U11969   3.582   4.885   5.735  0.1121  0.1485  0.1229
  115OSM    C1F11970   4.330   5.045   7.337 -0.0554 -0.1950 -0.3204
  115OSM     OF11971   4.324   4.927   7.362  0.4879 -1.6168  0.5514
  115OSM    C2F11972   4.444   5.117   7.275 -0.5676  0.1194  0.3880
  115OSM    H2F11973   4.486   5.183   7.354  0.3413 -1.4372  1.2568
  115OSM    H2G11974   4.399   5.173   7.190 -0.3464  0.2732  0.3710
  115OSM    C3F11975   4.560   5.033   7.213  0.4623 -0.3537  0.1796
  115OSM    H3F11976   4.518   4.943   7.164 -0.2270  0.8505 -1.5303
  115OSM    H3G11977   4.611   5.004   7.308  0.0854  1.7666  1.0823
  115OSM    C4F11978   4.662   5.107   7.121 -0.1465  0.5290  0.2314
  115OSM    H4F11979   4.756   5.048   7.120  0.6396  1.7195  0.8662
  115OSM    H4G11980   4.696   5.206   7.158  2.2875  0.9823 -2.8442
  115OSM    C5F11981   4.619   5.114   6.977  0.4586  0.0273  1.0901
  115OSM    H5F11982   4.525   5.173   6.962 -0.5900 -1.4069  1.7974
  115OSM    H5G11983   4.580   5.014   6.950 -0.3127  0.1243  1.8043
  115OSM    C6F11984   4.725   5.166   6.869 -0.5816 -0.2838  0.7560
  115OSM    H6F11985   4.821   5.114   6.890  1.0920  1.7198 -1.3700
  115OSM    H6G11986   4.757   5.272   6.882  1.2680 -0.5845 -0.8322
  115OSM    C7F11987   4.695   5.135   6.725 -0.3026  0.1856  0.0488
  115OSM    H7F11988   4.618   5.201   6.681 -1.4040 -1.4904 -0.6692
  115OSM    H7G11989   4.665   5.028   6.715  0.4457  0.0873 -1.4676
  115OSM    C8F11990   4.821   5.154   6.637  0.1190 -0.2821 -0.2461
  115OSM    H8F11991   4.803   5.106   6.539 -3.0553  1.6839 -0.7391
  115OSM    H8G11992   4.918   5.114   6.674  0.5261  0.2339 -0.7446
  115OSM    C9F11993   4.853   5.296   6.616  0.0068 -0.8248 -0.1666
  115OSM    H9F11994   4.888   5.354   6.703  2.4477 -1.5611 -0.5769
  115OSM   C10F11995   4.837   5.366   6.501 -0.3832  0.1220 -0.3998
  115OSM   H10F11996   4.858   5.474   6.511 -2.8621  0.5498  0.9931
  115OSM   C11F11997   4.791   5.308   6.372 -0.0847  0.5561 -0.1866
  115OSM   H11F11998   4.750   5.387   6.306  1.6438  1.2864 -0.4455
  115OSM   H11G11999   4.711   5.233   6.394  1.5238 -0.5107  2.5616
  115OSM   C12F12000   4.909   5.249   6.283 -0.1868 -0.4205 -0.4341
  115OSM   H12F12001   4.963   5.180   6.351 -0.6431  0.0207  0.3897
  115OSM   H12G12002   4.975   5.336   6.261  0.9992 -1.1641  0.1190
  115OSM   C13F12003   4.863   5.192   6.151  0.6429 -0.8743 -0.5930
  115OSM   H13F12004   4.833   5.283   6.094 -0.1662 -0.4300  0.5013
  115OSM   H13G12005   4.770   5.134   6.167 -1.0858  1.5690 -1.2268
  115OSM   C14F12006   4.975   5.109   6.082  0.2187 -0.2986  0.6147
  115OSM   H14F12007   5.015   5.018   6.131 -1.3317 -1.6613 -0.5050
  115OSM   H14G12008   5.056   5.183   6.073 -1.9272  2.0904 -0.3098
  115OSM   C15F12009   4.942   5.057   5.936 -1.0575 -0.1284  0.1400
  115OSM   H15F12010   4.890   5.142   5.887  0.6965  0.0621 -1.5304
  115OSM   H15G12011   4.887   4.961   5.944 -0.0897 -0.7108 -0.0008
  115OSM   C16F12012   5.072   5.027   5.857  0.4594  0.0562 -0.3053
  115OSM   H16F12013   5.124   4.934   5.889  0.3190  0.1151  0.1094
  115OSM   H16G12014   5.140   5.113   5.839 -0.1383  0.0997 -2.5559
  115OSM   C17F12015   5.025   4.997   5.711  0.0389 -0.4511  0.2082
  115OSM   H17F12016   5.012   5.096   5.662  0.4185 -0.5381 -0.0692
  115OSM   H17G12017   4.940   4.925   5.716 -0.3441 -0.0629 -0.5809
  115OSM   C18F12018   5.134   4.926   5.619 -0.2094  0.0474  0.0728
  115OSM   H18F12019   5.094   4.915   5.516  1.1934 -0.4499 -0.4451
  115OSM   H18G12020   5.143   4.822   5.658 -1.0045 -0.0693 -0.0363
  115OSM   H18H12021   5.225   4.989   5.625 -1.3866  1.6276  4.3163
  116OSM      N12022   0.315   1.741   7.729  0.3243  0.1784  0.1458
  116OSM    C1512023   0.443   1.733   7.803 -0.6515 -0.2469  0.2876
  116OSM   H15A12024   0.432   1.701   7.906 -0.3831  0.4808  0.5506
  116OSM   H15B12025   0.488   1.832   7.803 -1.5120  0.1590  0.7381
  116OSM   H15C12026   0.515   1.664   7.763  0.7156 -0.4813  2.9458
  116OSM    C1412027   0.253   1.600   7.718  0.5699 -0.1579  0.1021
  116OSM   H14A12028   0.218   1.558   7.811 -1.6340 -1.2297 -1.1284
  116OSM   H14B12029   0.320   1.528   7.674 -3.0371 -1.7017 -3.5421
  116OSM   H14C12030   0.175   1.594   7.643  0.6849  0.8805 -0.1299
  116OSM    C1312031   0.218   1.827   7.800 -0.3304 -0.2804  0.4833
  116OSM   H13A12032   0.267   1.922   7.818  0.0008 -0.5166  0.8430
  116OSM   H13B12033   0.176   1.797   7.895  0.6096  0.7286  1.2506
  116OSM   H13C12034   0.135   1.838   7.733 -1.1543 -0.5441  1.4418
  116OSM    C1212035   0.333   1.805   7.589  0.2476  0.1515 -0.2184
  116OSM   H12A12036   0.242   1.816   7.532 -0.2451 -0.0222  0.5350
  116OSM   H12B12037   0.396   1.737   7.534  0.2162  0.0578 -0.1379
  116OSM    C1112038   0.387   1.949   7.589 -0.0834  0.0247  0.1220
  116OSM   H11A12039   0.437   1.971   7.492 -1.2512  1.1532 -0.2534
  116OSM   H11B12040   0.473   1.958   7.659 -0.2875  0.5386  0.3111
  116OSM      P12041   0.296   2.181   7.662 -0.5743 -0.1214  0.0029
  116OSM    O1312042   0.183   2.209   7.754 -0.1314 -1.0619  0.1412
  116OSM    O1412043   0.423   2.195   7.728 -0.3298  0.2205  0.1971
  116OSM    O1112044   0.299   2.269   7.541 -0.0738  0.0525 -0.5407
  116OSM    O1212045   0.276   2.037   7.606 -0.4162 -0.2876  0.5435
  116OSM    C1S12046   0.288   2.242   7.407 -0.1052 -0.0167 -0.5019
  116OSM    H1S12047   0.309   2.136   7.383  0.0615  0.1812 -1.2353
  116OSM    H1T12048   0.361   2.310   7.358 -0.0366 -0.0622 -0.4633
  116OSM     NF12049   0.145   2.241   7.203  0.0119  0.1640  0.2096
  116OSM    HNF12050   0.143   2.325   7.149  1.9496 -0.1352 -0.4026
  116OSM    C2S12051   0.149   2.280   7.345 -0.1866  0.2955  0.3976
  116OSM    H2S12052   0.078   2.215   7.401  0.4703  0.1016  1.0207
  116OSM    C3S12053   0.111   2.431   7.373 -0.7727  0.8126  0.3636
  116OSM    H3S12054   0.167   2.496   7.303  0.7532  2.1576  2.7048
  116OSM     O312055   0.143   2.486   7.503 -0.0953  0.1057  0.0149
  116OSM    HO312056   0.178   2.410   7.550  0.6451 -0.5433 -1.4818
  116OSM    C4S12057  -0.038   2.447   7.361  0.0850  0.4423  0.1157
  116OSM    H4S12058  -0.099   2.368   7.409 -2.1036  0.9339 -1.6991
  116OSM    C5S12059  -0.100   2.546   7.291  0.1451  1.2298  0.3531
  116OSM    H5S12060  -0.049   2.634   7.250 -1.0611  1.4963 -0.6669
  116OSM    C6S12061  -0.246   2.561   7.284  0.3947 -0.4380 -0.0884
  116OSM    H6S12062  -0.257   2.668   7.313  0.7629 -0.8151  1.5333
  116OSM    H6T12063  -0.302   2.499   7.357 -1.2639  1.2631  0.1764
  116OSM    C7S12064  -0.319   2.542   7.147  0.3236 -0.2764 -0.4377
  116OSM    H7S12065  -0.325   2.438   7.110 -0.4021  0.1034 -1.4374
  116OSM    H7T12066  -0.257   2.593   7.070  1.1547 -0.5493  0.0407
  116OSM    C8S12067  -0.461   2.598   7.155  0.6140 -0.5426 -0.4581
  116OSM    H8S12068  -0.458   2.708   7.147 -1.7259 -0.3214  0.6684
  116OSM    H8T12069  -0.513   2.570   7.249  0.7774  1.7018  0.3467
  116OSM    C9S12070  -0.556   2.558   7.037  0.8275  0.1166  0.4958
  116OSM    H9S12071  -0.646   2.622   7.049  2.6329  2.5647  1.9524
  116OSM    H9T12072  -0.583   2.450   7.041 -1.9924  0.6683 -0.7630
  116OSM   C10S12073  -0.502   2.583   6.895 -0.4609  0.1421 -0.4313
  116OSM   H10S12074  -0.403   2.535   6.905  0.5561  2.4115  1.1461
  116OSM   H10T12075  -0.472   2.690   6.887  0.0094  0.0835  0.4258
  116OSM   C11S12076  -0.572   2.511   6.780  0.4548  0.1442 -0.1774
  116OSM   H11S12077  -0.672   2.557   6.764 -0.1063  0.4462  3.3183
  116OSM   H11T12078  -0.586   2.404   6.805 -3.5393  0.0970 -1.9334
  116OSM   C12S12079  -0.495   2.525   6.651  0.0493 -0.5676  0.1369
  116OSM   H12S12080  -0.385   2.518   6.666  0.1700 -1.6588 -1.1103
  116OSM   H12T12081  -0.511   2.633   6.632  1.7287  0.0331  1.8135
  116OSM   C13S12082  -0.557   2.439   6.536  0.5518 -0.0723  0.3280
  116OSM   H13S12083  -0.667   2.450   6.535  0.7376  2.9163 -1.9715
  116OSM   H13T12084  -0.527   2.336   6.563 -0.8943 -0.3620  0.8552
  116OSM   C14S12085  -0.510   2.475   6.397  0.6182 -0.2487 -0.4989
  116OSM   H14S12086  -0.401   2.492   6.413  0.9509 -1.2810 -1.5525
  116OSM   H14T12087  -0.560   2.572   6.375  0.3255 -0.0548  0.8995
  116OSM   C15S12088  -0.542   2.365   6.301 -0.2027 -0.4303 -0.1713
  116OSM   H15S12089  -0.651   2.341   6.293 -0.4440  0.8917 -1.4099
  116OSM   H15T12090  -0.497   2.273   6.343 -1.1989  0.0303  2.0382
  116OSM   C16S12091  -0.493   2.397   6.158 -0.4887 -0.0269 -0.5229
  116OSM   H16S12092  -0.383   2.407   6.162 -0.3743 -1.2404 -0.2152
  116OSM   H16T12093  -0.525   2.499   6.126  0.3660  0.2282 -0.5883
  116OSM   C17S12094  -0.535   2.282   6.061 -0.3149  0.0693  0.1816
  116OSM   H17S12095  -0.644   2.284   6.041 -0.3799  2.5273  0.4138
  116OSM   H17T12096  -0.508   2.185   6.109  0.5768  0.0784 -0.2713
  116OSM   C18S12097  -0.464   2.298   5.921 -0.4313  0.0736 -0.0027
  116OSM   H18S12098  -0.485   2.212   5.854  2.0318 -0.4794 -0.1676
  116OSM   H18T12099  -0.353   2.297   5.928 -0.4127 -0.4479 -0.3102
  116OSM   H18U12100  -0.503   2.394   5.880 -1.5792 -0.2275  0.3333
  116OSM    C1F12101   0.160   2.118   7.146 -0.1914  0.5328  1.0473
  116OSM     OF12102   0.161   2.013   7.206 -0.0528 -0.0051 -1.1469
  116OSM    C2F12103   0.161   2.110   6.988 -0.0224 -0.4090  0.0365
  116OSM    H2F12104   0.208   2.203   6.950 -3.5652  0.8848 -1.6599
  116OSM    H2G12105   0.055   2.106   6.956  0.8564 -1.0835 -3.1307
  116OSM    C3F12106   0.229   1.984   6.925 -0.1042 -0.5036 -0.1744
  116OSM    H3F12107   0.171   1.897   6.964 -0.1823  0.1075  1.1017
  116OSM    H3G12108   0.335   1.984   6.959 -0.3261 -0.5321  0.5390
  116OSM    C4F12109   0.231   1.996   6.770 -0.4052 -0.5208 -0.6442
  116OSM    H4F12110   0.266   2.095   6.735 -1.2342 -0.2446 -0.7023
  116OSM    H4G12111   0.128   2.003   6.730 -0.7836 -2.3638 -0.0921
  116OSM    C5F12112   0.309   1.892   6.699 -0.8317  0.2567 -1.0706
  116OSM    H5F12113   0.272   1.789   6.720  1.5092 -0.8903 -2.1262
  116OSM    H5G12114   0.415   1.896   6.733 -1.2041  1.4407  0.0134
  116OSM    C6F12115   0.319   1.926   6.552 -0.5409  0.0576 -0.0042
  116OSM    H6F12116   0.377   2.020   6.543 -1.1082  0.5782  1.5723
  116OSM    H6G12117   0.216   1.945   6.518 -1.7545 -0.5268  2.9979
  116OSM    C7F12118   0.370   1.808   6.463 -0.2807  0.3024  0.1287
  116OSM    H7F12119   0.297   1.727   6.480 -1.0567  1.1702  1.0607
  116OSM    H7G12120   0.467   1.774   6.506 -0.7256 -0.0357  0.9069
  116OSM    C8F12121   0.392   1.857   6.318 -0.2029  0.0544 -0.0919
  116OSM    H8F12122   0.297   1.905   6.286 -0.9406 -0.7920  0.7465
  116OSM    H8G12123   0.396   1.771   6.249  0.6897 -0.4756  0.5951
  116OSM    C9F12124   0.508   1.958   6.301  0.2710  0.2448 -0.2341
  116OSM    H9F12125   0.574   1.963   6.389 -0.9423  1.0352  0.6674
  116OSM   C10F12126   0.530   2.045   6.202  0.3631  0.2216 -0.7933
  116OSM   H10F12127   0.618   2.110   6.212  1.6116 -1.6386  1.1194
  116OSM   C11F12128   0.443   2.067   6.085  0.2834  0.3236  0.6788
  116OSM   H11F12129   0.338   2.043   6.113 -0.0040  2.9910  2.2456
  116OSM   H11G12130   0.469   1.985   6.015 -0.7371  0.4228  0.1592
  116OSM   C12F12131   0.446   2.212   6.032 -0.6217 -0.3681  0.5039
  116OSM   H12F12132   0.554   2.236   6.046 -0.3476 -1.0284 -0.4125
  116OSM   H12G12133   0.401   2.283   6.105  0.6726 -0.3519  1.3252
  116OSM   C13F12134   0.385   2.240   5.893 -0.1592 -0.4126 -0.6642
  116OSM   H13F12135   0.277   2.214   5.894 -0.1516 -0.4484  0.3564
  116OSM   H13G12136   0.434   2.179   5.814 -0.0936  0.7008 -1.5082
  116OSM   C14F12137   0.400   2.388   5.846 -0.1192  0.3051 -0.7794
  116OSM   H14F12138   0.509   2.407   5.830 -0.4218  1.3157 -1.8104
  116OSM   H14G12139   0.349   2.455   5.918 -1.6565 -0.9226 -0.6801
  116OSM   C15F12140   0.326   2.408   5.717  0.1026 -0.7903  0.1455
  116OSM   H15F12141   0.218   2.385   5.729 -0.4689  1.3073 -0.6272
  116OSM   H15G12142   0.363   2.336   5.640 -0.1318 -0.4424 -0.2962
  116OSM   C16F12143   0.342   2.558   5.668  0.2380 -0.1446 -0.2695
  116OSM   H16F12144   0.452   2.570   5.655  0.3260 -2.2142 -2.1061
  116OSM   H16G12145   0.315   2.625   5.752  0.4567  0.1907 -0.4652
  116OSM   C17F12146   0.264   2.581   5.542 -0.3839  0.0086 -0.4328
  116OSM   H17F12147   0.156   2.564   5.557 -0.0946 -1.5749  0.0404
  116OSM   H17G12148   0.302   2.498   5.477  1.3163  1.9561 -2.0861
  116OSM   C18F12149   0.287   2.717   5.474 -0.1009  0.3417 -0.4720
  116OSM   H18F12150   0.279   2.799   5.549 -1.0493 -0.9708  0.9419
  116OSM   H18G12151   0.221   2.727   5.385 -2.0903 -0.2911  0.8488
  116OSM   H18H12152   0.394   2.726   5.448 -0.0942  0.1433 -0.5182
  117OSM      N12153   6.684   4.300   7.664  0.3553 -0.0094 -0.1817
  117OSM    C1512154   6.587   4.220   7.747  0.1287  0.1949  0.0219
  117OSM   H15A12155   6.498   4.199   7.690  1.2759 -2.1851 -1.0475
  117OSM   H15B12156   6.561   4.274   7.837  0.5362 -0.5166  0.5778
  117OSM   H15C12157   6.640   4.130   7.774  0.7961 -0.1532 -2.2634
  117OSM    C1412158   6.819   4.306   7.725 -0.4105  0.6401  0.0289
  117OSM   H14A12159   6.893   4.330   7.650  1.5232 -2.7370  0.6541
  117OSM   H14B12160   6.848   4.209   7.760 -0.4036 -0.0978 -1.8837
  117OSM   H14C12161   6.815   4.370   7.812 -3.0174 -1.5369  1.6487
  117OSM    C1312162   6.690   4.229   7.534  0.3112 -0.1702 -0.1912
  117OSM   H13A12163   6.591   4.213   7.494  0.4330  0.6901 -0.8588
  117OSM   H13B12164   6.729   4.130   7.551  2.0791  0.6652  1.0252
  117OSM   H13C12165   6.759   4.263   7.458  0.5539 -1.8292 -0.7363
  117OSM    C1212166   6.627   4.444   7.635 -0.8599  0.2362 -1.2639
  117OSM   H12A12167   6.536   4.433   7.577 -2.5124 -1.7443  1.4005
  117OSM   H12B12168   6.693   4.494   7.566  2.5336  1.0415  2.2041
  117OSM    C1112169   6.599   4.537   7.748  0.1975 -0.5225 -0.1020
  117OSM   H11A12170   6.694   4.576   7.789 -0.6898  0.3438  1.2062
  117OSM   H11B12171   6.553   4.496   7.841  0.0937 -0.0174  0.0704
  117OSM      P12172   6.493   4.777   7.759  0.1859  0.0381  0.2717
  117OSM    O1312173   6.419   4.755   7.883  0.0799 -0.8659  0.4362
  117OSM    O1412174   6.623   4.844   7.776  0.2141 -0.1972 -0.6053
  117OSM    O1112175   6.406   4.856   7.645 -0.5509 -0.5324 -0.1925
  117OSM    O1212176   6.516   4.638   7.687  0.2957  0.2639 -0.4187
  117OSM    C1S12177   6.457   4.964   7.567  0.0373 -0.3051 -0.2821
  117OSM    H1S12178   6.514   4.929   7.479  0.3177  1.3462 -0.7966
  117OSM    H1T12179   6.533   5.024   7.623  1.2222 -2.3496  0.3999
  117OSM     NF12180   6.409   5.152   7.417 -0.0371 -0.0773  0.5131
  117OSM    HNF12181   6.422   5.241   7.460 -2.0723 -0.0418  1.2046
  117OSM    C2S12182   6.346   5.060   7.505 -0.1002 -0.2996  0.3522
  117OSM    H2S12183   6.288   4.991   7.439 -0.1454 -0.0572  0.1356
  117OSM    C3S12184   6.252   5.115   7.613 -0.6790 -0.1316 -0.6745
  117OSM    H3S12185   6.304   5.199   7.663 -1.6778 -0.0444  0.2443
  117OSM     O312186   6.207   5.020   7.704  0.2446 -0.1457  0.1331
  117OSM    HO312187   6.273   4.951   7.696 -0.8081 -1.0031 -1.8195
  117OSM    C4S12188   6.144   5.184   7.534  0.2016 -0.4309 -0.0679
  117OSM    H4S12189   6.161   5.290   7.511 -0.7748 -0.1691  0.3594
  117OSM    C5S12190   6.032   5.115   7.485  0.5717  0.2950 -0.1632
  117OSM    H5S12191   5.998   5.023   7.534  0.5805  0.4116  0.0606
  117OSM    C6S12192   5.941   5.188   7.387  0.3518  0.1878  0.0152
  117OSM    H6S12193   5.860   5.245   7.437  0.5620  2.5218 -2.1254
  117OSM    H6T12194   5.885   5.115   7.324 -0.3843  1.1882 -0.5126
  117OSM    C7S12195   6.007   5.285   7.280  0.0364  0.6665  0.3400
  117OSM    H7S12196   6.074   5.363   7.322  1.5356  0.2078 -1.0650
  117OSM    H7T12197   5.939   5.355   7.226  0.0124  1.7274  1.7094
  117OSM    C8S12198   6.101   5.214   7.176  0.3796  0.2717  0.2240
  117OSM    H8S12199   6.048   5.122   7.142  1.7053 -0.0457 -1.1288
  117OSM    H8T12200   6.193   5.163   7.214  1.5101  1.1504 -1.2177
  117OSM    C9S12201   6.126   5.305   7.045 -0.1637  0.5917  0.2443
  117OSM    H9S12202   6.187   5.396   7.067  0.0650  0.1426  1.5530
  117OSM    H9T12203   6.028   5.346   7.010  0.7609  1.4905 -1.4396
  117OSM   C10S12204   6.186   5.242   6.921 -1.0577 -0.2056 -0.3040
  117OSM   H10S12205   6.118   5.157   6.901 -1.2853 -0.2842  0.7494
  117OSM   H10T12206   6.294   5.216   6.926 -0.8682  0.7175  2.5047
  117OSM   C11S12207   6.163   5.328   6.793  0.7111 -0.0829  0.0053
  117OSM   H11S12208   6.209   5.429   6.791  0.4994  0.0485  0.9425
  117OSM   H11T12209   6.055   5.354   6.789  0.6679 -0.0224  1.1293
  117OSM   C12S12210   6.203   5.261   6.659  0.5281 -0.4876  0.5073
  117OSM   H12S12211   6.163   5.157   6.650 -0.3824 -0.1304  0.3256
  117OSM   H12T12212   6.314   5.259   6.655  0.5071 -0.9738  0.0268
  117OSM   C13S12213   6.152   5.350   6.541  0.1935  0.4092 -0.7882
  117OSM   H13S12214   6.161   5.460   6.556  2.1597  0.4731 -1.9674
  117OSM   H13T12215   6.045   5.326   6.525 -0.1349  1.9227 -0.9853
  117OSM   C14S12216   6.233   5.309   6.411  0.3705 -0.6353 -0.1764
  117OSM   H14S12217   6.245   5.199   6.405  1.3141 -0.4520 -3.1686
  117OSM   H14T12218   6.337   5.346   6.410  0.7912 -1.7833 -1.8514
  117OSM   C15S12219   6.161   5.355   6.281  0.0955  0.4145  0.5302
  117OSM   H15S12220   6.149   5.465   6.281  0.4713  0.5011 -1.6402
  117OSM   H15T12221   6.057   5.316   6.280  0.2011  0.1401  0.0077
  117OSM   C16S12222   6.241   5.311   6.157 -0.1140 -0.4313  0.0653
  117OSM   H16S12223   6.171   5.320   6.071  0.9624  0.4870 -0.7403
  117OSM   H16T12224   6.259   5.201   6.157 -2.1835 -0.8121 -0.5611
  117OSM   C17S12225   6.373   5.381   6.134  0.2259  0.0849 -0.2707
  117OSM   H17S12226   6.453   5.355   6.206  2.1854 -0.5777 -2.5538
  117OSM   H17T12227   6.342   5.484   6.160 -2.5482 -0.8941  0.7185
  117OSM   C18S12228   6.425   5.378   5.991  0.6932 -0.4666 -0.2555
  117OSM   H18S12229   6.531   5.413   5.992 -0.0204  1.8627 -0.0009
  117OSM   H18T12230   6.364   5.452   5.936 -0.1541  0.3488  1.6712
  117OSM   H18U12231   6.402   5.283   5.939 -3.8650  0.6963 -0.7402
  117OSM    C1F12232   6.449   5.124   7.291 -0.3842  0.3132  0.6478
  117OSM     OF12233   6.413   5.027   7.229  0.4435 -0.3841 -0.7041
  117OSM    C2F12234   6.560   5.218   7.238 -0.0959  0.3720 -0.0991
  117OSM    H2F12235   6.648   5.151   7.245  0.1256  0.7953  1.6378
  117OSM    H2G12236   6.576   5.301   7.311 -0.4526  0.8517 -0.5520
  117OSM    C3F12237   6.519   5.270   7.104  0.7436 -0.5093  0.5760
  117OSM    H3F12238   6.426   5.330   7.118  1.2780 -0.1163  2.7535
  117OSM    H3G12239   6.491   5.192   7.029  0.9937  1.9668 -2.3217
  117OSM    C4F12240   6.626   5.374   7.051 -0.0447  0.3807 -0.1678
  117OSM    H4F12241   6.732   5.343   7.056  1.6705  4.5165 -3.9151
  117OSM    H4G12242   6.631   5.454   7.127 -1.4663 -0.5334  0.9417
  117OSM    C5F12243   6.617   5.427   6.905 -0.0696  0.6249  0.1120
  117OSM    H5F12244   6.711   5.482   6.883  0.7643 -1.5302 -2.1671
  117OSM    H5G12245   6.537   5.501   6.883  0.0778 -0.3257 -4.5890
  117OSM    C6F12246   6.610   5.316   6.796 -0.5700 -0.2966 -0.3102
  117OSM    H6F12247   6.520   5.253   6.813 -0.6859 -0.1934 -0.5425
  117OSM    H6G12248   6.698   5.250   6.814  0.6225  1.8091  2.3497
  117OSM    C7F12249   6.592   5.368   6.648  0.2551 -0.4061 -0.1587
  117OSM    H7F12250   6.486   5.398   6.632  0.2830  0.0097  0.3849
  117OSM    H7G12251   6.608   5.283   6.579 -0.7072 -1.4725  0.8671
  117OSM    C8F12252   6.686   5.482   6.612 -0.2290  0.6016 -0.3343
  117OSM    H8F12253   6.789   5.442   6.624  0.4257  1.9753 -1.0991
  117OSM    H8G12254   6.680   5.574   6.674 -1.4410  1.5195 -1.7356
  117OSM    C9F12255   6.673   5.529   6.473 -0.4816  0.2761 -0.6207
  117OSM    H9F12256   6.623   5.625   6.454  2.5709  2.1127 -0.0244
  117OSM   C10F12257   6.726   5.458   6.371 -0.0450 -0.1788 -0.0253
  117OSM   H10F12258   6.723   5.503   6.270  2.7146  1.4145  0.4891
  117OSM   C11F12259   6.788   5.326   6.376 -0.1634  0.1982 -0.2063
  117OSM   H11F12260   6.743   5.260   6.453  1.6484 -2.7268 -1.4827
  117OSM   H11G12261   6.898   5.336   6.386  0.1924  0.0806 -3.0219
  117OSM   C12F12262   6.754   5.239   6.253 -0.4378 -0.0215 -1.0182
  117OSM   H12F12263   6.644   5.231   6.243 -0.6464 -0.4528  1.0454
  117OSM   H12G12264   6.786   5.136   6.281 -0.3214  0.4671  0.8008
  117OSM   C13F12265   6.824   5.284   6.127  0.9050  0.3517 -0.2486
  117OSM   H13F12266   6.933   5.261   6.120  0.8929  0.4889 -0.8941
  117OSM   H13G12267   6.816   5.392   6.104 -1.3642  0.6059  1.4249
  117OSM   C14F12268   6.762   5.200   6.018  0.4529  0.5433 -0.0925
  117OSM   H14F12269   6.652   5.200   6.035  0.5710 -0.4565  0.8402
  117OSM   H14G12270   6.802   5.098   6.040  0.3914  0.3053 -1.0556
  117OSM   C15F12271   6.800   5.251   5.877  0.3685  0.2130  0.1903
  117OSM   H15F12272   6.910   5.264   5.870  0.1866  1.3774 -0.7288
  117OSM   H15G12273   6.750   5.349   5.865 -1.8647 -0.9981 -1.2151
  117OSM   C16F12274   6.755   5.150   5.773 -0.0976 -0.0699 -0.0172
  117OSM   H16F12275   6.652   5.108   5.786 -0.5390  0.6050 -1.1505
  117OSM   H16G12276   6.811   5.054   5.768 -1.3812 -0.7934 -1.6867
  117OSM   C17F12277   6.761   5.220   5.632 -0.1805  0.3416  0.0432
  117OSM   H17F12278   6.761   5.331   5.644  0.8113  0.5309 -1.4538
  117OSM   H17G12279   6.672   5.196   5.569 -0.3936 -0.4475  0.6248
  117OSM   C18F12280   6.872   5.166   5.540 -0.2956 -0.0363 -0.4508
  117OSM   H18F12281   6.853   5.206   5.438  0.0283  1.1665 -0.0513
  117OSM   H18G12282   6.883   5.056   5.535  1.0829  0.1048 -0.9989
  117OSM   H18H12283   6.973   5.207   5.562 -0.4373  0.5834 -0.9295
  118OSM      N12284   4.772   5.067   7.859  0.5130 -0.2591 -0.0740
  118OSM    C1512285   4.866   4.995   7.945 -0.0549  0.5988  0.1126
  118OSM   H15A12286   4.954   5.053   7.972  1.0078 -0.6222 -0.6032
  118OSM   H15B12287   4.908   4.913   7.888  0.0113  2.2283 -2.3301
  118OSM   H15C12288   4.825   4.952   8.035  2.0470  1.0889  1.3904
  118OSM    C1412289   4.833   5.080   7.720 -0.1588  0.0340 -0.3106
  118OSM   H14A12290   4.760   5.123   7.653 -2.2657 -1.6997  0.7173
  118OSM   H14B12291   4.863   4.980   7.690 -0.8488  0.0878 -1.2042
  118OSM   H14C12292   4.919   5.145   7.719  0.0947 -0.2569 -2.5219
  118OSM    C1312293   4.656   4.974   7.852 -0.1895 -0.3049 -0.2144
  118OSM   H13A12294   4.574   5.018   7.797  0.1924  0.1904 -0.4049
  118OSM   H13B12295   4.619   4.966   7.953  0.9812  1.3169  0.3984
  118OSM   H13C12296   4.678   4.882   7.801 -0.2391 -0.3749 -0.1090
  118OSM    C1212297   4.744   5.208   7.926  0.4221 -0.2688 -0.7505
  118OSM   H12A12298   4.692   5.209   8.021  0.7426  0.2668 -0.5740
  118OSM   H12B12299   4.673   5.248   7.855  0.6175  0.4331 -0.5525
  118OSM    C1112300   4.854   5.322   7.931 -0.8247 -0.9917 -0.3293
  118OSM   H11A12301   4.815   5.414   7.979  2.9222  1.9039 -2.2550
  118OSM   H11B12302   4.871   5.357   7.827  0.7015  2.3035  0.8573
  118OSM      P12303   5.112   5.304   7.945  0.2248  0.4300  0.3453
  118OSM    O1312304   5.157   5.441   7.963 -0.0646 -0.5823 -0.0369
  118OSM    O1412305   5.205   5.201   7.997  0.4447  0.0834 -0.2228
  118OSM    O1112306   5.084   5.278   7.787  0.2053 -0.3903 -0.1065
  118OSM    O1212307   4.967   5.284   8.012 -0.1481 -0.1916  0.1084
  118OSM    C1S12308   5.187   5.230   7.707 -0.3392  0.2829 -0.2124
  118OSM    H1S12309   5.216   5.128   7.742  1.3485  1.3378  1.6494
  118OSM    H1T12310   5.276   5.292   7.730  0.2138 -0.9427  1.1540
  118OSM     NF12311   5.278   5.184   7.495 -0.9422  0.4218  0.0092
  118OSM    HNF12312   5.336   5.261   7.471 -1.3832  0.4768 -0.9329
  118OSM    C2S12313   5.153   5.231   7.557  0.1983  0.1638  0.4921
  118OSM    H2S12314   5.071   5.157   7.544  0.3485  0.3719 -2.1964
  118OSM    C3S12315   5.101   5.370   7.515 -0.7689  0.0972  0.3583
  118OSM    H3S12316   5.181   5.445   7.534  0.7903 -1.5482  0.5976
  118OSM     O312317   4.989   5.404   7.592 -0.2862 -0.2016 -0.0606
  118OSM    HO312318   4.994   5.340   7.663  0.3849 -0.2970 -0.1923
  118OSM    C4S12319   5.079   5.391   7.372  0.0182 -0.2662  0.3805
  118OSM    H4S12320   5.172   5.421   7.321 -0.4536 -0.1178 -0.4031
  118OSM    C5S12321   4.977   5.375   7.288  0.3813 -0.1155 -0.8631
  118OSM    H5S12322   4.881   5.352   7.336 -0.0997  0.7738 -1.3838
  118OSM    C6S12323   4.969   5.393   7.139 -0.6388  0.2448  0.2273
  118OSM    H6S12324   4.900   5.469   7.098  2.9713  2.6790 -1.9424
  118OSM    H6T12325   4.950   5.290   7.102 -1.1455  0.1432  0.7538
  118OSM    C7S12326   5.112   5.445   7.089 -0.4212  0.1798 -0.2867
  118OSM    H7S12327   5.183   5.361   7.107 -0.5001  0.7311  3.3890
  118OSM    H7T12328   5.147   5.535   7.143  0.0049  0.4486 -0.9985
  118OSM    C8S12329   5.111   5.493   6.946 -0.3963 -0.0867  0.1839
  118OSM    H8S12330   5.044   5.581   6.934  1.0157  0.9927 -0.1808
  118OSM    H8T12331   5.072   5.419   6.874 -1.7631 -0.0731  0.8738
  118OSM    C9S12332   5.252   5.549   6.908  0.1742  0.0369 -0.7042
  118OSM    H9S12333   5.321   5.467   6.936 -0.3994  0.0244  0.7748
  118OSM    H9T12334   5.288   5.628   6.977  1.1556 -2.0605  1.3217
  118OSM   C10S12335   5.267   5.609   6.771 -0.7141  0.5027  0.3385
  118OSM   H10S12336   5.371   5.647   6.773 -0.7916  0.7655 -0.4056
  118OSM   H10T12337   5.200   5.696   6.755  0.8751  1.6838 -0.1186
  118OSM   C11S12338   5.259   5.514   6.649  0.0115  0.4718  0.4167
  118OSM   H11S12339   5.160   5.467   6.636  0.9358 -1.4370  0.0471
  118OSM   H11T12340   5.342   5.445   6.673 -0.4157 -0.0766  0.3181
  118OSM   C12S12341   5.276   5.595   6.518  0.0347  0.0534  0.7330
  118OSM   H12S12342   5.374   5.647   6.518 -0.3078  0.7818  2.5077
  118OSM   H12T12343   5.184   5.656   6.506  0.9736  1.0247 -2.3564
  118OSM   C13S12344   5.277   5.503   6.393 -0.1422 -0.3445  0.0803
  118OSM   H13S12345   5.198   5.426   6.391 -0.1907 -0.3013 -2.3749
  118OSM   H13T12346   5.369   5.441   6.386 -0.4099 -0.8171  0.7137
  118OSM   C14S12347   5.260   5.587   6.260  0.2526 -0.6868 -0.7134
  118OSM   H14S12348   5.318   5.682   6.264 -1.2355  0.2437 -0.2361
  118OSM   H14T12349   5.151   5.611   6.266  0.0852 -1.6888  0.7258
  118OSM   C15S12350   5.282   5.486   6.146  0.6209  0.1410  1.2316
  118OSM   H15S12351   5.218   5.399   6.175  0.4949  0.4894  2.0300
  118OSM   H15T12352   5.388   5.452   6.140  0.3225 -0.5305 -1.3208
  118OSM   C16S12353   5.249   5.524   6.008 -0.6192 -0.0737  1.1914
  118OSM   H16S12354   5.331   5.591   5.973  0.7569 -1.2447  2.0777
  118OSM   H16T12355   5.152   5.580   6.002 -0.9218 -0.7224 -0.5043
  118OSM   C17S12356   5.210   5.410   5.911  0.2963  0.2312  0.0096
  118OSM   H17S12357   5.112   5.367   5.941  0.5484  0.1400  0.7286
  118OSM   H17T12358   5.285   5.329   5.920 -0.2903 -0.1369  2.2966
  118OSM   C18S12359   5.193   5.455   5.760  0.3138  0.4553  0.0670
  118OSM   H18S12360   5.265   5.536   5.736  0.5681  0.3250  0.3845
  118OSM   H18T12361   5.090   5.492   5.741 -0.0246 -0.4420  0.1031
  118OSM   H18U12362   5.225   5.368   5.699  0.9640 -0.8076  2.1334
  118OSM    C1F12363   5.334   5.062   7.494  0.5657  0.0570  0.5700
  118OSM     OF12364   5.270   4.962   7.540  0.1445 -0.4132  0.6012
  118OSM    C2F12365   5.474   5.046   7.441  0.7957 -0.0764  0.0935
  118OSM    H2F12366   5.546   4.998   7.510  0.4537  0.4970  0.8600
  118OSM    H2G12367   5.507   5.150   7.419  2.4617 -0.3640  1.0939
  118OSM    C3F12368   5.488   4.983   7.302  0.5865 -0.0631 -0.3573
  118OSM    H3F12369   5.457   4.876   7.301 -2.9563  0.8372  0.1593
  118OSM    H3G12370   5.597   4.984   7.278  1.2226 -0.2889  2.2438
  118OSM    C4F12371   5.427   5.054   7.182 -0.2921 -0.1778 -0.1248
  118OSM    H4F12372   5.467   5.158   7.174  1.5960 -0.7996  0.6202
  118OSM    H4G12373   5.318   5.061   7.204 -0.2009  0.5016  0.1574
  118OSM    C5F12374   5.445   4.978   7.051  0.0127 -0.5076  0.0109
  118OSM    H5F12375   5.436   4.869   7.066  1.0867 -0.8407 -1.4805
  118OSM    H5G12376   5.546   4.990   7.005  0.3407  0.2759  0.8931
  118OSM    C6F12377   5.343   5.017   6.950  0.3120  0.4356  0.4655
  118OSM    H6F12378   5.351   5.127   6.940  0.5171  0.5975  2.0574
  118OSM    H6G12379   5.245   4.994   6.997  0.3866 -1.8426 -0.3392
  118OSM    C7F12380   5.353   4.931   6.822 -0.6307  0.2070  0.3381
  118OSM    H7F12381   5.348   4.823   6.847 -0.3175  0.1178  0.0240
  118OSM    H7G12382   5.454   4.954   6.780 -0.5526  1.1482  1.0041
  118OSM    C8F12383   5.237   4.946   6.724 -0.6008 -0.4908 -0.5713
  118OSM    H8F12384   5.154   4.914   6.790 -2.3333 -0.8753 -2.8070
  118OSM    H8G12385   5.241   4.874   6.640  0.7593 -0.0681 -0.8904
  118OSM    C9F12386   5.203   5.082   6.674  0.3831 -0.3575 -0.1051
  118OSM    H9F12387   5.131   5.148   6.726  1.9440  0.0844  1.5807
  118OSM   C10F12388   5.255   5.139   6.566 -0.3471 -0.8191 -0.0079
  118OSM   H10F12389   5.220   5.237   6.531 -1.4816 -1.5512 -1.0210
  118OSM   C11F12390   5.359   5.082   6.481  0.7621 -0.7981  0.2937
  118OSM   H11F12391   5.405   4.988   6.519 -0.2283 -0.8074  1.5074
  118OSM   H11G12392   5.447   5.150   6.476  0.8338 -0.8325  0.9731
  118OSM   C12F12393   5.313   5.048   6.330 -0.4963 -0.6351 -0.2168
  118OSM   H12F12394   5.259   5.139   6.294 -0.1276  0.3948  1.6820
  118OSM   H12G12395   5.243   4.964   6.351 -0.5423 -0.8402 -1.1701
  118OSM   C13F12396   5.428   5.025   6.242 -0.5212  0.5134 -0.1859
  118OSM   H13F12397   5.463   4.921   6.262 -1.8300 -0.1467 -1.1280
  118OSM   H13G12398   5.517   5.088   6.261  0.3945 -0.3714 -1.3443
  118OSM   C14F12399   5.390   5.043   6.099 -0.6089  0.3923  0.6852
  118OSM   H14F12400   5.366   5.148   6.073  2.8620  1.4998  1.3803
  118OSM   H14G12401   5.304   4.974   6.085  1.2044 -1.6504 -1.4046
  118OSM   C15F12402   5.501   4.986   5.996 -0.8415 -0.0618  1.0212
  118OSM   H15F12403   5.554   4.900   6.041  0.7941  0.6267  0.4587
  118OSM   H15G12404   5.566   5.076   5.995 -0.8864  0.0169  2.7722
  118OSM   C16F12405   5.450   4.932   5.860 -0.0882  0.1250 -0.5583
  118OSM   H16F12406   5.400   5.020   5.815  0.8645  1.4409  0.8625
  118OSM   H16G12407   5.371   4.856   5.878  0.1448 -0.3596 -1.4813
  118OSM   C17F12408   5.561   4.882   5.768  0.5040  0.1526 -0.3580
  118OSM   H17F12409   5.630   4.816   5.824  0.0888 -0.3646 -0.4601
  118OSM   H17G12410   5.629   4.962   5.730 -0.5335  0.5533 -1.4509
  118OSM   C18F12411   5.498   4.811   5.642  0.5126 -0.1764  0.0148
  118OSM   H18F12412   5.575   4.744   5.598 -1.1530 -2.2336  0.0684
  118OSM   H18G12413   5.464   4.880   5.562 -1.3754 -1.0254  0.0501
  118OSM   H18H12414   5.424   4.742   5.687 -0.4663 -0.1185 -1.4512
  119OSM      N12415   1.144   1.618   8.055 -0.0455  0.2849  0.1376
  119OSM    C1512416   1.170   1.469   8.057 -0.0776  0.2817  0.0855
  119OSM   H15A12417   1.087   1.400   8.057  3.5030 -4.5738  2.2309
  119OSM   H15B12418   1.228   1.429   8.138 -0.3250 -1.5122 -0.5817
  119OSM   H15C12419   1.224   1.444   7.967  0.0851  1.9439 -0.3264
  119OSM    C1412420   1.060   1.671   8.169  0.3635  0.6194  0.3750
  119OSM   H14A12421   1.052   1.778   8.164 -0.7304  0.6912  2.4433
  119OSM   H14B12422   1.108   1.654   8.265 -0.4867 -0.4768  0.6301
  119OSM   H14C12423   0.962   1.626   8.170  1.5131 -2.0824  0.8994
  119OSM    C1312424   1.269   1.689   8.081  0.4599  0.7331  0.3286
  119OSM   H13A12425   1.346   1.650   8.017 -0.8730 -0.5209 -0.5768
  119OSM   H13B12426   1.298   1.673   8.184 -2.4605 -1.8987  0.9226
  119OSM   H13C12427   1.253   1.795   8.065 -0.3331  0.6022  0.1829
  119OSM    C1212428   1.079   1.660   7.929 -0.1193  0.3372 -0.7003
  119OSM   H12A12429   1.064   1.767   7.936 -1.2423  0.1425  0.1015
  119OSM   H12B12430   0.980   1.617   7.923 -0.0572  0.2096 -0.8173
  119OSM    C1112431   1.150   1.611   7.802 -0.1237 -0.1126  0.1500
  119OSM   H11A12432   1.084   1.635   7.717 -0.1886 -3.6540 -0.9901
  119OSM   H11B12433   1.147   1.500   7.798  0.4003 -0.1195 -0.2667
  119OSM      P12434   1.388   1.602   7.704  0.3890 -0.3617 -0.2400
  119OSM    O1312435   1.507   1.684   7.706 -0.0543 -0.5352  0.3025
  119OSM    O1412436   1.409   1.463   7.758 -0.7579 -0.2957  0.4734
  119OSM    O1112437   1.322   1.588   7.562 -0.2071 -0.6076 -0.2762
  119OSM    O1212438   1.277   1.667   7.791  0.1080  0.1851  0.1297
  119OSM    C1S12439   1.304   1.697   7.474  0.6125 -0.3425 -0.4320
  119OSM    H1S12440   1.402   1.749   7.469 -0.2217  1.2940 -0.4726
  119OSM    H1T12441   1.230   1.771   7.514  2.2169  0.2120  1.6955
  119OSM     NF12442   1.305   1.733   7.224  0.4770  0.5314  0.2255
  119OSM    HNF12443   1.231   1.785   7.182  1.6653  1.0523 -1.3115
  119OSM    C2S12444   1.266   1.645   7.333 -0.3990  0.2520 -0.1028
  119OSM    H2S12445   1.328   1.555   7.316  1.0796  1.0900  0.6771
  119OSM    C3S12446   1.117   1.592   7.332 -0.5208  0.6675 -0.8039
  119OSM    H3S12447   1.039   1.667   7.355 -1.5029 -0.7988  0.9759
  119OSM     O312448   1.095   1.498   7.440  0.0452 -0.0815 -0.0699
  119OSM    HO312449   1.154   1.534   7.506 -1.3942  0.4415  0.9900
  119OSM    C4S12450   1.080   1.511   7.214  0.5413 -0.0249 -0.2471
  119OSM    H4S12451   1.140   1.419   7.203 -1.9866 -1.6579 -1.2608
  119OSM    C5S12452   0.992   1.545   7.122 -0.1667  0.3296  0.3170
  119OSM    H5S12453   0.935   1.639   7.133  2.1053  1.7474  0.6545
  119OSM    C6S12454   0.963   1.468   6.995  0.5323 -0.4326 -0.0435
  119OSM    H6S12455   0.950   1.536   6.908 -1.6462  0.9439  1.2671
  119OSM    H6T12456   0.860   1.430   7.011 -0.6773  2.0264 -1.3315
  119OSM    C7S12457   1.063   1.349   6.954  0.0567 -0.2229 -0.8761
  119OSM    H7S12458   1.076   1.281   7.041 -1.6368  1.2157  0.5785
  119OSM    H7T12459   1.159   1.402   6.935 -0.1761  1.1588  1.5230
  119OSM    C8S12460   1.022   1.267   6.830 -0.1370  0.1444 -0.3868
  119OSM    H8S12461   0.926   1.217   6.856  0.2724  0.5042  2.0306
  119OSM    H8T12462   1.093   1.182   6.815 -2.0233 -1.5255 -0.3345
  119OSM    C9S12463   1.001   1.358   6.706  0.0153  0.0205  0.2288
  119OSM    H9S12464   1.094   1.412   6.679 -0.7993  1.6199  0.4800
  119OSM    H9T12465   0.925   1.435   6.732  1.3298  0.9736  1.3982
  119OSM   C10S12466   0.954   1.280   6.580  0.6412 -0.0381  0.1069
  119OSM   H10S12467   0.868   1.212   6.599 -0.3457  0.7512 -1.3262
  119OSM   H10T12468   1.041   1.221   6.544  1.4476  1.6005 -0.7637
  119OSM   C11S12469   0.897   1.387   6.480  0.1327  1.0079 -0.7030
  119OSM   H11S12470   0.971   1.469   6.469  0.0069  1.2408  0.1043
  119OSM   H11T12471   0.813   1.434   6.536 -0.3975 -1.9002  1.1165
  119OSM   C12S12472   0.858   1.324   6.343 -0.1346  0.1011 -0.0560
  119OSM   H12S12473   0.778   1.392   6.307 -0.0038 -0.4687 -1.4945
  119OSM   H12T12474   0.811   1.225   6.365 -0.4628  0.0771 -0.8546
  119OSM   C13S12475   0.983   1.322   6.251  0.2848  0.2682  0.5301
  119OSM   H13S12476   1.069   1.262   6.288  1.2387  0.6126 -1.0411
  119OSM   H13T12477   1.027   1.423   6.236  1.8202 -0.6195 -1.4140
  119OSM   C14S12478   0.947   1.279   6.113 -0.0587 -0.0367  0.2450
  119OSM   H14S12479   0.849   1.326   6.090 -0.1790  0.2676  1.3661
  119OSM   H14T12480   0.938   1.168   6.108  1.5976 -0.1891  0.1504
  119OSM   C15S12481   1.052   1.304   6.010  0.8195 -0.7076  0.4962
  119OSM   H15S12482   1.148   1.250   6.030  2.3749  0.7211 -2.4282
  119OSM   H15T12483   1.066   1.414   6.014 -0.0601 -0.6035  0.7948
  119OSM   C16S12484   0.995   1.260   5.870 -0.0061  0.1696 -0.4542
  119OSM   H16S12485   0.884   1.268   5.872  0.0595  1.3617  2.1763
  119OSM   H16T12486   1.026   1.153   5.861  0.5477  0.3609 -0.8621
  119OSM   C17S12487   1.039   1.332   5.750 -0.1322 -0.2215  0.3992
  119OSM   H17S12488   0.981   1.292   5.665  0.9406  0.3754 -0.6427
  119OSM   H17T12489   1.145   1.303   5.735  0.3800  0.7216  1.9039
  119OSM   C18S12490   1.032   1.488   5.753 -0.0286 -0.8470  0.3075
  119OSM   H18S12491   0.930   1.522   5.781  0.8283  2.1795  0.0173
  119OSM   H18T12492   1.055   1.534   5.655  2.6352 -0.3388  1.0893
  119OSM   H18U12493   1.103   1.534   5.824 -1.3606  2.3956 -0.3100
  119OSM    C1F12494   1.431   1.758   7.190 -0.1619 -0.3027 -0.5148
  119OSM     OF12495   1.519   1.682   7.237  0.0606 -0.8456 -0.5309
  119OSM    C2F12496   1.465   1.887   7.129 -0.7796 -1.1024  0.4788
  119OSM    H2F12497   1.537   1.947   7.190  0.0171  0.1032 -1.5627
  119OSM    H2G12498   1.371   1.946   7.124 -0.9222 -1.0853  2.3661
  119OSM    C3F12499   1.506   1.867   6.986  0.1797  0.4474 -0.3001
  119OSM    H3F12500   1.420   1.824   6.931  0.5568 -0.0514 -0.5059
  119OSM    H3G12501   1.593   1.797   6.983  0.0187  0.2803 -1.3940
  119OSM    C4F12502   1.551   2.003   6.924 -0.3820 -0.0641  0.3758
  119OSM    H4F12503   1.651   2.034   6.961 -0.0805  0.9539 -1.1790
  119OSM    H4G12504   1.482   2.088   6.940  1.1201  1.1068  0.7911
  119OSM    C5F12505   1.557   2.001   6.769  0.0166 -0.3103  0.0084
  119OSM    H5F12506   1.458   1.971   6.729 -0.1439 -2.3721  1.7425
  119OSM    H5G12507   1.627   1.923   6.733 -1.2382 -1.4785  0.0120
  119OSM    C6F12508   1.599   2.134   6.716  0.0378 -0.2281  0.0330
  119OSM    H6F12509   1.704   2.160   6.740  0.5654 -0.4902 -1.7927
  119OSM    H6G12510   1.542   2.211   6.771  0.0695 -0.5943  0.5914
  119OSM    C7F12511   1.574   2.157   6.563 -0.5694  0.2537  0.4340
  119OSM    H7F12512   1.472   2.195   6.544 -0.3313  0.2832 -0.8455
  119OSM    H7G12513   1.588   2.059   6.514  0.8459  0.9614 -0.6578
  119OSM    C8F12514   1.667   2.262   6.497  0.4098 -0.0606 -0.5296
  119OSM    H8F12515   1.669   2.244   6.387  0.2812  1.1889 -0.7611
  119OSM    H8G12516   1.772   2.249   6.532  0.7133  1.1221 -0.9377
  119OSM    C9F12517   1.628   2.410   6.518  0.2668 -0.3467  0.4299
  119OSM    H9F12518   1.547   2.443   6.452  1.2221 -1.1530 -1.1843
  119OSM   C10F12519   1.693   2.509   6.586  0.0312 -0.1199 -0.6268
  119OSM   H10F12520   1.648   2.609   6.582  0.7680  0.2449 -0.0457
  119OSM   C11F12521   1.823   2.497   6.661  0.3443 -0.0712  0.5678
  119OSM   H11F12522   1.889   2.422   6.612 -0.3969  0.6012 -1.5888
  119OSM   H11G12523   1.826   2.479   6.771  2.6341  1.8466  0.9230
  119OSM   C12F12524   1.907   2.632   6.638  0.4344  0.2289  0.1654
  119OSM   H12F12525   1.851   2.717   6.683  0.1867 -1.1204  2.5538
  119OSM   H12G12526   1.905   2.650   6.528 -0.1473  1.0100  0.2955
  119OSM   C13F12527   2.043   2.615   6.702 -0.1735  0.0970  0.1557
  119OSM   H13F12528   2.116   2.565   6.635 -1.3788  1.2049 -2.0948
  119OSM   H13G12529   2.036   2.546   6.788  0.8698  0.3120  0.4324
  119OSM   C14F12530   2.096   2.750   6.738 -0.2790 -0.3209  0.4168
  119OSM   H14F12531   2.021   2.811   6.793  0.3909 -0.4249  1.4641
  119OSM   H14G12532   2.114   2.811   6.647 -3.4690  0.9106  0.4913
  119OSM   C15F12533   2.219   2.742   6.830 -0.2293  0.2570 -0.6457
  119OSM   H15F12534   2.290   2.662   6.802  1.0792  1.7341 -1.7091
  119OSM   H15G12535   2.173   2.709   6.926 -1.9983  1.3726 -1.0668
  119OSM   C16F12536   2.293   2.872   6.848  1.1603 -0.5100 -0.0033
  119OSM   H16F12537   2.212   2.943   6.873  0.6887 -0.8807 -0.4570
  119OSM   H16G12538   2.342   2.903   6.753  2.9267 -4.2966 -0.5223
  119OSM   C17F12539   2.387   2.854   6.971  0.1600 -0.2356  0.6717
  119OSM   H17F12540   2.430   2.755   6.943 -0.3394 -0.6016  1.1736
  119OSM   H17G12541   2.322   2.845   7.060 -0.1086 -2.0118  0.3366
  119OSM   C18F12542   2.489   2.966   6.985 -0.3079  0.4600  0.3376
  119OSM   H18F12543   2.571   2.940   7.055  0.3595 -0.2779 -0.6946
  119OSM   H18G12544   2.453   3.065   7.019  0.8844  1.4869 -1.2556
  119OSM   H18H12545   2.544   2.961   6.888 -3.0923 -0.5565 -1.2957
  120OSM      N12546   5.740   0.218   7.954 -0.5720 -0.1382 -0.0852
  120OSM    C1512547   5.597   0.171   7.965  0.2285  0.2138  0.4161
  120OSM   H15A12548   5.585   0.089   7.896  0.2866  0.6627 -0.1301
  120OSM   H15B12549   5.525   0.251   7.957 -0.2978 -0.0119  2.3866
  120OSM   H15C12550   5.581   0.134   8.066  0.3410 -0.9640  0.0157
  120OSM    C1412551   5.769   0.260   7.818 -0.0537 -0.1578  0.1565
  120OSM   H14A12552   5.703   0.336   7.780 -1.0386 -0.7760  0.6077
  120OSM   H14B12553   5.776   0.178   7.748 -0.7349  0.5299 -0.7364
  120OSM   H14C12554   5.864   0.310   7.809  0.4463 -1.3031 -1.4916
  120OSM    C1312555   5.757   0.347   8.033 -0.2202  0.7394  0.1295
  120OSM   H13A12556   5.757   0.321   8.137  2.4818 -0.3320 -0.0682
  120OSM   H13B12557   5.678   0.417   8.007 -0.9532  0.3708  1.2909
  120OSM   H13C12558   5.848   0.400   8.008 -1.0340  1.7835 -0.7215
  120OSM    C1212559   5.822   0.103   7.996 -0.1087 -0.0370 -0.0792
  120OSM   H12A12560   5.815   0.080   8.101  0.6680  0.7439  0.1543
  120OSM   H12B12561   5.924   0.137   7.983  0.8389 -1.9553  1.6665
  120OSM    C1112562   5.812  -0.028   7.914  0.5468 -0.5632  0.2447
  120OSM   H11A12563   5.710  -0.035   7.870  1.0668  2.3866 -1.7242
  120OSM   H11B12564   5.851  -0.111   7.977  0.6968 -1.3916 -0.8852
  120OSM      P12565   5.929  -0.150   7.714 -0.2253 -0.4117 -0.3254
  120OSM    O1312566   6.076  -0.166   7.722 -0.1932 -0.6469 -0.1899
  120OSM    O1412567   5.847  -0.257   7.775  0.1952  0.5262 -0.0602
  120OSM    O1112568   5.888  -0.112   7.567  0.3364 -0.3573 -0.7864
  120OSM    O1212569   5.902  -0.014   7.798 -0.0815 -0.1215  0.1658
  120OSM    C1S12570   5.766  -0.050   7.520  0.3019 -0.4290 -0.2281
  120OSM    H1S12571   5.790   0.058   7.531  2.8802 -0.9756  0.2371
  120OSM    H1T12572   5.685  -0.061   7.595 -0.2898  1.2905 -0.5638
  120OSM     NF12573   5.585  -0.003   7.362 -0.0014 -0.0697  0.2806
  120OSM    HNF12574   5.511  -0.066   7.384 -0.6038  0.7200  0.5790
  120OSM    C2S12575   5.717  -0.068   7.369  0.3233 -0.3757  0.2060
  120OSM    H2S12576   5.787  -0.012   7.303 -0.2143 -0.6867 -0.6503
  120OSM    C3S12577   5.714  -0.226   7.324 -0.3680 -0.6742 -0.3839
  120OSM    H3S12578   5.649  -0.274   7.400  1.4956  1.1663  2.5781
  120OSM     O312579   5.845  -0.286   7.336  0.5993  0.0426 -0.0691
  120OSM    HO312580   5.894  -0.233   7.399  2.7666 -0.3335 -1.3340
  120OSM    C4S12581   5.662  -0.238   7.185 -0.2067 -0.1499  0.3160
  120OSM    H4S12582   5.729  -0.199   7.107  0.9106 -0.4198  1.1048
  120OSM    C5S12583   5.536  -0.264   7.154 -0.4129  0.2326 -0.5064
  120OSM    H5S12584   5.464  -0.276   7.237  0.5577 -0.0610  0.3143
  120OSM    C6S12585   5.481  -0.280   7.022 -0.4748 -0.1388  0.6387
  120OSM    H6S12586   5.375  -0.310   7.031 -0.8739  1.0242  0.0920
  120OSM    H6T12587   5.542  -0.352   6.963 -0.6488  0.5928 -0.4616
  120OSM    C7S12588   5.488  -0.145   6.950  0.0138 -0.1107  0.3004
  120OSM    H7S12589   5.595  -0.116   6.938 -0.4182  0.8774 -1.5153
  120OSM    H7T12590   5.436  -0.070   7.014  0.0371 -2.0336  2.7239
  120OSM    C8S12591   5.413  -0.153   6.813 -0.2968  0.7237  0.6445
  120OSM    H8S12592   5.410  -0.046   6.785 -2.7454  0.6995  0.6128
  120OSM    H8T12593   5.310  -0.193   6.826 -0.5452  0.2237 -2.2239
  120OSM    C9S12594   5.487  -0.226   6.709 -0.3173  0.2295  0.5720
  120OSM    H9S12595   5.499  -0.329   6.749 -1.7343 -0.0203  0.4248
  120OSM    H9T12596   5.586  -0.182   6.689  0.4051 -0.3683  2.5882
  120OSM   C10S12597   5.406  -0.225   6.580 -0.1525 -0.1516  0.1283
  120OSM   H10S12598   5.421  -0.128   6.528 -1.4072  1.5668  2.7948
  120OSM   H10T12599   5.301  -0.239   6.613  0.1457 -0.2183  1.0680
  120OSM   C11S12600   5.447  -0.339   6.491  0.3580 -0.3979  0.0323
  120OSM   H11S12601   5.410  -0.440   6.521 -0.5273 -1.2024 -3.2914
  120OSM   H11T12602   5.558  -0.339   6.495  0.3620  0.1785 -0.0976
  120OSM   C12S12603   5.390  -0.322   6.345 -0.3936  0.4311 -0.5230
  120OSM   H12S12604   5.409  -0.216   6.320 -2.6628  0.9596 -0.1935
  120OSM   H12T12605   5.284  -0.355   6.347  0.1429 -1.5337 -1.6494
  120OSM   C13S12606   5.464  -0.419   6.253  0.3346  0.3464  0.1531
  120OSM   H13S12607   5.419  -0.519   6.272 -1.9771  1.7565  2.6726
  120OSM   H13T12608   5.568  -0.444   6.281  0.6744  2.1089  0.5697
  120OSM   C14S12609   5.447  -0.379   6.110  0.0369 -0.0648  0.1465
  120OSM   H14S12610   5.340  -0.351   6.097 -0.2911 -2.0414 -1.9697
  120OSM   H14T12611   5.454  -0.462   6.037 -1.2492 -0.4578  0.4477
  120OSM   C15S12612   5.550  -0.278   6.070 -0.0719  0.2685  0.3823
  120OSM   H15S12613   5.652  -0.323   6.077  0.4528  1.1508 -1.1868
  120OSM   H15T12614   5.555  -0.187   6.134  0.0881 -0.2512  1.1193
  120OSM   C16S12615   5.533  -0.225   5.935  0.2659 -0.4890  0.2319
  120OSM   H16S12616   5.511  -0.306   5.862 -0.3280  0.7198 -0.9815
  120OSM   H16T12617   5.628  -0.171   5.912 -0.6179  2.2745  2.5978
  120OSM   C17S12618   5.415  -0.130   5.931  0.1075  0.2168  0.1506
  120OSM   H17S12619   5.419  -0.064   6.020  0.5987  1.9223 -1.0833
  120OSM   H17T12620   5.323  -0.192   5.937  0.9014 -1.0506 -0.2180
  120OSM   C18S12621   5.422  -0.036   5.812 -0.2990 -0.0564 -0.1383
  120OSM   H18S12622   5.337   0.034   5.822 -0.2030  0.0681 -0.1919
  120OSM   H18T12623   5.416  -0.085   5.713 -0.1089  0.6549 -0.5052
  120OSM   H18U12624   5.518   0.020   5.813 -0.9088  1.0256 -0.5347
  120OSM    C1F12625   5.576   0.129   7.367 -0.0906 -0.3017  0.4501
  120OSM     OF12626   5.674   0.202   7.375 -0.6309  0.0959  0.9026
  120OSM    C2F12627   5.436   0.185   7.339 -0.7742 -0.1578  0.4018
  120OSM    H2F12628   5.446   0.295   7.335 -2.0876  0.0087  0.9704
  120OSM    H2G12629   5.362   0.148   7.413 -0.4375 -1.5013  0.0938
  120OSM    C3F12630   5.390   0.146   7.197 -0.9583  0.5784  0.3950
  120OSM    H3F12631   5.386   0.035   7.203 -0.7752  0.3347 -2.5625
  120OSM    H3G12632   5.465   0.175   7.121  0.0099 -0.5862  0.8669
  120OSM    C4F12633   5.253   0.204   7.157 -0.5371 -0.1522  0.2371
  120OSM    H4F12634   5.178   0.183   7.236  0.5374  1.4950  1.7663
  120OSM    H4G12635   5.218   0.154   7.064  1.1989  1.4468 -1.3816
  120OSM    C5F12636   5.265   0.352   7.129 -0.1331 -0.3336 -0.1234
  120OSM    H5F12637   5.370   0.380   7.105  0.3285 -1.9695 -0.1281
  120OSM    H5G12638   5.259   0.392   7.232  1.3518  0.4832 -0.3282
  120OSM    C6F12639   5.165   0.402   7.020  0.4919  0.1864  0.2284
  120OSM    H6F12640   5.063   0.387   7.061 -0.1135 -0.1488 -1.3452
  120OSM    H6G12641   5.174   0.346   6.924  0.1626  0.4155  0.0626
  120OSM    C7F12642   5.180   0.550   6.990  0.6753 -0.4551  0.0537
  120OSM    H7F12643   5.272   0.583   6.937 -0.0608 -0.3634 -1.2206
  120OSM    H7G12644   5.180   0.604   7.087  0.7036  0.1069 -0.2520
  120OSM    C8F12645   5.062   0.600   6.906 -0.2840  0.0597  0.1158
  120OSM    H8F12646   5.055   0.710   6.915 -2.6890 -0.0477  0.0776
  120OSM    H8G12647   4.968   0.563   6.953 -0.7765 -1.7264 -2.0584
  120OSM    C9F12648   5.077   0.558   6.755 -0.2058 -0.3619 -1.0887
  120OSM    H9F12649   5.081   0.449   6.748  2.1232 -0.5060  0.9240
  120OSM   C10F12650   5.079   0.637   6.649  0.4517  0.1807  0.5131
  120OSM   H10F12651   5.079   0.594   6.548 -0.3845 -3.7028  1.9847
  120OSM   C11F12652   5.060   0.785   6.648  0.3219 -0.4425  0.1623
  120OSM   H11F12653   5.142   0.838   6.594 -1.6615  1.9856 -0.6697
  120OSM   H11G12654   5.065   0.832   6.748  1.2915 -2.0799  0.9300
  120OSM   C12F12655   4.922   0.829   6.588  0.4439 -0.0889  0.9447
  120OSM   H12F12656   4.914   0.939   6.599  1.9739  0.4223 -2.0249
  120OSM   H12G12657   4.835   0.779   6.635 -2.3674  3.8710  0.4434
  120OSM   C13F12658   4.899   0.799   6.442 -0.5263 -0.1628  0.8652
  120OSM   H13F12659   4.795   0.824   6.411 -0.5952 -1.8633 -0.3864
  120OSM   H13G12660   4.898   0.690   6.423  0.9625  0.1202 -1.1289
  120OSM   C14F12661   5.000   0.869   6.345 -0.6008  0.6872  0.2684
  120OSM   H14F12662   5.103   0.842   6.376 -1.3676 -2.5605  0.3128
  120OSM   H14G12663   4.974   0.976   6.358  1.2668  1.1661  0.3364
  120OSM   C15F12664   4.978   0.824   6.197  0.5173  0.2550 -0.1478
  120OSM   H15F12665   4.868   0.831   6.184  0.2959 -0.9295  0.8296
  120OSM   H15G12666   4.999   0.717   6.173  3.2959  0.9173 -1.0256
  120OSM   C16F12667   5.047   0.911   6.100  0.4721 -0.4847  0.2705
  120OSM   H16F12668   5.152   0.874   6.104  0.0971 -1.5189  1.8882
  120OSM   H16G12669   5.063   1.013   6.139  3.7348 -0.4733 -0.8555
  120OSM   C17F12670   4.992   0.912   5.956 -0.5236 -0.2895  0.9099
  120OSM   H17F12671   4.882   0.922   5.952 -0.8725 -2.8145  2.0836
  120OSM   H17G12672   5.012   0.817   5.901  0.6155  0.8296 -0.6850
  120OSM   C18F12673   5.058   1.023   5.874 -0.0696 -0.1773 -0.4509
  120OSM   H18F12674   5.018   1.017   5.770 -1.8153 -0.8426  0.2225
  120OSM   H18G12675   5.167   1.005   5.879 -0.2761 -1.1335  1.8710
  120OSM   H18H12676   5.031   1.120   5.921 -1.4189 -1.4103  1.4810
  121OSM      N12677   3.657   3.759   7.764 -0.1341 -0.0929 -0.7620
  121OSM    C1512678   3.675   3.909   7.762  0.1000  0.1799 -0.1168
  121OSM   H15A12679   3.680   3.948   7.661 -0.4189  1.3256  0.2813
  121OSM   H15B12680   3.775   3.933   7.794  0.3798  0.9926 -1.4855
  121OSM   H15C12681   3.598   3.965   7.813 -1.1158 -0.4802 -1.1801
  121OSM    C1412682   3.752   3.695   7.670  0.3766 -0.6701  0.1615
  121OSM   H14A12683   3.733   3.749   7.578  0.9609  0.7264  0.8340
  121OSM   H14B12684   3.728   3.590   7.659 -0.0405 -0.6543  0.8144
  121OSM   H14C12685   3.855   3.705   7.699  0.1920  1.3299  0.2149
  121OSM    C1312686   3.693   3.715   7.905  0.5209 -0.0950  0.4730
  121OSM   H13A12687   3.665   3.611   7.907 -0.1637  0.0760  0.1162
  121OSM   H13B12688   3.628   3.752   7.983  0.8090 -0.6540  0.9826
  121OSM   H13C12689   3.795   3.743   7.928  0.9903 -3.3869  3.1159
  121OSM    C1212690   3.514   3.725   7.722 -0.1626 -0.2035 -0.0851
  121OSM   H12A12691   3.487   3.775   7.630  0.5643  2.0648  0.8638
  121OSM   H12B12692   3.440   3.751   7.797  1.0816  0.6868  0.8744
  121OSM    C1112693   3.480   3.574   7.716 -0.3776  0.5580  0.1542
  121OSM   H11A12694   3.546   3.546   7.631 -0.1659 -2.1080  1.1030
  121OSM   H11B12695   3.375   3.559   7.683 -0.4784 -2.1257  1.3977
  121OSM      P12696   3.510   3.331   7.824  0.3307 -0.2372  0.3732
  121OSM    O1312697   3.591   3.280   7.934 -0.0334 -0.1159  0.0594
  121OSM    O1412698   3.372   3.276   7.817 -0.1405  0.8488 -0.4872
  121OSM    O1112699   3.582   3.304   7.689  0.0839 -0.2988 -0.0687
  121OSM    O1212700   3.520   3.497   7.829 -0.1561 -0.1177  0.5289
  121OSM    C1S12701   3.542   3.199   7.600  0.2820  0.8438  0.0924
  121OSM    H1S12702   3.442   3.151   7.607  0.3345  0.5725 -0.8816
  121OSM    H1T12703   3.613   3.114   7.609 -1.1334 -0.2158  2.0772
  121OSM     NF12704   3.496   3.152   7.363  0.2926 -0.5023  0.4083
  121OSM    HNF12705   3.556   3.117   7.291  0.4773  0.2682  0.1855
  121OSM    C2S12706   3.557   3.249   7.452 -1.0383  0.7034 -0.3698
  121OSM    H2S12707   3.491   3.338   7.449 -1.7368  0.2993  1.5172
  121OSM    C3S12708   3.709   3.290   7.423 -0.3204 -0.0337 -0.0304
  121OSM    H3S12709   3.763   3.193   7.428 -0.4632 -0.1033  0.1793
  121OSM     O312710   3.771   3.376   7.521 -0.4897  0.1409  0.6437
  121OSM    HO312711   3.711   3.365   7.595  0.1782 -1.5684  0.9883
  121OSM    C4S12712   3.712   3.347   7.277 -0.4232  0.6116 -0.3069
  121OSM    H4S12713   3.740   3.270   7.205  2.2899  1.1493  0.0630
  121OSM    C5S12714   3.704   3.468   7.223 -0.0373  0.1654 -0.3086
  121OSM    H5S12715   3.672   3.546   7.294 -0.1786  0.6235 -0.8773
  121OSM    C6S12716   3.687   3.506   7.081 -0.6583  0.0077 -0.2977
  121OSM    H6S12717   3.775   3.568   7.054 -0.9984  0.4514 -0.3852
  121OSM    H6T12718   3.599   3.574   7.079 -0.9654 -0.3864 -0.6126
  121OSM    C7S12719   3.673   3.388   6.984  0.2259  0.1659 -0.0346
  121OSM    H7S12720   3.572   3.344   6.998  0.4977 -0.2131  0.8466
  121OSM    H7T12721   3.762   3.322   6.992 -0.1765 -0.5814 -1.5014
  121OSM    C8S12722   3.682   3.444   6.841  0.3043  0.4612  0.3703
  121OSM    H8S12723   3.786   3.470   6.813 -0.0863  2.5556  0.7146
  121OSM    H8T12724   3.604   3.524   6.839 -0.9810 -0.6306  2.6098
  121OSM    C9S12725   3.647   3.341   6.735  0.0768  0.0525 -0.1192
  121OSM    H9S12726   3.561   3.277   6.764  0.0856 -1.1644 -2.5760
  121OSM    H9T12727   3.734   3.274   6.723 -1.2376 -1.6594 -0.4785
  121OSM   C10S12728   3.604   3.398   6.602 -0.0211  0.1202 -0.3365
  121OSM   H10S12729   3.673   3.479   6.569 -0.0417  0.3186  0.0973
  121OSM   H10T12730   3.507   3.447   6.624 -0.0835 -0.9515  2.0344
  121OSM   C11S12731   3.562   3.287   6.502  0.6438 -0.1186  0.2497
  121OSM   H11S12732   3.496   3.215   6.555 -1.0689  1.2307  0.0917
  121OSM   H11T12733   3.658   3.239   6.477  0.0301 -1.6574  0.7459
  121OSM   C12S12734   3.494   3.345   6.370 -0.3732 -0.0468  0.4438
  121OSM   H12S12735   3.397   3.390   6.399 -1.3989 -2.5624  1.1671
  121OSM   H12T12736   3.467   3.256   6.310  0.0789  0.9919 -1.3804
  121OSM   C13S12737   3.580   3.445   6.286 -0.0088  0.3387 -0.6363
  121OSM   H13S12738   3.685   3.410   6.286 -0.9148 -2.6343 -0.8673
  121OSM   H13T12739   3.568   3.550   6.322 -0.3696 -0.0107  0.3019
  121OSM   C14S12740   3.542   3.428   6.138  0.5765  1.1178  0.1162
  121OSM   H14S12741   3.533   3.318   6.124  1.3346  0.5190  3.4605
  121OSM   H14T12742   3.622   3.457   6.068 -1.4533  2.6778 -1.6950
  121OSM   C15S12743   3.404   3.473   6.108 -0.2604  0.7349 -0.6562
  121OSM   H15S12744   3.422   3.580   6.083  0.7636  1.1687  1.7254
  121OSM   H15T12745   3.334   3.455   6.192  0.1262 -2.1396 -0.8504
  121OSM   C16S12746   3.335   3.409   5.985 -0.2426  0.1640 -0.3423
  121OSM   H16S12747   3.330   3.300   6.004 -2.1403  0.5932  2.1666
  121OSM   H16T12748   3.401   3.427   5.897  1.2894 -0.1084  0.7069
  121OSM   C17S12749   3.202   3.476   5.950  0.4409  0.2210 -0.0552
  121OSM   H17S12750   3.226   3.584   5.935 -1.2936  0.4508 -1.6611
  121OSM   H17T12751   3.132   3.465   6.036  0.3713  2.8946  0.3216
  121OSM   C18S12752   3.133   3.441   5.819 -0.1012 -0.0054  0.2851
  121OSM   H18S12753   3.045   3.509   5.820 -0.3434 -0.2635 -1.0009
  121OSM   H18T12754   3.095   3.337   5.816  2.9453 -1.2128 -1.7412
  121OSM   H18U12755   3.207   3.467   5.740 -1.9600  3.1825 -0.6081
  121OSM    C1F12756   3.369   3.122   7.352  0.2249  0.0405 -0.1125
  121OSM     OF12757   3.291   3.142   7.443  0.5949  0.1320  0.1714
  121OSM    C2F12758   3.319   3.062   7.225  0.5042 -0.6977  0.1790
  121OSM    H2F12759   3.212   3.093   7.225  0.1369 -1.9217  0.3077
  121OSM    H2G12760   3.324   2.951   7.231 -0.1119 -0.7423 -0.0732
  121OSM    C3F12761   3.393   3.102   7.097  0.2207 -0.1984 -0.8638
  121OSM    H3F12762   3.484   3.039   7.100  0.4884  0.2204  0.4033
  121OSM    H3G12763   3.421   3.209   7.085  0.3874 -0.0917  0.3252
  121OSM    C4F12764   3.292   3.085   6.985 -0.6183  0.1287 -0.6224
  121OSM    H4F12765   3.220   3.169   6.988 -0.8852 -0.0562 -1.5006
  121OSM    H4G12766   3.227   2.995   6.992  0.1365 -0.3891 -0.1475
  121OSM    C5F12767   3.349   3.093   6.842 -0.0404  0.0586 -0.1753
  121OSM    H5F12768   3.447   3.041   6.831  0.9227  2.3314 -4.3084
  121OSM    H5G12769   3.380   3.199   6.838  4.3083 -1.0515 -1.2212
  121OSM    C6F12770   3.242   3.047   6.749  0.3186  0.4001  0.3387
  121OSM    H6F12771   3.145   3.083   6.789  0.3283  2.6651 -1.4603
  121OSM    H6G12772   3.237   2.936   6.756 -2.4795  0.5759  4.1057
  121OSM    C7F12773   3.257   3.089   6.601  0.7679 -0.5025 -0.1772
  121OSM    H7F12774   3.324   3.023   6.543 -0.2214  0.0901 -2.0734
  121OSM    H7G12775   3.302   3.191   6.597 -1.4524  0.5792  0.5730
  121OSM    C8F12776   3.120   3.094   6.533  0.6344 -0.7658 -0.3869
  121OSM    H8F12777   3.153   3.120   6.430  1.3045 -3.6063 -1.0007
  121OSM    H8G12778   3.055   3.174   6.574  0.2326 -1.7087  0.8712
  121OSM    C9F12779   3.056   2.958   6.530 -0.3045  0.1851  0.5330
  121OSM    H9F12780   3.070   2.898   6.621  1.6086 -1.2151 -0.6091
  121OSM   C10F12781   2.966   2.914   6.442  0.2871  0.8608  0.1250
  121OSM   H10F12782   2.917   2.816   6.452  0.4595  0.4910 -2.0400
  121OSM   C11F12783   2.919   2.970   6.316  0.1272 -0.7129  1.0798
  121OSM   H11F12784   2.904   3.080   6.317  1.3259 -0.5333  0.4665
  121OSM   H11G12785   2.820   2.933   6.281  0.9632 -1.6244 -0.4016
  121OSM   C12F12786   3.012   2.941   6.201  0.2657  0.5816  0.0324
  121OSM   H12F12787   3.062   2.842   6.214 -0.6786  0.0769 -0.1358
  121OSM   H12G12788   3.087   3.022   6.189  0.8487 -0.0388 -0.6087
  121OSM   C13F12789   2.943   2.932   6.061  0.7932 -0.1023 -0.3905
  121OSM   H13F12790   2.881   3.022   6.045 -0.2881 -0.7130  0.2853
  121OSM   H13G12791   2.877   2.843   6.066  2.0609 -1.0117  1.0974
  121OSM   C14F12792   3.038   2.908   5.936  0.6252  0.1065 -0.0135
  121OSM   H14F12793   3.119   2.837   5.963 -1.3308 -2.0958  0.4348
  121OSM   H14G12794   3.085   3.007   5.922  0.7100  0.0791  0.0809
  121OSM   C15F12795   2.969   2.863   5.812  0.3006 -0.8041  0.2980
  121OSM   H15F12796   2.894   2.942   5.789  0.7192 -0.2826  0.7131
  121OSM   H15G12797   2.907   2.776   5.842 -1.2248  1.2412  3.6650
  121OSM   C16F12798   3.076   2.842   5.703 -0.1998 -0.2774  0.1825
  121OSM   H16F12799   3.155   2.776   5.742 -0.3620 -0.2727  0.5254
  121OSM   H16G12800   3.122   2.943   5.693 -1.0093  0.3296  2.0539
  121OSM   C17F12801   3.017   2.790   5.577  0.3530 -0.4697 -0.1808
  121OSM   H17F12802   2.935   2.863   5.556  1.1776 -0.2696 -3.0903
  121OSM   H17G12803   2.979   2.686   5.587  1.6446 -0.8972  0.4789
  121OSM   C18F12804   3.124   2.791   5.480  0.3723  0.5666  0.4888
  121OSM   H18F12805   3.181   2.886   5.474  3.0661 -1.0329 -2.7991
  121OSM   H18G12806   3.089   2.773   5.376 -0.3035  1.8116  0.4838
  121OSM   H18H12807   3.195   2.713   5.517 -0.5755  0.1454  1.4918
  122OSM      N12808   5.670   5.152   7.889 -0.2327 -0.6910 -0.1547
  122OSM    C1512809   5.609   5.040   7.804  0.3404 -0.0387  0.4291
  122OSM   H15A12810   5.520   5.005   7.855  0.2879 -1.0850 -0.3598
  122OSM   H15B12811   5.682   4.963   7.785  0.3289  0.1136 -0.2491
  122OSM   H15C12812   5.580   5.084   7.710 -0.0316 -0.6215  0.2658
  122OSM    C1412813   5.563   5.268   7.901  0.2681 -0.3188  0.3400
  122OSM   H14A12814   5.594   5.334   7.981  0.7464  0.2909 -0.3379
  122OSM   H14B12815   5.466   5.226   7.923  0.3729 -1.0806 -0.5647
  122OSM   H14C12816   5.556   5.319   7.807 -0.4086 -1.1775 -0.0867
  122OSM    C1312817   5.694   5.095   8.030  0.2442 -0.7926 -0.1579
  122OSM   H13A12818   5.605   5.077   8.089  0.8368  1.3788  1.5292
  122OSM   H13B12819   5.731   5.174   8.093 -1.1228 -0.7525  0.6393
  122OSM   H13C12820   5.756   5.007   8.025  0.8938 -0.4482  1.2819
  122OSM    C1212821   5.795   5.197   7.828 -0.1961 -0.1448 -0.1958
  122OSM   H12A12822   5.864   5.114   7.819 -1.3028 -1.0683 -0.3322
  122OSM   H12B12823   5.846   5.272   7.887 -0.9828  0.3558 -0.1503
  122OSM    C1112824   5.784   5.255   7.684  1.2494  0.1262  0.0821
  122OSM   H11A12825   5.753   5.172   7.617 -2.7615  1.0045  0.5857
  122OSM   H11B12826   5.886   5.284   7.652  1.6257 -0.4900  0.6773
  122OSM      P12827   5.765   5.515   7.713 -0.1973  0.0137 -0.3563
  122OSM    O1312828   5.664   5.616   7.692  0.0679  0.0206 -0.1196
  122OSM    O1412829   5.835   5.515   7.842 -0.5477 -0.4977 -0.2853
  122OSM    O1112830   5.870   5.541   7.605 -0.6251  0.5124 -0.2710
  122OSM    O1212831   5.705   5.367   7.684  0.0018 -0.1991  0.1729
  122OSM    C1S12832   5.859   5.529   7.462  0.4312 -0.4774 -0.7778
  122OSM    H1S12833   5.781   5.457   7.428  0.2556  0.1475 -1.7574
  122OSM    H1T12834   5.958   5.496   7.422  2.5961  2.9268  1.2657
  122OSM     NF12835   5.811   5.633   7.232  0.9698  0.3427  0.5166
  122OSM    HNF12836   5.878   5.681   7.176  2.3254 -1.1073  0.8215
  122OSM    C2S12837   5.830   5.664   7.377 -0.3197  0.0131 -0.3417
  122OSM    H2S12838   5.729   5.699   7.409  1.1019  4.0441  0.3287
  122OSM    C3S12839   5.940   5.776   7.402  0.1209  0.0175 -0.0031
  122OSM    H3S12840   6.030   5.736   7.350  0.8369  0.8155  0.6086
  122OSM     O312841   5.978   5.783   7.539 -0.2788 -0.1212 -0.3727
  122OSM    HO312842   5.928   5.711   7.577 -0.1120  0.8210  1.7250
  122OSM    C4S12843   5.893   5.906   7.352 -0.4071  0.3666  0.4937
  122OSM    H4S12844   5.801   5.942   7.401 -0.3446  1.6100 -0.2598
  122OSM    C5S12845   5.955   5.979   7.260 -0.2697  0.2885  0.9616
  122OSM    H5S12846   6.056   5.951   7.226 -0.2692 -0.6751  1.7163
  122OSM    C6S12847   5.908   6.113   7.207 -0.4538 -0.0840 -0.3437
  122OSM    H6S12848   5.971   6.197   7.244  0.2563 -0.6871 -0.1586
  122OSM    H6T12849   5.807   6.140   7.242 -1.1626 -1.1129 -1.5134
  122OSM    C7S12850   5.923   6.127   7.051  0.0125  0.4639  0.0783
  122OSM    H7S12851   5.867   6.041   7.006  1.6376 -1.8131  2.1340
  122OSM    H7T12852   6.026   6.139   7.012  0.1074  3.1068  0.9920
  122OSM    C8S12853   5.870   6.264   6.993  0.4080  0.1503 -0.4072
  122OSM    H8S12854   5.910   6.350   7.050  1.2181  0.1150 -0.9057
  122OSM    H8T12855   5.761   6.242   7.006  0.7059 -0.7980  0.6402
  122OSM    C9S12856   5.896   6.273   6.843 -0.0104 -0.2217 -0.3102
  122OSM    H9S12857   5.857   6.182   6.793 -0.8227 -0.2239  0.3002
  122OSM    H9T12858   6.007   6.268   6.834 -0.0822 -2.1525 -0.5422
  122OSM   C10S12859   5.829   6.396   6.775  0.5527  0.5043 -0.6374
  122OSM   H10S12860   5.873   6.485   6.824  1.6360 -0.9081  1.0893
  122OSM   H10T12861   5.719   6.393   6.790  0.8961  0.3927  2.3017
  122OSM   C11S12862   5.874   6.414   6.627 -0.0938 -0.5123  0.6231
  122OSM   H11S12863   5.979   6.445   6.607 -0.8603  0.4289 -2.7429
  122OSM   H11T12864   5.813   6.498   6.587 -0.0176  0.2803  2.1063
  122OSM   C12S12865   5.846   6.294   6.536 -0.6804  0.1495 -0.3569
  122OSM   H12S12866   5.751   6.252   6.575  0.8410 -3.0440  0.2315
  122OSM   H12T12867   5.920   6.213   6.553 -2.7966 -2.1714 -1.3922
  122OSM   C13S12868   5.827   6.332   6.394  0.5974 -0.4754 -0.4995
  122OSM   H13S12869   5.738   6.398   6.400  1.9246  1.3046  1.0219
  122OSM   H13T12870   5.794   6.251   6.326 -2.6873 -1.1335  1.6538
  122OSM   C14S12871   5.959   6.379   6.333 -1.0029  0.2783 -0.1973
  122OSM   H14S12872   6.039   6.303   6.344 -1.2351  0.0024 -0.3849
  122OSM   H14T12873   5.994   6.471   6.384  1.9253 -2.3289  3.0277
  122OSM   C15S12874   5.952   6.400   6.182 -0.3594  0.2132  0.3813
  122OSM   H15S12875   5.871   6.469   6.149 -0.8996 -1.4785 -2.1348
  122OSM   H15T12876   5.936   6.299   6.140 -1.7004  0.9738 -1.0719
  122OSM   C16S12877   6.092   6.435   6.127  0.5582  0.7109 -0.9351
  122OSM   H16S12878   6.154   6.355   6.173 -1.0331  1.1130  2.1934
  122OSM   H16T12879   6.119   6.531   6.177  0.2769  1.0962 -1.5167
  122OSM   C17S12880   6.097   6.446   5.977  0.0736 -0.1311  0.4716
  122OSM   H17S12881   6.072   6.346   5.936 -0.2914  0.3523 -0.5059
  122OSM   H17T12882   6.204   6.459   5.953  0.8680  0.1348  3.7323
  122OSM   C18S12883   6.013   6.570   5.929 -0.2222 -0.3655 -0.3758
  122OSM   H18S12884   6.036   6.663   5.985  1.5172 -1.1571  0.3028
  122OSM   H18T12885   5.903   6.556   5.929  0.1171 -4.5027  0.7668
  122OSM   H18U12886   6.037   6.592   5.823 -2.1530  3.2542 -0.2235
  122OSM    C1F12887   5.703   5.567   7.180  0.4135  0.1243  0.2533
  122OSM     OF12888   5.614   5.522   7.260  0.2491  0.1071 -0.2029
  122OSM    C2F12889   5.707   5.536   7.035  0.2514  1.0786 -0.1955
  122OSM    H2F12890   5.816   5.530   7.013  0.4112  2.1021  0.2389
  122OSM    H2G12891   5.659   5.627   6.993 -2.3366 -0.5791 -1.0648
  122OSM    C3F12892   5.651   5.395   7.003 -0.1434 -0.1351 -0.0117
  122OSM    H3F12893   5.552   5.391   7.053 -0.7763 -1.6194 -1.2733
  122OSM    H3G12894   5.726   5.324   7.045  0.7720  1.9298  2.0238
  122OSM    C4F12895   5.623   5.366   6.863  0.1378  0.2279 -0.2498
  122OSM    H4F12896   5.522   5.403   6.838 -0.2142 -1.2874 -1.1430
  122OSM    H4G12897   5.631   5.256   6.848 -0.9059  0.2525 -1.0042
  122OSM    C5F12898   5.726   5.423   6.761 -0.0216  0.3789  0.2974
  122OSM    H5F12899   5.813   5.353   6.762 -0.3873 -0.0839  0.1471
  122OSM    H5G12900   5.765   5.524   6.783 -0.9506  0.4475  1.7585
  122OSM    C6F12901   5.668   5.427   6.625 -0.1338 -0.3133  0.1758
  122OSM    H6F12902   5.580   5.494   6.616  1.9932  2.6414  0.2513
  122OSM    H6G12903   5.639   5.321   6.604  1.9156 -1.9864  4.5012
  122OSM    C7F12904   5.765   5.478   6.527 -0.7819  0.3716  0.0294
  122OSM    H7F12905   5.851   5.408   6.528 -1.1206 -0.0496 -0.0655
  122OSM    H7G12906   5.802   5.579   6.556  1.7300  0.1772 -2.1146
  122OSM    C8F12907   5.705   5.492   6.385 -0.6025 -0.6556  0.3866
  122OSM    H8F12908   5.607   5.544   6.388 -0.1978  0.2284 -0.8234
  122OSM    H8G12909   5.685   5.390   6.348 -1.4243 -0.0134 -1.0078
  122OSM    C9F12910   5.781   5.572   6.281 -0.0066  0.2269 -0.3156
  122OSM    H9F12911   5.813   5.676   6.299  0.2683  0.2900 -1.1598
  122OSM   C10F12912   5.804   5.532   6.152  0.2515  0.7655 -0.3502
  122OSM   H10F12913   5.861   5.604   6.093  1.2278  1.2131  1.0782
  122OSM   C11F12914   5.777   5.396   6.087  0.6465 -0.4917  0.1957
  122OSM   H11F12915   5.719   5.337   6.162 -0.2806 -0.3447 -0.3803
  122OSM   H11G12916   5.876   5.348   6.080 -0.2215 -2.1372 -1.8282
  122OSM   C12F12917   5.727   5.379   5.943 -0.2411 -0.0417  0.1079
  122OSM   H12F12918   5.624   5.419   5.934 -0.0773  0.6180  1.0212
  122OSM   H12G12919   5.719   5.269   5.931 -2.7353  0.2156 -1.2033
  122OSM   C13F12920   5.813   5.427   5.835 -0.0450  0.0659 -0.1502
  122OSM   H13F12921   5.901   5.359   5.829  0.0498  0.0369  1.3908
  122OSM   H13G12922   5.858   5.525   5.863  0.3235  0.6415 -2.5004
  122OSM   C14F12923   5.742   5.426   5.697 -0.3318  0.7983 -0.1606
  122OSM   H14F12924   5.817   5.424   5.615  0.8047  0.7292  0.8507
  122OSM   H14G12925   5.676   5.514   5.684  2.4187  3.3716  2.0587
  122OSM   C15F12926   5.676   5.290   5.670 -0.3088 -0.6431 -0.1321
  122OSM   H15F12927   5.592   5.283   5.742 -0.2845  0.5674  0.0519
  122OSM   H15G12928   5.739   5.201   5.693  1.1708  0.0619 -1.2567
  122OSM   C16F12929   5.624   5.273   5.531 -0.1522  0.8846 -0.1706
  122OSM   H16F12930   5.707   5.239   5.466  0.2401  2.3832 -0.4764
  122OSM   H16G12931   5.575   5.358   5.480  0.6832  0.6874 -1.3465
  122OSM   C17F12932   5.519   5.161   5.521  0.1369 -0.1834 -0.3552
  122OSM   H17F12933   5.434   5.165   5.592  0.0130 -0.5284 -0.4819
  122OSM   H17G12934   5.580   5.073   5.551  0.4777  1.1462  3.3811
  122OSM   C18F12935   5.455   5.150   5.386  0.1251 -0.0332  0.0942
  122OSM   H18F12936   5.389   5.236   5.366  2.2610  1.7202  0.2187
  122OSM   H18G12937   5.399   5.054   5.379 -0.8770  0.5038  0.5363
  122OSM   H18H12938   5.535   5.137   5.310  0.6631 -1.3681  0.8450
  123OSM      N12939   1.216   5.789   3.124  0.2446  0.3756  0.1578
  123OSM    C1512940   1.351   5.805   3.073  0.2280 -0.1419  0.2180
  123OSM   H15A12941   1.418   5.833   3.154  2.2315 -1.5613 -0.8793
  123OSM   H15B12942   1.355   5.891   3.007 -1.4931 -0.6045 -0.5512
  123OSM   H15C12943   1.391   5.720   3.021 -1.2079  1.6819 -4.3798
  123OSM    C1412944   1.213   5.729   3.262 -0.2297 -0.4063 -0.5157
  123OSM   H14A12945   1.246   5.804   3.333  0.7414 -0.3448 -1.0159
  123OSM   H14B12946   1.276   5.641   3.263 -0.4801 -0.6118 -1.5388
  123OSM   H14C12947   1.112   5.696   3.280 -0.2568 -1.3881 -2.2992
  123OSM    C1312948   1.156   5.925   3.118 -0.2894  0.0576 -0.1611
  123OSM   H13A12949   1.206   5.991   3.188  0.3493  1.0326 -1.4820
  123OSM   H13B12950   1.052   5.929   3.147 -0.5535 -1.3127 -0.8644
  123OSM   H13C12951   1.167   5.965   3.019 -0.1544 -2.1058 -1.0662
  123OSM    C1212952   1.150   5.687   3.035 -0.1104 -0.2044  0.7322
  123OSM   H12A12953   1.211   5.598   3.039  1.2314  0.6695  0.4372
  123OSM   H12B12954   1.150   5.722   2.932  1.5188 -1.9466  0.0709
  123OSM    C1112955   1.001   5.643   3.062  0.4964  0.2299 -0.2778
  123OSM   H11A12956   0.962   5.598   2.969 -0.7514 -0.2644  0.4580
  123OSM   H11B12957   0.938   5.734   3.067  0.6740  0.3370  0.1061
  123OSM      P12958   0.981   5.407   3.153 -0.4633  0.0355  0.0733
  123OSM    O1312959   0.839   5.372   3.136 -0.0368  0.4621  0.0528
  123OSM    O1412960   1.079   5.368   3.054  0.0181 -0.0730  0.3208
  123OSM    O1112961   1.027   5.349   3.292  0.2884 -0.1993  0.8995
  123OSM    O1212962   0.987   5.563   3.176  0.4843 -0.4852 -0.4876
  123OSM    C1S12963   1.092   5.412   3.401  0.1571 -0.2616  0.3556
  123OSM    H1S12964   1.061   5.517   3.416  0.4785 -0.1147  0.0175
  123OSM    H1T12965   1.202   5.414   3.383 -0.1467 -1.3847 -1.9602
  123OSM     NF12966   1.095   5.404   3.648  0.5573  0.6674  0.6339
  123OSM    HNF12967   1.170   5.367   3.702  0.9700  0.0321 -0.3426
  123OSM    C2S12968   1.058   5.327   3.524 -1.1370 -0.1831 -0.0695
  123OSM    H2S12969   0.949   5.312   3.533 -1.1950  0.8082  1.2522
  123OSM    C3S12970   1.126   5.193   3.509  0.1452  0.4363  0.3849
  123OSM    H3S12971   1.236   5.210   3.514  0.6515 -2.3513  0.2936
  123OSM     O312972   1.119   5.128   3.383 -0.4972 -0.0966 -0.0722
  123OSM    HO312973   1.069   5.194   3.335 -0.5369  1.5598  2.0710
  123OSM    C4S12974   1.092   5.101   3.617 -0.2090  0.1881  0.1930
  123OSM    H4S12975   1.141   5.132   3.710  1.7174 -1.9339 -0.0276
  123OSM    C5S12976   1.010   4.994   3.606 -0.0509 -0.4847 -0.4712
  123OSM    H5S12977   0.946   4.986   3.516 -0.8648  0.5357 -0.0060
  123OSM    C6S12978   0.976   4.898   3.725  0.1975  0.1382 -0.0287
  123OSM    H6S12979   0.989   4.793   3.692  1.6911  0.5187 -0.7262
  123OSM    H6T12980   0.867   4.918   3.730  0.3123  0.8197 -0.1278
  123OSM    C7S12981   1.043   4.928   3.858 -0.1976  0.2168  0.2535
  123OSM    H7S12982   1.046   5.038   3.877  0.7195  0.3046 -0.3163
  123OSM    H7T12983   1.149   4.899   3.844  0.1503  2.3693 -2.6842
  123OSM    C8S12984   0.987   4.850   3.979 -0.8526 -0.4903 -0.4833
  123OSM    H8S12985   0.990   4.742   3.953  1.0396 -0.6908  0.3773
  123OSM    H8T12986   0.880   4.865   4.002 -0.7512  1.2191 -0.9900
  123OSM    C9S12987   1.064   4.882   4.110 -0.2971  0.0474 -0.0603
  123OSM    H9S12988   1.040   4.988   4.130 -1.9864  0.1612 -2.2608
  123OSM    H9T12989   1.172   4.871   4.089 -0.2521  1.8461 -0.9143
  123OSM   C10S12990   1.020   4.807   4.235 -0.5876 -0.3929 -0.3729
  123OSM   H10S12991   1.032   4.698   4.218  2.4954 -0.5145  1.6029
  123OSM   H10T12992   0.913   4.831   4.248  0.0455  4.5722 -2.4318
  123OSM   C11S12993   1.093   4.837   4.363  0.0731 -0.4358 -0.3568
  123OSM   H11S12994   1.082   4.946   4.379  1.2009 -0.5467  1.4820
  123OSM   H11T12995   1.201   4.819   4.347  0.2809  2.2721 -2.9317
  123OSM   C12S12996   1.036   4.762   4.488  0.9420  0.5734  0.7909
  123OSM   H12S12997   1.049   4.652   4.494  0.0696  0.3941 -0.2485
  123OSM   H12T12998   0.927   4.782   4.495  0.7720  0.8397 -1.7306
  123OSM   C13S12999   1.097   4.813   4.619  0.1725 -0.0731 -1.0484
  123OSM   H13S13000   1.111   4.923   4.624 -3.5646  0.4719  1.7776
  123OSM   H13T13001   1.198   4.768   4.618  0.0157 -0.5027  0.4145
  123OSM   C14S13002   1.016   4.775   4.736 -0.7509 -0.2658 -0.7174
  123OSM   H14S13003   1.030   4.665   4.746  0.4322 -0.2795 -2.1014
  123OSM   H14T13004   0.910   4.800   4.718 -0.0372  3.4011 -0.5923
  123OSM   C15S13005   1.052   4.849   4.867 -0.3938  0.5788 -0.6431
  123OSM   H15S13006   0.955   4.873   4.916 -0.8418  1.0822 -1.7383
  123OSM   H15T13007   1.108   4.944   4.852  1.1068  0.5324  3.3102
  123OSM   C16S13008   1.141   4.773   4.963 -0.2049 -0.2571 -0.3279
  123OSM   H16S13009   1.218   4.723   4.900 -2.3978 -1.9912 -1.8050
  123OSM   H16T13010   1.080   4.700   5.021  1.0713 -0.2309  1.0999
  123OSM   C17S13011   1.212   4.876   5.058  0.0382  0.2990 -0.1484
  123OSM   H17S13012   1.255   4.958   4.997 -2.9480  1.3631 -0.9965
  123OSM   H17T13013   1.294   4.821   5.109 -1.2375  0.2258  1.9200
  123OSM   C18S13014   1.120   4.944   5.162  0.2233 -0.2060 -0.8229
  123OSM   H18S13015   1.055   4.874   5.218 -1.5951  0.7146 -1.6934
  123OSM   H18T13016   1.047   5.010   5.110 -1.9809 -1.5983  0.3533
  123OSM   H18U13017   1.179   5.010   5.229 -1.0521  2.5349 -2.2279
  123OSM    C1F13018   1.021   5.506   3.687  0.0565 -0.0058  0.3398
  123OSM     OF13019   0.936   5.564   3.614  0.3664  0.4914 -0.3507
  123OSM    C2F13020   1.047   5.550   3.821  0.2579 -0.2506 -0.2448
  123OSM    H2F13021   1.149   5.522   3.856 -1.0504 -4.5472  0.6852
  123OSM    H2G13022   0.982   5.489   3.887  0.2558  1.2309  1.1979
  123OSM    C3F13023   1.017   5.699   3.864 -1.0731  0.5436  0.1557
  123OSM    H3F13024   0.909   5.718   3.849 -1.3537 -1.9381 -1.7695
  123OSM    H3G13025   1.068   5.760   3.787  0.4333 -1.5606 -0.6075
  123OSM    C4F13026   1.068   5.739   4.000  0.1722 -0.5700  0.1348
  123OSM    H4F13027   1.124   5.834   3.993 -0.8349 -0.0591 -1.4141
  123OSM    H4G13028   1.141   5.665   4.039 -0.6406 -0.8134  1.2484
  123OSM    C5F13029   0.960   5.764   4.105  0.2463 -0.0583 -0.2622
  123OSM    H5F13030   0.896   5.673   4.099 -2.4479  1.6596  0.7206
  123OSM    H5G13031   0.902   5.854   4.074  0.0055 -0.6276 -1.5459
  123OSM    C6F13032   1.022   5.799   4.239 -0.3678 -0.9141 -0.1135
  123OSM    H6F13033   1.103   5.873   4.221 -0.7251 -0.4766  0.0737
  123OSM    H6G13034   1.057   5.703   4.283 -2.8668 -2.8293 -1.9708
  123OSM    C7F13035   0.911   5.862   4.331  0.3852  0.2997  0.0710
  123OSM    H7F13036   0.855   5.948   4.289  1.4990  0.6803 -0.6878
  123OSM    H7G13037   0.968   5.912   4.412  1.8052 -0.2120 -0.5703
  123OSM    C8F13038   0.825   5.759   4.389 -0.4564  0.8723 -0.2853
  123OSM    H8F13039   0.883   5.670   4.423 -3.3860 -2.0823 -2.3410
  123OSM    H8G13040   0.750   5.722   4.316 -1.0973 -0.2119  0.8790
  123OSM    C9F13041   0.737   5.808   4.500 -0.3832 -0.1629 -0.1987
  123OSM    H9F13042   0.647   5.857   4.461  0.2910 -0.4694 -2.2215
  123OSM   C10F13043   0.746   5.790   4.635  0.0184  0.1549  0.1401
  123OSM   H10F13044   0.666   5.842   4.692 -0.1116 -1.6514  1.7055
  123OSM   C11F13045   0.855   5.729   4.720  0.2159 -0.1570 -0.0615
  123OSM   H11F13046   0.914   5.656   4.661 -0.1499 -0.2715 -0.2823
  123OSM   H11G13047   0.796   5.670   4.793 -0.4574 -0.0565 -0.5187
  123OSM   C12F13048   0.951   5.827   4.778 -0.4853  0.1097 -0.2791
  123OSM   H12F13049   0.888   5.909   4.819  0.4776  0.5035  0.4528
  123OSM   H12G13050   1.022   5.873   4.707  0.9751  0.3638  1.2846
  123OSM   C13F13051   1.031   5.758   4.887 -0.7829  0.2997  0.2183
  123OSM   H13F13052   1.110   5.696   4.839 -1.2660  0.4310 -0.7719
  123OSM   H13G13053   0.962   5.696   4.948 -0.0431 -0.8723 -0.0983
  123OSM   C14F13054   1.105   5.870   4.973 -0.1426  0.9745  0.6421
  123OSM   H14F13055   1.038   5.953   5.003 -1.9753  0.0913 -0.7775
  123OSM   H14G13056   1.176   5.909   4.897  0.1694 -0.8281 -0.0462
  123OSM   C15F13057   1.191   5.802   5.074 -0.1186  0.9234  0.4032
  123OSM   H15F13058   1.258   5.728   5.025  0.5170  1.4860  0.4059
  123OSM   H15G13059   1.128   5.739   5.141 -0.4862  1.2273  0.3490
  123OSM   C16F13060   1.272   5.895   5.165  0.4965 -0.2201 -0.2254
  123OSM   H16F13061   1.342   5.941   5.092  1.6337 -0.1325  0.8752
  123OSM   H16G13062   1.334   5.829   5.230 -1.3229  0.7189  2.6193
  123OSM   C17F13063   1.194   5.993   5.261  0.1323  0.2136  0.2646
  123OSM   H17F13064   1.161   6.074   5.192  1.3118 -0.4314 -1.1189
  123OSM   H17G13065   1.260   6.028   5.343  0.0793  1.1949 -0.1016
  123OSM   C18F13066   1.068   5.937   5.325 -0.5622  0.1363  0.1227
  123OSM   H18F13067   1.009   6.017   5.374 -0.5112  0.4824 -0.3731
  123OSM   H18G13068   1.098   5.846   5.382  2.7816  0.3335 -1.0914
  123OSM   H18H13069   1.002   5.907   5.241  1.6464 -0.2800 -1.5534
  124OSM      N13070   6.441   0.984   2.762 -0.1373  0.2358 -0.5754
  124OSM    C1513071   6.331   0.936   2.679 -0.9124  0.1532 -0.3990
  124OSM   H15A13072   6.366   0.880   2.594 -0.8251  3.3936 -2.6412
  124OSM   H15B13073   6.287   1.026   2.640 -2.8225 -0.1733  0.8688
  124OSM   H15C13074   6.263   0.876   2.738 -2.6159  1.1522 -1.2719
  124OSM    C1413075   6.506   0.875   2.842  0.2267 -0.1987 -0.3324
  124OSM   H14A13076   6.596   0.901   2.895  0.7114 -1.0249 -0.7211
  124OSM   H14B13077   6.536   0.789   2.785  0.6129 -2.1890  2.6208
  124OSM   H14C13078   6.436   0.835   2.914 -1.9993  1.2471 -1.5638
  124OSM    C1313079   6.544   1.047   2.667  0.3650 -0.1401  0.1770
  124OSM   H13A13080   6.620   1.100   2.722 -1.2445  2.8574 -0.2769
  124OSM   H13B13081   6.505   1.127   2.605  2.8334 -0.3024 -1.6976
  124OSM   H13C13082   6.584   0.964   2.611  0.6732 -0.4128  0.7937
  124OSM    C1213083   6.389   1.078   2.861 -0.6769  0.3635  0.0404
  124OSM   H12A13084   6.312   1.037   2.923 -0.2636  0.1227  0.3991
  124OSM   H12B13085   6.356   1.168   2.811  0.9202  0.9087 -0.1124
  124OSM    C1113086   6.500   1.130   2.953 -0.3946 -0.2051 -0.4829
  124OSM   H11A13087   6.466   1.229   2.990 -0.2380 -0.3593  0.0784
  124OSM   H11B13088   6.596   1.143   2.897  0.8547  0.8477  1.7565
  124OSM      P13089   6.657   1.028   3.135 -0.0545  0.0510  0.1170
  124OSM    O1313090   6.638   0.978   3.268 -0.1706 -0.0657 -0.3003
  124OSM    O1413091   6.726   0.934   3.041  0.4525 -0.3007  0.4284
  124OSM    O1113092   6.737   1.164   3.139  0.2297  0.0229 -0.1194
  124OSM    O1213093   6.514   1.057   3.071  0.4945  0.4543 -0.3893
  124OSM    C1S13094   6.677   1.272   3.207  0.8459  0.7000  0.4167
  124OSM    H1S13095   6.567   1.264   3.220  0.8218 -1.1219 -0.5356
  124OSM    H1T13096   6.690   1.367   3.152 -0.4880 -0.8269 -2.8255
  124OSM     NF13097   6.676   1.394   3.420 -0.1070  0.0517 -0.3510
  124OSM    HNF13098   6.723   1.480   3.440 -1.3241  0.4036  1.1642
  124OSM    C2S13099   6.735   1.282   3.349  0.2808 -0.5131 -0.2980
  124OSM    H2S13100   6.707   1.196   3.414  0.6637 -0.3778  0.0553
  124OSM    C3S13101   6.897   1.301   3.347  0.5813 -0.2073  0.0911
  124OSM    H3S13102   6.927   1.383   3.279 -0.7855 -0.0509 -0.3531
  124OSM     O313103   6.971   1.184   3.306 -0.2963  0.4816 -0.3194
  124OSM    HO313104   6.904   1.117   3.293 -0.8392  0.5202  1.8087
  124OSM    C4S13105   6.956   1.342   3.482 -0.3030 -0.1412  0.1783
  124OSM    H4S13106   6.925   1.275   3.563  1.4914 -0.5404  0.5899
  124OSM    C5S13107   7.043   1.444   3.505 -0.4149  1.0991  0.2896
  124OSM    H5S13108   7.081   1.500   3.418  1.5441 -1.3481 -0.5488
  124OSM    C6S13109   7.106   1.479   3.641 -0.2857  0.2335 -0.4708
  124OSM    H6S13110   7.083   1.587   3.652  2.9895  0.9590  0.0904
  124OSM    H6T13111   7.217   1.481   3.639 -0.1987  0.0397  1.7081
  124OSM    C7S13112   7.064   1.389   3.759 -0.3171 -0.4499 -0.1295
  124OSM    H7S13113   7.081   1.281   3.743  0.4572 -0.4818  0.8017
  124OSM    H7T13114   6.956   1.403   3.781 -0.1316  0.0735  0.4965
  124OSM    C8S13115   7.143   1.421   3.889 -0.0153 -0.7864  0.6366
  124OSM    H8S13116   7.134   1.529   3.914 -0.9182 -0.4500 -1.0201
  124OSM    H8T13117   7.247   1.401   3.855 -0.3811  0.5011 -1.4271
  124OSM    C9S13118   7.092   1.346   4.010  0.8746 -0.1787  0.5378
  124OSM    H9S13119   7.139   1.246   4.012  0.6653 -0.3917  5.2145
  124OSM    H9T13120   6.985   1.319   4.023  1.1384 -0.9649  1.1626
  124OSM   C10S13121   7.147   1.403   4.145  0.4234 -0.5140  0.1635
  124OSM   H10S13122   7.121   1.508   4.167  0.9615 -0.4494  0.4832
  124OSM   H10T13123   7.256   1.398   4.127  0.2033  1.6613 -2.4254
  124OSM   C11S13124   7.100   1.334   4.268  0.5534  0.3148 -0.6469
  124OSM   H11S13125   7.101   1.224   4.255 -2.9337 -0.0654  1.2916
  124OSM   H11T13126   6.995   1.367   4.281 -0.2341 -1.0733 -2.9883
  124OSM   C12S13127   7.178   1.380   4.399 -0.2054 -0.4271  0.8088
  124OSM   H12S13128   7.192   1.490   4.402 -2.4183 -0.0876  1.0368
  124OSM   H12T13129   7.266   1.314   4.389 -1.1374 -1.3616 -2.3564
  124OSM   C13S13130   7.114   1.321   4.530 -0.4478  0.0925 -0.1148
  124OSM   H13S13131   7.125   1.211   4.521 -0.5312  0.0600  0.1662
  124OSM   H13T13132   7.004   1.338   4.529 -0.2542  1.7333  1.2103
  124OSM   C14S13133   7.166   1.378   4.661  0.2949 -0.2018 -0.1285
  124OSM   H14S13134   7.150   1.488   4.652  1.2200  0.0737  1.2587
  124OSM   H14T13135   7.276   1.369   4.673  0.2029  0.2778  1.3441
  124OSM   C15S13136   7.087   1.315   4.777  0.1942 -0.4570  0.5394
  124OSM   H15S13137   7.098   1.206   4.764 -0.7161 -0.3559 -1.5082
  124OSM   H15T13138   6.977   1.328   4.768 -0.0192 -2.6921 -0.7118
  124OSM   C16S13139   7.111   1.385   4.912 -0.4583  0.0205  0.2445
  124OSM   H16S13140   7.028   1.360   4.982 -0.1076 -0.1054  0.6208
  124OSM   H16T13141   7.117   1.495   4.897  0.9578 -0.1228 -0.3057
  124OSM   C17S13142   7.244   1.347   4.965 -0.1845 -0.4563 -0.4997
  124OSM   H17S13143   7.330   1.365   4.897  0.6535 -0.4930  0.5300
  124OSM   H17T13144   7.254   1.242   5.000  1.0415  0.3168  1.6706
  124OSM   C18S13145   7.265   1.429   5.092 -0.0795 -0.1681 -0.9243
  124OSM   H18S13146   7.234   1.535   5.079 -3.7819 -0.9499  0.3891
  124OSM   H18T13147   7.371   1.431   5.126 -0.0172  0.4792 -1.1387
  124OSM   H18U13148   7.201   1.384   5.171 -2.4073  1.2492 -1.8971
  124OSM    C1F13149   6.547   1.398   3.457 -0.5442  0.3436 -0.8216
  124OSM     OF13150   6.467   1.303   3.441  0.1546  0.0324  0.9278
  124OSM    C2F13151   6.489   1.525   3.504  0.1803 -0.6394  0.0555
  124OSM    H2F13152   6.476   1.591   3.416 -3.3889  0.1482  1.0144
  124OSM    H2G13153   6.566   1.571   3.570  0.4395  0.6491 -1.1156
  124OSM    C3F13154   6.344   1.509   3.573 -1.2038 -0.2466  1.0269
  124OSM    H3F13155   6.348   1.426   3.647  0.3134 -0.2025  1.0411
  124OSM    H3G13156   6.269   1.481   3.496  0.9768 -1.1959 -0.8724
  124OSM    C4F13157   6.290   1.630   3.660 -0.8033  0.3270  0.0531
  124OSM    H4F13158   6.258   1.697   3.578 -0.4691 -1.2487 -1.4191
  124OSM    H4G13159   6.375   1.679   3.711 -0.3402 -1.2521  0.8578
  124OSM    C5F13160   6.178   1.583   3.751 -0.1335 -0.2825 -0.4723
  124OSM    H5F13161   6.132   1.489   3.714 -1.2028 -0.1479  0.4676
  124OSM    H5G13162   6.106   1.668   3.750  0.6433  0.4146 -2.0233
  124OSM    C6F13163   6.224   1.565   3.891 -0.1206  0.5475  0.1656
  124OSM    H6F13164   6.136   1.534   3.952 -0.2659  0.7014  0.0346
  124OSM    H6G13165   6.265   1.657   3.939  0.2123  0.0784  0.8117
  124OSM    C7F13166   6.343   1.465   3.914  0.5517 -0.3051  0.1013
  124OSM    H7F13167   6.432   1.492   3.853  0.2908 -0.8132 -0.5077
  124OSM    H7G13168   6.310   1.367   3.875  1.0174 -0.3349 -0.2258
  124OSM    C8F13169   6.391   1.470   4.056  0.5462  0.0551 -0.7884
  124OSM    H8F13170   6.423   1.570   4.093  0.4793 -0.1634 -0.1378
  124OSM    H8G13171   6.487   1.413   4.054  0.7905  0.4357 -0.1422
  124OSM    C9F13172   6.296   1.399   4.149 -0.4013 -0.1033 -0.0519
  124OSM    H9F13173   6.280   1.294   4.119  0.6976  0.1639 -1.6761
  124OSM   C10F13174   6.233   1.447   4.259 -0.0348 -0.6340  0.3284
  124OSM   H10F13175   6.179   1.379   4.326 -1.9156  1.3673  0.9335
  124OSM   C11F13176   6.245   1.587   4.308 -0.4361  0.6647 -0.6587
  124OSM   H11F13177   6.140   1.615   4.331  0.5927  2.3332  2.6990
  124OSM   H11G13178   6.307   1.641   4.234  3.1941 -2.6664 -0.3829
  124OSM   C12F13179   6.314   1.614   4.444 -0.1245  0.2802 -0.1745
  124OSM   H12F13180   6.328   1.724   4.448 -1.4911  0.5353 -1.5454
  124OSM   H12G13181   6.414   1.566   4.436 -0.3508 -0.1407 -0.5184
  124OSM   C13F13182   6.260   1.561   4.576 -1.0660 -0.5107 -0.2719
  124OSM   H13F13183   6.266   1.450   4.567 -1.9693 -0.3909 -3.2977
  124OSM   H13G13184   6.154   1.580   4.603 -0.2857  0.9348  2.0902
  124OSM   C14F13185   6.337   1.604   4.702  0.2141 -0.1497  0.4820
  124OSM   H14F13186   6.327   1.714   4.700  1.7557  0.0362 -2.6831
  124OSM   H14G13187   6.448   1.594   4.701  0.3605  0.8462 -2.3595
  124OSM   C15F13188   6.280   1.554   4.834 -0.7610 -0.1671 -0.5368
  124OSM   H15F13189   6.293   1.444   4.823  3.7361  0.1599 -0.2487
  124OSM   H15G13190   6.178   1.593   4.850 -0.7888 -0.8993  1.2699
  124OSM   C16F13191   6.369   1.593   4.953  0.0822 -0.2809  0.0973
  124OSM   H16F13192   6.379   1.704   4.951  2.3860 -0.4473 -1.8102
  124OSM   H16G13193   6.476   1.574   4.929 -0.1589  0.3786 -1.6356
  124OSM   C17F13194   6.332   1.509   5.074  0.2062  0.3634  0.0644
  124OSM   H17F13195   6.324   1.402   5.042 -1.9333  0.2876  0.6433
  124OSM   H17G13196   6.231   1.540   5.108 -0.2157 -0.9901  0.1155
  124OSM   C18F13197   6.431   1.509   5.193 -0.2778 -0.8575 -0.5981
  124OSM   H18F13198   6.533   1.487   5.155  0.0447  0.6749 -0.6507
  124OSM   H18G13199   6.406   1.423   5.259 -0.3995 -0.9207 -0.7254
  124OSM   H18H13200   6.423   1.599   5.257 -1.5026 -1.7007  0.4779
  125OSM      N13201   1.232   4.974   3.029 -0.1416 -0.4058 -0.4244
  125OSM    C1513202   1.342   5.001   3.122 -0.2804 -0.2918  0.1849
  125OSM   H15A13203   1.350   4.921   3.194 -1.0085  1.0067  1.7575
  125OSM   H15B13204   1.326   5.091   3.178 -0.2590  0.2446 -0.6557
  125OSM   H15C13205   1.440   5.012   3.077 -0.5051 -0.6164 -0.3992
  125OSM    C1413206   1.204   5.100   2.957  0.3870  0.3740  0.1801
  125OSM   H14A13207   1.137   5.072   2.877 -1.3364  1.7224  1.0785
  125OSM   H14B13208   1.292   5.148   2.920  0.5932  1.2850  1.7559
  125OSM   H14C13209   1.152   5.170   3.022 -3.4700 -0.3032 -1.8795
  125OSM    C1313210   1.276   4.863   2.934  0.4156  0.3924  0.4836
  125OSM   H13A13211   1.191   4.837   2.873  1.4823  1.8149 -1.7107
  125OSM   H13B13212   1.302   4.770   2.983 -1.8215 -0.4043  0.2721
  125OSM   H13C13213   1.355   4.892   2.867 -0.6374 -0.2462 -1.0872
  125OSM    C1213214   1.109   4.932   3.110 -0.4924  0.3351 -0.2210
  125OSM   H12A13215   1.084   5.000   3.190 -3.1934  1.7380 -2.1086
  125OSM   H12B13216   1.128   4.840   3.164 -1.3739  0.9729  1.2376
  125OSM    C1113217   0.981   4.906   3.036 -0.2613 -0.9321 -0.1332
  125OSM   H11A13218   0.966   4.994   2.969  2.1389  0.0369  0.5054
  125OSM   H11B13219   0.900   4.906   3.113 -1.7730 -1.8918 -1.6423
  125OSM      P13220   0.880   4.729   2.869  0.2972  0.1590 -0.0067
  125OSM    O1313221   0.800   4.847   2.816 -0.5398 -0.4282  0.2265
  125OSM    O1413222   0.940   4.648   2.765  0.2041 -0.1338 -0.0097
  125OSM    O1113223   0.809   4.643   2.980 -0.3089  0.0595  0.0206
  125OSM    O1213224   1.005   4.790   2.957 -0.0689  0.1583 -0.5092
  125OSM    C1S13225   0.889   4.583   3.082  0.0569 -0.0335 -0.3872
  125OSM    H1S13226   0.994   4.559   3.057  0.3677  0.4880  0.3559
  125OSM    H1T13227   0.846   4.481   3.087 -0.5649  0.1510 -1.6386
  125OSM     NF13228   0.943   4.568   3.325 -0.2845  0.0005 -0.1141
  125OSM    HNF13229   0.898   4.496   3.377 -1.5607  1.1812  0.4612
  125OSM    C2S13230   0.860   4.638   3.224 -0.1430 -0.6259 -0.6201
  125OSM    H2S13231   0.891   4.745   3.224 -1.4632 -0.2015  0.9210
  125OSM    C3S13232   0.710   4.631   3.245  0.0542 -0.7055  0.0116
  125OSM    H3S13233   0.687   4.522   3.237  0.4094 -0.8277  0.5557
  125OSM     O313234   0.627   4.694   3.145 -0.0571  0.2276  0.2593
  125OSM    HO313235   0.672   4.691   3.060 -1.8621  0.6917 -0.7463
  125OSM    C4S13236   0.665   4.684   3.380  0.4093 -0.3060  0.2317
  125OSM    H4S13237   0.607   4.607   3.433 -0.4197  1.4673  2.0249
  125OSM    C5S13238   0.654   4.812   3.420 -0.1562  0.0480  0.1306
  125OSM    H5S13239   0.691   4.887   3.349  1.1909 -1.5108 -0.8957
  125OSM    C6S13240   0.586   4.862   3.545  0.5495  0.8516 -0.0632
  125OSM    H6S13241   0.523   4.950   3.519 -1.5796 -0.9152 -1.1956
  125OSM    H6T13242   0.660   4.906   3.617  1.8497  1.3852 -1.6615
  125OSM    C7S13243   0.478   4.783   3.623 -0.4535 -0.2940 -0.3934
  125OSM    H7S13244   0.511   4.679   3.645  1.6645  0.8479  2.4436
  125OSM    H7T13245   0.383   4.758   3.570 -1.0702 -0.7792  0.9005
  125OSM    C8S13246   0.427   4.854   3.752 -0.3292  0.1897  0.4236
  125OSM    H8S13247   0.330   4.805   3.779 -0.0216 -2.9163 -3.3266
  125OSM    H8T13248   0.403   4.960   3.731  0.1683  0.3697  0.7390
  125OSM    C9S13249   0.524   4.845   3.873 -0.3873 -0.4408 -0.7254
  125OSM    H9S13250   0.629   4.873   3.850  0.8422 -3.3849  0.7655
  125OSM    H9T13251   0.527   4.739   3.906  0.4341 -1.3557 -3.4734
  125OSM   C10S13252   0.464   4.909   3.996  0.5955 -1.2164  0.1432
  125OSM   H10S13253   0.361   4.870   4.016  0.6081 -0.7623  1.1360
  125OSM   H10T13254   0.451   5.018   3.978  3.0002 -0.8696  0.2518
  125OSM   C11S13255   0.541   4.881   4.123 -0.3152 -0.0860  0.1860
  125OSM   H11S13256   0.649   4.901   4.107 -0.2931 -0.9803 -0.9308
  125OSM   H11T13257   0.533   4.772   4.143  0.1906  0.0551  1.2016
  125OSM   C12S13258   0.488   4.965   4.245 -0.3060 -0.3760  0.4425
  125OSM   H12S13259   0.383   4.988   4.216 -0.8098 -2.5736  0.3718
  125OSM   H12T13260   0.541   5.063   4.243  0.9636 -1.0440  0.2976
  125OSM   C13S13261   0.511   4.894   4.372  0.0364 -0.3116 -0.0673
  125OSM   H13S13262   0.615   4.865   4.398  0.4648  0.7128 -0.6084
  125OSM   H13T13263   0.470   4.791   4.362  0.1496 -0.8324  3.3586
  125OSM   C14S13264   0.443   4.964   4.488 -0.5942 -0.0658  0.1253
  125OSM   H14S13265   0.333   4.949   4.482 -0.7559  1.3058 -0.6498
  125OSM   H14T13266   0.472   5.070   4.474 -0.8686  0.0596  0.4906
  125OSM   C15S13267   0.509   4.911   4.617 -0.4345 -0.2040 -0.1294
  125OSM   H15S13268   0.618   4.929   4.622 -0.6192  0.7527  3.1857
  125OSM   H15T13269   0.492   4.801   4.618 -0.6322 -0.1814 -0.6541
  125OSM   C16S13270   0.453   4.980   4.735  0.7299 -0.4926 -0.5487
  125OSM   H16S13271   0.345   4.957   4.728  1.2516 -2.5525 -3.2939
  125OSM   H16T13272   0.471   5.089   4.722 -2.4143 -0.0394 -2.0886
  125OSM   C17S13273   0.503   4.932   4.862  0.8254  0.1937  0.2282
  125OSM   H17S13274   0.490   4.822   4.871 -1.7474  0.4815  1.0917
  125OSM   H17T13275   0.439   4.969   4.945  1.0802  0.0974  0.4646
  125OSM   C18S13276   0.650   4.963   4.895  0.1261 -0.1312  0.2833
  125OSM   H18S13277   0.685   4.919   4.991  0.6757  0.3801  0.3283
  125OSM   H18T13278   0.665   5.073   4.904  1.6134 -0.1616 -1.2321
  125OSM   H18U13279   0.726   4.941   4.816 -0.6044  2.3536 -1.2331
  125OSM    C1F13280   1.076   4.591   3.333  0.2047 -0.5703  1.0369
  125OSM     OF13281   1.140   4.669   3.261  0.2210 -0.0590  0.6702
  125OSM    C2F13282   1.151   4.505   3.428  0.0004 -0.7304 -0.2348
  125OSM    H2F13283   1.259   4.494   3.403  0.8191  0.2328  2.5430
  125OSM    H2G13284   1.106   4.403   3.438 -2.5325  0.2120 -1.2199
  125OSM    C3F13285   1.153   4.585   3.565 -0.0153 -0.2760 -0.0721
  125OSM    H3F13286   1.048   4.575   3.600  0.6121 -0.3522  1.8623
  125OSM    H3G13287   1.190   4.688   3.550 -1.2064  0.0559 -0.9369
  125OSM    C4F13288   1.231   4.512   3.675  0.0625  0.3085 -0.2819
  125OSM    H4F13289   1.334   4.489   3.641 -0.0537  1.0192 -1.1689
  125OSM    H4G13290   1.175   4.419   3.698  0.1030  0.6282  1.2494
  125OSM    C5F13291   1.232   4.587   3.817  0.4575  0.5464 -0.3242
  125OSM    H5F13292   1.126   4.599   3.849  0.6146 -0.5662  0.7199
  125OSM    H5G13293   1.276   4.689   3.812 -0.3680  0.9373  0.1564
  125OSM    C6F13294   1.297   4.515   3.934  0.2444  0.1115  0.0606
  125OSM    H6F13295   1.405   4.520   3.909  0.1725  0.2869 -0.2104
  125OSM    H6G13296   1.251   4.414   3.930 -1.7836  1.0056 -0.4580
  125OSM    C7F13297   1.281   4.590   4.066  0.1399  0.0619  0.1267
  125OSM    H7F13298   1.177   4.595   4.104  0.2110  2.5644  0.1532
  125OSM    H7G13299   1.301   4.696   4.040 -1.8080 -0.0595 -2.2181
  125OSM    C8F13300   1.369   4.537   4.178 -0.2018  0.0183  0.0887
  125OSM    H8F13301   1.351   4.612   4.259 -2.0568  1.9787 -1.9961
  125OSM    H8G13302   1.477   4.540   4.153  0.3341  0.1775  2.1845
  125OSM    C9F13303   1.329   4.397   4.222 -0.4201  0.0813  0.3024
  125OSM    H9F13304   1.321   4.331   4.134 -1.7475 -1.1672  1.3296
  125OSM   C10F13305   1.292   4.356   4.343 -0.6778 -0.0765  0.3902
  125OSM   H10F13306   1.271   4.249   4.356  2.3209 -0.9667 -1.2429
  125OSM   C11F13307   1.277   4.440   4.465 -0.2248 -0.1180 -0.0203
  125OSM   H11F13308   1.169   4.453   4.485  0.6054  2.4570  4.1372
  125OSM   H11G13309   1.316   4.542   4.441 -2.8138  0.4267 -2.4691
  125OSM   C12F13310   1.344   4.385   4.585  0.2637  0.8812  0.0981
  125OSM   H12F13311   1.449   4.422   4.583 -0.5734  3.4194 -1.7462
  125OSM   H12G13312   1.329   4.275   4.579 -1.3025  1.1266 -0.9082
  125OSM   C13F13313   1.280   4.427   4.716 -0.2633  0.4016  0.0776
  125OSM   H13F13314   1.177   4.395   4.688  0.5406 -1.5649 -0.8949
  125OSM   H13G13315   1.283   4.536   4.735  1.5663  0.6192 -1.1966
  125OSM   C14F13316   1.327   4.352   4.840  0.5534  0.1865 -0.0159
  125OSM   H14F13317   1.427   4.389   4.871  0.8875 -0.8131  0.1344
  125OSM   H14G13318   1.325   4.248   4.802 -3.4684  0.7166 -1.7507
  125OSM   C15F13319   1.227   4.358   4.957 -0.3031 -0.1732  0.0319
  125OSM   H15F13320   1.123   4.334   4.925 -0.2221 -1.6286  0.7807
  125OSM   H15G13321   1.225   4.466   4.982 -2.0636 -0.2690  0.4499
  125OSM   C16F13322   1.270   4.281   5.080 -0.3404 -0.0547 -0.1403
  125OSM   H16F13323   1.365   4.323   5.119  1.4795 -2.7884 -1.3119
  125OSM   H16G13324   1.311   4.180   5.061  1.9916  0.6381  0.8761
  125OSM   C17F13325   1.155   4.272   5.184 -0.3161  0.1423 -1.2225
  125OSM   H17F13326   1.065   4.222   5.143  0.0215 -1.3918 -0.2060
  125OSM   H17G13327   1.124   4.376   5.207  2.0311  0.2746  2.1098
  125OSM   C18F13328   1.194   4.204   5.316  0.1801  0.9552  0.1488
  125OSM   H18F13329   1.199   4.095   5.299 -0.7725  1.0090 -0.5069
  125OSM   H18G13330   1.127   4.237   5.399  0.3472 -0.0797  0.7051
  125OSM   H18H13331   1.301   4.229   5.338  0.5856  0.7876 -1.5196
  126OSM      N13332   5.948   4.562   3.219 -0.5369 -0.0314  0.2309
  126OSM    C1513333   5.974   4.614   3.359  0.4513  0.2144  0.3698
  126OSM   H15A13334   5.927   4.554   3.436  1.4588  0.6917  1.4027
  126OSM   H15B13335   5.941   4.716   3.370  2.4527  1.1622 -1.6288
  126OSM   H15C13336   6.079   4.631   3.377 -0.2541  4.1455  1.5977
  126OSM    C1413337   5.808   4.524   3.201 -0.2710  0.1354 -0.3697
  126OSM   H14A13338   5.784   4.511   3.096 -1.7298 -0.0743 -0.0391
  126OSM   H14B13339   5.739   4.591   3.250 -2.1319 -2.5870  0.9808
  126OSM   H14C13340   5.786   4.430   3.248 -1.7218  0.7277  0.2148
  126OSM    C1313341   5.963   4.678   3.126  0.3600 -0.2761  0.0678
  126OSM   H13A13342   6.061   4.723   3.135  0.3640 -0.5281  1.6212
  126OSM   H13B13343   5.883   4.751   3.131  1.5973  1.1106  0.5564
  126OSM   H13C13344   5.974   4.652   3.022  0.8845  1.5967 -0.3837
  126OSM    C1213345   6.043   4.443   3.187 -0.9577 -0.4144  0.1241
  126OSM   H12A13346   6.030   4.424   3.082 -4.1095  1.3070  0.0743
  126OSM   H12B13347   6.009   4.357   3.244  0.3388 -0.1367  1.3632
  126OSM    C1113348   6.197   4.466   3.219 -0.6552  0.2720  0.1876
  126OSM   H11A13349   6.258   4.374   3.207  1.9688  1.7865  0.9541
  126OSM   H11B13350   6.207   4.495   3.326 -0.0617  0.9443 -0.0439
  126OSM      P13351   6.378   4.576   3.064  0.1171 -0.0615  0.6475
  126OSM    O1313352   6.370   4.499   2.935 -0.4651  0.0497 -0.2750
  126OSM    O1413353   6.406   4.722   3.042 -0.5016 -0.4712  0.2783
  126OSM    O1113354   6.482   4.515   3.165 -0.0041  0.0032  0.4077
  126OSM    O1213355   6.233   4.563   3.127 -0.4335  0.0058 -0.3281
  126OSM    C1S13356   6.479   4.585   3.298  0.3200 -0.9046  0.2312
  126OSM    H1S13357   6.374   4.590   3.334 -0.0417 -1.5774 -0.7068
  126OSM    H1T13358   6.515   4.690   3.293 -1.0481 -0.4572 -0.8069
  126OSM     NF13359   6.534   4.555   3.541  0.0378  0.5835 -0.2522
  126OSM    HNF13360   6.610   4.601   3.586  0.3835 -0.2256  0.0077
  126OSM    C2S13361   6.575   4.514   3.406 -0.2828  0.1772  1.1672
  126OSM    H2S13362   6.554   4.405   3.392  0.4827  0.4144 -3.4592
  126OSM    C3S13363   6.727   4.532   3.368 -0.3762  0.0897  0.4114
  126OSM    H3S13364   6.750   4.641   3.364 -0.6288  0.1454 -3.8015
  126OSM     O313365   6.754   4.491   3.235 -0.3728  0.0084 -0.1099
  126OSM    HO313366   6.666   4.488   3.198 -1.3081  0.5246  1.9587
  126OSM    C4S13367   6.813   4.451   3.464  0.7049 -0.1137  0.8480
  126OSM    H4S13368   6.805   4.343   3.450 -0.8322  0.1363 -0.4640
  126OSM    C5S13369   6.902   4.498   3.552  0.2666  0.1764  0.0051
  126OSM    H5S13370   6.916   4.607   3.551  1.3122  0.0446 -0.5752
  126OSM    C6S13371   6.989   4.419   3.651  0.0280 -0.3990 -0.1615
  126OSM    H6S13372   7.097   4.427   3.626  0.5574 -1.3830  1.6261
  126OSM    H6T13373   6.954   4.314   3.646 -1.7769  0.1592  0.2227
  126OSM    C7S13374   6.988   4.480   3.791  0.5830  0.0158 -0.2340
  126OSM    H7S13375   7.002   4.590   3.787  1.6711  0.2788  4.3456
  126OSM    H7T13376   7.074   4.450   3.854  1.5121 -0.3803 -1.6486
  126OSM    C8S13377   6.857   4.461   3.866  0.0771  0.4783  0.8587
  126OSM    H8S13378   6.854   4.352   3.890  4.0519  0.1040  0.3568
  126OSM    H8T13379   6.770   4.489   3.803  0.2947 -0.3994  0.1557
  126OSM    C9S13380   6.856   4.551   3.983 -0.4301  0.4414  0.5978
  126OSM    H9S13381   6.763   4.530   4.039 -0.5696 -1.5005 -0.2947
  126OSM    H9T13382   6.886   4.656   3.964  2.0417 -0.3105 -0.0071
  126OSM   C10S13383   6.953   4.504   4.096  0.1664 -0.5648  0.1340
  126OSM   H10S13384   7.061   4.513   4.068 -0.1320  1.2717 -0.5977
  126OSM   H10T13385   6.928   4.397   4.114 -1.2598 -1.0509 -3.8019
  126OSM   C11S13386   6.935   4.585   4.227 -0.0168  0.5790  0.0712
  126OSM   H11S13387   6.825   4.589   4.241  0.1766  0.8131  1.7046
  126OSM   H11T13388   6.970   4.687   4.199  0.3575 -0.0372 -1.9128
  126OSM   C12S13389   7.007   4.521   4.341 -0.1175  0.3507 -0.4830
  126OSM   H12S13390   7.116   4.518   4.318 -0.2445 -2.0892 -1.0658
  126OSM   H12T13391   6.972   4.417   4.358 -1.3616  0.9781  1.0061
  126OSM   C13S13392   6.966   4.584   4.468 -0.3042  0.0826 -0.3726
  126OSM   H13S13393   6.860   4.554   4.483  0.0700 -1.3766 -0.5178
  126OSM   H13T13394   6.971   4.694   4.457  3.5832 -0.0303 -1.1024
  126OSM   C14S13395   7.048   4.541   4.596  0.0723 -0.5716  1.1130
  126OSM   H14S13396   7.141   4.601   4.578 -0.7513  1.0293  1.9708
  126OSM   H14T13397   7.076   4.436   4.574  0.3371  0.0431 -2.0439
  126OSM   C15S13398   6.985   4.577   4.728 -0.3648 -0.2133  0.4150
  126OSM   H15S13399   6.897   4.512   4.745 -0.7358 -0.0572 -0.8023
  126OSM   H15T13400   6.949   4.682   4.724 -1.5993 -0.6127  0.6419
  126OSM   C16S13401   7.087   4.565   4.849  0.9167 -0.6838 -0.2198
  126OSM   H16S13402   7.175   4.626   4.821  0.2222 -0.4050 -1.9786
  126OSM   H16T13403   7.121   4.460   4.860  0.9788 -0.8195 -1.5238
  126OSM   C17S13404   7.032   4.621   4.983 -0.7426 -0.2011 -0.0885
  126OSM   H17S13405   6.994   4.725   4.980  0.8512  0.4269  0.6366
  126OSM   H17T13406   7.117   4.614   5.054  0.8139  1.3772 -1.7020
  126OSM   C18S13407   6.926   4.523   5.042 -0.2980  0.0650 -0.8902
  126OSM   H18S13408   6.980   4.430   5.070  1.3506  0.9370 -0.9818
  126OSM   H18T13409   6.852   4.503   4.962 -0.2744 -0.1581 -0.8559
  126OSM   H18U13410   6.891   4.572   5.136  0.0847  1.0650 -1.2488
  126OSM    C1F13411   6.405   4.541   3.600  0.5835  0.1703  0.0981
  126OSM     OF13412   6.326   4.455   3.559 -0.3597 -0.1623  0.2292
  126OSM    C2F13413   6.365   4.636   3.708  0.6863  0.0552 -0.6857
  126OSM    H2F13414   6.301   4.709   3.656  1.0652  0.9085  0.0217
  126OSM    H2G13415   6.449   4.705   3.731  1.6639 -1.0939 -0.6905
  126OSM    C3F13416   6.307   4.572   3.839 -0.8732 -0.0329 -0.0631
  126OSM    H3F13417   6.387   4.505   3.877  0.2273  1.2146 -0.0921
  126OSM    H3G13418   6.230   4.504   3.799  0.7551 -0.2312 -3.1845
  126OSM    C4F13419   6.258   4.662   3.950  0.8146  0.8791 -0.0393
  126OSM    H4F13420   6.167   4.711   3.909  0.1885 -0.5689 -0.4640
  126OSM    H4G13421   6.338   4.730   3.984  0.6198  0.3610  1.5195
  126OSM    C5F13422   6.212   4.574   4.068 -0.2400  0.3233 -0.5727
  126OSM    H5F13423   6.294   4.507   4.103 -1.5203  0.1954  2.5270
  126OSM    H5G13424   6.124   4.518   4.030 -0.3992  0.4598 -0.4006
  126OSM    C6F13425   6.163   4.661   4.184 -0.3046 -0.6563 -0.1476
  126OSM    H6F13426   6.078   4.728   4.160  0.7362  1.4092  1.5607
  126OSM    H6G13427   6.258   4.717   4.198  1.0019 -2.4809 -1.2671
  126OSM    C7F13428   6.111   4.587   4.305  0.1204 -0.7640 -0.5413
  126OSM    H7F13429   6.182   4.510   4.341  0.3971 -0.0969  0.4050
  126OSM    H7G13430   6.014   4.542   4.274 -1.0131 -0.0943  1.8088
  126OSM    C8F13431   6.071   4.691   4.415 -0.1666  0.0218  0.2478
  126OSM    H8F13432   6.005   4.640   4.488 -1.0531 -1.1110 -1.3025
  126OSM    H8G13433   6.003   4.763   4.364  1.4038  1.4071  0.0154
  126OSM    C9F13434   6.201   4.756   4.474  0.3795  0.0954  0.1041
  126OSM    H9F13435   6.290   4.703   4.439 -0.1918 -0.4035 -0.6310
  126OSM   C10F13436   6.205   4.863   4.559 -0.0139  0.5535  0.6441
  126OSM   H10F13437   6.299   4.909   4.591  0.0027  0.3309  0.9078
  126OSM   C11F13438   6.083   4.935   4.609 -0.6665  0.1758 -0.3800
  126OSM   H11F13439   5.998   4.868   4.632  0.9182 -1.7092  0.2571
  126OSM   H11G13440   6.055   5.018   4.540 -2.5868 -0.2998 -0.2470
  126OSM   C12F13441   6.141   5.008   4.733 -0.2156  0.1568 -0.1736
  126OSM   H12F13442   6.227   5.071   4.705  0.8402 -1.1613 -0.0399
  126OSM   H12G13443   6.174   4.924   4.799 -0.9131 -0.1301 -0.1765
  126OSM   C13F13444   6.036   5.093   4.815 -0.2921 -0.2109 -0.3032
  126OSM   H13F13445   5.950   5.026   4.838 -1.0936  1.6684  2.7936
  126OSM   H13G13446   6.005   5.182   4.757 -0.1528  0.4442  0.6147
  126OSM   C14F13447   6.097   5.147   4.944  1.1912 -0.6981 -0.5312
  126OSM   H14F13448   6.191   5.203   4.922  0.4547  0.2103 -1.4372
  126OSM   H14G13449   6.124   5.056   5.002 -1.1048 -1.4063 -0.4726
  126OSM   C15F13450   5.983   5.225   5.020 -0.5509  0.4024  0.0043
  126OSM   H15F13451   5.909   5.151   5.055 -0.4630  0.7279  0.9170
  126OSM   H15G13452   5.923   5.283   4.947 -1.3134 -1.7445 -1.1697
  126OSM   C16F13453   6.033   5.312   5.137  0.6219 -0.8150 -0.3560
  126OSM   H16F13454   5.941   5.361   5.175  1.3096 -0.3642  0.7913
  126OSM   H16G13455   6.100   5.396   5.108 -0.1234 -0.2668 -0.4970
  126OSM   C17F13456   6.113   5.238   5.244 -0.3907  0.0805 -0.3931
  126OSM   H17F13457   6.200   5.186   5.197  0.3303  1.0154 -0.1108
  126OSM   H17G13458   6.057   5.155   5.292  0.2785  0.1535  0.5342
  126OSM   C18F13459   6.178   5.326   5.349  0.1427 -0.0017  0.2093
  126OSM   H18F13460   6.226   5.414   5.301  0.8353 -1.5141 -2.0646
  126OSM   H18G13461   6.255   5.276   5.411  1.0906  1.4345  0.2345
  126OSM   H18H13462   6.090   5.355   5.410 -0.6318 -1.8466  0.0327
  127OSM      N13463   0.513   6.113   2.978 -0.4479 -0.0141 -0.5585
  127OSM    C1513464   0.443   6.138   3.109 -0.1642  0.4517  0.3477
  127OSM   H15A13465   0.386   6.048   3.127 -0.7181  0.2901 -1.9249
  127OSM   H15B13466   0.364   6.210   3.089 -0.1889  0.3194 -0.0272
  127OSM   H15C13467   0.504   6.177   3.189 -0.9698  2.0379  0.2419
  127OSM    C1413468   0.412   6.054   2.880 -0.0383  0.4405  0.0415
  127OSM   H14A13469   0.324   6.112   2.857  0.2981  1.2669  0.7785
  127OSM   H14B13470   0.372   5.973   2.940  0.2248  1.5665  1.8304
  127OSM   H14C13471   0.457   6.009   2.793  0.7323  0.3179  0.4944
  127OSM    C1313472   0.558   6.243   2.922 -0.3138  0.0256  0.2773
  127OSM   H13A13473   0.480   6.317   2.924  0.0812  0.4891  2.8339
  127OSM   H13B13474   0.586   6.221   2.820 -1.0003 -1.1469  0.3366
  127OSM   H13C13475   0.646   6.272   2.979 -0.1234  0.7512 -0.3668
  127OSM    C1213476   0.634   6.021   2.990 -0.8896  0.3098  0.5881
  127OSM   H12A13477   0.664   5.989   2.891 -2.9117  0.0816 -0.0007
  127OSM   H12B13478   0.606   5.928   3.036  0.3093 -0.1935  0.3186
  127OSM    C1113479   0.757   6.080   3.062  0.5768  0.6040 -0.3957
  127OSM   H11A13480   0.823   5.996   3.094 -0.5634 -1.3806 -2.8832
  127OSM   H11B13481   0.724   6.134   3.153 -1.3927 -0.3451 -0.4796
  127OSM      P13482   0.933   6.264   3.003  0.3247  0.0600  0.0901
  127OSM    O1313483   1.064   6.209   2.965  0.6873 -0.6761  0.0659
  127OSM    O1413484   0.886   6.395   2.955 -0.1253  0.3223  0.6943
  127OSM    O1113485   0.936   6.279   3.162 -0.2352  0.8699  0.6280
  127OSM    O1213486   0.820   6.162   2.968  0.1586 -0.0334  0.2385
  127OSM    C1S13487   1.030   6.365   3.215 -0.0322 -0.4591 -0.4729
  127OSM    H1S13488   1.006   6.466   3.175 -0.7871 -1.5678 -3.0254
  127OSM    H1T13489   1.130   6.331   3.184 -0.6337 -2.2106 -0.5841
  127OSM     NF13490   1.110   6.447   3.437 -0.1405 -1.1811  0.0393
  127OSM    HNF13491   1.184   6.412   3.494  1.4168  0.6690 -0.7680
  127OSM    C2S13492   1.024   6.350   3.367 -0.0858 -0.8991  0.2037
  127OSM    H2S13493   0.919   6.381   3.387  0.0952 -0.4900  0.5416
  127OSM    C3S13494   1.047   6.205   3.417  0.8830 -0.2575 -0.1432
  127OSM    H3S13495   1.152   6.179   3.393  0.9944 -1.3596  1.3981
  127OSM     O313496   0.971   6.101   3.349  0.2164 -0.1083 -0.2569
  127OSM    HO313497   0.943   6.149   3.271 -0.6273 -1.6698 -0.9589
  127OSM    C4S13498   1.032   6.206   3.568  0.1071  0.1651 -0.0722
  127OSM    H4S13499   0.944   6.256   3.610  0.8368  1.5069 -0.1045
  127OSM    C5S13500   1.106   6.134   3.653 -0.1007  0.1251  0.3221
  127OSM    H5S13501   1.175   6.056   3.617 -0.0952  0.8028 -1.2472
  127OSM    C6S13502   1.082   6.114   3.795 -0.0248 -0.5853 -0.2590
  127OSM    H6S13503   1.169   6.066   3.844  2.9000  1.4425 -3.1215
  127OSM    H6T13504   0.986   6.062   3.815 -1.0930  1.5346  0.5133
  127OSM    C7S13505   1.072   6.245   3.873  0.7176 -0.4404  0.1638
  127OSM    H7S13506   0.981   6.306   3.854 -0.2535 -1.9507 -0.2046
  127OSM    H7T13507   1.159   6.308   3.845  1.0087 -1.1462 -0.5646
  127OSM    C8S13508   1.085   6.204   4.022  0.1393  0.0230  0.5661
  127OSM    H8S13509   1.192   6.173   4.027  0.8909  2.4174  0.4356
  127OSM    H8T13510   1.014   6.124   4.051 -0.5281 -1.0887 -3.5495
  127OSM    C9S13511   1.060   6.319   4.119  0.0242 -0.5983  0.1636
  127OSM    H9S13512   0.953   6.347   4.105 -0.0151 -1.2826 -1.0224
  127OSM    H9T13513   1.119   6.409   4.092  0.3835 -0.2341  2.0548
  127OSM   C10S13514   1.080   6.298   4.274  0.0758  0.4189 -0.3745
  127OSM   H10S13515   1.011   6.217   4.308  1.6256 -0.0425  1.9348
  127OSM   H10T13516   1.063   6.396   4.322  0.7167  0.5449 -0.3879
  127OSM   C11S13517   1.222   6.248   4.312  0.8426  1.0522  0.0227
  127OSM   H11S13518   1.299   6.322   4.283  0.5374  1.4638  0.2535
  127OSM   H11T13519   1.233   6.153   4.255  1.7355  0.6802  0.7755
  127OSM   C12S13520   1.236   6.247   4.464 -0.0455 -0.6020  0.4788
  127OSM   H12S13521   1.194   6.343   4.500  1.3353  0.5613 -0.9001
  127OSM   H12T13522   1.342   6.230   4.492  0.2164 -4.2602 -2.0543
  127OSM   C13S13523   1.156   6.140   4.544  0.4413 -0.4455  0.5362
  127OSM   H13S13524   1.200   6.040   4.522 -1.2386 -1.6541  2.3300
  127OSM   H13T13525   1.052   6.140   4.506 -0.0222 -0.2340  1.7527
  127OSM   C14S13526   1.144   6.155   4.700 -0.0582 -0.1222  0.3395
  127OSM   H14S13527   1.102   6.064   4.748  0.3228 -0.7820 -0.5395
  127OSM   H14T13528   1.074   6.238   4.720 -0.0978 -0.2403  0.6941
  127OSM   C15S13529   1.291   6.184   4.761  0.6833  0.3172 -0.5318
  127OSM   H15S13530   1.336   6.268   4.703  0.7536  0.2528 -0.5717
  127OSM   H15T13531   1.347   6.093   4.734 -1.1816 -1.0508  0.0235
  127OSM   C16S13532   1.299   6.213   4.909  0.8123  0.8688  0.4202
  127OSM   H16S13533   1.253   6.132   4.970 -0.1825  0.6606 -0.5737
  127OSM   H16T13534   1.242   6.306   4.932 -0.7454 -0.2341  1.2213
  127OSM   C17S13535   1.451   6.228   4.953  0.9657 -0.3174 -0.3511
  127OSM   H17S13536   1.482   6.332   4.928  0.2508  0.4177  1.6069
  127OSM   H17T13537   1.505   6.158   4.885  0.6451  0.3773 -1.3464
  127OSM   C18S13538   1.478   6.212   5.100 -0.5365  0.6504  0.1422
  127OSM   H18S13539   1.578   6.251   5.130 -0.0314  0.4241 -1.1837
  127OSM   H18T13540   1.475   6.105   5.131  0.7072 -0.1734 -2.2989
  127OSM   H18U13541   1.406   6.268   5.164  0.6787  0.0253  2.1721
  127OSM    C1F13542   1.100   6.576   3.439 -0.0025 -0.3195  0.6302
  127OSM     OF13543   1.006   6.633   3.387  0.3966 -0.1287 -0.2176
  127OSM    C2F13544   1.217   6.647   3.508 -0.7717 -0.1577  0.5485
  127OSM    H2F13545   1.250   6.722   3.433  0.6583 -2.5346 -1.3501
  127OSM    H2G13546   1.300   6.578   3.535 -0.6584  0.3184  1.4571
  127OSM    C3F13547   1.170   6.739   3.628 -0.1020 -0.6018  0.1694
  127OSM    H3F13548   1.065   6.773   3.614 -0.2677  0.3809  3.1196
  127OSM    H3G13549   1.246   6.819   3.642 -0.4800 -0.4427  1.4824
  127OSM    C4F13550   1.167   6.655   3.760 -0.4199  0.6873 -0.6198
  127OSM    H4F13551   1.251   6.586   3.781 -0.3968  1.2223  1.1990
  127OSM    H4G13552   1.077   6.590   3.758  1.5339 -2.1791 -0.4209
  127OSM    C5F13553   1.165   6.760   3.873  0.8777 -0.5984 -0.1106
  127OSM    H5F13554   1.080   6.832   3.871  1.0346 -0.2416  2.3874
  127OSM    H5G13555   1.254   6.826   3.863 -0.5591  1.3387 -0.6059
  127OSM    C6F13556   1.155   6.698   4.014 -0.0858 -0.0355  0.5980
  127OSM    H6F13557   1.225   6.613   4.025 -0.1297 -0.1871 -0.1929
  127OSM    H6G13558   1.055   6.649   4.012  0.1102 -0.4537  1.0383
  127OSM    C7F13559   1.166   6.800   4.125 -0.4952 -0.0698 -0.0708
  127OSM    H7F13560   1.091   6.881   4.117  1.1506  1.4308 -1.1187
  127OSM    H7G13561   1.262   6.856   4.125 -1.8100  2.3199 -0.5206
  127OSM    C8F13562   1.158   6.723   4.259  0.0761 -0.5333 -0.6681
  127OSM    H8F13563   1.238   6.647   4.265  1.4186  0.8224 -0.6084
  127OSM    H8G13564   1.062   6.669   4.269 -1.5985  2.2009 -0.7027
  127OSM    C9F13565   1.169   6.815   4.380 -0.2045  0.3352  0.0420
  127OSM    H9F13566   1.152   6.918   4.347  1.7027  0.7665  0.2964
  127OSM   C10F13567   1.201   6.778   4.498  0.0190  0.7916 -0.6545
  127OSM   H10F13568   1.227   6.857   4.570 -1.5624  2.1532 -1.5320
  127OSM   C11F13569   1.220   6.636   4.554  1.0659  0.1360 -0.1600
  127OSM   H11F13570   1.300   6.635   4.632  0.4661  3.5437  0.6555
  127OSM   H11G13571   1.238   6.558   4.477 -1.3218 -0.2090 -0.4212
  127OSM   C12F13572   1.089   6.584   4.619 -0.3855 -0.2279  0.1041
  127OSM   H12F13573   1.068   6.475   4.626 -0.9224 -0.0567  1.3576
  127OSM   H12G13574   1.008   6.610   4.548 -2.8394 -0.1895  2.7306
  127OSM   C13F13575   1.050   6.639   4.749 -0.6696 -0.0141 -0.8056
  127OSM   H13F13576   0.939   6.640   4.757 -0.8757 -2.8516 -2.2208
  127OSM   H13G13577   1.084   6.745   4.752  0.5427 -0.3905 -0.9398
  127OSM   C14F13578   1.106   6.567   4.867  1.1017 -0.3435 -0.9872
  127OSM   H14F13579   1.214   6.551   4.848  0.9209 -3.3163 -0.0530
  127OSM   H14G13580   1.065   6.465   4.881  1.4097 -0.0934  2.7996
  127OSM   C15F13581   1.085   6.634   5.009  0.3333  0.2680  0.5516
  127OSM   H15F13582   1.096   6.745   5.003 -0.3483  0.3150 -0.0292
  127OSM   H15G13583   1.141   6.597   5.097 -1.9042  2.4329  3.0777
  127OSM   C16F13584   0.940   6.611   5.046 -0.0579 -0.7250  0.4531
  127OSM   H16F13585   0.921   6.508   5.082 -0.1666 -0.8691 -0.0142
  127OSM   H16G13586   0.863   6.634   4.969  1.5351  0.4674 -0.8462
  127OSM   C17F13587   0.907   6.706   5.167  0.2895 -0.2085 -0.2387
  127OSM   H17F13588   0.914   6.810   5.127 -0.5514  0.3273  0.9461
  127OSM   H17G13589   0.994   6.692   5.235  1.3084  4.4090 -0.2193
  127OSM   C18F13590   0.768   6.694   5.224 -0.2962  0.4679 -0.1117
  127OSM   H18F13591   0.752   6.591   5.262  0.3447  0.0301 -1.0153
  127OSM   H18G13592   0.694   6.726   5.148  0.7109  1.4504 -0.7085
  127OSM   H18H13593   0.751   6.766   5.307  0.7426 -1.4142  1.8463
  128OSM      N13594   6.702   5.563   3.052 -0.0174  0.2026  0.0846
  128OSM    C1513595   6.766   5.472   2.949 -0.4263  0.2838 -0.1814
  128OSM   H15A13596   6.706   5.472   2.860  1.4620  2.2737 -1.5603
  128OSM   H15B13597   6.768   5.373   2.993  2.9021 -0.3173 -1.3900
  128OSM   H15C13598   6.867   5.504   2.927  1.9594 -2.5824  4.7529
  128OSM    C1413599   6.687   5.702   2.993 -0.2894 -0.8089  0.2194
  128OSM   H14A13600   6.652   5.773   3.066  1.5453  0.9175 -0.4660
  128OSM   H14B13601   6.616   5.699   2.911 -0.3896  1.5185  0.1664
  128OSM   H14C13602   6.775   5.744   2.947 -0.7168 -0.1268  0.0132
  128OSM    C1313603   6.566   5.515   3.079  0.4758  0.3287  0.9141
  128OSM   H13A13604   6.573   5.409   3.101  4.7974  0.0678 -0.6457
  128OSM   H13B13605   6.498   5.533   2.998  0.5715 -0.1396  0.7236
  128OSM   H13C13606   6.521   5.570   3.160 -0.7558  0.8456 -0.0950
  128OSM    C1213607   6.779   5.573   3.181 -0.4118  0.6047 -0.5403
  128OSM   H12A13608   6.729   5.632   3.257  2.0591  0.0990  1.5988
  128OSM   H12B13609   6.878   5.614   3.165  2.6490 -4.5279  2.5333
  128OSM    C1113610   6.820   5.433   3.229 -0.1896  0.0294  0.3054
  128OSM   H11A13611   6.731   5.368   3.228  0.8608 -1.4459  0.3769
  128OSM   H11B13612   6.848   5.445   3.336  0.1681  2.7132 -0.0060
  128OSM      P13613   7.074   5.445   3.139  0.3161  0.0401  0.0033
  128OSM    O1313614   7.149   5.362   3.033 -0.6231  0.3064  0.4090
  128OSM    O1413615   7.067   5.592   3.104  0.9725  0.0907 -0.1557
  128OSM    O1113616   7.136   5.436   3.280 -0.2411 -0.6860 -0.1694
  128OSM    O1213617   6.926   5.386   3.148  0.1606  0.7952  0.5832
  128OSM    C1S13618   7.137   5.546   3.368 -0.3162  0.0647 -0.4368
  128OSM    H1S13619   7.032   5.580   3.386  0.1600  1.7724 -0.7216
  128OSM    H1T13620   7.187   5.636   3.326  0.8023 -0.6526 -0.6942
  128OSM     NF13621   7.213   5.619   3.590 -0.8505 -0.3000 -0.3591
  128OSM    HNF13622   7.305   5.655   3.604 -1.0957 -0.6011  2.5210
  128OSM    C2S13623   7.202   5.506   3.504 -0.2463 -0.1503 -0.2328
  128OSM    H2S13624   7.128   5.434   3.546 -1.3156 -0.6818 -2.8455
  128OSM    C3S13625   7.345   5.440   3.495  1.1486  0.4723  0.4518
  128OSM    H3S13626   7.423   5.518   3.479  2.4147 -0.5561  1.4400
  128OSM     O313627   7.364   5.344   3.390  0.5289  0.4012  0.0125
  128OSM    HO313628   7.297   5.366   3.324  3.0458  0.9502 -2.5682
  128OSM    C4S13629   7.380   5.381   3.626  0.9282 -0.0298  0.1910
  128OSM    H4S13630   7.429   5.461   3.683  0.7020 -0.7007  1.3520
  128OSM    C5S13631   7.369   5.254   3.663  0.3670  0.0660  0.3860
  128OSM    H5S13632   7.334   5.178   3.592 -0.9811  0.5894  0.4626
  128OSM    C6S13633   7.405   5.195   3.797  0.2345  0.2348 -0.8851
  128OSM    H6S13634   7.498   5.136   3.783  0.8249  0.9408 -0.0262
  128OSM    H6T13635   7.321   5.125   3.819  0.3384  0.4399  0.2433
  128OSM    C7S13636   7.447   5.299   3.902  0.3369  0.5732  0.4144
  128OSM    H7S13637   7.351   5.353   3.917 -1.5796 -2.3670 -0.4534
  128OSM    H7T13638   7.525   5.368   3.862 -0.6239  2.0202  0.9473
  128OSM    C8S13639   7.510   5.226   4.023 -0.2279 -0.1352 -0.3921
  128OSM    H8S13640   7.616   5.199   4.002  0.1789  0.3756  0.9235
  128OSM    H8T13641   7.452   5.137   4.055 -0.6416  0.9474  2.0719
  128OSM    C9S13642   7.504   5.316   4.152 -0.1215 -0.3615 -0.0404
  128OSM    H9S13643   7.402   5.358   4.165 -0.2020 -0.0326 -1.6082
  128OSM    H9T13644   7.577   5.396   4.133  0.9851 -1.6897 -1.6615
  128OSM   C10S13645   7.543   5.245   4.274 -0.7403 -0.0536 -1.6920
  128OSM   H10S13646   7.650   5.216   4.268 -0.8803 -0.9728 -0.2790
  128OSM   H10T13647   7.481   5.153   4.277 -1.1591  0.2420  0.6172
  128OSM   C11S13648   7.520   5.330   4.404 -0.1524  0.0577 -0.7957
  128OSM   H11S13649   7.411   5.322   4.423 -0.3631 -1.5162 -2.3362
  128OSM   H11T13650   7.549   5.437   4.396  1.2824 -0.1986  0.6149
  128OSM   C12S13651   7.587   5.254   4.525 -0.0514  0.3090  0.8092
  128OSM   H12S13652   7.697   5.262   4.507  0.5676 -0.2793  3.8371
  128OSM   H12T13653   7.562   5.146   4.516  1.0618 -0.1976  3.1021
  128OSM   C13S13654   7.537   5.317   4.656  0.1521 -0.1346 -0.0228
  128OSM   H13S13655   7.430   5.287   4.665  0.5767 -1.3827  1.2532
  128OSM   H13T13656   7.543   5.427   4.647 -0.5999  0.0158  1.1504
  128OSM   C14S13657   7.614   5.281   4.782  0.5336 -0.7560 -0.0808
  128OSM   H14S13658   7.721   5.313   4.775  0.0555  0.5207 -3.0415
  128OSM   H14T13659   7.618   5.171   4.794  2.2085 -0.6088  1.0204
  128OSM   C15S13660   7.559   5.357   4.900 -0.8958  0.4884  0.2780
  128OSM   H15S13661   7.448   5.351   4.907 -0.9377  0.4155 -0.3940
  128OSM   H15T13662   7.579   5.466   4.892 -0.9658  0.4240 -0.9405
  128OSM   C16S13663   7.634   5.310   5.034  0.5040  1.2112 -0.2299
  128OSM   H16S13664   7.741   5.338   5.030  0.5106  1.1099 -0.7810
  128OSM   H16T13665   7.635   5.199   5.028 -0.2249  0.8368  3.5476
  128OSM   C17S13666   7.576   5.361   5.160 -0.8637 -0.3891 -0.4342
  128OSM   H17S13667   7.601   5.301   5.251  1.2046  1.4306  0.2931
  128OSM   H17T13668   7.466   5.350   5.144 -0.8765 -1.1696  0.1406
  128OSM   C18S13669   7.621   5.505   5.196  0.7549 -0.8089 -0.5888
  128OSM   H18S13670   7.573   5.553   5.284  2.4666 -1.3755  0.7177
  128OSM   H18T13671   7.596   5.577   5.115  1.1555 -0.3378 -0.3029
  128OSM   H18U13672   7.731   5.515   5.212  0.5311  2.0730 -0.3825
  128OSM    C1F13673   7.102   5.686   3.624 -0.4328 -0.0561 -0.0093
  128OSM     OF13674   6.986   5.648   3.600 -0.3290 -0.1083  0.1147
  128OSM    C2F13675   7.115   5.831   3.685 -0.4575  0.5335 -0.3995
  128OSM    H2F13676   7.155   5.897   3.606 -2.9310 -0.5116 -2.6737
  128OSM    H2G13677   7.197   5.830   3.760  0.4433  1.0074 -1.3633
  128OSM    C3F13678   6.987   5.893   3.742  0.5718  0.3854 -0.7065
  128OSM    H3F13679   6.901   5.882   3.673 -0.0926 -1.7146  0.3534
  128OSM    H3G13680   7.019   5.996   3.766  1.0441  0.2497 -0.7508
  128OSM    C4F13681   6.944   5.839   3.883  0.1657 -0.2327 -0.5958
  128OSM    H4F13682   6.914   5.734   3.863 -0.1820 -0.3861  0.6281
  128OSM    H4G13683   6.855   5.901   3.910 -0.7949 -0.9206 -2.0732
  128OSM    C5F13684   7.056   5.836   3.995 -0.3598  0.2289  0.0844
  128OSM    H5F13685   7.078   5.945   3.998 -0.0257  0.1595  0.1886
  128OSM    H5G13686   7.137   5.766   3.965  1.4591  1.5487  1.6239
  128OSM    C6F13687   6.998   5.795   4.132  0.5964 -0.9689  0.5090
  128OSM    H6F13688   6.951   5.696   4.114 -3.3211  0.9436 -0.8218
  128OSM    H6G13689   6.918   5.868   4.158  2.1246  0.8836  0.2466
  128OSM    C7F13690   7.096   5.792   4.245 -0.7608  0.3542 -0.4926
  128OSM    H7F13691   7.136   5.895   4.257 -0.7081  0.1120  1.9381
  128OSM    H7G13692   7.178   5.720   4.224 -0.6651  0.1784  0.4485
  128OSM    C8F13693   7.032   5.735   4.373  0.5993  0.0771 -0.5986
  128OSM    H8F13694   7.108   5.704   4.448 -1.4681 -0.9689  1.1846
  128OSM    H8G13695   6.972   5.648   4.338  1.0320 -1.2929  1.8642
  128OSM    C9F13696   6.939   5.833   4.428 -0.7493 -0.2408  0.3671
  128OSM    H9F13697   6.855   5.849   4.359  0.0578  0.8129 -0.4050
  128OSM   C10F13698   6.964   5.927   4.522 -0.3047  0.1571 -0.0565
  128OSM   H10F13699   6.884   6.003   4.523 -0.9842 -0.5054 -1.4114
  128OSM   C11F13700   7.088   5.940   4.606 -0.3723 -0.8197  0.2073
  128OSM   H11F13701   7.128   6.043   4.597  2.0455 -1.7625 -0.6204
  128OSM   H11G13702   7.169   5.867   4.584 -1.0183 -1.5558  0.2043
  128OSM   C12F13703   7.051   5.931   4.754 -0.3357 -0.6803  0.8939
  128OSM   H12F13704   6.969   6.001   4.781  1.4130  1.7858  0.1665
  128OSM   H12G13705   7.130   5.978   4.816 -0.8057  1.5638 -0.1073
  128OSM   C13F13706   7.025   5.794   4.803  0.5340 -0.1653 -0.4129
  128OSM   H13F13707   7.093   5.723   4.751 -0.0076 -2.2505  1.5408
  128OSM   H13G13708   6.923   5.756   4.778  0.5304  0.7298 -1.8892
  128OSM   C14F13709   7.043   5.786   4.955 -0.4085  0.4151  0.5273
  128OSM   H14F13710   7.152   5.798   4.971 -0.2375  1.6113 -1.1892
  128OSM   H14G13711   7.013   5.688   4.999 -0.5791  0.9510  1.6402
  128OSM   C15F13712   6.968   5.892   5.049  0.4424 -0.2038  0.2910
  128OSM   H15F13713   6.984   5.988   4.995 -2.0790 -1.2532 -2.6774
  128OSM   H15G13714   7.004   5.887   5.154 -0.8049  3.6829  1.0470
  128OSM   C16F13715   6.816   5.860   5.041  0.0729  0.5629  0.0562
  128OSM   H16F13716   6.795   5.751   5.054  1.2364  0.2390 -0.6637
  128OSM   H16G13717   6.789   5.886   4.937  2.4673  0.7995 -0.5665
  128OSM   C17F13718   6.743   5.933   5.153 -0.0431  0.1243 -0.1547
  128OSM   H17F13719   6.775   5.901   5.255 -1.0544  0.8687  0.4159
  128OSM   H17G13720   6.641   5.890   5.151 -1.0263  1.8040  3.9402
  128OSM   C18F13721   6.736   6.089   5.147  0.3763  0.5342 -0.1668
  128OSM   H18F13722   6.691   6.121   5.050 -1.1139  0.4994  0.4888
  128OSM   H18G13723   6.840   6.124   5.163  0.5833  0.0491 -0.4357
  128OSM   H18H13724   6.673   6.112   5.235 -1.9835  1.9177 -2.0884
  129OSM      N13725   1.572   2.581   3.228  0.7291  0.3193  0.6194
  129OSM    C1513726   1.616   2.692   3.136  0.1898  0.2357 -0.7398
  129OSM   H15A13727   1.719   2.680   3.107  0.8804 -1.5850  2.0091
  129OSM   H15B13728   1.613   2.784   3.192  0.6953  0.0218 -0.3518
  129OSM   H15C13729   1.544   2.701   3.056 -2.1583 -1.6899  0.9780
  129OSM    C1413730   1.521   2.475   3.141 -0.5194 -0.4047 -0.7834
  129OSM   H14A13731   1.482   2.392   3.198  0.9705 -0.8895 -0.4186
  129OSM   H14B13732   1.602   2.440   3.078  2.0456  1.1860  1.4472
  129OSM   H14C13733   1.449   2.513   3.070 -1.0388  1.2986  0.6033
  129OSM    C1313734   1.686   2.527   3.309 -0.5543 -0.0163 -0.1479
  129OSM   H13A13735   1.773   2.515   3.246  0.0662  1.2070  0.4603
  129OSM   H13B13736   1.666   2.430   3.353  1.1951 -1.0593 -1.4960
  129OSM   H13C13737   1.721   2.597   3.382  0.9411 -1.4304  0.5294
  129OSM    C1213738   1.463   2.639   3.309 -0.0830  0.0440 -0.1623
  129OSM   H12A13739   1.423   2.566   3.378 -2.3988  0.0523 -1.3707
  129OSM   H12B13740   1.378   2.667   3.248  0.7469 -1.7273 -2.2837
  129OSM    C1113741   1.490   2.759   3.404  0.0326  0.2733 -0.4927
  129OSM   H11A13742   1.574   2.726   3.469 -0.9185  0.6991  1.0088
  129OSM   H11B13743   1.414   2.779   3.482  2.2257  2.9760  1.1608
  129OSM      P13744   1.441   2.998   3.332  0.0592  0.2163 -0.1141
  129OSM    O1313745   1.509   3.119   3.281  0.0004 -0.2365  0.4603
  129OSM    O1413746   1.327   2.954   3.252 -1.0895 -0.1689 -0.2974
  129OSM    O1113747   1.405   3.012   3.481  0.1769 -0.0426 -0.0146
  129OSM    O1213748   1.541   2.879   3.333  0.1108  0.3589 -0.8772
  129OSM    C1S13749   1.385   3.141   3.540  0.3944  0.5366 -0.2410
  129OSM    H1S13750   1.284   3.180   3.517 -0.1480 -0.7051 -0.0238
  129OSM    H1T13751   1.463   3.214   3.510  1.2643  0.1415  1.0107
  129OSM     NF13752   1.391   3.262   3.762 -0.6473  0.0381  0.7265
  129OSM    HNF13753   1.472   3.301   3.804  0.1000 -0.8703  0.1457
  129OSM    C2S13754   1.398   3.132   3.703  0.0476  0.8157  0.6067
  129OSM    H2S13755   1.301   3.087   3.733  1.2759 -0.4883  2.8222
  129OSM    C3S13756   1.516   3.049   3.755 -0.2007  0.2116  0.0224
  129OSM    H3S13757   1.611   3.107   3.751  0.4285 -0.8714 -2.2097
  129OSM     O313758   1.535   2.925   3.687  0.1222 -0.3280 -0.5150
  129OSM    HO313759   1.483   2.942   3.609  1.6718  0.8972 -1.3594
  129OSM    C4S13760   1.489   3.024   3.897 -0.7139  0.2797  0.8436
  129OSM    H4S13761   1.393   2.974   3.916 -0.9650  0.0169 -0.9740
  129OSM    C5S13762   1.574   3.043   3.997  0.2183  0.9768 -0.4714
  129OSM    H5S13763   1.677   3.072   3.971  0.4330  0.6873  0.0259
  129OSM    C6S13764   1.560   2.994   4.138 -0.6224 -0.0020 -0.2170
  129OSM    H6S13765   1.624   3.064   4.197 -0.1155 -1.0787  0.5591
  129OSM    H6T13766   1.625   2.903   4.133 -0.1590  0.3951 -1.8640
  129OSM    C7S13767   1.423   2.988   4.199 -0.0383  0.7748  0.5325
  129OSM    H7S13768   1.355   2.920   4.143 -0.8566  0.6755  1.6118
  129OSM    H7T13769   1.368   3.084   4.192 -0.6197  0.3821 -0.6457
  129OSM    C8S13770   1.429   2.924   4.336  0.3508 -0.0657 -0.7454
  129OSM    H8S13771   1.492   2.978   4.411 -0.1618 -0.4974  0.0064
  129OSM    H8T13772   1.467   2.820   4.334 -1.1759 -0.6330 -1.3933
  129OSM    C9S13773   1.294   2.918   4.415  1.3233  0.1735  0.0889
  129OSM    H9S13774   1.216   2.853   4.370 -0.1080  0.1715  2.4238
  129OSM    H9T13775   1.241   3.016   4.419 -0.1342 -0.4904 -1.5165
  129OSM   C10S13776   1.310   2.884   4.565 -0.1484 -0.4830 -0.2524
  129OSM   H10S13777   1.383   2.962   4.594  2.1057 -2.1418 -1.1702
  129OSM   H10T13778   1.367   2.791   4.586  0.7507  0.3766  1.2930
  129OSM   C11S13779   1.181   2.900   4.645 -0.1833  0.1403  0.6682
  129OSM   H11S13780   1.113   2.814   4.630  1.3384 -0.9404 -0.3661
  129OSM   H11T13781   1.134   3.000   4.634 -0.8154 -0.2679 -0.5980
  129OSM   C12S13782   1.207   2.884   4.795  0.7055 -0.7613 -0.2316
  129OSM   H12S13783   1.308   2.928   4.813  0.3349  1.7772 -3.3474
  129OSM   H12T13784   1.226   2.777   4.817  0.6211 -0.9649 -1.1109
  129OSM   C13S13785   1.101   2.956   4.882  0.3900 -0.2306  0.2787
  129OSM   H13S13786   1.009   2.895   4.870  1.1898 -1.3365 -0.4999
  129OSM   H13T13787   1.087   3.059   4.844 -0.5379 -0.7308 -0.7892
  129OSM   C14S13788   1.150   2.960   5.029  0.1999 -0.2890  0.0696
  129OSM   H14S13789   1.243   3.021   5.035 -0.1461  0.2015  0.4845
  129OSM   H14T13790   1.189   2.861   5.059  3.1240  0.6103 -0.4360
  129OSM   C15S13791   1.037   3.000   5.126  0.0099 -1.0612  0.4676
  129OSM   H15S13792   0.956   2.926   5.137 -1.0919 -0.1815 -1.3154
  129OSM   H15T13793   0.983   3.085   5.078 -0.5396 -1.7366 -0.1272
  129OSM   C16S13794   1.093   3.049   5.264 -0.4447  0.1883 -0.0156
  129OSM   H16S13795   1.018   3.111   5.318  1.0798  2.9218 -0.8350
  129OSM   H16T13796   1.195   3.093   5.262  0.1014 -0.8863  1.6850
  129OSM   C17S13797   1.120   2.933   5.364  0.1042  0.1004  0.2792
  129OSM   H17S13798   1.217   2.888   5.333  0.6742  1.6222 -0.2452
  129OSM   H17T13799   1.041   2.858   5.344 -0.9718  0.8532  1.5692
  129OSM   C18S13800   1.119   2.957   5.516 -0.1875  0.3980  1.3151
  129OSM   H18S13801   1.149   2.867   5.573  1.4581  1.4915  2.2398
  129OSM   H18T13802   1.013   2.982   5.538 -0.2474 -0.4643  2.0518
  129OSM   H18U13803   1.190   3.036   5.547  0.3003  0.0715  1.0380
  129OSM    C1F13804   1.286   3.343   3.767  0.1091  0.4084 -0.6152
  129OSM     OF13805   1.193   3.323   3.693 -0.1875  0.5606 -0.0176
  129OSM    C2F13806   1.293   3.465   3.856 -0.6868 -0.6185  0.3913
  129OSM    H2F13807   1.200   3.525   3.845 -0.3707  0.0154  1.1391
  129OSM    H2G13808   1.384   3.513   3.815 -1.6130  0.7069 -0.1989
  129OSM    C3F13809   1.305   3.430   4.000  0.9670  0.2150  0.4528
  129OSM    H3F13810   1.306   3.519   4.067 -0.4999  0.6558 -0.0610
  129OSM    H3G13811   1.385   3.364   4.038  0.4773  0.1414  1.3930
  129OSM    C4F13812   1.178   3.338   4.046  0.5675  0.0348  0.2654
  129OSM    H4F13813   1.213   3.233   4.047  1.7336  0.2599 -3.0263
  129OSM    H4G13814   1.106   3.342   3.961  1.6892  1.0541 -0.6839
  129OSM    C5F13815   1.105   3.386   4.167 -0.0975  0.9136  0.9971
  129OSM    H5F13816   1.011   3.328   4.169  1.6522 -2.1957  0.7823
  129OSM    H5G13817   1.095   3.497   4.166  0.6296  0.9881  0.1933
  129OSM    C6F13818   1.168   3.352   4.303 -0.1496  0.2562 -0.5137
  129OSM    H6F13819   1.243   3.429   4.332  0.4957 -0.4013 -0.4032
  129OSM    H6G13820   1.218   3.253   4.306 -1.3557 -0.4068 -1.5032
  129OSM    C7F13821   1.064   3.356   4.419  0.1331 -0.2025 -0.0245
  129OSM    H7F13822   0.979   3.294   4.383  0.4038 -1.0227  0.7371
  129OSM    H7G13823   1.016   3.456   4.431 -2.8674 -1.6118  0.6774
  129OSM    C8F13824   1.111   3.295   4.550  0.5520  0.5701 -0.6850
  129OSM    H8F13825   1.121   3.187   4.527  0.4203  0.8123 -1.9120
  129OSM    H8G13826   1.022   3.311   4.616  1.0256 -0.7404  0.3160
  129OSM    C9F13827   1.230   3.361   4.604 -0.4445  0.4740  0.2263
  129OSM    H9F13828   1.298   3.392   4.523 -1.0226 -2.0345 -1.3377
  129OSM   C10F13829   1.267   3.378   4.734  0.6746 -0.1176 -1.0556
  129OSM   H10F13830   1.352   3.443   4.761 -0.2017  0.3259  0.7554
  129OSM   C11F13831   1.188   3.324   4.852  0.0646 -0.7571  0.8049
  129OSM   H11F13832   1.219   3.219   4.872  2.8276 -0.1770 -0.0005
  129OSM   H11G13833   1.079   3.327   4.828 -0.4240  0.4727  2.8884
  129OSM   C12F13834   1.216   3.412   4.975 -0.2091 -0.5738 -0.3327
  129OSM   H12F13835   1.176   3.515   4.967 -1.4263 -0.7675  2.3355
  129OSM   H12G13836   1.324   3.416   4.998 -0.4148  0.9051  0.4707
  129OSM   C13F13837   1.139   3.352   5.093  0.2196  0.8764  0.0737
  129OSM   H13F13838   1.173   3.251   5.122 -0.4159  0.8577  0.7984
  129OSM   H13G13839   1.034   3.338   5.060  1.0968 -1.2255 -2.0342
  129OSM   C14F13840   1.145   3.446   5.212  0.4075  0.6041  0.5023
  129OSM   H14F13841   1.131   3.550   5.177 -0.2957  0.2509 -0.2982
  129OSM   H14G13842   1.249   3.457   5.250  1.2919  0.4870 -1.7401
  129OSM   C15F13843   1.058   3.421   5.333 -1.0241 -0.7505  0.3726
  129OSM   H15F13844   1.097   3.337   5.395  1.2367 -0.1164 -0.0866
  129OSM   H15G13845   0.956   3.400   5.295 -0.9587 -1.7285  0.7177
  129OSM   C16F13846   1.053   3.545   5.432  0.6183  0.3775  0.3773
  129OSM   H16F13847   1.043   3.635   5.367  1.8910 -0.2803 -0.7795
  129OSM   H16G13848   1.156   3.547   5.475  0.6096 -0.7740  0.4903
  129OSM   C17F13849   0.954   3.531   5.547 -0.2789  0.6806 -0.2381
  129OSM   H17F13850   0.849   3.502   5.522 -0.3396 -1.1740  1.9225
  129OSM   H17G13851   0.944   3.633   5.590 -0.8108  0.5014  0.0785
  129OSM   C18F13852   0.996   3.425   5.658 -0.1312 -0.7938 -0.1063
  129OSM   H18F13853   0.991   3.317   5.630 -0.4153 -0.9842  0.6430
  129OSM   H18G13854   0.924   3.435   5.742  1.3918  1.1670  1.0412
  129OSM   H18H13855   1.099   3.441   5.696 -0.8066 -0.0923  1.5065
  130OSM      N13856   0.642   0.994   3.060  0.5789 -0.0248  0.3667
  130OSM    C1513857   0.571   0.906   2.959 -0.7693  0.5806 -0.2827
  130OSM   H15A13858   0.567   0.805   2.996 -0.3931  1.1089  1.2627
  130OSM   H15B13859   0.614   0.902   2.860 -2.2696  1.9118 -1.0472
  130OSM   H15C13860   0.467   0.935   2.950 -1.2175 -0.7078  0.4793
  130OSM    C1413861   0.614   1.142   3.032  0.0922 -0.1086  0.0412
  130OSM   H14A13862   0.640   1.212   3.110 -1.4531  0.8206 -0.2208
  130OSM   H14B13863   0.515   1.174   3.002 -0.9449 -1.3047  1.9643
  130OSM   H14C13864   0.677   1.159   2.947  2.9089  2.6604  2.4493
  130OSM    C1313865   0.579   0.963   3.192  0.2625 -0.0735  0.1922
  130OSM   H13A13866   0.603   1.043   3.260  0.7089 -0.4717  0.5107
  130OSM   H13B13867   0.594   0.861   3.225  0.5286 -0.2858 -0.5744
  130OSM   H13C13868   0.472   0.967   3.179  0.4457  2.2181 -1.1626
  130OSM    C1213869   0.793   0.957   3.065  0.3278 -0.6090  0.8867
  130OSM   H12A13870   0.807   0.851   3.073  0.1255 -0.5849  1.6249
  130OSM   H12B13871   0.834   0.999   3.155  0.0434  0.9374  0.3310
  130OSM    C1113872   0.877   1.008   2.943  0.3043 -0.0346  0.1236
  130OSM   H11A13873   0.842   0.945   2.858  0.0683  0.0485  0.1604
  130OSM   H11B13874   0.980   0.970   2.962 -0.5853 -1.8428  1.6513
  130OSM      P13875   0.958   1.257   2.987 -0.0239 -0.2503 -0.0722
  130OSM    O1313876   1.100   1.220   2.992  0.2717 -0.2621  0.1292
  130OSM    O1413877   0.925   1.387   2.933 -0.3048 -0.1628 -0.2865
  130OSM    O1113878   0.896   1.245   3.133 -0.3659  0.2380 -0.3662
  130OSM    O1213879   0.868   1.145   2.914 -0.1168  0.2803 -0.2747
  130OSM    C1S13880   0.961   1.324   3.234 -0.0777 -0.2755 -0.4426
  130OSM    H1S13881   0.950   1.430   3.202  0.0841 -0.4955 -1.2411
  130OSM    H1T13882   1.070   1.305   3.243 -0.4679 -2.0682  1.1207
  130OSM     NF13883   0.923   1.410   3.467  0.2810 -0.3127 -0.4344
  130OSM    HNF13884   0.959   1.378   3.554 -0.2384 -0.4395 -0.2663
  130OSM    C2S13885   0.894   1.311   3.373  0.3456  0.3395 -0.3243
  130OSM    H2S13886   0.786   1.331   3.357 -0.2674  1.5571  4.1781
  130OSM    C3S13887   0.914   1.167   3.433 -0.8067 -0.3062  0.1154
  130OSM    H3S13888   1.015   1.154   3.478  0.5930 -0.9285 -2.9584
  130OSM     O313889   0.900   1.062   3.332  0.5017 -0.8909 -0.3745
  130OSM    HO313890   0.895   1.118   3.254  3.7087  0.6657  0.3787
  130OSM    C4S13891   0.814   1.140   3.541  0.3361 -0.0404 -0.2322
  130OSM    H4S13892   0.715   1.173   3.507  1.1700  0.9694 -1.8485
  130OSM    C5S13893   0.829   1.128   3.671  0.0301 -0.4927  0.2857
  130OSM    H5S13894   0.930   1.131   3.713 -0.6834 -1.1772  2.1703
  130OSM    C6S13895   0.726   1.122   3.775  0.9800  0.2584  1.2885
  130OSM    H6S13896   0.710   1.012   3.779 -0.6480  0.3527 -0.8951
  130OSM    H6T13897   0.629   1.163   3.742  0.4689 -1.8584 -0.0325
  130OSM    C7S13898   0.770   1.175   3.909 -0.0104 -0.0970 -0.0070
  130OSM    H7S13899   0.860   1.125   3.951 -0.2805  0.4759  1.3256
  130OSM    H7T13900   0.686   1.165   3.982 -0.8421 -2.4628 -1.1817
  130OSM    C8S13901   0.811   1.319   3.902 -0.6305 -0.5369 -0.5013
  130OSM    H8S13902   0.728   1.378   3.858  0.1214  1.1150  0.2048
  130OSM    H8T13903   0.896   1.326   3.831 -0.1355  0.0822  0.1382
  130OSM    C9S13904   0.850   1.378   4.037 -0.1251  0.0760 -0.2865
  130OSM    H9S13905   0.769   1.358   4.111  1.0988 -0.3138  0.9948
  130OSM    H9T13906   0.865   1.487   4.018  1.3123 -0.4962 -2.9241
  130OSM   C10S13907   0.984   1.320   4.093  0.0277 -0.1913  0.1485
  130OSM   H10S13908   1.061   1.342   4.016 -0.1513  1.3825  0.3923
  130OSM   H10T13909   0.967   1.211   4.102 -0.8509 -0.0424  0.4494
  130OSM   C11S13910   1.032   1.378   4.229 -0.6982  0.4871  0.3263
  130OSM   H11S13911   0.964   1.347   4.311 -2.6353 -0.4388 -1.5339
  130OSM   H11T13912   1.043   1.487   4.209  1.2263 -0.1355 -2.8972
  130OSM   C12S13913   1.172   1.324   4.276 -0.6694  0.3136 -0.3839
  130OSM   H12S13914   1.243   1.328   4.191  0.3978  2.3544  0.5362
  130OSM   H12T13915   1.172   1.218   4.309  0.9625  1.2504  3.1048
  130OSM   C13S13916   1.227   1.405   4.393 -0.3140  0.7501 -0.2504
  130OSM   H13S13917   1.147   1.403   4.469 -1.0864  1.5149 -1.0267
  130OSM   H13T13918   1.236   1.508   4.354  0.0528  1.3686  1.3914
  130OSM   C14S13919   1.354   1.345   4.458  0.6218 -0.1645  0.9272
  130OSM   H14S13920   1.394   1.425   4.524  0.8113  0.4437  0.0871
  130OSM   H14T13921   1.435   1.314   4.388  0.6294 -1.3954  1.4502
  130OSM   C15S13922   1.308   1.229   4.547 -0.3309  0.0824 -0.0981
  130OSM   H15S13923   1.271   1.146   4.483  0.3370 -0.8639  0.7024
  130OSM   H15T13924   1.223   1.269   4.606  0.2721  0.9347  0.2060
  130OSM   C16S13925   1.406   1.170   4.650  0.9671 -0.1194  0.0455
  130OSM   H16S13926   1.434   1.253   4.718  0.7911  1.2643 -1.5038
  130OSM   H16T13927   1.503   1.132   4.610  1.4529  0.6265  0.4809
  130OSM   C17S13928   1.329   1.065   4.739 -0.5680 -0.1403  0.3037
  130OSM   H17S13929   1.317   0.973   4.678 -0.7278 -0.0075  0.1323
  130OSM   H17T13930   1.228   1.109   4.756  0.0651  2.1115 -1.3389
  130OSM   C18S13931   1.393   1.036   4.877 -0.3152 -0.3037 -0.3205
  130OSM   H18S13932   1.323   0.986   4.948 -0.1255 -1.6184 -1.0360
  130OSM   H18T13933   1.440   1.125   4.923  1.8333 -1.8479  0.6662
  130OSM   H18U13934   1.484   0.974   4.862  0.8479  0.8775  1.4473
  130OSM    C1F13935   0.909   1.538   3.455  0.5904 -1.2914 -0.1682
  130OSM     OF13936   0.888   1.597   3.346 -0.3647  0.2001 -0.0370
  130OSM    C2F13937   0.916   1.616   3.583  0.6281 -0.3159 -0.1698
  130OSM    H2F13938   1.025   1.634   3.598  1.0965 -2.4385 -0.6559
  130OSM    H2G13939   0.863   1.555   3.660 -2.4902  2.9463  0.5141
  130OSM    C3F13940   0.845   1.755   3.571 -0.0809  0.7553  0.0353
  130OSM    H3F13941   0.752   1.749   3.510 -1.4191  0.7628  1.9595
  130OSM    H3G13942   0.914   1.819   3.514  1.7173 -0.7067  0.4808
  130OSM    C4F13943   0.802   1.812   3.708  0.3049 -0.4316 -0.1884
  130OSM    H4F13944   0.763   1.915   3.693  0.6567  0.1413  2.4438
  130OSM    H4G13945   0.892   1.814   3.773 -0.1150 -0.1742  0.3945
  130OSM    C5F13946   0.699   1.724   3.791  0.0775 -0.6651 -0.5568
  130OSM    H5F13947   0.728   1.618   3.773  0.6240 -0.9359  1.5838
  130OSM    H5G13948   0.594   1.732   3.758  0.5554 -1.3740 -2.3966
  130OSM    C6F13949   0.702   1.756   3.949  0.2556  0.5588  0.3493
  130OSM    H6F13950   0.661   1.857   3.968 -0.9452  0.4555 -1.4143
  130OSM    H6G13951   0.811   1.750   3.966  0.5161 -2.0013 -1.5968
  130OSM    C7F13952   0.642   1.659   4.055  0.2250 -0.2431 -0.2294
  130OSM    H7F13953   0.638   1.557   4.010  1.1061 -0.1848 -0.4669
  130OSM    H7G13954   0.535   1.688   4.066  0.2213 -0.9986  2.4539
  130OSM    C8F13955   0.721   1.669   4.190  0.4715 -0.6346 -0.2275
  130OSM    H8F13956   0.824   1.635   4.170  1.2589  1.6921 -0.4085
  130OSM    H8G13957   0.664   1.601   4.257  3.1155  0.5486  3.5208
  130OSM    C9F13958   0.714   1.804   4.257  1.2025 -0.4792  0.1918
  130OSM    H9F13959   0.696   1.898   4.202 -2.1404 -0.4434  1.1278
  130OSM   C10F13960   0.697   1.818   4.392  0.7334 -0.1874  0.3671
  130OSM   H10F13961   0.686   1.916   4.440 -1.0735 -0.6886  1.0730
  130OSM   C11F13962   0.709   1.715   4.504 -0.5221  0.0923 -0.4697
  130OSM   H11F13963   0.606   1.682   4.527 -0.9900  0.6173 -1.7216
  130OSM   H11G13964   0.739   1.773   4.594  1.6224  0.1969 -1.2014
  130OSM   C12F13965   0.796   1.583   4.482 -0.0962 -0.4901 -0.1639
  130OSM   H12F13966   0.884   1.605   4.418  0.5515 -3.2478 -0.3532
  130OSM   H12G13967   0.727   1.517   4.426  0.7837 -1.0258 -0.6303
  130OSM   C13F13968   0.847   1.523   4.611  0.4157  0.2817 -0.0328
  130OSM   H13F13969   0.855   1.413   4.596 -0.7595  0.1617  0.1115
  130OSM   H13G13970   0.780   1.530   4.700  0.8491 -1.7778  0.5131
  130OSM   C14F13971   0.988   1.573   4.643  0.0312  0.3011  0.5459
  130OSM   H14F13972   0.987   1.672   4.693  1.6796  0.5483  0.1572
  130OSM   H14G13973   1.034   1.576   4.542  0.6600  1.1516  0.8475
  130OSM   C15F13974   1.036   1.469   4.742 -0.2673 -0.8598  0.0787
  130OSM   H15F13975   1.046   1.381   4.676  0.6541  0.2504 -1.3288
  130OSM   H15G13976   0.962   1.465   4.824  0.6385  1.6058  1.1231
  130OSM   C16F13977   1.180   1.481   4.794 -0.2804 -0.4385 -0.0085
  130OSM   H16F13978   1.187   1.583   4.835  0.4546 -1.2604  2.0020
  130OSM   H16G13979   1.252   1.469   4.710  0.8100 -3.3102  1.2207
  130OSM   C17F13980   1.225   1.381   4.902  0.1241  0.3009 -0.1032
  130OSM   H17F13981   1.235   1.283   4.849  0.0410  1.0295 -1.5086
  130OSM   H17G13982   1.139   1.378   4.971 -0.3993 -1.5388 -0.7737
  130OSM   C18F13983   1.352   1.405   4.982 -0.1369  0.3540 -0.3006
  130OSM   H18F13984   1.427   1.408   4.900 -0.7104  3.6136 -0.8500
  130OSM   H18G13985   1.379   1.325   5.054 -0.9208 -1.0820 -1.5536
  130OSM   H18H13986   1.353   1.504   5.032  0.7516 -0.0404  0.4922
  131OSM      N13987   0.369   5.012   3.225  0.0653 -0.2778 -0.7028
  131OSM    C1513988   0.498   4.996   3.151  0.5962 -0.0589  0.0133
  131OSM   H15A13989   0.582   4.979   3.217  0.1712 -3.2262 -0.1060
  131OSM   H15B13990   0.525   5.084   3.094  0.7595 -0.3325 -0.3342
  131OSM   H15C13991   0.476   4.914   3.085 -0.2484 -0.5151  0.8410
  131OSM    C1413992   0.381   5.112   3.337  0.2202 -0.0552 -0.1146
  131OSM   H14A13993   0.446   5.082   3.418  1.6884  1.0540 -0.8345
  131OSM   H14B13994   0.282   5.134   3.375  0.0038 -1.0162 -0.0949
  131OSM   H14C13995   0.429   5.204   3.307  0.8400  0.0871  1.2252
  131OSM    C1313996   0.270   5.057   3.122 -0.4939 -1.0246 -0.3410
  131OSM   H13A13997   0.293   5.013   3.026  0.7454 -0.4024 -0.3532
  131OSM   H13B13998   0.278   5.165   3.122  2.0806 -1.1441 -0.9665
  131OSM   H13C13999   0.168   5.031   3.145 -0.8348  0.2814 -0.2826
  131OSM    C1214000   0.316   4.876   3.276  0.4542 -0.0245  0.0819
  131OSM   H12A14001   0.400   4.835   3.330  0.9305  0.2413 -0.4447
  131OSM   H12B14002   0.292   4.819   3.187  1.2604  0.9417 -0.7866
  131OSM    C1114003   0.203   4.862   3.381 -0.0227  0.8093 -0.7584
  131OSM   H11A14004   0.223   4.913   3.477  0.1089 -0.6538  0.0231
  131OSM   H11B14005   0.201   4.752   3.398 -1.4506  1.0016  0.5382
  131OSM      P14006  -0.028   4.990   3.385  0.0926  0.1687  0.1337
  131OSM    O1314007  -0.083   5.065   3.269  0.2921  0.3535  0.2729
  131OSM    O1414008  -0.120   4.912   3.462 -0.0859 -0.0838 -0.1201
  131OSM    O1114009   0.047   5.091   3.484 -0.1219 -0.4714  0.5821
  131OSM    O1214010   0.082   4.899   3.326 -0.7600 -0.1434  0.1423
  131OSM    C1S14011  -0.019   5.206   3.547  0.6931  0.1357 -0.3611
  131OSM    H1S14012  -0.124   5.177   3.570  0.7066  0.7359  0.4920
  131OSM    H1T14013  -0.009   5.303   3.494  1.5347  0.5631  0.5556
  131OSM     NF14014  -0.035   5.328   3.770 -0.4290  0.1212 -0.3265
  131OSM    HNF14015   0.004   5.419   3.773  1.2250 -0.5512 -0.2518
  131OSM    C2S14016   0.037   5.227   3.697 -1.1923  0.9840  0.5287
  131OSM    H2S14017   0.019   5.131   3.749  1.4472  1.3916  2.3550
  131OSM    C3S14018   0.194   5.252   3.683 -0.0695  0.0929  0.3833
  131OSM    H3S14019   0.197   5.361   3.661 -0.4655  0.2429  1.0277
  131OSM     O314020   0.267   5.178   3.592 -0.1038  0.3920 -0.0006
  131OSM    HO314021   0.196   5.144   3.537 -1.9774  1.6160  1.5329
  131OSM    C4S14022   0.258   5.249   3.826  0.7151 -0.3253 -0.1001
  131OSM    H4S14023   0.271   5.153   3.879 -2.6384 -1.6712 -1.4335
  131OSM    C5S14024   0.296   5.362   3.890 -0.2423  1.2133 -0.1862
  131OSM    H5S14025   0.271   5.465   3.859 -0.4651  1.0759 -0.4711
  131OSM    C6S14026   0.366   5.359   4.023  0.1940  0.2038  0.6250
  131OSM    H6S14027   0.412   5.458   4.044  3.0068 -0.9196  0.1929
  131OSM    H6T14028   0.454   5.292   4.029  1.1645  1.5088  1.5929
  131OSM    C7S14029   0.285   5.338   4.153 -0.3992 -0.4607 -0.3986
  131OSM    H7S14030   0.242   5.235   4.152  1.8355 -1.5195  1.6914
  131OSM    H7T14031   0.199   5.407   4.155 -0.3128 -0.3740  1.3213
  131OSM    C8S14032   0.370   5.348   4.275 -0.0293 -0.2455  0.0078
  131OSM    H8S14033   0.430   5.441   4.276  1.0313 -0.8916  1.8301
  131OSM    H8T14034   0.445   5.267   4.288  1.6929  1.1034 -1.0571
  131OSM    C9S14035   0.299   5.347   4.412  0.6163 -0.0712  0.3681
  131OSM    H9S14036   0.234   5.257   4.416  1.8725 -1.2448 -2.4986
  131OSM    H9T14037   0.228   5.433   4.412  1.4542  0.6520 -0.6472
  131OSM   C10S14038   0.396   5.358   4.534  0.5011 -0.3736  0.4011
  131OSM   H10S14039   0.471   5.437   4.512  2.0045 -1.6450  0.7356
  131OSM   H10T14040   0.463   5.270   4.546 -1.4008 -1.7435  1.4655
  131OSM   C11S14041   0.330   5.380   4.671  0.1547 -0.6525 -0.0248
  131OSM   H11S14042   0.258   5.298   4.695 -2.0015  1.5753  1.6913
  131OSM   H11T14043   0.264   5.469   4.657  1.0423  0.1485  0.7672
  131OSM   C12S14044   0.424   5.403   4.791 -1.0790 -0.8714 -0.7152
  131OSM   H12S14045   0.485   5.491   4.759 -0.7136 -1.5199 -1.8360
  131OSM   H12T14046   0.495   5.319   4.805  0.8030  0.4727 -1.7275
  131OSM   C13S14047   0.355   5.427   4.928 -0.1640  0.7886 -0.8048
  131OSM   H13S14048   0.292   5.339   4.950 -0.4195  0.7859 -1.5419
  131OSM   H13T14049   0.289   5.515   4.910  0.6875  1.2444 -1.8149
  131OSM   C14S14050   0.454   5.434   5.048  0.0311  0.2819  0.0783
  131OSM   H14S14051   0.518   5.524   5.037 -1.9236  1.7072 -0.2187
  131OSM   H14T14052   0.525   5.348   5.048  1.0028  1.0037 -2.1437
  131OSM   C15S14053   0.384   5.449   5.176 -0.0108  0.8562 -0.3221
  131OSM   H15S14054   0.317   5.363   5.198  0.6960  1.0433  3.0542
  131OSM   H15T14055   0.308   5.530   5.179 -0.9111  0.0360 -0.5348
  131OSM   C16S14056   0.477   5.471   5.289  0.2250 -0.1503 -0.6403
  131OSM   H16S14057   0.540   5.560   5.269 -0.4116  0.5128  0.2198
  131OSM   H16T14058   0.538   5.378   5.300 -2.6594 -1.9055  2.5492
  131OSM   C17S14059   0.397   5.499   5.417 -0.5242 -0.5658 -0.0205
  131OSM   H17S14060   0.314   5.426   5.428  0.1619 -1.0442  2.6229
  131OSM   H17T14061   0.357   5.603   5.405  0.6797 -0.3807 -3.8592
  131OSM   C18S14062   0.489   5.488   5.537 -0.8187 -0.4564 -0.7756
  131OSM   H18S14063   0.427   5.513   5.626  1.7280 -0.6258  1.1868
  131OSM   H18T14064   0.573   5.560   5.522 -0.6900 -0.4045  0.1385
  131OSM   H18U14065   0.532   5.386   5.546  2.6106  0.6792 -2.3553
  131OSM    C1F14066  -0.165   5.300   3.805 -0.7726 -0.1049 -0.8245
  131OSM     OF14067  -0.208   5.183   3.798 -0.5040 -0.0938 -0.1854
  131OSM    C2F14068  -0.250   5.414   3.854 -0.0576  0.6007  0.2224
  131OSM    H2F14069  -0.351   5.370   3.869  0.6017 -1.3379 -0.7431
  131OSM    H2G14070  -0.266   5.481   3.766 -0.6840  1.8399  1.2406
  131OSM    C3F14071  -0.200   5.501   3.979  0.7110  1.7731  0.4483
  131OSM    H3F14072  -0.288   5.561   4.010 -1.4495 -2.0348  2.3810
  131OSM    H3G14073  -0.121   5.572   3.945 -1.2578  4.4220  1.0917
  131OSM    C4F14074  -0.152   5.417   4.097  0.5426  0.0647  0.2702
  131OSM    H4F14075  -0.083   5.333   4.071  0.8716  0.7917 -1.3655
  131OSM    H4G14076  -0.244   5.382   4.147  0.3718 -0.0222 -0.0995
  131OSM    C5F14077  -0.082   5.508   4.200  0.1299 -0.3151 -1.0968
  131OSM    H5F14078  -0.132   5.607   4.204  1.7142  0.4913  0.9684
  131OSM    H5G14079   0.021   5.536   4.171 -0.1386  1.0516 -0.7982
  131OSM    C6F14080  -0.073   5.435   4.326 -0.4949  0.2925 -0.4384
  131OSM    H6F14081   0.020   5.374   4.330 -0.0398  1.0341  2.5610
  131OSM    H6G14082  -0.162   5.371   4.342  1.0272 -1.7640  0.2011
  131OSM    C7F14083  -0.070   5.526   4.455 -0.9535  0.0143  0.3668
  131OSM    H7F14084  -0.162   5.586   4.474 -0.7221  1.1155 -1.6864
  131OSM    H7G14085   0.013   5.594   4.427 -1.8040  1.8412  2.1257
  131OSM    C8F14086  -0.028   5.464   4.593 -0.4725  0.1513  0.4027
  131OSM    H8F14087   0.072   5.419   4.574 -0.2217  1.6656 -2.3449
  131OSM    H8G14088  -0.107   5.390   4.618  1.2082 -1.9398 -0.1636
  131OSM    C9F14089  -0.006   5.555   4.709 -0.6040 -0.9183 -0.3430
  131OSM    H9F14090   0.035   5.654   4.685 -2.3503 -0.3762 -1.3085
  131OSM   C10F14091  -0.041   5.539   4.839 -0.6394  0.1070 -0.1171
  131OSM   H10F14092  -0.015   5.615   4.914  0.3074 -0.1940 -0.1328
  131OSM   C11F14093  -0.126   5.430   4.906  0.0144  0.0625  0.2626
  131OSM   H11F14094  -0.174   5.359   4.835  2.1484  0.6551 -1.9174
  131OSM   H11G14095  -0.208   5.484   4.958  1.0753 -0.3832  2.4903
  131OSM   C12F14096  -0.041   5.342   5.007  0.0398  0.0417 -0.3315
  131OSM   H12F14097   0.049   5.315   4.948  0.7584  0.4313  0.5533
  131OSM   H12G14098  -0.098   5.250   5.030  1.1142 -0.3468  0.9273
  131OSM   C13F14099  -0.004   5.413   5.140  0.1327  0.5143  0.2157
  131OSM   H13F14100   0.044   5.511   5.117  0.1037  0.7032  0.9533
  131OSM   H13G14101   0.061   5.345   5.200 -0.8495 -1.2856 -0.6747
  131OSM   C14F14102  -0.123   5.436   5.226  0.2393 -0.5119 -0.5405
  131OSM   H14F14103  -0.170   5.347   5.274  0.1684  0.2473  0.8467
  131OSM   H14G14104  -0.210   5.470   5.166 -0.9976 -3.3118 -0.4996
  131OSM   C15F14105  -0.095   5.536   5.338 -0.8687  0.1188 -0.4179
  131OSM   H15F14106  -0.055   5.632   5.299 -0.5239 -0.0001 -0.3547
  131OSM   H15G14107  -0.008   5.492   5.391  0.7429  3.1322 -0.3248
  131OSM   C16F14108  -0.215   5.564   5.435 -0.2891 -0.0910 -0.5757
  131OSM   H16F14109  -0.204   5.493   5.520 -0.9778 -0.7939 -1.0579
  131OSM   H16G14110  -0.311   5.567   5.378  0.0528  0.0635 -1.1497
  131OSM   C17F14111  -0.201   5.709   5.486 -0.1969 -0.2444 -0.1201
  131OSM   H17F14112  -0.195   5.776   5.398  2.2734  0.4261  0.4590
  131OSM   H17G14113  -0.100   5.719   5.531 -0.4179 -3.0848  1.2090
  131OSM   C18F14114  -0.304   5.762   5.590  0.2028 -0.0965  0.9228
  131OSM   H18F14115  -0.301   5.873   5.586 -0.4858 -0.0552  1.4778
  131OSM   H18G14116  -0.283   5.724   5.692  0.0859 -0.3808  0.8423
  131OSM   H18H14117  -0.407   5.731   5.564 -0.0726  2.0184 -0.7971
  132OSM      N14118   4.849   4.489   2.713 -0.4350 -0.0840  0.3944
  132OSM    C1514119   4.977   4.564   2.690  0.0166  0.7358 -0.1753
  132OSM   H15A14120   5.057   4.498   2.721  1.4864  2.4706 -0.1152
  132OSM   H15B14121   4.980   4.653   2.752 -0.2620  0.2724  0.5173
  132OSM   H15C14122   4.993   4.587   2.586  0.0091  1.0688 -0.1030
  132OSM    C1414123   4.740   4.588   2.668  0.0780 -0.3765 -0.0640
  132OSM   H14A14124   4.735   4.680   2.724 -0.7678 -0.6836  0.3726
  132OSM   H14B14125   4.643   4.542   2.672 -0.7884  1.2624 -1.1207
  132OSM   H14C14126   4.760   4.625   2.568 -1.0310  2.1485  0.5854
  132OSM    C1314127   4.848   4.372   2.629 -0.3909  0.1065  0.5090
  132OSM   H13A14128   4.927   4.306   2.659  0.8206  1.7080  0.9562
  132OSM   H13B14129   4.870   4.394   2.525  0.1704 -1.8005  0.1924
  132OSM   H13C14130   4.754   4.319   2.630  0.4822 -1.5058  0.0963
  132OSM    C1214131   4.835   4.466   2.863  0.1022  0.2622  0.2296
  132OSM   H12A14132   4.898   4.388   2.903 -0.1067 -1.3222 -2.3679
  132OSM   H12B14133   4.733   4.439   2.884 -0.5845  2.1251 -0.5135
  132OSM    C1114134   4.861   4.589   2.963 -0.0331  0.3820  0.0438
  132OSM   H11A14135   4.825   4.558   3.064  2.1118  0.9078  1.0122
  132OSM   H11B14136   4.796   4.673   2.930 -1.0004 -0.4287 -0.1736
  132OSM      P14137   5.111   4.546   3.048 -0.3161 -0.1254  0.2563
  132OSM    O1314138   5.092   4.398   3.020  0.3434 -0.1136 -0.4632
  132OSM    O1414139   5.246   4.595   3.015  0.7278  0.0211  0.0849
  132OSM    O1114140   5.071   4.576   3.200 -0.1206  0.2457 -0.0584
  132OSM    O1214141   5.000   4.629   2.971 -0.2253 -0.5620  0.1497
  132OSM    C1S14142   5.053   4.712   3.233  0.4373 -0.1274 -0.7181
  132OSM    H1S14143   4.976   4.756   3.166 -0.4798 -1.5187 -0.6288
  132OSM    H1T14144   5.148   4.769   3.228  1.3862 -1.6691 -1.1426
  132OSM     NF14145   4.949   4.864   3.401 -0.1272 -0.2243  0.5667
  132OSM    HNF14146   5.004   4.932   3.449 -0.5263  1.2140 -0.8921
  132OSM    C2S14147   5.002   4.727   3.382  0.0486 -0.4263  0.0507
  132OSM    H2S14148   4.915   4.660   3.401 -0.1800  0.1170  0.9825
  132OSM    C3S14149   5.108   4.668   3.483  0.6913 -0.3414  0.0229
  132OSM    H3S14150   5.182   4.751   3.493 -1.0124  1.1691  0.5203
  132OSM     O314151   5.176   4.557   3.436  0.4937 -0.3735 -0.1893
  132OSM    HO314152   5.142   4.568   3.347  2.6162  1.7780 -0.8296
  132OSM    C4S14153   5.059   4.648   3.626 -0.2134  0.5661 -0.0015
  132OSM    H4S14154   5.100   4.713   3.705 -0.1841  1.6242 -0.8652
  132OSM    C5S14155   4.988   4.547   3.680  0.2253 -0.5342  0.0870
  132OSM    H5S14156   4.936   4.474   3.617 -0.9451  0.4495 -0.1218
  132OSM    C6S14157   4.946   4.539   3.823  0.8227 -0.9132 -0.4498
  132OSM    H6S14158   4.929   4.432   3.848 -0.8611 -0.6567 -0.3749
  132OSM    H6T14159   4.854   4.600   3.836  1.6326  0.3265 -0.4404
  132OSM    C7S14160   5.046   4.590   3.923  0.4090  0.2215 -0.4077
  132OSM    H7S14161   5.075   4.697   3.918 -2.0280  1.0671  1.6860
  132OSM    H7T14162   5.140   4.532   3.912 -0.0625 -0.4498 -0.9668
  132OSM    C8S14163   4.991   4.580   4.068 -0.6170 -1.2499 -0.4649
  132OSM    H8S14164   4.985   4.476   4.105 -0.2347 -1.2302 -0.3479
  132OSM    H8T14165   4.884   4.609   4.069 -0.7949 -1.8802  1.3183
  132OSM    C9S14166   5.074   4.670   4.165 -0.5367 -0.3325 -0.0249
  132OSM    H9S14167   5.060   4.778   4.148  0.7784  0.1247  1.5546
  132OSM    H9T14168   5.182   4.649   4.153 -0.2856  0.2192  1.1489
  132OSM   C10S14169   5.037   4.646   4.311  0.3157  0.5768 -0.6745
  132OSM   H10S14170   5.052   4.539   4.338  1.4440  1.2626  1.7529
  132OSM   H10T14171   4.928   4.660   4.329  0.0736 -1.3790 -0.3946
  132OSM   C11S14172   5.115   4.729   4.423 -0.2711 -0.0938  0.0439
  132OSM   H11S14173   5.039   4.754   4.500  0.7520  1.5603  0.5772
  132OSM   H11T14174   5.159   4.824   4.385  2.2010 -0.3108  2.0703
  132OSM   C12S14175   5.221   4.642   4.484  0.4954 -0.7902  0.1217
  132OSM   H12S14176   5.297   4.625   4.405 -0.2515  1.6003 -1.2034
  132OSM   H12T14177   5.187   4.544   4.525 -0.8790  0.4426  2.1459
  132OSM   C13S14178   5.295   4.720   4.592 -0.5251 -0.2237 -0.3305
  132OSM   H13S14179   5.330   4.815   4.548  1.0271 -0.8549 -0.5355
  132OSM   H13T14180   5.385   4.665   4.627 -0.1488 -1.7597 -3.3726
  132OSM   C14S14181   5.205   4.757   4.719 -0.1629 -0.3907  0.8113
  132OSM   H14S14182   5.113   4.813   4.692 -0.3215 -1.5924 -1.2820
  132OSM   H14T14183   5.280   4.814   4.778  0.5267 -0.6992  0.2493
  132OSM   C15S14184   5.160   4.631   4.794  0.0486  1.0825  0.4483
  132OSM   H15S14185   5.229   4.545   4.782 -0.4773  0.7776 -0.4438
  132OSM   H15T14186   5.064   4.606   4.745  1.1774 -0.3119 -1.1943
  132OSM   C16S14187   5.159   4.657   4.949  0.2938  0.2461  0.3774
  132OSM   H16S14188   5.102   4.577   5.001  0.1994  0.5128  0.6842
  132OSM   H16T14189   5.105   4.752   4.970 -0.2616  0.6681 -2.4454
  132OSM   C17S14190   5.299   4.678   5.011  0.6911  0.4761 -0.1493
  132OSM   H17S14191   5.338   4.773   4.968 -1.4421  0.7876 -1.5431
  132OSM   H17T14192   5.370   4.595   4.991  0.0209  0.2710 -1.8268
  132OSM   C18S14193   5.277   4.704   5.164 -0.2589  0.5574 -0.8835
  132OSM   H18S14194   5.203   4.786   5.178  0.0344  0.5761  0.8131
  132OSM   H18T14195   5.373   4.726   5.215 -1.6200 -1.1961  2.8501
  132OSM   H18U14196   5.239   4.610   5.211  3.4040 -0.2162  0.9256
  132OSM    C1F14197   4.840   4.904   3.333  0.6189 -1.2330 -0.1784
  132OSM     OF14198   4.771   4.821   3.280 -0.3330 -0.6220  0.0377
  132OSM    C2F14199   4.809   5.046   3.317  0.4253  0.1809  0.7939
  132OSM    H2F14200   4.787   5.075   3.212 -1.3143 -2.1985  0.4467
  132OSM    H2G14201   4.889   5.109   3.362 -0.0764  0.4510  1.3208
  132OSM    C3F14202   4.685   5.078   3.408 -0.7749  0.0758  0.4380
  132OSM    H3F14203   4.606   5.000   3.403 -2.1838  1.3924  1.1575
  132OSM    H3G14204   4.643   5.175   3.372  1.8197  0.7667 -0.9235
  132OSM    C4F14205   4.703   5.097   3.562 -0.3153 -0.2399 -0.2418
  132OSM    H4F14206   4.780   5.175   3.579 -0.3427 -0.5875  1.7063
  132OSM    H4G14207   4.747   5.002   3.600  1.3658 -0.3224 -2.2234
  132OSM    C5F14208   4.571   5.123   3.634 -0.1446 -1.1677  0.1220
  132OSM    H5F14209   4.500   5.045   3.599 -1.8445  0.0639  0.7068
  132OSM    H5G14210   4.542   5.221   3.590 -0.8719 -1.1631  0.5946
  132OSM    C6F14211   4.573   5.150   3.783 -0.1969 -0.0475  0.0979
  132OSM    H6F14212   4.658   5.219   3.800 -1.8664  2.1226  0.0665
  132OSM    H6G14213   4.583   5.054   3.838 -2.4573 -0.7803 -0.6620
  132OSM    C7F14214   4.444   5.213   3.829  0.1644 -0.7153  0.5323
  132OSM    H7F14215   4.355   5.147   3.816  0.8544 -1.8043  1.1813
  132OSM    H7G14216   4.416   5.298   3.763 -0.2964  0.4840  2.1900
  132OSM    C8F14217   4.460   5.257   3.980 -0.2638 -0.0681  0.5964
  132OSM    H8F14218   4.517   5.352   3.974  0.3748 -0.3444  1.8019
  132OSM    H8G14219   4.532   5.188   4.030 -0.6610  1.0373  2.8528
  132OSM    C9F14220   4.332   5.271   4.054 -0.0319  0.1410  0.0551
  132OSM    H9F14221   4.241   5.272   3.991 -0.8215  1.2013  1.1705
  132OSM   C10F14222   4.320   5.310   4.180  0.2713  0.4995  1.2210
  132OSM   H10F14223   4.215   5.312   4.215  0.8905  0.8268  3.1694
  132OSM   C11F14224   4.427   5.341   4.279 -0.1116 -1.4306 -0.1015
  132OSM   H11F14225   4.440   5.451   4.285 -1.1108 -1.4006  3.0218
  132OSM   H11G14226   4.524   5.293   4.251  1.9391  2.3457 -0.2533
  132OSM   C12F14227   4.394   5.305   4.429  0.4537  0.4297  0.2210
  132OSM   H12F14228   4.304   5.359   4.466 -1.0266 -1.3195 -0.6456
  132OSM   H12G14229   4.486   5.340   4.480  0.4699  1.8983 -0.7288
  132OSM   C13F14230   4.378   5.153   4.465  0.3304 -0.0121 -0.3961
  132OSM   H13F14231   4.472   5.095   4.459 -0.6904 -1.8870  0.9254
  132OSM   H13G14232   4.302   5.114   4.394 -0.4102 -0.7824  0.7853
  132OSM   C14F14233   4.334   5.133   4.610 -0.2466  0.4519 -0.2623
  132OSM   H14F14234   4.241   5.190   4.631 -0.2076  0.5805 -0.4383
  132OSM   H14G14235   4.421   5.172   4.667  0.3510  0.4521 -1.1528
  132OSM   C15F14236   4.336   4.978   4.643  0.5225 -0.3138 -0.4580
  132OSM   H15F14237   4.439   4.940   4.628 -0.1164 -2.3704  0.0795
  132OSM   H15G14238   4.267   4.922   4.575  0.5579 -0.7363 -0.1501
  132OSM   C16F14239   4.306   4.938   4.786  1.1181 -0.2022 -0.5765
  132OSM   H16F14240   4.208   4.980   4.815  1.6547  1.1133 -0.5714
  132OSM   H16G14241   4.387   4.987   4.845  1.9861 -2.8257  0.5520
  132OSM   C17F14242   4.317   4.789   4.810 -0.2118 -0.3211  0.0829
  132OSM   H17F14243   4.414   4.744   4.781 -1.4562 -3.0466 -0.1866
  132OSM   H17G14244   4.242   4.729   4.755 -0.1295  0.0142 -0.3993
  132OSM   C18F14245   4.298   4.773   4.964  0.3178 -0.1637  0.8155
  132OSM   H18F14246   4.189   4.781   4.985  0.4397 -0.3299  1.5144
  132OSM   H18G14247   4.360   4.836   5.031  1.7291 -1.1852  0.5363
  132OSM   H18H14248   4.315   4.672   5.006 -0.8449  0.0424  1.8193
  133OSM      N14249   4.109   4.596   3.084  0.0063  0.4992 -0.3725
  133OSM    C1514250   4.211   4.487   3.090 -0.6483 -0.4966 -0.4017
  133OSM   H15A14251   4.205   4.427   3.180  3.9794  0.1746  0.5857
  133OSM   H15B14252   4.307   4.535   3.086 -0.9201  0.0170 -0.8161
  133OSM   H15C14253   4.196   4.423   3.005 -0.0379  1.6086 -2.1786
  133OSM    C1414254   3.980   4.524   3.062 -0.0120  0.4734 -0.4174
  133OSM   H14A14255   3.959   4.458   3.144  0.6652 -0.5628 -1.0482
  133OSM   H14B14256   3.977   4.467   2.970  0.2784  0.0287 -0.1577
  133OSM   H14C14257   3.899   4.595   3.070 -1.5867 -1.3682  1.1476
  133OSM    C1314258   4.113   4.671   3.210 -0.6834 -0.1458 -0.1913
  133OSM   H13A14259   4.125   4.614   3.300  1.4348  1.4474  0.6163
  133OSM   H13B14260   4.029   4.740   3.210 -1.4856 -1.1086  0.1874
  133OSM   H13C14261   4.199   4.736   3.220 -1.1999  0.6189 -0.6275
  133OSM    C1214262   4.148   4.684   2.966  0.6601  0.5035 -0.3759
  133OSM   H12A14263   4.062   4.746   2.945  0.4894  0.2539 -0.4205
  133OSM   H12B14264   4.166   4.615   2.885  1.1696  0.0766  0.0921
  133OSM    C1114265   4.263   4.785   2.977  0.3349 -0.2900  0.3530
  133OSM   H11A14266   4.300   4.827   2.881 -1.3591 -1.9894 -1.1279
  133OSM   H11B14267   4.353   4.735   3.019  1.7272  1.7394 -0.0877
  133OSM      P14268   4.125   4.989   3.040 -0.2670 -0.2903 -0.0216
  133OSM    O1314269   4.184   5.123   3.055 -0.0070  0.1575 -0.0910
  133OSM    O1414270   4.077   4.974   2.901 -0.1760 -0.5782  0.2291
  133OSM    O1114271   4.007   4.964   3.143  0.0748  0.6844 -0.1152
  133OSM    O1214272   4.239   4.886   3.078  0.4855  0.5683  0.0858
  133OSM    C1S14273   4.021   5.029   3.269  0.3882 -0.2642  0.2582
  133OSM    H1S14274   4.041   5.137   3.251 -1.4866 -0.2745 -2.5368
  133OSM    H1T14275   4.109   4.990   3.324  1.4854  2.7052  0.8203
  133OSM     NF14276   3.905   5.056   3.483  0.4655  0.0719 -0.0829
  133OSM    HNF14277   3.898   4.992   3.559  0.7432  1.2147  0.9363
  133OSM    C2S14278   3.894   4.998   3.349  0.1334  0.0740 -0.3138
  133OSM    H2S14279   3.808   5.052   3.305 -0.8244 -1.6114 -0.6268
  133OSM    C3S14280   3.857   4.842   3.362  0.5243  0.9960  0.1942
  133OSM    H3S14281   3.955   4.797   3.387 -0.1605 -2.5364 -2.6081
  133OSM     O314282   3.815   4.791   3.235 -0.3166 -0.0841  0.1132
  133OSM    HO314283   3.861   4.851   3.176  1.4719 -1.7085 -0.2469
  133OSM    C4S14284   3.760   4.801   3.466 -0.3231 -0.3398 -0.2599
  133OSM    H4S14285   3.810   4.794   3.564 -0.5212 -0.4515 -0.1671
  133OSM    C5S14286   3.627   4.773   3.457 -0.5503  0.2387  0.9194
  133OSM    H5S14287   3.582   4.779   3.357  2.0929 -1.3890 -0.4691
  133OSM    C6S14288   3.537   4.746   3.578 -0.2005  0.9623  0.1660
  133OSM    H6S14289   3.482   4.652   3.558 -2.2788  2.0359  0.5213
  133OSM    H6T14290   3.459   4.825   3.576  0.4008  1.5622 -1.4385
  133OSM    C7S14291   3.609   4.746   3.716 -0.5592  0.4305  0.4109
  133OSM    H7S14292   3.666   4.840   3.731 -0.5742  0.9365 -2.2399
  133OSM    H7T14293   3.673   4.655   3.718  0.4325  1.0019 -1.8437
  133OSM    C8S14294   3.501   4.736   3.826 -0.8091 -0.1339  0.1455
  133OSM    H8S14295   3.427   4.656   3.804 -1.4737  0.3553  0.5620
  133OSM    H8T14296   3.447   4.833   3.817  1.0547  0.9555  0.3044
  133OSM    C9S14297   3.541   4.711   3.968 -0.5564 -0.1980 -0.1259
  133OSM    H9S14298   3.616   4.784   4.006 -0.0662 -0.9813  0.4459
  133OSM    H9T14299   3.593   4.614   3.981 -0.9780 -0.2819  1.0582
  133OSM   C10S14300   3.419   4.712   4.062  0.4250 -0.5987  0.0514
  133OSM   H10S14301   3.366   4.615   4.044  0.5275 -0.6335 -0.0660
  133OSM   H10T14302   3.357   4.799   4.032  2.1963  0.5468 -0.3953
  133OSM   C11S14303   3.445   4.721   4.214  0.3423 -0.1011 -0.2645
  133OSM   H11S14304   3.512   4.800   4.254  0.4067 -0.0619 -0.4464
  133OSM   H11T14305   3.504   4.629   4.238 -0.9173 -0.1532  3.0754
  133OSM   C12S14306   3.316   4.711   4.298  0.6243  0.3708  0.2304
  133OSM   H12S14307   3.270   4.610   4.293  3.1925 -0.8746  0.6323
  133OSM   H12T14308   3.244   4.774   4.240 -1.0662 -2.2423 -0.6746
  133OSM   C13S14309   3.331   4.755   4.445  0.0787  0.0926  0.1122
  133OSM   H13S14310   3.248   4.823   4.476  0.8834  0.5675  1.2798
  133OSM   H13T14311   3.427   4.809   4.456 -0.1119  0.0213  2.5067
  133OSM   C14S14312   3.340   4.631   4.538 -0.3831 -0.1979 -0.6727
  133OSM   H14S14313   3.426   4.574   4.496  1.8043  2.2142  0.2299
  133OSM   H14T14314   3.247   4.572   4.528 -0.9538  0.1376  2.0624
  133OSM   C15S14315   3.342   4.672   4.690 -0.2152  0.6849  0.5809
  133OSM   H15S14316   3.282   4.765   4.699 -0.4249  0.6309 -0.1905
  133OSM   H15T14317   3.448   4.700   4.711  0.8114 -0.3160 -2.7127
  133OSM   C16S14318   3.294   4.557   4.785 -0.0563 -0.5288 -0.3811
  133OSM   H16S14319   3.343   4.458   4.775 -2.6894 -1.8529 -0.8209
  133OSM   H16T14320   3.192   4.534   4.749 -0.4737 -0.4961  0.7413
  133OSM   C17S14321   3.284   4.604   4.931  0.0018  0.5642 -0.1386
  133OSM   H17S14322   3.240   4.706   4.924  0.7704  1.0199  1.2556
  133OSM   H17T14323   3.387   4.612   4.974 -0.1244  0.8047  0.1187
  133OSM   C18S14324   3.207   4.509   5.026 -0.3358 -1.1267 -0.6767
  133OSM   H18S14325   3.236   4.402   5.011  1.2172 -0.8590  0.1655
  133OSM   H18T14326   3.100   4.508   4.998 -0.2528 -1.2460 -1.0026
  133OSM   H18U14327   3.221   4.532   5.134 -0.5126 -0.2182 -0.8465
  133OSM    C1F14328   3.935   5.186   3.501  0.1212  0.0598  0.1557
  133OSM     OF14329   3.925   5.265   3.407  0.3393  0.2525  0.4510
  133OSM    C2F14330   3.966   5.235   3.640  0.9670  0.4052 -0.0222
  133OSM    H2F14331   4.068   5.215   3.678  0.3905  2.3101  2.7898
  133OSM    H2G14332   3.893   5.191   3.712  1.4166 -1.1044 -0.4516
  133OSM    C3F14333   3.965   5.392   3.635  0.1750  0.8025  0.0062
  133OSM    H3F14334   3.863   5.426   3.610  0.4469 -0.2911 -2.9875
  133OSM    H3G14335   4.033   5.429   3.555 -1.6827  1.3474 -1.3674
  133OSM    C4F14336   4.019   5.443   3.770 -0.2886 -0.5993  0.3241
  133OSM    H4F14337   4.010   5.553   3.766 -0.6458 -0.6341 -3.2783
  133OSM    H4G14338   4.126   5.417   3.790 -0.6502 -0.8664  2.0932
  133OSM    C5F14339   3.939   5.404   3.889 -0.0105  0.0438  0.0846
  133OSM    H5F14340   3.953   5.296   3.912 -2.1426  0.1332  2.2003
  133OSM    H5G14341   3.832   5.419   3.865 -0.0488  2.7657  1.5541
  133OSM    C6F14342   3.976   5.480   4.022  0.4468 -0.4833 -0.6147
  133OSM    H6F14343   3.962   5.588   3.999 -2.0310 -0.1744  1.8224
  133OSM    H6G14344   4.077   5.447   4.055 -0.2040 -0.1024  1.9698
  133OSM    C7F14345   3.874   5.445   4.139  0.4919 -0.3235 -0.5833
  133OSM    H7F14346   3.896   5.339   4.164 -0.1095 -0.2077  0.4795
  133OSM    H7G14347   3.775   5.460   4.092  0.3904  0.0346 -0.2606
  133OSM    C8F14348   3.881   5.530   4.258  0.3457  0.2950 -0.0465
  133OSM    H8F14349   3.814   5.487   4.335 -0.5801  0.9799 -0.4503
  133OSM    H8G14350   3.831   5.627   4.237  1.0115  1.1078  1.9063
  133OSM    C9F14351   4.019   5.542   4.322  0.5362 -0.2934 -0.2562
  133OSM    H9F14352   4.074   5.626   4.278 -1.4612  0.8980 -0.6326
  133OSM   C10F14353   4.066   5.489   4.438  0.0533  0.5060  0.3668
  133OSM   H10F14354   4.169   5.519   4.463  0.7285  0.3270 -1.9849
  133OSM   C11F14355   3.994   5.382   4.522  0.1603 -0.1291 -0.0743
  133OSM   H11F14356   4.057   5.291   4.533 -1.0638 -0.7783  2.1736
  133OSM   H11G14357   3.900   5.344   4.477  0.6450 -1.0297 -0.3490
  133OSM   C12F14358   3.955   5.435   4.668  0.5238 -0.2776  0.3494
  133OSM   H12F14359   3.902   5.532   4.654  1.2859 -0.2199 -3.1566
  133OSM   H12G14360   4.044   5.450   4.733  0.4378 -0.3031  0.4725
  133OSM   C13F14361   3.851   5.342   4.751 -0.4109 -0.3885  0.1953
  133OSM   H13F14362   3.889   5.238   4.742 -0.6581 -0.5019  0.4537
  133OSM   H13G14363   3.758   5.360   4.693 -0.4400  2.0557  0.8876
  133OSM   C14F14364   3.834   5.380   4.904 -0.1428  0.2797  0.0183
  133OSM   H14F14365   3.925   5.345   4.956  1.8875 -1.5323 -4.2482
  133OSM   H14G14366   3.740   5.330   4.936 -0.3229  0.6598  0.0924
  133OSM   C15F14367   3.817   5.534   4.932  0.1676  0.3170 -0.1911
  133OSM   H15F14368   3.742   5.567   4.857  1.7967  0.2730 -1.9268
  133OSM   H15G14369   3.910   5.590   4.913  0.1631  0.4691  0.2431
  133OSM   C16F14370   3.766   5.561   5.071 -0.1466  0.0750 -0.0280
  133OSM   H16F14371   3.854   5.559   5.139 -0.4992 -0.4569  0.4210
  133OSM   H16G14372   3.692   5.483   5.096 -1.2289  0.7650 -0.9582
  133OSM   C17F14373   3.687   5.695   5.068  0.5427  0.3496  0.5992
  133OSM   H17F14374   3.649   5.717   5.170 -1.0553 -0.8785  0.3130
  133OSM   H17G14375   3.590   5.683   5.015 -0.8190  1.2646  2.7498
  133OSM   C18F14376   3.752   5.816   5.005  0.4515 -0.6363 -0.1827
  133OSM   H18F14377   3.845   5.830   5.064 -1.7920 -1.1047  3.7662
  133OSM   H18G14378   3.696   5.910   5.019  2.8468  0.9791 -0.8121
  133OSM   H18H14379   3.784   5.794   4.900  1.7981 -0.9604  0.2735
  134OSM      N14380   2.177   2.490   3.075  0.0229  0.6124  0.0454
  134OSM    C1514381   2.275   2.606   3.063 -0.4639 -0.3053  0.1108
  134OSM   H15A14382   2.369   2.589   3.112  0.7140  3.6685 -0.4476
  134OSM   H15B14383   2.232   2.687   3.120 -1.6860 -1.6700  1.2164
  134OSM   H15C14384   2.295   2.644   2.964 -0.0171  3.8394  1.6224
  134OSM    C1414385   2.066   2.507   2.975 -0.1156  0.0490 -0.2177
  134OSM   H14A14386   1.980   2.453   3.011  0.3334 -0.2114  0.4805
  134OSM   H14B14387   2.096   2.484   2.874 -1.1406 -0.7173 -0.3620
  134OSM   H14C14388   2.039   2.612   2.980  2.0838  0.6147  0.7689
  134OSM    C1314389   2.249   2.364   3.040  0.3039  0.0337 -0.0332
  134OSM   H13A14390   2.297   2.386   2.946 -1.9597  1.0098 -1.0226
  134OSM   H13B14391   2.193   2.272   3.036  0.1311  0.1006  0.6951
  134OSM   H13C14392   2.325   2.344   3.114 -0.4078 -2.2843  0.1398
  134OSM    C1214393   2.120   2.467   3.208 -0.4664  0.1179  0.8229
  134OSM   H12A14394   2.203   2.435   3.270  0.9183 -1.2055 -1.5797
  134OSM   H12B14395   2.050   2.386   3.194 -1.2609  1.0564 -0.9328
  134OSM    C1114396   2.056   2.595   3.284 -0.6683  0.5744 -0.5895
  134OSM   H11A14397   2.139   2.661   3.317 -1.1354  0.9979 -0.2419
  134OSM   H11B14398   2.017   2.538   3.371  0.5771 -0.8119 -0.9056
  134OSM      P14399   1.962   2.819   3.186 -0.2496  0.4257  0.0497
  134OSM    O1314400   2.104   2.837   3.139 -0.2975  0.0528 -0.3149
  134OSM    O1414401   1.857   2.853   3.086  0.0070  0.1466  0.3775
  134OSM    O1114402   1.945   2.886   3.331 -0.1402 -0.0069  0.2065
  134OSM    O1214403   1.944   2.663   3.221  0.3307 -0.0557  0.0710
  134OSM    C1S14404   1.844   2.842   3.421  0.1075 -0.1525 -0.5470
  134OSM    H1S14405   1.834   2.731   3.410  1.2549 -0.4349  0.9766
  134OSM    H1T14406   1.751   2.900   3.405  0.3486  0.5952  0.6217
  134OSM     NF14407   1.788   2.785   3.666  0.2234  0.1356 -0.2270
  134OSM    HNF14408   1.708   2.841   3.688  0.2241 -0.1237  0.4281
  134OSM    C2S14409   1.878   2.854   3.573 -0.6469  1.0260 -0.5113
  134OSM    H2S14410   1.979   2.812   3.591 -0.7576  1.0741  0.2901
  134OSM    C3S14411   1.895   3.008   3.611  0.0374  0.4066 -0.2385
  134OSM    H3S14412   1.787   3.034   3.616  0.6265  3.0798 -0.2704
  134OSM     O314413   1.948   3.094   3.511 -0.4265 -0.5997 -0.0854
  134OSM    HO314414   1.961   3.029   3.442 -0.2504  0.2695 -0.9071
  134OSM    C4S14415   1.953   3.033   3.748  0.7375  0.0202  0.6065
  134OSM    H4S14416   1.880   3.026   3.830 -0.6807  3.6764 -0.1568
  134OSM    C5S14417   2.087   3.041   3.778 -0.1850  0.0283 -0.4011
  134OSM    H5S14418   2.162   3.027   3.700  0.6807  1.1321  0.2116
  134OSM    C6S14419   2.150   3.054   3.919  0.7752  0.1900  0.7229
  134OSM    H6S14420   2.233   3.128   3.907  1.0087 -0.2880 -0.8611
  134OSM    H6T14421   2.205   2.962   3.945 -0.4331 -1.2018 -1.3642
  134OSM    C7S14422   2.061   3.113   4.034  0.7697  0.2369  0.3451
  134OSM    H7S14423   1.976   3.043   4.047  1.3237 -0.1806  1.9922
  134OSM    H7T14424   2.013   3.211   4.011 -1.2313 -0.8505 -0.3173
  134OSM    C8S14425   2.134   3.137   4.169  0.0014 -0.1891  0.1733
  134OSM    H8S14426   2.219   3.202   4.141 -1.1686  0.8254 -1.1555
  134OSM    H8T14427   2.176   3.038   4.198 -0.2487 -0.6968 -1.1430
  134OSM    C9S14428   2.051   3.184   4.293  0.3944 -0.3965  0.4474
  134OSM    H9S14429   1.997   3.272   4.251 -1.2970 -0.4483  2.3292
  134OSM    H9T14430   2.116   3.204   4.380 -1.3020  0.2490  1.6327
  134OSM   C10S14431   1.937   3.086   4.344  0.0746 -0.6807 -0.0746
  134OSM   H10S14432   1.874   3.065   4.256  1.2800 -2.0427 -0.6528
  134OSM   H10T14433   1.872   3.148   4.409  2.3578  1.3123  0.4604
  134OSM   C11S14434   2.000   2.961   4.397  0.6000  0.1039  0.3499
  134OSM   H11S14435   2.070   2.987   4.479  1.9082  1.0956 -1.0116
  134OSM   H11T14436   2.049   2.900   4.318 -2.0179 -1.1354 -0.4502
  134OSM   C12S14437   1.885   2.862   4.445 -0.7289 -0.1554 -0.7455
  134OSM   H12S14438   1.923   2.760   4.469 -2.5655 -0.3556  1.7410
  134OSM   H12T14439   1.810   2.851   4.363 -3.5592 -3.1536  1.9480
  134OSM   C13S14440   1.811   2.910   4.569  0.4512 -0.5194 -0.5317
  134OSM   H13S14441   1.751   2.997   4.536 -2.1001 -2.1256 -0.3585
  134OSM   H13T14442   1.899   2.939   4.630  0.1684 -0.7152 -0.0306
  134OSM   C14S14443   1.737   2.797   4.641 -0.8167  0.2157  0.0862
  134OSM   H14S14444   1.794   2.702   4.643  0.3614  0.8940 -0.4322
  134OSM   H14T14445   1.641   2.776   4.588  0.7694 -3.4579 -1.7306
  134OSM   C15S14446   1.704   2.840   4.785  0.5919 -0.3639  0.3447
  134OSM   H15S14447   1.660   2.942   4.781  2.7333  0.5966 -1.6717
  134OSM   H15T14448   1.799   2.860   4.840  1.0096 -0.3236 -0.3774
  134OSM   C16S14449   1.610   2.741   4.871  1.0068 -0.4502 -0.5994
  134OSM   H16S14450   1.660   2.644   4.889 -0.1584 -0.7742  1.0684
  134OSM   H16T14451   1.521   2.727   4.806  1.4239  0.5042 -1.4063
  134OSM   C17S14452   1.580   2.794   5.010 -0.0410  0.4724  0.2313
  134OSM   H17S14453   1.559   2.903   5.001  2.6172  0.9558 -1.1344
  134OSM   H17T14454   1.673   2.782   5.069 -1.4750  2.2576  3.0749
  134OSM   C18S14455   1.462   2.722   5.066  0.0995 -0.2404  0.0250
  134OSM   H18S14456   1.451   2.742   5.175  3.0776  0.2472  0.3175
  134OSM   H18T14457   1.490   2.616   5.081  1.4267  0.0391 -0.3824
  134OSM   H18U14458   1.370   2.742   5.007 -0.5614  1.1624  1.4531
  134OSM    C1F14459   1.785   2.653   3.672 -0.0643 -0.6304 -0.1280
  134OSM     OF14460   1.855   2.591   3.594  0.2907 -0.2283 -0.3447
  134OSM    C2F14461   1.682   2.592   3.758  0.2391  0.2017  0.3921
  134OSM    H2F14462   1.638   2.508   3.699 -1.9056  0.9534  0.8371
  134OSM    H2G14463   1.599   2.664   3.769  0.6628  0.4521  2.3349
  134OSM    C3F14464   1.743   2.545   3.897  0.3902 -0.4415  0.3065
  134OSM    H3F14465   1.832   2.484   3.869 -0.4690 -1.6833  0.1730
  134OSM    H3G14466   1.673   2.473   3.944 -0.5147  0.0328 -0.2746
  134OSM    C4F14467   1.780   2.660   3.989 -0.0926 -0.7393 -0.2446
  134OSM    H4F14468   1.701   2.738   3.982  1.1532  0.5246 -0.7876
  134OSM    H4G14469   1.875   2.698   3.945  0.0644 -0.0865  0.6352
  134OSM    C5F14470   1.793   2.625   4.138 -0.4070  0.4104  0.6325
  134OSM    H5F14471   1.840   2.699   4.206  0.8236  0.2821 -0.0543
  134OSM    H5G14472   1.864   2.540   4.146 -1.0193 -0.2372 -0.5490
  134OSM    C6F14473   1.663   2.575   4.208 -0.0426  0.1877 -0.0560
  134OSM    H6F14474   1.642   2.476   4.162 -0.9910 -1.2346  3.1455
  134OSM    H6G14475   1.585   2.642   4.165 -0.1311 -1.1447 -2.1380
  134OSM    C7F14476   1.671   2.571   4.359  0.0819  0.2055  0.2641
  134OSM    H7F14477   1.573   2.535   4.397 -0.5346  0.6654 -0.8513
  134OSM    H7G14478   1.670   2.678   4.389 -0.7375  0.0305  0.9043
  134OSM    C8F14479   1.777   2.492   4.440 -0.2754  0.2255 -0.9084
  134OSM    H8F14480   1.774   2.522   4.547 -0.9244 -1.8242 -0.2974
  134OSM    H8G14481   1.872   2.530   4.399  0.6410  0.3789  1.2082
  134OSM    C9F14482   1.773   2.339   4.437  0.4982  0.8569  0.0520
  134OSM    H9F14483   1.798   2.285   4.344 -0.4249 -1.1907  0.9233
  134OSM   C10F14484   1.705   2.259   4.517 -0.0321  0.4866 -0.0887
  134OSM   H10F14485   1.714   2.150   4.503 -1.1797  0.3096  0.4601
  134OSM   C11F14486   1.628   2.304   4.638  0.3759  0.3089 -0.6683
  134OSM   H11F14487   1.527   2.260   4.654  0.2178  1.0469  0.4789
  134OSM   H11G14488   1.609   2.413   4.631  2.4290  1.1085  3.1659
  134OSM   C12F14489   1.702   2.303   4.769 -0.6717  0.3304  0.4625
  134OSM   H12F14490   1.636   2.338   4.851 -1.7188 -1.3284  0.3653
  134OSM   H12G14491   1.800   2.352   4.750  1.5939 -2.7402  3.0570
  134OSM   C13F14492   1.730   2.160   4.823  0.1940  0.5126  0.2492
  134OSM   H13F14493   1.759   2.097   4.736  0.7604  1.0911  0.0128
  134OSM   H13G14494   1.625   2.133   4.849 -1.3524  3.5927 -2.2006
  134OSM   C14F14495   1.830   2.142   4.943 -0.4775  0.0627 -0.1070
  134OSM   H14F14496   1.934   2.164   4.910  0.5958 -2.8553  0.9776
  134OSM   H14G14497   1.837   2.038   4.980  0.4790  0.2889  0.3994
  134OSM   C15F14498   1.801   2.232   5.061  0.0843  0.0774  0.5987
  134OSM   H15F14499   1.804   2.335   5.020  2.5136  0.5145  1.7217
  134OSM   H15G14500   1.877   2.230   5.142  1.6155 -0.0356 -0.7833
  134OSM   C16F14501   1.674   2.194   5.132  0.4465 -0.3479 -0.5316
  134OSM   H16F14502   1.691   2.109   5.201  0.1683  0.6801  0.8502
  134OSM   H16G14503   1.599   2.179   5.051  1.3988  0.7475 -1.6605
  134OSM   C17F14504   1.629   2.297   5.240  0.3516  0.2911 -0.6181
  134OSM   H17F14505   1.555   2.372   5.205 -0.2171 -0.9662 -2.2810
  134OSM   H17G14506   1.718   2.354   5.274  0.1681 -0.5277  1.3763
  134OSM   C18F14507   1.565   2.240   5.374 -0.1578  0.2328 -0.7781
  134OSM   H18F14508   1.469   2.202   5.334 -1.4612  0.6139  1.7545
  134OSM   H18G14509   1.540   2.324   5.443 -1.6374 -1.5631  1.0003
  134OSM   H18H14510   1.627   2.160   5.419  0.5339 -0.0054 -2.0969
  135OSM      N14511   4.927   6.477   2.652 -0.3199  0.3775  0.6212
  135OSM    C1514512   5.052   6.498   2.576 -0.2634  0.0411 -0.8004
  135OSM   H15A14513   5.050   6.495   2.468 -0.4240  0.5344 -0.8128
  135OSM   H15B14514   5.119   6.419   2.605  0.4254  1.2576  1.1480
  135OSM   H15C14515   5.098   6.595   2.587 -0.2131  0.1148 -1.6190
  135OSM    C1414516   4.830   6.577   2.599 -0.1075  0.0521 -0.0872
  135OSM   H14A14517   4.877   6.674   2.601  2.9775 -1.3006 -0.9769
  135OSM   H14B14518   4.735   6.561   2.649  0.6054 -0.8898  0.9951
  135OSM   H14C14519   4.812   6.556   2.494  1.3568 -0.3026 -0.2792
  135OSM    C1314520   4.879   6.341   2.635 -0.1801  0.3872  0.7028
  135OSM   H13A14521   4.951   6.266   2.666 -2.6787 -1.8919  1.3194
  135OSM   H13B14522   4.850   6.311   2.536 -0.7603 -0.4134  1.1040
  135OSM   H13C14523   4.789   6.322   2.691 -0.5371  1.1298  0.3878
  135OSM    C1214524   4.943   6.511   2.800  0.5374 -0.5063  0.2287
  135OSM   H12A14525   5.005   6.599   2.810  0.4641 -0.5360  0.9676
  135OSM   H12B14526   5.005   6.437   2.848  0.1449 -0.9996 -0.0104
  135OSM    C1114527   4.814   6.524   2.885 -0.9934 -0.9470 -0.2037
  135OSM   H11A14528   4.754   6.609   2.848 -0.9878 -1.2278 -0.8697
  135OSM   H11B14529   4.853   6.555   2.984  1.4747 -0.2931 -1.2894
  135OSM      P14530   4.746   6.305   3.005  0.2180  0.2199  0.1130
  135OSM    O1314531   4.619   6.233   3.010  0.4610  0.1762  0.6930
  135OSM    O1414532   4.869   6.233   2.997 -0.5080 -0.9969  0.7235
  135OSM    O1114533   4.742   6.397   3.128  0.1585  0.0249 -0.0671
  135OSM    O1214534   4.741   6.401   2.882 -0.2761 -0.9354  0.1703
  135OSM    C1S14535   4.625   6.472   3.163 -0.5552 -0.4718  0.4415
  135OSM    H1S14536   4.528   6.429   3.131 -2.1703  2.6674  0.6869
  135OSM    H1T14537   4.622   6.575   3.121 -0.2261  0.1055  1.7879
  135OSM     NF14538   4.499   6.550   3.352 -0.5217  0.3365  0.1273
  135OSM    HNF14539   4.498   6.644   3.384 -0.8976  0.2516  0.3748
  135OSM    C2S14540   4.622   6.476   3.315 -0.5655 -0.4388 -0.7610
  135OSM    H2S14541   4.626   6.373   3.355 -1.6252  0.5202  2.0367
  135OSM    C3S14542   4.750   6.553   3.370  0.7963 -0.2067 -0.0593
  135OSM    H3S14543   4.742   6.658   3.337 -1.3582 -0.1032  0.6777
  135OSM     O314544   4.877   6.520   3.311  0.9420  0.1010  0.5677
  135OSM    HO314545   4.848   6.475   3.231  1.6773  1.1532 -0.3135
  135OSM    C4S14546   4.762   6.535   3.517 -0.1808  0.1185 -0.1065
  135OSM    H4S14547   4.806   6.437   3.544 -0.2908  0.2500  0.5795
  135OSM    C5S14548   4.734   6.627   3.610  0.0409  0.6480 -0.2792
  135OSM    H5S14549   4.702   6.727   3.577 -1.0079  0.8969  1.3809
  135OSM    C6S14550   4.756   6.595   3.753 -0.6239  0.6475  0.1213
  135OSM    H6S14551   4.809   6.672   3.814  1.4746  0.8152 -1.8125
  135OSM    H6T14552   4.824   6.507   3.757  2.1264  2.6277 -0.3320
  135OSM    C7S14553   4.631   6.560   3.835 -0.0849  0.2761 -0.4791
  135OSM    H7S14554   4.626   6.449   3.824  2.3232  0.0486  0.0924
  135OSM    H7T14555   4.542   6.618   3.801  0.8397  1.8799 -0.2494
  135OSM    C8S14556   4.634   6.589   3.987 -0.1409 -0.1794  0.0223
  135OSM    H8S14557   4.722   6.545   4.038  0.6884 -0.0478 -1.2542
  135OSM    H8T14558   4.552   6.524   4.024 -0.2158 -0.2572 -0.2742
  135OSM    C9S14559   4.610   6.738   4.025 -0.3831  0.4179 -0.2952
  135OSM    H9S14560   4.521   6.767   3.965 -1.0207  0.7596  0.7988
  135OSM    H9T14561   4.705   6.789   3.999  0.6673 -0.8467  0.9557
  135OSM   C10S14562   4.570   6.767   4.170 -0.0569  0.6201 -0.6442
  135OSM   H10S14563   4.551   6.876   4.177  2.0502  1.0143 -0.2481
  135OSM   H10T14564   4.649   6.730   4.239 -1.7249 -1.8609  0.0665
  135OSM   C11S14565   4.436   6.697   4.200  0.6313  0.0314 -0.2008
  135OSM   H11S14566   4.434   6.586   4.194 -1.1916 -0.0315  0.7915
  135OSM   H11T14567   4.356   6.734   4.133  0.5163  1.0630  0.4878
  135OSM   C12S14568   4.370   6.728   4.335 -0.7075 -0.1820 -0.1560
  135OSM   H12S14569   4.273   6.673   4.339  0.1122 -1.6962 -0.2275
  135OSM   H12T14570   4.357   6.838   4.339  1.1165  0.0342  0.5142
  135OSM   C13S14571   4.437   6.678   4.462 -0.4547 -0.5975  0.6157
  135OSM   H13S14572   4.531   6.735   4.482 -1.8062  2.1053 -0.2634
  135OSM   H13T14573   4.467   6.572   4.446  4.1013 -0.0035  3.3925
  135OSM   C14S14574   4.350   6.686   4.590  0.1837 -0.7731 -0.2264
  135OSM   H14S14575   4.386   6.596   4.645  0.4530 -0.7568 -0.3724
  135OSM   H14T14576   4.245   6.680   4.555  0.2852 -1.3098 -0.4450
  135OSM   C15S14577   4.390   6.800   4.682  0.4024  0.0453  0.0010
  135OSM   H15S14578   4.365   6.898   4.635 -2.5375 -0.1590  0.9158
  135OSM   H15T14579   4.499   6.791   4.695  0.2608 -0.5507  0.8451
  135OSM   C16S14580   4.339   6.795   4.829  0.6490 -0.3484  0.6103
  135OSM   H16S14581   4.388   6.705   4.871 -2.3254 -2.0404  0.7880
  135OSM   H16T14582   4.232   6.763   4.830  0.1879  0.9558  3.5949
  135OSM   C17S14583   4.362   6.924   4.912  0.7036  0.9381 -0.1480
  135OSM   H17S14584   4.309   7.014   4.875 -1.2683  1.0881  2.7114
  135OSM   H17T14585   4.470   6.947   4.914  1.1983 -1.1275 -0.2399
  135OSM   C18S14586   4.320   6.890   5.054  1.0898  0.0217  0.0792
  135OSM   H18S14587   4.362   6.793   5.089 -0.5923 -1.7605 -2.4832
  135OSM   H18T14588   4.210   6.874   5.059  1.3723 -2.3869  0.0619
  135OSM   H18U14589   4.356   6.972   5.120  2.2958 -0.0100 -0.5010
  135OSM    C1F14590   4.382   6.493   3.332 -0.3507 -0.2613 -0.0448
  135OSM     OF14591   4.368   6.374   3.306 -0.1101 -0.0701 -0.2545
  135OSM    C2F14592   4.251   6.576   3.333 -0.1986 -0.5742 -0.4805
  135OSM    H2F14593   4.238   6.604   3.440  0.9665 -2.0189  0.0828
  135OSM    H2G14594   4.167   6.511   3.299 -1.7436  1.8837 -1.5803
  135OSM    C3F14595   4.258   6.699   3.238  0.2180 -0.0405 -0.0732
  135OSM    H3F14596   4.304   6.669   3.142 -1.0611  1.4201 -1.1872
  135OSM    H3G14597   4.325   6.777   3.279  1.7701 -0.5874 -1.4813
  135OSM    C4F14598   4.116   6.744   3.214 -0.5225 -0.6388  0.7666
  135OSM    H4F14599   4.068   6.660   3.159  0.6371 -1.5950  1.1698
  135OSM    H4G14600   4.120   6.824   3.137  0.9931 -0.2848  1.1831
  135OSM    C5F14601   4.039   6.801   3.331 -0.3086 -0.0324 -1.0422
  135OSM    H5F14602   4.047   6.726   3.412  0.5729  1.4685  0.3156
  135OSM    H5G14603   3.934   6.823   3.304  0.0393  1.2394 -1.4653
  135OSM    C6F14604   4.086   6.938   3.373 -0.1097 -0.1632  0.1324
  135OSM    H6F14605   4.087   6.997   3.278  1.1833  0.9608  0.8106
  135OSM    H6G14606   4.192   6.940   3.405 -0.0181  4.2369  0.1982
  135OSM    C7F14607   3.982   7.011   3.460  0.0461 -0.1203 -0.2141
  135OSM    H7F14608   3.913   7.063   3.390  2.3974  0.1862 -2.4439
  135OSM    H7G14609   4.031   7.096   3.512 -1.1132 -0.1657  1.0036
  135OSM    C8F14610   3.919   6.930   3.574  0.6816  0.2184  0.4719
  135OSM    H8F14611   3.887   7.001   3.653  1.4129  0.8670  0.2067
  135OSM    H8G14612   3.994   6.859   3.616  0.7559  1.1719  2.0154
  135OSM    C9F14613   3.794   6.846   3.536  0.5958  0.0390 -0.5635
  135OSM    H9F14614   3.765   6.843   3.430 -1.4991  1.7009 -0.1144
  135OSM   C10F14615   3.697   6.806   3.621  0.0460 -0.4976 -0.2062
  135OSM   H10F14616   3.621   6.742   3.574 -0.6415 -0.6455  1.0779
  135OSM   C11F14617   3.694   6.815   3.770 -0.5119  0.2151  0.1349
  135OSM   H11F14618   3.780   6.880   3.794 -0.1748  0.1729 -0.9161
  135OSM   H11G14619   3.723   6.719   3.817  1.0846 -0.0191 -1.2497
  135OSM   C12F14620   3.560   6.857   3.820 -0.5716  0.7911  0.6571
  135OSM   H12F14621   3.490   6.782   3.778 -0.8368  1.6810 -0.5297
  135OSM   H12G14622   3.527   6.954   3.777 -0.4303  1.0609  1.1486
  135OSM   C13F14623   3.560   6.859   3.971 -0.3634 -0.2163  0.0738
  135OSM   H13F14624   3.628   6.937   4.013 -1.5764 -0.9164  3.6549
  135OSM   H13G14625   3.600   6.764   4.013  0.2023  0.4981  1.2214
  135OSM   C14F14626   3.423   6.893   4.028  0.9910  0.0949 -0.4014
  135OSM   H14F14627   3.375   6.795   4.050 -1.9842  0.9901 -2.2860
  135OSM   H14G14628   3.343   6.941   3.968 -2.5941 -1.4902  2.6768
  135OSM   C15F14629   3.410   6.968   4.166  0.4196  0.0269  0.0528
  135OSM   H15F14630   3.302   6.975   4.194  0.2235  2.2151 -1.0482
  135OSM   H15G14631   3.453   7.070   4.164 -1.0304  0.7129  1.3019
  135OSM   C16F14632   3.477   6.892   4.287  0.1678  0.1561 -0.0326
  135OSM   H16F14633   3.586   6.891   4.263 -0.1148  0.3142 -1.3980
  135OSM   H16G14634   3.434   6.790   4.291  1.9974 -0.6190  1.1304
  135OSM   C17F14635   3.446   6.973   4.414  0.1781 -0.7838  0.0361
  135OSM   H17F14636   3.340   7.005   4.425  0.7466  3.0423 -3.2388
  135OSM   H17G14637   3.509   7.062   4.393  0.5929 -1.3078 -1.0150
  135OSM   C18F14638   3.510   6.906   4.532 -0.0156 -0.7807  0.5030
  135OSM   H18F14639   3.477   6.800   4.538  0.6824 -1.0936 -0.8428
  135OSM   H18G14640   3.479   6.952   4.628 -0.2527 -0.3302  0.2181
  135OSM   H18H14641   3.620   6.914   4.515 -0.2370 -0.0730 -0.7077
  136OSM      N14642   1.433   3.493   3.268  0.8019 -0.3607 -0.0532
  136OSM    C1514643   1.470   3.453   3.131  0.0948 -0.2100 -0.5538
  136OSM   H15A14644   1.456   3.346   3.136 -0.7570 -0.0445  1.8388
  136OSM   H15B14645   1.574   3.459   3.101  0.2797  0.7979  0.2323
  136OSM   H15C14646   1.411   3.487   3.048  0.6687  0.9046 -0.5321
  136OSM    C1414647   1.404   3.637   3.273 -0.4132 -0.2779 -0.0746
  136OSM   H14A14648   1.490   3.693   3.240 -1.7996  1.7032 -0.5301
  136OSM   H14B14649   1.374   3.662   3.374  1.2202 -1.2641  0.7018
  136OSM   H14C14650   1.329   3.667   3.202  0.4241 -1.0371 -1.3178
  136OSM    C1314651   1.296   3.437   3.293  0.0779  0.5787 -0.0148
  136OSM   H13A14652   1.256   3.454   3.391 -4.1331 -2.1628 -0.9920
  136OSM   H13B14653   1.292   3.330   3.278 -0.4517  0.4096  1.2677
  136OSM   H13C14654   1.222   3.480   3.227 -0.7302  0.6011  0.9012
  136OSM    C1214655   1.535   3.458   3.378 -1.0160  0.2555 -0.3993
  136OSM   H12A14656   1.629   3.503   3.349 -0.0750 -0.7987  0.8727
  136OSM   H12B14657   1.552   3.352   3.374  0.8986  0.5069  0.2587
  136OSM    C1114658   1.491   3.509   3.520 -0.3785 -0.3157 -0.2255
  136OSM   H11A14659   1.548   3.443   3.589 -0.5389 -0.9754 -0.7206
  136OSM   H11B14660   1.389   3.475   3.545  0.1010 -3.3626 -1.9480
  136OSM      P14661   1.647   3.722   3.563  0.0718 -0.2558  0.4843
  136OSM    O1314662   1.745   3.693   3.454  0.2738  0.7948  0.2269
  136OSM    O1414663   1.616   3.866   3.599  0.1129 -0.0945 -0.3824
  136OSM    O1114664   1.697   3.647   3.693 -0.0525 -0.9626  0.0796
  136OSM    O1214665   1.504   3.649   3.535  0.4312  0.9758 -0.0962
  136OSM    C1S14666   1.832   3.591   3.708  0.5820  0.7894 -0.4915
  136OSM    H1S14667   1.903   3.670   3.674  1.4390  0.2107 -0.0786
  136OSM    H1T14668   1.849   3.494   3.656  0.9646  0.8654 -0.5135
  136OSM     NF14669   1.986   3.591   3.903 -0.1662 -0.5217 -0.2276
  136OSM    HNF14670   2.046   3.512   3.895  0.4467  0.0638 -1.9820
  136OSM    C2S14671   1.844   3.577   3.855 -0.2750  0.0120 -0.1754
  136OSM    H2S14672   1.784   3.654   3.909 -0.0933 -0.5696  0.8732
  136OSM    C3S14673   1.776   3.440   3.889  0.1358  0.3662  0.9148
  136OSM    H3S14674   1.848   3.369   3.843  0.1995 -0.2633  1.9505
  136OSM     O314675   1.642   3.430   3.829 -0.0020 -0.0743 -0.7247
  136OSM    HO314676   1.645   3.494   3.758 -1.6023  0.9094  0.0571
  136OSM    C4S14677   1.770   3.409   4.028 -0.0232 -0.0330 -0.3809
  136OSM    H4S14678   1.862   3.364   4.070  0.3386  1.2108  0.2198
  136OSM    C5S14679   1.676   3.455   4.111 -0.0160  0.4169 -0.6160
  136OSM    H5S14680   1.593   3.514   4.069 -0.6797 -0.2887 -0.3428
  136OSM    C6S14681   1.680   3.430   4.257  0.0151  0.4328  0.1177
  136OSM    H6S14682   1.709   3.529   4.299  0.4144  0.5058 -0.3203
  136OSM    H6T14683   1.764   3.361   4.276 -0.1240  0.2677  0.1336
  136OSM    C7S14684   1.563   3.359   4.325 -0.1165  0.0391 -1.1310
  136OSM    H7S14685   1.509   3.293   4.254 -1.5463  0.2690 -0.2924
  136OSM    H7T14686   1.493   3.437   4.363  0.6481  0.5655 -0.7793
  136OSM    C8S14687   1.591   3.281   4.454  0.5419  0.1811  0.1688
  136OSM    H8S14688   1.651   3.194   4.420 -0.9796  0.1581 -2.7865
  136OSM    H8T14689   1.496   3.238   4.492  1.2223 -0.9243  0.6696
  136OSM    C9S14690   1.659   3.369   4.554  0.1617 -0.5831  0.3291
  136OSM    H9S14691   1.588   3.447   4.591 -0.9440 -1.0145 -0.8223
  136OSM    H9T14692   1.746   3.430   4.520 -0.5778  1.1251  1.3463
  136OSM   C10S14693   1.709   3.297   4.676 -0.7397  0.1777  0.6493
  136OSM   H10S14694   1.818   3.310   4.694 -0.6356  0.4466 -0.1503
  136OSM   H10T14695   1.711   3.188   4.656 -0.4569 -0.7810  4.8760
  136OSM   C11S14696   1.627   3.319   4.804  0.1579  0.6834  0.2904
  136OSM   H11S14697   1.522   3.290   4.784  0.4933 -0.7337  0.4895
  136OSM   H11T14698   1.643   3.424   4.837 -0.2538  1.7241 -2.5537
  136OSM   C12S14699   1.672   3.246   4.928 -0.3956 -0.1168  0.4330
  136OSM   H12S14700   1.779   3.266   4.950 -0.3631 -0.0437  0.2157
  136OSM   H12T14701   1.659   3.137   4.907 -0.1893 -0.0755  0.0903
  136OSM   C13S14702   1.594   3.284   5.052  0.2989 -0.1891 -0.0937
  136OSM   H13S14703   1.492   3.257   5.015  0.9231 -2.5604 -0.2542
  136OSM   H13T14704   1.607   3.391   5.079  1.0843 -0.6163  1.3507
  136OSM   C14S14705   1.636   3.204   5.181 -0.0670 -0.0967  0.2411
  136OSM   H14S14706   1.744   3.225   5.197 -0.7019  1.5441  3.0343
  136OSM   H14T14707   1.646   3.101   5.139  0.3745 -0.2855  0.7871
  136OSM   C15S14708   1.561   3.232   5.310  0.4760  0.0964  0.5138
  136OSM   H15S14709   1.464   3.179   5.301 -1.0086  1.9222  4.1224
  136OSM   H15T14710   1.550   3.341   5.329 -0.0932 -0.3085  2.7844
  136OSM   C16S14711   1.628   3.164   5.429 -0.7811  0.2487  0.1146
  136OSM   H16S14712   1.587   3.209   5.522  0.8938  1.7268  0.1977
  136OSM   H16T14713   1.725   3.218   5.418 -0.6779 -0.3709 -2.3995
  136OSM   C17S14714   1.636   3.010   5.438  0.4477 -0.1677  0.0179
  136OSM   H17S14715   1.711   2.988   5.518 -0.7116  1.8310  1.7547
  136OSM   H17T14716   1.662   2.963   5.341 -3.4789 -1.4339 -0.5912
  136OSM   C18S14717   1.499   2.954   5.479  0.3977 -0.2431  0.0160
  136OSM   H18S14718   1.468   3.012   5.569  0.6354  0.2458 -0.2133
  136OSM   H18T14719   1.523   2.849   5.506 -0.2353 -0.3496  0.1692
  136OSM   H18U14720   1.419   2.952   5.402  1.1336 -0.9007 -0.7441
  136OSM    C1F14721   2.040   3.717   3.905 -0.4060 -0.1390  0.1002
  136OSM     OF14722   1.972   3.812   3.866 -0.0420  0.0329  0.3949
  136OSM    C2F14723   2.181   3.730   3.957  0.8450 -0.4082  0.1418
  136OSM    H2F14724   2.253   3.724   3.872  1.7142  0.5564  0.7903
  136OSM    H2G14725   2.209   3.637   4.010 -0.8563 -0.9340  0.1813
  136OSM    C3F14726   2.195   3.845   4.054 -0.7212 -0.0859  0.8904
  136OSM    H3F14727   2.180   3.934   3.990  0.0499 -1.6947 -1.7126
  136OSM    H3G14728   2.302   3.855   4.084 -0.4291 -2.0105  0.6432
  136OSM    C4F14729   2.101   3.842   4.175  0.1292 -0.9376 -0.1616
  136OSM    H4F14730   1.998   3.867   4.142  0.6922 -0.2871 -1.4894
  136OSM    H4G14731   2.136   3.910   4.256  1.8298 -2.6252  0.6155
  136OSM    C5F14732   2.088   3.714   4.261 -0.1807 -0.4551  0.1519
  136OSM    H5F14733   2.191   3.674   4.269  0.5056  1.0663 -0.5328
  136OSM    H5G14734   2.034   3.632   4.209 -0.1654 -0.2509 -0.1900
  136OSM    C6F14735   2.029   3.732   4.401 -0.3751 -0.0941  0.5342
  136OSM    H6F14736   1.933   3.789   4.395  0.6480  1.5623 -2.5461
  136OSM    H6G14737   2.093   3.799   4.463  0.4254  0.4118 -0.7943
  136OSM    C7F14738   2.002   3.590   4.468 -0.3825 -0.0619 -0.7450
  136OSM    H7F14739   2.091   3.524   4.480 -1.4510 -1.2289  1.3079
  136OSM    H7G14740   1.939   3.514   4.416  0.7746 -0.9051 -0.9739
  136OSM    C8F14741   1.951   3.601   4.610 -0.1225  0.0108 -0.2603
  136OSM    H8F14742   1.932   3.499   4.648  1.2588  0.3071  1.3170
  136OSM    H8G14743   1.853   3.652   4.620  0.4217  0.6833  2.1786
  136OSM    C9F14744   2.056   3.658   4.697 -1.1604  0.9109 -0.0711
  136OSM    H9F14745   2.150   3.677   4.643 -0.3105 -2.1681  0.1560
  136OSM   C10F14746   2.053   3.685   4.823 -0.7598  0.3749  0.0026
  136OSM   H10F14747   2.148   3.722   4.866 -0.5026 -0.7939  0.4859
  136OSM   C11F14748   1.937   3.672   4.919 -0.6475  0.2635 -0.1378
  136OSM   H11F14749   1.856   3.728   4.868 -2.0524 -1.0038  0.6224
  136OSM   H11G14750   1.967   3.728   5.010 -1.8870 -0.1829  0.5655
  136OSM   C12F14751   1.889   3.526   4.954 -0.3389 -0.7609  0.0873
  136OSM   H12F14752   1.877   3.467   4.860 -1.1076 -0.8174  0.2180
  136OSM   H12G14753   1.785   3.526   4.993 -0.8057  0.4348 -1.0687
  136OSM   C13F14754   1.991   3.443   5.029  0.5169  0.7022 -0.5611
  136OSM   H13F14755   2.078   3.419   4.965  2.3324 -3.2987  2.9269
  136OSM   H13G14756   1.944   3.344   5.049  1.3790  0.4929  0.5118
  136OSM   C14F14757   2.024   3.500   5.168 -0.3084  0.7163  0.2675
  136OSM   H14F14758   2.106   3.574   5.156  0.4901 -0.0102  1.1044
  136OSM   H14G14759   2.067   3.414   5.223  0.0080  0.6100 -0.1364
  136OSM   C15F14760   1.912   3.556   5.253 -0.0922 -0.1483 -0.1883
  136OSM   H15F14761   1.829   3.482   5.244 -1.7275  1.8266 -3.0740
  136OSM   H15G14762   1.866   3.645   5.205 -0.1248 -0.5060 -0.8298
  136OSM   C16F14763   1.941   3.575   5.402 -0.2130  0.4808  0.3433
  136OSM   H16F14764   1.960   3.476   5.451 -2.4613  0.4863  1.3356
  136OSM   H16G14765   1.850   3.617   5.449  0.7219  2.8836  0.1175
  136OSM   C17F14766   2.045   3.685   5.432 -0.5797 -0.7381 -0.3333
  136OSM   H17F14767   2.139   3.641   5.393 -0.3882  0.1115 -0.8630
  136OSM   H17G14768   2.059   3.684   5.542  2.8794 -0.4067 -0.6642
  136OSM   C18F14769   2.022   3.829   5.372 -0.0796  0.3905 -0.0517
  136OSM   H18F14770   2.090   3.910   5.406  1.2650 -0.4452 -0.6589
  136OSM   H18G14771   1.917   3.854   5.397 -0.6226 -1.6349 -0.1151
  136OSM   H18H14772   2.028   3.827   5.261 -0.0812  2.1386 -0.1127
  137OSM      N14773   4.246   0.314   2.726  0.0808  0.2804 -0.7132
  137OSM    C1514774   4.106   0.265   2.748  0.4323  0.7392  0.0231
  137OSM   H15A14775   4.086   0.265   2.854  0.3732  0.7354  0.0119
  137OSM   H15B14776   4.082   0.173   2.698 -0.8821 -0.4536  2.6438
  137OSM   H15C14777   4.032   0.328   2.700  1.5664  1.5226 -0.7490
  137OSM    C1414778   4.268   0.334   2.577 -0.5872 -0.0084  0.3206
  137OSM   H14A14779   4.289   0.245   2.519 -0.8681  0.9140 -1.2617
  137OSM   H14B14780   4.355   0.397   2.570 -0.1628 -0.5701  0.4496
  137OSM   H14C14781   4.189   0.392   2.532 -0.5753 -0.2822 -0.0615
  137OSM    C1314782   4.260   0.451   2.788  0.1304  0.1694  0.0145
  137OSM   H13A14783   4.273   0.446   2.895  0.3089 -0.5732 -0.0357
  137OSM   H13B14784   4.180   0.519   2.760 -0.0146  0.7720  1.7413
  137OSM   H13C14785   4.349   0.504   2.757 -1.8301  3.2313 -0.8741
  137OSM    C1214786   4.346   0.219   2.788  0.0319  0.9349  0.3852
  137OSM   H12A14787   4.445   0.255   2.769  0.4076 -0.5997 -0.7994
  137OSM   H12B14788   4.335   0.124   2.737 -2.8627  1.0793  0.5314
  137OSM    C1114789   4.337   0.177   2.940  0.1725 -0.4528  0.6715
  137OSM   H11A14790   4.417   0.102   2.957  1.2154 -0.0514 -1.9279
  137OSM   H11B14791   4.241   0.121   2.952 -0.8507  1.0529 -0.0582
  137OSM      P14792   4.471   0.365   3.051  0.6805 -0.3798 -0.0065
  137OSM    O1314793   4.560   0.356   2.930  0.3202 -0.1685 -0.0822
  137OSM    O1414794   4.426   0.506   3.080 -0.9464  0.2808  0.5904
  137OSM    O1114795   4.540   0.290   3.168 -0.2081  0.1070  0.4712
  137OSM    O1214796   4.337   0.282   3.028  0.1150 -0.1475  0.0493
  137OSM    C1S14797   4.497   0.306   3.299  0.7311  0.0174  0.1989
  137OSM    H1S14798   4.409   0.241   3.316  2.0924 -1.4138  2.5223
  137OSM    H1T14799   4.466   0.408   3.329 -0.0504 -0.5908  1.5931
  137OSM     NF14800   4.556   0.259   3.532 -0.8385 -0.0626  0.6784
  137OSM    HNF14801   4.596   0.319   3.601 -0.0661  0.4725 -0.2112
  137OSM    C2S14802   4.606   0.267   3.396 -0.3656  0.3660  0.4623
  137OSM    H2S14803   4.645   0.166   3.370 -0.5761  1.2356 -4.1341
  137OSM    C3S14804   4.727   0.365   3.379 -0.0224 -1.0247 -0.4347
  137OSM    H3S14805   4.695   0.463   3.421 -0.2659 -2.0921  1.9861
  137OSM     O314806   4.775   0.381   3.243  0.0361  0.1273  0.4378
  137OSM    HO314807   4.708   0.337   3.190 -0.4915 -0.8637  1.8669
  137OSM    C4S14808   4.841   0.327   3.472 -0.0876  0.0895 -0.2964
  137OSM    H4S14809   4.836   0.378   3.569  0.2795  2.4180 -1.4042
  137OSM    C5S14810   4.924   0.223   3.453 -0.7459 -0.9146  0.4859
  137OSM    H5S14811   4.906   0.166   3.360 -1.0172  0.1709 -0.1538
  137OSM    C6S14812   5.018   0.166   3.558  0.1020  0.4376  0.0416
  137OSM    H6S14813   5.117   0.214   3.543  0.5159  0.0162  1.3233
  137OSM    H6T14814   5.018   0.058   3.533 -3.1108  0.6168 -1.1825
  137OSM    C7S14815   4.979   0.187   3.706 -0.1216  0.2944  0.1241
  137OSM    H7S14816   4.881   0.137   3.721 -0.2750  0.0317 -1.5116
  137OSM    H7T14817   4.973   0.296   3.728 -0.6530  0.8632 -2.4802
  137OSM    C8S14818   5.072   0.105   3.795 -0.3998  0.6345  0.3346
  137OSM    H8S14819   5.176   0.130   3.768  0.2714  1.3647  3.2606
  137OSM    H8T14820   5.068  -0.002   3.768 -2.5876  1.3124 -2.5295
  137OSM    C9S14821   5.039   0.119   3.943 -0.5194 -0.6638  0.4673
  137OSM    H9S14822   4.933   0.088   3.955 -1.4300  2.5643  1.8577
  137OSM    H9T14823   5.046   0.224   3.978  0.8021 -0.5010 -0.2434
  137OSM   C10S14824   5.121   0.029   4.031  0.4950  0.9256 -0.0363
  137OSM   H10S14825   5.231   0.030   4.014  1.1519 -2.7581  2.6979
  137OSM   H10T14826   5.079  -0.072   4.008 -0.2136  0.8622  1.4608
  137OSM   C11S14827   5.089   0.045   4.182  0.4161 -0.4869  0.0442
  137OSM   H11S14828   5.096   0.152   4.211 -0.6363  0.1369 -1.8156
  137OSM   H11T14829   5.158  -0.026   4.231  2.0701  1.3627  0.5199
  137OSM   C12S14830   4.945   0.011   4.230 -0.0481  0.1850  0.7162
  137OSM   H12S14831   4.925  -0.095   4.201 -0.2280  0.0620  1.2624
  137OSM   H12T14832   4.873   0.084   4.188  0.3028 -1.1466 -2.4622
  137OSM   C13S14833   4.934   0.012   4.384 -0.1252 -1.1495  1.1188
  137OSM   H13S14834   5.009  -0.057   4.428  1.7989 -0.9566 -1.6125
  137OSM   H13T14835   4.826  -0.006   4.403 -0.7197 -0.2934 -1.1051
  137OSM   C14S14836   4.959   0.155   4.433  0.1531 -0.8660 -0.7096
  137OSM   H14S14837   4.922   0.234   4.363  0.9494 -0.2041 -0.4001
  137OSM   H14T14838   5.068   0.176   4.436 -0.1899  0.9634  0.0547
  137OSM   C15S14839   4.917   0.188   4.575  0.0548  0.9688  0.1073
  137OSM   H15S14840   4.811   0.157   4.561  0.2038  0.1950  0.6009
  137OSM   H15T14841   4.926   0.296   4.599  0.9404  0.4917  2.1288
  137OSM   C16S14842   4.990   0.112   4.695  0.1450 -0.1193 -0.5866
  137OSM   H16S14843   5.091   0.153   4.715 -0.8076  1.1409  2.0756
  137OSM   H16T14844   5.009   0.007   4.664 -0.6494 -1.4789  3.0344
  137OSM   C17S14845   4.920   0.130   4.830  0.4455  0.7387  0.0164
  137OSM   H17S14846   4.944   0.043   4.896  0.4033  0.6963 -0.0240
  137OSM   H17T14847   4.810   0.127   4.821  0.2788 -3.2910  1.1357
  137OSM   C18S14848   4.973   0.253   4.914  0.1348 -0.3542  0.2374
  137OSM   H18S14849   4.911   0.264   5.005 -0.3571  0.1565 -0.1429
  137OSM   H18T14850   4.960   0.352   4.864  1.3878  0.7944  2.0629
  137OSM   H18U14851   5.082   0.237   4.928  0.3640  1.2614  0.4960
  137OSM    C1F14852   4.472   0.161   3.556 -0.4804 -0.3510  0.0252
  137OSM     OF14853   4.466   0.073   3.475 -0.1522 -0.0081  0.3252
  137OSM    C2F14854   4.398   0.166   3.686 -0.5719  0.2626  0.1086
  137OSM    H2F14855   4.342   0.261   3.695 -0.9217 -0.0430  1.4360
  137OSM    H2G14856   4.473   0.169   3.768 -1.4918 -0.9181  1.0569
  137OSM    C3F14857   4.299   0.051   3.704  0.4540  0.1496 -0.4486
  137OSM    H3F14858   4.353  -0.046   3.694  1.9077  0.6746  1.5981
  137OSM    H3G14859   4.219   0.045   3.628  1.4736 -1.1238 -1.4863
  137OSM    C4F14860   4.217   0.072   3.830 -0.0764 -0.0238 -0.1566
  137OSM    H4F14861   4.145   0.153   3.809 -0.1865 -0.5521 -1.9402
  137OSM    H4G14862   4.277   0.093   3.921 -0.9787 -1.6657  0.8518
  137OSM    C5F14863   4.126  -0.049   3.856  0.0809  0.2001 -0.2121
  137OSM    H5F14864   4.173  -0.147   3.833  0.6997  0.9080 -2.1517
  137OSM    H5G14865   4.044  -0.040   3.782 -0.0595  0.7999  0.0095
  137OSM    C6F14866   4.071  -0.066   4.000 -0.0581 -0.5289 -0.4426
  137OSM    H6F14867   4.155  -0.080   4.070 -0.4528 -1.5542 -0.1567
  137OSM    H6G14868   4.007  -0.156   4.009 -1.2653  0.4032  0.8016
  137OSM    C7F14869   3.997   0.053   4.063  0.0119 -0.3543  0.3080
  137OSM    H7F14870   3.920   0.083   3.988 -0.1353 -1.0286  0.1839
  137OSM    H7G14871   4.054   0.148   4.071 -0.3803 -0.2848  3.6786
  137OSM    C8F14872   3.944   0.012   4.198  0.2764  0.2122 -0.3516
  137OSM    H8F14873   3.941  -0.098   4.215  1.5141  0.5287  2.4944
  137OSM    H8G14874   3.843   0.058   4.212  0.8117  1.3239 -0.0117
  137OSM    C9F14875   4.033   0.070   4.304 -0.7916 -0.0743 -0.4381
  137OSM    H9F14876   4.136   0.092   4.273 -1.1566  0.0629 -1.6045
  137OSM   C10F14877   4.004   0.080   4.435  0.3586 -0.7689 -0.1873
  137OSM   H10F14878   4.069   0.136   4.504  0.0315 -1.6139  0.8231
  137OSM   C11F14879   3.876   0.040   4.501  0.3052 -0.4283  0.5012
  137OSM   H11F14880   3.804   0.003   4.424 -0.7662  2.5505 -0.0410
  137OSM   H11G14881   3.822   0.129   4.538  0.6052 -0.2868  0.5962
  137OSM   C12F14882   3.895  -0.058   4.621 -0.0455  0.2376  0.0034
  137OSM   H12F14883   3.971  -0.005   4.681 -0.2235  0.5592 -0.0548
  137OSM   H12G14884   3.936  -0.158   4.596 -0.3681 -0.0338  0.5315
  137OSM   C13F14885   3.766  -0.077   4.697 -0.1755  0.2572 -0.6825
  137OSM   H13F14886   3.695  -0.141   4.641 -0.2773 -1.0893  0.9138
  137OSM   H13G14887   3.710   0.019   4.700 -1.9175 -0.7266 -0.2500
  137OSM   C14F14888   3.764  -0.137   4.840 -0.5852 -0.0574 -0.7984
  137OSM   H14F14889   3.678  -0.103   4.900 -0.7199  0.1408 -1.0975
  137OSM   H14G14890   3.847  -0.093   4.900  0.1842 -0.7423 -1.3248
  137OSM   C15F14891   3.757  -0.291   4.853  0.2093  0.6713 -0.0862
  137OSM   H15F14892   3.846  -0.325   4.796  2.3605  2.3048  2.0510
  137OSM   H15G14893   3.665  -0.330   4.806  2.1556 -2.8922 -1.3448
  137OSM   C16F14894   3.766  -0.352   4.993 -0.4127 -0.2235 -0.7033
  137OSM   H16F14895   3.675  -0.321   5.049  0.6861  1.4062  0.2767
  137OSM   H16G14896   3.858  -0.317   5.045 -0.0820 -0.6668 -0.9892
  137OSM   C17F14897   3.759  -0.505   4.993 -0.2081  0.5657  0.2360
  137OSM   H17F14898   3.664  -0.539   4.946  0.6305  0.2017 -1.2606
  137OSM   H17G14899   3.757  -0.540   5.098 -1.0808  0.7488  0.2903
  137OSM   C18F14900   3.880  -0.570   4.919  0.4409 -0.1755 -0.6315
  137OSM   H18F14901   3.906  -0.666   4.969 -0.1321 -1.0501 -1.9599
  137OSM   H18G14902   3.966  -0.500   4.923  0.5889 -0.3868 -0.0751
  137OSM   H18H14903   3.852  -0.598   4.815  0.2414  1.6002 -1.0847
  138OSM      N14904   3.580   1.612   2.812 -1.1081  0.1461 -0.1747
  138OSM    C1514905   3.458   1.689   2.837  0.1954  0.0941 -0.3134
  138OSM   H15A14906   3.471   1.790   2.799 -1.7124 -0.2460 -2.0525
  138OSM   H15B14907   3.447   1.699   2.944  0.0596  0.0515 -0.3230
  138OSM   H15C14908   3.370   1.639   2.799 -0.0824 -0.2139  0.7217
  138OSM    C1414909   3.576   1.589   2.661  0.9559 -0.2719  0.0858
  138OSM   H14A14910   3.653   1.514   2.645  1.7059  0.1586  1.4840
  138OSM   H14B14911   3.608   1.684   2.623  1.4313  1.0096  3.3284
  138OSM   H14C14912   3.480   1.569   2.616  0.6818  2.5475 -0.7229
  138OSM    C1314913   3.702   1.685   2.859 -0.0302 -0.6136  0.0187
  138OSM   H13A14914   3.710   1.693   2.966  0.8624  1.2094 -0.1428
  138OSM   H13B14915   3.697   1.779   2.806 -1.7882 -1.2090 -0.9521
  138OSM   H13C14916   3.797   1.646   2.824  0.3526 -1.3677  1.8119
  138OSM    C1214917   3.571   1.479   2.883  0.1959 -0.3885  0.3645
  138OSM   H12A14918   3.669   1.435   2.872  0.3017  0.4420 -3.2645
  138OSM   H12B14919   3.485   1.430   2.839  0.6079  0.2448 -1.2364
  138OSM    C1114920   3.548   1.471   3.034 -0.3538 -0.2773 -0.9917
  138OSM   H11A14921   3.538   1.366   3.071 -0.7815 -0.0889 -0.5650
  138OSM   H11B14922   3.449   1.512   3.063 -2.5689 -4.0393 -2.4553
  138OSM      P14923   3.784   1.438   3.135 -0.0205 -0.0000 -0.0552
  138OSM    O1314924   3.754   1.302   3.077 -0.0666  0.2671  0.0588
  138OSM    O1414925   3.903   1.508   3.073  0.9392  0.0294 -0.5396
  138OSM    O1114926   3.797   1.422   3.296 -0.1127 -0.9070  0.7391
  138OSM    O1214927   3.656   1.533   3.101  0.2834 -0.2291 -0.4707
  138OSM    C1S14928   3.694   1.367   3.378  0.3759  0.5551 -0.6220
  138OSM    H1S14929   3.672   1.264   3.344  1.3668 -0.3777  1.4257
  138OSM    H1T14930   3.598   1.423   3.367 -0.9730 -1.8591 -1.9272
  138OSM     NF14931   3.659   1.270   3.603 -0.1834  0.1070  0.4043
  138OSM    HNF14932   3.589   1.295   3.670  0.6271  1.7344  0.7048
  138OSM    C2S14933   3.731   1.368   3.522 -0.3402 -0.4842 -0.0576
  138OSM    H2S14934   3.838   1.336   3.525 -0.0238  0.6270  2.1995
  138OSM    C3S14935   3.731   1.508   3.577 -0.2397  0.4745  0.0835
  138OSM    H3S14936   3.624   1.536   3.586  0.1581  1.7214  1.1575
  138OSM     O314937   3.786   1.608   3.492  0.3356 -0.9556 -0.3689
  138OSM    HO314938   3.760   1.576   3.406 -1.3806 -1.0677  0.1617
  138OSM    C4S14939   3.802   1.502   3.710  0.4629 -0.6718  0.5877
  138OSM    H4S14940   3.908   1.479   3.693  0.9558  0.2518  2.2151
  138OSM    C5S14941   3.753   1.543   3.828  0.5708 -0.1282  0.0170
  138OSM    H5S14942   3.649   1.578   3.828  0.5475 -0.0353 -2.4137
  138OSM    C6S14943   3.826   1.542   3.957  0.1831  0.0448  0.8985
  138OSM    H6S14944   3.811   1.645   3.995 -1.7347 -0.7896  2.6462
  138OSM    H6T14945   3.931   1.507   3.944  0.2241  0.1873  0.8505
  138OSM    C7S14946   3.764   1.454   4.067 -0.3123  0.4642 -0.8748
  138OSM    H7S14947   3.758   1.347   4.038 -3.5905 -0.9647  3.8994
  138OSM    H7T14948   3.656   1.480   4.076  0.0548  1.7583  0.0942
  138OSM    C8S14949   3.840   1.471   4.199 -0.2318 -0.4906 -1.1045
  138OSM    H8S14950   3.829   1.579   4.223 -1.9003 -1.1306  1.3482
  138OSM    H8T14951   3.948   1.449   4.185 -0.2600 -1.5369  0.2328
  138OSM    C9S14952   3.781   1.398   4.320  0.0006 -0.4303 -0.0355
  138OSM    H9S14953   3.794   1.289   4.306  2.1584 -0.4211  1.3464
  138OSM    H9T14954   3.677   1.423   4.292  0.3850 -1.4542 -2.6760
  138OSM   C10S14955   3.835   1.448   4.454 -0.2645 -0.2255 -0.2361
  138OSM   H10S14956   3.834   1.558   4.465  1.4834 -0.3993  2.5138
  138OSM   H10T14957   3.942   1.418   4.458  0.1023  0.1702 -3.9256
  138OSM   C11S14958   3.746   1.386   4.561 -0.1415  0.4520 -0.8458
  138OSM   H11S14959   3.743   1.276   4.542 -0.1730  0.1324  0.8993
  138OSM   H11T14960   3.642   1.422   4.547  0.0139  1.2294 -0.0925
  138OSM   C12S14961   3.793   1.423   4.702 -0.2598  0.0522  0.9023
  138OSM   H12S14962   3.777   1.532   4.716  0.4996  0.4141 -0.8559
  138OSM   H12T14963   3.901   1.400   4.715 -0.0479 -0.2712 -1.1541
  138OSM   C13S14964   3.709   1.341   4.809  0.1587 -0.1543 -0.3840
  138OSM   H13S14965   3.706   1.234   4.782 -0.0890  0.3866 -2.7944
  138OSM   H13T14966   3.605   1.378   4.798  0.3689  0.1791 -1.4173
  138OSM   C14S14967   3.734   1.375   4.955 -0.0277  0.2577  0.1341
  138OSM   H14S14968   3.839   1.406   4.975  0.2655 -1.0178  0.7253
  138OSM   H14T14969   3.725   1.283   5.017 -1.1665 -0.7771 -1.4657
  138OSM   C15S14970   3.639   1.483   5.004 -0.1886 -0.6750 -0.0462
  138OSM   H15S14971   3.533   1.461   4.978 -0.2831  0.5712 -0.7718
  138OSM   H15T14972   3.681   1.581   4.975  0.4220 -0.8943  0.0959
  138OSM   C16S14973   3.644   1.492   5.161 -0.5756 -0.5460 -0.7553
  138OSM   H16S14974   3.747   1.525   5.186 -0.7650  0.4781 -1.2574
  138OSM   H16T14975   3.633   1.392   5.208  0.1660 -0.5793 -0.6385
  138OSM   C17S14976   3.544   1.581   5.236  0.0395 -0.3893 -0.4546
  138OSM   H17S14977   3.555   1.565   5.345  1.3087 -1.9625 -0.7742
  138OSM   H17T14978   3.443   1.542   5.212  0.1368 -0.4541 -0.7607
  138OSM   C18S14979   3.570   1.730   5.215 -0.4499  0.2160  0.1621
  138OSM   H18S14980   3.553   1.755   5.108  1.0977 -1.0958 -0.4227
  138OSM   H18T14981   3.670   1.768   5.245 -1.2918  2.3411  0.5100
  138OSM   H18U14982   3.487   1.781   5.270 -0.4064  1.3081 -0.7576
  138OSM    C1F14983   3.681   1.138   3.579  0.2890 -0.0140 -0.2723
  138OSM     OF14984   3.773   1.101   3.501 -0.2802 -0.1077 -0.1981
  138OSM    C2F14985   3.583   1.032   3.620 -0.9900 -0.4068 -0.2890
  138OSM    H2F14986   3.599   0.948   3.549  0.9303 -1.9469  1.8111
  138OSM    H2G14987   3.485   1.075   3.591 -1.5252 -0.7916  0.8841
  138OSM    C3F14988   3.591   0.979   3.768 -0.3265 -0.4997 -0.3292
  138OSM    H3F14989   3.693   0.947   3.799 -0.8552 -0.7969  1.1830
  138OSM    H3G14990   3.508   0.906   3.777 -1.3631  0.8892  3.3047
  138OSM    C4F14991   3.545   1.084   3.879 -0.3356  0.2759  0.8306
  138OSM    H4F14992   3.441   1.106   3.849  0.3160 -0.1082 -1.9543
  138OSM    H4G14993   3.606   1.176   3.867 -1.0839  0.5851 -0.7195
  138OSM    C5F14994   3.552   1.038   4.023  0.2244  0.2356  0.0822
  138OSM    H5F14995   3.660   1.016   4.036 -0.0896 -1.9885 -0.7415
  138OSM    H5G14996   3.501   0.940   4.035  0.6494 -0.2853 -1.9952
  138OSM    C6F14997   3.497   1.144   4.121 -0.6754 -0.0427 -0.2156
  138OSM    H6F14998   3.391   1.163   4.096 -0.2034  1.6349 -1.0944
  138OSM    H6G14999   3.564   1.232   4.111  1.4459 -1.6786 -1.2839
  138OSM    C7F15000   3.507   1.081   4.264 -0.3258  0.3626  1.0569
  138OSM    H7F15001   3.603   1.026   4.273 -1.0291 -0.9317  0.8767
  138OSM    H7G15002   3.440   0.993   4.266  1.5668 -1.1650 -0.1135
  138OSM    C8F15003   3.480   1.173   4.386  0.3280 -0.1950 -0.1450
  138OSM    H8F15004   3.370   1.193   4.387  0.1766 -0.5765  3.2471
  138OSM    H8G15005   3.531   1.271   4.373 -0.4807  0.3224  0.4030
  138OSM    C9F15006   3.523   1.109   4.511 -0.2518  0.3579 -0.2978
  138OSM    H9F15007   3.630   1.101   4.533 -0.7896  0.7215  2.8932
  138OSM   C10F15008   3.446   1.061   4.614  0.2469  0.8513 -0.5506
  138OSM   H10F15009   3.502   1.005   4.691 -0.1954 -1.0102 -1.5230
  138OSM   C11F15010   3.296   1.081   4.630 -0.2062  0.0409 -0.3065
  138OSM   H11F15011   3.243   0.991   4.593 -2.1332  0.4454  1.2909
  138OSM   H11G15012   3.252   1.160   4.565 -1.1789 -0.4401 -0.2538
  138OSM   C12F15013   3.240   1.105   4.773  0.1000  0.6207 -0.8979
  138OSM   H12F15014   3.258   1.017   4.838 -3.0662  2.3671  2.7334
  138OSM   H12G15015   3.129   1.113   4.768  0.1087  0.7470 -0.9031
  138OSM   C13F15016   3.300   1.223   4.852  0.2680 -0.2921 -0.7730
  138OSM   H13F15017   3.290   1.317   4.793  0.1087 -1.2617 -2.3489
  138OSM   H13G15018   3.410   1.210   4.864  0.4299  0.3108 -1.4674
  138OSM   C14F15019   3.234   1.241   4.986 -0.0153  0.0421 -0.3206
  138OSM   H14F15020   3.135   1.273   4.947 -0.3049 -0.9062 -0.4015
  138OSM   H14G15021   3.274   1.327   5.044  2.2632 -2.1083  1.5272
  138OSM   C15F15022   3.212   1.119   5.073 -0.7804 -0.5310 -0.7056
  138OSM   H15F15023   3.144   1.046   5.024 -3.0364  0.1279  1.2779
  138OSM   H15G15024   3.163   1.157   5.164  2.6562  0.1908  1.0214
  138OSM   C16F15025   3.340   1.046   5.105 -0.4336  0.2868  1.1003
  138OSM   H16F15026   3.376   0.992   5.015 -2.3394  0.4229  0.2022
  138OSM   H16G15027   3.319   0.973   5.187  2.2121 -2.2018 -0.2445
  138OSM   C17F15028   3.461   1.123   5.155  0.6075 -0.4100 -0.2030
  138OSM   H17F15029   3.488   1.209   5.090  0.0404 -0.4300 -0.4716
  138OSM   H17G15030   3.544   1.049   5.150  1.4262  0.4659  0.0157
  138OSM   C18F15031   3.429   1.178   5.291 -0.8761 -0.0304  0.7203
  138OSM   H18F15032   3.325   1.211   5.313 -1.6917 -0.4130 -2.0886
  138OSM   H18G15033   3.497   1.264   5.314 -1.4500  0.8171 -0.6130
  138OSM   H18H15034   3.457   1.104   5.368  0.7051 -1.7893 -1.4330
  139OSM      N15035   4.942   5.462   2.871 -1.2478 -0.0720  0.6579
  139OSM    C1515036   4.932   5.590   2.798  0.1313 -0.5722  0.7514
  139OSM   H15A15037   5.000   5.666   2.834 -1.0763  0.2837  1.2976
  139OSM   H15B15038   4.837   5.639   2.812  0.1078 -0.6586  0.8951
  139OSM   H15C15039   4.937   5.565   2.693  0.9773 -1.8606  1.0755
  139OSM    C1415040   4.807   5.411   2.867 -0.1646 -0.3821  0.2395
  139OSM   H14A15041   4.779   5.424   2.764 -3.0385  1.8170  1.1523
  139OSM   H14B15042   4.753   5.481   2.930  2.0917  1.1381  0.5747
  139OSM   H14C15043   4.797   5.313   2.912  0.0033 -1.1309 -1.2813
  139OSM    C1315044   5.037   5.376   2.807 -0.0405  0.9077  0.5279
  139OSM   H13A15045   5.019   5.332   2.710 -3.2931  1.0364  0.9653
  139OSM   H13B15046   5.043   5.293   2.875  1.3368  2.5105  2.4793
  139OSM   H13C15047   5.133   5.423   2.794 -1.0016  2.5918 -1.1865
  139OSM    C1215048   4.980   5.489   3.017 -0.0622  0.6075 -1.1983
  139OSM   H12A15049   4.903   5.552   3.058  0.0283 -0.2516  0.3539
  139OSM   H12B15050   5.071   5.546   3.019  0.4671 -0.2505 -0.3408
  139OSM    C1115051   5.001   5.360   3.112  0.6847  0.3224  0.5614
  139OSM   H11A15052   4.912   5.294   3.104  2.1553 -2.0340  2.2010
  139OSM   H11B15053   5.010   5.396   3.217  1.2345  2.1411 -0.0879
  139OSM      P15054   5.261   5.362   3.112  0.0897 -0.1861  0.5518
  139OSM    O1315055   5.354   5.332   3.003 -0.1077 -0.6439 -0.4026
  139OSM    O1415056   5.241   5.508   3.154  0.4581  0.0221  0.0201
  139OSM    O1115057   5.293   5.276   3.242  0.2048  0.2265  0.4101
  139OSM    O1215058   5.120   5.297   3.072 -0.5019 -0.3159  0.2274
  139OSM    C1S15059   5.208   5.267   3.360  0.7334  0.0557  0.9065
  139OSM    H1S15060   5.129   5.190   3.348  0.3452  0.1280  2.7022
  139OSM    H1T15061   5.157   5.364   3.382  1.8660  0.9292 -0.1455
  139OSM     NF15062   5.205   5.232   3.606  0.2462  0.1449  1.3761
  139OSM    HNF15063   5.203   5.314   3.663  0.5227  1.2298 -0.1022
  139OSM    C2S15064   5.293   5.242   3.489  0.0943  0.3405 -0.6321
  139OSM    H2S15065   5.333   5.138   3.483  3.7333  1.4900  0.9079
  139OSM    C3S15066   5.404   5.351   3.507  1.0689  0.2779  0.1996
  139OSM    H3S15067   5.355   5.449   3.520 -0.7958 -0.5740 -0.1562
  139OSM     O315068   5.493   5.362   3.393 -0.0950  0.5360  0.4030
  139OSM    HO315069   5.455   5.303   3.328 -0.4832  1.4409 -0.2108
  139OSM    C4S15070   5.497   5.327   3.615 -0.0926 -0.1662 -0.0560
  139OSM    H4S15071   5.536   5.224   3.615 -0.1804 -0.2175 -1.3514
  139OSM    C5S15072   5.539   5.421   3.700 -0.0395  0.1015 -0.0479
  139OSM    H5S15073   5.509   5.526   3.685 -1.9616 -0.5065 -0.8129
  139OSM    C6S15074   5.654   5.401   3.797 -0.6546  0.0102 -0.0885
  139OSM    H6S15075   5.752   5.438   3.763  0.0330 -1.6959 -0.0793
  139OSM    H6T15076   5.674   5.294   3.821 -0.3071 -0.0142 -0.4688
  139OSM    C7S15077   5.608   5.466   3.935 -0.3157 -0.3652 -0.1731
  139OSM    H7S15078   5.506   5.435   3.965  0.2815  0.3015  2.9704
  139OSM    H7T15079   5.624   5.574   3.912 -0.3593  0.1134  1.7997
  139OSM    C8S15080   5.683   5.405   4.051 -0.2544  0.4667  0.3413
  139OSM    H8S15081   5.788   5.410   4.013 -0.8386  1.0638 -1.2896
  139OSM    H8T15082   5.644   5.302   4.067 -2.0678  1.2432  1.1488
  139OSM    C9S15083   5.665   5.478   4.186  0.2604 -0.4596  0.9438
  139OSM    H9S15084   5.558   5.475   4.217 -1.0781  0.6993 -3.0585
  139OSM    H9T15085   5.695   5.584   4.181 -0.5704 -0.2784 -0.9303
  139OSM   C10S15086   5.742   5.410   4.297  0.0694 -0.1468  0.0148
  139OSM   H10S15087   5.852   5.404   4.292  0.2020  0.5690  1.4771
  139OSM   H10T15088   5.720   5.302   4.306  1.6957 -0.3830  1.5640
  139OSM   C11S15089   5.725   5.479   4.437  0.5667 -1.0066  0.7287
  139OSM   H11S15090   5.617   5.495   4.458  1.0785 -0.2543  3.1579
  139OSM   H11T15091   5.775   5.579   4.434  0.0335 -0.7047  1.5105
  139OSM   C12S15092   5.773   5.386   4.544  0.1655 -0.7988 -0.3884
  139OSM   H12S15093   5.879   5.362   4.523 -0.2667 -2.3941 -0.9129
  139OSM   H12T15094   5.707   5.297   4.534  0.4998 -0.9506 -1.3577
  139OSM   C13S15095   5.775   5.442   4.689 -0.6378  0.1954  0.2172
  139OSM   H13S15096   5.818   5.545   4.694  0.2398  0.0751 -2.7434
  139OSM   H13T15097   5.840   5.371   4.744  0.0400 -1.9373 -3.0708
  139OSM   C14S15098   5.638   5.451   4.764  0.1545  0.3056 -0.4805
  139OSM   H14S15099   5.617   5.342   4.758  2.4332 -0.1662 -0.9759
  139OSM   H14T15100   5.573   5.505   4.692 -0.6746 -1.1223 -0.8568
  139OSM   C15S15101   5.652   5.507   4.906 -0.0525  0.2899  0.1335
  139OSM   H15S15102   5.709   5.601   4.897  2.1299 -0.8999  0.8211
  139OSM   H15T15103   5.717   5.443   4.969 -0.8847 -0.7706 -0.0398
  139OSM   C16S15104   5.513   5.532   4.984  0.1346 -1.0328 -0.5163
  139OSM   H16S15105   5.463   5.433   4.989 -0.7986 -0.5217  1.7855
  139OSM   H16T15106   5.457   5.610   4.929 -1.0615 -0.5030  1.3801
  139OSM   C17S15107   5.514   5.587   5.130 -0.0250 -0.1428 -0.0987
  139OSM   H17S15108   5.406   5.590   5.156 -0.2094 -2.1287 -0.5036
  139OSM   H17T15109   5.567   5.684   5.140  0.6128 -0.6587  2.0684
  139OSM   C18S15110   5.597   5.501   5.234 -0.0535  0.6590  0.2313
  139OSM   H18S15111   5.701   5.497   5.196  0.4548  1.1621  1.5291
  139OSM   H18T15112   5.548   5.403   5.250 -1.6423  1.6779  1.9951
  139OSM   H18U15113   5.605   5.549   5.334  0.6260  0.2445  0.3844
  139OSM    C1F15114   5.118   5.132   3.622 -0.6420 -0.7235  0.4857
  139OSM     OF15115   5.107   5.039   3.536  0.4574  0.5209  0.6369
  139OSM    C2F15116   5.034   5.135   3.752  0.0639  0.5500  0.8427
  139OSM    H2F15117   4.937   5.180   3.722 -0.4894 -1.2669 -0.2478
  139OSM    H2G15118   5.086   5.197   3.828  1.1653  0.7653 -0.0565
  139OSM    C3F15119   5.015   4.992   3.806  0.0131 -0.3792  0.2411
  139OSM    H3F15120   5.110   4.944   3.839 -1.0422 -1.4847  1.8070
  139OSM    H3G15121   4.963   4.928   3.732  0.4892 -0.1201 -0.3303
  139OSM    C4F15122   4.926   4.983   3.925  0.3703  0.3284 -0.4730
  139OSM    H4F15123   4.932   4.884   3.976  1.1278  1.1300  1.0702
  139OSM    H4G15124   4.817   4.987   3.900  0.7912  1.5819 -2.2950
  139OSM    C5F15125   4.944   5.078   4.043 -0.3663 -0.1476  0.6382
  139OSM    H5F15126   4.949   5.179   3.997  1.6993 -1.3276 -2.0207
  139OSM    H5G15127   5.039   5.055   4.095  1.4404  1.1651 -1.8589
  139OSM    C6F15128   4.843   5.092   4.155 -0.6292  0.0657 -0.8364
  139OSM    H6F15129   4.752   5.142   4.114 -0.0270  1.9908  0.0767
  139OSM    H6G15130   4.886   5.145   4.242  0.3791 -2.4973  0.3194
  139OSM    C7F15131   4.808   4.955   4.209  0.7298  0.3438  0.6601
  139OSM    H7F15132   4.909   4.914   4.233  1.0582  0.3295 -0.6278
  139OSM    H7G15133   4.777   4.882   4.130  0.1525  1.5609 -0.2715
  139OSM    C8F15134   4.725   4.960   4.335  0.5807  0.4329  1.0875
  139OSM    H8F15135   4.625   5.003   4.315 -1.2393 -2.8316  2.4562
  139OSM    H8G15136   4.766   5.038   4.404 -0.5512  1.6063  0.4838
  139OSM    C9F15137   4.715   4.826   4.397  0.5636 -0.2891  0.0601
  139OSM    H9F15138   4.686   4.746   4.327 -2.5194  0.1432  0.6942
  139OSM   C10F15139   4.706   4.803   4.533 -0.1439 -0.6738  0.4749
  139OSM   H10F15140   4.696   4.704   4.579  0.0580 -0.4059  1.0941
  139OSM   C11F15141   4.739   4.906   4.637  0.0240  0.0634 -0.7483
  139OSM   H11F15142   4.669   4.992   4.632  2.2748  1.9679 -0.9287
  139OSM   H11G15143   4.843   4.945   4.633 -0.8493  2.5750 -0.3783
  139OSM   C12F15144   4.724   4.839   4.773 -0.3657 -0.6367 -0.2300
  139OSM   H12F15145   4.815   4.775   4.777 -0.6835 -1.0465  0.9093
  139OSM   H12G15146   4.637   4.773   4.790  0.6762 -1.7337  1.0704
  139OSM   C13F15147   4.726   4.946   4.893  0.3028 -0.3466 -0.8014
  139OSM   H13F15148   4.627   4.991   4.916 -0.4295 -1.7544 -1.0626
  139OSM   H13G15149   4.797   5.021   4.854  1.1243  0.1339  1.4796
  139OSM   C14F15150   4.776   4.892   5.025 -0.1447  0.4403  0.3589
  139OSM   H14F15151   4.816   4.975   5.087  0.3490  0.7498 -0.3640
  139OSM   H14G15152   4.853   4.820   4.988 -0.1278  0.2822  0.7012
  139OSM   C15F15153   4.660   4.831   5.101 -0.1580 -0.6941  0.7589
  139OSM   H15F15154   4.591   4.778   5.031 -0.7869  0.9644  0.0628
  139OSM   H15G15155   4.595   4.909   5.148  0.5322  0.0678  0.4757
  139OSM   C16F15156   4.706   4.727   5.204 -0.4034  0.1229 -0.0493
  139OSM   H16F15157   4.783   4.787   5.257 -0.0392  0.6684 -1.1728
  139OSM   H16G15158   4.761   4.647   5.151 -2.9836 -2.3032  0.6720
  139OSM   C17F15159   4.617   4.669   5.309 -0.3632 -0.3668 -0.1403
  139OSM   H17F15160   4.580   4.756   5.367  0.5205  2.0475 -2.9307
  139OSM   H17G15161   4.678   4.605   5.377 -0.4497  0.4336  0.7202
  139OSM   C18F15162   4.503   4.590   5.247  0.1580  0.5745  0.5597
  139OSM   H18F15163   4.424   4.579   5.325 -0.2062  3.8445  0.7838
  139OSM   H18G15164   4.552   4.497   5.209 -0.8209 -0.3145  1.3899
  139OSM   H18H15165   4.451   4.640   5.164 -1.2517 -1.0574  0.4166
  140OSM      N15166   4.160   3.330   3.015  0.1471 -0.1216 -0.0095
  140OSM    C1515167   4.128   3.322   2.868  0.5931 -0.1315 -0.9247
  140OSM   H15A15168   4.215   3.332   2.805 -0.1543 -3.2150 -2.6536
  140OSM   H15B15169   4.067   3.409   2.847  0.0100 -0.8380 -2.3280
  140OSM   H15C15170   4.076   3.229   2.846 -0.6519  0.9129 -2.5950
  140OSM    C1415171   4.282   3.248   3.029 -0.0721 -0.6509  0.5090
  140OSM   H14A15172   4.361   3.296   2.973 -0.6158  0.5536  0.7443
  140OSM   H14B15173   4.273   3.149   2.985  1.5918 -0.1014 -1.1926
  140OSM   H14C15174   4.332   3.243   3.125  2.9588  0.3258 -0.9087
  140OSM    C1315175   4.193   3.467   3.049  1.0931  0.1079 -0.0508
  140OSM   H13A15176   4.109   3.524   3.014  1.1832 -0.1953 -0.7713
  140OSM   H13B15177   4.284   3.505   3.005 -0.1077  0.7972 -2.0541
  140OSM   H13C15178   4.201   3.478   3.157  3.1936 -1.9378  0.0839
  140OSM    C1215179   4.042   3.271   3.091  0.1178  0.2137 -0.1905
  140OSM   H12A15180   4.065   3.271   3.197 -0.1546 -1.4036 -0.0957
  140OSM   H12B15181   4.023   3.167   3.068  0.1095 -0.1193  1.2205
  140OSM    C1115182   3.907   3.340   3.083  0.1455 -0.9766 -0.3438
  140OSM   H11A15183   3.830   3.287   3.143  0.1657  2.8100  3.6282
  140OSM   H11B15184   3.872   3.353   2.979 -0.8976 -0.6234  0.0330
  140OSM      P15185   3.842   3.595   3.112  0.2247  0.2235  0.3046
  140OSM    O1315186   3.904   3.719   3.150  0.0780  0.2524 -0.2959
  140OSM    O1415187   3.803   3.595   2.966 -0.5883  0.1662 -1.0375
  140OSM    O1115188   3.709   3.567   3.199 -0.0750 -0.6376 -0.8833
  140OSM    O1215189   3.929   3.469   3.145 -0.3878 -0.2390 -0.1074
  140OSM    C1S15190   3.709   3.481   3.318 -0.1774  0.9394  0.6427
  140OSM    H1S15191   3.804   3.425   3.330 -0.3415  0.1242 -1.4112
  140OSM    H1T15192   3.623   3.411   3.308  0.2867  0.6496 -1.7627
  140OSM     NF15193   3.709   3.461   3.570 -0.1821  0.2310  0.0962
  140OSM    HNF15194   3.636   3.418   3.624  0.7654 -0.2311  1.0460
  140OSM    C2S15195   3.684   3.556   3.460 -0.3428  0.4791 -0.0504
  140OSM    H2S15196   3.757   3.639   3.463  1.5467 -1.1241  2.2572
  140OSM    C3S15197   3.543   3.621   3.458 -0.2253 -0.2702  0.8520
  140OSM    H3S15198   3.477   3.547   3.408 -0.0861 -0.6841  1.2765
  140OSM     O315199   3.530   3.730   3.354  0.0943 -0.0303  0.2612
  140OSM    HO315200   3.593   3.707   3.285 -0.1865  0.4748 -0.1643
  140OSM    C4S15201   3.493   3.663   3.597  0.0723  0.9953 -0.2274
  140OSM    H4S15202   3.441   3.576   3.638  0.2619  0.5867 -0.8384
  140OSM    C5S15203   3.493   3.785   3.653  0.2834  0.2318  0.2561
  140OSM    H5S15204   3.541   3.869   3.601 -0.4321  0.0253 -0.7605
  140OSM    C6S15205   3.431   3.807   3.790 -0.6880 -0.0981  0.6465
  140OSM    H6S15206   3.495   3.860   3.863 -0.4886  0.2938  0.2007
  140OSM    H6T15207   3.404   3.710   3.836  0.4581 -0.5591  0.3789
  140OSM    C7S15208   3.302   3.895   3.792  0.4354  0.1750  0.5434
  140OSM    H7S15209   3.221   3.847   3.734  0.4347 -1.2562  1.6656
  140OSM    H7T15210   3.321   3.988   3.734  0.5249 -0.0360  0.2303
  140OSM    C8S15211   3.265   3.920   3.942  0.5110  0.3986  0.6284
  140OSM    H8S15212   3.235   4.025   3.960 -0.9491  0.3300 -1.1151
  140OSM    H8T15213   3.357   3.902   4.000 -0.3133  1.7480  2.4342
  140OSM    C9S15214   3.164   3.818   4.003 -0.2617 -0.1711 -0.2789
  140OSM    H9S15215   3.191   3.725   3.949  2.3007 -0.4305  1.2813
  140OSM    H9T15216   3.062   3.854   3.978 -0.3478 -0.1774  0.0635
  140OSM   C10S15217   3.178   3.811   4.152  0.0057  0.4770  0.8036
  140OSM   H10S15218   3.282   3.793   4.187 -0.1201  1.7491  1.9127
  140OSM   H10T15219   3.118   3.723   4.186  1.1887 -1.4559 -1.7972
  140OSM   C11S15220   3.115   3.926   4.228  0.1255 -0.5245 -0.0627
  140OSM   H11S15221   3.030   3.969   4.172  0.2536  1.6337  1.2663
  140OSM   H11T15222   3.192   4.007   4.224 -0.8393  0.6067  2.2203
  140OSM   C12S15223   3.089   3.895   4.377 -0.1056 -0.0020 -0.6076
  140OSM   H12S15224   2.993   3.839   4.381 -1.2479  1.9055 -0.3245
  140OSM   H12T15225   3.080   3.984   4.442 -1.0352 -0.9029  0.5244
  140OSM   C13S15226   3.193   3.794   4.439 -0.5069  0.5335  0.2040
  140OSM   H13S15227   3.294   3.824   4.403 -0.1920 -0.4418  0.2649
  140OSM   H13T15228   3.168   3.692   4.405  0.3053  0.0713  0.9528
  140OSM   C14S15229   3.201   3.792   4.591  0.0285 -0.4831 -0.5497
  140OSM   H14S15230   3.229   3.891   4.633 -0.5509  0.3128 -1.9583
  140OSM   H14T15231   3.276   3.716   4.623  0.7353  0.9713  1.4167
  140OSM   C15S15232   3.060   3.757   4.650 -0.1813 -0.2961  0.5925
  140OSM   H15S15233   3.016   3.674   4.590 -1.4758  1.4836 -1.0415
  140OSM   H15T15234   2.988   3.838   4.626  0.9667  0.8099  0.7870
  140OSM   C16S15235   3.052   3.735   4.803  0.6324  0.7928  0.1574
  140OSM   H16S15236   3.093   3.822   4.858  0.0743  0.7362  0.6676
  140OSM   H16T15237   3.124   3.652   4.818 -0.3218 -0.2564 -0.7981
  140OSM   C17S15238   2.905   3.694   4.842  0.0805  0.5915  0.1817
  140OSM   H17S15239   2.877   3.602   4.787  1.0411  0.4650 -0.1178
  140OSM   H17T15240   2.848   3.782   4.807  1.1852  0.7032 -1.4468
  140OSM   C18S15241   2.899   3.674   4.997 -0.2830 -0.5811  1.2866
  140OSM   H18S15242   2.897   3.773   5.048 -0.6667  0.7031 -1.0694
  140OSM   H18T15243   2.986   3.610   5.025  0.7446  0.7689  1.2647
  140OSM   H18U15244   2.805   3.619   5.019 -0.8878  0.2883  0.8940
  140OSM    C1F15245   3.831   3.422   3.599 -0.1808  0.1795  0.5404
  140OSM     OF15246   3.940   3.472   3.563  1.0911 -0.2831 -0.1733
  140OSM    C2F15247   3.844   3.301   3.684 -0.0926 -0.2940  0.0778
  140OSM    H2F15248   3.792   3.227   3.621 -1.4806  0.5500  0.1793
  140OSM    H2G15249   3.793   3.325   3.780  0.6750  2.6550 -0.1349
  140OSM    C3F15250   3.989   3.261   3.720  0.3482  0.4814  0.2353
  140OSM    H3F15251   4.032   3.353   3.765 -1.3776  0.6720  1.5674
  140OSM    H3G15252   4.037   3.233   3.624 -0.2382 -0.9659  0.3530
  140OSM    C4F15253   4.009   3.152   3.832  0.4196 -0.3979  0.2662
  140OSM    H4F15254   4.119   3.146   3.846  0.4859  0.5609  0.2229
  140OSM    H4G15255   3.983   3.052   3.792 -2.5042  0.5358 -0.3998
  140OSM    C5F15256   3.935   3.180   3.957 -0.1273  0.1883  0.1651
  140OSM    H5F15257   3.826   3.165   3.940 -0.2812  2.1992 -0.8216
  140OSM    H5G15258   3.943   3.281   4.002  0.7218  1.4610 -2.6455
  140OSM    C6F15259   3.990   3.096   4.075  0.3548  0.3270  0.0490
  140OSM    H6F15260   4.083   3.132   4.124  1.4755 -1.5222 -0.5958
  140OSM    H6G15261   4.005   2.987   4.058 -1.6349  0.4304 -3.1392
  140OSM    C7F15262   3.888   3.091   4.186  0.4531  0.5460  0.3692
  140OSM    H7F15263   3.803   3.031   4.147  0.6886  0.3264  0.1891
  140OSM    H7G15264   3.844   3.192   4.196 -0.7303  0.2564 -1.4136
  140OSM    C8F15265   3.937   3.024   4.316 -0.2596  0.0777  0.2246
  140OSM    H8F15266   4.008   3.100   4.356  2.2183 -1.1617 -1.5572
  140OSM    H8G15267   3.996   2.931   4.303 -0.7966 -0.4139  1.1865
  140OSM    C9F15268   3.829   2.995   4.417 -0.1228  0.8813  0.8459
  140OSM    H9F15269   3.791   2.894   4.397 -0.6032  1.0590  0.8426
  140OSM   C10F15270   3.802   3.057   4.533 -0.6531  0.6668 -0.4595
  140OSM   H10F15271   3.713   3.035   4.594  0.0355  1.4932  0.8935
  140OSM   C11F15272   3.872   3.185   4.579 -0.8828  0.1631 -0.0076
  140OSM   H11F15273   3.862   3.266   4.504  0.2487  0.0558 -0.3012
  140OSM   H11G15274   3.980   3.163   4.600 -0.5566  0.4632 -1.2853
  140OSM   C12F15275   3.818   3.239   4.707  0.4872  0.1148 -0.5850
  140OSM   H12F15276   3.712   3.268   4.688 -0.3372 -1.4335  1.3168
  140OSM   H12G15277   3.860   3.339   4.735 -2.4541  1.5655 -0.9275
  140OSM   C13F15278   3.832   3.143   4.829 -0.2769 -0.5549 -0.2384
  140OSM   H13F15279   3.932   3.095   4.826  0.0838  0.1841 -0.4164
  140OSM   H13G15280   3.758   3.063   4.811 -1.6297  0.6996 -0.4976
  140OSM   C14F15281   3.818   3.224   4.962 -0.1882 -0.0222 -0.7493
  140OSM   H14F15282   3.712   3.253   4.980  0.0531  0.8642 -0.7236
  140OSM   H14G15283   3.874   3.318   4.950  0.5382 -0.4436 -0.7351
  140OSM   C15F15284   3.870   3.147   5.080  0.6460  0.2365 -0.4063
  140OSM   H15F15285   3.975   3.111   5.070  0.6002 -0.4093  1.1680
  140OSM   H15G15286   3.812   3.052   5.088 -0.4054  0.9804  1.2381
  140OSM   C16F15287   3.863   3.227   5.211 -0.4550  0.3135  0.0036
  140OSM   H16F15288   3.756   3.250   5.231 -0.7508 -0.7798 -0.2588
  140OSM   H16G15289   3.925   3.319   5.208  1.7256 -0.9524  2.2457
  140OSM   C17F15290   3.911   3.150   5.338  0.3537 -0.6031 -0.5095
  140OSM   H17F15291   4.020   3.131   5.324  0.1063 -2.9187  0.3160
  140OSM   H17G15292   3.860   3.057   5.369  1.0579 -0.0912  2.4255
  140OSM   C18F15293   3.891   3.228   5.472 -0.1720  0.3229 -0.3403
  140OSM   H18F15294   3.890   3.152   5.553  0.6650 -0.5981 -1.1639
  140OSM   H18G15295   3.784   3.258   5.477 -0.4216 -0.5489 -0.3472
  140OSM   H18H15296   3.943   3.325   5.479  1.8783 -0.5779 -2.0295
  141OSM      N15297   5.779   5.348   3.031 -0.3460  0.1032 -0.0031
  141OSM    C1515298   5.894   5.277   2.990 -0.4583  0.6790 -0.0343
  141OSM   H15A15299   5.887   5.228   2.894  0.7514 -1.2236  0.7911
  141OSM   H15B15300   5.911   5.196   3.060  0.3829  0.5923 -0.3190
  141OSM   H15C15301   5.981   5.341   2.982 -0.7264  0.9024 -1.5334
  141OSM    C1415302   5.666   5.251   3.050  0.0397  0.5326  0.5211
  141OSM   H14A15303   5.683   5.168   3.118  1.9199 -0.7026 -1.3418
  141OSM   H14B15304   5.642   5.198   2.959  0.9090 -1.4452  1.3696
  141OSM   H14C15305   5.570   5.297   3.067 -0.3462  0.4512 -1.2781
  141OSM    C1315306   5.827   5.418   3.159  0.1631 -0.0971  0.1372
  141OSM   H13A15307   5.736   5.461   3.197 -0.0219 -0.4685  0.1182
  141OSM   H13B15308   5.906   5.491   3.150  1.3475 -1.1480  1.5768
  141OSM   H13C15309   5.856   5.349   3.237 -2.5264  1.5957  2.8366
  141OSM    C1215310   5.743   5.457   2.924 -0.0880 -0.2927 -0.0060
  141OSM   H12A15311   5.656   5.513   2.954 -0.1304 -0.1585 -0.3778
  141OSM   H12B15312   5.716   5.402   2.835  2.4136 -1.8049  0.0638
  141OSM    C1115313   5.845   5.570   2.901 -0.6717 -0.0983  0.9335
  141OSM   H11A15314   5.818   5.621   2.806  3.0988  0.2061 -0.1463
  141OSM   H11B15315   5.942   5.521   2.875  0.5837  2.0156  1.4526
  141OSM      P15316   5.998   5.742   3.033 -0.0304 -0.0076 -0.5483
  141OSM    O1315317   6.111   5.647   3.058 -0.0582  0.1853  0.1378
  141OSM    O1415318   6.015   5.842   2.927  0.3756 -0.0464 -0.5461
  141OSM    O1115319   5.973   5.838   3.155  0.1561  0.8232 -0.5689
  141OSM    O1215320   5.861   5.661   3.008  0.1206 -0.1201 -0.2528
  141OSM    C1S15321   5.937   5.787   3.286  0.4613 -0.8409 -0.0552
  141OSM    H1S15322   5.967   5.681   3.302  0.8662 -0.3880  2.7457
  141OSM    H1T15323   5.827   5.784   3.300  0.4798  1.7069  1.2224
  141OSM     NF15324   5.972   5.809   3.538  0.1349 -0.0333  0.5544
  141OSM    HNF15325   5.927   5.865   3.608 -0.1682  1.0632 -0.4831
  141OSM    C2S15326   5.996   5.873   3.407 -0.3808  0.1558 -0.4912
  141OSM    H2S15327   6.105   5.878   3.387 -0.3412 -0.4397 -0.4391
  141OSM    C3S15328   5.955   6.025   3.396  0.0466 -0.3056  0.2266
  141OSM    H3S15329   5.845   6.037   3.402  0.2862  1.7688  2.4967
  141OSM     O315330   5.985   6.082   3.272 -0.3856  0.5257 -0.4801
  141OSM    HO315331   5.995   6.009   3.210 -0.0292 -0.5332  0.7803
  141OSM    C4S15332   6.025   6.113   3.494 -0.2650  0.3336  0.4152
  141OSM    H4S15333   5.960   6.111   3.583 -2.0378 -3.4783 -0.7113
  141OSM    C5S15334   6.148   6.182   3.479  0.9812 -0.2549 -0.6730
  141OSM    H5S15335   6.211   6.174   3.389 -1.3442  2.5769 -2.8011
  141OSM    C6S15336   6.203   6.261   3.597  0.2134 -0.0118  0.9386
  141OSM    H6S15337   6.209   6.368   3.571  0.4219  0.0541  1.2493
  141OSM    H6T15338   6.306   6.229   3.624  0.7264  0.1031 -0.7616
  141OSM    C7S15339   6.116   6.248   3.728 -0.0373 -0.1632 -0.7432
  141OSM    H7S15340   6.121   6.141   3.759  1.1216 -1.1472 -3.9209
  141OSM    H7T15341   6.009   6.276   3.713 -0.7621 -0.4860  2.8776
  141OSM    C8S15342   6.174   6.324   3.839 -1.1725  1.0310 -0.3179
  141OSM    H8S15343   6.167   6.434   3.827  0.0472  1.1628  0.0822
  141OSM    H8T15344   6.282   6.302   3.847 -0.8801  1.5811 -2.2633
  141OSM    C9S15345   6.120   6.279   3.973  0.1480  0.4507 -0.1996
  141OSM    H9S15346   6.147   6.173   3.989 -1.9716 -0.1159 -0.1174
  141OSM    H9T15347   6.010   6.288   3.969  0.2497  2.3719  0.2526
  141OSM   C10S15348   6.182   6.362   4.085 -0.3757  0.5909  0.0798
  141OSM   H10S15349   6.156   6.468   4.065  1.8363  0.8390 -1.9126
  141OSM   H10T15350   6.293   6.362   4.094 -0.4561 -2.6187  2.7669
  141OSM   C11S15351   6.139   6.306   4.221  0.2641  0.6449 -0.3268
  141OSM   H11S15352   6.168   6.199   4.211  1.6723  1.2018 -3.1823
  141OSM   H11T15353   6.029   6.309   4.235  0.0270 -1.6819 -1.2207
  141OSM   C12S15354   6.192   6.361   4.356  0.6374  1.0123  0.0829
  141OSM   H12S15355   6.166   6.469   4.352 -3.3835  0.1939  0.3223
  141OSM   H12T15356   6.299   6.337   4.337  0.4970 -0.6341  1.2296
  141OSM   C13S15357   6.144   6.280   4.480 -0.2238 -0.5047 -0.2995
  141OSM   H13S15358   6.196   6.182   4.485  1.3080  0.2227 -1.2246
  141OSM   H13T15359   6.034   6.260   4.481 -0.1525 -0.9869 -1.2342
  141OSM   C14S15360   6.160   6.372   4.614  0.4506 -0.3438  0.2370
  141OSM   H14S15361   6.087   6.455   4.612  0.0724 -0.5874  2.1035
  141OSM   H14T15362   6.259   6.421   4.624  0.7573 -1.2842  2.5059
  141OSM   C15S15363   6.130   6.290   4.738  0.0838  0.0932 -0.4047
  141OSM   H15S15364   6.206   6.211   4.754 -1.5592 -1.4874 -0.1635
  141OSM   H15T15365   6.035   6.240   4.710 -0.9675  0.4278  2.2398
  141OSM   C16S15366   6.116   6.374   4.867 -0.6655  0.9237 -0.3812
  141OSM   H16S15367   6.038   6.453   4.858  0.5468  2.0454 -1.4986
  141OSM   H16T15368   6.210   6.428   4.895  1.0665 -1.6317 -0.9683
  141OSM   C17S15369   6.076   6.285   4.989 -0.2317 -0.1620  0.1735
  141OSM   H17S15370   6.157   6.211   5.003 -0.7953 -0.7480  0.3494
  141OSM   H17T15371   5.982   6.233   4.961  0.4392 -1.1415 -0.3284
  141OSM   C18S15372   6.064   6.360   5.119  0.7895  0.1305  0.0241
  141OSM   H18S15373   6.013   6.278   5.173 -1.1607  0.7646 -0.7609
  141OSM   H18T15374   5.990   6.442   5.106 -0.3814 -1.0913 -1.5796
  141OSM   H18U15375   6.162   6.392   5.160  1.3621  0.6782 -1.6629
  141OSM    C1F15376   6.035   5.696   3.570  0.0307  0.7963  0.1101
  141OSM     OF15377   6.139   5.655   3.511 -0.3059 -0.4146  0.2683
  141OSM    C2F15378   5.977   5.612   3.694 -1.0125  0.9111  0.3627
  141OSM    H2F15379   5.958   5.509   3.659  2.0023  0.3728  0.0192
  141OSM    H2G15380   5.884   5.655   3.737 -0.6362  2.1310 -0.0033
  141OSM    C3F15381   6.093   5.601   3.798  0.2089 -0.4122 -0.0493
  141OSM    H3F15382   6.152   5.695   3.802 -2.8318  1.7939 -2.4471
  141OSM    H3G15383   6.165   5.524   3.763  0.4944 -0.1654 -0.0090
  141OSM    C4F15384   6.038   5.563   3.937  0.1875  0.0762  0.8722
  141OSM    H4F15385   6.012   5.455   3.933  2.5529 -0.5108  0.1381
  141OSM    H4G15386   5.939   5.610   3.955 -0.7479 -1.7971  0.8558
  141OSM    C5F15387   6.141   5.580   4.050  0.6885  0.3291  0.5187
  141OSM    H5F15388   6.189   5.679   4.041  0.8735  0.0424 -3.5522
  141OSM    H5G15389   6.226   5.508   4.045  1.2174  1.0486 -1.5566
  141OSM    C6F15390   6.076   5.575   4.188  0.8144 -0.2506 -0.2462
  141OSM    H6F15391   6.031   5.474   4.199  1.6065 -0.5886 -0.0474
  141OSM    H6G15392   5.991   5.646   4.182 -0.2037 -1.4483 -0.6978
  141OSM    C7F15393   6.163   5.612   4.308 -0.6304  0.2977 -0.4911
  141OSM    H7F15394   6.094   5.618   4.395 -0.0956 -0.3792 -0.0194
  141OSM    H7G15395   6.215   5.710   4.293 -0.3944 -0.1064 -2.5339
  141OSM    C8F15396   6.270   5.501   4.350  0.1287  0.5212 -0.0971
  141OSM    H8F15397   6.347   5.540   4.420  0.6977 -3.0844  1.5271
  141OSM    H8G15398   6.322   5.469   4.257  0.5416  0.8978 -0.0014
  141OSM    C9F15399   6.200   5.377   4.410  0.2588  0.1550 -0.1341
  141OSM    H9F15400   6.120   5.330   4.352 -0.2158  0.1759  0.4839
  141OSM   C10F15401   6.212   5.330   4.537 -0.4491 -0.4961  0.6307
  141OSM   H10F15402   6.149   5.247   4.572  1.3710 -2.0916  0.2645
  141OSM   C11F15403   6.316   5.382   4.633 -0.2322  0.0164 -0.4808
  141OSM   H11F15404   6.412   5.404   4.581 -0.0599  0.8028  0.1707
  141OSM   H11G15405   6.338   5.306   4.711  1.9335  1.2940  0.2257
  141OSM   C12F15406   6.271   5.515   4.695  0.3255 -0.7968  0.3670
  141OSM   H12F15407   6.226   5.577   4.615  0.4169 -1.5621 -0.2871
  141OSM   H12G15408   6.361   5.575   4.723 -0.9000  1.6693 -0.6769
  141OSM   C13F15409   6.161   5.499   4.807  0.4545  0.7926  0.4562
  141OSM   H13F15410   6.202   5.430   4.883  0.1580  1.6809  1.4528
  141OSM   H13G15411   6.081   5.453   4.744  1.0164 -0.9830  0.9841
  141OSM   C14F15412   6.123   5.637   4.874  0.0991  0.2488 -0.0776
  141OSM   H14F15413   6.018   5.638   4.911 -0.6336  1.1489 -2.0477
  141OSM   H14G15414   6.113   5.707   4.788  2.1032 -0.3047 -0.8296
  141OSM   C15F15415   6.221   5.674   4.988  0.2014 -0.0346 -0.2190
  141OSM   H15F15416   6.331   5.668   4.972  0.2915 -1.3819  0.6791
  141OSM   H15G15417   6.199   5.593   5.061  0.7250 -0.0294 -0.0471
  141OSM   C16F15418   6.214   5.815   5.049 -0.1496  0.3122 -0.2810
  141OSM   H16F15419   6.111   5.829   5.089  1.7718  0.3636  5.6648
  141OSM   H16G15420   6.226   5.879   4.959 -0.3843  0.0512 -0.4991
  141OSM   C17F15421   6.308   5.856   5.166  0.5597  0.0816 -0.5087
  141OSM   H17F15422   6.414   5.827   5.150  0.2710 -0.6891 -1.0974
  141OSM   H17G15423   6.261   5.792   5.244  0.0250  0.6292 -0.3739
  141OSM   C18F15424   6.292   6.005   5.200  0.8889  0.2667 -0.1572
  141OSM   H18F15425   6.191   6.039   5.169  1.4771  0.7368 -1.6450
  141OSM   H18G15426   6.374   6.058   5.146  1.0693 -0.2137 -0.3591
  141OSM   H18H15427   6.306   6.031   5.307  0.9209 -0.2489 -0.0343
  142OSM      N15428   6.063   2.752   2.757 -0.2271  0.1227  0.7204
  142OSM    C1515429   5.927   2.717   2.697  0.0104  0.3041 -0.3520
  142OSM   H15A15430   5.848   2.777   2.739  0.4223  0.8396 -0.3350
  142OSM   H15B15431   5.899   2.615   2.718  0.2171  0.5757  1.4134
  142OSM   H15C15432   5.934   2.727   2.590  0.9030 -2.2560 -0.6125
  142OSM    C1415433   6.161   2.659   2.684  0.0186 -0.1956 -0.3742
  142OSM   H14A15434   6.140   2.555   2.704 -1.3467 -0.0722 -1.0481
  142OSM   H14B15435   6.260   2.670   2.725 -0.2769 -0.1824  0.3408
  142OSM   H14C15436   6.151   2.676   2.577 -2.3283  1.2294 -0.0050
  142OSM    C1315437   6.103   2.894   2.738 -0.6035  0.3489 -0.1959
  142OSM   H13A15438   6.097   2.912   2.632  0.4944 -0.3310 -0.3889
  142OSM   H13B15439   6.207   2.906   2.765 -0.3240  0.6322 -1.3298
  142OSM   H13C15440   6.041   2.970   2.784  1.7536  0.9460  2.3016
  142OSM    C1215441   6.059   2.716   2.904 -0.6604 -0.1417  0.3733
  142OSM   H12A15442   5.981   2.761   2.964 -0.6669 -2.4328  2.2256
  142OSM   H12B15443   6.146   2.757   2.954 -1.3642  0.2945  1.2727
  142OSM    C1115444   6.068   2.562   2.943  0.5720  0.3296 -0.0187
  142OSM   H11A15445   5.990   2.515   2.880  0.4541  0.2722  0.1695
  142OSM   H11B15446   6.049   2.559   3.053  0.6690  0.0374 -0.0076
  142OSM      P15447   6.212   2.346   2.947  0.2130  0.3321  0.1003
  142OSM    O1315448   6.103   2.277   2.872  0.3799  0.0489 -0.3297
  142OSM    O1415449   6.347   2.308   2.905 -0.4492  0.2280 -0.0646
  142OSM    O1115450   6.191   2.318   3.097  0.4891  0.4132  0.4079
  142OSM    O1215451   6.203   2.508   2.919  0.0966 -0.2717  0.0929
  142OSM    C1S15452   6.264   2.384   3.199 -0.7681 -0.4891  0.1826
  142OSM    H1S15453   6.249   2.494   3.197  0.5436 -0.2682  0.9660
  142OSM    H1T15454   6.371   2.387   3.170 -1.4022 -0.7804 -2.4622
  142OSM     NF15455   6.342   2.370   3.438  0.5500  0.0223 -1.3091
  142OSM    HNF15456   6.415   2.309   3.469  0.0282 -0.2884 -0.6570
  142OSM    C2S15457   6.257   2.313   3.339  0.1805  0.1699  0.1983
  142OSM    H2S15458   6.156   2.333   3.379  0.5410  0.6927  0.8824
  142OSM    C3S15459   6.268   2.161   3.316 -0.7353 -0.2349 -0.5631
  142OSM    H3S15460   6.369   2.132   3.279 -1.5485 -2.7254 -1.0419
  142OSM     O315461   6.175   2.089   3.231 -0.1981 -0.0804 -0.0910
  142OSM    HO315462   6.132   2.151   3.171 -0.0180  0.4606  0.3258
  142OSM    C4S15463   6.251   2.104   3.451  0.1921  1.0999  0.1727
  142OSM    H4S15464   6.348   2.066   3.486  0.4909 -0.9071 -2.5118
  142OSM    C5S15465   6.139   2.087   3.524 -0.3008 -0.2058  0.2862
  142OSM    H5S15466   6.054   2.151   3.496 -0.7559 -0.1588  1.7006
  142OSM    C6S15467   6.133   2.023   3.658  0.1464  0.0612 -0.1079
  142OSM    H6S15468   6.107   1.915   3.654 -2.4099  0.6123 -0.1164
  142OSM    H6T15469   6.038   2.062   3.700 -0.2591  0.4109 -1.2948
  142OSM    C7S15470   6.257   2.032   3.755  1.1943  0.2630  0.4395
  142OSM    H7S15471   6.284   2.138   3.775  0.8036  0.2947  0.8299
  142OSM    H7T15472   6.343   1.969   3.723  1.7366  2.2905 -2.4133
  142OSM    C8S15473   6.208   1.979   3.898 -0.0429 -0.3751  0.3929
  142OSM    H8S15474   6.183   1.871   3.889  0.3225 -0.6241  2.0580
  142OSM    H8T15475   6.115   2.035   3.924  0.7350  0.2672  1.8779
  142OSM    C9S15476   6.310   2.004   4.012  0.1814  0.6115 -0.3972
  142OSM    H9S15477   6.351   2.107   4.021  2.2523 -0.3512  2.6902
  142OSM    H9T15478   6.408   1.955   3.991  0.7317  1.8289 -0.7387
  142OSM   C10S15479   6.274   1.929   4.146  0.2462 -0.3308  0.1765
  142OSM   H10S15480   6.357   1.922   4.220  1.1984  0.8663 -0.7448
  142OSM   H10T15481   6.243   1.827   4.113 -1.3055 -0.4802  1.9143
  142OSM   C11S15482   6.152   1.995   4.219  0.4176 -0.1896 -0.1259
  142OSM   H11S15483   6.061   2.006   4.156 -0.2372  3.0041  1.1379
  142OSM   H11T15484   6.188   2.097   4.246  0.3084 -0.5763  1.5569
  142OSM   C12S15485   6.117   1.927   4.356 -0.6811 -0.1001 -0.3659
  142OSM   H12S15486   6.203   1.916   4.426  0.2772 -1.3549 -1.6735
  142OSM   H12T15487   6.090   1.823   4.326  1.6242 -0.6487 -0.7524
  142OSM   C13S15488   6.002   1.989   4.429  0.0721 -0.3619  0.6604
  142OSM   H13S15489   5.908   1.987   4.370 -0.9671  1.4829  2.1442
  142OSM   H13T15490   6.021   2.096   4.452  2.3015 -0.9916  2.1189
  142OSM   C14S15491   5.975   1.908   4.559 -0.0957 -0.8719 -0.0352
  142OSM   H14S15492   5.992   1.802   4.530 -1.1758 -0.6816 -1.4528
  142OSM   H14T15493   5.865   1.905   4.575  0.0382 -3.5023  0.8766
  142OSM   C15S15494   6.057   1.950   4.688  0.4963  0.6410 -0.0540
  142OSM   H15S15495   6.050   2.060   4.702 -1.4043  0.4970  0.4930
  142OSM   H15T15496   6.161   1.912   4.686 -0.2240 -1.4563 -0.4021
  142OSM   C16S15497   5.999   1.888   4.813  0.6106  0.0727 -0.1019
  142OSM   H16S15498   5.990   1.780   4.787  1.4173  0.8234 -4.2599
  142OSM   H16T15499   5.898   1.932   4.828  0.4140  0.0712 -1.3200
  142OSM   C17S15500   6.090   1.896   4.932 -0.5857 -0.0343  0.4657
  142OSM   H17S15501   6.116   2.002   4.952  2.6589 -0.4217 -0.9643
  142OSM   H17T15502   6.185   1.837   4.936  0.1770  1.1191 -0.0458
  142OSM   C18S15503   6.012   1.842   5.052  0.1671  0.0682  0.2435
  142OSM   H18S15504   6.053   1.889   5.144 -0.1788 -0.7387  0.8210
  142OSM   H18T15505   6.004   1.731   5.048 -1.8709  0.1687  0.7066
  142OSM   H18U15506   5.910   1.874   5.023  1.5261  1.6609 -3.3466
  142OSM    C1F15507   6.332   2.496   3.486  0.1317 -0.4028 -0.2200
  142OSM     OF15508   6.247   2.573   3.443  0.3104  0.1966 -0.1867
  142OSM    C2F15509   6.426   2.523   3.597  0.7513 -0.3492 -0.4792
  142OSM    H2F15510   6.531   2.543   3.565  0.5268  4.0898  0.9401
  142OSM    H2G15511   6.412   2.433   3.660 -0.7538  0.4537  0.4013
  142OSM    C3F15512   6.381   2.634   3.690 -0.1093  0.6503  0.2254
  142OSM    H3F15513   6.271   2.630   3.705  0.0914 -0.9761  1.6147
  142OSM    H3G15514   6.394   2.731   3.639 -5.2243  1.3450 -0.2387
  142OSM    C4F15515   6.452   2.626   3.829  0.1482  0.5899 -0.0914
  142OSM    H4F15516   6.555   2.668   3.823  0.0770  0.8285  0.3734
  142OSM    H4G15517   6.454   2.517   3.848  0.3872  0.7346  0.7429
  142OSM    C5F15518   6.381   2.692   3.950 -0.5535  0.2136 -0.0029
  142OSM    H5F15519   6.274   2.665   3.960 -0.3125 -0.1151  2.1730
  142OSM    H5G15520   6.392   2.803   3.946 -0.3526  0.1648 -0.9967
  142OSM    C6F15521   6.439   2.653   4.079  0.2626 -0.2759  0.2899
  142OSM    H6F15522   6.532   2.714   4.092 -0.5137  1.3672 -1.2794
  142OSM    H6G15523   6.457   2.544   4.086 -0.9700 -0.4414  1.1261
  142OSM    C7F15524   6.346   2.700   4.189 -0.2688  0.1510  0.3417
  142OSM    H7F15525   6.257   2.633   4.182 -2.6255  3.1497 -0.4407
  142OSM    H7G15526   6.311   2.805   4.180  0.8812  0.6267  1.1693
  142OSM    C8F15527   6.393   2.676   4.333 -0.2236  0.5380  0.5045
  142OSM    H8F15528   6.447   2.579   4.336 -3.4467 -1.6468 -2.8262
  142OSM    H8G15529   6.296   2.663   4.387 -0.8192 -0.8743 -0.8111
  142OSM    C9F15530   6.488   2.778   4.386 -0.7081  0.0485 -0.0853
  142OSM    H9F15531   6.591   2.742   4.379 -1.9457 -3.9456 -0.2685
  142OSM   C10F15532   6.461   2.897   4.439  0.0625  0.3137 -0.2851
  142OSM   H10F15533   6.538   2.972   4.459 -2.6577  2.5733  2.8075
  142OSM   C11F15534   6.320   2.951   4.442  0.2532  0.3851  0.8657
  142OSM   H11F15535   6.256   2.894   4.372  2.3234 -1.1693  0.1313
  142OSM   H11G15536   6.317   3.060   4.419 -2.2485  0.5583  1.6894
  142OSM   C12F15537   6.264   2.929   4.578  0.1355 -0.7559 -0.2948
  142OSM   H12F15538   6.334   2.984   4.644  0.8874  0.1597 -1.8100
  142OSM   H12G15539   6.266   2.823   4.612  1.6728 -0.0981  1.9443
  142OSM   C13F15540   6.117   2.968   4.583  0.0440  0.4953 -0.0297
  142OSM   H13F15541   6.051   2.901   4.523  0.0436  1.4889 -1.1855
  142OSM   H13G15542   6.093   3.063   4.531  0.9862  0.7989  0.0728
  142OSM   C14F15543   6.068   2.969   4.732  0.3294  0.0821 -0.1285
  142OSM   H14F15544   6.149   3.016   4.792  0.1849 -1.4675  1.3573
  142OSM   H14G15545   6.059   2.864   4.769 -0.0933  1.1921  3.2182
  142OSM   C15F15546   5.942   3.060   4.750 -1.0326  0.6560 -0.4696
  142OSM   H15F15547   5.888   3.051   4.653 -0.4276  0.1748 -0.7655
  142OSM   H15G15548   5.986   3.161   4.757  1.2637 -0.2303 -1.3090
  142OSM   C16F15549   5.866   3.030   4.880  0.1226 -1.0169  0.0053
  142OSM   H16F15550   5.921   3.037   4.977 -0.2091  0.8323  0.0844
  142OSM   H16G15551   5.826   2.927   4.870  1.9893 -1.7275 -0.5123
  142OSM   C17F15552   5.755   3.126   4.889  0.3468 -0.1941  0.1654
  142OSM   H17F15553   5.699   3.105   4.795  1.8843 -0.6550 -0.6799
  142OSM   H17G15554   5.803   3.227   4.888 -1.7035  0.8302  0.2648
  142OSM   C18F15555   5.662   3.111   5.008  0.3925  0.1541  0.4402
  142OSM   H18F15556   5.576   3.180   4.993 -0.2803 -0.5717  0.9390
  142OSM   H18G15557   5.707   3.115   5.109  1.0311 -1.2012  0.2291
  142OSM   H18H15558   5.623   3.008   5.009  2.1350 -0.5641 -0.3472
  143OSM      N15559   4.577   2.425   3.329 -0.0232 -0.4651 -0.5049
  143OSM    C1515560   4.702   2.337   3.318  0.2791 -0.3303 -0.7085
  143OSM   H15A15561   4.782   2.403   3.288  1.2290  0.3142  2.7095
  143OSM   H15B15562   4.688   2.249   3.258  1.3140  0.1568 -1.7033
  143OSM   H15C15563   4.739   2.298   3.412 -2.0469  0.6352  0.7109
  143OSM    C1415564   4.541   2.472   3.193 -0.6283  0.6419  0.2985
  143OSM   H14A15565   4.448   2.526   3.205 -0.5798  1.2431 -1.6384
  143OSM   H14B15566   4.515   2.393   3.125 -1.1539  0.1940  1.0062
  143OSM   H14C15567   4.611   2.546   3.157  2.6546 -1.7520  1.2270
  143OSM    C1315568   4.468   2.344   3.394 -0.0525 -0.3728  0.4718
  143OSM   H13A15569   4.375   2.395   3.417  0.0286  1.3610 -2.4848
  143OSM   H13B15570   4.502   2.306   3.489 -1.1489  2.5674  2.2014
  143OSM   H13C15571   4.425   2.259   3.343 -0.2245  0.0537 -0.1104
  143OSM    C1215572   4.587   2.551   3.422  0.0614 -0.1009 -0.2024
  143OSM   H12A15573   4.625   2.509   3.515  0.8200  0.6038 -0.1908
  143OSM   H12B15574   4.487   2.591   3.431 -0.1819 -0.8026  0.3563
  143OSM    C1115575   4.698   2.657   3.380  0.0236  0.1064 -0.1852
  143OSM   H11A15576   4.794   2.610   3.349  0.9779  1.7123  0.2020
  143OSM   H11B15577   4.722   2.711   3.475  0.3071 -1.8574  0.9253
  143OSM      P15578   4.530   2.850   3.311 -0.5950  0.1718  0.1632
  143OSM    O1315579   4.529   2.959   3.209  0.4366 -0.0317  0.3329
  143OSM    O1415580   4.409   2.775   3.327 -0.2606  0.3646  0.6011
  143OSM    O1115581   4.569   2.913   3.450  0.1865 -0.2658  0.2064
  143OSM    O1215582   4.654   2.753   3.279  0.2448 -0.4004  0.4736
  143OSM    C1S15583   4.686   2.993   3.450 -0.0782  0.9627 -0.3252
  143OSM    H1S15584   4.684   3.073   3.373 -0.4204 -0.1235 -1.4776
  143OSM    H1T15585   4.777   2.938   3.420 -0.6636 -0.6018  0.6338
  143OSM     NF15586   4.824   3.152   3.586 -0.3585  0.3412  0.2169
  143OSM    HNF15587   4.918   3.133   3.614  0.3832  2.5529 -0.5479
  143OSM    C2S15588   4.709   3.061   3.595 -0.0195 -0.1841 -0.8094
  143OSM    H2S15589   4.622   3.124   3.624  0.7471  0.4479  0.1833
  143OSM    C3S15590   4.738   2.946   3.699  0.0136 -0.4697  0.1817
  143OSM    H3S15591   4.837   2.900   3.677  0.4439  0.4217  0.1982
  143OSM     O315592   4.645   2.839   3.697  0.5177  0.0614 -0.0517
  143OSM    HO315593   4.585   2.867   3.628 -1.4431 -0.5693  1.3253
  143OSM    C4S15594   4.750   3.003   3.840  0.0489 -0.1005  0.4269
  143OSM    H4S15595   4.852   3.019   3.879 -0.3197  0.2934  1.2451
  143OSM    C5S15596   4.652   3.019   3.932 -0.5522  0.4609  0.0653
  143OSM    H5S15597   4.545   3.006   3.909 -0.5555  2.1331 -1.0998
  143OSM    C6S15598   4.671   3.068   4.067 -0.1858  0.5490 -0.0722
  143OSM    H6S15599   4.575   3.103   4.108 -0.4020 -0.0311 -0.0657
  143OSM    H6T15600   4.739   3.156   4.064 -0.5472  0.8775  1.0586
  143OSM    C7S15601   4.733   2.960   4.162 -0.0375  0.0105  0.1002
  143OSM    H7S15602   4.843   2.953   4.151  0.1471  0.0977  1.6277
  143OSM    H7T15603   4.683   2.861   4.153  0.5557 -0.6789  3.2750
  143OSM    C8S15604   4.720   3.000   4.312  0.4643 -0.3972 -0.1013
  143OSM    H8S15605   4.612   3.020   4.330  0.4253  1.5675 -2.0607
  143OSM    H8T15606   4.766   3.101   4.326  1.2060 -0.9304  1.5785
  143OSM    C9S15607   4.773   2.904   4.405  0.1537  0.2429  0.2151
  143OSM    H9S15608   4.880   2.882   4.387  0.5319  2.3288 -0.2719
  143OSM    H9T15609   4.718   2.808   4.419  1.2252 -0.2935  0.8856
  143OSM   C10S15610   4.756   2.965   4.547  0.5696 -0.8398  0.2836
  143OSM   H10S15611   4.648   2.969   4.574  1.2204 -2.4903  3.5747
  143OSM   H10T15612   4.785   3.072   4.536 -3.0828  0.0616 -2.9727
  143OSM   C11S15613   4.851   2.895   4.651 -0.0413 -0.0472 -0.2724
  143OSM   H11S15614   4.948   2.949   4.649  1.1532 -2.0515  0.6003
  143OSM   H11T15615   4.871   2.792   4.614 -1.4407 -0.1411 -0.8164
  143OSM   C12S15616   4.803   2.890   4.790  0.8344 -0.5302 -0.6819
  143OSM   H12S15617   4.729   2.807   4.790  1.4534 -1.0860 -0.8550
  143OSM   H12T15618   4.745   2.979   4.824  0.0794 -2.0845  2.5427
  143OSM   C13S15619   4.910   2.858   4.895 -0.2644 -0.2825 -0.2000
  143OSM   H13S15620   4.965   2.952   4.912 -0.1734 -0.8327  3.1397
  143OSM   H13T15621   4.968   2.770   4.860 -0.8848 -0.4972 -0.7192
  143OSM   C14S15622   4.846   2.817   5.024  0.1993  0.5122  0.5491
  143OSM   H14S15623   4.800   2.718   5.004  1.0258 -0.4108  2.8671
  143OSM   H14T15624   4.768   2.888   5.058  0.4177  0.5468  0.9910
  143OSM   C15S15625   4.950   2.802   5.136  0.1303 -0.5143 -0.0547
  143OSM   H15S15626   5.019   2.889   5.143  1.0993 -1.3262  0.7855
  143OSM   H15T15627   5.015   2.713   5.122  1.3143  0.3521 -0.3081
  143OSM   C16S15628   4.892   2.765   5.270 -0.3908  0.8574  0.1562
  143OSM   H16S15629   4.838   2.669   5.273 -0.5128  0.9399  1.8554
  143OSM   H16T15630   4.806   2.833   5.291 -1.0031  0.2398 -0.3224
  143OSM   C17S15631   5.000   2.776   5.380  0.1396 -0.1063 -0.7401
  143OSM   H17S15632   5.066   2.863   5.362  0.7417 -0.4606 -0.2805
  143OSM   H17T15633   5.079   2.701   5.359 -0.5213 -1.5926  1.6719
  143OSM   C18S15634   4.950   2.770   5.519  0.0185 -0.5344 -0.5794
  143OSM   H18S15635   4.873   2.848   5.535 -3.2079 -3.8346  1.6061
  143OSM   H18T15636   5.031   2.792   5.592  0.5883 -0.2835 -1.2757
  143OSM   H18U15637   4.900   2.674   5.547  0.9344 -0.0203  3.5385
  143OSM    C1F15638   4.798   3.277   3.538 -0.4311  0.4011 -0.4357
  143OSM     OF15639   4.697   3.304   3.477 -0.0824  0.2115 -0.7517
  143OSM    C2F15640   4.898   3.384   3.564 -0.1152  0.5801 -0.5307
  143OSM    H2F15641   4.919   3.442   3.472 -1.2236  0.3318 -0.9583
  143OSM    H2G15642   4.997   3.345   3.594  0.2161  1.5535 -0.3350
  143OSM    C3F15643   4.863   3.485   3.667  0.4919 -0.0019 -0.0157
  143OSM    H3F15644   4.776   3.538   3.622  0.1976 -0.0889  0.4472
  143OSM    H3G15645   4.947   3.558   3.680  0.7929 -0.1796 -0.8588
  143OSM    C4F15646   4.829   3.427   3.805 -0.2701  0.0806  0.5787
  143OSM    H4F15647   4.926   3.387   3.842 -0.9595  0.3981  2.8705
  143OSM    H4G15648   4.756   3.342   3.801  2.1518 -2.1015  0.0257
  143OSM    C5F15649   4.788   3.526   3.907  0.8909 -0.4962  0.3012
  143OSM    H5F15650   4.688   3.565   3.880 -0.1418 -1.2847  2.6915
  143OSM    H5G15651   4.850   3.618   3.900  0.0976  0.1397  1.3523
  143OSM    C6F15652   4.783   3.472   4.050  0.7978  0.1167  0.0554
  143OSM    H6F15653   4.879   3.429   4.084  0.5740 -0.4191  0.0116
  143OSM    H6G15654   4.715   3.384   4.056 -0.0127  0.7205 -0.0436
  143OSM    C7F15655   4.741   3.561   4.163 -0.0716  0.1978 -0.6661
  143OSM    H7F15656   4.639   3.606   4.153 -1.3834 -1.1016  4.2563
  143OSM    H7G15657   4.818   3.642   4.161 -1.3717  1.4757 -2.2406
  143OSM    C8F15658   4.739   3.494   4.306 -0.7707  0.3040  0.2074
  143OSM    H8F15659   4.839   3.451   4.326 -0.9412  0.2536  1.0201
  143OSM    H8G15660   4.663   3.414   4.295  1.0597 -1.6856  1.2778
  143OSM    C9F15661   4.690   3.594   4.402  0.5007  0.4153  0.4434
  143OSM    H9F15662   4.639   3.680   4.356 -0.4726 -0.7400 -0.7379
  143OSM   C10F15663   4.702   3.592   4.534 -0.0456  0.0990 -0.0648
  143OSM   H10F15664   4.670   3.678   4.594 -1.2024 -1.4550  1.6500
  143OSM   C11F15665   4.780   3.483   4.602 -0.2986 -0.2559 -0.5040
  143OSM   H11F15666   4.885   3.512   4.623  0.0556 -2.1814  0.6061
  143OSM   H11G15667   4.784   3.389   4.542  1.5389  0.0588 -0.9143
  143OSM   C12F15668   4.707   3.452   4.733 -0.7261 -0.1892 -0.2258
  143OSM   H12F15669   4.599   3.438   4.709 -1.0870  0.2888  1.0252
  143OSM   H12G15670   4.723   3.538   4.802 -0.6606 -0.4799  0.1269
  143OSM   C13F15671   4.755   3.320   4.803 -0.8433  0.0162  0.1718
  143OSM   H13F15672   4.866   3.327   4.810 -0.8801  2.0737 -0.5724
  143OSM   H13G15673   4.745   3.228   4.741  1.9125 -1.0531  1.1776
  143OSM   C14F15674   4.693   3.287   4.945 -0.0959  0.0318  0.1987
  143OSM   H14F15675   4.600   3.227   4.930 -0.6110  0.5943  1.0396
  143OSM   H14G15676   4.657   3.383   4.989 -0.1555  0.6294 -1.1136
  143OSM   C15F15677   4.789   3.217   5.041  0.5340 -0.3633 -0.6946
  143OSM   H15F15678   4.889   3.263   5.028  1.7585 -1.4830  3.4087
  143OSM   H15G15679   4.797   3.108   5.022 -0.2608 -0.5035 -0.2540
  143OSM   C16F15680   4.758   3.245   5.187 -0.2237 -0.8462 -0.1684
  143OSM   H16F15681   4.652   3.227   5.212 -0.7845  2.0424 -0.1491
  143OSM   H16G15682   4.778   3.354   5.201 -2.6532 -0.3446 -0.1488
  143OSM   C17F15683   4.852   3.170   5.270 -0.6144  0.2647  0.2570
  143OSM   H17F15684   4.951   3.220   5.266  0.1129 -0.9464  2.0432
  143OSM   H17G15685   4.866   3.069   5.227  2.5989  1.2471 -1.2747
  143OSM   C18F15686   4.802   3.158   5.419 -0.1315 -0.0236 -0.6292
  143OSM   H18F15687   4.893   3.144   5.481 -1.3184 -0.4574  1.0866
  143OSM   H18G15688   4.741   3.065   5.425  2.2063 -1.6726 -1.0654
  143OSM   H18H15689   4.744   3.248   5.449  1.8391  0.7221  1.1802
  144OSM      N15690   4.970   3.378   3.120 -0.7891  0.2706  0.5158
  144OSM    C1515691   5.082   3.330   3.023  0.7741  0.2897 -0.1070
  144OSM   H15A15692   5.042   3.269   2.943 -0.2702 -0.1637  0.7351
  144OSM   H15B15693   5.149   3.268   3.082 -1.1670 -1.2324  0.5987
  144OSM   H15C15694   5.144   3.409   2.985  2.5574 -0.0205  1.9587
  144OSM    C1415695   5.026   3.472   3.220  0.7243 -0.4278 -0.3873
  144OSM   H14A15696   5.092   3.424   3.290 -0.4253 -2.3742 -0.5638
  144OSM   H14B15697   4.942   3.513   3.273  0.7798  2.1837 -2.1123
  144OSM   H14C15698   5.071   3.556   3.169  0.7325 -0.7381 -0.9055
  144OSM    C1315699   4.866   3.460   3.038 -0.3564  0.1657 -0.5554
  144OSM   H13A15700   4.829   3.397   2.958  0.9734 -1.7932  0.2903
  144OSM   H13B15701   4.908   3.546   2.988  1.0473  1.3577  2.4026
  144OSM   H13C15702   4.783   3.485   3.102 -1.9705 -1.6965 -1.7869
  144OSM    C1215703   4.901   3.260   3.182  0.4841 -0.6121  0.3997
  144OSM   H12A15704   4.861   3.210   3.095  0.4055  1.1371 -0.6032
  144OSM   H12B15705   4.815   3.304   3.230 -0.7533 -0.9553 -1.4319
  144OSM    C1115706   4.980   3.169   3.275  0.2598  0.9184 -1.1071
  144OSM   H11A15707   4.917   3.086   3.314 -0.0543  1.4866 -0.3736
  144OSM   H11B15708   5.013   3.219   3.369  0.6660 -1.3565  0.0560
  144OSM      P15709   5.110   2.966   3.160 -0.3833 -0.0067  0.1338
  144OSM    O1315710   4.985   2.911   3.101  0.4458 -0.5592 -0.8176
  144OSM    O1415711   5.230   2.965   3.074 -0.0915  0.5391  0.1875
  144OSM    O1115712   5.149   2.877   3.290  0.2000  0.3117 -0.5910
  144OSM    O1215713   5.095   3.114   3.213  0.4190  0.1607 -0.3095
  144OSM    C1S15714   5.200   2.919   3.414  1.0407  0.0676  0.4825
  144OSM    H1S15715   5.171   3.026   3.427 -1.2669 -0.6493  1.7234
  144OSM    H1T15716   5.311   2.913   3.412  1.0295 -0.4180 -1.9615
  144OSM     NF15717   5.210   2.918   3.656  0.2931  0.2397  0.0897
  144OSM    HNF15718   5.290   2.872   3.693  0.1063  1.0665  1.6297
  144OSM    C2S15719   5.146   2.853   3.541 -0.4704 -0.2123  0.9478
  144OSM    H2S15720   5.037   2.872   3.535 -0.3308  0.1684 -2.8798
  144OSM    C3S15721   5.161   2.697   3.533  0.7041  0.1066  0.3807
  144OSM    H3S15722   5.270   2.677   3.527  0.4811 -1.3815  0.8112
  144OSM     O315723   5.101   2.638   3.414  0.1371 -0.2485 -0.1794
  144OSM    HO315724   5.083   2.713   3.357  0.5140  1.5330  1.8774
  144OSM    C4S15725   5.097   2.628   3.654 -0.0967 -0.1949 -0.2515
  144OSM    H4S15726   5.172   2.598   3.729  0.4650 -1.5732 -1.3259
  144OSM    C5S15727   4.964   2.604   3.681 -0.3018 -0.6430  0.2586
  144OSM    H5S15728   4.890   2.653   3.615  0.4529  1.3432  0.8133
  144OSM    C6S15729   4.923   2.510   3.793 -0.3879 -0.2199 -0.3063
  144OSM    H6S15730   5.013   2.450   3.820  1.2138  1.5289 -1.5116
  144OSM    H6T15731   4.838   2.442   3.771 -1.3328  1.5891 -2.6736
  144OSM    C7S15732   4.892   2.587   3.921  0.1800  0.7306  0.2572
  144OSM    H7S15733   4.804   2.652   3.902 -1.2455 -0.6580  1.7826
  144OSM    H7T15734   4.983   2.647   3.941  1.5058 -1.6845  1.8514
  144OSM    C8S15735   4.882   2.489   4.040  0.7145  1.0139 -0.4370
  144OSM    H8S15736   4.964   2.414   4.037  2.2711  2.6943 -2.2124
  144OSM    H8T15737   4.792   2.425   4.022  3.0827 -2.8458  0.2376
  144OSM    C9S15738   4.891   2.553   4.176  0.2305  0.2661 -0.7558
  144OSM    H9S15739   4.811   2.631   4.176  1.1871  1.3514  1.4073
  144OSM    H9T15740   4.986   2.604   4.201  0.8129 -1.6507  1.3005
  144OSM   C10S15741   4.863   2.453   4.284  0.2318  0.4200  0.4810
  144OSM   H10S15742   4.932   2.365   4.280  1.1305  1.0804  1.0333
  144OSM   H10T15743   4.766   2.409   4.253  0.0296  2.5100 -2.1773
  144OSM   C11S15744   4.853   2.519   4.419 -0.1171 -0.0751  0.2875
  144OSM   H11S15745   4.782   2.603   4.404 -1.2907 -0.9238  0.9036
  144OSM   H11T15746   4.947   2.558   4.464 -0.4572 -2.2384  3.1643
  144OSM   C12S15747   4.794   2.423   4.526  0.5417  0.1473  0.4199
  144OSM   H12S15748   4.847   2.325   4.522 -0.6501 -0.5808  1.5523
  144OSM   H12T15749   4.697   2.402   4.477  0.6386  2.7492 -1.0765
  144OSM   C13S15750   4.786   2.484   4.664 -0.6382  0.8043  0.4386
  144OSM   H13S15751   4.743   2.584   4.642  0.8632  1.1150 -1.4372
  144OSM   H13T15752   4.890   2.500   4.701  0.0159 -1.5725 -0.1673
  144OSM   C14S15753   4.708   2.399   4.764 -0.4519  1.1023  0.1089
  144OSM   H14S15754   4.736   2.294   4.745  1.6253  0.7266  4.2084
  144OSM   H14T15755   4.599   2.415   4.747 -1.0145 -2.2411 -0.0344
  144OSM   C15S15756   4.753   2.422   4.907 -0.0225 -1.1293 -0.7003
  144OSM   H15S15757   4.716   2.524   4.933  0.0290 -0.5515 -2.7383
  144OSM   H15T15758   4.864   2.416   4.916 -0.0685 -1.7574 -0.4701
  144OSM   C16S15759   4.692   2.328   5.012 -0.0432 -0.4932  0.7191
  144OSM   H16S15760   4.735   2.353   5.111  1.1606  0.8847 -0.1083
  144OSM   H16T15761   4.715   2.221   4.995 -1.1054 -0.3893 -1.8862
  144OSM   C17S15762   4.542   2.347   5.026 -0.2830 -0.6963 -0.3832
  144OSM   H17S15763   4.519   2.280   5.112 -1.8982 -0.9395 -0.9859
  144OSM   H17T15764   4.497   2.303   4.934 -1.7556  1.8585 -0.9851
  144OSM   C18S15765   4.486   2.484   5.071  0.1631  0.3428  0.7998
  144OSM   H18S15766   4.381   2.480   5.109 -1.1465  1.5767 -2.3527
  144OSM   H18T15767   4.482   2.539   4.975  1.3254 -0.7317  0.1093
  144OSM   H18U15768   4.542   2.535   5.152 -0.2550  3.4232 -0.6951
  144OSM    C1F15769   5.178   3.046   3.695 -0.0953  0.3473  0.1034
  144OSM     OF15770   5.077   3.102   3.656  0.0127 -0.4230 -0.7990
  144OSM    C2F15771   5.275   3.104   3.796 -0.7454 -0.0646 -0.1486
  144OSM    H2F15772   5.377   3.063   3.778 -1.7869 -2.6294 -0.6073
  144OSM    H2G15773   5.239   3.075   3.897 -1.2897  1.6908  0.2070
  144OSM    C3F15774   5.277   3.263   3.796  0.2036  0.3647 -0.4024
  144OSM    H3F15775   5.180   3.301   3.832  1.2425  1.5101  1.3552
  144OSM    H3G15776   5.297   3.299   3.693 -4.2625 -1.4755 -2.1475
  144OSM    C4F15777   5.392   3.313   3.888 -0.0652  0.1814  0.3654
  144OSM    H4F15778   5.377   3.421   3.912  0.2885 -0.0160  1.5211
  144OSM    H4G15779   5.482   3.299   3.825  0.4177 -1.7444  1.4083
  144OSM    C5F15780   5.413   3.246   4.026 -0.1129 -1.4943 -0.2963
  144OSM    H5F15781   5.504   3.295   4.068  0.5397 -0.8400 -2.3645
  144OSM    H5G15782   5.426   3.136   4.020 -1.0694 -1.5639 -1.1351
  144OSM    C6F15783   5.299   3.283   4.121  0.0476  0.1687 -0.9419
  144OSM    H6F15784   5.212   3.306   4.056 -0.3163 -1.7603 -1.1909
  144OSM    H6G15785   5.331   3.367   4.186 -0.1174 -0.6969  0.2863
  144OSM    C7F15786   5.253   3.164   4.205  0.5154 -0.4356  0.1649
  144OSM    H7F15787   5.318   3.148   4.293 -0.2886  0.7350  0.9980
  144OSM    H7G15788   5.265   3.082   4.132  2.0554  0.0807 -0.1942
  144OSM    C8F15789   5.106   3.166   4.251 -0.9545  0.1755 -0.1196
  144OSM    H8F15790   5.103   3.071   4.308 -1.9522 -0.0036 -0.4536
  144OSM    H8G15791   5.046   3.162   4.158  0.0206  0.9299 -0.8059
  144OSM    C9F15792   5.069   3.285   4.330  0.3131 -0.3377  0.1389
  144OSM    H9F15793   5.054   3.373   4.266 -0.9477  0.9458  2.0910
  144OSM   C10F15794   5.058   3.297   4.467 -0.5987 -0.1820  0.0345
  144OSM   H10F15795   5.023   3.391   4.511 -1.0216 -0.0424 -0.5771
  144OSM   C11F15796   5.065   3.181   4.566 -0.5398  0.4269  0.0391
  144OSM   H11F15797   5.088   3.079   4.528 -1.9283 -0.1879  0.7862
  144OSM   H11G15798   4.974   3.188   4.629 -1.1342 -0.8794 -0.6368
  144OSM   C12F15799   5.184   3.205   4.648 -0.0582 -0.1299 -0.2766
  144OSM   H12F15800   5.202   3.310   4.678  1.2610 -0.2981 -0.4298
  144OSM   H12G15801   5.279   3.174   4.600 -0.5361 -1.4439 -0.4151
  144OSM   C13F15802   5.175   3.130   4.790  0.3905 -0.2371 -0.5380
  144OSM   H13F15803   5.155   3.024   4.762 -0.9651 -0.7304  2.0582
  144OSM   H13G15804   5.083   3.175   4.833  0.9472  1.5828 -1.1273
  144OSM   C14F15805   5.287   3.155   4.885 -0.0189 -0.1399 -0.3347
  144OSM   H14F15806   5.304   3.265   4.892 -0.1655 -0.1611  0.4921
  144OSM   H14G15807   5.374   3.108   4.835 -1.7675 -3.1310 -0.7811
  144OSM   C15F15808   5.267   3.088   5.024 -1.1093 -0.3783  0.4091
  144OSM   H15F15809   5.359   3.034   5.055 -1.0623 -1.4044 -1.4040
  144OSM   H15G15810   5.191   3.010   5.003 -2.4962  0.9289  0.3560
  144OSM   C16F15811   5.227   3.183   5.141  0.3461  0.2975  0.1483
  144OSM   H16F15812   5.177   3.119   5.217 -2.3935 -0.7537 -2.3562
  144OSM   H16G15813   5.142   3.247   5.108  0.1399  0.6287  1.2694
  144OSM   C17F15814   5.349   3.269   5.187  0.5750  0.5974  0.7012
  144OSM   H17F15815   5.366   3.339   5.103 -0.7991 -0.2483 -0.3434
  144OSM   H17G15816   5.434   3.201   5.209 -0.1623 -0.7742 -0.4914
  144OSM   C18F15817   5.316   3.349   5.311  0.2817 -0.1112  0.2418
  144OSM   H18F15818   5.385   3.433   5.331  1.0756 -0.5128 -0.7314
  144OSM   H18G15819   5.321   3.280   5.398  0.1313  1.3189  1.4228
  144OSM   H18H15820   5.212   3.389   5.307  0.3990  0.3212  1.2296
  145SAPE     N15821   0.553   3.457   7.503  0.6996 -0.3500  0.3461
  145SAPE   HN115822   0.639   3.426   7.454  0.6367  1.1659 -0.7878
  145SAPE   HN215823   0.467   3.460   7.444  1.0305  1.3176 -0.1031
  145SAPE   HN315824   0.565   3.552   7.543 -2.2561  0.3683 -0.2362
  145SAPE   C1215825   0.539   3.362   7.618  0.5740  0.0935 -0.2519
  145SAPE  H12A15826   0.451   3.388   7.681  2.1626  0.1751  2.0448
  145SAPE  H12B15827   0.627   3.378   7.684  0.0420  1.1116  0.2310
  145SAPE   C1115828   0.526   3.216   7.569 -0.1745  0.4338 -0.6195
  145SAPE  H11A15829   0.621   3.180   7.525  0.1707 -0.0919  0.5246
  145SAPE  H11B15830   0.448   3.204   7.490  0.3265 -2.7337 -0.7594
  145SAPE     P15831   0.340   3.134   7.738  0.1540  0.1751  0.1649
  145SAPE   O1315832   0.320   3.012   7.815  0.3324  0.0210 -0.4734
  145SAPE   O1415833   0.303   3.264   7.806 -0.0122 -0.4025  0.6592
  145SAPE   O1215834   0.485   3.129   7.680 -0.6039 -0.2305  0.3663
  145SAPE   O1115835   0.267   3.125   7.602 -0.4008  0.6247  0.2153
  145SAPE    C115836   0.203   3.012   7.534 -0.2784  0.6145 -0.6385
  145SAPE    HA15837   0.202   2.915   7.589 -1.7569  0.6884 -0.5079
  145SAPE    HB15838   0.098   3.032   7.503 -1.0008 -1.5695  0.1865
  145SAPE    C215839   0.272   2.975   7.394 -0.2656 -0.0746 -0.5235
  145SAPE    HS15840   0.363   2.914   7.414 -0.3965 -0.6154 -1.5208
  145SAPE   O2115841   0.288   3.093   7.304 -0.1558  0.3061 -0.0606
  145SAPE   C2115842   0.384   3.093   7.220  0.1120 -0.2868  0.4563
  145SAPE   O2215843   0.463   3.003   7.195  0.7100  0.0425  0.2911
  145SAPE   C2215844   0.402   3.235   7.150  0.4530 -0.0474  0.3707
  145SAPE   H2R15845   0.432   3.307   7.229 -2.1275  2.0807 -0.4321
  145SAPE   H2S15846   0.484   3.223   7.077 -1.1752 -1.7667 -1.2636
  145SAPE    C315847   0.177   2.855   7.332  0.0031 -0.5633  0.1581
  145SAPE    HX15848   0.160   2.783   7.416 -0.4985 -0.1370  0.4222
  145SAPE    HY15849   0.238   2.800   7.256 -1.0704 -1.8859  0.2119
  145SAPE   O3115850   0.051   2.903   7.284 -0.4452  0.2976  0.6889
  145SAPE   C3115851   0.042   2.926   7.159 -0.0427 -0.5067  0.0744
  145SAPE   O3215852   0.135   2.927   7.077  0.5747  0.1858 -0.6644
  145SAPE   C3215853  -0.105   2.963   7.119  0.2581  0.3549  0.2379
  145SAPE   H2X15854  -0.139   3.050   7.180  0.1394  0.3907  0.1222
  145SAPE   H2Y15855  -0.158   2.875   7.162 -1.1786  1.7246  1.3982
  145SAPE   C2315856   0.278   3.281   7.068  0.2987  0.0886 -0.6765
  145SAPE   H3R15857   0.197   3.297   7.144  0.1869  0.5286 -0.8860
  145SAPE   H3S15858   0.243   3.195   7.008 -0.8185 -0.7093  1.0088
  145SAPE   C2415859   0.279   3.407   6.974  0.0056  0.3028  0.1005
  145SAPE   H4R15860   0.307   3.482   7.051 -1.4993 -0.9337  1.9432
  145SAPE   H4S15861   0.180   3.421   6.927  0.0470  1.6792  0.3680
  145SAPE   C2515862   0.379   3.392   6.863  0.3144  0.0942  0.0108
  145SAPE   H5R15863   0.475   3.442   6.886  1.5061 -2.1374  0.1627
  145SAPE   C2615864   0.349   3.351   6.737 -0.1787  0.7135  0.2588
  145SAPE   H6R15865   0.425   3.353   6.658 -0.4499 -0.5096 -0.0445
  145SAPE   C2715866   0.211   3.301   6.682  0.0057 -0.1737  0.1998
  145SAPE   H7R15867   0.180   3.374   6.604  1.1146  0.7879  0.6296
  145SAPE   H7S15868   0.136   3.310   6.763 -0.4856 -1.7747 -0.0341
  145SAPE   C2815869   0.212   3.157   6.632  0.0063 -0.8171  0.6747
  145SAPE   H8R15870   0.246   3.077   6.699 -1.0864  0.1123  2.3965
  145SAPE   C2915871   0.151   3.117   6.519 -0.0288 -0.3540 -0.4589
  145SAPE   H9R15872   0.175   3.011   6.501 -0.7089 -1.2937  3.1934
  145SAPE  C21015873   0.077   3.196   6.416  0.2737  0.2210 -0.6438
  145SAPE  H10R15874   0.013   3.266   6.473  1.2439 -0.2515  1.0945
  145SAPE  H10S15875   0.006   3.133   6.359 -1.4632  1.5022  0.0379
  145SAPE  C21115876   0.172   3.262   6.320  0.8350  0.3080 -0.0652
  145SAPE  H11R15877   0.251   3.312   6.378  2.0006 -3.4636  1.9632
  145SAPE  C21215878   0.170   3.264   6.184 -0.0842  1.2909 -0.5424
  145SAPE  H12R15879   0.254   3.314   6.133 -1.0716  2.3715 -1.1609
  145SAPE  C21315880   0.074   3.195   6.091 -0.8541 -0.8156 -0.5833
  145SAPE  H13R15881   0.044   3.260   6.006  0.2848 -1.8594 -1.8262
  145SAPE  H13S15882  -0.023   3.174   6.139 -1.9286  0.6557 -2.0086
  145SAPE  C21415883   0.119   3.059   6.040 -0.0332 -0.7197 -0.2359
  145SAPE  H14R15884   0.160   2.987   6.113  1.0906 -0.4801 -0.6156
  145SAPE  C21515885   0.116   3.014   5.914 -0.2582  0.3059 -0.0696
  145SAPE  H15R15886   0.158   2.915   5.892  1.2425  0.7030  0.8499
  145SAPE  C21615887   0.061   3.082   5.792  0.3887  0.0874 -0.2479
  145SAPE  H16R15888   0.055   3.192   5.807  0.3341 -0.0695  1.0430
  145SAPE  H16S15889  -0.037   3.045   5.756  0.4599  0.3050 -0.6653
  145SAPE  C21715890   0.173   3.076   5.682  0.0589  0.1172 -0.7777
  145SAPE  H17R15891   0.206   2.973   5.657  0.6452  0.7518 -2.8065
  145SAPE  H17S15892   0.264   3.124   5.725  1.1464 -2.8133  0.4641
  145SAPE  C21815893   0.149   3.147   5.548 -0.3303  0.2940  0.6254
  145SAPE  H18R15894   0.054   3.119   5.499  0.2044 -0.0535 -0.2444
  145SAPE  H18S15895   0.237   3.117   5.487  0.7592  0.4805  2.0294
  145SAPE  C21915896   0.138   3.289   5.558  0.2676 -0.3007  0.0656
  145SAPE  H19R15897   0.223   3.333   5.615 -1.0209  2.5873 -0.0707
  145SAPE  H19S15898   0.045   3.316   5.611 -0.0177 -1.1195 -0.0059
  145SAPE  C22015899   0.147   3.354   5.419  0.8285  0.8617  0.3576
  145SAPE  H20R15900   0.099   3.278   5.354  1.8840 -0.4314  1.0594
  145SAPE  H20S15901   0.250   3.364   5.380  1.1578 -0.1555  0.9218
  145SAPE  H20T15902   0.105   3.457   5.410 -0.0918  0.4197 -0.6205
  145SAPE   C3315903  -0.116   2.985   6.961  0.6343  0.6219  0.2588
  145SAPE   H3X15904  -0.076   2.889   6.921 -3.1182 -1.0306  0.0373
  145SAPE   H3Y15905  -0.051   3.059   6.910  0.3714 -0.0510 -1.0870
  145SAPE   C3415906  -0.265   3.002   6.931 -0.5697  0.1856 -0.3461
  145SAPE   H4X15907  -0.290   3.092   6.990  3.1769  0.8082  0.5681
  145SAPE   H4Y15908  -0.326   2.915   6.966 -0.2405  0.1554  0.1698
  145SAPE   C3515909  -0.308   3.020   6.783 -0.2552 -0.6735 -0.1465
  145SAPE   H5X15910  -0.240   3.095   6.736  0.7231 -2.2737 -1.3676
  145SAPE   H5Y15911  -0.414   3.054   6.789 -0.5359 -1.4907 -0.3545
  145SAPE   C3615912  -0.309   2.888   6.704  0.0902 -0.3914 -0.5053
  145SAPE   H6X15913  -0.345   2.813   6.778  0.2142  1.4366  1.5346
  145SAPE   H6Y15914  -0.207   2.863   6.667  0.6278  2.0622 -0.8098
  145SAPE   C3715915  -0.412   2.884   6.589 -0.2173 -0.1100 -1.1731
  145SAPE   H7X15916  -0.509   2.855   6.636  1.2619 -0.4226  1.9369
  145SAPE   H7Y15917  -0.391   2.788   6.536 -1.7020 -2.3585  1.9552
  145SAPE   C3815918  -0.427   3.005   6.504  0.7794 -0.0769 -0.8702
  145SAPE   H8X15919  -0.428   3.097   6.566 -2.4628 -2.2566  2.7773
  145SAPE   H8Y15920  -0.526   3.001   6.454  0.5682  1.6913 -0.6287
  145SAPE   C3915921  -0.322   3.006   6.399  0.1581 -0.3219 -0.1303
  145SAPE   H9X15922  -0.234   2.947   6.431  0.3335  0.2891  0.5405
  145SAPE   H9Y15923  -0.288   3.112   6.394  2.2696 -0.8191  2.1701
  145SAPE  C31015924  -0.361   2.950   6.257 -1.1673 -0.4975 -0.0498
  145SAPE  H10X15925  -0.393   2.844   6.272 -1.1809 -0.5567 -0.4826
  145SAPE  H10Y15926  -0.259   2.952   6.211 -0.7608  0.8784  0.8483
  145SAPE  C31115927  -0.479   3.016   6.178  0.7119 -0.2190  0.8405
  145SAPE  H11X15928  -0.462   3.125   6.188  1.3482 -0.3943  1.8630
  145SAPE  H11Y15929  -0.576   2.980   6.217  0.8631 -0.8773  0.6231
  145SAPE  C31215930  -0.466   2.988   6.028 -0.1800  1.1538 -0.1996
  145SAPE  H12X15931  -0.433   2.882   6.026 -3.3629  0.0253 -3.2585
  145SAPE  H12Y15932  -0.392   3.052   5.976 -0.2398  1.4089  0.0240
  145SAPE  C31315933  -0.594   3.013   5.945  0.0223  0.5703 -0.3252
  145SAPE  H13X15934  -0.623   3.119   5.963 -1.4129  0.3835 -1.4081
  145SAPE  H13Y15935  -0.675   2.950   5.986  0.7103  0.7718  1.4394
  145SAPE  C31415936  -0.590   2.985   5.792  0.0962  0.9070  0.8965
  145SAPE  H14X15937  -0.691   3.015   5.755  0.3291  3.2516  2.0134
  145SAPE  H14Y15938  -0.562   2.878   5.776 -1.5380  0.6371 -0.4255
  145SAPE  C31515939  -0.481   3.079   5.727 -0.5639 -0.2491  0.4523
  145SAPE  H15X15940  -0.382   3.059   5.773 -0.8019 -0.7404  0.7639
  145SAPE  H15Y15941  -0.505   3.179   5.768  0.4961 -0.3702  1.4388
  145SAPE  C31615942  -0.490   3.078   5.572  0.1563  1.2003  0.7519
  145SAPE  H16X15943  -0.426   3.164   5.544  0.6415  0.7325  0.4046
  145SAPE  H16Y15944  -0.593   3.103   5.539 -0.4944 -0.8921  1.0521
  145SAPE  C31715945  -0.420   2.952   5.516  0.5976  0.2682  0.3602
  145SAPE  H17X15946  -0.445   2.946   5.408 -3.8988  0.5299  1.2072
  145SAPE  H17Y15947  -0.468   2.859   5.553  1.4972 -0.8001 -1.0448
  145SAPE  C31815948  -0.270   2.947   5.541 -0.1643  0.1425 -0.1566
  145SAPE  H18X15949  -0.222   2.863   5.488 -0.7706 -0.1213 -0.2960
  145SAPE  H18Y15950  -0.256   2.924   5.649  0.0176 -1.0376 -0.4240
  145SAPE  H18Z15951  -0.216   3.040   5.514  0.5585 -0.6389 -1.5199
  146SAPE     N15952   1.376   2.173   8.005  0.1081  0.4198 -0.4006
  146SAPE   HN115953   1.315   2.103   7.959  1.0675  0.3762 -1.6868
  146SAPE   HN215954   1.346   2.199   8.101 -1.7870  1.0472 -1.1246
  146SAPE   HN315955   1.351   2.255   7.946  2.1463 -0.5650 -2.8196
  146SAPE   C1215956   1.522   2.143   8.002 -0.1973  0.3564  0.2302
  146SAPE  H12A15957   1.552   2.140   7.895 -2.0622  1.4861 -0.3638
  146SAPE  H12B15958   1.536   2.043   8.048 -0.9618  0.5035  0.7884
  146SAPE   C1115959   1.596   2.267   8.061 -0.0525 -0.1692 -0.2029
  146SAPE  H11A15960   1.705   2.242   8.056 -0.0219  0.1640 -1.5366
  146SAPE  H11B15961   1.561   2.280   8.165  1.6298  1.9941  0.1497
  146SAPE     P15962   1.526   2.527   8.019  0.2898 -0.0668  0.0441
  146SAPE   O1315963   1.405   2.515   8.108 -0.3347 -0.5437  0.7297
  146SAPE   O1415964   1.647   2.600   8.069 -0.0036  0.2900 -0.2623
  146SAPE   O1215965   1.577   2.380   7.980  0.0416 -0.5629 -0.3236
  146SAPE   O1115966   1.498   2.583   7.876 -0.0902 -0.1657  0.1944
  146SAPE    C115967   1.588   2.560   7.762  0.1298  0.2358 -0.4529
  146SAPE    HA15968   1.687   2.606   7.783  0.5801 -1.9044  2.8711
  146SAPE    HB15969   1.600   2.450   7.750 -0.9686  0.1601 -1.0100
  146SAPE    C215970   1.546   2.645   7.635 -0.6368  0.3426  0.1025
  146SAPE    HS15971   1.505   2.739   7.678 -0.3973 -0.7333  2.8820
  146SAPE   O2115972   1.461   2.554   7.571  0.0385  0.6032  0.3607
  146SAPE   C2115973   1.363   2.610   7.500  0.6284 -0.5508 -0.1948
  146SAPE   O2215974   1.341   2.732   7.499 -0.5157 -1.0814  0.4219
  146SAPE   C2215975   1.285   2.506   7.417 -0.5812  0.0826 -0.2816
  146SAPE   H2R15976   1.344   2.412   7.415 -1.2370 -0.3453 -2.5647
  146SAPE   H2S15977   1.188   2.474   7.461  0.4272  0.2063  2.1511
  146SAPE    C315978   1.665   2.683   7.544 -0.7840 -0.6847 -0.7370
  146SAPE    HX15979   1.722   2.589   7.529  1.8612  0.5125  1.1023
  146SAPE    HY15980   1.742   2.749   7.588 -1.3547  0.0208 -0.7660
  146SAPE   O3115981   1.626   2.732   7.415  0.0356  0.2338  0.3923
  146SAPE   C3115982   1.616   2.863   7.407 -0.0717 -0.3428 -0.0435
  146SAPE   O3215983   1.667   2.942   7.487 -0.5521  0.1227 -0.7010
  146SAPE   C3215984   1.551   2.901   7.277  0.2908 -0.2922 -0.1530
  146SAPE   H2X15985   1.447   2.863   7.274  0.7273 -1.6117  0.8789
  146SAPE   H2Y15986   1.599   2.864   7.184  0.7610  1.0972 -0.4953
  146SAPE   C2315987   1.268   2.558   7.271 -0.7689 -0.2193  0.7329
  146SAPE   H3R15988   1.371   2.572   7.233 -1.4052  1.4087 -0.4663
  146SAPE   H3S15989   1.218   2.657   7.270 -0.2424  0.0429 -0.2641
  146SAPE   C2415990   1.174   2.462   7.197 -0.1683  0.2363  0.2095
  146SAPE   H4R15991   1.154   2.500   7.094 -0.0799 -1.3857 -0.4476
  146SAPE   H4S15992   1.078   2.454   7.252 -0.2751 -4.7191 -0.2578
  146SAPE   C2515993   1.235   2.323   7.185  0.4346 -0.3334  0.0617
  146SAPE   H5R15994   1.279   2.275   7.274  1.3926  1.9136  0.8661
  146SAPE   C2615995   1.228   2.257   7.070  0.8487  0.5383  0.4542
  146SAPE   H6R15996   1.275   2.157   7.062  2.0575  1.1288 -0.0372
  146SAPE   C2715997   1.158   2.307   6.944 -0.8484 -0.3850 -0.0858
  146SAPE   H7R15998   1.196   2.405   6.908 -1.6047 -0.2218 -0.4684
  146SAPE   H7S15999   1.052   2.318   6.975 -0.3298 -0.5460  1.8923
  146SAPE   C2816000   1.174   2.205   6.836 -0.0956 -0.1294 -0.3596
  146SAPE   H8R16001   1.162   2.100   6.867 -2.4927  0.0437 -0.5132
  146SAPE   C2916002   1.180   2.234   6.700  0.0577  0.8018 -0.0320
  146SAPE   H9R16003   1.196   2.152   6.628 -0.7740  0.1993  0.4435
  146SAPE  C21016004   1.192   2.372   6.643  0.0341  0.2858  0.4825
  146SAPE  H10R16005   1.293   2.387   6.600 -1.0694 -1.5820 -3.1481
  146SAPE  H10S16006   1.173   2.449   6.721  0.1787  0.4858  0.3224
  146SAPE  C21116007   1.098   2.384   6.527  0.9487 -0.1022  0.0281
  146SAPE  H11R16008   0.998   2.398   6.570  1.3145  1.2330  0.5084
  146SAPE  C21216009   1.127   2.369   6.394 -0.0673 -0.6466 -0.0639
  146SAPE  H12R16010   1.055   2.399   6.317  0.8365  1.2742 -0.2252
  146SAPE  C21316011   1.272   2.342   6.340  0.6278  0.2941  0.1177
  146SAPE  H13R16012   1.341   2.327   6.425 -0.0308  3.1267  1.2870
  146SAPE  H13S16013   1.309   2.441   6.303 -1.8376  1.8346  1.4542
  146SAPE  C21416014   1.269   2.225   6.243 -0.6114  0.0662  0.1984
  146SAPE  H14R16015   1.210   2.142   6.286  0.2508  0.1861  1.6880
  146SAPE  C21516016   1.320   2.217   6.118 -0.1681  0.1893  0.5739
  146SAPE  H15R16017   1.300   2.123   6.065  0.2090  0.6549 -0.4013
  146SAPE  C21616018   1.405   2.325   6.053 -0.4143  0.1027  0.5992
  146SAPE  H16R16019   1.495   2.275   6.010 -1.9160 -1.1132 -1.3161
  146SAPE  H16S16020   1.436   2.399   6.130  2.3337 -1.8644  1.5559
  146SAPE  C21716021   1.329   2.401   5.941  0.0067  0.5369  0.7319
  146SAPE  H17R16022   1.250   2.457   5.995  1.4257  1.6846  1.6832
  146SAPE  H17S16023   1.286   2.323   5.874  0.7299  0.2341  0.6122
  146SAPE  C21816024   1.416   2.492   5.855 -0.4658 -0.3424  0.1280
  146SAPE  H18R16025   1.485   2.437   5.787 -1.7225 -0.8292 -0.7939
  146SAPE  H18S16026   1.480   2.552   5.923  0.3028 -0.6004 -0.3528
  146SAPE  C21916027   1.327   2.595   5.777  0.0469  0.1935 -0.6552
  146SAPE  H19R16028   1.248   2.637   5.844 -0.5492 -0.2833 -1.0483
  146SAPE  H19S16029   1.275   2.546   5.692 -0.3341 -0.0895 -0.2625
  146SAPE  C22016030   1.407   2.707   5.715 -0.1685  0.7910  0.3974
  146SAPE  H20R16031   1.338   2.751   5.640 -2.3879 -1.9733  0.6320
  146SAPE  H20S16032   1.502   2.676   5.667 -1.3333  0.3778 -1.7936
  146SAPE  H20T16033   1.426   2.781   5.795 -0.4531 -1.0673  2.2815
  146SAPE   C3316034   1.537   3.054   7.264  0.5622  0.1025  0.1901
  146SAPE   H3X16035   1.642   3.093   7.264  0.2879  0.8724  0.5217
  146SAPE   H3Y16036   1.477   3.096   7.347  0.6981  1.0987 -0.1972
  146SAPE   C3416037   1.467   3.085   7.127  0.2624  0.4828 -0.5842
  146SAPE   H4X16038   1.368   3.035   7.111  0.6972  0.1960 -2.6194
  146SAPE   H4Y16039   1.531   3.031   7.054  0.6265 -0.3190  0.3046
  146SAPE   C3516040   1.451   3.231   7.085 -0.0703  0.6320 -0.1089
  146SAPE   H5X16041   1.542   3.281   7.123  0.1761 -0.6070  0.9791
  146SAPE   H5Y16042   1.366   3.274   7.142 -0.3613 -0.9383  0.6875
  146SAPE   C3616043   1.428   3.235   6.933  0.3850 -0.2135  0.0950
  146SAPE   H6X16044   1.324   3.201   6.915  0.2890  0.4511 -0.6765
  146SAPE   H6Y16045   1.506   3.170   6.889  2.2687  0.2166  2.5332
  146SAPE   C3716046   1.456   3.375   6.859  0.0480  0.3135 -1.0187
  146SAPE   H7X16047   1.564   3.402   6.861  0.5945 -1.6980  0.6694
  146SAPE   H7Y16048   1.396   3.444   6.922  1.6132 -0.1358  1.0780
  146SAPE   C3816049   1.402   3.361   6.718 -0.5390 -0.4998  0.2541
  146SAPE   H8X16050   1.432   3.273   6.658  0.3392  0.3494 -0.6025
  146SAPE   H8Y16051   1.440   3.448   6.660  1.1182 -2.0861 -1.1616
  146SAPE   C3916052   1.244   3.370   6.706 -0.2013  0.0624 -0.3354
  146SAPE   H9X16053   1.215   3.457   6.768  0.2245 -1.5591  2.3145
  146SAPE   H9Y16054   1.182   3.283   6.739  0.4128 -0.6473 -1.0061
  146SAPE  C31016055   1.212   3.385   6.553  0.4553 -0.3700  0.0219
  146SAPE  H10X16056   1.262   3.306   6.493 -0.3320 -0.8061 -0.0851
  146SAPE  H10Y16057   1.254   3.480   6.515 -0.6067  0.8094  1.6640
  146SAPE  C31116058   1.061   3.405   6.527 -0.3763  0.1704  0.7604
  146SAPE  H11X16059   1.025   3.483   6.597  0.8468 -0.7928  2.5458
  146SAPE  H11Y16060   1.013   3.307   6.550  1.0229 -1.1273 -1.4218
  146SAPE  C31216061   1.033   3.446   6.379 -0.3800 -0.1084 -0.4955
  146SAPE  H12X16062   1.105   3.523   6.344 -1.0459  0.7776  0.0547
  146SAPE  H12Y16063   0.926   3.476   6.377 -0.3208  0.1395 -0.0760
  146SAPE  C31316064   1.047   3.333   6.276  0.0042 -0.1521  0.5149
  146SAPE  H13X16065   0.979   3.255   6.316 -0.7208  1.2508  2.1564
  146SAPE  H13Y16066   1.148   3.290   6.260 -1.1891 -2.1495 -2.4164
  146SAPE  C31416067   1.009   3.380   6.128  0.1397  0.4167 -0.4902
  146SAPE  H14X16068   1.080   3.462   6.100  1.2885 -1.0521 -2.0924
  146SAPE  H14Y16069   0.910   3.428   6.143 -0.4790 -1.4816  2.1685
  146SAPE  C31516070   1.009   3.261   6.028  0.1965  0.2315  0.0711
  146SAPE  H15X16071   0.956   3.291   5.935 -1.8823  2.4199  1.8332
  146SAPE  H15Y16072   0.946   3.180   6.069 -0.9847  1.2449  0.3017
  146SAPE  C31616073   1.150   3.204   6.005 -0.4268  0.0478  0.3827
  146SAPE  H16X16074   1.178   3.153   6.100 -3.0250  0.4585  1.4452
  146SAPE  H16Y16075   1.223   3.287   5.994  0.4820 -0.9047 -1.1232
  146SAPE  C31716076   1.170   3.114   5.879 -0.0521 -0.5420 -0.2528
  146SAPE  H17X16077   1.274   3.091   5.850  0.6031 -0.8475  2.1113
  146SAPE  H17Y16078   1.109   3.171   5.805 -3.0323 -1.2673  1.4746
  146SAPE  C31816079   1.083   2.992   5.904 -0.1154  0.5829  0.0757
  146SAPE  H18X16080   1.126   2.946   5.995  1.4533 -0.3529 -1.0958
  146SAPE  H18Y16081   1.092   2.920   5.820  1.0644 -0.8517  1.3634
  146SAPE  H18Z16082   0.976   3.023   5.909  0.1397  1.6749 -0.8149
  147SAPE     N16083   2.853   0.658   7.227 -0.1844 -0.2907 -0.0232
  147SAPE   HN116084   2.838   0.610   7.318  1.8828  1.1279  1.1148
  147SAPE   HN216085   2.895   0.588   7.162 -0.1117 -0.0732 -0.2115
  147SAPE   HN316086   2.914   0.741   7.231  1.4899 -1.4620 -0.1207
  147SAPE   C1216087   2.717   0.697   7.187  0.6058  0.0981  0.4146
  147SAPE  H12A16088   2.664   0.600   7.175  2.3170 -0.7145 -1.0870
  147SAPE  H12B16089   2.722   0.744   7.086 -0.2295  3.4746  1.7894
  147SAPE   C1116090   2.650   0.789   7.287 -0.4600 -0.0412  0.5072
  147SAPE  H11A16091   2.721   0.867   7.322  0.8779 -0.8706 -0.2619
  147SAPE  H11B16092   2.629   0.733   7.381 -1.4008 -0.6247 -0.0407
  147SAPE     P16093   2.401   0.782   7.189  0.1404  0.1781 -0.2906
  147SAPE   O1316094   2.428   0.637   7.157 -0.6091  0.6411  0.3320
  147SAPE   O1416095   2.300   0.819   7.286  0.0268 -0.4293 -0.1347
  147SAPE   O1216096   2.535   0.855   7.239 -0.2889  0.5754  0.6580
  147SAPE   O1116097   2.380   0.847   7.050 -0.2750  0.0696  0.0857
  147SAPE    C116098   2.437   0.973   7.007  0.0650 -0.2547 -0.1076
  147SAPE    HA16099   2.535   0.997   7.053  0.2854 -0.1039 -0.6394
  147SAPE    HB16100   2.456   0.978   6.897 -0.1711  2.3036 -0.0787
  147SAPE    C216101   2.333   1.090   7.032  0.7225  0.8902 -0.2661
  147SAPE    HS16102   2.289   1.058   7.129  0.7909  0.1665 -0.4633
  147SAPE   O2116103   2.227   1.087   6.937  0.1413  0.3015  0.1820
  147SAPE   C2116104   2.118   1.142   6.989 -0.0043 -0.6312 -0.1808
  147SAPE   O2216105   2.102   1.190   7.100  0.8867  0.4255  0.3761
  147SAPE   C2216106   2.010   1.116   6.877  0.1724  0.3111  0.5525
  147SAPE   H2R16107   2.065   1.106   6.781  0.8461 -0.7058  1.0262
  147SAPE   H2S16108   1.960   1.018   6.890  3.4841 -1.4150  1.2152
  147SAPE    C316109   2.404   1.228   7.046 -0.7957 -0.1585  0.2369
  147SAPE    HX16110   2.478   1.224   7.129 -1.6365 -0.9578  0.9684
  147SAPE    HY16111   2.325   1.296   7.084 -0.8113 -0.1907  0.2625
  147SAPE   O3116112   2.463   1.272   6.920 -0.1968 -0.1654  0.7532
  147SAPE   C3116113   2.389   1.364   6.860 -0.0992  0.1879  0.8195
  147SAPE   O3216114   2.282   1.415   6.886 -0.0707 -0.4799 -0.2854
  147SAPE   C3216115   2.455   1.404   6.725 -0.3843  0.0909 -0.1164
  147SAPE   H2X16116   2.558   1.426   6.759  0.2363  0.1759 -1.9545
  147SAPE   H2Y16117   2.399   1.489   6.680 -1.7317 -1.2418 -1.1024
  147SAPE   C2316118   1.909   1.236   6.865 -0.1782 -0.4902 -0.7016
  147SAPE   H3R16119   1.960   1.334   6.856 -0.2385 -0.5802 -2.1103
  147SAPE   H3S16120   1.835   1.247   6.948 -1.8772 -1.1384 -2.0562
  147SAPE   C2416121   1.825   1.222   6.736  0.1282  0.1680 -0.1065
  147SAPE   H4R16122   1.766   1.316   6.737 -0.2676 -0.0445  2.3327
  147SAPE   H4S16123   1.761   1.132   6.746  0.8889 -0.4264 -0.4710
  147SAPE   C2516124   1.904   1.216   6.601  0.3923 -0.0219  0.1465
  147SAPE   H5R16125   2.012   1.232   6.613  0.3204 -0.7016  2.0753
  147SAPE   C2616126   1.847   1.189   6.484  0.3815 -0.1015  0.3833
  147SAPE   H6R16127   1.912   1.173   6.397 -0.1316 -2.5109  0.3741
  147SAPE   C2716128   1.702   1.157   6.464  0.1694  0.1461 -0.1151
  147SAPE   H7R16129   1.664   1.089   6.543  0.6341 -1.3885 -1.1626
  147SAPE   H7S16130   1.683   1.104   6.368  2.3280 -0.2244 -0.3918
  147SAPE   C2816131   1.605   1.275   6.467  0.5049 -0.2534  0.5751
  147SAPE   H8R16132   1.561   1.289   6.566 -0.7910 -1.9420  0.2931
  147SAPE   C2916133   1.573   1.355   6.368 -1.0918  0.2711  0.0986
  147SAPE   H9R16134   1.502   1.436   6.392 -0.4280 -0.1205  3.9109
  147SAPE  C21016135   1.627   1.349   6.229 -0.4518  0.1995 -0.8226
  147SAPE  H10R16136   1.618   1.243   6.197 -0.6807 -0.0712  0.1203
  147SAPE  H10S16137   1.734   1.378   6.228 -0.6212  0.8717 -2.5026
  147SAPE  C21116138   1.549   1.442   6.133  0.0184  0.1118 -0.2639
  147SAPE  H11R16139   1.504   1.532   6.177 -1.7364 -0.1636 -1.3959
  147SAPE  C21216140   1.540   1.420   6.002 -0.2885  0.1730  0.2187
  147SAPE  H12R16141   1.480   1.491   5.944 -1.1782 -0.9480 -0.2787
  147SAPE  C21316142   1.606   1.308   5.923  0.1700 -0.1455 -0.2451
  147SAPE  H13R16143   1.531   1.227   5.913  1.9179 -2.5576  3.5252
  147SAPE  H13S16144   1.691   1.270   5.984  1.1330  1.7531 -0.3392
  147SAPE  C21416145   1.660   1.356   5.790  0.3082 -0.0796 -0.8962
  147SAPE  H14R16146   1.760   1.400   5.802 -0.3523  1.3639 -0.5265
  147SAPE  C21516147   1.604   1.340   5.674 -0.0821 -0.1252 -0.3140
  147SAPE  H15R16148   1.652   1.374   5.581  0.1000  0.0618 -0.1501
  147SAPE  C21616149   1.469   1.265   5.654  0.3376 -1.1880  0.7597
  147SAPE  H16R16150   1.390   1.271   5.732 -1.9737 -0.3137 -1.5028
  147SAPE  H16S16151   1.490   1.158   5.636 -2.7841 -1.7129 -0.3776
  147SAPE  C21716152   1.410   1.330   5.537 -0.1561 -0.6200  0.4284
  147SAPE  H17R16153   1.314   1.277   5.521  0.4691 -1.5563 -0.3578
  147SAPE  H17S16154   1.475   1.310   5.450  2.8615  2.0137  1.8769
  147SAPE  C21816155   1.389   1.486   5.543 -0.1722 -0.8451 -0.5306
  147SAPE  H18R16156   1.479   1.549   5.558 -2.0973  2.3771 -1.4274
  147SAPE  H18S16157   1.337   1.499   5.640 -0.1554 -4.1337  0.0524
  147SAPE  C21916158   1.303   1.537   5.424  0.3805  0.1263  0.0009
  147SAPE  H19R16159   1.198   1.501   5.429  0.1203  0.4726 -2.1981
  147SAPE  H19S16160   1.354   1.482   5.342  3.0753 -1.7331  2.6726
  147SAPE  C22016161   1.302   1.686   5.391 -0.4377  0.1831  0.7439
  147SAPE  H20R16162   1.233   1.738   5.459  0.9905  0.8765  1.7093
  147SAPE  H20S16163   1.285   1.713   5.284 -2.8570 -0.6775  0.8450
  147SAPE  H20T16164   1.396   1.724   5.436  0.1357 -0.1433 -0.1306
  147SAPE   C3316165   2.463   1.280   6.626 -0.4658  0.7759  0.0384
  147SAPE   H3X16166   2.516   1.194   6.672  0.4684  1.9570  1.2225
  147SAPE   H3Y16167   2.534   1.318   6.549  0.5515  0.7520  0.9348
  147SAPE   C3416168   2.327   1.232   6.567  0.0393 -0.5248 -0.2602
  147SAPE   H4X16169   2.279   1.320   6.519  0.4775 -0.3298 -0.3539
  147SAPE   H4Y16170   2.249   1.197   6.637 -1.2816  0.5700 -1.1288
  147SAPE   C3516171   2.351   1.129   6.457  0.2199 -0.4556  0.1614
  147SAPE   H5X16172   2.367   1.029   6.502 -0.4550 -1.4580 -1.7269
  147SAPE   H5Y16173   2.444   1.149   6.399  0.9820 -3.1514  0.3182
  147SAPE   C3616174   2.240   1.138   6.345 -0.2167  0.2442  0.5128
  147SAPE   H6X16175   2.189   1.236   6.341  0.5832  0.6238 -1.2809
  147SAPE   H6Y16176   2.158   1.074   6.385 -0.6082  1.4668  1.7336
  147SAPE   C3716177   2.286   1.091   6.205 -0.5114 -0.2974  1.2999
  147SAPE   H7X16178   2.305   0.981   6.210  0.8600 -0.2220 -0.8507
  147SAPE   H7Y16179   2.378   1.135   6.161 -1.3642  0.2676  0.0300
  147SAPE   C3816180   2.178   1.098   6.097  0.2935 -0.3503  0.6976
  147SAPE   H8X16181   2.229   1.079   6.000 -2.5868  1.0134 -1.2006
  147SAPE   H8Y16182   2.145   1.203   6.089  1.8184  0.2824  2.1051
  147SAPE   C3916183   2.065   1.001   6.134 -0.4956  0.3925  0.0912
  147SAPE   H9X16184   2.020   1.020   6.234 -1.8152 -0.5938 -0.2864
  147SAPE   H9Y16185   2.109   0.899   6.131  2.0108  1.3775  0.5116
  147SAPE  C31016186   1.950   1.017   6.031  0.0971 -0.0964  0.8109
  147SAPE  H10X16187   1.908   1.119   6.040  1.7545  0.8740 -1.5979
  147SAPE  H10Y16188   1.879   0.939   6.067 -0.0645 -0.2488  0.1610
  147SAPE  C31116189   1.994   0.998   5.883 -0.7471  0.4948 -0.3711
  147SAPE  H11X16190   2.047   0.900   5.882  0.8138  1.3071 -1.0700
  147SAPE  H11Y16191   2.058   1.080   5.844 -0.3668  1.0585  1.3633
  147SAPE  C31216192   1.867   0.981   5.798  0.1108 -0.2242  0.2132
  147SAPE  H12X16193   1.803   1.071   5.805 -1.1375 -1.0095 -0.7018
  147SAPE  H12Y16194   1.799   0.907   5.845 -0.4033  0.2197  0.1779
  147SAPE  C31316195   1.895   0.953   5.647  0.1941 -0.3793 -0.6022
  147SAPE  H13X16196   1.953   0.859   5.640 -1.4988 -1.5997  0.6730
  147SAPE  H13Y16197   1.965   1.038   5.630  2.9531 -2.2036  0.9549
  147SAPE  C31416198   1.774   0.950   5.561  0.7077 -0.4647  0.3408
  147SAPE  H14X16199   1.708   1.032   5.594  0.0440 -1.0833  0.5745
  147SAPE  H14Y16200   1.712   0.857   5.561 -0.3869  0.2386  1.1186
  147SAPE  C31516201   1.803   0.986   5.416 -0.0545 -0.1278  0.4514
  147SAPE  H15X16202   1.807   0.899   5.347 -2.8655  2.2950 -3.1831
  147SAPE  H15Y16203   1.904   1.033   5.413 -0.3689  0.5696  0.3860
  147SAPE  C31616204   1.698   1.093   5.374 -0.1005  0.3339 -0.1136
  147SAPE  H16X16205   1.702   1.181   5.441 -2.5356  0.6067 -0.2579
  147SAPE  H16Y16206   1.601   1.042   5.361 -0.2526  0.6480 -0.2393
  147SAPE  C31716207   1.726   1.160   5.240 -0.2036 -0.0827  0.1185
  147SAPE  H17X16208   1.741   1.068   5.180 -4.3027 -0.2012 -1.0435
  147SAPE  H17Y16209   1.811   1.231   5.240 -0.0621 -0.2498  0.2530
  147SAPE  C31816210   1.601   1.218   5.179  0.0253  0.6234  0.4378
  147SAPE  H18X16211   1.563   1.313   5.222 -0.1018  1.0886 -0.6519
  147SAPE  H18Y16212   1.520   1.144   5.198 -0.0229  1.1389  2.4449
  147SAPE  H18Z16213   1.619   1.242   5.072 -0.4040 -1.6920 -0.2255
  148SAPE     N16214   6.414   1.805   8.097 -0.1145 -0.2374  0.1699
  148SAPE   HN116215   6.482   1.745   8.046  0.4512  0.1076  0.4963
  148SAPE   HN216216   6.441   1.906   8.096 -1.4523  0.1335  0.2213
  148SAPE   HN316217   6.403   1.776   8.196  0.7678  0.0630  0.3683
  148SAPE   C1216218   6.285   1.816   8.020  0.1258 -0.3733 -0.3825
  148SAPE  H12A16219   6.226   1.899   8.065 -0.4918 -0.4391 -1.0444
  148SAPE  H12B16220   6.229   1.721   8.036  0.0473 -0.0918  1.1161
  148SAPE   C1116221   6.313   1.844   7.874 -0.6372  0.1974  0.7005
  148SAPE  H11A16222   6.385   1.928   7.862  1.1148 -1.4781 -1.2493
  148SAPE  H11B16223   6.222   1.872   7.816 -0.6376 -3.2775 -1.2403
  148SAPE     P16224   6.285   1.624   7.745  0.1251  0.3589  0.0443
  148SAPE   O1316225   6.362   1.505   7.710 -0.3459 -0.2448  0.0954
  148SAPE   O1416226   6.169   1.597   7.826  0.4958 -0.4369 -0.5181
  148SAPE   O1216227   6.380   1.731   7.819  0.1726 -0.0052  0.7785
  148SAPE   O1116228   6.240   1.694   7.610 -0.1550  0.1833 -0.6614
  148SAPE    C116229   6.321   1.792   7.536 -0.1312 -0.3288 -0.6997
  148SAPE    HA16230   6.414   1.804   7.596 -0.0968  0.8353 -0.9630
  148SAPE    HB16231   6.354   1.758   7.435  0.7231 -0.9327 -0.2367
  148SAPE    C216232   6.245   1.928   7.525  0.1436 -0.4841 -0.0724
  148SAPE    HS16233   6.230   1.965   7.629  1.9554  0.2938 -0.0312
  148SAPE   O2116234   6.124   1.910   7.447 -0.5885  0.4376  0.0889
  148SAPE   C2116235   6.013   1.911   7.510  0.0127 -0.4868 -1.1351
  148SAPE   O2216236   5.996   1.929   7.630  0.7596 -0.2531  0.4152
  148SAPE   C2216237   5.903   1.890   7.406 -0.1640 -0.6196  0.1926
  148SAPE   H2R16238   5.924   1.965   7.326 -0.1464 -3.0936 -2.2863
  148SAPE   H2S16239   5.910   1.788   7.361 -1.8690 -0.2838 -0.9277
  148SAPE    C316240   6.336   2.042   7.467  0.8177 -0.8459  0.2667
  148SAPE    HX16241   6.424   2.035   7.535  0.6834 -0.9178  0.4324
  148SAPE    HY16242   6.277   2.136   7.467  1.2774 -0.4607 -2.1683
  148SAPE   O3116243   6.374   2.017   7.329 -0.7343  0.4037  0.4154
  148SAPE   C3116244   6.482   2.071   7.284  0.2024 -0.8339  0.2921
  148SAPE   O3216245   6.546   2.154   7.353  0.0891  0.3063  0.4442
  148SAPE   C3216246   6.529   2.020   7.145 -0.7047  0.0174  0.2365
  148SAPE   H2X16247   6.582   1.924   7.163 -0.8002 -0.0117  0.3619
  148SAPE   H2Y16248   6.620   2.074   7.112  0.9835 -2.1526  1.0785
  148SAPE   C2316249   5.765   1.903   7.457  0.4479  0.6894  0.5311
  148SAPE   H3R16250   5.748   2.013   7.453 -3.3255  0.2058 -1.8074
  148SAPE   H3S16251   5.769   1.882   7.566 -3.1188  0.3342  0.7152
  148SAPE   C2416252   5.660   1.826   7.381 -0.2736 -0.0384  0.0030
  148SAPE   H4R16253   5.688   1.718   7.375 -3.1746 -0.7792 -3.1658
  148SAPE   H4S16254   5.675   1.864   7.278 -0.0016 -0.0099  0.0513
  148SAPE   C2516255   5.526   1.859   7.440 -0.1971 -0.0723 -0.3140
  148SAPE   H5R16256   5.522   1.839   7.548  1.9392 -2.2520 -0.5515
  148SAPE   C2616257   5.418   1.906   7.378  0.8425 -0.2791 -0.5461
  148SAPE   H6R16258   5.327   1.932   7.434  1.9935  1.3053  0.6817
  148SAPE   C2716259   5.405   1.936   7.231 -0.3933 -0.1087  0.4567
  148SAPE   H7R16260   5.449   2.037   7.215 -2.8717  0.8641 -0.7956
  148SAPE   H7S16261   5.297   1.956   7.212 -0.2291 -0.7412 -1.4237
  148SAPE   C2816262   5.451   1.835   7.130  0.5799 -0.1693  0.5918
  148SAPE   H8R16263   5.445   1.729   7.158  1.2385 -0.5534 -0.6644
  148SAPE   C2916264   5.502   1.861   7.005 -0.6967  0.0771  0.1974
  148SAPE   H9R16265   5.548   1.779   6.947 -1.0511 -0.0085  0.0321
  148SAPE  C21016266   5.524   2.003   6.951 -0.7302 -0.2014 -0.7594
  148SAPE  H10R16267   5.562   2.073   7.028 -3.1638  1.7708 -1.2399
  148SAPE  H10S16268   5.426   2.045   6.920 -0.7326  0.2447 -0.1488
  148SAPE  C21116269   5.615   1.998   6.827  0.1542  0.3152 -0.7986
  148SAPE  H11R16270   5.723   1.997   6.849  0.0059  0.8915  0.0386
  148SAPE  C21216271   5.578   2.000   6.699 -0.3405 -0.1387 -0.1118
  148SAPE  H12R16272   5.660   2.015   6.627 -0.7644  1.1892 -0.3559
  148SAPE  C21316273   5.435   2.006   6.653 -0.4665  0.4428  0.5845
  148SAPE  H13R16274   5.377   1.964   6.737 -0.1608  2.0275  1.6288
  148SAPE  H13S16275   5.420   1.945   6.561 -2.8767  2.7765 -0.7092
  148SAPE  C21416276   5.378   2.146   6.640 -0.5273  0.0432  0.4174
  148SAPE  H14R16277   5.447   2.232   6.633 -1.2649  0.6063 -0.1503
  148SAPE  C21516278   5.248   2.183   6.639 -0.4720  0.6604  0.2174
  148SAPE  H15R16279   5.219   2.289   6.645 -3.6800 -0.0887 -0.4290
  148SAPE  C21616280   5.138   2.087   6.626  0.2029 -0.1230 -0.2336
  148SAPE  H16R16281   5.076   2.097   6.718  0.6553 -1.4797  0.2505
  148SAPE  H16S16282   5.183   1.986   6.630  3.1482  1.0969  0.0478
  148SAPE  C21716283   5.053   2.117   6.498 -0.4561 -0.2502 -0.4475
  148SAPE  H17R16284   5.019   2.223   6.493 -1.3534 -0.4431  0.9190
  148SAPE  H17S16285   4.961   2.055   6.504 -0.8988  0.4281 -0.0707
  148SAPE  C21816286   5.136   2.079   6.379  0.6212 -0.7173  1.1095
  148SAPE  H18R16287   5.179   1.978   6.391 -0.5131 -1.6136 -1.6115
  148SAPE  H18S16288   5.221   2.149   6.367  0.7071 -0.6746  1.9323
  148SAPE  C21916289   5.050   2.076   6.249 -0.3753  0.4263 -0.4361
  148SAPE  H19R16290   4.974   1.996   6.265 -0.6659  0.4154 -1.8025
  148SAPE  H19S16291   5.117   2.030   6.173 -0.3269 -1.0792  0.4716
  148SAPE  C22016292   4.990   2.211   6.198  0.0231 -0.1259 -0.6893
  148SAPE  H20R16293   4.949   2.270   6.283 -2.1532  0.1528 -1.8384
  148SAPE  H20S16294   4.910   2.200   6.122 -0.6542 -1.2251  0.1456
  148SAPE  H20T16295   5.078   2.267   6.161  0.4436 -1.8520 -2.4723
  148SAPE   C3316296   6.416   2.020   7.038 -0.0168  0.7488  0.2304
  148SAPE   H3X16297   6.324   1.965   7.069  0.3290  0.1041  0.1141
  148SAPE   H3Y16298   6.459   1.953   6.961  3.2514  1.3468  1.3881
  148SAPE   C3416299   6.391   2.159   6.984  0.1582  1.1224 -0.5008
  148SAPE   H4X16300   6.480   2.221   7.006  0.5157  0.0841  1.1378
  148SAPE   H4Y16301   6.305   2.198   7.043  0.0259  0.0109  0.0600
  148SAPE   C3516302   6.362   2.173   6.834  0.5880 -0.0467 -0.0395
  148SAPE   H5X16303   6.355   2.282   6.816 -3.2369 -0.3001 -1.0515
  148SAPE   H5Y16304   6.260   2.132   6.815  0.8701 -0.3134 -1.0365
  148SAPE   C3616305   6.472   2.120   6.745  0.2040 -0.1652 -0.1778
  148SAPE   H6X16306   6.464   2.009   6.737 -0.2643 -0.1566  0.1623
  148SAPE   H6Y16307   6.577   2.132   6.780  0.7173  0.3509 -1.7992
  148SAPE   C3716308   6.460   2.174   6.599 -0.1885 -0.0664 -0.6076
  148SAPE   H7X16309   6.504   2.276   6.599  2.0607 -0.9547  0.5776
  148SAPE   H7Y16310   6.353   2.184   6.572 -0.4253  0.8549  0.5655
  148SAPE   C3816311   6.544   2.084   6.496 -0.0806 -0.1641 -0.3497
  148SAPE   H8X16312   6.502   1.981   6.492 -0.2378 -0.0704 -2.0708
  148SAPE   H8Y16313   6.649   2.075   6.530  0.2361  0.6427 -1.0791
  148SAPE   C3916314   6.539   2.167   6.361  0.3865  0.0623  0.0174
  148SAPE   H9X16315   6.606   2.254   6.381 -0.3573  0.7949 -0.5901
  148SAPE   H9Y16316   6.439   2.214   6.350  0.7212  1.1299  1.2728
  148SAPE  C31016317   6.587   2.099   6.233  0.1607 -0.2361  0.6895
  148SAPE  H10X16318   6.692   2.131   6.215 -0.5291  1.9153  0.2182
  148SAPE  H10Y16319   6.526   2.152   6.157 -0.1256 -1.0360  0.3464
  148SAPE  C31116320   6.560   1.951   6.213  0.1702  0.1687 -0.2443
  148SAPE  H11X16321   6.453   1.936   6.240 -0.2774  2.0690 -0.7831
  148SAPE  H11Y16322   6.615   1.885   6.283 -0.7066 -1.3467 -0.9147
  148SAPE  C31216323   6.595   1.903   6.068  0.1905 -0.4198  0.5183
  148SAPE  H12X16324   6.561   1.798   6.060 -1.2101  0.0044  0.6374
  148SAPE  H12Y16325   6.705   1.904   6.051  0.4440 -0.6072  2.0398
  148SAPE  C31316326   6.525   1.968   5.947  0.6120 -0.5506 -0.1833
  148SAPE  H13X16327   6.567   2.071   5.937 -0.0599 -0.3347 -0.8422
  148SAPE  H13Y16328   6.422   1.989   5.983  1.3995  0.3053  1.7167
  148SAPE  C31416329   6.537   1.899   5.808  0.3230 -0.8296 -0.5319
  148SAPE  H14X16330   6.489   1.799   5.814  1.2101 -1.2510 -0.2962
  148SAPE  H14Y16331   6.647   1.888   5.791  0.6289  0.7837  0.1869
  148SAPE  C31516332   6.484   1.995   5.699  0.5348  1.1427  0.0832
  148SAPE  H15X16333   6.540   2.089   5.679 -0.0958  1.4672 -0.2159
  148SAPE  H15Y16334   6.384   2.029   5.733  0.4866  1.6439 -0.5260
  148SAPE  C31616335   6.472   1.927   5.563  0.4067  0.2426  0.0544
  148SAPE  H16X16336   6.392   1.852   5.580  0.7761 -0.4757 -1.1870
  148SAPE  H16Y16337   6.564   1.871   5.536  0.6852 -0.0467  1.5178
  148SAPE  C31716338   6.434   2.023   5.447  0.2044 -0.7545 -0.1023
  148SAPE  H17X16339   6.527   2.081   5.428 -0.6948  0.2381 -1.6631
  148SAPE  H17Y16340   6.361   2.099   5.480  0.7783  0.1584 -0.9051
  148SAPE  C31816341   6.388   1.956   5.321  0.9974 -0.1739 -0.7853
  148SAPE  H18X16342   6.309   1.878   5.329  0.8351  0.0297 -0.4074
  148SAPE  H18Y16343   6.467   1.893   5.274  1.3296 -0.5429  0.2496
  148SAPE  H18Z16344   6.347   2.033   5.252  0.8282 -0.7420 -1.3337
  149SAPE     N16345   0.725   4.864   8.055 -0.3522  0.2103  0.3562
  149SAPE   HN116346   0.765   4.815   8.138  1.8826 -2.3730 -2.0356
  149SAPE   HN216347   0.762   4.962   8.055  1.0097 -0.2819 -0.1255
  149SAPE   HN316348   0.622   4.874   8.062 -0.1640  1.3748  2.0325
  149SAPE   C1216349   0.751   4.793   7.928  0.1471 -0.5511 -0.0330
  149SAPE  H12A16350   0.716   4.687   7.925  1.0114 -0.8229 -1.0234
  149SAPE  H12B16351   0.862   4.795   7.923  0.1715  1.5451  0.6407
  149SAPE   C1116352   0.698   4.877   7.806 -0.0723 -0.0210 -0.0713
  149SAPE  H11A16353   0.739   4.832   7.712  0.8061  0.5387  0.0294
  149SAPE  H11B16354   0.728   4.982   7.828 -0.9421  0.1856  0.1542
  149SAPE     P16355   0.474   4.922   7.685 -0.1401 -0.0063  0.2044
  149SAPE   O1316356   0.328   4.905   7.708 -0.3014  0.1470  0.2127
  149SAPE   O1416357   0.519   5.061   7.653 -0.4651  0.2626  0.0740
  149SAPE   O1216358   0.557   4.855   7.807 -0.0861 -0.1545  0.4402
  149SAPE   O1116359   0.521   4.821   7.565 -0.2989 -0.6430  0.0868
  149SAPE    C116360   0.458   4.822   7.444  0.7984 -0.4617  0.2281
  149SAPE    HA16361   0.396   4.731   7.430  0.3834 -0.0622 -0.5522
  149SAPE    HB16362   0.398   4.914   7.425  2.9036  0.9274 -0.0576
  149SAPE    C216363   0.566   4.822   7.338 -0.0494  0.2355 -0.5630
  149SAPE    HS16364   0.518   4.850   7.242 -0.2943  3.9115  0.4846
  149SAPE   O2116365   0.620   4.686   7.327  0.0548  0.5549 -0.0296
  149SAPE   C2116366   0.670   4.652   7.215  0.3756 -0.0782 -0.1441
  149SAPE   O2216367   0.674   4.713   7.109 -0.1534 -0.1122 -0.2911
  149SAPE   C2216368   0.727   4.511   7.249  0.1189  0.1156 -0.7215
  149SAPE   H2R16369   0.790   4.516   7.341 -0.0763  0.2481 -0.5955
  149SAPE   H2S16370   0.641   4.442   7.267  0.6529 -0.3806 -0.0126
  149SAPE    C316371   0.689   4.921   7.364  0.2743 -0.4335  0.3126
  149SAPE    HX16372   0.759   4.875   7.437  1.8103  1.7356  0.2952
  149SAPE    HY16373   0.661   5.015   7.416 -2.6380 -1.4826  0.8353
  149SAPE   O3116374   0.761   4.955   7.246  0.1498  0.4096 -0.3283
  149SAPE   C3116375   0.712   5.034   7.164  0.1774 -0.5215  0.1532
  149SAPE   O3216376   0.611   5.104   7.169  0.2756 -0.2657 -0.5038
  149SAPE   C3216377   0.803   5.044   7.043 -0.0094 -0.1734 -0.2329
  149SAPE   H2X16378   0.754   4.971   6.974 -1.4195 -0.4064  0.9668
  149SAPE   H2Y16379   0.905   5.010   7.069  0.2477  1.0688  0.5008
  149SAPE   C2316380   0.831   4.464   7.143  0.6008 -0.1730 -0.5445
  149SAPE   H3R16381   0.890   4.386   7.196  0.2412 -1.9012 -2.5357
  149SAPE   H3S16382   0.901   4.548   7.125  1.2405 -0.4176  0.6988
  149SAPE   C2416383   0.760   4.400   7.018 -0.3139  1.1103 -0.0163
  149SAPE   H4R16384   0.661   4.367   7.057 -0.2227 -0.5348 -1.0410
  149SAPE   H4S16385   0.818   4.310   6.985 -1.8662  0.2853 -0.6038
  149SAPE   C2516386   0.745   4.499   6.905 -0.1458 -0.1312  0.0866
  149SAPE   H5R16387   0.759   4.603   6.940  0.6766  0.7720 -2.6720
  149SAPE   C2616388   0.729   4.469   6.779 -0.5595 -0.4670  0.0227
  149SAPE   H6R16389   0.715   4.545   6.701 -2.2455 -0.0423  0.7081
  149SAPE   C2716390   0.704   4.329   6.726  0.3093  0.4047 -0.5090
  149SAPE   H7R16391   0.648   4.340   6.631  1.3760  4.7576 -0.8616
  149SAPE   H7S16392   0.647   4.266   6.797  0.8215 -1.4236 -1.6648
  149SAPE   C2816393   0.846   4.263   6.692 -0.4400  0.3760  0.4956
  149SAPE   H8R16394   0.919   4.286   6.772  0.4148 -0.3090 -0.0661
  149SAPE   C2916395   0.882   4.192   6.585  0.2858 -0.0231 -0.2426
  149SAPE   H9R16396   0.981   4.150   6.565 -0.2152 -0.3994 -2.1428
  149SAPE  C21016397   0.793   4.136   6.475  0.1691 -0.4312 -0.2426
  149SAPE  H10R16398   0.692   4.116   6.517 -1.6357  1.8974 -3.0557
  149SAPE  H10S16399   0.823   4.034   6.444 -1.7569 -1.1728  0.1789
  149SAPE  C21116400   0.777   4.235   6.365 -0.1642  0.6927  1.1459
  149SAPE  H11R16401   0.775   4.341   6.394 -0.1795  0.4326  2.1120
  149SAPE  C21216402   0.757   4.200   6.235  0.1876 -0.4239  0.0055
  149SAPE  H12R16403   0.744   4.281   6.161  0.1772 -0.7941 -0.4020
  149SAPE  C21316404   0.729   4.063   6.177 -0.3818  0.0607 -0.9478
  149SAPE  H13R16405   0.648   4.015   6.237  0.0826  0.3425 -0.0756
  149SAPE  H13S16406   0.813   3.990   6.181  0.2657  0.8243 -0.1227
  149SAPE  C21416407   0.689   4.083   6.035 -0.1295 -0.2138 -0.3716
  149SAPE  H14R16408   0.588   4.123   6.022 -1.3752 -3.5677 -2.4614
  149SAPE  C21516409   0.749   4.049   5.918  0.0107  0.1649 -0.6024
  149SAPE  H15R16410   0.697   4.064   5.822  1.5203 -1.7079 -1.7903
  149SAPE  C21616411   0.880   3.985   5.924  0.7609 -0.0833  0.3351
  149SAPE  H16R16412   0.883   3.883   5.968  0.0302 -0.4320 -0.4031
  149SAPE  H16S16413   0.942   4.048   5.992  0.7329 -0.0755  0.3537
  149SAPE  C21716414   0.940   3.972   5.778 -0.0828  0.3068 -0.2051
  149SAPE  H17R16415   0.910   4.058   5.714 -1.3024 -0.8952 -1.2920
  149SAPE  H17S16416   0.899   3.881   5.730 -0.5707  0.4478 -0.0588
  149SAPE  C21816417   1.092   3.973   5.785  0.1246 -0.6293 -0.4670
  149SAPE  H18R16418   1.136   3.874   5.813  0.3444 -0.1299  1.0430
  149SAPE  H18S16419   1.124   4.047   5.861 -1.9516  1.2225 -1.2689
  149SAPE  C21916420   1.146   4.024   5.652 -0.0806 -0.2360 -0.3028
  149SAPE  H19R16421   1.254   4.041   5.671 -0.0383  1.4874 -1.8258
  149SAPE  H19S16422   1.107   4.121   5.616  0.2800  0.2674  0.6160
  149SAPE  C22016423   1.149   3.915   5.548  0.2138  0.2964  0.7994
  149SAPE  H20R16424   1.183   3.950   5.448 -1.8800  0.7955  0.2100
  149SAPE  H20S16425   1.043   3.888   5.531 -0.2112  1.4230  1.5830
  149SAPE  H20T16426   1.214   3.830   5.578 -1.0430  0.1306  3.2942
  149SAPE   C3316427   0.797   5.186   6.991 -0.4265 -0.5292  0.3453
  149SAPE   H3X16428   0.859   5.256   7.051 -0.1771 -0.3978 -0.0628
  149SAPE   H3Y16429   0.696   5.232   6.998  0.6160  1.9753 -0.0458
  149SAPE   C3416430   0.840   5.191   6.847  0.1832 -0.1074 -0.1482
  149SAPE   H4X16431   0.861   5.091   6.803  0.8896  0.8494 -2.1211
  149SAPE   H4Y16432   0.943   5.233   6.845  0.6114 -1.1572 -0.6297
  149SAPE   C3516433   0.738   5.251   6.751  0.5677 -0.0126 -0.4580
  149SAPE   H5X16434   0.732   5.361   6.764 -2.2785 -0.2982  1.8138
  149SAPE   H5Y16435   0.640   5.209   6.783  1.4518 -1.8151 -0.0291
  149SAPE   C3616436   0.774   5.216   6.614  0.5197  0.0760  0.2552
  149SAPE   H6X16437   0.758   5.107   6.599 -0.2530 -0.3561  3.5759
  149SAPE   H6Y16438   0.882   5.221   6.587  0.7330  3.7482  1.2987
  149SAPE   C3716439   0.692   5.300   6.516 -0.0594  0.1868 -0.0671
  149SAPE   H7X16440   0.734   5.402   6.505 -0.4435  0.4877  1.0382
  149SAPE   H7Y16441   0.583   5.293   6.537  0.2895 -1.7897  1.3984
  149SAPE   C3816442   0.722   5.238   6.383 -0.0835  0.7911  0.2350
  149SAPE   H8X16443   0.691   5.131   6.379  0.7863  0.5328  0.1360
  149SAPE   H8Y16444   0.832   5.241   6.371  0.1694 -1.0652  1.6357
  149SAPE   C3916445   0.646   5.312   6.266 -0.0022 -0.3952 -0.6543
  149SAPE   H9X16446   0.685   5.416   6.258  1.1067 -0.9344 -4.3408
  149SAPE   H9Y16447   0.538   5.310   6.292  0.2676  0.6992  0.6410
  149SAPE  C31016448   0.661   5.253   6.132 -0.3958  0.1784 -0.3418
  149SAPE  H10X16449   0.621   5.150   6.123  1.1737 -0.4996  0.2227
  149SAPE  H10Y16450   0.767   5.232   6.109 -0.2602 -1.2825  1.4375
  149SAPE  C31116451   0.600   5.331   6.013  0.6011  0.1580  0.1422
  149SAPE  H11X16452   0.677   5.382   5.951 -0.8708  1.4568 -0.6954
  149SAPE  H11Y16453   0.526   5.405   6.052 -1.0693 -0.1088 -2.2926
  149SAPE  C31216454   0.517   5.238   5.911  0.3630  0.2183 -0.3666
  149SAPE  H12X16455   0.461   5.313   5.851 -1.2613 -1.4139 -0.9814
  149SAPE  H12Y16456   0.439   5.173   5.958  0.8354  1.0599  1.7249
  149SAPE  C31316457   0.600   5.150   5.810  0.2425  0.3876  0.4515
  149SAPE  H13X16458   0.632   5.053   5.854  1.2265  0.2742 -0.4837
  149SAPE  H13Y16459   0.681   5.216   5.772 -1.2426  1.3298 -1.2015
  149SAPE  C31416460   0.512   5.120   5.687  0.1447  0.0187  0.6593
  149SAPE  H14X16461   0.469   5.211   5.640 -1.8205 -0.7478  0.8661
  149SAPE  H14Y16462   0.429   5.054   5.720  1.2210 -1.0869  1.1998
  149SAPE  C31516463   0.609   5.056   5.581  1.5334 -0.1624  0.0300
  149SAPE  H15X16464   0.657   4.970   5.632  1.5081 -0.2589 -0.1063
  149SAPE  H15Y16465   0.686   5.125   5.541  0.5950 -0.7122 -2.9822
  149SAPE  C31616466   0.532   4.991   5.461  0.4769  0.2554  0.2681
  149SAPE  H16X16467   0.447   4.933   5.501 -0.4759  1.8258  0.5994
  149SAPE  H16Y16468   0.602   4.915   5.420  0.3659  1.0901 -1.5599
  149SAPE  C31716469   0.491   5.087   5.351  0.3375 -0.2346  0.9487
  149SAPE  H17X16470   0.457   5.186   5.388 -2.0179 -0.6915  0.1554
  149SAPE  H17Y16471   0.405   5.044   5.296  1.2939 -0.5065 -0.3697
  149SAPE  C31816472   0.599   5.114   5.247 -0.5604 -0.5404  0.1935
  149SAPE  H18X16473   0.640   5.023   5.198 -1.7884  0.4132 -2.8254
  149SAPE  H18Y16474   0.664   5.192   5.292 -2.1383 -0.3651  2.3162
  149SAPE  H18Z16475   0.552   5.166   5.161  0.9118  0.2706 -0.1612
  150SAPE     N16476   4.556   4.323   8.079  0.4971 -0.2715 -0.0226
  150SAPE   HN116477   4.540   4.391   8.002  0.2170  1.9316  1.8712
  150SAPE   HN216478   4.650   4.345   8.118  1.4569 -2.3268 -1.0069
  150SAPE   HN316479   4.570   4.224   8.051 -0.4292 -0.4451  0.1021
  150SAPE   C1216480   4.453   4.344   8.191 -0.5386  0.0872  0.0280
  150SAPE  H12A16481   4.443   4.452   8.215 -1.6444 -0.2348  1.1117
  150SAPE  H12B16482   4.487   4.294   8.284 -0.3052 -1.7425 -0.9819
  150SAPE   C1116483   4.311   4.294   8.147  0.0193 -0.1478 -0.4120
  150SAPE  H11A16484   4.263   4.368   8.079 -1.4515 -1.8681 -1.3397
  150SAPE  H11B16485   4.253   4.283   8.241  0.3497  1.2683 -0.0235
  150SAPE     P16486   4.205   4.079   8.023  0.0239 -0.2595 -0.1248
  150SAPE   O1316487   4.211   3.939   8.068 -0.0321  0.1387 -0.1694
  150SAPE   O1416488   4.080   4.153   8.046  0.0746 -0.1354 -0.5178
  150SAPE   O1216489   4.323   4.163   8.088  0.3183  0.9701 -0.1333
  150SAPE   O1116490   4.229   4.091   7.867 -0.2500 -0.3793 -0.6091
  150SAPE    C116491   4.349   4.037   7.806  0.9932 -0.1745  0.0699
  150SAPE    HA16492   4.433   4.108   7.792  1.6498 -1.1171 -1.0242
  150SAPE    HB16493   4.399   3.954   7.861 -0.3244 -0.2115  1.2327
  150SAPE    C216494   4.322   3.976   7.665 -0.8047  0.6965 -0.3358
  150SAPE    HS16495   4.416   3.946   7.614 -1.2501  0.6134 -1.1135
  150SAPE   O2116496   4.253   4.072   7.584  0.0987 -0.5927 -0.2996
  150SAPE   C2116497   4.324   4.177   7.544 -1.1795  0.2304  0.0242
  150SAPE   O2216498   4.448   4.180   7.551  0.7527  0.4276  0.4415
  150SAPE   C2216499   4.236   4.292   7.498  0.0249  0.3241  0.4327
  150SAPE   H2R16500   4.138   4.278   7.549  0.7298 -1.4513  1.3553
  150SAPE   H2S16501   4.280   4.390   7.528  1.1155  0.0678 -0.2851
  150SAPE    C316502   4.228   3.852   7.675 -0.6645  0.2233 -0.0714
  150SAPE    HX16503   4.131   3.892   7.712 -1.3737 -0.3470 -1.2770
  150SAPE    HY16504   4.268   3.772   7.740  0.0512  0.3071 -0.3942
  150SAPE   O3116505   4.219   3.798   7.542 -0.3657 -0.7877 -0.2528
  150SAPE   C3116506   4.108   3.818   7.469  0.3342  0.6130  0.1109
  150SAPE   O3216507   4.003   3.873   7.504 -0.5607  0.0546 -0.5976
  150SAPE   C3216508   4.129   3.776   7.324 -0.6468  0.1068  0.0063
  150SAPE   H2X16509   4.150   3.667   7.320 -2.1107 -0.1946  0.0246
  150SAPE   H2Y16510   4.210   3.838   7.281 -1.6516 -0.9198 -3.7982
  150SAPE   C2316511   4.216   4.289   7.344 -0.2661 -0.5139  0.3631
  150SAPE   H3R16512   4.306   4.284   7.279 -0.3989 -1.1905  0.2165
  150SAPE   H3S16513   4.170   4.386   7.315 -1.0971 -1.0582 -0.1878
  150SAPE   C2416514   4.138   4.165   7.297 -0.2041 -0.0508 -0.0278
  150SAPE   H4R16515   4.146   4.083   7.371  1.9112  0.0440 -0.0887
  150SAPE   H4S16516   4.189   4.123   7.208  0.0493  0.2240 -0.0133
  150SAPE   C2516517   3.994   4.180   7.273 -0.0044 -0.2362  0.7366
  150SAPE   H5R16518   3.930   4.125   7.344 -0.8750  1.1595  1.0838
  150SAPE   C2616519   3.936   4.248   7.172 -0.0851 -0.4420  0.7479
  150SAPE   H6R16520   3.827   4.248   7.163  0.0204 -0.5031 -0.9669
  150SAPE   C2716521   4.005   4.303   7.048  0.2668  0.2698  0.2162
  150SAPE   H7R16522   4.113   4.323   7.067  0.6143 -1.1545 -0.1303
  150SAPE   H7S16523   3.959   4.398   7.014  2.1189  1.1507  0.0553
  150SAPE   C2816524   4.001   4.191   6.948 -0.4673 -0.0251  0.1163
  150SAPE   H8R16525   4.060   4.111   6.995 -0.1979  1.1992  1.9701
  150SAPE   C2916526   3.949   4.190   6.826  0.0812  0.3915 -0.0039
  150SAPE   H9R16527   3.972   4.103   6.764  0.9404 -1.3080  2.5413
  150SAPE  C21016528   3.889   4.306   6.750 -0.2830  0.2057 -0.3227
  150SAPE  H10R16529   3.978   4.371   6.734 -1.3227  1.0083 -3.7548
  150SAPE  H10S16530   3.811   4.361   6.807 -1.9868 -1.3050 -1.0895
  150SAPE  C21116531   3.825   4.262   6.619 -0.4236 -0.2389 -0.4893
  150SAPE  H11R16532   3.740   4.192   6.627  0.6264 -1.4326  0.5993
  150SAPE  C21216533   3.877   4.265   6.494  0.6563  0.6455  0.0139
  150SAPE  H12R16534   3.809   4.238   6.412 -0.3347  0.4336  0.8776
  150SAPE  C21316535   3.998   4.338   6.450  0.0070 -0.0790  0.5550
  150SAPE  H13R16536   4.070   4.268   6.402 -0.8992 -2.1700  2.0812
  150SAPE  H13S16537   4.045   4.394   6.533 -2.1604 -1.3815  2.7769
  150SAPE  C21416538   3.945   4.447   6.356  0.4471  0.0747  0.8956
  150SAPE  H14R16539   3.905   4.536   6.406  3.3428  0.6947  2.2860
  150SAPE  C21516540   3.932   4.441   6.222  0.4151 -0.0628  0.8220
  150SAPE  H15R16541   3.892   4.530   6.172  2.4026  0.3708 -0.1270
  150SAPE  C21616542   3.970   4.326   6.128  0.7492 -0.3214 -0.6129
  150SAPE  H16R16543   3.918   4.231   6.152  2.8880 -1.2418  0.6200
  150SAPE  H16S16544   4.079   4.313   6.148  1.2185 -0.8400 -3.0986
  150SAPE  C21716545   3.924   4.348   5.982 -0.0744 -0.2020 -0.0114
  150SAPE  H17R16546   3.821   4.389   5.983  0.1180  0.3382  1.3690
  150SAPE  H17S16547   3.909   4.253   5.927 -1.4996  1.1742 -2.1199
  150SAPE  C21816548   4.027   4.422   5.902 -0.1003  0.1500 -0.1589
  150SAPE  H18R16549   4.127   4.377   5.919 -0.0483 -0.0332 -0.9087
  150SAPE  H18S16550   4.029   4.532   5.920 -1.5238  0.0007  1.1052
  150SAPE  C21916551   4.012   4.398   5.750  0.4373  0.4688  0.3044
  150SAPE  H19R16552   3.918   4.436   5.703  0.2871 -1.5027 -1.1271
  150SAPE  H19S16553   3.997   4.288   5.739  0.0493  0.6171 -0.7444
  150SAPE  C22016554   4.129   4.461   5.670  0.1951 -0.0067  0.3826
  150SAPE  H20R16555   4.131   4.571   5.689 -1.8577  0.3530 -1.1354
  150SAPE  H20S16556   4.117   4.460   5.560  2.6289 -0.4225  0.0729
  150SAPE  H20T16557   4.222   4.403   5.686  1.6312  1.0491 -3.1010
  150SAPE   C3316558   4.009   3.800   7.231  0.3735  0.2536 -0.3843
  150SAPE   H3X16559   3.967   3.901   7.249  1.4742  0.9262 -1.3925
  150SAPE   H3Y16560   3.929   3.731   7.263  1.2849 -0.4894  0.3553
  150SAPE   C3416561   4.046   3.796   7.082  0.1636 -0.2249  0.4138
  150SAPE   H4X16562   4.081   3.696   7.046 -2.5873 -0.8123 -0.8872
  150SAPE   H4Y16563   4.129   3.866   7.061  0.7549 -0.4795  1.8257
  150SAPE   C3516564   3.928   3.828   6.988 -0.2198  0.0287  0.3718
  150SAPE   H5X16565   3.898   3.935   6.988  2.6006  0.9709  2.7931
  150SAPE   H5Y16566   3.838   3.774   7.022 -0.1315 -0.4879 -0.2066
  150SAPE   C3616567   3.950   3.773   6.855  0.1009 -0.0931 -0.0915
  150SAPE   H6X16568   3.973   3.664   6.851 -0.2037 -0.1982  0.7868
  150SAPE   H6Y16569   4.040   3.824   6.814 -0.2609  0.7853  0.1829
  150SAPE   C3716570   3.819   3.804   6.776  0.1195 -0.3611 -0.6028
  150SAPE   H7X16571   3.801   3.913   6.782 -0.3189 -0.5084  1.2322
  150SAPE   H7Y16572   3.736   3.748   6.824 -0.0865  0.6925  0.2827
  150SAPE   C3816573   3.823   3.766   6.628  0.2037 -0.1306  0.8763
  150SAPE   H8X16574   3.723   3.776   6.579  0.6529  0.1265 -0.0029
  150SAPE   H8Y16575   3.855   3.660   6.618  0.6992  0.0804  0.0925
  150SAPE   C3916576   3.901   3.858   6.524  0.1249  0.5539 -1.2398
  150SAPE   H9X16577   4.007   3.825   6.527  0.4074  1.4785  0.7800
  150SAPE   H9Y16578   3.908   3.963   6.561  2.6688  0.7346 -2.0151
  150SAPE  C31016579   3.851   3.842   6.378 -0.3232  0.5158 -0.4592
  150SAPE  H10X16580   3.758   3.898   6.356 -0.7054  0.0020 -0.1705
  150SAPE  H10Y16581   3.841   3.734   6.355 -1.7312  0.1207  1.8051
  150SAPE  C31116582   3.954   3.898   6.279  0.7822 -0.1734  0.2798
  150SAPE  H11X16583   4.042   3.831   6.278  0.7246 -0.3016  1.5611
  150SAPE  H11Y16584   3.991   3.999   6.310 -0.1260  0.7035 -1.3595
  150SAPE  C31216585   3.893   3.934   6.139  0.1879  0.3555 -0.6956
  150SAPE  H12X16586   3.975   3.977   6.079  0.8682  0.9129  0.6066
  150SAPE  H12Y16587   3.814   4.012   6.147  0.5611  0.6299  0.5017
  150SAPE  C31316588   3.826   3.811   6.080  0.8137  0.2096  0.0025
  150SAPE  H13X16589   3.742   3.795   6.151  0.3742  0.4079 -0.4729
  150SAPE  H13Y16590   3.878   3.713   6.065 -2.6935 -1.6233 -1.1848
  150SAPE  C31416591   3.767   3.834   5.940 -0.1366 -0.0739 -0.0776
  150SAPE  H14X16592   3.855   3.847   5.873  1.1009 -2.1953  1.0310
  150SAPE  H14Y16593   3.709   3.928   5.953  0.5611  0.4387 -0.5901
  150SAPE  C31516594   3.686   3.703   5.900 -0.1037 -0.8425 -0.1857
  150SAPE  H15X16595   3.595   3.713   5.963  0.1290  3.1067 -0.2169
  150SAPE  H15Y16596   3.746   3.611   5.917  3.0947  0.2753 -4.1047
  150SAPE  C31616597   3.656   3.700   5.753  0.4233  0.4883 -0.3678
  150SAPE  H16X16598   3.741   3.740   5.695 -0.5442  0.8112 -1.6148
  150SAPE  H16Y16599   3.562   3.757   5.737  0.7676  0.4571 -2.9375
  150SAPE  C31716600   3.631   3.559   5.702  1.1616  0.3574  0.4145
  150SAPE  H17X16601   3.542   3.535   5.764 -0.9992  3.2055 -1.3332
  150SAPE  H17Y16602   3.715   3.488   5.716  0.8064  0.0987  1.3352
  150SAPE  C31816603   3.583   3.544   5.559 -0.4524 -0.3810  0.2905
  150SAPE  H18X16604   3.488   3.602   5.555 -0.0484  0.5254  2.6382
  150SAPE  H18Y16605   3.540   3.442   5.543 -2.6387  0.5200  0.0112
  150SAPE  H18Z16606   3.653   3.570   5.476 -1.0787  0.7769  0.0975
  151SAPE     N16607   0.212   2.787   7.927 -0.3893  0.7012 -0.1266
  151SAPE   HN116608   0.268   2.866   7.892 -0.1246  0.6788  0.2380
  151SAPE   HN216609   0.117   2.821   7.953  0.3368  2.0467  0.8841
  151SAPE   HN316610   0.266   2.750   8.008  1.9665  2.3349 -0.8416
  151SAPE   C1216611   0.208   2.678   7.823 -0.2955 -0.9017 -0.6176
  151SAPE  H12A16612   0.177   2.714   7.723 -1.8708 -1.2890 -0.3010
  151SAPE  H12B16613   0.132   2.601   7.849  0.4401 -0.5447  3.1109
  151SAPE   C1116614   0.341   2.611   7.822  0.1793  0.1012 -0.0035
  151SAPE  H11A16615   0.344   2.555   7.727 -1.0390 -0.2364  0.1443
  151SAPE  H11B16616   0.346   2.541   7.908 -1.1919  0.4276  0.3760
  151SAPE     P16617   0.593   2.649   7.771  0.0749  0.4906  0.1487
  151SAPE   O1316618   0.701   2.755   7.769  0.2677  0.1075  0.2056
  151SAPE   O1416619   0.630   2.523   7.837  0.1081  0.0309  0.1841
  151SAPE   O1216620   0.453   2.705   7.827 -0.5424 -0.2174 -0.5299
  151SAPE   O1116621   0.550   2.612   7.623 -0.0431  0.3369  0.4649
  151SAPE    C116622   0.510   2.709   7.522  0.3054  0.0780 -0.1185
  151SAPE    HA16623   0.413   2.664   7.491  0.6016 -1.6337  1.2500
  151SAPE    HB16624   0.494   2.813   7.557  1.4403  1.1358 -2.5220
  151SAPE    C216625   0.610   2.716   7.409 -0.2714  0.1771 -0.3994
  151SAPE    HS16626   0.578   2.789   7.332  0.9490  2.2112  0.9113
  151SAPE   O2116627   0.636   2.589   7.340 -0.0558  0.6479  0.1494
  151SAPE   C2116628   0.537   2.555   7.258 -0.1907 -0.5614  0.2712
  151SAPE   O2216629   0.436   2.618   7.239  0.0366 -0.2272 -0.1592
  151SAPE   C2216630   0.580   2.434   7.176 -0.0739  0.4236  0.5443
  151SAPE   H2R16631   0.686   2.448   7.149 -0.3249  0.9662 -0.1948
  151SAPE   H2S16632   0.555   2.345   7.238  0.0946 -1.8694 -2.4350
  151SAPE    C316633   0.746   2.777   7.457  0.2129 -0.1083  0.7557
  151SAPE    HX16634   0.801   2.702   7.519  2.5672  0.4070 -0.5672
  151SAPE    HY16635   0.732   2.863   7.527 -0.2607  0.1361  0.3666
  151SAPE   O3116636   0.813   2.828   7.342 -0.3437 -0.0707  0.1667
  151SAPE   C3116637   0.915   2.748   7.304 -0.7233  0.0992 -0.4505
  151SAPE   O3216638   0.963   2.656   7.365  0.3885 -0.6839  0.3769
  151SAPE   C3216639   0.966   2.808   7.172  0.0825  0.1346  0.2724
  151SAPE   H2X16640   1.052   2.746   7.136  0.0469  0.0762  0.2864
  151SAPE   H2Y16641   1.017   2.904   7.192  1.3606 -0.1814 -1.2618
  151SAPE   C2316642   0.489   2.409   7.051  0.0499  0.3344  0.5530
  151SAPE   H3R16643   0.494   2.493   6.978 -2.4134 -0.3249 -0.4792
  151SAPE   H3S16644   0.383   2.400   7.084  0.4580 -1.0661  1.5508
  151SAPE   C2416645   0.523   2.269   6.992 -0.1506 -0.2095  0.5687
  151SAPE   H4R16646   0.443   2.230   6.925  2.0554 -1.2778 -1.6034
  151SAPE   H4S16647   0.532   2.185   7.065  3.7526 -2.8950 -2.5834
  151SAPE   C2516648   0.664   2.262   6.929  0.4323 -0.1632 -0.4161
  151SAPE   H5R16649   0.739   2.249   7.009 -0.5457  2.1664  0.9494
  151SAPE   C2616650   0.702   2.280   6.799  0.4910 -0.4962 -0.7222
  151SAPE   H6R16651   0.809   2.288   6.776  0.9760  0.2317  1.5802
  151SAPE   C2716652   0.605   2.318   6.690  0.4499  0.8987  0.3977
  151SAPE   H7R16653   0.508   2.340   6.739  1.7151  2.7934  2.2104
  151SAPE   H7S16654   0.588   2.233   6.621 -0.1233  2.4777 -1.5157
  151SAPE   C2816655   0.643   2.445   6.625 -0.5527  0.0535 -0.1141
  151SAPE   H8R16656   0.677   2.521   6.696  1.5275 -1.6786  0.8639
  151SAPE   C2916657   0.662   2.466   6.493 -0.1783 -0.2640 -0.0575
  151SAPE   H9R16658   0.697   2.567   6.467  2.0948 -1.2361 -1.0271
  151SAPE  C21016659   0.635   2.377   6.374 -0.3208 -0.5666  1.1722
  151SAPE  H10R16660   0.554   2.421   6.312  0.0042 -2.0409 -0.3605
  151SAPE  H10S16661   0.596   2.282   6.416 -1.8139  0.5918  2.5752
  151SAPE  C21116662   0.758   2.343   6.294 -0.1631 -0.1698 -0.3617
  151SAPE  H11R16663   0.821   2.269   6.345  0.6972  0.3964 -0.5827
  151SAPE  C21216664   0.801   2.383   6.176 -0.3614 -0.1588 -0.0942
  151SAPE  H12R16665   0.904   2.357   6.148  0.3344  1.2851  1.0065
  151SAPE  C21316666   0.741   2.501   6.103 -0.2248  0.3443 -0.2167
  151SAPE  H13R16667   0.639   2.470   6.071 -0.3939 -0.4293  1.0144
  151SAPE  H13S16668   0.806   2.504   6.013 -0.4594 -1.2969 -0.4830
  151SAPE  C21416669   0.756   2.637   6.170 -0.4437  0.7301  0.0436
  151SAPE  H14R16670   0.849   2.654   6.227 -0.5952 -2.2868  1.3956
  151SAPE  C21516671   0.665   2.732   6.164 -0.0022 -0.0301 -0.2753
  151SAPE  H15R16672   0.677   2.828   6.216 -3.2528  2.1728 -3.1595
  151SAPE  C21616673   0.548   2.736   6.061  0.3136 -1.2794 -0.1044
  151SAPE  H16R16674   0.457   2.776   6.110  1.1425  0.3079  0.1816
  151SAPE  H16S16675   0.529   2.631   6.028 -1.4788 -1.9275  2.6257
  151SAPE  C21716676   0.575   2.825   5.939  0.4508  0.1538  1.0588
  151SAPE  H17R16677   0.604   2.930   5.962 -3.2997  2.2735 -2.5302
  151SAPE  H17S16678   0.479   2.834   5.884  0.2735 -0.4222  1.2680
  151SAPE  C21816679   0.671   2.771   5.826 -0.2697 -0.6527  0.8582
  151SAPE  H18R16680   0.640   2.667   5.805 -0.0703 -0.5943  0.2523
  151SAPE  H18S16681   0.778   2.776   5.858 -0.0446  1.9077 -0.0321
  151SAPE  C21916682   0.663   2.859   5.699  0.3156 -0.0373 -0.2806
  151SAPE  H19R16683   0.739   2.939   5.713  1.6659 -1.2095 -0.7296
  151SAPE  H19S16684   0.561   2.900   5.682  0.0919 -0.5012 -0.0542
  151SAPE  C22016685   0.702   2.804   5.563  0.3967 -0.5588  0.2260
  151SAPE  H20R16686   0.799   2.751   5.575  1.7595  1.6940 -0.0542
  151SAPE  H20S16687   0.710   2.878   5.480 -0.3682  0.8881  1.3807
  151SAPE  H20T16688   0.623   2.730   5.539 -0.3128  0.2568  0.0058
  151SAPE   C3316689   0.851   2.831   7.073 -0.3720  0.2900 -1.1332
  151SAPE   H3X16690   0.903   2.896   7.000  0.5847 -0.4572 -1.1391
  151SAPE   H3Y16691   0.767   2.892   7.114 -0.3568 -0.7230  0.5200
  151SAPE   C3416692   0.797   2.701   7.004 -0.7807 -0.3824  0.0234
  151SAPE   H4X16693   0.710   2.720   6.937  0.0231  1.0359 -0.6570
  151SAPE   H4Y16694   0.766   2.636   7.089  3.7959 -0.0030  2.2838
  151SAPE   C3516695   0.907   2.616   6.921 -0.6400 -0.2382  0.4305
  151SAPE   H5X16696   0.854   2.526   6.881  1.6432 -1.1474 -0.7609
  151SAPE   H5Y16697   0.993   2.584   6.983 -0.1362  1.1363  0.4593
  151SAPE   C3616698   0.978   2.701   6.807 -0.5548  0.1261 -0.4691
  151SAPE   H6X16699   1.063   2.637   6.775 -1.6829 -1.7230  0.0815
  151SAPE   H6Y16700   1.022   2.798   6.838 -2.3144  0.0517  2.5726
  151SAPE   C3716701   0.894   2.735   6.681  0.0126 -0.7568 -0.1110
  151SAPE   H7X16702   0.807   2.801   6.701  0.7797  0.0981  0.5070
  151SAPE   H7Y16703   0.846   2.645   6.638 -1.5448 -0.9248  1.8620
  151SAPE   C3816704   0.995   2.806   6.595  0.2380 -0.8936  0.0468
  151SAPE   H8X16705   1.081   2.739   6.578  0.2454 -0.9314  0.2254
  151SAPE   H8Y16706   1.014   2.902   6.648 -1.3785 -1.7888  2.4333
  151SAPE   C3916707   0.931   2.841   6.462  0.0494 -0.3297  0.2846
  151SAPE   H9X16708   0.830   2.885   6.477 -0.0296  0.1087 -1.3687
  151SAPE   H9Y16709   0.921   2.745   6.407 -0.4014 -0.0439 -0.1377
  151SAPE  C31016710   1.015   2.943   6.382 -0.3106 -0.0292 -0.3356
  151SAPE  H10X16711   1.017   3.036   6.443 -0.5028 -0.4482  0.3108
  151SAPE  H10Y16712   0.951   2.969   6.295 -0.4682 -1.8426 -0.8107
  151SAPE  C31116713   1.151   2.888   6.333  0.4202 -0.3369  0.2563
  151SAPE  H11X16714   1.216   2.883   6.423  0.1582 -0.6140  0.4318
  151SAPE  H11Y16715   1.192   2.965   6.264  0.3328  0.7559  1.3916
  151SAPE  C31216716   1.145   2.749   6.266 -0.6082  0.3293 -0.4583
  151SAPE  H12X16717   1.067   2.741   6.188 -2.6062 -0.4715  1.5082
  151SAPE  H12Y16718   1.119   2.667   6.336 -1.9353  1.8458  0.8908
  151SAPE  C31316719   1.277   2.717   6.191 -0.0994 -0.1005 -0.3275
  151SAPE  H13X16720   1.281   2.790   6.108 -0.6930 -1.9164 -2.0262
  151SAPE  H13Y16721   1.279   2.613   6.150  0.0310  0.5089 -1.9319
  151SAPE  C31416722   1.413   2.742   6.270  0.8364  0.1054  0.6580
  151SAPE  H14X16723   1.408   2.650   6.333 -1.7747 -1.5082 -1.6427
  151SAPE  H14Y16724   1.407   2.835   6.330  1.4731  1.0775 -0.7462
  151SAPE  C31516725   1.540   2.745   6.180 -0.6096  0.1193 -0.7475
  151SAPE  H15X16726   1.548   2.645   6.131 -2.4639 -0.0183 -0.8104
  151SAPE  H15Y16727   1.631   2.740   6.244 -1.0410 -0.7265 -0.1850
  151SAPE  C31616728   1.545   2.843   6.065  0.1533 -0.2365  0.5545
  151SAPE  H16X16729   1.466   2.821   5.991 -1.2069  0.0723  1.8547
  151SAPE  H16Y16730   1.644   2.839   6.015  0.4534 -0.4699  1.1596
  151SAPE  C31716731   1.531   2.996   6.101 -0.2882  0.2554  0.0703
  151SAPE  H17X16732   1.613   3.019   6.172 -0.6038 -0.0395  0.5330
  151SAPE  H17Y16733   1.440   3.021   6.159  0.5334  0.6513  1.2216
  151SAPE  C31816734   1.554   3.088   5.973  0.2272 -0.0815 -0.9377
  151SAPE  H18X16735   1.468   3.110   5.905  0.3728  2.3753 -0.4253
  151SAPE  H18Y16736   1.628   3.031   5.913  0.4432 -0.1080 -0.6445
  151SAPE  H18Z16737   1.603   3.183   6.003  1.1748 -0.2602 -1.8360
  152SAPE     N16738   4.962   4.201   8.314 -0.2547 -0.1933  0.2852
  152SAPE   HN116739   4.866   4.233   8.339  0.3356  1.2857  0.7995
  152SAPE   HN216740   5.012   4.147   8.387  0.2897 -0.3691 -0.2058
  152SAPE   HN316741   5.023   4.284   8.297  1.8881 -1.5450  0.9228
  152SAPE   C1216742   4.969   4.109   8.202 -0.2924  0.1184  0.4457
  152SAPE  H12A16743   4.884   4.039   8.215 -0.7717  0.1574 -2.0151
  152SAPE  H12B16744   5.067   4.057   8.204 -0.6353 -0.5167  1.0012
  152SAPE   C1116745   4.954   4.184   8.062 -0.2933  0.5740 -0.2470
  152SAPE  H11A16746   4.852   4.228   8.056 -0.3980  0.1998 -1.8232
  152SAPE  H11B16747   4.970   4.099   7.993 -0.5577  0.0084  0.3823
  152SAPE     P16748   5.036   4.408   7.952 -0.2198  0.1869 -0.3118
  152SAPE   O1316749   4.930   4.496   8.012 -0.4708 -0.4372 -0.1756
  152SAPE   O1416750   5.162   4.474   7.913  0.5033 -0.5552  0.2647
  152SAPE   O1216751   5.057   4.289   8.056  0.0478 -0.1925  0.5198
  152SAPE   O1116752   4.969   4.336   7.827 -0.0869  0.8543 -0.5582
  152SAPE    C116753   5.037   4.272   7.725  0.2270  0.5207 -0.3571
  152SAPE    HA16754   5.141   4.310   7.724 -0.2355  1.8468 -1.7455
  152SAPE    HB16755   5.052   4.162   7.734  0.8247  0.5310 -1.0934
  152SAPE    C216756   4.970   4.304   7.590  0.7265 -0.4293 -0.4274
  152SAPE    HS16757   4.871   4.254   7.583  0.2072  0.6702 -1.2291
  152SAPE   O2116758   5.060   4.269   7.490 -1.1191 -0.8836  0.1954
  152SAPE   C2116759   5.034   4.157   7.425  0.2431  0.5421  0.1184
  152SAPE   O2216760   4.935   4.090   7.441  0.3664  0.3638  0.3814
  152SAPE   C2216761   5.124   4.130   7.299 -0.4890 -0.5774  0.2893
  152SAPE   H2R16762   5.114   4.222   7.238 -0.8409  0.7328  2.2317
  152SAPE   H2S16763   5.226   4.120   7.340 -0.2387  0.6642 -0.0034
  152SAPE    C316764   4.937   4.464   7.584 -0.4335  0.3768 -0.0533
  152SAPE    HX16765   5.031   4.523   7.579  1.0713 -1.6540  2.2640
  152SAPE    HY16766   4.898   4.497   7.682  1.1143  4.5425 -0.6255
  152SAPE   O3116767   4.852   4.489   7.474  0.7930  0.3815 -0.2877
  152SAPE   C3116768   4.721   4.472   7.501  0.0530  0.6250 -0.5767
  152SAPE   O3216769   4.683   4.461   7.620  0.4127  0.3304  0.7636
  152SAPE   C3216770   4.649   4.439   7.373  0.2447 -0.3168 -0.6133
  152SAPE   H2X16771   4.643   4.536   7.318  0.5607  0.5237  0.7889
  152SAPE   H2Y16772   4.547   4.404   7.401  0.0410 -0.7065 -1.7825
  152SAPE   C2316773   5.073   4.004   7.223  0.1671 -0.1916 -0.2289
  152SAPE   H3R16774   4.969   4.013   7.186  1.0816  1.9061 -2.5612
  152SAPE   H3S16775   5.076   3.919   7.295  0.1176  0.5163  0.6339
  152SAPE   C2416776   5.169   3.983   7.098 -0.0979  0.6041  0.5376
  152SAPE   H4R16777   5.164   4.070   7.029 -1.0854  0.7636  0.7988
  152SAPE   H4S16778   5.129   3.902   7.034 -2.3857  2.2257 -0.2158
  152SAPE   C2516779   5.319   3.958   7.124 -0.2579 -0.3246  0.8313
  152SAPE   H5R16780   5.341   3.872   7.189  0.9423 -1.2406 -0.7104
  152SAPE   C2616781   5.423   4.030   7.082  0.0419 -0.4727  0.5889
  152SAPE   H6R16782   5.523   3.994   7.112  0.2446  0.6645  1.3707
  152SAPE   C2716783   5.426   4.137   6.976 -0.1678  0.3935 -0.5363
  152SAPE   H7R16784   5.346   4.125   6.901 -1.5541 -1.6287  1.1406
  152SAPE   H7S16785   5.519   4.120   6.918 -1.3981  1.0737 -2.8233
  152SAPE   C2816786   5.436   4.279   7.019 -0.2187 -0.0534 -0.1040
  152SAPE   H8R16787   5.512   4.291   7.097  1.0231  1.1712 -1.4291
  152SAPE   C2916788   5.355   4.381   6.996  0.0578 -0.5950  0.1485
  152SAPE   H9R16789   5.402   4.475   7.030  0.9618 -1.4292  1.2727
  152SAPE  C21016790   5.238   4.388   6.901 -0.7418  0.2184  0.5475
  152SAPE  H10R16791   5.149   4.354   6.959  0.5266 -3.0543  0.8085
  152SAPE  H10S16792   5.244   4.314   6.819 -1.0967  2.4884 -1.6355
  152SAPE  C21116793   5.200   4.525   6.847 -1.1957  0.4103  0.2405
  152SAPE  H11R16794   5.118   4.582   6.893 -0.5214  1.7224 -0.1357
  152SAPE  C21216795   5.262   4.571   6.737  0.3210 -0.5235 -1.2682
  152SAPE  H12R16796   5.234   4.675   6.715 -1.1401 -0.4509  0.6439
  152SAPE  C21316797   5.371   4.518   6.651 -1.1314 -0.2827  0.3830
  152SAPE  H13R16798   5.428   4.440   6.706 -1.0037  0.4570  1.3374
  152SAPE  H13S16799   5.440   4.605   6.641  1.1804 -1.3948  4.3451
  152SAPE  C21416800   5.326   4.462   6.522  0.2225 -0.5488 -0.0662
  152SAPE  H14R16801   5.230   4.408   6.528 -0.8864  1.4608  1.4789
  152SAPE  C21516802   5.380   4.460   6.403  0.2215  0.0548  0.4862
  152SAPE  H15R16803   5.312   4.423   6.326 -1.6610  0.2742  1.9815
  152SAPE  C21616804   5.502   4.538   6.356 -0.2996  0.9242 -0.2865
  152SAPE  H16R16805   5.590   4.517   6.420  0.4708  0.6505 -1.4070
  152SAPE  H16S16806   5.490   4.648   6.347 -2.7975  0.9624  2.0829
  152SAPE  C21716807   5.535   4.483   6.215  0.2348 -0.3209  0.8116
  152SAPE  H17R16808   5.539   4.372   6.220 -0.2914 -0.3803  0.1884
  152SAPE  H17S16809   5.637   4.517   6.190 -0.0383 -0.8308 -1.2379
  152SAPE  C21816810   5.437   4.529   6.094  0.4363 -0.0794  0.3022
  152SAPE  H18R16811   5.436   4.640   6.097  5.2309  0.2330 -0.8865
  152SAPE  H18S16812   5.337   4.483   6.106  0.6707 -0.7901 -0.3426
  152SAPE  C21916813   5.494   4.488   5.961 -0.5475  0.0628  0.5629
  152SAPE  H19R16814   5.553   4.395   5.975 -0.6639 -0.2553 -0.9054
  152SAPE  H19S16815   5.557   4.574   5.930  0.1567 -0.1993  1.2324
  152SAPE  C22016816   5.394   4.439   5.857  0.2503  0.3567 -0.1629
  152SAPE  H20R16817   5.451   4.391   5.774 -2.8178 -0.4679 -1.9471
  152SAPE  H20S16818   5.341   4.526   5.813  0.7919  1.1197  0.6518
  152SAPE  H20T16819   5.329   4.356   5.892  1.1531 -0.9619 -1.4808
  152SAPE   C3316820   4.724   4.349   7.272  0.3101 -0.0944  0.0608
  152SAPE   H3X16821   4.741   4.254   7.326  1.8083 -0.2741 -0.6755
  152SAPE   H3Y16822   4.829   4.382   7.256  0.1119  1.2452  1.3552
  152SAPE   C3416823   4.648   4.325   7.137 -0.5422 -0.4171  0.1825
  152SAPE   H4X16824   4.634   4.428   7.097  1.0457  0.1503  1.0205
  152SAPE   H4Y16825   4.548   4.292   7.174 -0.9568 -0.3824 -0.8690
  152SAPE   C3516826   4.714   4.232   7.031 -0.0620  0.6370 -0.3455
  152SAPE   H5X16827   4.643   4.222   6.946  0.7483  0.0670 -0.9797
  152SAPE   H5Y16828   4.729   4.131   7.075  1.0985  0.9673  0.0589
  152SAPE   C3616829   4.848   4.290   6.982 -0.0029  0.1399 -0.1037
  152SAPE   H6X16830   4.922   4.278   7.065  0.2350  0.4064 -0.2767
  152SAPE   H6Y16831   4.841   4.395   6.949 -1.8316  0.5837  1.4926
  152SAPE   C3716832   4.905   4.214   6.858  0.1372  0.0822  0.0579
  152SAPE   H7X16833   4.913   4.106   6.882 -0.7695  0.1526  0.7216
  152SAPE   H7Y16834   5.000   4.268   6.836 -0.1456  1.0030  1.0306
  152SAPE   C3816835   4.806   4.222   6.739  0.0636 -0.6251  0.0474
  152SAPE   H8X16836   4.785   4.331   6.736  2.8522 -0.0242 -0.8438
  152SAPE   H8Y16837   4.713   4.165   6.754 -0.1338 -0.8683 -1.7994
  152SAPE   C3916838   4.861   4.199   6.596 -0.5599  0.1879 -0.4858
  152SAPE   H9X16839   4.888   4.091   6.601 -1.3998  0.0203  1.7249
  152SAPE   H9Y16840   4.948   4.265   6.576 -1.2691  1.1809 -0.3685
  152SAPE  C31016841   4.765   4.218   6.488  0.0390  0.3501  0.0980
  152SAPE  H10X16842   4.748   4.327   6.482 -1.2949  0.1739  0.3700
  152SAPE  H10Y16843   4.664   4.175   6.507  0.0552 -1.4948 -3.2062
  152SAPE  C31116844   4.817   4.168   6.350 -0.0726 -0.6120 -0.5690
  152SAPE  H11X16845   4.826   4.058   6.344  1.4953 -0.4687 -1.1839
  152SAPE  H11Y16846   4.916   4.216   6.339 -0.2915 -0.0722 -0.2824
  152SAPE  C31216847   4.718   4.212   6.236  0.1135  0.2599  0.1870
  152SAPE  H12X16848   4.723   4.318   6.203  0.1455 -0.6692 -3.1189
  152SAPE  H12Y16849   4.616   4.186   6.272  0.4689 -0.8261  0.4521
  152SAPE  C31316850   4.751   4.131   6.112 -0.6584  0.2868  0.8069
  152SAPE  H13X16851   4.735   4.022   6.121 -2.8552  0.3257 -1.5701
  152SAPE  H13Y16852   4.855   4.153   6.079 -0.8328 -0.4720 -0.2888
  152SAPE  C31416853   4.669   4.184   5.991 -0.2403  0.5322 -0.5486
  152SAPE  H14X16854   4.718   4.272   5.944 -1.3891  1.0962 -0.7137
  152SAPE  H14Y16855   4.568   4.207   6.030 -1.0664 -2.1282 -0.9014
  152SAPE  C31516856   4.676   4.086   5.878 -0.2541 -0.5852  0.5421
  152SAPE  H15X16857   4.633   4.126   5.784 -1.2946 -1.5640  0.5789
  152SAPE  H15Y16858   4.611   4.001   5.909 -0.7412 -0.6516 -0.6253
  152SAPE  C31616859   4.816   4.032   5.842  0.4545  0.0454 -0.1459
  152SAPE  H16X16860   4.866   3.992   5.933 -0.6122  1.2193  1.0002
  152SAPE  H16Y16861   4.883   4.116   5.815 -1.3782  2.1028  1.3173
  152SAPE  C31716862   4.821   3.924   5.730  0.6260  0.7007 -0.5912
  152SAPE  H17X16863   4.746   3.845   5.754 -0.7184  2.2322  0.4561
  152SAPE  H17Y16864   4.923   3.883   5.712  1.1000  0.8388  1.4595
  152SAPE  C31816865   4.797   3.978   5.597  0.4430  0.6318  0.0596
  152SAPE  H18X16866   4.832   3.904   5.522  1.2064  0.2154  0.8100
  152SAPE  H18Y16867   4.841   4.078   5.576 -1.3913  1.5101  0.1881
  152SAPE  H18Z16868   4.688   3.978   5.580  0.1956 -2.0901  1.1425
  153SAPE     N16869   4.755   5.703   7.853  0.5546 -0.7952  0.5845
  153SAPE   HN116870   4.685   5.666   7.921 -0.9120  1.2999  0.3189
  153SAPE   HN216871   4.847   5.694   7.900  1.3192  0.3783 -0.6287
  153SAPE   HN316872   4.732   5.805   7.848  3.6427  0.1152  2.1885
  153SAPE   C1216873   4.744   5.646   7.711  0.4065  0.1474  0.7941
  153SAPE  H12A16874   4.775   5.539   7.703  1.6439  0.5134  0.5110
  153SAPE  H12B16875   4.808   5.707   7.643 -0.2169  0.6889  0.6907
  153SAPE   C1116876   4.604   5.674   7.660 -0.6204 -0.3795  0.4447
  153SAPE  H11A16877   4.600   5.633   7.556  2.9750 -2.2432  0.8919
  153SAPE  H11B16878   4.584   5.782   7.642  1.1027 -0.1769 -0.4058
  153SAPE     P16879   4.438   5.486   7.740  0.2967  0.0894  0.2551
  153SAPE   O1316880   4.532   5.380   7.774 -0.5275 -0.0984 -0.2126
  153SAPE   O1416881   4.308   5.491   7.807  0.2679  0.2650 -0.0971
  153SAPE   O1216882   4.505   5.625   7.757 -0.4922  0.1278 -0.2177
  153SAPE   O1116883   4.417   5.480   7.584 -0.1352 -0.6507 -0.6987
  153SAPE    C116884   4.312   5.553   7.518  0.1052  0.5481 -0.0388
  153SAPE    HA16885   4.210   5.533   7.559 -0.8282  0.8797 -2.1041
  153SAPE    HB16886   4.333   5.662   7.528 -0.2186  0.6918 -0.8894
  153SAPE    C216887   4.313   5.522   7.366  0.0473 -0.5884 -0.7547
  153SAPE    HS16888   4.337   5.415   7.344  2.1612 -0.2160 -0.4836
  153SAPE   O2116889   4.414   5.596   7.297  0.3970  0.2565 -0.0931
  153SAPE   C2116890   4.532   5.535   7.290 -0.4598 -0.0852 -0.2698
  153SAPE   O2216891   4.556   5.418   7.324  0.1318 -0.3515  0.2151
  153SAPE   C2216892   4.639   5.628   7.235 -0.3384 -0.3389 -0.1162
  153SAPE   H2R16893   4.604   5.733   7.236  1.1840  0.2121 -1.2399
  153SAPE   H2S16894   4.717   5.623   7.314 -2.2396 -0.5279  1.8391
  153SAPE    C316895   4.174   5.558   7.301 -0.0329 -0.0741  0.4066
  153SAPE    HX16896   4.147   5.663   7.326 -0.6141 -0.3640  1.0192
  153SAPE    HY16897   4.089   5.495   7.335 -1.4567  0.9737 -1.1019
  153SAPE   O3116898   4.191   5.551   7.150  0.3490 -0.5296 -0.0981
  153SAPE   C3116899   4.207   5.434   7.109  0.3664 -0.2522  0.5183
  153SAPE   O3216900   4.198   5.332   7.175  0.1011 -0.6817 -0.0013
  153SAPE   C3216901   4.240   5.432   6.962  0.0447 -0.0943 -0.0450
  153SAPE   H2X16902   4.335   5.488   6.953 -0.8126  1.5251  0.6529
  153SAPE   H2Y16903   4.161   5.492   6.912  0.3834  1.0499  0.7682
  153SAPE   C2316904   4.683   5.593   7.094  1.0476  0.5728 -0.0892
  153SAPE   H3R16905   4.693   5.482   7.093 -0.0162  0.3725  2.8158
  153SAPE   H3S16906   4.789   5.618   7.072  1.1923 -2.3180 -3.8134
  153SAPE   C2416907   4.582   5.640   6.991 -0.2049 -0.6922  0.8188
  153SAPE   H4R16908   4.594   5.748   6.966 -0.6330 -0.5742  1.1283
  153SAPE   H4S16909   4.474   5.632   7.014 -0.0829 -2.1491  0.9604
  153SAPE   C2516910   4.605   5.550   6.868 -0.3620  0.2346  0.0995
  153SAPE   H5R16911   4.555   5.452   6.869 -3.3371  1.6411  0.9881
  153SAPE   C2616912   4.672   5.586   6.757 -0.2171 -0.3326 -0.2844
  153SAPE   H6R16913   4.669   5.511   6.676 -0.9393  2.0522 -2.6289
  153SAPE   C2716914   4.748   5.713   6.732 -0.3588  0.2382  0.4094
  153SAPE   H7R16915   4.777   5.758   6.830  1.7193  0.9950 -0.4845
  153SAPE   H7S16916   4.684   5.792   6.688 -0.5409 -0.9114 -1.4894
  153SAPE   C2816917   4.872   5.697   6.646 -0.5700 -0.1264 -0.2488
  153SAPE   H8R16918   4.954   5.636   6.685  0.2594 -0.2555 -2.1181
  153SAPE   C2916919   4.878   5.734   6.519  0.0222 -0.8769  0.5242
  153SAPE   H9R16920   4.971   5.732   6.461  1.1829  1.5152  2.1042
  153SAPE  C21016921   4.767   5.802   6.436  0.4795 -0.7110  0.0012
  153SAPE  H10R16922   4.807   5.873   6.361 -1.7274  1.4723  0.7739
  153SAPE  H10S16923   4.709   5.870   6.502  1.1281 -0.0212 -0.1250
  153SAPE  C21116924   4.682   5.698   6.375 -0.4541 -0.8797 -0.3045
  153SAPE  H11R16925   4.602   5.656   6.437 -0.1306 -0.7193  0.2366
  153SAPE  C21216926   4.707   5.646   6.254 -0.0892 -0.0504 -0.5764
  153SAPE  H12R16927   4.648   5.561   6.216 -0.0479 -0.4452  0.2205
  153SAPE  C21316928   4.821   5.677   6.161  0.3245  0.5945  0.0510
  153SAPE  H13R16929   4.910   5.710   6.220 -0.2985 -1.2310  2.1573
  153SAPE  H13S16930   4.782   5.759   6.097  1.3242 -1.7520 -3.9468
  153SAPE  C21416931   4.865   5.577   6.052  0.6018  0.0838  0.3304
  153SAPE  H14R16932   4.964   5.531   6.065  1.6839  2.4260  0.9576
  153SAPE  C21516933   4.789   5.535   5.954 -0.7572 -0.5841 -0.7244
  153SAPE  H15R16934   4.840   5.469   5.881 -1.8117 -0.5303 -1.5415
  153SAPE  C21616935   4.652   5.582   5.909  0.5543  0.4839  0.4100
  153SAPE  H16R16936   4.599   5.618   5.999  1.2579 -1.8420  1.8566
  153SAPE  H16S16937   4.601   5.493   5.868  1.9512 -1.0781  1.8688
  153SAPE  C21716938   4.660   5.706   5.816  1.4485  0.3597 -0.4516
  153SAPE  H17R16939   4.731   5.785   5.851  1.5029  1.3780 -2.6921
  153SAPE  H17S16940   4.558   5.750   5.820  0.5453 -1.4637 -1.9764
  153SAPE  C21816941   4.709   5.675   5.675 -0.0854 -0.1124  0.0518
  153SAPE  H18R16942   4.788   5.598   5.689 -0.6784 -0.9782 -1.2049
  153SAPE  H18S16943   4.752   5.768   5.632  1.3753 -0.6881  0.1972
  153SAPE  C21916944   4.605   5.616   5.583 -0.2162  0.0378  0.2415
  153SAPE  H19R16945   4.566   5.514   5.605 -0.0301 -0.2088 -0.5412
  153SAPE  H19S16946   4.669   5.607   5.493 -2.6984 -2.7809 -1.4062
  153SAPE  C22016947   4.496   5.713   5.540  0.3886  0.4512 -0.6633
  153SAPE  H20R16948   4.469   5.702   5.433 -2.3764  0.7073 -0.0770
  153SAPE  H20S16949   4.538   5.816   5.553  3.0435 -0.5915 -0.2403
  153SAPE  H20T16950   4.406   5.693   5.601 -0.5121  0.6157 -1.9005
  153SAPE   C3316951   4.241   5.288   6.898  0.8736 -0.1134  0.7069
  153SAPE   H3X16952   4.137   5.252   6.889  1.1871 -0.6263 -1.3159
  153SAPE   H3Y16953   4.296   5.223   6.969  0.8575 -1.1138 -0.1758
  153SAPE   C3416954   4.312   5.291   6.762 -0.2755 -0.1892 -0.0657
  153SAPE   H4X16955   4.355   5.190   6.748  0.6126  0.1329  0.2591
  153SAPE   H4Y16956   4.402   5.357   6.757 -1.2642  1.4205  1.7185
  153SAPE   C3516957   4.225   5.325   6.641  0.0874  0.5049  0.5283
  153SAPE   H5X16958   4.169   5.414   6.676  0.1225  0.9551 -0.5457
  153SAPE   H5Y16959   4.151   5.246   6.619  0.6324  0.4637 -1.2619
  153SAPE   C3616960   4.295   5.364   6.511 -0.5354  0.3270  0.3282
  153SAPE   H6X16961   4.376   5.436   6.534 -0.9334  0.3850  1.6197
  153SAPE   H6Y16962   4.224   5.414   6.442 -1.4223 -1.7175 -0.3323
  153SAPE   C3716963   4.356   5.249   6.427  0.2510 -0.3978  0.3041
  153SAPE   H7X16964   4.269   5.183   6.409  0.6144 -0.3778 -1.8861
  153SAPE   H7Y16965   4.433   5.186   6.476  3.3567  2.8360  0.0264
  153SAPE   C3816966   4.428   5.300   6.294 -0.9280 -0.9310 -0.3187
  153SAPE   H8X16967   4.519   5.349   6.334 -0.2977 -3.4502  1.5546
  153SAPE   H8Y16968   4.375   5.386   6.248  1.5315  1.1764  0.5711
  153SAPE   C3916969   4.448   5.202   6.187 -0.1543  0.2162  0.3016
  153SAPE   H9X16970   4.352   5.157   6.151  0.5326 -1.4038  0.4131
  153SAPE   H9Y16971   4.511   5.114   6.210 -1.3693 -0.9986 -0.7805
  153SAPE  C31016972   4.500   5.270   6.061  0.0163  0.7253 -0.2724
  153SAPE  H10X16973   4.590   5.330   6.086  0.7043  0.1662 -1.3414
  153SAPE  H10Y16974   4.415   5.334   6.027 -1.2074 -1.6588 -2.0211
  153SAPE  C31116975   4.532   5.174   5.945 -0.0911  0.1888 -1.3201
  153SAPE  H11X16976   4.442   5.111   5.927  1.8511 -3.2577  0.0319
  153SAPE  H11Y16977   4.618   5.110   5.974  1.4921  2.4131 -0.8874
  153SAPE  C31216978   4.554   5.247   5.809  0.5117 -0.2060  0.1094
  153SAPE  H12X16979   4.647   5.306   5.822  0.4356 -0.0393 -0.0862
  153SAPE  H12Y16980   4.472   5.321   5.794  0.9005  0.2764  0.3357
  153SAPE  C31316981   4.561   5.153   5.684  0.6854 -0.0679 -0.2669
  153SAPE  H13X16982   4.631   5.070   5.706 -0.0109 -1.1722 -2.0139
  153SAPE  H13Y16983   4.595   5.207   5.593  0.4250  0.5118 -0.0230
  153SAPE  C31416984   4.422   5.097   5.643  1.1343 -0.4567 -0.5296
  153SAPE  H14X16985   4.356   5.182   5.617  1.6050 -0.1961 -0.9113
  153SAPE  H14Y16986   4.377   5.046   5.730  1.3972 -0.5581 -0.4515
  153SAPE  C31516987   4.439   4.998   5.525 -0.3189 -0.7233  0.4033
  153SAPE  H15X16988   4.521   4.925   5.543 -0.0467 -0.9864 -1.7128
  153SAPE  H15Y16989   4.478   5.047   5.434  0.8628 -1.6822  0.3679
  153SAPE  C31616990   4.303   4.931   5.502  0.8394  0.4570 -1.2811
  153SAPE  H16X16991   4.225   5.006   5.477 -0.4993 -0.4661 -0.0889
  153SAPE  H16Y16992   4.275   4.878   5.596 -0.1459  2.3394 -0.4658
  153SAPE  C31716993   4.300   4.819   5.396 -1.0983 -0.4294 -0.0159
  153SAPE  H17X16994   4.374   4.741   5.424 -1.3227 -1.0667 -1.1556
  153SAPE  H17Y16995   4.329   4.864   5.299 -0.8356 -0.8119 -0.1146
  153SAPE  C31816996   4.160   4.761   5.363  0.2796 -0.1721 -0.9905
  153SAPE  H18X16997   4.130   4.721   5.462  3.7283 -0.4906  0.0761
  153SAPE  H18Y16998   4.150   4.692   5.276 -1.8882 -1.3572  0.1228
  153SAPE  H18Z16999   4.096   4.848   5.338  0.0861  0.1592  0.5898
  154SAPE     N17000   2.479   1.944   7.507  0.0669 -0.8800 -0.0300
  154SAPE   HN117001   2.575   1.911   7.530 -1.1135 -4.2161  0.6294
  154SAPE   HN217002   2.424   1.963   7.594  1.2393  0.2548  0.5047
  154SAPE   HN317003   2.424   1.867   7.464  0.8040 -0.2708 -2.1834
  154SAPE   C1217004   2.496   2.063   7.413 -0.3730 -0.7014 -0.7975
  154SAPE  H12A17005   2.401   2.080   7.357 -0.3941  1.0539 -0.2617
  154SAPE  H12B17006   2.569   2.036   7.333  1.2148  1.4665 -0.1649
  154SAPE   C1117007   2.556   2.191   7.489 -0.3914  0.1336  0.1940
  154SAPE  H11A17008   2.608   2.263   7.423  0.6395  0.8610  1.7329
  154SAPE  H11B17009   2.641   2.154   7.552 -0.5447  1.4836  1.2436
  154SAPE     P17010   2.380   2.377   7.534  0.3279  0.0120 -0.3491
  154SAPE   O1317011   2.265   2.382   7.627  0.5494 -0.2534  0.6275
  154SAPE   O1417012   2.468   2.494   7.534 -0.0664  0.3528  0.2150
  154SAPE   O1217013   2.470   2.252   7.586 -0.3148  0.1537 -0.5329
  154SAPE   O1117014   2.337   2.326   7.395 -0.2682 -0.1165 -0.2383
  154SAPE    C117015   2.198   2.305   7.365 -0.0670 -0.0336 -0.1223
  154SAPE    HA17016   2.158   2.214   7.416  0.0872  0.5445  1.0627
  154SAPE    HB17017   2.147   2.397   7.401  1.5853 -0.3219  3.3097
  154SAPE    C217018   2.174   2.277   7.213 -0.0933 -0.4626  0.6306
  154SAPE    HS17019   2.214   2.175   7.195  0.6558  0.1278 -1.3127
  154SAPE   O2117020   2.247   2.369   7.124 -0.2228  0.1257 -0.2084
  154SAPE   C2117021   2.373   2.353   7.100  0.1789  0.1316 -1.7837
  154SAPE   O2217022   2.438   2.249   7.135 -0.2877  0.5170 -1.1483
  154SAPE   C2217023   2.435   2.473   7.030  0.7073  0.7691 -0.5720
  154SAPE   H2R17024   2.349   2.521   6.977 -1.4311 -1.3387  0.7576
  154SAPE   H2S17025   2.483   2.541   7.104  0.8625  0.5187 -0.4415
  154SAPE    C317026   2.023   2.285   7.183  0.6192  0.8520 -0.3111
  154SAPE    HX17027   1.996   2.392   7.187  2.3954  1.3105  0.3691
  154SAPE    HY17028   1.957   2.235   7.258  0.3523  1.7580  0.0652
  154SAPE   O3117029   1.993   2.237   7.049  0.3380  0.6805 -0.4481
  154SAPE   C3117030   1.987   2.108   7.046 -0.7901  0.1955 -0.2187
  154SAPE   O3217031   2.012   2.031   7.139 -0.0881 -0.0579 -0.1024
  154SAPE   C3217032   1.941   2.065   6.911 -0.5374 -0.2687 -0.5273
  154SAPE   H2X17033   1.839   2.106   6.894 -0.7359 -0.6237 -0.1975
  154SAPE   H2Y17034   1.943   1.954   6.914  0.1800 -0.2524 -0.2505
  154SAPE   C2317035   2.540   2.433   6.924 -0.0131  0.5274 -0.4123
  154SAPE   H3R17036   2.632   2.414   6.982 -0.1335 -0.2763 -0.4716
  154SAPE   H3S17037   2.551   2.528   6.868 -0.5529  0.2252 -1.0593
  154SAPE   C2417038   2.515   2.321   6.822 -0.2628  0.2222  0.1466
  154SAPE   H4R17039   2.505   2.224   6.876  1.2871 -0.7342 -1.1816
  154SAPE   H4S17040   2.599   2.308   6.750  0.3469 -0.1467  0.9124
  154SAPE   C2517041   2.384   2.343   6.750  0.2350 -0.0499  0.2857
  154SAPE   H5R17042   2.312   2.406   6.804  0.7413  0.5270  0.3075
  154SAPE   C2617043   2.354   2.315   6.622 -0.6676  0.1370 -0.9089
  154SAPE   H6R17044   2.253   2.345   6.592 -1.5535 -0.8886  0.8793
  154SAPE   C2717045   2.430   2.222   6.531  0.5835 -0.3896  0.4076
  154SAPE   H7R17046   2.365   2.152   6.473  0.6050  0.9094 -1.2476
  154SAPE   H7S17047   2.495   2.156   6.592 -0.0565 -0.2743  1.2329
  154SAPE   C2817048   2.521   2.293   6.439  0.1623 -0.7186  0.0421
  154SAPE   H8R17049   2.614   2.340   6.474  1.0283 -0.8011 -2.0160
  154SAPE   C2917050   2.510   2.281   6.304 -0.3085 -0.5443 -0.1831
  154SAPE   H9R17051   2.594   2.324   6.247 -0.1468  0.4800  0.7936
  154SAPE  C21017052   2.425   2.205   6.209 -0.0708  0.3431  0.3329
  154SAPE  H10R17053   2.381   2.272   6.132  0.9469  0.3671 -0.2467
  154SAPE  H10S17054   2.336   2.164   6.261 -0.0596  1.3480  1.1930
  154SAPE  C21117055   2.494   2.088   6.143  0.5525  0.9989  0.4480
  154SAPE  H11R17056   2.603   2.086   6.137  0.4788  0.1085 -1.1111
  154SAPE  C21217057   2.422   1.991   6.088 -0.2182  0.4465  0.3094
  154SAPE  H12R17058   2.480   1.911   6.040 -0.7790 -0.4051  1.0295
  154SAPE  C21317059   2.279   1.969   6.081  0.0514  0.0341 -0.1779
  154SAPE  H13R17060   2.232   2.068   6.064  1.0731  0.3846 -1.1327
  154SAPE  H13S17061   2.233   1.920   6.169 -0.4279  0.8436  0.0285
  154SAPE  C21417062   2.243   1.891   5.957 -0.3873  0.5317 -0.9377
  154SAPE  H14R17063   2.204   1.791   5.982 -1.7624  1.9470  3.2760
  154SAPE  C21517064   2.226   1.932   5.828 -0.2087  0.2901 -0.4501
  154SAPE  H15R17065   2.213   1.857   5.749  0.3268 -1.0853  0.7205
  154SAPE  C21617066   2.251   2.076   5.782  0.1543 -0.3081  0.1244
  154SAPE  H16R17067   2.337   2.078   5.713  1.2593  0.5163  1.4614
  154SAPE  H16S17068   2.283   2.141   5.866  0.6509  0.0436 -0.3374
  154SAPE  C21717069   2.120   2.139   5.726 -0.6290  0.0907  0.7540
  154SAPE  H17R17070   2.031   2.118   5.790 -1.0772  0.4214  0.2535
  154SAPE  H17S17071   2.097   2.091   5.629 -0.0425  0.1942  0.5630
  154SAPE  C21817072   2.110   2.299   5.722 -0.4039  0.1808 -0.5723
  154SAPE  H18R17073   2.163   2.334   5.631  0.1840 -2.4783 -1.3183
  154SAPE  H18S17074   2.158   2.340   5.814 -3.8292  0.3524  1.3359
  154SAPE  C21917075   1.969   2.346   5.734  0.2388  0.0378  0.3280
  154SAPE  H19R17076   1.961   2.456   5.726  1.8218  0.3706  2.3412
  154SAPE  H19S17077   1.925   2.305   5.828 -1.7465 -1.5621 -1.1936
  154SAPE  C22017078   1.894   2.294   5.613  0.3616 -0.7008 -0.4783
  154SAPE  H20R17079   1.961   2.282   5.526 -1.6490 -0.6684 -2.0860
  154SAPE  H20S17080   1.803   2.352   5.589  1.0455  0.7693  0.3115
  154SAPE  H20T17081   1.856   2.192   5.634  1.2981 -1.4570 -2.2953
  154SAPE   C3317082   2.032   2.111   6.798  0.1072  0.0016  0.2203
  154SAPE   H3X17083   2.140   2.091   6.810  0.6902  2.2352 -0.7313
  154SAPE   H3Y17084   2.032   2.222   6.787  0.8820 -0.0447 -0.3140
  154SAPE   C3417085   1.996   2.054   6.662  0.0980  0.0863 -0.1147
  154SAPE   H4X17086   1.905   2.106   6.627  1.4883  1.2367 -2.2311
  154SAPE   H4Y17087   1.952   1.953   6.681  0.1350  0.2360  0.8474
  154SAPE   C3517088   2.107   2.055   6.554 -0.7952 -0.4398  0.2370
  154SAPE   H5X17089   2.190   1.990   6.587 -0.2940  0.3904  0.6536
  154SAPE   H5Y17090   2.154   2.156   6.557 -0.9878 -0.3661  1.3139
  154SAPE   C3617091   2.065   2.003   6.414  0.5141 -0.0975  0.3325
  154SAPE   H6X17092   2.017   1.903   6.410  1.7390 -0.7158  0.5144
  154SAPE   H6Y17093   2.157   1.997   6.353  1.0789 -0.7065  1.2228
  154SAPE   C3717094   1.982   2.098   6.320  0.1713 -0.2211  0.0404
  154SAPE   H7X17095   1.876   2.094   6.352  0.3863 -2.2582  0.6637
  154SAPE   H7Y17096   1.977   2.057   6.217 -0.5854  1.0572 -0.4440
  154SAPE   C3817097   2.023   2.245   6.326 -0.2933 -0.4622 -0.3473
  154SAPE   H8X17098   2.128   2.258   6.291 -0.2374  0.4484  0.1320
  154SAPE   H8Y17099   2.006   2.287   6.427  0.7885  1.2505 -0.8256
  154SAPE   C3917100   1.942   2.329   6.234 -0.3873 -0.2859  0.1173
  154SAPE   H9X17101   1.835   2.341   6.259 -0.3850  0.1611 -0.0823
  154SAPE   H9Y17102   1.942   2.272   6.139  0.6586 -0.5431  0.2618
  154SAPE  C31017103   1.999   2.469   6.202 -0.8497  0.0692 -0.3434
  154SAPE  H10X17104   2.105   2.460   6.172 -0.3510  0.9319  1.0708
  154SAPE  H10Y17105   1.995   2.524   6.298  1.3459  0.3930 -0.4010
  154SAPE  C31117106   1.920   2.536   6.086 -0.1135  0.5465  0.4404
  154SAPE  H11X17107   1.826   2.581   6.123 -2.2547 -1.0194 -2.6937
  154SAPE  H11Y17108   1.896   2.448   6.024 -0.1197  0.9592 -0.1540
  154SAPE  C31217109   2.006   2.644   6.021  0.6468  0.3523  0.9445
  154SAPE  H12X17110   2.113   2.623   5.999  0.5892 -1.9956  2.5365
  154SAPE  H12Y17111   2.011   2.732   6.089  1.4418  0.6206  0.5555
  154SAPE  C31317112   1.935   2.705   5.898  0.3758  0.3409  0.2813
  154SAPE  H13X17113   1.832   2.741   5.919 -0.0112  0.8745 -2.2250
  154SAPE  H13Y17114   1.920   2.622   5.826 -1.9896  0.9357  0.0353
  154SAPE  C31417115   2.013   2.822   5.830 -0.2994 -0.0080  0.1246
  154SAPE  H14X17116   2.114   2.779   5.814 -0.1423  0.2467  0.4140
  154SAPE  H14Y17117   2.017   2.899   5.910  3.0510 -0.7061  0.7811
  154SAPE  C31517118   1.967   2.878   5.692 -0.6423  0.3953 -0.0330
  154SAPE  H15X17119   1.868   2.926   5.702 -0.5728  1.0334 -1.9228
  154SAPE  H15Y17120   1.948   2.804   5.612  0.8116  0.8852 -0.8837
  154SAPE  C31617121   2.068   2.980   5.632  0.2169 -0.1547  0.4635
  154SAPE  H16X17122   2.154   2.928   5.584 -0.6704  1.2415 -2.8680
  154SAPE  H16Y17123   2.109   3.044   5.713  1.9760  0.0467 -0.5424
  154SAPE  C31717124   2.006   3.062   5.519 -1.0656 -0.0637 -0.1807
  154SAPE  H17X17125   1.909   3.094   5.563 -1.0438  0.2160 -0.3351
  154SAPE  H17Y17126   1.981   2.992   5.436  0.8146 -1.0541  0.0277
  154SAPE  C31817127   2.081   3.184   5.468 -0.0942 -0.0409 -0.1503
  154SAPE  H18X17128   2.056   3.194   5.360  1.1138 -1.8410 -0.6271
  154SAPE  H18Y17129   2.190   3.163   5.472  0.0046 -0.6314 -3.3260
  154SAPE  H18Z17130   2.058   3.280   5.519  0.7177  0.3367 -0.4713
  155SAPE     N17131   3.176   3.276   7.645  0.1090  0.2971  0.1875
  155SAPE   HN117132   3.105   3.226   7.701 -1.0963  2.2536  0.4952
  155SAPE   HN217133   3.191   3.219   7.560 -1.9708  0.5428 -0.3988
  155SAPE   HN317134   3.265   3.293   7.696  0.5870 -4.0318  1.1812
  155SAPE   C1217135   3.127   3.407   7.591 -0.6584 -0.2114  0.1227
  155SAPE  H12A17136   3.207   3.462   7.538 -1.0641 -1.6953 -2.1600
  155SAPE  H12B17137   3.098   3.476   7.673  1.1972  4.6632 -2.8853
  155SAPE   C1117138   3.015   3.388   7.486 -0.4071  0.5328 -0.4094
  155SAPE  H11A17139   3.055   3.314   7.414  0.9007  0.2069  0.6197
  155SAPE  H11B17140   3.004   3.481   7.427  0.3825  1.0471  0.2354
  155SAPE     P17141   2.771   3.429   7.606 -0.5442  0.3894 -0.3981
  155SAPE   O1317142   2.707   3.343   7.714  0.0563 -0.3561  0.3451
  155SAPE   O1417143   2.824   3.561   7.652  0.2705  0.2913 -0.0813
  155SAPE   O1217144   2.891   3.345   7.545  0.6395  0.0512 -0.1192
  155SAPE   O1117145   2.678   3.444   7.495  0.4485 -0.2102 -0.3362
  155SAPE    C117146   2.638   3.335   7.410  0.5267  0.2948  0.6278
  155SAPE    HA17147   2.681   3.235   7.430 -0.6727 -0.7170 -1.5694
  155SAPE    HB17148   2.530   3.310   7.418  0.7001 -1.3733 -1.4780
  155SAPE    C217149   2.670   3.373   7.259 -0.6308 -0.8450 -0.0078
  155SAPE    HS17150   2.780   3.374   7.246 -0.2323  1.3832  2.7537
  155SAPE   O2117151   2.603   3.504   7.226  0.3931  0.0062  0.6549
  155SAPE   C2117152   2.676   3.615   7.238  0.6976 -0.0446 -0.1556
  155SAPE   O2217153   2.791   3.627   7.257 -0.2241 -0.2203  0.0096
  155SAPE   C2217154   2.575   3.732   7.227  0.1184  0.0556 -0.0934
  155SAPE   H2R17155   2.524   3.732   7.127  1.9161  2.1654 -1.0864
  155SAPE   H2S17156   2.491   3.713   7.297 -1.2285  0.8152 -1.4230
  155SAPE    C317157   2.624   3.251   7.168 -0.2022  0.1243  0.1647
  155SAPE    HX17158   2.522   3.230   7.205 -1.0126  2.6174 -0.4019
  155SAPE    HY17159   2.686   3.163   7.195 -0.7077 -0.1249  0.5184
  155SAPE   O3117160   2.607   3.288   7.031 -0.5877 -0.5635 -0.0399
  155SAPE   C3117161   2.719   3.263   6.965  0.3051  0.6942  0.4716
  155SAPE   O3217162   2.815   3.212   7.019 -0.4993 -0.2238  0.6480
  155SAPE   C3217163   2.704   3.316   6.824 -0.3755 -0.5671 -0.1088
  155SAPE   H2X17164   2.717   3.424   6.804  1.2300 -0.5433  0.9296
  155SAPE   H2Y17165   2.602   3.280   6.796  0.5740 -1.1007 -3.2831
  155SAPE   C2317166   2.633   3.873   7.258  0.0969  0.9977 -0.2512
  155SAPE   H3R17167   2.723   3.859   7.321  0.6556  0.8138 -1.0743
  155SAPE   H3S17168   2.557   3.932   7.313 -1.3148  2.1541 -3.1858
  155SAPE   C2417169   2.665   3.945   7.125  0.9586 -0.3113 -0.4275
  155SAPE   H4R17170   2.702   4.047   7.149 -1.6611  0.6581 -0.1658
  155SAPE   H4S17171   2.571   3.967   7.070  1.4255  2.4504 -0.2563
  155SAPE   C2517172   2.763   3.867   7.045 -0.4110 -0.2918 -0.3678
  155SAPE   H5R17173   2.846   3.826   7.103  0.0876  0.2463 -0.6904
  155SAPE   C2617174   2.754   3.835   6.914  0.2459 -0.3327 -0.0832
  155SAPE   H6R17175   2.832   3.767   6.877 -1.0260 -3.0461  1.9451
  155SAPE   C2717176   2.646   3.887   6.819  1.5814  0.0401 -0.1357
  155SAPE   H7R17177   2.553   3.910   6.876  1.0745  1.4274 -1.4614
  155SAPE   H7S17178   2.616   3.824   6.733 -1.2058 -0.0094  0.7812
  155SAPE   C2817179   2.677   4.024   6.760 -0.2245  0.1473  0.0170
  155SAPE   H8R17180   2.735   4.091   6.826  0.4384  0.3319 -0.7345
  155SAPE   C2917181   2.640   4.079   6.642 -0.0841 -0.4623  0.3838
  155SAPE   H9R17182   2.673   4.182   6.625 -0.9410  0.0909  1.9453
  155SAPE  C21017183   2.537   4.023   6.549  0.2141 -0.4764  0.7087
  155SAPE  H10R17184   2.498   4.109   6.490 -0.7404 -0.9182  0.6798
  155SAPE  H10S17185   2.450   3.977   6.600 -2.4856  0.6843 -2.5462
  155SAPE  C21117186   2.580   3.919   6.448 -0.1678  0.3302 -1.0484
  155SAPE  H11R17187   2.678   3.875   6.472 -0.9282 -0.1187  1.5679
  155SAPE  C21217188   2.521   3.897   6.329 -0.5148 -0.0320 -0.0737
  155SAPE  H12R17189   2.563   3.815   6.269  2.2201  0.7955  0.5663
  155SAPE  C21317190   2.388   3.949   6.272  0.2610  0.5480  0.5585
  155SAPE  H13R17191   2.400   3.945   6.161  0.6138  0.9982  0.5772
  155SAPE  H13S17192   2.395   4.057   6.297 -1.1346  1.1289 -1.3076
  155SAPE  C21417193   2.269   3.866   6.311  0.4647 -0.3850 -0.2858
  155SAPE  H14R17194   2.249   3.877   6.418  1.0820 -0.1542 -0.1918
  155SAPE  C21517195   2.206   3.772   6.248 -0.4664  0.3373 -0.6665
  155SAPE  H15R17196   2.118   3.724   6.295  0.0226  1.3055  1.3730
  155SAPE  C21617197   2.219   3.717   6.102  0.0908 -0.5649  0.0073
  155SAPE  H16R17198   2.308   3.752   6.046 -0.0493 -0.4289 -0.1306
  155SAPE  H16S17199   2.126   3.729   6.042  0.6386  1.2944 -0.5368
  155SAPE  C21717200   2.233   3.566   6.110  0.0732  1.3372  0.1589
  155SAPE  H17R17201   2.147   3.515   6.157 -0.1612  0.4086 -1.2142
  155SAPE  H17S17202   2.328   3.542   6.162 -1.4211 -0.3186  2.2826
  155SAPE  C21817203   2.243   3.519   5.961  0.7459 -0.2909 -0.8527
  155SAPE  H18R17204   2.339   3.554   5.920  0.3880  0.4810 -1.0481
  155SAPE  H18S17205   2.164   3.576   5.908  1.6523  2.1608  0.2916
  155SAPE  C21917206   2.235   3.367   5.942 -0.3492  0.1005  0.7267
  155SAPE  H19R17207   2.136   3.335   5.980  0.7549 -3.0602  1.2073
  155SAPE  H19S17208   2.313   3.307   5.992 -0.8808 -0.0973  1.3394
  155SAPE  C22017209   2.237   3.329   5.795 -0.6798  0.6266  0.3040
  155SAPE  H20R17210   2.243   3.219   5.804 -3.3067  0.3761 -0.1957
  155SAPE  H20S17211   2.335   3.361   5.753 -0.8113  1.2892  0.4829
  155SAPE  H20T17212   2.159   3.365   5.724  0.3112  0.7859 -0.7327
  155SAPE   C3317213   2.794   3.246   6.725 -0.4060 -0.6700  0.3656
  155SAPE   H3X17214   2.896   3.248   6.768 -1.2030  0.5068  2.3531
  155SAPE   H3Y17215   2.795   3.302   6.629  0.0455  0.0185  0.7600
  155SAPE   C3417216   2.750   3.104   6.691 -0.2337 -0.2061 -0.5068
  155SAPE   H4X17217   2.735   3.044   6.783 -0.8925 -1.6509 -1.5067
  155SAPE   H4Y17218   2.836   3.051   6.645 -0.9825 -2.0897  0.1528
  155SAPE   C3517219   2.624   3.094   6.607  0.5715 -0.1039  0.6307
  155SAPE   H5X17220   2.640   3.157   6.517  2.4833  0.9914  1.6630
  155SAPE   H5Y17221   2.539   3.136   6.665 -0.9029  1.7623 -2.6041
  155SAPE   C3617222   2.582   2.956   6.569  0.0060  1.1796 -0.1684
  155SAPE   H6X17223   2.555   2.900   6.661  3.2706  1.2930  1.0042
  155SAPE   H6Y17224   2.664   2.908   6.512 -0.3594 -0.0102  0.2752
  155SAPE   C3717225   2.453   2.950   6.481 -0.4453  0.3788 -0.0482
  155SAPE   H7X17226   2.442   3.035   6.410  1.7796  0.8778  0.1494
  155SAPE   H7Y17227   2.367   2.955   6.552  0.7248  3.1738  1.3044
  155SAPE   C3817228   2.435   2.816   6.405 -0.1130 -0.0099 -0.4066
  155SAPE   H8X17229   2.334   2.770   6.406 -0.0089 -0.2568  0.9619
  155SAPE   H8Y17230   2.501   2.744   6.457  1.4544  1.1071 -0.7615
  155SAPE   C3917231   2.483   2.832   6.264 -0.2787 -0.6776  0.6220
  155SAPE   H9X17232   2.587   2.870   6.270  0.5106 -2.5097 -0.6117
  155SAPE   H9Y17233   2.436   2.910   6.201 -2.0017 -2.4811 -0.4156
  155SAPE  C31017234   2.475   2.704   6.185  0.2472  0.3716  1.0260
  155SAPE  H10X17235   2.371   2.667   6.173 -0.1171  1.0981  1.8261
  155SAPE  H10Y17236   2.511   2.610   6.231 -1.2758 -1.3800 -1.1437
  155SAPE  C31117237   2.535   2.728   6.049 -0.7669  0.7900  0.5032
  155SAPE  H11X17238   2.640   2.764   6.054 -0.3494 -0.5072  2.1201
  155SAPE  H11Y17239   2.501   2.817   5.991  0.9592  0.9705 -0.3087
  155SAPE  C31217240   2.527   2.609   5.945  0.1732 -0.3981 -0.1588
  155SAPE  H12X17241   2.421   2.582   5.931 -0.2561  0.7664  0.6535
  155SAPE  H12Y17242   2.585   2.532   6.000  1.8435 -1.0040 -2.6010
  155SAPE  C31317243   2.589   2.634   5.806  0.0318  0.1044 -0.5983
  155SAPE  H13X17244   2.696   2.612   5.827  0.6877  1.8926 -1.8231
  155SAPE  H13Y17245   2.580   2.739   5.771  1.9293  0.4076 -0.2735
  155SAPE  C31417246   2.522   2.543   5.698  0.1365  0.1427 -0.0056
  155SAPE  H14X17247   2.421   2.589   5.691 -1.1055 -2.6898 -2.1449
  155SAPE  H14Y17248   2.505   2.437   5.725  1.5032 -0.0246  0.2902
  155SAPE  C31517249   2.593   2.552   5.558  0.0078  0.6980 -0.2695
  155SAPE  H15X17250   2.686   2.494   5.573  1.5764  2.5285 -2.3973
  155SAPE  H15Y17251   2.613   2.659   5.537  2.0264  0.5220  0.6010
  155SAPE  C31617252   2.515   2.502   5.436  0.7906 -0.1441  0.1192
  155SAPE  H16X17253   2.438   2.577   5.407 -1.5167 -2.4904 -0.1076
  155SAPE  H16Y17254   2.463   2.405   5.449  0.6543 -0.3787 -1.8516
  155SAPE  C31717255   2.608   2.487   5.317 -0.1818 -0.2614 -0.9353
  155SAPE  H17X17256   2.685   2.566   5.330  0.5953 -1.2578  0.7707
  155SAPE  H17Y17257   2.540   2.523   5.237 -1.4454 -0.5122 -0.0069
  155SAPE  C31817258   2.671   2.349   5.283  0.1936  0.1158 -0.4787
  155SAPE  H18X17259   2.729   2.354   5.188  0.7373  5.5714 -0.1360
  155SAPE  H18Y17260   2.596   2.268   5.287  0.5853 -0.3327 -1.6675
  155SAPE  H18Z17261   2.734   2.335   5.373 -0.0719 -1.3503 -0.4906
  156SAPE     N17262   6.047   3.613   8.064 -0.5740 -0.7261  0.2898
  156SAPE   HN117263   5.997   3.666   7.989 -0.3163 -0.3982  0.3454
  156SAPE   HN217264   6.017   3.661   8.151  1.0603  0.5424  0.2011
  156SAPE   HN317265   6.147   3.629   8.041 -0.7818 -0.6375 -0.6235
  156SAPE   C1217266   6.003   3.469   8.064  0.2773 -0.6000 -0.3178
  156SAPE  H12A17267   6.045   3.421   8.156 -1.9032  0.5744  1.3795
  156SAPE  H12B17268   6.042   3.429   7.968 -0.7582 -0.6459 -0.7241
  156SAPE   C1117269   5.848   3.464   8.075 -0.1653 -0.0738  0.3797
  156SAPE  H11A17270   5.810   3.528   7.992  2.5798  2.3172  0.8073
  156SAPE  H11B17271   5.811   3.521   8.162 -1.1781  2.0424 -1.3426
  156SAPE     P17272   5.653   3.293   8.050  0.2402  0.1820  0.0579
  156SAPE   O1317273   5.617   3.177   8.137  0.4057  0.3615  0.0893
  156SAPE   O1417274   5.571   3.416   8.066  0.1944 -0.1281  0.1138
  156SAPE   O1217275   5.810   3.325   8.075 -0.5692  0.1080 -0.2152
  156SAPE   O1117276   5.633   3.245   7.904  0.2465  0.4639 -0.1473
  156SAPE    C117277   5.727   3.309   7.809  0.4971 -0.0136  0.2141
  156SAPE    HA17278   5.691   3.413   7.794 -1.6092 -1.0268 -2.5201
  156SAPE    HB17279   5.836   3.312   7.833  0.3704  1.7854  0.7058
  156SAPE    C217280   5.725   3.244   7.665 -0.0472  0.3159 -0.3714
  156SAPE    HS17281   5.782   3.312   7.598 -2.2249  2.4581 -0.1978
  156SAPE   O2117282   5.587   3.242   7.613  0.6671 -0.4881 -0.0130
  156SAPE   C2117283   5.535   3.358   7.586 -0.6169  0.6119  0.3913
  156SAPE   O2217284   5.597   3.462   7.573 -0.0601  0.1460  0.0065
  156SAPE   C2217285   5.383   3.345   7.570 -0.2679 -0.1397  0.0368
  156SAPE   H2R17286   5.378   3.263   7.495  0.8492 -0.4184  0.2498
  156SAPE   H2S17287   5.332   3.327   7.667  0.4576 -0.5726  0.3510
  156SAPE    C317288   5.794   3.103   7.659  0.1235 -1.0146  0.1201
  156SAPE    HX17289   5.744   3.023   7.717 -0.6135 -1.1945 -0.7406
  156SAPE    HY17290   5.897   3.127   7.693  0.2411 -1.6302  0.2126
  156SAPE   O3117291   5.790   3.069   7.520 -0.1554 -0.1064 -0.1730
  156SAPE   C3117292   5.680   2.996   7.477 -0.8611  0.6715 -0.1292
  156SAPE   O3217293   5.587   2.960   7.544  0.3527 -0.0037  1.1087
  156SAPE   C3217294   5.709   2.966   7.330 -0.5729 -0.0302  0.0039
  156SAPE   H2X17295   5.817   2.983   7.312 -0.6246 -0.7334 -1.0336
  156SAPE   H2Y17296   5.658   3.051   7.280 -1.1198  0.6388  1.6198
  156SAPE   C2317297   5.318   3.469   7.510 -0.2811  0.0320 -0.7382
  156SAPE   H3R17298   5.374   3.487   7.415 -1.0152 -1.7975 -1.5721
  156SAPE   H3S17299   5.347   3.551   7.579  1.9892 -1.4347  0.1814
  156SAPE   C2417300   5.167   3.439   7.495  0.3073  0.2749  0.1780
  156SAPE   H4R17301   5.136   3.386   7.587 -1.7410 -0.6811 -0.9891
  156SAPE   H4S17302   5.159   3.365   7.412 -0.0654  0.8109 -0.2742
  156SAPE   C2517303   5.081   3.560   7.461 -0.8328 -0.3850  0.1154
  156SAPE   H5R17304   5.053   3.625   7.546  2.0532 -1.0056  1.6630
  156SAPE   C2617305   5.016   3.585   7.345  0.2552  0.3822 -0.6712
  156SAPE   H6R17306   4.949   3.672   7.348  0.6597  0.7151 -1.1402
  156SAPE   C2717307   5.027   3.513   7.213 -0.3782  0.1853 -0.0463
  156SAPE   H7R17308   4.930   3.525   7.160 -0.0630 -0.4764 -0.7907
  156SAPE   H7S17309   5.034   3.405   7.237 -0.1916 -0.2409 -1.8746
  156SAPE   C2817310   5.142   3.565   7.129 -0.1874  0.2011  0.5313
  156SAPE   H8R17311   5.225   3.612   7.184 -1.1112  1.1423  1.1865
  156SAPE   C2917312   5.159   3.543   7.000 -0.4599  0.0822  0.2294
  156SAPE   H9R17313   5.247   3.589   6.953  1.4668 -3.7970 -0.3889
  156SAPE  C21017314   5.052   3.478   6.912  0.1211 -0.0654 -0.1185
  156SAPE  H10R17315   4.963   3.543   6.926  0.0658  0.6989 -3.3510
  156SAPE  H10S17316   5.036   3.376   6.953  1.0301  0.2312  1.0512
  156SAPE  C21117317   5.095   3.474   6.768 -0.8307  0.8478  0.3411
  156SAPE  H11R17318   5.174   3.402   6.744 -2.4052 -1.5824  2.0708
  156SAPE  C21217319   5.048   3.533   6.659 -0.7013 -0.3720 -0.9083
  156SAPE  H12R17320   5.099   3.529   6.562 -1.9909 -0.6377 -1.5905
  156SAPE  C21317321   4.931   3.629   6.665  0.7137  0.8259  0.0793
  156SAPE  H13R17322   4.972   3.731   6.653  1.3277  0.8385  1.9029
  156SAPE  H13S17323   4.877   3.628   6.761  0.5661  0.5630 -0.0049
  156SAPE  C21417324   4.835   3.590   6.553  0.4232 -0.0811  0.2833
  156SAPE  H14R17325   4.742   3.535   6.573  1.1317 -0.9320  1.3917
  156SAPE  C21517326   4.841   3.628   6.420 -0.4286 -0.2125  0.3068
  156SAPE  H15R17327   4.771   3.575   6.354  0.6604 -2.3828  0.8173
  156SAPE  C21617328   4.951   3.695   6.341 -0.2028 -0.1138 -0.1512
  156SAPE  H16R17329   5.043   3.724   6.396 -1.6300  0.9996  1.7711
  156SAPE  H16S17330   4.917   3.797   6.312  2.4331  1.3504  1.5470
  156SAPE  C21717331   5.004   3.606   6.224 -0.1919 -0.0322 -0.5319
  156SAPE  H17R17332   4.982   3.499   6.242  1.8165 -1.3120 -4.5597
  156SAPE  H17S17333   5.113   3.608   6.204 -0.5664  1.5416 -2.7309
  156SAPE  C21817334   4.927   3.647   6.100  0.1567 -0.2975  0.0570
  156SAPE  H18R17335   4.903   3.755   6.107 -0.1655 -0.2126 -1.7612
  156SAPE  H18S17336   4.833   3.588   6.097 -1.1647  1.3497  3.4760
  156SAPE  C21917337   5.016   3.656   5.975  0.5547  0.1798 -0.2598
  156SAPE  H19R17338   5.098   3.722   6.010  1.3894 -0.9317 -0.0259
  156SAPE  H19S17339   4.964   3.699   5.887  0.3895  4.1624  1.5975
  156SAPE  C22017340   5.081   3.520   5.939 -0.1416  0.2032  0.7076
  156SAPE  H20R17341   5.007   3.453   5.891 -0.5091  2.5788 -2.3800
  156SAPE  H20S17342   5.126   3.465   6.024 -1.2874 -2.9440 -0.5844
  156SAPE  H20T17343   5.159   3.542   5.862 -0.4447 -0.2781  0.2565
  156SAPE   C3317344   5.661   2.828   7.285 -0.0055  0.4114 -0.2582
  156SAPE   H3X17345   5.558   2.815   7.325 -0.3652 -2.8996 -1.8947
  156SAPE   H3Y17346   5.727   2.747   7.323  3.0029  2.6328 -0.3159
  156SAPE   C3417347   5.665   2.815   7.135 -0.3475 -0.3779 -0.5785
  156SAPE   H4X17348   5.644   2.918   7.098 -1.3211 -0.4749 -0.3240
  156SAPE   H4Y17349   5.580   2.750   7.104  0.6819 -0.6625 -3.0310
  156SAPE   C3517350   5.800   2.764   7.086  0.7226  0.6512  0.3532
  156SAPE   H5X17351   5.825   2.668   7.135  3.4581  0.2689 -1.5621
  156SAPE   H5Y17352   5.889   2.824   7.116  1.3300 -0.1222  0.1331
  156SAPE   C3617353   5.815   2.760   6.934  0.7781  0.0977 -0.2579
  156SAPE   H6X17354   5.720   2.715   6.897 -0.9600  1.4491  2.2475
  156SAPE   H6Y17355   5.898   2.694   6.900  0.0450 -1.2532  0.4984
  156SAPE   C3717356   5.838   2.891   6.859  0.2157 -0.4641  0.1190
  156SAPE   H7X17357   5.947   2.910   6.852 -0.0267  1.9756  1.6788
  156SAPE   H7Y17358   5.784   2.969   6.917 -1.4357 -0.5737 -1.1680
  156SAPE   C3817359   5.770   2.896   6.718  0.1526 -0.0622 -0.6275
  156SAPE   H8X17360   5.745   3.000   6.688  0.2217 -0.0585 -0.6726
  156SAPE   H8Y17361   5.675   2.838   6.721  0.7453 -1.0413 -0.2296
  156SAPE   C3917362   5.861   2.831   6.614 -0.1937 -0.2248  0.1231
  156SAPE   H9X17363   5.882   2.724   6.635 -1.9225 -1.0240 -1.8447
  156SAPE   H9Y17364   5.961   2.880   6.615  1.2844 -3.0273  1.8352
  156SAPE  C31017365   5.807   2.828   6.471  0.4300 -0.1482  0.3499
  156SAPE  H10X17366   5.772   2.928   6.437 -0.0040 -0.3092  0.3201
  156SAPE  H10Y17367   5.712   2.771   6.476 -0.1395  0.6666 -0.6695
  156SAPE  C31117368   5.909   2.761   6.370  0.4457  0.2061  0.0973
  156SAPE  H11X17369   5.979   2.687   6.415  0.9799  0.0949 -0.8727
  156SAPE  H11Y17370   5.975   2.850   6.364  1.1395 -0.2562  0.7217
  156SAPE  C31217371   5.855   2.736   6.229 -0.2833 -0.3699 -0.3606
  156SAPE  H12X17372   5.845   2.837   6.185  0.6738  1.2544  2.8153
  156SAPE  H12Y17373   5.757   2.684   6.231 -0.8867  0.7662  0.5259
  156SAPE  C31317374   5.953   2.654   6.141 -0.0903 -0.3599 -0.1208
  156SAPE  H13X17375   5.985   2.559   6.189 -1.0163  0.5078  2.3904
  156SAPE  H13Y17376   6.045   2.717   6.130 -0.5530  0.7051  1.7337
  156SAPE  C31417377   5.902   2.622   6.001 -0.5525  0.5690  0.0366
  156SAPE  H14X17378   5.987   2.570   5.951 -0.7442 -0.4079  0.6944
  156SAPE  H14Y17379   5.880   2.718   5.951  0.5720  0.6911 -0.2587
  156SAPE  C31517380   5.783   2.516   5.998 -0.5633 -0.0478 -0.2066
  156SAPE  H15X17381   5.717   2.518   6.087 -0.9434 -3.5057 -0.2825
  156SAPE  H15Y17382   5.828   2.415   6.003  0.1864  0.3134  0.6909
  156SAPE  C31617383   5.681   2.536   5.878  0.3329  0.4835 -0.3733
  156SAPE  H16X17384   5.613   2.449   5.883 -0.4651  0.7706 -3.8742
  156SAPE  H16Y17385   5.747   2.533   5.789 -1.3960 -1.7859 -1.6641
  156SAPE  C31717386   5.603   2.667   5.888  0.2637 -0.3007  0.0315
  156SAPE  H17X17387   5.649   2.767   5.873 -1.8839  0.7373 -0.0324
  156SAPE  H17Y17388   5.550   2.675   5.985 -0.6290 -2.3191 -0.2356
  156SAPE  C31817389   5.476   2.664   5.804  0.4785  0.5975  0.1984
  156SAPE  H18X17390   5.410   2.747   5.839  0.7892  0.7988  0.3142
  156SAPE  H18Y17391   5.423   2.569   5.826 -0.2919  0.2276 -2.7849
  156SAPE  H18Z17392   5.499   2.665   5.695  2.5368 -1.6524  0.5288
  157SAPE     N17393   5.288   1.322   7.884  0.2034  0.0393 -0.6739
  157SAPE   HN117394   5.215   1.251   7.907 -1.0290  1.5760  0.4019
  157SAPE   HN217395   5.321   1.367   7.971 -0.9697  0.3104 -0.3495
  157SAPE   HN317396   5.236   1.399   7.837 -1.9768 -0.5234  0.6854
  157SAPE   C1217397   5.397   1.277   7.796 -0.1567 -0.1184  0.6433
  157SAPE  H12A17398   5.495   1.306   7.841  1.4326 -1.9157 -1.4134
  157SAPE  H12B17399   5.390   1.334   7.701  2.2898  0.0929  0.5142
  157SAPE   C1117400   5.408   1.127   7.781 -0.2991  0.2581  0.4165
  157SAPE  H11A17401   5.433   1.076   7.877  0.4859 -1.0704 -0.4517
  157SAPE  H11B17402   5.495   1.113   7.713  1.0299 -0.4377  2.1672
  157SAPE     P17403   5.287   0.946   7.645  0.2364  0.5944 -0.0310
  157SAPE   O1317404   5.392   0.850   7.691 -0.3968 -0.6155 -0.5472
  157SAPE   O1417405   5.152   0.884   7.635 -0.6974  0.0498 -0.6509
  157SAPE   O1217406   5.285   1.084   7.724  0.2242 -0.2032 -0.0722
  157SAPE   O1117407   5.320   0.995   7.502  0.1138  0.2929  0.3116
  157SAPE    C117408   5.242   1.097   7.441 -0.2849  0.3100  0.1056
  157SAPE    HA17409   5.143   1.054   7.416 -0.0220 -1.1336  1.3684
  157SAPE    HB17410   5.227   1.185   7.508 -0.2510  0.4458 -0.0660
  157SAPE    C217411   5.296   1.136   7.299  0.5533 -0.3600  0.2657
  157SAPE    HS17412   5.214   1.198   7.255  1.4005  0.7492  0.1995
  157SAPE   O2117413   5.314   1.010   7.227 -0.4896 -0.3969  0.4032
  157SAPE   C2117414   5.305   1.033   7.094 -0.2406 -0.7252 -0.4550
  157SAPE   O2217415   5.248   1.127   7.040 -0.3168 -0.0310 -0.4651
  157SAPE   C2217416   5.334   0.895   7.022  0.7079 -0.7035 -0.3858
  157SAPE   H2R17417   5.414   0.837   7.073  0.6806 -0.5518 -0.1699
  157SAPE   H2S17418   5.238   0.839   7.020  1.0326 -1.2832  0.0166
  157SAPE    C317419   5.436   1.210   7.291 -0.0167  0.3325 -0.4878
  157SAPE    HX17420   5.510   1.135   7.327 -0.7863 -0.0933  0.2466
  157SAPE    HY17421   5.448   1.294   7.362 -0.0948  0.1513 -0.2551
  157SAPE   O3117422   5.469   1.248   7.163 -0.2591  0.4309  0.3985
  157SAPE   C3117423   5.405   1.354   7.116  0.0867  0.4466  0.3672
  157SAPE   O3217424   5.335   1.426   7.184 -0.2126 -0.1582  0.3024
  157SAPE   C3217425   5.452   1.382   6.971  0.5161 -0.6661  0.5567
  157SAPE   H2X17426   5.423   1.299   6.902  0.0324  0.4460 -0.6135
  157SAPE   H2Y17427   5.562   1.395   6.971  0.3732  0.6828 -0.2961
  157SAPE   C2317428   5.379   0.916   6.877  0.4504 -0.3532  0.0520
  157SAPE   H3R17429   5.448   1.003   6.867 -1.4626  1.0351 -2.0587
  157SAPE   H3S17430   5.293   0.958   6.821  0.0238  1.3813  1.8667
  157SAPE   C2417431   5.432   0.793   6.808 -0.1823 -0.0637 -0.4113
  157SAPE   H4R17432   5.338   0.734   6.802 -0.9892  0.5405  3.4741
  157SAPE   H4S17433   5.513   0.746   6.869  2.3628  2.0913 -1.8970
  157SAPE   C2517434   5.488   0.834   6.674  0.3063  0.0515  1.2964
  157SAPE   H5R17435   5.536   0.932   6.670 -0.4180  0.3927 -2.2557
  157SAPE   C2617436   5.488   0.760   6.562  0.4383 -0.4405  0.1810
  157SAPE   H6R17437   5.535   0.803   6.472 -1.5234  2.0931  0.2565
  157SAPE   C2717438   5.419   0.623   6.551 -0.3641 -0.0930 -0.1872
  157SAPE   H7R17439   5.320   0.640   6.501 -1.3936  1.2637  2.1617
  157SAPE   H7S17440   5.383   0.580   6.646 -1.3250 -2.8192 -1.6581
  157SAPE   C2817441   5.494   0.525   6.467 -0.8877  0.6031  0.2190
  157SAPE   H8R17442   5.521   0.426   6.507  3.2947  0.5495 -2.1345
  157SAPE   C2917443   5.525   0.537   6.338  0.2488 -0.3260  0.0272
  157SAPE   H9R17444   5.596   0.464   6.298 -0.7304 -0.8206 -0.8799
  157SAPE  C21017445   5.467   0.646   6.247  0.3232  0.0941  0.1349
  157SAPE  H10R17446   5.502   0.752   6.251 -2.1784  0.9983 -0.0689
  157SAPE  H10S17447   5.357   0.653   6.260 -0.0507 -2.3776 -1.1008
  157SAPE  C21117448   5.490   0.604   6.105 -0.4461 -0.1344  0.4266
  157SAPE  H11R17449   5.587   0.642   6.070 -0.7417 -0.3227 -0.6477
  157SAPE  C21217450   5.412   0.526   6.026 -0.0831  0.4116  0.0568
  157SAPE  H12R17451   5.453   0.525   5.924 -0.1382  1.9566 -0.0121
  157SAPE  C21317452   5.289   0.449   6.059  0.0294  0.7885 -0.0268
  157SAPE  H13R17453   5.196   0.488   6.012 -1.7181  0.2791  2.7720
  157SAPE  H13S17454   5.253   0.463   6.163 -3.3885  0.9693 -1.1214
  157SAPE  C21417455   5.298   0.299   6.027 -0.4159  0.0647  0.3945
  157SAPE  H14R17456   5.338   0.288   5.926 -0.6948  0.3312  0.2513
  157SAPE  C21517457   5.274   0.192   6.105 -0.3108 -0.0618 -0.0796
  157SAPE  H15R17458   5.273   0.092   6.060 -2.0090  0.7038 -1.8913
  157SAPE  C21617459   5.231   0.191   6.250  0.5234 -0.2972  0.3990
  157SAPE  H16R17460   5.121   0.187   6.245  0.5682 -0.2292 -1.2226
  157SAPE  H16S17461   5.259   0.291   6.288 -1.7726  0.9592 -0.9664
  157SAPE  C21717462   5.290   0.077   6.335 -0.0804 -0.2331 -0.8205
  157SAPE  H17R17463   5.400   0.084   6.324  0.0028  0.2543  0.2476
  157SAPE  H17S17464   5.251  -0.019   6.296 -1.0398 -0.6204  0.9875
  157SAPE  C21817465   5.229   0.095   6.480 -0.4722 -1.1132 -0.6938
  157SAPE  H18R17466   5.250   0.005   6.543  0.2968 -0.6687 -0.2974
  157SAPE  H18S17467   5.118   0.097   6.479 -0.5342 -1.2513  1.6024
  157SAPE  C21917468   5.284   0.220   6.555  0.2108  0.2073 -0.7325
  157SAPE  H19R17469   5.224   0.306   6.519  0.9684  1.0288 -0.0887
  157SAPE  H19S17470   5.391   0.246   6.538  0.0738  1.2478 -0.0840
  157SAPE  C22017471   5.269   0.222   6.710  0.4731  0.1208  0.3606
  157SAPE  H20R17472   5.320   0.142   6.768 -0.6080 -1.0505 -0.2465
  157SAPE  H20S17473   5.161   0.221   6.736 -0.0051  0.6052 -1.4747
  157SAPE  H20T17474   5.310   0.321   6.739 -4.1715  2.3850  0.1825
  157SAPE   C3317475   5.393   1.507   6.917  0.2652  0.2321 -0.2371
  157SAPE   H3X17476   5.415   1.597   6.980 -3.9872  1.8551 -0.7380
  157SAPE   H3Y17477   5.285   1.498   6.941  0.4642 -0.5781  0.3888
  157SAPE   C3417478   5.420   1.530   6.772 -0.7128  0.0359  0.1126
  157SAPE   H4X17479   5.379   1.630   6.748 -1.8284 -0.3357  0.4385
  157SAPE   H4Y17480   5.370   1.449   6.715 -0.6836  0.5071 -0.5964
  157SAPE   C3517481   5.564   1.543   6.714 -0.1860 -0.1935 -0.1960
  157SAPE   H5X17482   5.623   1.455   6.747  1.1496  0.3138 -1.1322
  157SAPE   H5Y17483   5.613   1.635   6.752  0.6983 -0.9166  0.4554
  157SAPE   C3617484   5.583   1.533   6.562  0.3348 -0.6485 -0.1901
  157SAPE   H6X17485   5.529   1.445   6.521  1.5633 -1.7270  0.4253
  157SAPE   H6Y17486   5.690   1.524   6.530  0.2100 -1.6382 -0.3833
  157SAPE   C3717487   5.521   1.653   6.486 -0.0199  0.4714 -0.0855
  157SAPE   H7X17488   5.567   1.750   6.514 -0.3134  0.6033 -0.0611
  157SAPE   H7Y17489   5.412   1.654   6.506  0.0302  2.2188  0.2980
  157SAPE   C3817490   5.539   1.653   6.332  0.2263  0.5371 -0.3977
  157SAPE   H8X17491   5.459   1.594   6.282 -0.2734  2.0600 -1.4714
  157SAPE   H8Y17492   5.639   1.606   6.320  0.2264 -0.3594  2.4205
  157SAPE   C3917493   5.546   1.801   6.276 -0.4673  0.5682  0.2640
  157SAPE   H9X17494   5.638   1.850   6.316 -0.1947 -0.6432  1.1752
  157SAPE   H9Y17495   5.457   1.858   6.310  0.3614  1.7275  0.5769
  157SAPE  C31017496   5.553   1.799   6.122 -0.0790 -0.3878  0.4176
  157SAPE  H10X17497   5.459   1.763   6.075 -0.9977  0.6496  1.4300
  157SAPE  H10Y17498   5.631   1.728   6.087 -0.5472 -0.1946 -1.0757
  157SAPE  C31117499   5.587   1.936   6.054 -0.2469  0.1560  0.0984
  157SAPE  H11X17500   5.685   1.969   6.093  0.4545 -2.0769  0.3320
  157SAPE  H11Y17501   5.518   2.012   6.097  0.5438  1.2435 -0.4972
  157SAPE  C31217502   5.601   1.932   5.900  0.5301 -0.5614 -0.1525
  157SAPE  H12X17503   5.502   1.892   5.867 -0.0529  1.8811 -1.6362
  157SAPE  H12Y17504   5.679   1.855   5.881 -1.4289 -2.9416  0.7679
  157SAPE  C31317505   5.635   2.074   5.834  0.4995  0.0703  1.0952
  157SAPE  H13X17506   5.732   2.117   5.867  1.6577 -1.7724  0.2662
  157SAPE  H13Y17507   5.551   2.144   5.850  1.2087  0.8511  1.4756
  157SAPE  C31417508   5.660   2.058   5.684 -0.7335 -0.0473 -1.0467
  157SAPE  H14X17509   5.560   2.058   5.635 -1.3334 -0.2629  0.1349
  157SAPE  H14Y17510   5.695   1.955   5.659 -0.1457 -0.5297  1.4582
  157SAPE  C31517511   5.742   2.176   5.626 -0.1945 -0.2650  0.4250
  157SAPE  H15X17512   5.842   2.164   5.673 -1.1014 -2.5277  1.9354
  157SAPE  H15Y17513   5.701   2.271   5.666  0.6960 -0.1398  1.0629
  157SAPE  C31617514   5.738   2.186   5.473 -0.6238 -0.3290 -0.5842
  157SAPE  H16X17515   5.636   2.168   5.433 -1.7816  0.7749  1.6510
  157SAPE  H16Y17516   5.812   2.112   5.437  0.3522  0.3160  0.0562
  157SAPE  C31717517   5.785   2.330   5.425 -0.1085 -0.0753 -0.8218
  157SAPE  H17X17518   5.887   2.358   5.458 -0.3481  1.4176 -1.2882
  157SAPE  H17Y17519   5.729   2.414   5.470  0.1497  1.0087 -2.4282
  157SAPE  C31817520   5.790   2.349   5.272 -0.3508  0.0601  0.6132
  157SAPE  H18X17521   5.880   2.302   5.227 -1.6968  0.8532 -3.2316
  157SAPE  H18Y17522   5.802   2.455   5.244 -0.3428 -0.6639 -2.4532
  157SAPE  H18Z17523   5.700   2.313   5.217  0.2508  0.9005 -0.9746
  158SAPE     N17524   1.421   0.965   7.158 -0.0384 -0.2628  0.4435
  158SAPE   HN117525   1.489   1.032   7.198 -0.4779  0.7379 -0.4216
  158SAPE   HN217526   1.426   0.963   7.054 -4.4793 -2.3289  0.0153
  158SAPE   HN317527   1.323   0.999   7.167 -0.3553 -1.0531  0.1450
  158SAPE   C1217528   1.439   0.831   7.224 -0.0953 -0.3389  0.1818
  158SAPE  H12A17529   1.420   0.756   7.144 -0.2188 -0.8909  0.7236
  158SAPE  H12B17530   1.361   0.823   7.302  2.2237  1.0161  2.8234
  158SAPE   C1117531   1.588   0.829   7.277  1.7736  0.0777  0.3398
  158SAPE  H11A17532   1.611   0.733   7.328 -3.4516 -2.1228 -0.8238
  158SAPE  H11B17533   1.593   0.907   7.356  0.5172  0.7231 -0.1925
  158SAPE     P17534   1.835   0.909   7.212  0.0453  0.1129 -0.2773
  158SAPE   O1317535   1.825   1.057   7.233 -0.7325  0.0876  0.2403
  158SAPE   O1417536   1.896   0.825   7.314 -0.4839 -0.0849  0.0745
  158SAPE   O1217537   1.690   0.851   7.184 -0.0178 -0.0955  0.1348
  158SAPE   O1117538   1.904   0.874   7.082  0.1340  0.2576  0.5213
  158SAPE    C117539   1.926   0.737   7.044  0.1939  0.1460  0.0018
  158SAPE    HA17540   1.946   0.668   7.129 -2.3528  0.4303  0.9231
  158SAPE    HB17541   1.832   0.695   7.003 -0.8102  2.2875 -0.0568
  158SAPE    C217542   2.051   0.724   6.944 -0.4963 -1.0144 -0.1628
  158SAPE    HS17543   2.133   0.791   6.976 -0.0903 -0.6521 -1.8657
  158SAPE   O2117544   2.003   0.772   6.817 -0.3182 -0.0603 -0.2000
  158SAPE   C2117545   2.086   0.800   6.723 -0.2643 -0.1184  0.4881
  158SAPE   O2217546   2.207   0.780   6.721 -0.0409  0.0726  0.2982
  158SAPE   C2217547   2.003   0.857   6.618  0.0960  0.0511  0.0204
  158SAPE   H2R17548   1.906   0.803   6.618  1.7230 -3.0966 -0.0450
  158SAPE   H2S17549   1.988   0.964   6.644 -1.5475 -0.3857  1.0314
  158SAPE    C317550   2.109   0.577   6.933  0.1759 -0.3562  0.0535
  158SAPE    HX17551   2.148   0.548   7.033 -1.2909 -0.6402  0.5595
  158SAPE    HY17552   2.192   0.554   6.862 -1.5507 -1.0654 -1.8236
  158SAPE   O3117553   2.011   0.475   6.908  0.5378 -0.2116  0.0233
  158SAPE   C3117554   2.012   0.364   6.974 -0.6826 -0.4390 -0.4183
  158SAPE   O3217555   2.071   0.334   7.074  0.9313  0.5618  0.2608
  158SAPE   C3217556   1.927   0.262   6.895 -0.0264 -0.6937 -0.1376
  158SAPE   H2X17557   1.946   0.294   6.790  0.9530  1.5718  0.6670
  158SAPE   H2Y17558   1.819   0.268   6.921 -0.3096 -3.6823 -0.2117
  158SAPE   C2317559   2.060   0.834   6.474  0.0869  0.1335  0.3844
  158SAPE   H3R17560   2.159   0.884   6.473  0.3814 -0.3574  2.2899
  158SAPE   H3S17561   1.989   0.885   6.405 -0.4357 -3.0120 -1.6347
  158SAPE   C2417562   2.074   0.687   6.425  0.4451  0.3106 -0.1067
  158SAPE   H4R17563   2.144   0.640   6.498  0.1319  0.5078  0.3258
  158SAPE   H4S17564   2.135   0.703   6.333  0.7333 -2.6195 -0.5149
  158SAPE   C2517565   1.943   0.613   6.416 -0.4500 -0.1421 -0.8994
  158SAPE   H5R17566   1.896   0.582   6.511 -1.5941  0.1928 -1.3390
  158SAPE   C2617567   1.868   0.592   6.302 -0.6737  0.9950 -0.0546
  158SAPE   H6R17568   1.767   0.552   6.316 -1.0110  1.9807  0.4314
  158SAPE   C2717569   1.910   0.620   6.158  0.3505  0.1020 -0.9526
  158SAPE   H7R17570   1.971   0.712   6.168  1.4755 -0.9046  3.0941
  158SAPE   H7S17571   1.823   0.659   6.100 -1.1963  0.8513  1.7110
  158SAPE   C2817572   1.985   0.522   6.081  0.2161  0.7069  0.0546
  158SAPE   H8R17573   1.996   0.435   6.147 -1.8901  1.4145  1.4476
  158SAPE   C2917574   2.020   0.511   5.951  0.1112 -0.2639  0.0800
  158SAPE   H9R17575   2.091   0.432   5.924  1.1198  0.0131  1.7799
  158SAPE  C21017576   1.992   0.629   5.854 -0.5526 -0.3833 -0.0816
  158SAPE  H10R17577   2.085   0.655   5.799 -1.2800 -0.5484 -1.4372
  158SAPE  H10S17578   1.969   0.720   5.913  1.1211  0.8457 -1.2239
  158SAPE  C21117579   1.886   0.603   5.745 -0.1920  0.6097 -0.1222
  158SAPE  H11R17580   1.786   0.639   5.771  0.1700  1.4244  0.1502
  158SAPE  C21217581   1.904   0.555   5.618 -0.1266 -0.7236 -0.2690
  158SAPE  H12R17582   1.816   0.537   5.554  0.8984 -0.5300 -1.7701
  158SAPE  C21317583   2.034   0.520   5.553 -0.3020 -0.2822 -0.3398
  158SAPE  H13R17584   2.013   0.441   5.477  2.7150 -0.3120 -1.2672
  158SAPE  H13S17585   2.102   0.477   5.629  2.0369  3.5330 -0.0393
  158SAPE  C21417586   2.090   0.643   5.490 -0.2235 -0.5596 -0.5613
  158SAPE  H14R17587   2.086   0.726   5.563 -0.2028 -0.2751 -0.8782
  158SAPE  C21517588   2.140   0.656   5.366  0.2922  0.4946  1.0070
  158SAPE  H15R17589   2.183   0.750   5.329  0.2854 -0.2460 -1.0591
  158SAPE  C21617590   2.148   0.542   5.264 -0.1038 -0.6558  0.6810
  158SAPE  H16R17591   2.142   0.444   5.315 -1.0827  0.3937  2.7169
  158SAPE  H16S17592   2.245   0.541   5.209  0.6591 -0.5332  1.9685
  158SAPE  C21717593   2.043   0.564   5.156  0.0819 -0.0779 -0.4622
  158SAPE  H17R17594   1.945   0.543   5.205 -0.2359 -3.2358 -2.2239
  158SAPE  H17S17595   2.059   0.493   5.073 -0.2685 -0.8281  0.0918
  158SAPE  C21817596   2.035   0.695   5.091  0.0108 -0.2424  0.2812
  158SAPE  H18R17597   2.130   0.709   5.036 -1.4369 -2.6879 -3.1932
  158SAPE  H18S17598   2.029   0.774   5.169 -0.8388 -0.9025  0.9084
  158SAPE  C21917599   1.917   0.715   4.992 -0.3621 -0.4209  0.3610
  158SAPE  H19R17600   1.819   0.723   5.043  0.1046  2.8716  0.9606
  158SAPE  H19S17601   1.915   0.617   4.939 -1.5844 -0.0846 -0.2578
  158SAPE  C22017602   1.949   0.833   4.899 -0.1218 -0.3723 -0.6388
  158SAPE  H20R17603   2.049   0.823   4.852  0.0986  0.3192 -0.3376
  158SAPE  H20S17604   1.958   0.928   4.957 -1.0957  0.0243 -1.1049
  158SAPE  H20T17605   1.867   0.850   4.825 -0.8383  0.5840  0.3472
  158SAPE   C3317606   1.970   0.110   6.916 -0.4732 -0.4993 -0.2665
  158SAPE   H3X17607   1.922   0.067   7.007 -0.4196 -0.7050 -0.3347
  158SAPE   H3Y17608   2.079   0.097   6.931 -0.7965  0.0797  3.7445
  158SAPE   C3417609   1.920   0.024   6.799  0.7228 -0.3949 -0.0374
  158SAPE   H4X17610   1.815   0.058   6.786  0.1865 -1.1887  1.8704
  158SAPE   H4Y17611   1.911  -0.086   6.806 -0.3416 -0.4177 -1.3016
  158SAPE   C3517612   1.999   0.050   6.666  0.2868  0.5518 -0.1745
  158SAPE   H5X17613   2.103   0.023   6.694 -0.0938 -0.1809  0.6370
  158SAPE   H5Y17614   1.992   0.157   6.639 -0.4351  0.5799  0.0723
  158SAPE   C3617615   1.958  -0.021   6.542  0.1529  0.9642 -0.2826
  158SAPE   H6X17616   1.850   0.003   6.532  0.5994  2.2964 -2.4700
  158SAPE   H6Y17617   1.969  -0.131   6.545 -0.0162  0.9497 -0.1453
  158SAPE   C3717618   2.029   0.030   6.416  0.3662  0.1737  0.1143
  158SAPE   H7X17619   2.134  -0.006   6.412  0.0561 -0.7736  0.1687
  158SAPE   H7Y17620   2.023   0.141   6.414  1.5502  0.2452 -0.0317
  158SAPE   C3817621   1.944   0.004   6.297 -0.6859  0.2811  0.9201
  158SAPE   H8X17622   1.839   0.036   6.311 -1.5003  0.1036 -3.4497
  158SAPE   H8Y17623   1.956  -0.102   6.268  1.2349  0.4545  0.9646
  158SAPE   C3917624   2.008   0.067   6.170 -0.7311  0.0114  0.1636
  158SAPE   H9X17625   2.115   0.044   6.155  0.2497  2.7033  2.1450
  158SAPE   H9Y17626   2.003   0.178   6.175 -0.1263  0.0092  0.8872
  158SAPE  C31017627   1.925   0.025   6.039 -0.7885 -0.3771  0.1366
  158SAPE  H10X17628   1.817   0.051   6.045 -0.0905  2.8832  0.3668
  158SAPE  H10Y17629   1.949  -0.084   6.033 -1.9104 -0.8656  2.9221
  158SAPE  C31117630   1.979   0.108   5.921 -0.2788  0.5637 -0.1641
  158SAPE  H11X17631   2.089   0.123   5.927 -0.4709  1.7900  0.8585
  158SAPE  H11Y17632   1.942   0.213   5.931 -1.4254  0.3449 -1.8130
  158SAPE  C31217633   1.954   0.031   5.792 -0.2660  0.1940 -0.2971
  158SAPE  H12X17634   1.846   0.044   5.770  0.1766  1.1090 -2.1315
  158SAPE  H12Y17635   1.966  -0.079   5.800  1.4873  0.3771  0.0835
  158SAPE  C31317636   2.016   0.093   5.673  0.3726 -0.6775 -1.5252
  158SAPE  H13X17637   2.123   0.065   5.678  1.4960  3.1166 -0.4416
  158SAPE  H13Y17638   2.018   0.203   5.689  1.7444 -1.0154  1.2989
  158SAPE  C31417639   1.950   0.072   5.541  0.9744 -0.5081 -0.0306
  158SAPE  H14X17640   1.841   0.092   5.541  0.4752 -2.8887  1.4990
  158SAPE  H14Y17641   1.969  -0.033   5.509  1.3312 -0.3835 -0.2431
  158SAPE  C31517642   2.013   0.154   5.431 -0.4543 -0.2049 -0.2343
  158SAPE  H15X17643   2.123   0.149   5.442 -0.3405  0.0888 -1.1979
  158SAPE  H15Y17644   1.995   0.262   5.452  1.1265  0.2777 -1.1594
  158SAPE  C31617645   1.956   0.122   5.296 -0.3402  0.0753 -0.2487
  158SAPE  H16X17646   1.846   0.117   5.304 -0.2247 -1.4117  0.8013
  158SAPE  H16Y17647   1.988   0.032   5.240  1.5834  0.6590 -0.1755
  158SAPE  C31717648   1.980   0.232   5.183 -0.2107 -0.4032 -0.0734
  158SAPE  H17X17649   2.087   0.243   5.153 -0.1804  0.6946  0.3909
  158SAPE  H17Y17650   1.957   0.330   5.229  1.2934 -0.5416  1.0533
  158SAPE  C31817651   1.893   0.221   5.061 -0.2003 -0.0089  0.2667
  158SAPE  H18X17652   1.790   0.201   5.098  0.1951 -3.3380 -0.1667
  158SAPE  H18Y17653   1.912   0.132   4.998 -0.7313 -0.1631  0.3198
  158SAPE  H18Z17654   1.896   0.310   4.995 -0.2784 -1.1779 -1.3459
  159SAPE     N17655   1.564   0.568   2.368 -0.1219  0.0408 -0.9810
  159SAPE   HN117656   1.577   0.566   2.471 -0.0818 -0.5478 -0.9985
  159SAPE   HN217657   1.638   0.631   2.331  1.3985 -1.6591 -0.9215
  159SAPE   HN317658   1.472   0.612   2.346  0.0735  0.9612 -0.0628
  159SAPE   C1217659   1.588   0.420   2.329  0.5303 -0.4174  0.0632
  159SAPE  H12A17660   1.692   0.418   2.289  0.0938  1.3275 -1.2563
  159SAPE  H12B17661   1.522   0.392   2.244 -0.7806 -1.1954  1.2904
  159SAPE   C1117662   1.563   0.338   2.460 -0.7866  0.2936  0.0850
  159SAPE  H11A17663   1.580   0.234   2.425 -0.2086  0.8468 -1.3722
  159SAPE  H11B17664   1.457   0.342   2.494 -0.6930 -2.0744  0.8955
  159SAPE     P17665   1.688   0.294   2.679  0.1262 -0.4172  0.1035
  159SAPE   O1317666   1.734   0.162   2.629 -0.0287 -0.1907 -0.2599
  159SAPE   O1417667   1.784   0.368   2.763 -0.2022 -0.5104  0.4214
  159SAPE   O1217668   1.650   0.384   2.559  0.1811  0.3595  0.0979
  159SAPE   O1117669   1.541   0.283   2.741 -0.3434 -0.0202 -0.5927
  159SAPE    C117670   1.474   0.404   2.785  0.4689  1.1589  0.3681
  159SAPE    HA17671   1.526   0.499   2.760  0.4179  0.4949 -2.5620
  159SAPE    HB17672   1.375   0.408   2.735  0.3559  0.0180  0.4842
  159SAPE    C217673   1.439   0.401   2.938  0.4842  0.8161 -0.2105
  159SAPE    HS17674   1.348   0.465   2.945  0.9854  1.5039  0.1664
  159SAPE   O2117675   1.539   0.465   3.024 -0.3755  0.4202  0.0716
  159SAPE   C2117676   1.564   0.596   3.007 -0.0996  0.1582  0.5897
  159SAPE   O2217677   1.496   0.670   2.937  0.6304 -0.1830 -0.4341
  159SAPE   C2217678   1.685   0.621   3.086  0.4856  0.0633  0.0156
  159SAPE   H2R17679   1.739   0.527   3.114  1.5081  0.6818  0.1867
  159SAPE   H2S17680   1.761   0.672   3.024 -1.3674  0.4707 -2.0175
  159SAPE    C317681   1.421   0.258   2.991  0.3569  0.5233 -0.2472
  159SAPE    HX17682   1.522   0.217   3.011  0.9245  2.4084  0.9716
  159SAPE    HY17683   1.386   0.188   2.912  0.2073 -0.4691  0.6601
  159SAPE   O3117684   1.331   0.251   3.103 -0.0968  0.5106  0.2210
  159SAPE   C3117685   1.209   0.282   3.074  0.2470 -0.6898  0.7805
  159SAPE   O3217686   1.165   0.308   2.963  0.0708 -0.0786 -0.3767
  159SAPE   C3217687   1.126   0.297   3.207  0.3760  0.3246 -0.0425
  159SAPE   H2X17688   1.121   0.192   3.244 -2.5046  0.4210  0.0637
  159SAPE   H2Y17689   1.025   0.326   3.171 -0.5034  0.5369  2.4110
  159SAPE   C2317690   1.654   0.703   3.211  0.2347 -0.0876  0.3829
  159SAPE   H3R17691   1.616   0.796   3.164 -3.1589 -2.2576 -1.5515
  159SAPE   H3S17692   1.736   0.740   3.276  0.4794  0.2692 -0.1195
  159SAPE   C2417693   1.542   0.651   3.296 -0.6590  0.2429  0.1070
  159SAPE   H4R17694   1.577   0.561   3.351 -1.1761 -1.2562 -1.8808
  159SAPE   H4S17695   1.458   0.625   3.228  0.8543 -1.8826 -1.1050
  159SAPE   C2517696   1.502   0.756   3.393 -0.2429  0.2217 -1.5853
  159SAPE   H5R17697   1.441   0.835   3.348 -1.2068  0.4504  0.0209
  159SAPE   C2617698   1.553   0.771   3.522 -0.1387 -0.0535 -0.1384
  159SAPE   H6R17699   1.506   0.852   3.579 -1.1721 -0.0860 -0.9277
  159SAPE   C2717700   1.655   0.674   3.581  0.2415 -0.1276 -0.3151
  159SAPE   H7R17701   1.737   0.652   3.509  1.0917 -3.2354  1.4087
  159SAPE   H7S17702   1.605   0.577   3.598  2.3298 -1.0077  1.3233
  159SAPE   C2817703   1.729   0.704   3.708 -0.4706 -1.2694  0.4877
  159SAPE   H8R17704   1.822   0.757   3.686  0.0079 -1.8711  1.0151
  159SAPE   C2917705   1.686   0.678   3.829  0.0849  0.0795  0.0329
  159SAPE   H9R17706   1.747   0.695   3.919 -2.0006 -0.1030  1.5607
  159SAPE  C21017707   1.557   0.615   3.856  0.9331  0.1168 -0.6650
  159SAPE  H10R17708   1.564   0.505   3.843 -2.5009 -0.4086  0.8856
  159SAPE  H10S17709   1.483   0.655   3.783 -0.2243  2.1664  1.4921
  159SAPE  C21117710   1.497   0.667   3.980 -0.1823 -0.6904  0.1208
  159SAPE  H11R17711   1.489   0.777   3.980  3.4460 -0.2486 -2.6143
  159SAPE  C21217712   1.463   0.599   4.087  0.3315  0.3695 -0.3942
  159SAPE  H12R17713   1.411   0.656   4.165  0.0078  0.8952 -0.9918
  159SAPE  C21317714   1.480   0.451   4.118 -0.0412 -0.3063 -0.1717
  159SAPE  H13R17715   1.515   0.400   4.026  1.0603  1.8836 -1.0348
  159SAPE  H13S17716   1.382   0.411   4.154 -0.7918  3.6876  2.9684
  159SAPE  C21417717   1.589   0.423   4.226  0.1808  0.3610  0.1290
  159SAPE  H14R17718   1.690   0.425   4.183 -0.4632  0.1236 -1.4824
  159SAPE  C21517719   1.572   0.381   4.349 -0.6956 -0.5520  0.0713
  159SAPE  H15R17720   1.664   0.362   4.406  0.2818  2.1353 -0.4317
  159SAPE  C21617721   1.441   0.348   4.420 -0.5538 -1.2430  0.3839
  159SAPE  H16R17722   1.456   0.272   4.500 -3.1827 -0.7876  1.4241
  159SAPE  H16S17723   1.375   0.307   4.340 -2.1598  1.1912  0.3802
  159SAPE  C21717724   1.366   0.470   4.467  0.4439 -0.0013  0.3353
  159SAPE  H17R17725   1.275   0.436   4.521 -1.5867  0.6233 -2.4707
  159SAPE  H17S17726   1.339   0.529   4.377  3.2283 -1.6857 -1.7854
  159SAPE  C21817727   1.448   0.556   4.556 -0.3523  0.2959 -0.0068
  159SAPE  H18R17728   1.383   0.633   4.604 -1.2472 -2.3718  3.4835
  159SAPE  H18S17729   1.527   0.622   4.513  1.3863 -0.4230  1.9246
  159SAPE  C21917730   1.499   0.493   4.694 -0.3895  0.1331  0.1105
  159SAPE  H19R17731   1.448   0.401   4.731  1.5002 -0.2753  1.8727
  159SAPE  H19S17732   1.484   0.573   4.769 -1.3612  1.4140 -1.3824
  159SAPE  C22017733   1.648   0.461   4.675  0.2560  1.0458  0.4818
  159SAPE  H20R17734   1.705   0.530   4.609  1.7391 -0.0064  0.6285
  159SAPE  H20S17735   1.664   0.355   4.646  1.3154  1.2983  0.0875
  159SAPE  H20T17736   1.695   0.481   4.773  3.0772 -0.3932 -0.4762
  159SAPE   C3317737   1.175   0.403   3.306 -0.2641 -1.0390  0.2455
  159SAPE   H3X17738   1.166   0.502   3.256  1.4283 -1.5632 -1.2190
  159SAPE   H3Y17739   1.280   0.383   3.336 -0.2447 -0.4647  0.5845
  159SAPE   C3417740   1.096   0.402   3.434  0.1106 -0.2244  0.0616
  159SAPE   H4X17741   1.110   0.300   3.476 -1.1990 -1.4223 -2.2489
  159SAPE   H4Y17742   0.987   0.417   3.422  0.3391  2.9701  0.9350
  159SAPE   C3517743   1.133   0.524   3.525 -0.1459 -0.1198  0.1212
  159SAPE   H5X17744   1.132   0.610   3.455  2.3691  0.4596  0.7028
  159SAPE   H5Y17745   1.239   0.515   3.557 -0.7175 -2.1787  1.6645
  159SAPE   C3617746   1.026   0.543   3.631  0.0327 -0.8446  0.8001
  159SAPE   H6X17747   0.926   0.512   3.592 -0.9174  3.5538 -0.7937
  159SAPE   H6Y17748   1.021   0.652   3.648 -2.3159 -0.8964  0.8188
  159SAPE   C3717749   1.073   0.471   3.761 -0.1306  0.1925 -0.2242
  159SAPE   H7X17750   1.181   0.485   3.784 -0.7000  1.8204  1.6698
  159SAPE   H7Y17751   1.056   0.362   3.748 -0.4834 -0.0658  2.0394
  159SAPE   C3817752   0.995   0.506   3.884 -0.0820  0.1233 -0.6506
  159SAPE   H8X17753   0.892   0.471   3.862 -0.4988  1.1823 -0.4527
  159SAPE   H8Y17754   0.988   0.617   3.877  1.6688  0.1823 -2.4244
  159SAPE   C3917755   1.053   0.443   4.013  0.2838 -0.3844 -0.4194
  159SAPE   H9X17756   1.164   0.453   4.018  0.1514  1.4096 -0.5023
  159SAPE   H9Y17757   1.040   0.333   4.005  0.6793 -0.4895  0.2986
  159SAPE  C31017758   0.973   0.498   4.129  0.9162  0.0237  0.1012
  159SAPE  H10X17759   0.864   0.492   4.111  0.8036  1.7480  0.0315
  159SAPE  H10Y17760   0.987   0.608   4.132  0.5535  0.0707  3.5339
  159SAPE  C31117761   1.021   0.454   4.268 -0.1202  0.1632 -0.1667
  159SAPE  H11X17762   1.131   0.464   4.268 -0.1630  1.2863  2.0712
  159SAPE  H11Y17763   0.989   0.347   4.272 -2.0728  0.5328 -2.7544
  159SAPE  C31217764   0.954   0.532   4.385 -0.2707  0.0278 -0.4339
  159SAPE  H12X17765   0.848   0.510   4.362 -0.4594  1.4971 -1.0678
  159SAPE  H12Y17766   0.960   0.642   4.370 -1.5245  0.0787 -0.6477
  159SAPE  C31317767   0.992   0.475   4.524  0.6348 -0.3550 -0.4312
  159SAPE  H13X17768   1.101   0.463   4.544  0.5447 -0.2807  0.1192
  159SAPE  H13Y17769   0.952   0.372   4.526 -2.9198  0.9124  0.2020
  159SAPE  C31417770   0.927   0.557   4.641 -0.6373  1.5405  1.1604
  159SAPE  H14X17771   0.816   0.546   4.637 -0.4199 -2.3791  2.2092
  159SAPE  H14Y17772   0.973   0.657   4.630  3.2255  0.0255  2.0750
  159SAPE  C31517773   0.965   0.499   4.776  0.2728 -0.2958  0.1110
  159SAPE  H15X17774   1.075   0.494   4.784  0.1142 -1.8027  2.0334
  159SAPE  H15Y17775   0.935   0.392   4.777 -3.8560  0.6414  2.4431
  159SAPE  C31617776   0.903   0.576   4.896 -0.2257  0.1520 -0.2160
  159SAPE  H16X17777   0.806   0.625   4.872  0.0412  2.0742  2.2541
  159SAPE  H16Y17778   0.972   0.658   4.926  0.7512 -0.6381 -0.2687
  159SAPE  C31717779   0.869   0.483   5.015  0.5940  0.7174 -0.0023
  159SAPE  H17X17780   0.958   0.418   5.024 -0.2899 -0.3499  1.3112
  159SAPE  H17Y17781   0.783   0.425   4.976  0.7281  2.1999 -2.7855
  159SAPE  C31817782   0.832   0.557   5.140 -0.0009  0.0944 -0.5235
  159SAPE  H18X17783   0.808   0.487   5.222 -2.6248  0.8655 -0.5640
  159SAPE  H18Y17784   0.756   0.637   5.130  0.9327  1.0189 -0.4823
  159SAPE  H18Z17785   0.928   0.609   5.165 -0.5226  0.0672  1.6784
  160SAPE     N17786   2.223   4.399   3.336 -0.0244 -0.0713  0.2339
  160SAPE   HN117787   2.253   4.498   3.338 -1.2085  0.2993  2.1355
  160SAPE   HN217788   2.130   4.392   3.383  0.6024 -1.4443  1.3398
  160SAPE   HN317789   2.278   4.335   3.397  1.1287 -1.3935 -2.0500
  160SAPE   C1217790   2.217   4.335   3.193  0.3587  0.5207 -0.9454
  160SAPE  H12A17791   2.313   4.361   3.143 -0.7840  1.9995 -2.4969
  160SAPE  H12B17792   2.133   4.379   3.135  0.5327  1.5480 -0.4479
  160SAPE   C1117793   2.199   4.184   3.191 -0.9318 -0.2884 -0.4485
  160SAPE  H11A17794   2.293   4.137   3.227  0.6472  2.5631 -0.5711
  160SAPE  H11B17795   2.189   4.152   3.085  3.4348  0.3724 -1.2586
  160SAPE     P17796   2.028   4.008   3.285 -0.1192  0.1861 -0.1056
  160SAPE   O1317797   1.892   4.023   3.335  0.2605 -0.0688 -0.0126
  160SAPE   O1417798   2.032   3.935   3.157  0.3030  0.2970  0.4211
  160SAPE   O1217799   2.093   4.143   3.281  0.1662  0.4007  0.2499
  160SAPE   O1117800   2.108   3.926   3.389  0.1162  0.6467  0.0824
  160SAPE    C117801   2.097   3.958   3.527  0.6745  0.0741 -0.5364
  160SAPE    HA17802   2.006   4.019   3.547  0.5219 -1.2070  3.5783
  160SAPE    HB17803   2.076   3.868   3.588  0.9908  0.2611 -0.1484
  160SAPE    C217804   2.223   4.024   3.574 -0.0127  0.6300 -0.5426
  160SAPE    HS17805   2.241   4.108   3.503 -2.0388 -0.2258 -2.1546
  160SAPE   O2117806   2.328   3.920   3.560  0.0451 -0.2874 -0.2772
  160SAPE   C2117807   2.451   3.965   3.541 -0.3123  0.2907 -0.0780
  160SAPE   O2217808   2.479   4.085   3.520 -0.0144 -0.0158  0.0286
  160SAPE   C2217809   2.553   3.846   3.555  0.3162  0.1461 -0.6901
  160SAPE   H2R17810   2.505   3.762   3.608  0.5888  0.9994  0.9899
  160SAPE   H2S17811   2.569   3.815   3.449 -0.5221 -1.4043 -0.3802
  160SAPE    C317812   2.205   4.070   3.718 -0.0470 -0.0703  0.2009
  160SAPE    HX17813   2.173   3.980   3.775 -2.9230  0.5427 -0.2483
  160SAPE    HY17814   2.116   4.138   3.716 -0.7814 -1.0281 -0.5962
  160SAPE   O3117815   2.310   4.124   3.796 -0.3206 -0.1186 -0.4167
  160SAPE   C3117816   2.353   4.244   3.777 -0.0092 -0.8310 -0.0648
  160SAPE   O3217817   2.304   4.320   3.694  0.4757  0.5138  0.2077
  160SAPE   C3217818   2.476   4.273   3.865 -0.1565  0.2353  0.7356
  160SAPE   H2X17819   2.539   4.344   3.807  0.1548 -1.9120 -1.7252
  160SAPE   H2Y17820   2.536   4.180   3.875 -2.8614 -1.6748  0.2661
  160SAPE   C2317821   2.690   3.877   3.627  0.2881  0.1717  0.7528
  160SAPE   H3R17822   2.708   3.987   3.627  2.0007 -0.0785  0.6152
  160SAPE   H3S17823   2.762   3.823   3.562  0.3876  0.4975  0.5875
  160SAPE   C2417824   2.687   3.822   3.772  0.2087 -0.1055 -1.1582
  160SAPE   H4R17825   2.788   3.830   3.818 -0.7370 -0.3984  1.1184
  160SAPE   H4S17826   2.668   3.713   3.758 -0.1862  0.2172 -3.4332
  160SAPE   C2517827   2.588   3.882   3.876 -0.0745  0.2860  0.2434
  160SAPE   H5R17828   2.485   3.885   3.837  0.3178  2.8877 -0.8630
  160SAPE   C2617829   2.617   3.928   3.996 -0.0082  0.1950  0.3711
  160SAPE   H6R17830   2.533   3.973   4.051 -0.0184 -1.3239  1.6634
  160SAPE   C2717831   2.754   3.934   4.070 -0.0233 -0.7105  0.3843
  160SAPE   H7R17832   2.749   4.026   4.132 -2.4571  0.7995 -1.8859
  160SAPE   H7S17833   2.832   3.970   4.000 -1.9460  3.5570  0.1761
  160SAPE   C2817834   2.791   3.808   4.151 -0.3649  0.6942  0.3439
  160SAPE   H8R17835   2.880   3.755   4.115 -0.8236  1.3781 -1.9860
  160SAPE   C2917836   2.736   3.769   4.262  0.4296  0.2085 -0.6965
  160SAPE   H9R17837   2.779   3.678   4.306  2.0750  1.3941  0.2616
  160SAPE  C21017838   2.619   3.836   4.322 -0.0274 -0.5923 -0.6539
  160SAPE  H10R17839   2.540   3.761   4.346 -1.1106  1.4888  3.1482
  160SAPE  H10S17840   2.578   3.914   4.254  1.2905 -0.2626 -1.0925
  160SAPE  C21117841   2.655   3.911   4.456  1.1835 -1.0381  0.0317
  160SAPE  H11R17842   2.734   3.863   4.514  1.9551  2.0990  1.8145
  160SAPE  C21217843   2.594   4.021   4.498  0.1758 -0.9345 -0.8378
  160SAPE  H12R17844   2.623   4.061   4.596  0.4886  0.6753 -1.5601
  160SAPE  C21317845   2.483   4.100   4.435 -0.1442 -0.1627 -0.1374
  160SAPE  H13R17846   2.388   4.063   4.480 -0.2358  2.2982  1.9469
  160SAPE  H13S17847   2.480   4.073   4.327  1.5215  2.5928 -0.9671
  160SAPE  C21417848   2.488   4.249   4.451  0.3075 -0.9105 -1.0589
  160SAPE  H14R17849   2.522   4.310   4.367  0.0677  0.1900 -0.3764
  160SAPE  C21517850   2.449   4.304   4.564 -1.0905 -0.9983 -0.5315
  160SAPE  H15R17851   2.463   4.413   4.566 -0.2422 -1.0140 -2.6398
  160SAPE  C21617852   2.427   4.241   4.697 -0.2807  0.3968 -0.6384
  160SAPE  H16R17853   2.396   4.135   4.687 -0.4035  0.3440  0.2548
  160SAPE  H16S17854   2.343   4.298   4.743 -0.7577  0.6922 -1.8312
  160SAPE  C21717855   2.550   4.261   4.788 -0.3840 -0.1018  0.4841
  160SAPE  H17R17856   2.564   4.371   4.796  0.5391 -0.1878  0.2511
  160SAPE  H17S17857   2.640   4.235   4.728  0.2102  1.5967  0.5865
  160SAPE  C21817858   2.546   4.202   4.927  0.3818 -0.3156  0.0374
  160SAPE  H18R17859   2.653   4.190   4.956  0.2206  2.4103  2.1818
  160SAPE  H18S17860   2.496   4.103   4.919 -0.1943  0.0764 -1.6226
  160SAPE  C21917861   2.480   4.293   5.034 -0.3935  0.2192 -0.2349
  160SAPE  H19R17862   2.509   4.400   5.019  1.3442 -0.0200  1.0294
  160SAPE  H19S17863   2.523   4.247   5.125  1.6376  0.7924 -0.8312
  160SAPE  C22017864   2.331   4.274   5.042 -0.7369 -0.1880  0.0129
  160SAPE  H20R17865   2.285   4.325   5.130  0.8329 -0.8588  1.2808
  160SAPE  H20S17866   2.301   4.167   5.050 -0.1260 -0.4003 -0.4519
  160SAPE  H20T17867   2.286   4.327   4.955  1.5560 -0.0517 -1.1553
  160SAPE   C3317868   2.441   4.314   4.008 -0.2380  0.3437  0.3376
  160SAPE   H3X17869   2.531   4.324   4.072 -0.5484 -0.3159  0.8941
  160SAPE   H3Y17870   2.395   4.233   4.068  0.1014  0.2791  0.5140
  160SAPE   C3417871   2.356   4.436   4.026 -0.8104 -0.8243 -0.0890
  160SAPE   H4X17872   2.252   4.425   3.988 -0.0890 -0.7629 -2.2203
  160SAPE   H4Y17873   2.404   4.511   3.959  0.5815 -0.5925  1.1192
  160SAPE   C3517874   2.355   4.514   4.163 -0.1802  0.2353 -0.3909
  160SAPE   H5X17875   2.304   4.449   4.238  0.3627  1.0576  0.7150
  160SAPE   H5Y17876   2.280   4.596   4.158 -0.2090  0.1285 -2.6050
  160SAPE   C3617877   2.489   4.569   4.209  0.3870 -0.4739 -0.5996
  160SAPE   H6X17878   2.549   4.601   4.121 -0.2436 -1.1054 -1.2796
  160SAPE   H6Y17879   2.550   4.505   4.276  1.0134  0.7738  0.0467
  160SAPE   C3717880   2.466   4.692   4.298 -0.1106  0.1285  0.5368
  160SAPE   H7X17881   2.398   4.770   4.258 -1.1027 -0.2395  1.4622
  160SAPE   H7Y17882   2.562   4.747   4.305 -0.3963  0.6980  0.0555
  160SAPE   C3817883   2.410   4.662   4.432  0.7009  0.6648 -0.8548
  160SAPE   H8X17884   2.481   4.588   4.476  0.3512  0.9472  0.2314
  160SAPE   H8Y17885   2.320   4.597   4.430  1.2846 -0.1410 -1.5025
  160SAPE   C3917886   2.401   4.775   4.536  0.0925  0.5867 -0.3409
  160SAPE   H9X17887   2.333   4.852   4.492 -2.8352 -0.3460  2.1858
  160SAPE   H9Y17888   2.503   4.818   4.538 -0.4290  1.8417  0.0886
  160SAPE  C31017889   2.351   4.734   4.675  0.3067  0.4182  0.1319
  160SAPE  H10X17890   2.330   4.825   4.734 -3.1573 -1.0939  1.5265
  160SAPE  H10Y17891   2.422   4.664   4.724  0.9662 -0.3671 -1.8185
  160SAPE  C31117892   2.208   4.668   4.658 -0.3933  0.1098 -0.2476
  160SAPE  H11X17893   2.213   4.570   4.606  0.0903 -1.4083  2.4357
  160SAPE  H11Y17894   2.139   4.743   4.613 -0.3316  0.5649  0.4091
  160SAPE  C31217895   2.162   4.637   4.801  1.3637 -0.1743 -0.0291
  160SAPE  H12X17896   2.164   4.724   4.870 -1.2279 -1.2983  1.6535
  160SAPE  H12Y17897   2.227   4.563   4.852  0.0674 -1.4104 -0.0980
  160SAPE  C31317898   2.016   4.595   4.807  0.5480  0.0660  0.1944
  160SAPE  H13X17899   1.998   4.511   4.736 -3.1263  0.8811 -0.0396
  160SAPE  H13Y17900   1.952   4.679   4.774  1.7510  1.7174  1.8624
  160SAPE  C31417901   1.970   4.552   4.946  0.0426 -0.0121  0.3390
  160SAPE  H14X17902   2.055   4.493   4.987  1.1057  0.5234 -1.0281
  160SAPE  H14Y17903   1.873   4.501   4.963  0.4166 -1.0836 -0.6075
  160SAPE  C31517904   1.963   4.675   5.042 -0.1450 -0.0631  0.6005
  160SAPE  H15X17905   1.899   4.752   4.993 -0.2291  0.3835  1.3885
  160SAPE  H15Y17906   2.063   4.721   5.058 -0.1871  0.5682 -0.7968
  160SAPE  C31617907   1.882   4.644   5.169  0.0655 -0.1254 -0.4130
  160SAPE  H16X17908   1.937   4.577   5.239 -2.9777 -1.3044  0.9957
  160SAPE  H16Y17909   1.786   4.597   5.139  0.9325 -2.8489  0.6901
  160SAPE  C31717910   1.869   4.778   5.250  0.0194 -0.2824  0.4790
  160SAPE  H17X17911   1.823   4.859   5.190  2.3963 -1.3695 -3.1896
  160SAPE  H17Y17912   1.976   4.810   5.249  0.6172 -2.0859  1.8017
  160SAPE  C31817913   1.801   4.753   5.387  0.0508  0.6032 -0.5601
  160SAPE  H18X17914   1.841   4.663   5.438  0.8884 -0.0825 -2.3139
  160SAPE  H18Y17915   1.690   4.747   5.373 -0.2772  1.6799  1.2765
  160SAPE  H18Z17916   1.809   4.840   5.455  1.1514  0.7578 -0.8734
  161SAPE     N17917   1.767   1.497   3.472 -0.4967 -0.7440 -0.0353
  161SAPE   HN117918   1.687   1.502   3.406  1.0240 -1.0965 -1.9999
  161SAPE   HN217919   1.811   1.591   3.467 -1.0059 -0.4067  1.2273
  161SAPE   HN317920   1.830   1.418   3.448  1.4351  0.4736  0.7520
  161SAPE   C1217921   1.720   1.463   3.607  0.4706 -0.2328 -0.6719
  161SAPE  H12A17922   1.800   1.421   3.672 -0.0551  1.3669  1.0912
  161SAPE  H12B17923   1.643   1.383   3.599  1.5647 -1.6355  1.8698
  161SAPE   C1117924   1.643   1.581   3.679 -0.4484 -0.1504  0.5790
  161SAPE  H11A17925   1.721   1.655   3.709  0.0314 -0.7914  0.9242
  161SAPE  H11B17926   1.594   1.550   3.773 -0.3199 -1.0726  0.3446
  161SAPE     P17927   1.546   1.763   3.522 -0.3106 -0.1274 -0.1137
  161SAPE   O1317928   1.652   1.768   3.413  0.4830  0.0165  0.0430
  161SAPE   O1417929   1.407   1.797   3.488 -0.1343 -0.0204  0.2108
  161SAPE   O1217930   1.539   1.623   3.587  0.2540  0.3291  0.5557
  161SAPE   O1117931   1.591   1.862   3.637  0.1695  0.3317  0.2706
  161SAPE    C117932   1.509   1.965   3.692  0.6109 -0.4597  0.5459
  161SAPE    HA17933   1.439   2.006   3.615  2.9194 -0.6169 -1.7687
  161SAPE    HB17934   1.447   1.933   3.779  1.1736  0.3149  1.2339
  161SAPE    C217935   1.603   2.083   3.732  0.6445 -0.3140 -0.0330
  161SAPE    HS17936   1.652   2.123   3.641  1.7613  0.6904  0.9797
  161SAPE   O2117937   1.691   2.041   3.838  0.0400 -0.3170  0.6203
  161SAPE   C2117938   1.798   2.126   3.845  0.2697  0.5986  0.2631
  161SAPE   O2217939   1.835   2.198   3.756 -0.3155 -0.0030  0.1756
  161SAPE   C2217940   1.870   2.088   3.970 -0.0881 -0.1867 -0.2643
  161SAPE   H2R17941   1.791   2.061   4.044 -0.9623 -0.2767 -1.2006
  161SAPE   H2S17942   1.932   2.003   3.937  1.2748  0.5511  0.2982
  161SAPE    C317943   1.510   2.199   3.787 -0.1275  0.4994 -0.0482
  161SAPE    HX17944   1.436   2.239   3.714  0.1439  3.1198  0.9909
  161SAPE    HY17945   1.577   2.286   3.805  0.0301  0.6675 -1.3375
  161SAPE   O3117946   1.428   2.148   3.898  0.8612 -0.4521 -0.0612
  161SAPE   C3117947   1.478   2.180   4.013 -0.7760 -0.6118 -0.2882
  161SAPE   O3217948   1.577   2.247   4.034  0.1187 -0.1345 -0.0639
  161SAPE   C3217949   1.374   2.142   4.116  0.7232  0.1386 -0.1193
  161SAPE   H2X17950   1.335   2.039   4.097  0.1791  0.2876  0.1477
  161SAPE   H2Y17951   1.286   2.208   4.098  1.2040 -0.0075 -3.9740
  161SAPE   C2317952   1.949   2.199   4.049  0.4682  0.2419 -0.3130
  161SAPE   H3R17953   1.883   2.284   4.079  2.5726  2.1263 -0.7590
  161SAPE   H3S17954   2.028   2.237   3.980  1.2814  0.2498  0.6027
  161SAPE   C2417955   2.022   2.152   4.177  0.0291  0.1435  0.0315
  161SAPE   H4R17956   1.946   2.104   4.243  0.6463 -1.2929 -0.2809
  161SAPE   H4S17957   2.050   2.251   4.220 -1.0040  1.9301 -3.0621
  161SAPE   C2517958   2.131   2.054   4.157  0.0762  1.1160  0.5243
  161SAPE   H5R17959   2.172   2.038   4.056 -0.7545 -0.8785  0.4471
  161SAPE   C2617960   2.179   1.970   4.246 -0.2622  0.2367  0.6749
  161SAPE   H6R17961   2.259   1.901   4.214  0.9190  0.1855  3.5063
  161SAPE   C2717962   2.135   1.950   4.391 -0.1952  0.5122  0.6142
  161SAPE   H7R17963   2.036   1.999   4.405 -0.8414 -0.6266  0.2076
  161SAPE   H7S17964   2.198   2.000   4.467 -0.2215  0.6006  0.5779
  161SAPE   C2817965   2.122   1.804   4.416  0.6925  0.1881 -0.0590
  161SAPE   H8R17966   2.215   1.746   4.423 -0.2782 -1.2748  1.9278
  161SAPE   C2917967   2.002   1.739   4.443 -0.4627 -0.4426 -0.7594
  161SAPE   H9R17968   2.004   1.630   4.457  0.0840 -0.2032  1.2473
  161SAPE  C21017969   1.869   1.798   4.441  0.7058 -0.1242  0.2416
  161SAPE  H10R17970   1.861   1.876   4.363  1.3342  0.2533  0.5425
  161SAPE  H10S17971   1.842   1.840   4.540 -0.2082 -0.3020  0.0754
  161SAPE  C21117972   1.773   1.689   4.390 -0.1332 -0.3314 -0.8577
  161SAPE  H11R17973   1.793   1.652   4.289  1.1219  1.0852 -1.1569
  161SAPE  C21217974   1.690   1.617   4.470 -0.2351  0.5043  0.5309
  161SAPE  H12R17975   1.635   1.536   4.420  0.8375  0.1197 -0.0564
  161SAPE  C21317976   1.650   1.643   4.612 -0.0602 -0.0485  0.3900
  161SAPE  H13R17977   1.715   1.723   4.653  0.7820  0.1975 -1.3173
  161SAPE  H13S17978   1.684   1.556   4.672  2.6177  0.0209 -0.8942
  161SAPE  C21417979   1.504   1.665   4.626  0.4527  0.6704 -0.3357
  161SAPE  H14R17980   1.433   1.595   4.578 -0.2046 -0.4508  2.1213
  161SAPE  C21517981   1.448   1.770   4.691 -0.4923 -0.4939 -0.2260
  161SAPE  H15R17982   1.339   1.761   4.705 -0.4574 -2.3909 -0.9823
  161SAPE  C21617983   1.508   1.877   4.780 -0.5064  0.3735 -0.1997
  161SAPE  H16R17984   1.481   1.978   4.742 -0.3642 -0.1087 -1.6676
  161SAPE  H16S17985   1.619   1.881   4.778 -0.3460 -2.0670  1.0897
  161SAPE  C21717986   1.465   1.861   4.928 -0.5350  0.3553  0.8396
  161SAPE  H17R17987   1.358   1.888   4.927 -0.0551  2.4977 -0.1317
  161SAPE  H17S17988   1.522   1.937   4.986  0.9148  1.0225 -1.3082
  161SAPE  C21817989   1.511   1.729   4.991 -0.0162  0.1036 -0.1640
  161SAPE  H18R17990   1.465   1.644   4.938  1.3643  0.1903 -1.5726
  161SAPE  H18S17991   1.477   1.737   5.096 -1.1231 -0.6527 -0.4550
  161SAPE  C21917992   1.661   1.715   5.004  0.7355  0.0623 -0.1403
  161SAPE  H19R17993   1.715   1.809   4.980  1.5411  0.0459  1.4446
  161SAPE  H19S17994   1.687   1.649   4.919 -2.0124 -1.6939  0.2586
  161SAPE  C22017995   1.709   1.660   5.132  0.1937 -0.4777 -0.8527
  161SAPE  H20R17996   1.641   1.685   5.216  0.0015 -1.7355 -0.6101
  161SAPE  H20S17997   1.812   1.687   5.164 -0.0683  0.7346 -0.9937
  161SAPE  H20T17998   1.710   1.549   5.132 -0.1413 -0.5393  1.4824
  161SAPE   C3317999   1.429   2.147   4.260  0.1555 -0.1415  0.7948
  161SAPE   H3X18000   1.467   2.251   4.267  0.2119 -0.1523  0.6565
  161SAPE   H3Y18001   1.509   2.070   4.265  1.5395  0.8829 -2.5018
  161SAPE   C3418002   1.328   2.117   4.361 -0.6701  0.4136 -0.1464
  161SAPE   H4X18003   1.228   2.149   4.326 -0.6358  2.1255  1.1623
  161SAPE   H4Y18004   1.360   2.183   4.444 -1.2392  0.1592  0.2769
  161SAPE   C3518005   1.317   1.965   4.399 -0.0617 -0.1039  0.0340
  161SAPE   H5X18006   1.404   1.945   4.465 -0.2978  1.2969  0.7934
  161SAPE   H5Y18007   1.334   1.903   4.308 -1.8484  1.1802 -1.2538
  161SAPE   C3618008   1.188   1.937   4.468  0.0572  0.3487  0.2657
  161SAPE   H6X18009   1.190   1.828   4.491 -1.3464  0.5173  1.3427
  161SAPE   H6Y18010   1.102   1.974   4.409  2.3323  1.2725 -2.6416
  161SAPE   C3718011   1.178   2.016   4.607  0.0513 -0.8214  0.4272
  161SAPE   H7X18012   1.146   2.117   4.573  1.2884 -0.7487 -0.6052
  161SAPE   H7Y18013   1.278   2.038   4.649 -0.7898  0.6199  1.7835
  161SAPE   C3818014   1.101   1.960   4.718 -0.7434  0.7646  0.1737
  161SAPE   H8X18015   1.152   1.861   4.717 -2.8829 -0.3977 -1.2802
  161SAPE   H8Y18016   0.994   1.933   4.705 -1.0349  0.8923  1.9821
  161SAPE   C3918017   1.119   2.038   4.846  0.3422  0.4611  0.1411
  161SAPE   H9X18018   1.072   2.137   4.828 -1.3005  0.2742  2.9164
  161SAPE   H9Y18019   1.228   2.055   4.853  0.4564 -0.9639  3.1687
  161SAPE  C31018020   1.062   1.976   4.972 -0.5229 -0.9253  0.2011
  161SAPE  H10X18021   1.120   1.882   4.987  0.3311 -0.1826  1.7215
  161SAPE  H10Y18022   0.955   1.950   4.958 -1.4765  1.6615  1.9339
  161SAPE  C31118023   1.095   2.062   5.092  0.6246  0.6248  0.1089
  161SAPE  H11X18024   1.055   2.165   5.080 -0.6313  0.3115  1.2996
  161SAPE  H11Y18025   1.206   2.061   5.092  0.6233  0.3803  0.3265
  161SAPE  C31218026   1.046   1.996   5.218  0.4835  0.7541  0.4041
  161SAPE  H12X18027   1.117   1.913   5.239 -1.1365 -0.5163  1.0823
  161SAPE  H12Y18028   0.948   1.946   5.205  0.9410 -0.3166  1.0211
  161SAPE  C31318029   1.032   2.084   5.347 -0.2650  0.4758  0.2935
  161SAPE  H13X18030   1.003   2.013   5.427 -1.3699  1.6706  0.9967
  161SAPE  H13Y18031   0.948   2.155   5.328 -1.9010 -1.4075  0.1583
  161SAPE  C31418032   1.151   2.172   5.386  0.7524  0.2705  0.3404
  161SAPE  H14X18033   1.186   2.228   5.296 -3.0674 -1.1407 -2.3278
  161SAPE  H14Y18034   1.237   2.117   5.429  0.6613  0.1592  0.3791
  161SAPE  C31518035   1.109   2.281   5.486  0.0608  0.1934 -0.8020
  161SAPE  H15X18036   1.067   2.365   5.427  2.0926  0.7844 -1.4728
  161SAPE  H15Y18037   1.199   2.319   5.538 -0.2906 -1.6371  1.2795
  161SAPE  C31618038   0.998   2.238   5.578  0.1510  0.2590  0.2893
  161SAPE  H16X18039   1.021   2.142   5.629  0.6220  1.3862  2.3124
  161SAPE  H16Y18040   0.910   2.217   5.513 -1.2061  0.5174  1.9693
  161SAPE  C31718041   0.962   2.341   5.686 -0.3375 -0.7075  0.7197
  161SAPE  H17X18042   0.962   2.442   5.640  1.7858 -1.6140 -1.4980
  161SAPE  H17Y18043   1.053   2.345   5.748 -1.3583  3.1638  2.2017
  161SAPE  C31818044   0.835   2.301   5.764  0.6676 -0.5243  0.4463
  161SAPE  H18X18045   0.813   2.363   5.854  0.8015  0.2426 -0.0398
  161SAPE  H18Y18046   0.835   2.198   5.805  0.9429 -0.7591 -0.1311
  161SAPE  H18Z18047   0.746   2.329   5.704  1.9444  0.0981 -1.2443
  162SAPE     N18048   0.647   2.334   3.054  0.2636  0.1244 -0.0137
  162SAPE   HN118049   0.604   2.423   3.020  1.4554  0.5918 -0.3357
  162SAPE   HN218050   0.575   2.259   3.063  0.1865  0.0195 -1.3390
  162SAPE   HN318051   0.682   2.358   3.149  1.6467  0.1734 -0.5193
  162SAPE   C1218052   0.758   2.295   2.971  0.5035 -0.5034  0.5145
  162SAPE  H12A18053   0.817   2.385   2.944 -0.0523  0.2151  1.6304
  162SAPE  H12B18054   0.713   2.260   2.876  1.7440 -0.0319 -0.2697
  162SAPE   C1118055   0.844   2.186   3.036 -0.6060 -0.6265  0.0123
  162SAPE  H11A18056   0.897   2.241   3.117 -0.5101 -2.1180  0.9877
  162SAPE  H11B18057   0.919   2.159   2.959 -1.0044  0.0057 -0.6200
  162SAPE     P18058   0.787   2.040   3.236  0.4069 -0.1293  0.3624
  162SAPE   O1318059   0.694   1.932   3.274 -0.0693  0.3047 -0.1064
  162SAPE   O1418060   0.924   2.020   3.273 -0.0841 -0.0460 -0.2586
  162SAPE   O1218061   0.782   2.061   3.080  0.2439  0.1604 -0.3989
  162SAPE   O1118062   0.727   2.180   3.290  0.2643 -0.6676  0.3666
  162SAPE    C118063   0.621   2.182   3.380  0.4934 -0.5211 -0.8512
  162SAPE    HA18064   0.574   2.283   3.377 -0.6889 -1.0673 -1.9886
  162SAPE    HB18065   0.538   2.112   3.355  0.8969 -1.2957 -0.0474
  162SAPE    C218066   0.686   2.147   3.516  1.2423  0.0110 -0.2042
  162SAPE    HS18067   0.720   2.042   3.530 -0.1760 -0.3706  0.5552
  162SAPE   O2118068   0.580   2.163   3.618 -1.0959 -0.2334  0.1975
  162SAPE   C2118069   0.504   2.057   3.626 -0.0590  0.3020 -0.5390
  162SAPE   O2218070   0.512   1.964   3.546 -0.1167  0.0390  0.3793
  162SAPE   C2218071   0.398   2.063   3.747 -0.2955  0.4955  0.9748
  162SAPE   H2R18072   0.300   2.086   3.701  1.6133  0.8956 -3.2935
  162SAPE   H2S18073   0.399   1.959   3.787  1.4237  0.0377 -0.1690
  162SAPE    C318074   0.802   2.235   3.551 -1.1390 -0.5594 -0.2172
  162SAPE    HX18075   0.770   2.335   3.585  0.5730 -0.1859  0.4067
  162SAPE    HY18076   0.859   2.254   3.457 -1.9593  1.0347 -0.4149
  162SAPE   O3118077   0.892   2.168   3.642  0.4682  0.0281 -0.1768
  162SAPE   C3118078   0.994   2.245   3.693  0.9495  0.1250 -0.9859
  162SAPE   O3218079   1.001   2.367   3.674  0.5846  0.2628 -0.3564
  162SAPE   C3218080   1.082   2.165   3.774  0.0209  0.3335 -0.9632
  162SAPE   H2X18081   1.170   2.228   3.799  1.8888 -2.4848  0.0224
  162SAPE   H2Y18082   1.108   2.079   3.709  1.7147  0.2446 -0.2305
  162SAPE   C2318083   0.419   2.156   3.868 -0.2078  0.2401  0.5701
  162SAPE   H3R18084   0.318   2.150   3.914 -1.3563  0.9534 -1.6786
  162SAPE   H3S18085   0.429   2.259   3.829 -2.1723  0.8614  1.5960
  162SAPE   C2418086   0.547   2.130   3.952 -0.2033 -0.3653  0.0024
  162SAPE   H4R18087   0.628   2.101   3.882  0.8004 -1.6228  1.6024
  162SAPE   H4S18088   0.527   2.040   4.015 -1.4594  0.3029  0.6062
  162SAPE   C2518089   0.594   2.245   4.044 -0.0903  0.3298  0.1036
  162SAPE   H5R18090   0.686   2.287   4.000  0.6994 -0.9971  0.4331
  162SAPE   C2618091   0.553   2.276   4.171  0.3022  0.1866  0.3951
  162SAPE   H6R18092   0.614   2.344   4.231  2.0068 -0.3257 -0.6949
  162SAPE   C2718093   0.428   2.221   4.238 -0.7032  0.2750 -0.7937
  162SAPE   H7R18094   0.378   2.149   4.171  1.0957  0.1294 -2.0673
  162SAPE   H7S18095   0.360   2.308   4.251  1.0833  1.7753 -1.0973
  162SAPE   C2818096   0.458   2.140   4.362 -0.8428 -0.3051 -0.7967
  162SAPE   H8R18097   0.516   2.051   4.334 -1.8428 -1.2601  0.0585
  162SAPE   C2918098   0.423   2.153   4.493 -0.1593  0.1404  1.0203
  162SAPE   H9R18099   0.457   2.077   4.565 -0.2584  1.3356  2.3829
  162SAPE  C21018100   0.335   2.266   4.546 -0.0239 -0.1235  0.3816
  162SAPE  H10R18101   0.302   2.346   4.477 -0.1760  0.7930  1.4959
  162SAPE  H10S18102   0.385   2.317   4.631  0.3550 -0.0599  0.1266
  162SAPE  C21118103   0.207   2.203   4.599  1.1903  0.1085  0.3532
  162SAPE  H11R18104   0.166   2.119   4.540  1.6356 -1.4061  2.0945
  162SAPE  C21218105   0.153   2.217   4.725  0.2114  0.1352  0.5719
  162SAPE  H12R18106   0.061   2.159   4.744  0.3216  0.0352  0.7966
  162SAPE  C21318107   0.207   2.301   4.841 -0.0343  0.1162  0.2662
  162SAPE  H13R18108   0.296   2.361   4.813 -0.6152 -0.0570 -2.1603
  162SAPE  H13S18109   0.246   2.233   4.920  1.8663 -0.5198 -1.1453
  162SAPE  C21418110   0.099   2.394   4.901 -0.5746 -0.5202 -0.6229
  162SAPE  H14R18111   0.062   2.472   4.833  0.0557 -0.5183 -0.9688
  162SAPE  C21518112   0.063   2.393   5.031  0.6810 -0.3384 -0.2304
  162SAPE  H15R18113   0.004   2.480   5.065  2.4151  0.9690 -0.4333
  162SAPE  C21618114   0.123   2.306   5.132 -0.2242 -0.2295  0.6079
  162SAPE  H16R18115   0.234   2.314   5.135 -0.1268 -0.8296 -0.6076
  162SAPE  H16S18116   0.102   2.201   5.103 -2.4578 -0.1721  1.7912
  162SAPE  C21718117   0.065   2.323   5.273 -0.4944 -0.2008  0.0200
  162SAPE  H17R18118  -0.036   2.278   5.269  0.2761 -1.9078 -1.9254
  162SAPE  H17S18119   0.053   2.430   5.301 -2.0247 -0.2961 -0.1704
  162SAPE  C21818120   0.143   2.248   5.380  0.3078  0.1066  0.0575
  162SAPE  H18R18121   0.242   2.287   5.410 -1.4755  2.0525  4.1313
  162SAPE  H18S18122   0.162   2.147   5.338  0.6733  0.4759 -0.6763
  162SAPE  C21918123   0.066   2.249   5.511  0.1846  0.2988  0.1526
  162SAPE  H19R18124  -0.044   2.246   5.496  0.1333  0.0748  0.5583
  162SAPE  H19S18125   0.084   2.344   5.565  1.0773 -0.3239  0.9821
  162SAPE  C22018126   0.097   2.135   5.605 -0.2685  1.1848  0.9182
  162SAPE  H20R18127   0.199   2.098   5.582 -0.5499 -0.0346  1.4852
  162SAPE  H20S18128   0.036   2.045   5.581  0.6147  0.7753  0.1497
  162SAPE  H20T18129   0.071   2.143   5.713 -2.2471 -0.4781  0.6462
  162SAPE   C3318130   1.014   2.117   3.904  0.3111  0.5891  0.6825
  162SAPE   H3X18131   1.079   2.043   3.956  1.1220  0.5128 -0.3979
  162SAPE   H3Y18132   0.919   2.070   3.870  1.4300 -0.6434 -0.9367
  162SAPE   C3418133   0.977   2.230   4.004  0.5976  0.6917  0.9557
  162SAPE   H4X18134   0.904   2.306   3.969  1.6892  1.5305  0.4663
  162SAPE   H4Y18135   1.071   2.276   4.040 -0.1739  0.2932  3.6893
  162SAPE   C3518136   0.935   2.173   4.138 -0.0753  0.3976  0.2100
  162SAPE   H5X18137   1.023   2.110   4.165  1.2681  2.4153  0.7535
  162SAPE   H5Y18138   0.849   2.103   4.137  0.8762 -0.8086  0.1297
  162SAPE   C3618139   0.932   2.277   4.244  0.3323 -0.3962  0.7948
  162SAPE   H6X18140   0.884   2.369   4.205  1.5720 -0.3358 -0.6740
  162SAPE   H6Y18141   1.032   2.321   4.260 -0.4325  0.6896  3.0084
  162SAPE   C3718142   0.875   2.230   4.373 -0.0444  0.4647 -0.0203
  162SAPE   H7X18143   0.919   2.136   4.413  0.6989  1.2998  1.1663
  162SAPE   H7Y18144   0.772   2.202   4.343 -0.8403  3.0164  0.1570
  162SAPE   C3818145   0.858   2.341   4.480 -0.2395  0.0960 -0.6465
  162SAPE   H8X18146   0.779   2.410   4.446  0.8666  1.3752 -0.7280
  162SAPE   H8Y18147   0.950   2.403   4.494 -0.2396 -0.3909  2.0859
  162SAPE   C3918148   0.820   2.271   4.613  0.6820 -0.0921 -0.3264
  162SAPE   H9X18149   0.906   2.219   4.661  0.1037  0.4025  1.3042
  162SAPE   H9Y18150   0.765   2.182   4.575  1.4041 -0.7969  0.2358
  162SAPE  C31018151   0.744   2.373   4.702  0.0077 -0.4430 -0.8107
  162SAPE  H10X18152   0.646   2.406   4.663  1.2904  2.2844 -1.9847
  162SAPE  H10Y18153   0.810   2.461   4.720 -0.3507 -0.6962  2.2405
  162SAPE  C31118154   0.708   2.317   4.838  0.8007 -1.1183  0.1946
  162SAPE  H11X18155   0.655   2.391   4.901  0.1691 -1.2130 -0.2144
  162SAPE  H11Y18156   0.801   2.292   4.893  1.3669  1.5230  0.5316
  162SAPE  C31218157   0.624   2.183   4.831 -0.0507 -0.6341 -1.0935
  162SAPE  H12X18158   0.692   2.104   4.791  0.8488 -0.1356 -0.5815
  162SAPE  H12Y18159   0.544   2.213   4.759  0.5898  2.1736 -0.7700
  162SAPE  C31318160   0.570   2.152   4.973  0.4843 -0.0239  0.1685
  162SAPE  H13X18161   0.493   2.231   4.991 -1.8121 -2.2260  0.6415
  162SAPE  H13Y18162   0.654   2.157   5.045 -1.1941  1.1028  2.1727
  162SAPE  C31418163   0.497   2.014   4.982  0.4029  0.0371 -0.5977
  162SAPE  H14X18164   0.440   2.018   4.887  0.8106 -0.2845 -0.8598
  162SAPE  H14Y18165   0.426   1.996   5.065  0.9506 -0.0188 -0.1376
  162SAPE  C31518166   0.590   1.894   4.982  0.2351 -0.7829 -0.1527
  162SAPE  H15X18167   0.667   1.895   4.901  1.2908  0.4926  0.8094
  162SAPE  H15Y18168   0.526   1.804   4.972 -0.3360 -0.3974  0.0122
  162SAPE  C31618169   0.657   1.890   5.118  0.1155  0.0261  0.5924
  162SAPE  H16X18170   0.595   1.923   5.205  0.9193  0.9663  0.8260
  162SAPE  H16Y18171   0.743   1.960   5.118  0.9880 -1.0159  0.9056
  162SAPE  C31718172   0.723   1.753   5.151 -0.3162  0.1426 -0.5233
  162SAPE  H17X18173   0.646   1.681   5.188  1.2919 -1.7135 -0.5849
  162SAPE  H17Y18174   0.793   1.765   5.237 -2.4809  1.1272  1.1852
  162SAPE  C31818175   0.793   1.684   5.037 -0.1379 -0.0281  0.1324
  162SAPE  H18X18176   0.844   1.760   4.975  1.5192 -1.5830 -0.5269
  162SAPE  H18Y18177   0.724   1.617   4.981  1.5022 -2.6577  1.0299
  162SAPE  H18Z18178   0.876   1.625   5.082 -0.6831 -2.2523 -1.5669
  163SAPE     N18179   5.360   1.480   2.988 -0.2284  0.9412  0.0558
  163SAPE   HN118180   5.256   1.471   2.982 -0.2728  0.3634  1.4815
  163SAPE   HN218181   5.403   1.424   2.912  0.9553  2.4866 -0.4627
  163SAPE   HN318182   5.386   1.443   3.081 -0.2558 -0.5382 -0.4964
  163SAPE   C1218183   5.402   1.616   2.979  0.2606 -0.7562  0.4333
  163SAPE  H12A18184   5.330   1.666   2.909  0.9920  1.1493  0.9859
  163SAPE  H12B18185   5.499   1.622   2.926 -0.5381  1.0297 -0.9439
  163SAPE   C1118186   5.396   1.692   3.120 -0.0518  0.2397  0.3382
  163SAPE  H11A18187   5.287   1.701   3.138 -0.8771 -0.9813 -3.1426
  163SAPE  H11B18188   5.437   1.795   3.110 -0.6154  0.3173 -1.5912
  163SAPE     P18189   5.607   1.595   3.224 -0.0214  0.1666  0.0984
  163SAPE   O1318190   5.644   1.480   3.144 -0.0320  0.0218 -0.3740
  163SAPE   O1418191   5.677   1.715   3.170  0.0182 -0.0435  0.2685
  163SAPE   O1218192   5.451   1.617   3.227 -0.4504  0.3537 -0.4753
  163SAPE   O1118193   5.646   1.551   3.378 -0.0773 -0.6551  0.2535
  163SAPE    C118194   5.707   1.652   3.462  0.6113  0.8926  0.8320
  163SAPE    HA18195   5.657   1.750   3.446 -0.5042  0.3296  0.8114
  163SAPE    HB18196   5.691   1.626   3.569 -1.3723 -2.3432 -0.1157
  163SAPE    C218197   5.861   1.651   3.444  0.3424  0.4400 -0.8127
  163SAPE    HS18198   5.890   1.665   3.338  2.7817  2.1319 -0.0210
  163SAPE   O2118199   5.915   1.535   3.511  0.4529 -0.0503  0.0565
  163SAPE   C2118200   5.991   1.457   3.437  0.0602  0.8969  0.1173
  163SAPE   O2218201   6.039   1.479   3.329 -0.5189 -0.2106  0.3839
  163SAPE   C2218202   6.007   1.321   3.500 -0.0214  0.5164  0.3927
  163SAPE   H2R18203   6.081   1.327   3.584 -0.4182  1.1643  0.7011
  163SAPE   H2S18204   5.907   1.304   3.545  0.2015  2.4980  1.7814
  163SAPE    C318205   5.902   1.780   3.506 -0.1214 -0.4089 -0.8350
  163SAPE    HX18206   5.861   1.864   3.447  0.8298 -0.0420 -0.9990
  163SAPE    HY18207   6.012   1.797   3.503 -0.1513 -0.1099 -0.3138
  163SAPE   O3118208   5.867   1.777   3.648 -0.3859  0.0164 -0.1006
  163SAPE   C3118209   5.810   1.882   3.701 -0.6782  0.0286  1.1957
  163SAPE   O3218210   5.793   1.989   3.640 -0.3652  0.1695  0.0800
  163SAPE   C3218211   5.760   1.846   3.841  0.0707 -0.8874 -0.0965
  163SAPE   H2X18212   5.775   1.739   3.867 -3.6964 -1.3526  0.8198
  163SAPE   H2Y18213   5.652   1.867   3.827  0.2640 -0.7561 -1.5006
  163SAPE   C2318214   6.057   1.205   3.412 -0.0807 -0.0178  0.0442
  163SAPE   H3R18215   6.154   1.230   3.363  0.8451 -4.3543 -0.7163
  163SAPE   H3S18216   5.978   1.180   3.337 -0.6572  0.2299  0.5631
  163SAPE   C2418217   6.096   1.081   3.502 -0.0938  0.7345  0.0773
  163SAPE   H4R18218   6.134   0.993   3.446  2.1726  1.1117  0.9171
  163SAPE   H4S18219   6.004   1.054   3.559  0.3526 -0.8625  0.1025
  163SAPE   C2518220   6.211   1.114   3.595 -0.3903  0.3542  0.7822
  163SAPE   H5R18221   6.291   1.172   3.547 -1.7933  0.8404 -1.0960
  163SAPE   C2618222   6.224   1.103   3.722 -0.0772 -0.8422 -0.5292
  163SAPE   H6R18223   6.319   1.136   3.767 -1.5416  1.0388  1.4096
  163SAPE   C2718224   6.118   1.051   3.813  0.3002 -0.7592 -0.3344
  163SAPE   H7R18225   6.157   0.971   3.880 -1.9874 -3.4484 -1.9691
  163SAPE   H7S18226   6.034   1.005   3.757 -0.8329  0.6734  0.1239
  163SAPE   C2818227   6.063   1.168   3.892  0.3734  0.0580 -0.4728
  163SAPE   H8R18228   6.042   1.257   3.831 -1.3308  0.7007  0.9692
  163SAPE   C2918229   6.002   1.176   4.011 -0.0055 -0.4990 -0.0336
  163SAPE   H9R18230   5.959   1.274   4.035 -0.4644 -1.2337  2.5312
  163SAPE  C21018231   5.981   1.075   4.123 -0.3535 -0.2716  0.0332
  163SAPE  H10R18232   5.952   0.977   4.081 -1.5600  0.8013 -1.7843
  163SAPE  H10S18233   5.888   1.098   4.179  0.1131  0.7147  0.4361
  163SAPE  C21118234   6.092   1.046   4.217  0.1417 -0.4602  0.5588
  163SAPE  H11R18235   6.167   0.980   4.171  1.4889  0.9059  0.7075
  163SAPE  C21218236   6.103   1.076   4.347  0.0221 -0.5518  0.2281
  163SAPE  H12R18237   6.192   1.040   4.401 -0.9534  0.9782  3.0941
  163SAPE  C21318238   6.017   1.153   4.440  0.3879  0.1242  0.8437
  163SAPE  H13R18239   5.919   1.184   4.398 -0.9251 -1.6279  2.4341
  163SAPE  H13S18240   6.069   1.247   4.470  3.5971 -0.8006 -1.2720
  163SAPE  C21418241   5.979   1.060   4.554 -0.0936  0.8658 -0.3153
  163SAPE  H14R18242   5.903   0.986   4.527  1.3235 -1.0650  0.7854
  163SAPE  C21518243   6.013   1.070   4.686 -0.2752  0.0147 -0.1072
  163SAPE  H15R18244   5.987   0.990   4.756 -2.1347 -0.5298 -1.3577
  163SAPE  C21618245   6.099   1.178   4.744  0.0316  0.7191 -0.9348
  163SAPE  H16R18246   6.052   1.226   4.833  3.3928  1.6629  0.4684
  163SAPE  H16S18247   6.119   1.262   4.675  2.0873 -0.5783 -2.0189
  163SAPE  C21718248   6.229   1.119   4.804 -0.7288  0.2964  0.0436
  163SAPE  H17R18249   6.275   1.198   4.867  0.1097  0.5663 -0.8764
  163SAPE  H17S18250   6.304   1.084   4.729  1.5238  3.3478  0.6955
  163SAPE  C21818251   6.221   0.994   4.889 -0.0514 -0.1965 -0.1619
  163SAPE  H18R18252   6.320   0.948   4.906 -0.2937 -0.4781  0.5279
  163SAPE  H18S18253   6.173   0.905   4.842  1.4989  0.4510 -3.1993
  163SAPE  C21918254   6.154   1.021   5.031 -0.1492  0.4888 -0.0864
  163SAPE  H19R18255   6.060   1.078   5.018 -0.3964 -0.0348 -0.6293
  163SAPE  H19S18256   6.227   1.079   5.091  0.1024 -0.6571  0.7486
  163SAPE  C22018257   6.128   0.887   5.102 -0.0192  0.2317 -0.5404
  163SAPE  H20R18258   6.215   0.818   5.097 -0.3403 -0.1188 -1.3862
  163SAPE  H20S18259   6.044   0.827   5.060 -0.3044 -1.3021  1.9853
  163SAPE  H20T18260   6.108   0.904   5.210 -1.1167 -1.2201 -0.4813
  163SAPE   C3318261   5.815   1.945   3.953  0.2016  0.7990  0.9074
  163SAPE   H3X18262   5.836   2.043   3.905 -1.3116  0.5956 -0.2358
  163SAPE   H3Y18263   5.913   1.909   3.990 -0.5228 -1.7469  0.5351
  163SAPE   C3418264   5.723   1.966   4.072  0.2845 -0.2031  0.5967
  163SAPE   H4X18265   5.647   2.043   4.047  1.6812  0.9753 -0.1400
  163SAPE   H4Y18266   5.779   2.017   4.153 -2.7507  1.9357  1.5644
  163SAPE   C3518267   5.652   1.838   4.128 -0.3588  0.0287 -0.6438
  163SAPE   H5X18268   5.730   1.763   4.155  1.0826  2.0167  0.9716
  163SAPE   H5Y18269   5.599   1.797   4.039 -0.1208 -1.7437 -0.0079
  163SAPE   C3618270   5.561   1.859   4.250  0.6455  0.1885 -0.0756
  163SAPE   H6X18271   5.490   1.774   4.261 -0.1809  0.9881  1.0768
  163SAPE   H6Y18272   5.501   1.951   4.228  0.8109  0.2673 -0.1979
  163SAPE   C3718273   5.633   1.902   4.374 -1.1673  0.2170  0.5098
  163SAPE   H7X18274   5.692   1.995   4.362 -0.7574 -0.0356  0.5461
  163SAPE   H7Y18275   5.706   1.821   4.394 -0.5804  1.0620  2.0043
  163SAPE   C3818276   5.544   1.909   4.492 -0.4038 -0.3858  0.1716
  163SAPE   H8X18277   5.496   1.809   4.497 -1.0537 -0.0867 -0.0137
  163SAPE   H8Y18278   5.460   1.980   4.478 -0.6034 -0.4038  1.1840
  163SAPE   C3918279   5.606   1.941   4.624  0.3096 -0.4920 -0.5577
  163SAPE   H9X18280   5.654   2.041   4.615  3.9360 -1.8042  1.7264
  163SAPE   H9Y18281   5.680   1.861   4.645 -1.1344 -1.3390  1.7081
  163SAPE  C31018282   5.505   1.958   4.737  0.2156  0.1932  0.4457
  163SAPE  H10X18283   5.455   1.859   4.740 -0.5880  0.5991  0.4890
  163SAPE  H10Y18284   5.433   2.029   4.692  1.0690  0.5583 -0.3954
  163SAPE  C31118285   5.558   2.013   4.867  0.3084  0.3265  0.3745
  163SAPE  H11X18286   5.471   2.056   4.921 -0.2769 -0.1706 -0.1716
  163SAPE  H11Y18287   5.625   2.095   4.835 -0.9282  0.5611 -1.7799
  163SAPE  C31218288   5.625   1.904   4.953 -0.1596  0.0758 -0.1790
  163SAPE  H12X18289   5.705   1.867   4.884 -0.7549  0.0634 -0.8766
  163SAPE  H12Y18290   5.553   1.820   4.961  0.7757 -0.7574 -0.2998
  163SAPE  C31318291   5.658   1.948   5.097  0.3772  0.4616  0.1193
  163SAPE  H13X18292   5.568   2.009   5.120  0.6377  0.8278  0.1768
  163SAPE  H13Y18293   5.739   2.024   5.084  0.1710  0.7646  0.5657
  163SAPE  C31418294   5.687   1.834   5.193  0.3912  0.4107  0.3768
  163SAPE  H14X18295   5.760   1.774   5.135 -1.5869 -0.0671 -1.7480
  163SAPE  H14Y18296   5.601   1.766   5.210  0.8055 -0.4144 -0.7403
  163SAPE  C31518297   5.756   1.862   5.324 -0.1391  0.5715 -0.5495
  163SAPE  H15X18298   5.674   1.908   5.384 -1.1019 -0.4319 -1.0650
  163SAPE  H15Y18299   5.837   1.937   5.319  0.2442  0.2583  0.5827
  163SAPE  C31618300   5.818   1.739   5.389  0.3390 -0.2423 -0.2348
  163SAPE  H16X18301   5.857   1.770   5.488 -0.9033 -1.6476  0.7240
  163SAPE  H16Y18302   5.904   1.701   5.329  0.0792 -2.6345  0.7869
  163SAPE  C31718303   5.725   1.620   5.406  0.7071 -0.7253 -0.2735
  163SAPE  H17X18304   5.684   1.578   5.312  1.2251 -0.9118 -0.4206
  163SAPE  H17Y18305   5.643   1.672   5.461  2.9897  0.8208  1.9419
  163SAPE  C31818306   5.768   1.507   5.504  0.3512  0.3359 -0.6723
  163SAPE  H18X18307   5.712   1.411   5.495 -0.7121  1.0305 -1.6119
  163SAPE  H18Y18308   5.761   1.536   5.611  0.5989 -0.9200 -0.3006
  163SAPE  H18Z18309   5.869   1.470   5.476 -0.3300 -0.1425 -2.6751
  164SAPE     N18310   4.840   0.689   2.949 -0.4500  0.2929  0.0695
  164SAPE   HN118311   4.895   0.626   3.010  3.2660  1.1676 -2.0520
  164SAPE   HN218312   4.833   0.648   2.854  2.0689  0.9431 -0.4825
  164SAPE   HN318313   4.889   0.780   2.939 -1.0882  0.3815 -3.4051
  164SAPE   C1218314   4.706   0.706   3.000  0.2048  1.4023  0.0261
  164SAPE  H12A18315   4.641   0.617   2.990  1.4551  0.3333  1.0217
  164SAPE  H12B18316   4.652   0.788   2.949  1.5466  1.4046 -1.4716
  164SAPE   C1118317   4.714   0.739   3.149  0.5651  0.2687 -0.6410
  164SAPE  H11A18318   4.740   0.644   3.201 -0.5740  0.0415 -0.4750
  164SAPE  H11B18319   4.612   0.767   3.182  0.1011 -0.2106 -1.6460
  164SAPE     P18320   4.767   0.984   3.202  0.7957  0.2353 -0.1208
  164SAPE   O1318321   4.888   1.066   3.223  0.2395  0.4999 -0.5289
  164SAPE   O1418322   4.680   1.017   3.085  0.2104  0.6024  0.0451
  164SAPE   O1218323   4.812   0.843   3.185  0.3806 -0.3269 -0.2165
  164SAPE   O1118324   4.671   0.981   3.337  0.4345  0.4023 -0.7295
  164SAPE    C118325   4.736   0.902   3.442 -0.3320 -0.1148  0.8042
  164SAPE    HA18326   4.745   0.797   3.408 -0.2636  0.2940 -0.4829
  164SAPE    HB18327   4.836   0.944   3.462  0.2257 -0.4971 -1.0639
  164SAPE    C218328   4.649   0.905   3.576 -0.0719  0.7454 -0.4473
  164SAPE    HS18329   4.719   0.865   3.653 -0.0525 -1.6458 -1.6028
  164SAPE   O2118330   4.539   0.819   3.569  0.3969  0.2604 -0.0849
  164SAPE   C2118331   4.559   0.696   3.606 -0.2989  0.0384 -0.1624
  164SAPE   O2218332   4.655   0.652   3.669 -0.2812  0.2829 -0.0275
  164SAPE   C2218333   4.439   0.612   3.567  0.3050 -0.1564 -0.4536
  164SAPE   H2R18334   4.415   0.615   3.458  0.5090 -2.3749 -0.6176
  164SAPE   H2S18335   4.471   0.509   3.596 -0.7165 -0.6689 -1.0784
  164SAPE    C318336   4.611   1.049   3.621 -0.1998  0.4843 -0.0798
  164SAPE    HX18337   4.510   1.076   3.584 -0.6631  2.7655  2.5366
  164SAPE    HY18338   4.676   1.125   3.572  0.9721  1.2661  2.5427
  164SAPE   O3118339   4.612   1.068   3.768  0.6573 -0.2658  0.1637
  164SAPE   C3118340   4.724   1.070   3.824 -0.0283  0.4589  0.7898
  164SAPE   O3218341   4.835   1.072   3.769 -0.2749  0.0438  0.0821
  164SAPE   C3218342   4.698   1.043   3.974 -0.1322  0.6791  0.4454
  164SAPE   H2X18343   4.682   0.934   3.991  2.9191  0.4555  2.9252
  164SAPE   H2Y18344   4.601   1.088   4.003 -0.1764 -0.4510  2.2018
  164SAPE   C2318345   4.309   0.661   3.635  0.5555 -0.2391 -0.7637
  164SAPE   H3R18346   4.302   0.771   3.624 -1.5249 -0.3686 -1.0272
  164SAPE   H3S18347   4.316   0.635   3.742  1.4928 -2.5238 -1.3209
  164SAPE   C2418348   4.182   0.600   3.575  1.0318  0.2331 -0.0450
  164SAPE   H4R18349   4.186   0.489   3.581  1.1178  0.2618  0.4338
  164SAPE   H4S18350   4.185   0.621   3.466 -1.3404 -2.4815 -0.7489
  164SAPE   C2518351   4.058   0.664   3.621  0.6131 -0.1141 -0.2718
  164SAPE   H5R18352   4.002   0.720   3.544 -0.4194  0.3885  0.8238
  164SAPE   C2618353   4.004   0.654   3.750  0.2940 -0.2880  0.2358
  164SAPE   H6R18354   3.911   0.705   3.778  0.7849 -0.6369  2.8299
  164SAPE   C2718355   4.062   0.567   3.856  0.5742  0.1167 -0.6894
  164SAPE   H7R18356   4.099   0.625   3.944 -1.2963 -1.7119  1.4520
  164SAPE   H7S18357   4.147   0.507   3.815  1.5212  0.2853  0.9102
  164SAPE   C2818358   3.961   0.459   3.891 -0.6691 -0.1629  0.5538
  164SAPE   H8R18359   3.880   0.441   3.819 -2.5107  0.7467  2.2895
  164SAPE   C2918360   3.941   0.416   4.017 -0.0610  0.0121 -0.4217
  164SAPE   H9R18361   3.861   0.345   4.042  0.7932 -0.3128  1.6080
  164SAPE  C21018362   4.024   0.451   4.141  0.3535  0.0783  0.7647
  164SAPE  H10R18363   4.123   0.478   4.101  0.9186 -1.8865  0.7689
  164SAPE  H10S18364   4.022   0.364   4.211 -0.9703 -2.1417 -1.8584
  164SAPE  C21118365   3.978   0.575   4.214  0.5198 -0.2078 -0.1727
  164SAPE  H11R18366   3.953   0.655   4.143 -1.4333 -0.1566  0.5244
  164SAPE  C21218367   3.933   0.587   4.343 -0.3924  0.3556  0.2627
  164SAPE  H12R18368   3.883   0.681   4.373 -1.4133  0.2086 -0.9033
  164SAPE  C21318369   3.931   0.474   4.444 -0.6790 -0.7824  0.6643
  164SAPE  H13R18370   4.030   0.473   4.496 -0.3860 -0.1915  0.1283
  164SAPE  H13S18371   3.927   0.377   4.391 -1.0401 -0.8418  0.8009
  164SAPE  C21418372   3.804   0.481   4.523  0.6490 -0.0383  0.2292
  164SAPE  H14R18373   3.710   0.502   4.470  1.0649 -1.9436 -1.3717
  164SAPE  C21518374   3.784   0.455   4.650  0.6447 -0.3061 -0.1606
  164SAPE  H15R18375   3.683   0.451   4.695  0.7910 -0.1126  0.1955
  164SAPE  C21618376   3.886   0.410   4.750 -0.3723 -0.4130  0.2130
  164SAPE  H16R18377   3.980   0.367   4.708 -0.4965  0.4781 -1.0321
  164SAPE  H16S18378   3.856   0.328   4.819 -0.3762  0.6260  1.4789
  164SAPE  C21718379   3.927   0.528   4.846  0.2199  0.2277 -0.0458
  164SAPE  H17R18380   3.839   0.565   4.902 -0.2648  0.7084 -1.0984
  164SAPE  H17S18381   3.969   0.611   4.786  0.7044 -0.0863 -0.1435
  164SAPE  C21818382   4.039   0.486   4.951  0.0785 -0.1469  0.3578
  164SAPE  H18R18383   4.122   0.422   4.915  1.4121  1.9428 -0.4379
  164SAPE  H18S18384   3.983   0.423   5.024 -1.5564  2.1159  1.1548
  164SAPE  C21918385   4.088   0.603   5.027 -0.0169 -0.0472 -0.7528
  164SAPE  H19R18386   4.010   0.681   5.030 -0.7016 -0.7407 -0.1816
  164SAPE  H19S18387   4.184   0.642   4.986  0.1577  0.1920 -0.1279
  164SAPE  C22018388   4.121   0.550   5.172  0.2652 -0.1220 -0.1792
  164SAPE  H20R18389   4.191   0.621   5.221  0.6998 -0.4979 -0.2422
  164SAPE  H20S18390   4.161   0.446   5.180 -4.5737 -2.1315  1.1671
  164SAPE  H20T18391   4.023   0.548   5.223  0.5193 -1.2801  0.2974
  164SAPE   C3318392   4.813   1.081   4.068 -0.3064 -0.0037 -0.4219
  164SAPE   H3X18393   4.826   1.191   4.079  0.9033 -0.3390  2.3494
  164SAPE   H3Y18394   4.915   1.043   4.046 -0.2448 -1.5450  2.0827
  164SAPE   C3418395   4.773   1.045   4.219  0.0861 -0.1418 -0.1283
  164SAPE   H4X18396   4.781   0.934   4.226 -1.4336 -0.7132 -4.2428
  164SAPE   H4Y18397   4.670   1.083   4.239  0.6891  1.6723 -0.3023
  164SAPE   C3518398   4.877   1.113   4.314  0.7069 -0.0505  0.6773
  164SAPE   H5X18399   4.860   1.221   4.296 -0.3735 -0.8825 -5.3199
  164SAPE   H5Y18400   4.979   1.103   4.271  0.5643  2.2402 -0.3391
  164SAPE   C3618401   4.883   1.055   4.452 -0.1554  0.1660 -0.2884
  164SAPE   H6X18402   4.899   0.945   4.447  0.4119  0.3050 -2.1167
  164SAPE   H6Y18403   4.788   1.070   4.508 -1.8659 -2.0434 -2.3904
  164SAPE   C3718404   4.998   1.115   4.537  0.4534  0.1058 -0.0785
  164SAPE   H7X18405   4.972   1.218   4.570 -1.0366  0.3793 -1.9544
  164SAPE   H7Y18406   5.095   1.113   4.483 -0.1249 -1.4480 -1.0961
  164SAPE   C3818407   5.020   1.040   4.669 -0.0673 -0.1226 -0.0353
  164SAPE   H8X18408   5.023   0.934   4.637  0.0786 -0.2127  0.2769
  164SAPE   H8Y18409   4.926   1.056   4.726  0.5573  1.9306  0.4853
  164SAPE   C3918410   5.139   1.087   4.747  0.0004 -0.4335  0.0936
  164SAPE   H9X18411   5.123   1.089   4.857  2.8328 -0.5766  0.5685
  164SAPE   H9Y18412   5.170   1.192   4.729  0.3673 -0.8882 -2.1014
  164SAPE  C31018413   5.265   1.006   4.713 -0.1468 -0.4419  0.1679
  164SAPE  H10X18414   5.290   1.027   4.607 -3.1051  1.6303 -0.2451
  164SAPE  H10Y18415   5.233   0.900   4.720  0.1147 -0.6425 -1.4324
  164SAPE  C31118416   5.374   1.017   4.818 -0.3634  0.0277 -0.4321
  164SAPE  H11X18417   5.364   0.944   4.901 -0.0177  0.4385 -0.0205
  164SAPE  H11Y18418   5.380   1.123   4.851 -3.8865 -0.0549  0.8565
  164SAPE  C31218419   5.515   0.995   4.753 -0.0134 -0.5967  0.7978
  164SAPE  H12X18420   5.514   1.030   4.648  1.5598  0.3594  1.0688
  164SAPE  H12Y18421   5.530   0.886   4.748  0.2559 -0.5360  0.2072
  164SAPE  C31318422   5.635   1.056   4.823  0.4446 -0.4242  0.3735
  164SAPE  H13X18423   5.651   1.165   4.806 -0.7916  0.0882  2.2457
  164SAPE  H13Y18424   5.718   0.999   4.776 -0.3579  0.8548 -2.9178
  164SAPE  C31418425   5.629   1.034   4.974  0.2089 -0.4134  0.5457
  164SAPE  H14X18426   5.521   1.043   4.998  0.0165  0.5027 -0.5630
  164SAPE  H14Y18427   5.694   1.110   5.022  2.1037 -1.6196 -0.0094
  164SAPE  C31518428   5.684   0.902   5.018 -0.6806  0.6240  0.0189
  164SAPE  H15X18429   5.793   0.919   5.005 -0.5324  0.2019  0.6737
  164SAPE  H15Y18430   5.645   0.822   4.951 -2.1101  1.5778 -0.3363
  164SAPE  C31618431   5.661   0.862   5.162 -0.0924 -0.0684  0.3786
  164SAPE  H16X18432   5.554   0.855   5.189  0.1584 -0.0226  1.4523
  164SAPE  H16Y18433   5.712   0.939   5.224 -0.8192  0.8466 -0.1326
  164SAPE  C31718434   5.728   0.720   5.174  0.4404  0.4233 -0.6238
  164SAPE  H17X18435   5.834   0.739   5.147  0.9418  0.1587  1.0747
  164SAPE  H17Y18436   5.678   0.663   5.092 -2.4529  0.2878  1.1094
  164SAPE  C31818437   5.714   0.664   5.315  0.1335 -0.2643 -0.9858
  164SAPE  H18X18438   5.612   0.647   5.355 -0.6668  1.1153 -2.3712
  164SAPE  H18Y18439   5.756   0.741   5.383  1.7741 -0.5561 -1.6120
  164SAPE  H18Z18440   5.788   0.581   5.321 -0.5071 -0.8698 -1.3612
  165SAPE     N18441   2.757   2.232   2.782 -0.2585 -0.1274 -0.0732
  165SAPE   HN118442   2.785   2.249   2.683 -3.3503  1.8488 -0.7252
  165SAPE   HN218443   2.837   2.186   2.831 -0.9147 -2.0132 -0.6569
  165SAPE   HN318444   2.696   2.148   2.774 -0.5967  0.2211 -1.4861
  165SAPE   C1218445   2.696   2.349   2.851 -0.4600 -0.0782 -0.6618
  165SAPE  H12A18446   2.600   2.364   2.798  0.1077  1.5873 -1.2821
  165SAPE  H12B18447   2.761   2.439   2.843 -0.5280 -0.1821 -3.0777
  165SAPE   C1118448   2.671   2.321   3.000 -0.2193  0.1900  0.2462
  165SAPE  H11A18449   2.616   2.225   3.012 -0.6195  0.7115  3.8656
  165SAPE  H11B18450   2.607   2.402   3.041 -0.4187  0.1344  0.0469
  165SAPE     P18451   2.837   2.418   3.180  0.0211 -0.2100 -0.1946
  165SAPE   O1318452   2.970   2.391   3.234 -0.4044 -0.1853  0.0147
  165SAPE   O1418453   2.817   2.559   3.133  0.0078 -0.1595  0.2879
  165SAPE   O1218454   2.799   2.319   3.070  0.0822  0.7153  0.1043
  165SAPE   O1118455   2.731   2.381   3.288 -0.1190  0.4486 -0.0440
  165SAPE    C118456   2.728   2.259   3.359 -0.0020  0.4134 -0.2204
  165SAPE    HA18457   2.622   2.226   3.352 -0.2870  1.4209 -0.8276
  165SAPE    HB18458   2.793   2.171   3.338  1.0389  0.1570  3.3211
  165SAPE    C218459   2.755   2.286   3.514  0.5007  0.2917 -0.3628
  165SAPE    HS18460   2.746   2.199   3.582  1.5124  2.2314  2.4434
  165SAPE   O2118461   2.664   2.391   3.564 -0.4656 -0.0939  0.1822
  165SAPE   C2118462   2.557   2.343   3.619 -0.0581 -0.1104 -0.0015
  165SAPE   O2218463   2.538   2.224   3.630 -0.2569  0.2912  0.3415
  165SAPE   C2218464   2.463   2.450   3.657 -0.6525  0.6238 -0.1519
  165SAPE   H2R18465   2.522   2.527   3.710 -2.3846  2.4625 -0.7358
  165SAPE   H2S18466   2.436   2.505   3.564 -2.0869  0.5775  0.2027
  165SAPE    C318467   2.900   2.335   3.558  0.5318 -0.3873  0.0777
  165SAPE    HX18468   2.937   2.428   3.508 -0.6251  1.0664  1.8193
  165SAPE    HY18469   2.976   2.259   3.530  0.1856 -0.2769 -1.2459
  165SAPE   O3118470   2.905   2.334   3.702 -0.3774 -0.1275 -0.1523
  165SAPE   C3118471   2.892   2.455   3.761 -0.2302 -0.6715 -0.0824
  165SAPE   O3218472   2.880   2.562   3.702  0.4727 -0.2722  0.3540
  165SAPE   C3218473   2.887   2.436   3.907  0.0484 -0.2187  0.2030
  165SAPE   H2X18474   2.911   2.533   3.956 -1.9215  0.4607 -0.0781
  165SAPE   H2Y18475   2.960   2.361   3.943 -0.8495 -0.5541  1.3995
  165SAPE   C2318476   2.333   2.411   3.734 -0.4180 -0.0510  0.2357
  165SAPE   H3R18477   2.351   2.348   3.824 -0.9105 -1.7207 -0.7870
  165SAPE   H3S18478   2.266   2.351   3.669  0.3216 -0.2895 -0.3278
  165SAPE   C2418479   2.261   2.538   3.785 -0.1126  0.0924  0.0844
  165SAPE   H4R18480   2.251   2.604   3.696  0.5894  0.9678  0.6269
  165SAPE   H4S18481   2.333   2.596   3.847  0.3812  0.9659 -1.2438
  165SAPE   C2518482   2.129   2.511   3.858  0.4135 -0.0307  0.5426
  165SAPE   H5R18483   2.042   2.490   3.793  2.1514 -1.6258 -1.4002
  165SAPE   C2618484   2.101   2.533   3.987 -0.4312  0.1189  0.2077
  165SAPE   H6R18485   2.002   2.495   4.018 -0.6715  0.3576 -0.2600
  165SAPE   C2718486   2.195   2.572   4.099 -0.3497 -0.1961 -0.4828
  165SAPE   H7R18487   2.150   2.641   4.173  0.2021 -0.0504 -0.2773
  165SAPE   H7S18488   2.274   2.636   4.055 -0.0936 -0.3041 -0.1808
  165SAPE   C2818489   2.264   2.444   4.154 -0.1401 -0.2655 -0.7257
  165SAPE   H8R18490   2.297   2.375   4.075 -0.4441 -1.6613  0.3293
  165SAPE   C2918491   2.278   2.404   4.284  0.4103 -0.0281  0.0503
  165SAPE   H9R18492   2.348   2.324   4.309  0.2602  0.2052  1.2971
  165SAPE  C21018493   2.235   2.489   4.403 -0.2127  0.0832 -0.0850
  165SAPE  H10R18494   2.203   2.591   4.372  1.2899  0.4846 -0.4024
  165SAPE  H10S18495   2.323   2.505   4.469 -0.4905 -1.6060  0.7405
  165SAPE  C21118496   2.131   2.420   4.489  0.2990 -1.1827  0.4749
  165SAPE  H11R18497   2.060   2.355   4.435  1.0337 -3.3145  1.9533
  165SAPE  C21218498   2.100   2.439   4.616 -0.0355  0.1094  1.0335
  165SAPE  H12R18499   2.008   2.385   4.645 -0.7911  0.3012 -0.8769
  165SAPE  C21318500   2.183   2.517   4.714  0.1333  0.5335  1.2832
  165SAPE  H13R18501   2.289   2.517   4.682  0.3868 -0.5119  2.0405
  165SAPE  H13S18502   2.182   2.462   4.811  3.2053  1.1745  1.7674
  165SAPE  C21418503   2.147   2.661   4.745 -0.0565  0.4761 -0.6354
  165SAPE  H14R18504   2.180   2.732   4.667  0.4222 -1.2561 -2.0773
  165SAPE  C21518505   2.078   2.701   4.851 -0.0502 -0.6070 -0.0105
  165SAPE  H15R18506   2.076   2.811   4.854  0.0670 -0.5993 -0.2671
  165SAPE  C21618507   2.021   2.611   4.955 -0.6176 -0.9274 -0.4927
  165SAPE  H16R18508   1.998   2.508   4.923  0.8082 -1.2741 -0.4405
  165SAPE  H16S18509   1.925   2.658   4.986 -0.4328 -0.4335 -0.6451
  165SAPE  C21718510   2.112   2.612   5.081  0.1043  0.4143  0.1138
  165SAPE  H17R18511   2.148   2.716   5.096 -1.2895  0.7233  1.5055
  165SAPE  H17S18512   2.199   2.548   5.055 -0.0924  0.8490 -1.7635
  165SAPE  C21818513   2.029   2.562   5.200  0.2053  0.2381 -0.4222
  165SAPE  H18R18514   2.005   2.453   5.195  0.9849  0.1099 -1.9990
  165SAPE  H18S18515   1.931   2.613   5.206  0.2899  0.3829 -0.2521
  165SAPE  C21918516   2.111   2.579   5.331 -0.6253 -0.2721  0.7818
  165SAPE  H19R18517   2.214   2.539   5.324 -0.2159  0.3589  2.6713
  165SAPE  H19S18518   2.057   2.516   5.404  0.1640 -0.4285  1.2450
  165SAPE  C22018519   2.110   2.723   5.388 -0.2790 -0.6688 -0.6853
  165SAPE  H20R18520   2.020   2.726   5.453  0.7165 -0.6255  0.7296
  165SAPE  H20S18521   2.095   2.800   5.309  2.3758  0.9216  0.2337
  165SAPE  H20T18522   2.203   2.733   5.447 -0.9281 -1.9403  0.5911
  165SAPE   C3318523   2.743   2.389   3.949 -0.4060  0.4134  0.5758
  165SAPE   H3X18524   2.742   2.298   3.887  2.3809  0.9061 -0.3477
  165SAPE   H3Y18525   2.662   2.459   3.918 -1.8609 -1.6044 -0.3904
  165SAPE   C3418526   2.739   2.356   4.095 -0.1055 -0.2322 -0.3372
  165SAPE   H4X18527   2.724   2.448   4.155  1.5245 -0.7746  0.9807
  165SAPE   H4Y18528   2.834   2.316   4.137  0.8083  3.4428  1.5803
  165SAPE   C3518529   2.619   2.261   4.132  0.0631 -0.2495 -0.0529
  165SAPE   H5X18530   2.625   2.175   4.062 -1.8806  1.3677 -2.3362
  165SAPE   H5Y18531   2.524   2.315   4.112  0.5519  0.0926 -1.5705
  165SAPE   C3618532   2.615   2.196   4.270 -0.3226 -0.8467  0.1797
  165SAPE   H6X18533   2.695   2.119   4.278 -2.6096 -3.3715 -0.0051
  165SAPE   H6Y18534   2.522   2.136   4.276 -1.5463  1.0068  0.6922
  165SAPE   C3718535   2.618   2.286   4.394 -0.7101  0.2362 -0.2518
  165SAPE   H7X18536   2.551   2.369   4.362 -1.0699  0.3202  0.7002
  165SAPE   H7Y18537   2.719   2.332   4.400 -0.1251 -1.0681  0.3487
  165SAPE   C3818538   2.576   2.216   4.523  0.3605 -0.3141 -0.0233
  165SAPE   H8X18539   2.641   2.128   4.546  0.0643 -0.5076  0.0750
  165SAPE   H8Y18540   2.473   2.179   4.507  0.5064 -0.0952 -1.5655
  165SAPE   C3918541   2.569   2.304   4.647  0.2613 -0.0227 -0.1761
  165SAPE   H9X18542   2.522   2.401   4.621 -0.5795 -0.8009 -1.6368
  165SAPE   H9Y18543   2.673   2.328   4.680  0.0544  1.2774 -0.3994
  165SAPE  C31018544   2.473   2.248   4.762  0.1254 -0.3043  0.1979
  165SAPE  H10X18545   2.489   2.142   4.790  0.0662 -0.5266 -0.6118
  165SAPE  H10Y18546   2.366   2.252   4.730 -0.0494  1.0237  0.8509
  165SAPE  C31118547   2.484   2.329   4.890  0.0955 -0.7473  0.2292
  165SAPE  H11X18548   2.493   2.437   4.865 -0.0258  0.0179  3.0951
  165SAPE  H11Y18549   2.572   2.295   4.948 -0.9926 -0.5404  2.0823
  165SAPE  C31218550   2.377   2.298   4.996 -0.6908  0.2691 -0.0997
  165SAPE  H12X18551   2.277   2.329   4.958 -0.4872 -0.0920 -0.9674
  165SAPE  H12Y18552   2.403   2.362   5.083 -1.0096  1.6978 -1.0077
  165SAPE  C31318553   2.376   2.155   5.051 -0.7539  0.3367 -0.4060
  165SAPE  H13X18554   2.475   2.126   5.091 -0.8306  1.6495  0.8308
  165SAPE  H13Y18555   2.348   2.085   4.969 -1.5289  0.4929 -0.2876
  165SAPE  C31418556   2.289   2.120   5.177 -0.4491 -0.7968  0.4474
  165SAPE  H14X18557   2.182   2.119   5.147 -0.6091  2.0542  0.6252
  165SAPE  H14Y18558   2.303   2.196   5.257  1.0822 -0.1926 -0.3578
  165SAPE  C31518559   2.349   1.989   5.242  0.2692 -0.4792 -0.5135
  165SAPE  H15X18560   2.458   2.004   5.258 -0.1041  1.2200  0.7020
  165SAPE  H15Y18561   2.342   1.906   5.168  0.9303  0.6899 -1.9292
  165SAPE  C31618562   2.277   1.940   5.376 -0.5354 -0.4519 -0.1846
  165SAPE  H16X18563   2.175   1.923   5.337 -1.6949  2.7479  1.1401
  165SAPE  H16Y18564   2.268   2.030   5.439 -0.3251 -0.1832 -0.5330
  165SAPE  C31718565   2.346   1.829   5.447 -0.0112  0.7701 -0.0153
  165SAPE  H17X18566   2.384   1.760   5.369 -2.2380 -1.2308  0.5871
  165SAPE  H17Y18567   2.269   1.766   5.495 -1.1376  1.1432 -1.2557
  165SAPE  C31818568   2.460   1.871   5.542  0.4449 -0.4565  0.1086
  165SAPE  H18X18569   2.510   1.966   5.515 -1.0300  0.5427  0.8028
  165SAPE  H18Y18570   2.529   1.783   5.537 -0.1639 -0.9909  0.8492
  165SAPE  H18Z18571   2.415   1.872   5.644  0.1205  0.5210 -0.0329
  166SAPE     N18572   5.018   1.520   3.503  0.1277  0.0473  0.2430
  166SAPE   HN118573   5.118   1.499   3.520 -0.0164 -0.7716  0.1003
  166SAPE   HN218574   4.982   1.576   3.583  1.0974 -1.3670  1.7227
  166SAPE   HN318575   4.961   1.433   3.514  1.0210 -0.8115 -1.5349
  166SAPE   C1218576   5.005   1.596   3.374  0.0494  0.0718  0.1233
  166SAPE  H12A18577   4.896   1.590   3.354 -0.1821  0.1359  1.2548
  166SAPE  H12B18578   5.064   1.538   3.299 -0.3332  0.9538 -0.8745
  166SAPE   C1118579   5.063   1.740   3.406 -0.1463  0.0710  0.5629
  166SAPE  H11A18580   5.161   1.735   3.458 -0.0418  0.9279  0.4690
  166SAPE  H11B18581   5.005   1.797   3.482 -1.3019  0.1525 -0.3512
  166SAPE     P18582   4.942   1.906   3.237 -0.0438  0.0991  0.0770
  166SAPE   O1318583   4.985   1.962   3.108  0.7603  0.4694 -0.1124
  166SAPE   O1418584   4.821   1.821   3.234 -0.1235 -0.3390 -0.5688
  166SAPE   O1218585   5.068   1.819   3.288  0.0649  0.0591  0.3975
  166SAPE   O1118586   4.933   2.020   3.344  0.5010  0.0597  0.5558
  166SAPE    C118587   5.039   2.109   3.371  0.0759  0.4264  0.1554
  166SAPE    HA18588   5.131   2.094   3.311 -1.8614  0.3758 -3.0220
  166SAPE    HB18589   4.996   2.209   3.349 -0.3673  0.0537 -0.7111
  166SAPE    C218590   5.077   2.091   3.521 -0.2705 -0.3183 -0.3412
  166SAPE    HS18591   5.142   2.000   3.524 -2.3001 -1.8866 -1.2937
  166SAPE   O2118592   4.976   2.068   3.614 -0.1304  0.2057  0.0502
  166SAPE   C2118593   4.872   2.149   3.625  0.4501  0.1968 -0.0833
  166SAPE   O2218594   4.856   2.259   3.569 -0.1673  0.6123  0.3963
  166SAPE   C2218595   4.778   2.088   3.728 -0.1740 -0.2840  0.1590
  166SAPE   H2R18596   4.791   1.978   3.721  0.8319 -0.1334 -0.6645
  166SAPE   H2S18597   4.801   2.131   3.828  0.4017 -0.0296 -0.0764
  166SAPE    C318598   5.179   2.213   3.562  0.4353  0.1600  0.1656
  166SAPE    HX18599   5.134   2.314   3.563 -1.3352 -0.4358 -3.1396
  166SAPE    HY18600   5.248   2.220   3.475 -0.1417 -0.3860 -0.3540
  166SAPE   O3118601   5.234   2.172   3.689  0.3279  0.1238 -0.2591
  166SAPE   C3118602   5.330   2.260   3.730 -0.5800 -0.3224  0.2708
  166SAPE   O3218603   5.365   2.362   3.681 -0.1935  0.1140  0.0906
  166SAPE   C3218604   5.374   2.230   3.872  0.4483  0.2389  0.1929
  166SAPE   H2X18605   5.472   2.281   3.886  1.6825 -1.7112 -0.9929
  166SAPE   H2Y18606   5.387   2.121   3.889  0.6592  0.6266  2.9777
  166SAPE   C2318607   4.630   2.125   3.697  0.0977 -0.0864 -0.1348
  166SAPE   H3R18608   4.606   2.068   3.604 -0.5042 -0.0824  0.0126
  166SAPE   H3S18609   4.626   2.230   3.662  1.3239  0.5712  1.5968
  166SAPE   C2418610   4.538   2.082   3.815  0.2685  0.8202 -0.6518
  166SAPE   H4R18611   4.586   1.990   3.856 -3.1040 -0.2656  1.2147
  166SAPE   H4S18612   4.446   2.036   3.774  1.2191  0.3347 -2.3317
  166SAPE   C2518613   4.501   2.175   3.923 -0.2487 -0.4748 -0.0165
  166SAPE   H5R18614   4.426   2.249   3.891 -0.4947 -0.5740  0.3291
  166SAPE   C2618615   4.544   2.175   4.052  0.1934  0.0053  0.4776
  166SAPE   H6R18616   4.522   2.266   4.111 -1.2691 -1.1188  1.7460
  166SAPE   C2718617   4.654   2.083   4.107  0.7052 -0.1542 -0.2891
  166SAPE   H7R18618   4.739   2.071   4.036  0.2881 -2.2767 -0.4775
  166SAPE   H7S18619   4.619   1.981   4.131  1.9337 -0.8797 -1.3923
  166SAPE   C2818620   4.724   2.125   4.232  0.4543 -0.2307 -0.4693
  166SAPE   H8R18621   4.827   2.156   4.212 -0.2254 -0.1202 -4.5091
  166SAPE   C2918622   4.670   2.138   4.356  0.6803 -0.4133 -0.2077
  166SAPE   H9R18623   4.731   2.177   4.438  1.4377  0.3579 -1.1054
  166SAPE  C21018624   4.528   2.102   4.395 -0.8164 -0.6274 -0.4750
  166SAPE  H10R18625   4.523   1.993   4.414  0.9195 -1.1489 -2.6077
  166SAPE  H10S18626   4.452   2.119   4.316 -1.7136  1.1292  0.7103
  166SAPE  C21118627   4.475   2.180   4.509 -0.1402 -0.2493  0.0366
  166SAPE  H11R18628   4.443   2.279   4.473  0.2449 -0.9348 -2.4015
  166SAPE  C21218629   4.478   2.156   4.641  0.0460  0.2650 -0.7424
  166SAPE  H12R18630   4.431   2.236   4.700  1.4799  1.3343 -0.9998
  166SAPE  C21318631   4.518   2.032   4.714  0.0270  0.2955  0.6781
  166SAPE  H13R18632   4.612   2.059   4.766 -0.2295  1.8993  0.3580
  166SAPE  H13S18633   4.541   1.953   4.640 -3.6251  1.1137 -1.5833
  166SAPE  C21418634   4.411   1.978   4.812 -0.0435 -0.3216  0.1707
  166SAPE  H14R18635   4.312   1.975   4.765  0.5981  1.6774 -1.4476
  166SAPE  C21518636   4.434   1.903   4.919  0.2152  0.0716 -0.6676
  166SAPE  H15R18637   4.351   1.873   4.985  0.6182  1.5102  0.5466
  166SAPE  C21618638   4.575   1.870   4.970 -0.0257 -1.0736  0.4724
  166SAPE  H16R18639   4.633   1.965   4.961 -1.3931 -0.3012 -0.6162
  166SAPE  H16S18640   4.620   1.810   4.888  1.9639  0.4072  0.3889
  166SAPE  C21718641   4.584   1.800   5.107 -0.5439  0.5020  0.4958
  166SAPE  H17R18642   4.533   1.702   5.099  0.4117 -0.0300  0.6844
  166SAPE  H17S18643   4.529   1.862   5.181 -1.2707  0.1425  0.2624
  166SAPE  C21818644   4.729   1.790   5.155 -0.7312  0.3219  0.5978
  166SAPE  H18R18645   4.772   1.892   5.164  0.2017 -0.1529  1.8570
  166SAPE  H18S18646   4.787   1.741   5.074 -0.5444  2.0067 -0.3467
  166SAPE  C21918647   4.743   1.701   5.280  0.3559 -0.9002 -0.3818
  166SAPE  H19R18648   4.687   1.606   5.262 -3.5341  1.1202  0.0621
  166SAPE  H19S18649   4.681   1.742   5.362  0.6452 -0.3574 -0.4345
  166SAPE  C22018650   4.886   1.673   5.334 -0.2774 -0.0321 -0.3118
  166SAPE  H20R18651   4.958   1.626   5.263  0.6264 -1.9559  1.7764
  166SAPE  H20S18652   4.891   1.626   5.434  1.2138 -0.2657 -0.4669
  166SAPE  H20T18653   4.933   1.773   5.347 -0.3724 -0.0654  0.2849
  166SAPE   C3318654   5.273   2.281   3.974 -0.3125  0.5687 -0.0216
  166SAPE   H3X18655   5.177   2.226   3.961 -0.3728  0.7028 -0.1535
  166SAPE   H3Y18656   5.260   2.389   3.947 -0.9461  0.9223  1.6039
  166SAPE   C3418657   5.336   2.267   4.116 -0.3949  0.2789  0.0993
  166SAPE   H4X18658   5.437   2.312   4.126  0.1060 -0.8017  0.0554
  166SAPE   H4Y18659   5.341   2.159   4.141 -1.1178 -0.0486 -1.0966
  166SAPE   C3518660   5.248   2.336   4.224  0.0793 -0.1359 -0.2297
  166SAPE   H5X18661   5.147   2.296   4.201 -0.6213  1.5951 -0.2872
  166SAPE   H5Y18662   5.244   2.442   4.192  1.0030 -0.4005 -1.3338
  166SAPE   C3618663   5.309   2.307   4.361  0.0195 -0.1558  0.0031
  166SAPE   H6X18664   5.405   2.358   4.382  0.1933 -0.5532  0.1936
  166SAPE   H6Y18665   5.326   2.197   4.369  2.4464  0.1447 -0.2959
  166SAPE   C3718666   5.214   2.328   4.479 -0.1095 -0.2895  0.1258
  166SAPE   H7X18667   5.134   2.251   4.471 -0.2162 -0.0393 -1.4364
  166SAPE   H7Y18668   5.162   2.426   4.474  0.8197  0.3049  1.4783
  166SAPE   C3818669   5.286   2.323   4.614  0.1147  0.5728  0.3640
  166SAPE   H8X18670   5.364   2.401   4.630  1.4999 -0.1944 -2.0315
  166SAPE   H8Y18671   5.331   2.221   4.618 -1.2567 -0.1532 -1.3840
  166SAPE   C3918672   5.193   2.348   4.730 -0.4872  0.3761  0.0220
  166SAPE   H9X18673   5.117   2.268   4.740 -0.0050 -0.0850  0.0543
  166SAPE   H9Y18674   5.140   2.445   4.719 -0.7754  0.0388 -1.8512
  166SAPE  C31018675   5.264   2.355   4.864  0.0880  0.2984  0.1463
  166SAPE  H10X18676   5.355   2.418   4.864  1.5288 -1.6860  0.2757
  166SAPE  H10Y18677   5.307   2.253   4.880 -0.5017  0.3773  2.6079
  166SAPE  C31118678   5.170   2.381   4.984  0.5037 -0.0771  0.3517
  166SAPE  H11X18679   5.102   2.293   4.993 -2.2221  1.7983 -0.6132
  166SAPE  H11Y18680   5.114   2.469   4.947  2.1731 -0.1854 -2.8022
  166SAPE  C31218681   5.249   2.399   5.118  0.0468 -0.5395  0.0056
  166SAPE  H12X18682   5.302   2.496   5.110 -0.0002 -0.5551 -0.5364
  166SAPE  H12Y18683   5.320   2.315   5.135 -0.6234 -1.2798 -0.7415
  166SAPE  C31318684   5.145   2.397   5.228 -0.0503 -0.2770 -0.0896
  166SAPE  H13X18685   5.086   2.302   5.231 -0.7907  0.1604  3.2723
  166SAPE  H13Y18686   5.074   2.479   5.204  0.4898 -0.1922 -1.4401
  166SAPE  C31418687   5.208   2.400   5.374 -0.1820 -0.7025  0.6872
  166SAPE  H14X18688   5.250   2.502   5.383  0.2857 -0.5829 -2.1029
  166SAPE  H14Y18689   5.305   2.346   5.372  2.0326  2.9430 -0.7385
  166SAPE  C31518690   5.115   2.358   5.485  0.3930  0.4940 -0.1580
  166SAPE  H15X18691   5.094   2.250   5.471 -2.8249  1.2998 -2.8973
  166SAPE  H15Y18692   5.016   2.402   5.459 -0.2812 -1.1995 -0.5811
  166SAPE  C31618693   5.158   2.398   5.623 -0.2978  0.2579  0.3393
  166SAPE  H16X18694   5.116   2.500   5.639 -0.0026  0.7702 -1.7781
  166SAPE  H16Y18695   5.268   2.408   5.614 -0.2130 -1.6932 -1.7645
  166SAPE  C31718696   5.128   2.299   5.734 -0.5939 -0.2071 -0.3252
  166SAPE  H17X18697   5.025   2.257   5.733 -0.3194 -0.9413  0.6894
  166SAPE  H17Y18698   5.128   2.362   5.826 -1.6424 -0.8056  0.1010
  166SAPE  C31818699   5.240   2.200   5.727  0.3933  0.2761 -0.1581
  166SAPE  H18X18700   5.339   2.239   5.696 -0.1964  1.2371 -0.8781
  166SAPE  H18Y18701   5.207   2.130   5.647  0.2142  0.1553  0.0185
  166SAPE  H18Z18702   5.241   2.141   5.821 -0.1942  0.0725 -0.2755
  167SAPE     N18703   3.014   6.651   3.197  0.4506 -0.1369  0.6381
  167SAPE   HN118704   3.049   6.597   3.279 -2.3479 -2.7137  0.3064
  167SAPE   HN218705   2.921   6.688   3.224 -1.0413 -1.8162 -1.8003
  167SAPE   HN318706   3.004   6.599   3.108  2.7451 -0.0446  0.2533
  167SAPE   C1218707   3.093   6.777   3.157 -0.3714 -0.3520 -0.0225
  167SAPE  H12A18708   3.190   6.744   3.117 -1.2536 -0.4398 -2.1999
  167SAPE  H12B18709   3.106   6.822   3.258 -1.8153  1.5940 -0.6337
  167SAPE   C1118710   3.024   6.874   3.059 -0.4071 -0.0344 -0.6230
  167SAPE  H11A18711   2.933   6.905   3.114  1.3469 -1.1448  3.2402
  167SAPE  H11B18712   2.999   6.818   2.966  0.3512 -2.0060  0.3012
  167SAPE     P18713   3.052   7.132   3.002 -0.0592  0.1343  0.0682
  167SAPE   O1318714   3.149   7.202   2.913  0.0261 -0.5476 -0.4448
  167SAPE   O1418715   2.914   7.123   2.955 -0.1891 -0.3442 -0.2457
  167SAPE   O1218716   3.105   6.986   3.022  0.0958  0.4351  0.0191
  167SAPE   O1118717   3.056   7.198   3.140 -0.8966  0.4736  0.0860
  167SAPE    C118718   3.166   7.170   3.228 -0.0053  0.1374 -0.8532
  167SAPE    HA18719   3.135   7.196   3.331  0.0226 -2.1771 -0.2224
  167SAPE    HB18720   3.196   7.063   3.232 -0.1019  0.1006 -1.0827
  167SAPE    C218721   3.284   7.268   3.203 -0.2596  0.5150 -0.0882
  167SAPE    HS18722   3.321   7.246   3.101 -0.9860 -2.1129  0.1573
  167SAPE   O2118723   3.379   7.227   3.302  0.4303  0.0809 -0.7676
  167SAPE   C2118724   3.495   7.276   3.295 -0.3967 -0.0689 -0.0321
  167SAPE   O2218725   3.541   7.353   3.210 -0.3540  0.4541 -0.6870
  167SAPE   C2218726   3.570   7.241   3.430 -0.2973 -0.2128  0.6959
  167SAPE   H2R18727   3.517   7.152   3.470  0.1895 -1.5181 -1.3892
  167SAPE   H2S18728   3.672   7.215   3.395 -0.2793  0.6914  0.0203
  167SAPE    C318729   3.235   7.416   3.213  0.3331 -0.2848 -0.6484
  167SAPE    HX18730   3.157   7.441   3.138  0.5406 -0.2159 -0.8437
  167SAPE    HY18731   3.322   7.485   3.208  0.0013  0.3874  1.7097
  167SAPE   O3118732   3.175   7.435   3.348 -0.1721  0.2870 -0.1279
  167SAPE   C3118733   3.239   7.507   3.440 -0.2112 -0.7547 -0.4723
  167SAPE   O3218734   3.345   7.569   3.417 -0.3480  0.0437 -0.1851
  167SAPE   C3218735   3.177   7.490   3.580 -0.2362  0.1824 -0.5240
  167SAPE   H2X18736   3.224   7.397   3.619  0.2286  0.9159  0.7059
  167SAPE   H2Y18737   3.066   7.482   3.571 -0.0558 -0.8413 -2.3262
  167SAPE   C2318738   3.566   7.364   3.524 -0.1390 -0.2856 -0.0754
  167SAPE   H3R18739   3.464   7.360   3.569 -0.2379 -0.9758 -0.3417
  167SAPE   H3S18740   3.579   7.458   3.467  2.3439 -0.9820 -0.7536
  167SAPE   C2418741   3.664   7.359   3.636 -0.2508 -0.0722 -0.0671
  167SAPE   H4R18742   3.651   7.459   3.682  0.5933  0.3534 -0.7195
  167SAPE   H4S18743   3.766   7.370   3.592  0.3271  0.6826  1.3933
  167SAPE   C2518744   3.643   7.250   3.737  0.3518 -1.1695 -1.0819
  167SAPE   H5R18745   3.687   7.155   3.702  0.5796 -0.7811 -1.8984
  167SAPE   C2618746   3.597   7.254   3.865  0.2109  0.4526  0.4414
  167SAPE   H6R18747   3.591   7.160   3.921  1.5579  0.2376  0.2664
  167SAPE   C2718748   3.542   7.367   3.938 -0.3614 -0.3523  0.3607
  167SAPE   H7R18749   3.440   7.350   3.978 -0.5906 -2.1551 -0.8840
  167SAPE   H7S18750   3.529   7.464   3.885  1.3488  0.4887  1.3994
  167SAPE   C2818751   3.641   7.398   4.051  0.3935  0.1056 -0.6168
  167SAPE   H8R18752   3.742   7.423   4.016  1.9900 -3.0222  1.3794
  167SAPE   C2918753   3.621   7.371   4.179  0.6925 -0.2653 -0.6162
  167SAPE   H9R18754   3.705   7.394   4.246  2.3047 -0.4545 -2.4750
  167SAPE  C21018755   3.496   7.318   4.243 -0.4811  0.0111 -0.1096
  167SAPE  H10R18756   3.535   7.238   4.309  0.7794  0.6985  0.0124
  167SAPE  H10S18757   3.433   7.263   4.170 -0.3808 -2.0761  1.2895
  167SAPE  C21118758   3.409   7.418   4.311  0.0972  0.9353 -1.2460
  167SAPE  H11R18759   3.356   7.495   4.255 -0.0053  1.4977 -0.4006
  167SAPE  C21218760   3.404   7.431   4.449 -0.1157  0.7122  0.4947
  167SAPE  H12R18761   3.355   7.523   4.483 -1.5892  0.5598 -1.0815
  167SAPE  C21318762   3.448   7.341   4.563  0.0264  0.1917  0.5569
  167SAPE  H13R18763   3.507   7.257   4.522 -1.3751  0.9895 -3.7199
  167SAPE  H13S18764   3.355   7.301   4.610 -0.3359  0.8343  0.4095
  167SAPE  C21418765   3.532   7.408   4.661  0.1409  0.4499  0.1134
  167SAPE  H14R18766   3.637   7.414   4.631  0.5637  0.0865  1.4395
  167SAPE  C21518767   3.489   7.443   4.782  0.9005  0.2992  0.1010
  167SAPE  H15R18768   3.564   7.481   4.853  0.2248 -0.2160  1.1109
  167SAPE  C21618769   3.356   7.419   4.845  0.0311 -0.1270  0.1933
  167SAPE  H16R18770   3.267   7.439   4.782 -1.6581 -1.6921  1.9594
  167SAPE  H16S18771   3.355   7.487   4.932  0.7263 -0.6700  0.6418
  167SAPE  C21718772   3.340   7.288   4.923 -0.0708 -0.2213 -0.0045
  167SAPE  H17R18773   3.408   7.283   5.011  0.0773  1.3041 -0.0014
  167SAPE  H17S18774   3.367   7.209   4.850  0.5315 -1.0174  1.0589
  167SAPE  C21818775   3.193   7.257   4.954  0.6131  0.2258 -0.8199
  167SAPE  H18R18776   3.137   7.238   4.860 -0.1476  0.7265 -0.4761
  167SAPE  H18S18777   3.155   7.345   5.011  2.8419 -0.7458  2.4668
  167SAPE  C21918778   3.170   7.143   5.053  0.0356  0.2179  0.3444
  167SAPE  H19R18779   3.263   7.086   5.072  0.3264  1.5770  3.8297
  167SAPE  H19S18780   3.098   7.066   5.017 -0.1498 -0.7138  2.5495
  167SAPE  C22018781   3.113   7.189   5.187 -0.1432 -0.2648  0.3461
  167SAPE  H20R18782   3.022   7.253   5.178 -0.1120 -0.2081  0.4434
  167SAPE  H20S18783   3.190   7.241   5.247 -0.9858 -0.2948  1.4881
  167SAPE  H20T18784   3.086   7.096   5.243  2.1300 -1.3620 -0.2876
  167SAPE   C3318785   3.215   7.599   3.684 -0.3338 -0.1228  0.3113
  167SAPE   H3X18786   3.157   7.692   3.665  0.4792  0.3388  0.0585
  167SAPE   H3Y18787   3.323   7.621   3.671 -0.8864  1.7341 -1.6243
  167SAPE   C3418788   3.176   7.549   3.818 -0.3693 -0.0863 -0.2120
  167SAPE   H4X18789   3.233   7.463   3.861  0.4837  0.9871  0.8656
  167SAPE   H4Y18790   3.077   7.503   3.800 -0.5572 -0.2534  1.1856
  167SAPE   C3518791   3.166   7.653   3.932 -0.7901  0.0743  0.2789
  167SAPE   H5X18792   3.113   7.744   3.896 -1.7213 -0.4468  0.3122
  167SAPE   H5Y18793   3.268   7.684   3.962 -0.8172 -1.8430  2.6733
  167SAPE   C3618794   3.112   7.592   4.061 -0.0706 -0.6898 -0.0065
  167SAPE   H6X18795   3.200   7.553   4.117  1.5083  1.0801 -1.1215
  167SAPE   H6Y18796   3.035   7.513   4.046 -1.1919 -0.0943  2.1162
  167SAPE   C3718797   3.042   7.699   4.155 -0.0069  0.6831 -0.5081
  167SAPE   H7X18798   2.947   7.734   4.110 -1.5034  0.2581  2.0917
  167SAPE   H7Y18799   3.106   7.787   4.179 -0.6030  0.9772  0.0367
  167SAPE   C3818800   3.001   7.625   4.291 -0.8391  0.3983  0.4819
  167SAPE   H8X18801   3.093   7.616   4.354 -0.2009  0.6644 -0.3895
  167SAPE   H8Y18802   2.972   7.522   4.263 -0.7188  0.8459 -1.4458
  167SAPE   C3918803   2.888   7.686   4.365  0.0960  0.0262  0.6960
  167SAPE   H9X18804   2.837   7.608   4.426  1.1753 -1.7892 -0.6045
  167SAPE   H9Y18805   2.813   7.707   4.286  0.3763  3.2931  1.1539
  167SAPE  C31018806   2.933   7.800   4.453 -0.0079  0.0166 -0.5767
  167SAPE  H10X18807   2.984   7.880   4.396 -0.3422  0.4384 -0.2887
  167SAPE  H10Y18808   3.011   7.761   4.522  0.5005  3.0465  0.7213
  167SAPE  C31118809   2.817   7.839   4.545 -0.6689 -0.6634 -0.1012
  167SAPE  H11X18810   2.789   7.759   4.617 -1.0804 -0.5838 -0.1677
  167SAPE  H11Y18811   2.734   7.869   4.477 -1.0668  2.1064  1.4413
  167SAPE  C31218812   2.870   7.956   4.628 -0.2361  0.5200 -0.5043
  167SAPE  H12X18813   2.909   8.035   4.560 -1.1010  1.9383  0.5769
  167SAPE  H12Y18814   2.963   7.913   4.672 -0.9600 -1.0229 -0.4138
  167SAPE  C31318815   2.767   8.015   4.729  0.0724  0.0374 -0.4530
  167SAPE  H13X18816   2.675   8.051   4.680  0.3649  0.4017 -0.7396
  167SAPE  H13Y18817   2.824   8.099   4.774 -0.7118 -0.3618  1.3635
  167SAPE  C31418818   2.728   7.928   4.852  0.3281  0.9823  0.1714
  167SAPE  H14X18819   2.681   7.834   4.816  0.9947  0.3927  0.8109
  167SAPE  H14Y18820   2.652   7.971   4.920  0.0286  1.3389 -0.3841
  167SAPE  C31518821   2.848   7.883   4.942 -0.4184 -0.0051  0.5744
  167SAPE  H15X18822   2.881   7.977   4.992  2.4157  0.3828 -1.7222
  167SAPE  H15Y18823   2.934   7.839   4.886 -1.2674 -0.7196 -0.1969
  167SAPE  C31618824   2.801   7.780   5.047 -0.3469  0.2710  0.4167
  167SAPE  H16X18825   2.889   7.744   5.106  0.4248 -1.0818 -1.4780
  167SAPE  H16Y18826   2.742   7.700   4.999 -0.7436  0.3836  0.7172
  167SAPE  C31718827   2.695   7.836   5.142  0.0878 -0.1700  0.2941
  167SAPE  H17X18828   2.593   7.817   5.103  0.5589 -0.9915 -0.5788
  167SAPE  H17Y18829   2.715   7.943   5.163 -0.3293 -0.1260  0.4665
  167SAPE  C31818830   2.710   7.761   5.282  0.3807 -0.2326  0.1211
  167SAPE  H18X18831   2.682   7.656   5.262  1.3496 -0.7706  1.4462
  167SAPE  H18Y18832   2.631   7.788   5.356  1.2704 -1.6130  1.6523
  167SAPE  H18Z18833   2.806   7.758   5.339 -0.6712 -0.3244  1.9781
  168SAPE     N18834   5.382   5.733   3.133 -0.7480 -0.3335 -0.3355
  168SAPE   HN118835   5.333   5.642   3.144 -0.4600 -0.2547  2.1691
  168SAPE   HN218836   5.328   5.802   3.189  2.0853  2.4674 -0.7744
  168SAPE   HN318837   5.398   5.761   3.034 -2.5971  1.4514 -0.1894
  168SAPE   C1218838   5.519   5.739   3.198 -0.1219  0.3025  0.1839
  168SAPE  H12A18839   5.579   5.655   3.157  0.4922  1.2876 -0.9782
  168SAPE  H12B18840   5.502   5.721   3.307 -2.4973  1.4861  0.0695
  168SAPE   C1118841   5.593   5.869   3.156  0.3458  0.8490  0.1403
  168SAPE  H11A18842   5.619   5.852   3.049 -0.6998 -0.4095  0.0644
  168SAPE  H11B18843   5.683   5.878   3.221 -0.0316  2.9567  0.4208
  168SAPE     P18844   5.541   6.122   3.143 -0.0172 -0.2698  0.2477
  168SAPE   O1318845   5.682   6.127   3.094 -0.1045  0.1492 -0.3584
  168SAPE   O1418846   5.430   6.172   3.056  0.0580  0.1206  0.1990
  168SAPE   O1218847   5.505   5.973   3.179  0.2133 -0.7806  0.3442
  168SAPE   O1118848   5.536   6.205   3.278 -0.1947 -0.0993 -0.8392
  168SAPE    C118849   5.490   6.132   3.397 -0.4692 -0.4574  0.1763
  168SAPE    HA18850   5.381   6.114   3.388 -0.3295 -0.9806 -0.5416
  168SAPE    HB18851   5.527   6.028   3.410 -1.9511 -0.7640  2.5044
  168SAPE    C218852   5.532   6.213   3.518 -0.1328 -0.6853  0.1016
  168SAPE    HS18853   5.547   6.141   3.601 -0.1971 -0.7274  0.0763
  168SAPE   O2118854   5.427   6.305   3.551 -0.0610 -0.0518 -0.0001
  168SAPE   C2118855   5.333   6.251   3.629 -0.2244 -0.7900 -0.0788
  168SAPE   O2218856   5.327   6.139   3.677  0.1901  0.0669 -0.2603
  168SAPE   C2218857   5.215   6.348   3.639 -0.5011 -0.2338 -0.4771
  168SAPE   H2R18858   5.237   6.439   3.579 -3.1370 -0.8428 -2.5866
  168SAPE   H2S18859   5.130   6.290   3.597 -0.7735  1.0193 -1.7292
  168SAPE    C318860   5.661   6.297   3.495  0.3438 -0.1738 -0.2169
  168SAPE    HX18861   5.636   6.378   3.423  1.8554  0.0065 -0.5691
  168SAPE    HY18862   5.734   6.237   3.436  0.3043 -1.5490  1.0890
  168SAPE   O3118863   5.714   6.361   3.619  0.5712  0.1671  0.1739
  168SAPE   C3118864   5.817   6.441   3.597 -0.3628  0.1264 -0.1994
  168SAPE   O3218865   5.885   6.444   3.498 -0.4457 -0.4426  0.4552
  168SAPE   C3218866   5.853   6.529   3.720 -0.1459 -0.3417 -0.1202
  168SAPE   H2X18867   5.827   6.632   3.686 -1.2531 -0.6229 -0.1522
  168SAPE   H2Y18868   5.963   6.516   3.732  0.2438  1.0468 -1.7004
  168SAPE   C2318869   5.186   6.391   3.782 -0.1907  0.5094 -0.0395
  168SAPE   H3R18870   5.168   6.309   3.854  2.5398  0.0669  0.2554
  168SAPE   H3S18871   5.095   6.455   3.772 -0.0662  0.8855  1.0628
  168SAPE   C2418872   5.298   6.484   3.832 -0.2972  0.1347 -0.2245
  168SAPE   H4R18873   5.252   6.531   3.922 -0.3371 -0.4235  0.0543
  168SAPE   H4S18874   5.323   6.557   3.753 -1.3789  0.0592 -0.6457
  168SAPE   C2518875   5.420   6.411   3.881  0.1579  0.9303 -0.2334
  168SAPE   H5R18876   5.479   6.374   3.796 -2.4473  0.7190 -2.0723
  168SAPE   C2618877   5.453   6.371   4.006  0.1459  0.4070  1.1854
  168SAPE   H6R18878   5.550   6.322   4.021  0.0277  0.6847  2.9982
  168SAPE   C2718879   5.393   6.400   4.137 -0.1629  0.0954 -0.2321
  168SAPE   H7R18880   5.318   6.481   4.124 -2.2720 -1.5570  1.0225
  168SAPE   H7S18881   5.474   6.444   4.199  0.0802  0.2261 -0.6388
  168SAPE   C2818882   5.333   6.275   4.195  0.6578 -0.2998 -0.4058
  168SAPE   H8R18883   5.361   6.183   4.142 -1.1760 -0.8617 -0.4647
  168SAPE   C2918884   5.269   6.278   4.312  0.7001 -0.1249  0.1218
  168SAPE   H9R18885   5.227   6.181   4.342 -2.1051  0.7264 -0.7508
  168SAPE  C21018886   5.238   6.400   4.390  0.1327  0.0068  0.1715
  168SAPE  H10R18887   5.133   6.434   4.380  0.9300  2.2521 -1.2475
  168SAPE  H10S18888   5.296   6.482   4.341 -1.6552  0.9175 -0.5302
  168SAPE  C21118889   5.289   6.389   4.529 -0.0306  0.3187 -0.2422
  168SAPE  H11R18890   5.279   6.287   4.570  1.6874 -0.1164 -0.8127
  168SAPE  C21218891   5.327   6.487   4.605  1.0956 -0.0180 -0.2304
  168SAPE  H12R18892   5.369   6.484   4.706  0.0355  0.2564  0.2301
  168SAPE  C21318893   5.306   6.631   4.570  0.2451 -0.5862 -0.0782
  168SAPE  H13R18894   5.201   6.660   4.593  0.3753 -0.7845  0.8074
  168SAPE  H13S18895   5.313   6.642   4.460  0.6219 -2.0100 -0.2210
  168SAPE  C21418896   5.409   6.725   4.639  0.5079 -0.3019 -0.2442
  168SAPE  H14R18897   5.488   6.759   4.569  1.7642 -0.1770  1.1818
  168SAPE  C21518898   5.414   6.750   4.770 -0.0425  0.7519 -0.5432
  168SAPE  H15R18899   5.509   6.795   4.801 -0.2661  0.5855  0.3910
  168SAPE  C21618900   5.314   6.709   4.880  0.5999 -1.1895 -0.8066
  168SAPE  H16R18901   5.215   6.683   4.836 -1.2676  1.7278  1.2996
  168SAPE  H16S18902   5.299   6.803   4.937  3.3388 -0.5459 -0.9961
  168SAPE  C21718903   5.351   6.602   4.985  0.3679 -0.4071 -0.9133
  168SAPE  H17R18904   5.420   6.649   5.058 -1.7123 -1.8670  2.2228
  168SAPE  H17S18905   5.395   6.517   4.929  0.4084 -1.1355  0.1847
  168SAPE  C21818906   5.240   6.547   5.074  0.4780  0.3664 -0.1615
  168SAPE  H18R18907   5.157   6.506   5.012  0.3829  0.1290  0.1211
  168SAPE  H18S18908   5.190   6.627   5.133  0.4545  0.7980 -0.7613
  168SAPE  C21918909   5.281   6.427   5.159 -1.0393 -0.0007 -0.7368
  168SAPE  H19R18910   5.197   6.417   5.232  0.1520 -1.6524  0.4886
  168SAPE  H19S18911   5.362   6.444   5.232 -2.1339  0.0192  0.5250
  168SAPE  C22018912   5.318   6.302   5.076  0.3839  0.1194  0.1219
  168SAPE  H20R18913   5.426   6.306   5.050  0.3324 -1.1218 -0.3673
  168SAPE  H20S18914   5.265   6.302   4.979 -1.1260  1.0012  0.9004
  168SAPE  H20T18915   5.289   6.211   5.134 -0.7288 -0.3451 -1.1162
  168SAPE   C3318916   5.784   6.494   3.856 -0.4588 -0.0486  0.5697
  168SAPE   H3X18917   5.799   6.384   3.863 -0.3775 -0.0113  1.0065
  168SAPE   H3Y18918   5.678   6.522   3.840 -0.0267  2.0927  1.1189
  168SAPE   C3418919   5.839   6.564   3.971 -0.1072  0.0380 -0.9514
  168SAPE   H4X18920   5.832   6.674   3.983  5.1151  0.5796 -0.3572
  168SAPE   H4Y18921   5.950   6.552   3.972 -0.1574 -0.5484  0.0987
  168SAPE   C3518922   5.791   6.491   4.100 -0.7844 -0.2990  0.2874
  168SAPE   H5X18923   5.828   6.387   4.092 -0.5272 -0.0908 -2.1959
  168SAPE   H5Y18924   5.683   6.473   4.083 -0.2151 -4.6120  0.2680
  168SAPE   C3618925   5.822   6.563   4.229 -0.5096  0.8482 -0.1389
  168SAPE   H6X18926   5.773   6.662   4.239 -1.5182  0.2880  0.7493
  168SAPE   H6Y18927   5.931   6.571   4.244 -0.0967 -2.7475 -0.2720
  168SAPE   C3718928   5.769   6.475   4.347 -0.2074 -0.3724  0.0712
  168SAPE   H7X18929   5.857   6.408   4.362  1.1659  1.2890 -0.2734
  168SAPE   H7Y18930   5.675   6.422   4.320 -1.1619  0.5737  1.4185
  168SAPE   C3818931   5.762   6.549   4.475 -0.4335  0.4536 -0.3158
  168SAPE   H8X18932   5.680   6.623   4.476  0.9492  2.0540 -1.2726
  168SAPE   H8Y18933   5.858   6.603   4.487  0.1436 -0.7487  0.8878
  168SAPE   C3918934   5.746   6.460   4.601  0.3027  0.1333  0.2539
  168SAPE   H9X18935   5.816   6.374   4.593 -0.2209 -0.2160 -0.7717
  168SAPE   H9Y18936   5.640   6.428   4.591  0.1729  0.6292  0.0181
  168SAPE  C31018937   5.755   6.534   4.732 -0.3215  0.0921 -0.9745
  168SAPE  H10X18938   5.688   6.622   4.741  1.0030  0.9643  1.0954
  168SAPE  H10Y18939   5.859   6.574   4.731  0.7252 -2.3567  0.0468
  168SAPE  C31118940   5.733   6.453   4.862 -0.2727  0.4648  0.4916
  168SAPE  H11X18941   5.810   6.373   4.858 -2.2080 -1.5832  1.5368
  168SAPE  H11Y18942   5.638   6.402   4.837  0.3642 -0.4379 -0.1642
  168SAPE  C31218943   5.736   6.536   4.993  0.6477 -0.0382 -0.0198
  168SAPE  H12X18944   5.673   6.624   4.970 -2.3806 -1.6022  1.7130
  168SAPE  H12Y18945   5.841   6.550   5.025  0.7269  0.7900 -0.6017
  168SAPE  C31318946   5.673   6.477   5.119 -0.1340  0.6272  0.0320
  168SAPE  H13X18947   5.685   6.367   5.129 -0.1315  0.7072  1.0318
  168SAPE  H13Y18948   5.563   6.489   5.108 -0.6272 -1.7357  1.4667
  168SAPE  C31418949   5.708   6.545   5.251 -0.4482  0.2771  0.1199
  168SAPE  H14X18950   5.701   6.655   5.239 -1.6156  0.1784 -0.2290
  168SAPE  H14Y18951   5.813   6.525   5.283 -1.0993 -0.9232  1.6734
  168SAPE  C31518952   5.612   6.522   5.381  0.7364 -0.6836  1.0234
  168SAPE  H15X18953   5.504   6.531   5.357  1.1436 -2.0431 -1.7375
  168SAPE  H15Y18954   5.637   6.606   5.449  3.0378 -0.7926  0.4107
  168SAPE  C31618955   5.649   6.398   5.463  0.0101 -0.2935 -0.2041
  168SAPE  H16X18956   5.758   6.394   5.485  0.0425  1.7353  0.1290
  168SAPE  H16Y18957   5.627   6.303   5.410 -0.0055  0.2226 -1.1337
  168SAPE  C31718958   5.578   6.399   5.592 -0.2520  0.1490 -0.7178
  168SAPE  H17X18959   5.581   6.497   5.644 -0.0205 -0.2041 -0.0594
  168SAPE  H17Y18960   5.638   6.329   5.653  0.5287  1.1186 -0.3459
  168SAPE  C31818961   5.427   6.361   5.582 -0.6731 -0.9802 -0.3451
  168SAPE  H18X18962   5.374   6.352   5.679 -1.4184  1.6998 -0.4167
  168SAPE  H18Y18963   5.417   6.273   5.516  1.2836  1.2378 -3.9713
  168SAPE  H18Z18964   5.379   6.435   5.514  0.3451 -0.6587 -0.7391
  169SAPE     N18965   4.097   5.357   3.214  0.5042 -0.1825 -0.2556
  169SAPE   HN118966   4.034   5.363   3.132  1.9914 -1.0971 -1.5433
  169SAPE   HN218967   4.171   5.285   3.196  0.4062 -0.1136 -0.9818
  169SAPE   HN318968   4.047   5.327   3.300 -0.6502 -1.4896 -1.3347
  169SAPE   C1218969   4.168   5.484   3.252  0.1915 -0.2387  0.3562
  169SAPE  H12A18970   4.205   5.467   3.356 -1.1085 -1.6729  0.6161
  169SAPE  H12B18971   4.093   5.564   3.239 -0.8528 -1.5296 -2.4335
  169SAPE   C1118972   4.282   5.500   3.151 -0.3813 -0.2125  0.4411
  169SAPE  H11A18973   4.331   5.595   3.182  0.9597 -1.2607  1.6829
  169SAPE  H11B18974   4.246   5.521   3.048 -0.1612 -0.5955  0.2853
  169SAPE     P18975   4.521   5.406   3.095 -0.1072 -0.2549 -0.2389
  169SAPE   O1318976   4.577   5.269   3.087 -0.5930 -0.0311 -0.5042
  169SAPE   O1418977   4.525   5.494   2.975 -0.2767  0.1336 -0.0120
  169SAPE   O1218978   4.370   5.393   3.147  0.5091 -0.1903  0.2592
  169SAPE   O1118979   4.596   5.484   3.209 -0.2915 -0.0211 -0.3392
  169SAPE    C118980   4.714   5.445   3.283 -0.3720  0.6268  0.1267
  169SAPE    HA18981   4.748   5.341   3.267  0.8660  1.0991 -0.4843
  169SAPE    HB18982   4.795   5.514   3.252  0.0701  0.3771  0.7285
  169SAPE    C218983   4.689   5.470   3.435 -0.0357  0.2097 -1.8611
  169SAPE    HS18984   4.643   5.380   3.482  0.7075  0.4820 -0.5557
  169SAPE   O2118985   4.616   5.588   3.469  0.0433  0.4009  0.2881
  169SAPE   C2118986   4.488   5.577   3.499 -0.2913 -0.1906  0.1277
  169SAPE   O2218987   4.417   5.478   3.495  0.1512 -0.0404 -0.4144
  169SAPE   C2218988   4.435   5.703   3.561  0.6116  0.2420 -0.1757
  169SAPE   H2R18989   4.516   5.779   3.556  0.2478  0.6881  0.5068
  169SAPE   H2S18990   4.355   5.731   3.488 -1.6223 -3.1007  0.7986
  169SAPE    C318991   4.823   5.485   3.517 -0.2827  0.7738 -0.6946
  169SAPE    HX18992   4.842   5.595   3.517 -0.6561  0.8421 -0.3595
  169SAPE    HY18993   4.910   5.435   3.469 -1.2486 -1.4134 -0.2702
  169SAPE   O3118994   4.814   5.437   3.652  0.5439 -0.0455  0.1660
  169SAPE   C3118995   4.833   5.527   3.750  0.2420 -1.0440  0.4283
  169SAPE   O3218996   4.864   5.643   3.730 -0.2440 -0.4942 -0.8744
  169SAPE   C3218997   4.846   5.453   3.888 -0.6837  0.0248 -0.3349
  169SAPE   H2X18998   4.955   5.446   3.907 -1.1072 -0.6854  2.1096
  169SAPE   H2Y18999   4.804   5.352   3.870 -1.1404  0.4082 -1.5030
  169SAPE   C2319000   4.401   5.685   3.714  0.3153  0.3809  0.4179
  169SAPE   H3R19001   4.474   5.610   3.752  2.5538  2.0825 -0.2986
  169SAPE   H3S19002   4.303   5.636   3.731  0.9313 -1.7203 -1.5299
  169SAPE   C2419003   4.423   5.813   3.801 -0.6255 -0.3973  0.2383
  169SAPE   H4R19004   4.355   5.819   3.889 -0.3579  1.3424  0.3653
  169SAPE   H4S19005   4.396   5.897   3.733 -0.1994 -0.5606 -0.1377
  169SAPE   C2519006   4.564   5.830   3.859  0.1688  0.1027 -0.2518
  169SAPE   H5R19007   4.642   5.794   3.790 -0.8417 -0.0390 -1.3475
  169SAPE   C2619008   4.604   5.867   3.984  0.7067  0.6127  0.6217
  169SAPE   H6R19009   4.711   5.874   4.005  0.3347  1.9704  2.3133
  169SAPE   C2719010   4.520   5.905   4.101 -0.7333 -0.0993 -0.6016
  169SAPE   H7R19011   4.421   5.932   4.059 -1.3073 -3.9774 -2.1649
  169SAPE   H7S19012   4.567   5.990   4.154 -2.9982  1.0581 -0.3239
  169SAPE   C2819013   4.475   5.804   4.201  0.1793  0.2736  0.2041
  169SAPE   H8R19014   4.427   5.713   4.161 -0.0061  1.8882 -3.5978
  169SAPE   C2919015   4.464   5.832   4.334  0.4142  0.0222  0.0823
  169SAPE   H9R19016   4.420   5.757   4.401  0.9692  1.0850  1.6980
  169SAPE  C21019017   4.496   5.968   4.398  0.2267 -0.1437 -1.3186
  169SAPE  H10R19018   4.460   6.041   4.323 -1.9752  0.2834  0.0335
  169SAPE  H10S19019   4.604   5.971   4.421 -0.3360  0.3514  1.7438
  169SAPE  C21119020   4.418   5.991   4.528 -1.0317  0.6778 -0.1249
  169SAPE  H11R19021   4.315   6.030   4.520 -0.6877  2.2699  2.0861
  169SAPE  C21219022   4.461   5.965   4.655  0.5374  0.6187 -0.2328
  169SAPE  H12R19023   4.389   5.988   4.735 -0.9901  0.0479 -1.3845
  169SAPE  C21319024   4.584   5.908   4.708 -0.2800  0.1010  0.0616
  169SAPE  H13R19025   4.673   5.925   4.643 -1.0896 -0.2999 -1.1826
  169SAPE  H13S19026   4.587   5.798   4.723  1.5537 -0.0664 -1.2407
  169SAPE  C21419027   4.630   5.981   4.832  0.2198  0.2254 -0.0478
  169SAPE  H14R19028   4.713   6.050   4.806  1.9369 -2.1791 -1.3152
  169SAPE  C21519029   4.610   5.934   4.953  0.4868 -0.1102  0.3451
  169SAPE  H15R19030   4.642   5.998   5.037  0.8652  2.9442 -1.9221
  169SAPE  C21619031   4.512   5.824   4.994  0.5757  0.2918  0.3130
  169SAPE  H16R19032   4.568   5.742   5.044  0.4597  1.3027  2.1993
  169SAPE  H16S19033   4.445   5.787   4.914  1.6784 -1.7511  0.2743
  169SAPE  C21719034   4.418   5.870   5.108 -0.1058 -0.0001 -0.5287
  169SAPE  H17R19035   4.382   5.972   5.083  1.8593  1.0439  0.6499
  169SAPE  H17S19036   4.476   5.901   5.198 -0.6449  0.8953 -0.4841
  169SAPE  C21819037   4.305   5.771   5.141 -0.5063  0.5488  0.2150
  169SAPE  H18R19038   4.340   5.677   5.190 -1.2182  0.1758  0.0205
  169SAPE  H18S19039   4.258   5.731   5.049 -0.0822 -2.2496  1.0938
  169SAPE  C21919040   4.197   5.833   5.220 -0.4118 -0.3986 -0.3267
  169SAPE  H19R19041   4.148   5.917   5.166 -2.2672 -2.1947 -1.5957
  169SAPE  H19S19042   4.226   5.873   5.320  3.0310  0.1051 -1.3941
  169SAPE  C22019043   4.084   5.726   5.246 -0.2459 -0.6735 -0.2511
  169SAPE  H20R19044   4.048   5.689   5.148 -1.6880  2.8523 -1.2182
  169SAPE  H20S19045   3.997   5.781   5.288  0.1240 -0.2197 -0.0799
  169SAPE  H20T19046   4.123   5.648   5.314  1.1565  0.5879  0.4483
  169SAPE   C3319047   4.768   5.520   3.997  0.5449 -0.4116 -0.4288
  169SAPE   H3X19048   4.661   5.524   3.969  0.7564  0.8108 -1.1293
  169SAPE   H3Y19049   4.795   5.628   4.000 -1.7523  0.2207 -0.8951
  169SAPE   C3419050   4.808   5.454   4.123  0.3788  0.2731  0.2313
  169SAPE   H4X19051   4.918   5.452   4.139  0.3808  1.1444  0.3699
  169SAPE   H4Y19052   4.758   5.355   4.127 -2.2241  1.5423  2.1100
  169SAPE   C3519053   4.757   5.519   4.252  0.5798 -0.6848 -0.2506
  169SAPE   H5X19054   4.653   5.557   4.240 -0.1936 -2.7861 -0.6327
  169SAPE   H5Y19055   4.813   5.612   4.276  1.7403 -1.5162  0.3571
  169SAPE   C3619056   4.765   5.427   4.374  0.0532  0.1555  0.3706
  169SAPE   H6X19057   4.867   5.384   4.385  0.0389 -0.4311 -1.4732
  169SAPE   H6Y19058   4.690   5.345   4.363 -1.6404  1.5796  0.8905
  169SAPE   C3719059   4.721   5.493   4.502  0.4938  0.5396 -0.5181
  169SAPE   H7X19060   4.617   5.530   4.496 -0.0847 -0.5709  1.7094
  169SAPE   H7Y19061   4.781   5.584   4.525  0.9654 -0.1056  0.9545
  169SAPE   C3819062   4.719   5.404   4.624  0.1787 -0.3680 -0.4546
  169SAPE   H8X19063   4.827   5.396   4.648  0.0164  0.1821  0.5047
  169SAPE   H8Y19064   4.685   5.304   4.591 -0.9292  0.2682 -1.3264
  169SAPE   C3919065   4.627   5.447   4.740 -0.6298  0.8093 -0.5210
  169SAPE   H9X19066   4.518   5.431   4.724 -0.4726  1.1734 -2.0674
  169SAPE   H9Y19067   4.649   5.555   4.751 -1.2859  1.0562 -1.4950
  169SAPE  C31019068   4.671   5.362   4.864 -0.1683  0.0402  0.7662
  169SAPE  H10X19069   4.780   5.366   4.882  0.2523 -0.2767 -1.4125
  169SAPE  H10Y19070   4.654   5.254   4.844  0.8068  0.0851 -0.4113
  169SAPE  C31119071   4.597   5.400   4.995 -0.0788 -0.1037 -0.0290
  169SAPE  H11X19072   4.624   5.501   5.032  2.6157 -1.4946  2.1249
  169SAPE  H11Y19073   4.642   5.326   5.065  0.1805  0.2957  0.2248
  169SAPE  C31219074   4.441   5.368   4.991  0.0210  1.0516 -0.1673
  169SAPE  H12X19075   4.421   5.305   4.902 -1.3673 -1.0390  1.5405
  169SAPE  H12Y19076   4.382   5.462   4.994  0.1524  1.1149  1.9752
  169SAPE  C31319077   4.408   5.278   5.114 -0.4186  0.4869  0.3129
  169SAPE  H13X19078   4.431   5.337   5.205  1.6234 -0.5716  0.5498
  169SAPE  H13Y19079   4.470   5.186   5.113  0.3561  0.9906 -1.2225
  169SAPE  C31419080   4.255   5.241   5.112  0.2023  0.4098 -0.6616
  169SAPE  H14X19081   4.232   5.183   5.020  0.8516 -1.2615  0.1943
  169SAPE  H14Y19082   4.195   5.335   5.109  0.1290  0.3400 -2.7787
  169SAPE  C31519083   4.209   5.155   5.229 -0.3877  0.8776 -0.2273
  169SAPE  H15X19084   4.239   5.191   5.330 -2.9542 -0.7246  1.2176
  169SAPE  H15Y19085   4.259   5.058   5.208 -0.8544  0.1341  1.8018
  169SAPE  C31619086   4.056   5.146   5.227 -0.4372  0.4086  0.1467
  169SAPE  H16X19087   4.024   5.253   5.230 -2.7749 -0.2662  0.7471
  169SAPE  H16Y19088   4.024   5.093   5.320  3.5029  1.0487  2.0929
  169SAPE  C31719089   3.992   5.070   5.108 -0.0487 -0.3982  0.1640
  169SAPE  H17X19090   4.017   4.963   5.124  0.0267 -0.0764  2.4475
  169SAPE  H17Y19091   4.041   5.102   5.013 -0.4805  1.3324  0.4850
  169SAPE  C31819092   3.845   5.098   5.101  0.8612 -0.2318 -0.4519
  169SAPE  H18X19093   3.803   5.201   5.110 -1.0733 -0.9319 -1.0266
  169SAPE  H18Y19094   3.786   5.054   5.184  0.6509 -2.1092 -1.5409
  169SAPE  H18Z19095   3.782   5.068   5.015 -0.5281  1.3543 -0.0476
  170SAPE     N19096   5.375   0.874   3.117 -0.5768 -0.1794  0.4738
  170SAPE   HN119097   5.419   0.954   3.067  0.8881 -1.4766 -0.4061
  170SAPE   HN219098   5.374   0.797   3.046 -3.3117 -1.4332  1.7076
  170SAPE   HN319099   5.275   0.901   3.127 -0.3879  2.1233 -2.5223
  170SAPE   C1219100   5.446   0.838   3.250  0.5162 -0.8929 -0.5346
  170SAPE  H12A19101   5.541   0.786   3.226  0.1781 -1.5632 -0.4495
  170SAPE  H12B19102   5.372   0.768   3.295 -0.7594  0.5266 -0.3086
  170SAPE   C1119103   5.468   0.963   3.336 -0.0707  0.4205  0.1963
  170SAPE  H11A19104   5.546   1.024   3.284 -0.2039 -0.9436 -1.7457
  170SAPE  H11B19105   5.508   0.933   3.435 -1.0472 -1.4967  0.0457
  170SAPE     P19106   5.342   1.151   3.469  0.5921 -0.4382  0.3500
  170SAPE   O1319107   5.408   1.275   3.423 -0.4911 -0.0154 -0.0038
  170SAPE   O1419108   5.194   1.164   3.498 -0.5183  0.5820  0.2075
  170SAPE   O1219109   5.350   1.038   3.360  0.0230 -0.1643  0.1949
  170SAPE   O1119110   5.422   1.094   3.593 -0.1206  0.1002  0.2891
  170SAPE    C119111   5.360   1.071   3.717 -0.0790  0.7426 -0.7592
  170SAPE    HA19112   5.256   1.034   3.704  0.4626 -0.7760 -1.0144
  170SAPE    HB19113   5.418   0.990   3.768 -0.1570  0.2726 -1.3969
  170SAPE    C219114   5.366   1.181   3.817 -0.1939 -0.1087  1.0731
  170SAPE    HS19115   5.312   1.264   3.766 -0.2118 -0.5699  0.3141
  170SAPE   O2119116   5.506   1.196   3.862  0.3851  0.1665 -0.3166
  170SAPE   C2119117   5.557   1.311   3.838  0.6524  0.2298  0.0483
  170SAPE   O2219118   5.491   1.406   3.794  0.3249 -0.1121 -0.0003
  170SAPE   C2219119   5.711   1.299   3.857  0.5023  0.2717  0.2998
  170SAPE   H2R19120   5.716   1.209   3.922  1.8748 -1.4513 -2.0803
  170SAPE   H2S19121   5.764   1.278   3.763  1.2997  2.7850  0.1145
  170SAPE    C319122   5.290   1.139   3.943 -0.4178  0.4096 -0.6092
  170SAPE    HX19123   5.331   1.047   3.989 -1.2091  0.0321 -0.6310
  170SAPE    HY19124   5.182   1.122   3.923 -1.4929  2.3401  2.7887
  170SAPE   O3119125   5.281   1.249   4.037  0.9491 -0.6900 -0.1127
  170SAPE   C3119126   5.361   1.254   4.140  0.5448 -0.3834 -0.5899
  170SAPE   O3219127   5.449   1.174   4.168  0.2658 -0.2535  0.1211
  170SAPE   C3219128   5.313   1.367   4.232  0.5914 -0.7074  0.0292
  170SAPE   H2X19129   5.205   1.346   4.248  0.0795  1.3568 -0.4458
  170SAPE   H2Y19130   5.314   1.460   4.171 -1.9591 -1.0156 -0.5852
  170SAPE   C2319131   5.772   1.427   3.923 -0.2601  0.0681  0.6583
  170SAPE   H3R19132   5.749   1.505   3.848 -0.0202  0.2935  0.8149
  170SAPE   H3S19133   5.884   1.428   3.923 -0.1019  1.1233 -3.8824
  170SAPE   C2419134   5.716   1.464   4.056 -0.3572  0.8094 -0.1771
  170SAPE   H4R19135   5.609   1.491   4.043 -0.6381 -0.6861 -1.1832
  170SAPE   H4S19136   5.779   1.550   4.087 -1.1247  2.0901 -1.9614
  170SAPE   C2519137   5.724   1.355   4.156 -0.3041 -0.2638 -0.5617
  170SAPE   H5R19138   5.718   1.250   4.127 -1.0293 -0.6568  0.9217
  170SAPE   C2619139   5.736   1.380   4.295  0.4237  0.3124 -0.0822
  170SAPE   H6R19140   5.730   1.294   4.362 -0.4618 -0.7605 -1.4960
  170SAPE   C2719141   5.739   1.513   4.362  0.4755  0.1028  0.4609
  170SAPE   H7R19142   5.644   1.534   4.417 -0.0361 -0.3142 -0.2469
  170SAPE   H7S19143   5.739   1.588   4.280 -0.1355 -0.4876 -0.0911
  170SAPE   C2819144   5.862   1.528   4.446  0.6081  0.2511  0.7678
  170SAPE   H8R19145   5.949   1.575   4.399  0.1596  1.0268  0.7027
  170SAPE   C2919146   5.878   1.503   4.577  0.3054 -0.0259 -1.2563
  170SAPE   H9R19147   5.976   1.516   4.626 -0.2760 -0.2243 -0.0113
  170SAPE  C21019148   5.767   1.437   4.660  0.2729 -0.6094  0.0495
  170SAPE  H10R19149   5.805   1.341   4.701  1.5501 -0.0545  0.2115
  170SAPE  H10S19150   5.674   1.394   4.617 -0.9349  0.3492  1.5846
  170SAPE  C21119151   5.736   1.549   4.758  0.5843  0.5032 -0.9762
  170SAPE  H11R19152   5.666   1.626   4.723 -0.3991 -0.4428 -1.1280
  170SAPE  C21219153   5.785   1.552   4.890  0.5408  0.1811 -0.1202
  170SAPE  H12R19154   5.758   1.640   4.951  0.4963 -0.2482  0.4925
  170SAPE  C21319155   5.868   1.455   4.972 -0.6055  0.3627  0.0955
  170SAPE  H13R19156   5.957   1.505   5.017 -0.0154 -2.5189  2.4395
  170SAPE  H13S19157   5.908   1.379   4.901 -2.4310 -0.2667 -0.3054
  170SAPE  C21419158   5.777   1.388   5.073 -0.4462  0.0043  0.1081
  170SAPE  H14R19159   5.670   1.382   5.049 -0.6594  0.9680  0.7344
  170SAPE  C21519160   5.822   1.348   5.190  0.0415  0.3439 -0.1622
  170SAPE  H15R19161   5.759   1.302   5.268  0.3021 -1.6251 -1.0426
  170SAPE  C21619162   5.960   1.364   5.223  0.6638 -0.6913 -0.2700
  170SAPE  H16R19163   5.983   1.468   5.256  2.4505 -0.5162 -1.8994
  170SAPE  H16S19164   6.021   1.341   5.133 -0.5476 -2.3734 -0.7120
  170SAPE  C21719165   5.992   1.265   5.334  0.3655 -0.8055  1.0500
  170SAPE  H17R19166   5.971   1.158   5.314  3.3121 -1.0005 -1.9536
  170SAPE  H17S19167   5.931   1.294   5.422 -0.6507  0.9808 -0.1687
  170SAPE  C21819168   6.140   1.271   5.372 -0.0607  0.3394  0.0011
  170SAPE  H18R19169   6.173   1.376   5.389  1.0970 -0.0384  0.1529
  170SAPE  H18S19170   6.197   1.255   5.278 -0.9453  1.6856 -0.8052
  170SAPE  C21919171   6.167   1.181   5.489 -0.4150  0.3506 -0.1421
  170SAPE  H19R19172   6.136   1.235   5.581  1.1976  1.2541 -0.0863
  170SAPE  H19S19173   6.277   1.174   5.506 -0.6881 -1.2351  1.2980
  170SAPE  C22019174   6.110   1.038   5.496  0.1483 -0.4228  0.0868
  170SAPE  H20R19175   6.121   0.997   5.599  1.0399  0.4767  0.3603
  170SAPE  H20S19176   6.163   0.981   5.416  2.9848  0.5352  1.1492
  170SAPE  H20T19177   6.001   1.034   5.473 -0.0507  2.3959  0.2661
  170SAPE   C3319178   5.376   1.358   4.374  0.0629 -0.7195  0.2688
  170SAPE   H3X19179   5.484   1.354   4.397  0.0325  0.1267  0.5751
  170SAPE   H3Y19180   5.342   1.260   4.414  2.3206 -0.7742  2.2626
  170SAPE   C3419181   5.328   1.474   4.457  0.5595 -0.2328 -0.8464
  170SAPE   H4X19182   5.217   1.478   4.458  0.5287 -0.8282 -1.2873
  170SAPE   H4Y19183   5.365   1.569   4.414  0.4964  0.5755  0.7904
  170SAPE   C3519184   5.375   1.453   4.602  0.1989  1.0402 -0.3116
  170SAPE   H5X19185   5.485   1.472   4.603  0.4184  0.1545 -2.1125
  170SAPE   H5Y19186   5.357   1.350   4.639  1.8818  0.6512 -0.4892
  170SAPE   C3619187   5.296   1.553   4.697  0.0252 -0.4661  0.6399
  170SAPE   H6X19188   5.195   1.507   4.705  1.1044 -3.2821 -0.3538
  170SAPE   H6Y19189   5.284   1.648   4.641  1.5931 -0.9550 -0.6194
  170SAPE   C3719190   5.347   1.574   4.843  0.7613  0.2171 -0.3564
  170SAPE   H7X19191   5.266   1.638   4.886  0.4913  0.3586 -1.0650
  170SAPE   H7Y19192   5.446   1.622   4.852  2.7006 -3.3571 -1.0062
  170SAPE   C3819193   5.346   1.444   4.926  0.1301  0.6019 -0.4302
  170SAPE   H8X19194   5.439   1.386   4.909 -1.8638 -2.5936 -1.2103
  170SAPE   H8Y19195   5.259   1.389   4.885  1.0096  0.3342 -2.0426
  170SAPE   C3919196   5.340   1.471   5.074 -0.1037  0.4386 -1.1010
  170SAPE   H9X19197   5.239   1.513   5.092 -0.8759 -1.5498 -0.5238
  170SAPE   H9Y19198   5.424   1.539   5.099  0.9338 -0.7253 -1.3371
  170SAPE  C31019199   5.336   1.345   5.156 -0.3089  0.4413 -0.3905
  170SAPE  H10X19200   5.428   1.285   5.145 -1.3648 -1.0543 -1.3808
  170SAPE  H10Y19201   5.245   1.289   5.124 -0.1277 -0.0891  0.0169
  170SAPE  C31119202   5.309   1.375   5.303  0.5728 -0.0873  0.1371
  170SAPE  H11X19203   5.241   1.462   5.311 -1.3631 -1.6195  1.0969
  170SAPE  H11Y19204   5.400   1.411   5.357  0.4025  0.4836  0.0490
  170SAPE  C31219205   5.256   1.253   5.385 -0.3607 -0.6229  0.8899
  170SAPE  H12X19206   5.158   1.219   5.345 -0.9203 -0.1403  1.8212
  170SAPE  H12Y19207   5.222   1.297   5.481  0.1932  0.6533  0.5192
  170SAPE  C31319208   5.362   1.137   5.400 -0.1389 -0.7723 -0.2608
  170SAPE  H13X19209   5.408   1.112   5.302 -0.0852  0.5024 -0.5782
  170SAPE  H13Y19210   5.302   1.048   5.429 -1.9947  0.2004 -0.9324
  170SAPE  C31419211   5.463   1.168   5.509 -0.1533  0.1304 -0.6863
  170SAPE  H14X19212   5.412   1.189   5.605 -1.0552 -0.2111 -1.0819
  170SAPE  H14Y19213   5.521   1.257   5.476 -3.0230  2.1647 -0.6654
  170SAPE  C31519214   5.566   1.054   5.532 -0.4074 -0.4240  0.3991
  170SAPE  H15X19215   5.632   1.051   5.443 -1.3198 -0.3715 -0.2999
  170SAPE  H15Y19216   5.512   0.956   5.533  0.6659 -1.0468 -0.6375
  170SAPE  C31619217   5.642   1.080   5.668  0.5310 -0.3069  0.0868
  170SAPE  H16X19218   5.593   1.031   5.754 -0.2165 -1.1733 -0.8035
  170SAPE  H16Y19219   5.644   1.191   5.676  0.8813 -0.1869 -1.3784
  170SAPE  C31719220   5.786   1.029   5.669 -0.1756  0.1131 -0.3495
  170SAPE  H17X19221   5.831   1.075   5.579 -0.1849 -0.0116 -0.4179
  170SAPE  H17Y19222   5.775   0.922   5.643  1.1882 -0.3646  0.9120
  170SAPE  C31819223   5.882   1.065   5.777  0.3928  0.7959 -0.1610
  170SAPE  H18X19224   5.984   1.025   5.757 -0.2412 -0.7373 -0.4976
  170SAPE  H18Y19225   5.845   1.017   5.870  0.0577 -1.6234 -1.4541
  170SAPE  H18Z19226   5.889   1.175   5.793 -0.6242  0.7781  0.4589
  171SAPE     N19227   5.126   6.262   3.059  0.0331  0.1652  0.3120
  171SAPE   HN119228   5.026   6.239   3.045 -0.1909  0.9333  0.5997
  171SAPE   HN219229   5.168   6.326   2.988  0.4904 -0.8355 -0.3429
  171SAPE   HN319230   5.175   6.170   3.066  0.0537 -0.0740 -2.0904
  171SAPE   C1219231   5.135   6.329   3.189  0.0596  0.1012  0.6264
  171SAPE  H12A19232   5.070   6.419   3.185  0.6692  0.5496  0.5360
  171SAPE  H12B19233   5.242   6.356   3.201 -0.5926  2.8582  0.9670
  171SAPE   C1119234   5.071   6.237   3.295 -0.0692 -0.0547  0.5054
  171SAPE  H11A19235   4.969   6.216   3.257  0.7155 -1.6811 -0.8027
  171SAPE  H11B19236   5.062   6.296   3.389  1.2031 -1.0547  1.2735
  171SAPE     P19237   5.104   5.967   3.284  0.0019 -0.0024 -0.0346
  171SAPE   O1319238   5.061   5.965   3.150 -0.0297  0.4230  0.3875
  171SAPE   O1419239   5.214   5.875   3.318  0.4291  0.1880  0.2624
  171SAPE   O1219240   5.144   6.118   3.320  0.0252  0.0229 -0.3707
  171SAPE   O1119241   4.988   5.932   3.380 -0.0760 -0.4159 -0.5110
  171SAPE    C119242   4.854   5.951   3.356  0.3226 -0.4779 -0.0841
  171SAPE    HA19243   4.847   5.995   3.254  2.5824  0.6290  0.1653
  171SAPE    HB19244   4.806   5.852   3.370  1.3880 -0.7666  1.8047
  171SAPE    C219245   4.780   6.047   3.455 -0.2415 -0.3898  0.1035
  171SAPE    HS19246   4.832   6.145   3.442 -1.0929 -0.2244 -2.6532
  171SAPE   O2119247   4.800   6.003   3.590 -0.6949 -0.2553  0.2129
  171SAPE   C2119248   4.852   6.089   3.678 -0.2339 -0.1270  0.6769
  171SAPE   O2219249   4.879   6.206   3.653 -0.2403 -0.1121  1.1021
  171SAPE   C2219250   4.873   6.021   3.806  0.5923 -0.6295  0.1048
  171SAPE   H2R19251   4.777   5.977   3.840  0.2334  1.0524  1.3527
  171SAPE   H2S19252   4.947   5.941   3.783  0.6618 -0.8434  1.0169
  171SAPE    C319253   4.632   6.070   3.425  0.2843 -0.6181 -0.4970
  171SAPE    HX19254   4.583   5.971   3.436  1.1579 -1.1249 -1.0152
  171SAPE    HY19255   4.611   6.106   3.322  1.5065  0.2398 -0.4651
  171SAPE   O3119256   4.578   6.170   3.521 -0.3726  0.0817  0.2884
  171SAPE   C3119257   4.462   6.152   3.581 -0.2671 -0.2242  0.4524
  171SAPE   O3219258   4.386   6.061   3.549  0.2058  0.0895 -0.1696
  171SAPE   C3219259   4.443   6.256   3.687  0.2298  1.0975  1.1318
  171SAPE   H2X19260   4.355   6.319   3.661 -0.2776  0.3479  0.9822
  171SAPE   H2Y19261   4.529   6.326   3.686 -0.3711  1.8579 -0.2027
  171SAPE   C2319262   4.926   6.095   3.928  0.1412 -0.4927  0.5589
  171SAPE   H3R19263   5.034   6.114   3.908 -0.4478  1.1057 -1.5081
  171SAPE   H3S19264   4.908   6.045   4.025 -0.2270 -0.3411  0.5699
  171SAPE   C2419265   4.852   6.228   3.957  0.1627  0.9287 -0.8931
  171SAPE   H4R19266   4.750   6.191   3.983  0.5177 -0.3213 -1.2030
  171SAPE   H4S19267   4.844   6.287   3.864  0.1623  0.0892 -1.4382
  171SAPE   C2519268   4.928   6.300   4.070 -0.3442  0.0939  0.1200
  171SAPE   H5R19269   5.019   6.346   4.030 -1.4339  1.6971 -0.5825
  171SAPE   C2619270   4.889   6.336   4.186  0.2332  0.1553 -0.0440
  171SAPE   H6R19271   4.968   6.372   4.253 -0.0616  0.0883  0.3451
  171SAPE   C2719272   4.760   6.288   4.250 -0.1098  0.4563  0.1660
  171SAPE   H7R19273   4.787   6.192   4.301 -0.6422  1.8084  3.1948
  171SAPE   H7S19274   4.679   6.265   4.178  0.6231 -1.1777 -0.1820
  171SAPE   C2819275   4.707   6.378   4.359 -0.0239  0.5159 -0.1202
  171SAPE   H8R19276   4.612   6.431   4.339  0.6443  1.8043  0.0194
  171SAPE   C2919277   4.762   6.409   4.475  0.2088  0.2154 -0.7892
  171SAPE   H9R19278   4.708   6.477   4.543  0.2947  0.1237 -0.6295
  171SAPE  C21019279   4.886   6.348   4.539  0.2590  0.0281 -0.6756
  171SAPE  H10R19280   4.951   6.310   4.457  0.3545  3.3599 -2.3271
  171SAPE  H10S19281   4.847   6.253   4.581  0.5829 -0.4147 -1.3584
  171SAPE  C21119282   4.949   6.446   4.630  0.2997  0.0092 -0.7938
  171SAPE  H11R19283   5.009   6.516   4.572  0.3536  1.3513  0.8033
  171SAPE  C21219284   4.955   6.460   4.764  0.7696 -0.0061  0.0332
  171SAPE  H12R19285   5.010   6.540   4.815  0.2273  0.0894  0.4743
  171SAPE  C21319286   4.891   6.376   4.871 -0.4122 -0.5287  0.5775
  171SAPE  H13R19287   4.964   6.367   4.954  0.7725 -0.4056 -0.4363
  171SAPE  H13S19288   4.877   6.274   4.828 -4.1633 -0.6369  1.6644
  171SAPE  C21419289   4.759   6.423   4.910 -0.1759 -0.1597  0.3588
  171SAPE  H14R19290   4.687   6.443   4.830  0.7703  1.1981 -0.1901
  171SAPE  C21519291   4.716   6.433   5.031  0.2940  0.6025 -0.0369
  171SAPE  H15R19292   4.611   6.463   5.045  0.5236  2.0616 -1.2153
  171SAPE  C21619293   4.798   6.408   5.158  0.0791 -0.5230 -0.1337
  171SAPE  H16R19294   4.757   6.456   5.249  1.3385  0.1149  0.1234
  171SAPE  H16S19295   4.906   6.429   5.145 -0.0588  0.6917  0.5917
  171SAPE  C21719296   4.783   6.260   5.207 -0.0933 -0.7421  0.7061
  171SAPE  H17R19297   4.805   6.196   5.118  0.2624 -0.5763  0.6728
  171SAPE  H17S19298   4.679   6.241   5.240  0.1843 -0.9534  1.4831
  171SAPE  C21819299   4.880   6.227   5.321 -0.0834 -0.0690  0.0428
  171SAPE  H18R19300   4.883   6.302   5.403 -0.8935  1.1864 -1.0288
  171SAPE  H18S19301   4.983   6.231   5.279  0.6938  3.4586  1.8710
  171SAPE  C21919302   4.862   6.085   5.377  0.0547  0.0674 -0.1106
  171SAPE  H19R19303   4.883   6.015   5.294  1.4264  0.5080 -0.1589
  171SAPE  H19S19304   4.757   6.074   5.412  0.2338 -2.8115 -0.2854
  171SAPE  C22019305   4.956   6.048   5.497  0.2413 -0.2610  0.4797
  171SAPE  H20R19306   4.937   5.952   5.550 -0.3167 -0.4519 -0.0474
  171SAPE  H20S19307   4.938   6.127   5.573 -2.9045 -0.7392  0.3872
  171SAPE  H20T19308   5.058   6.048   5.454  0.3306  0.2475  0.6841
  171SAPE   C3319309   4.422   6.185   3.824 -0.2653 -0.0889  0.2681
  171SAPE   H3X19310   4.515   6.148   3.872 -0.9303  0.3163  1.9455
  171SAPE   H3Y19311   4.349   6.101   3.824  0.5897 -0.8525  0.7834
  171SAPE   C3419312   4.338   6.280   3.919 -0.4537  0.4205  0.2167
  171SAPE   H4X19313   4.232   6.271   3.889 -0.5027  0.0331  0.5046
  171SAPE   H4Y19314   4.371   6.384   3.896  1.7173 -0.3105 -0.2322
  171SAPE   C3519315   4.347   6.242   4.061 -0.1282 -0.5230 -0.6172
  171SAPE   H5X19316   4.446   6.280   4.096  0.3948 -1.9124 -0.5140
  171SAPE   H5Y19317   4.351   6.131   4.064  0.6157 -0.4790  0.6264
  171SAPE   C3619318   4.232   6.303   4.141  0.0347 -0.0472 -0.2502
  171SAPE   H6X19319   4.137   6.265   4.098  0.5230 -2.2736  0.4951
  171SAPE   H6Y19320   4.235   6.413   4.128 -1.9054 -0.1073 -1.7852
  171SAPE   C3719321   4.243   6.276   4.295 -0.0690  0.1654  0.3983
  171SAPE   H7X19322   4.342   6.315   4.328  0.7599 -1.5948  0.1071
  171SAPE   H7Y19323   4.242   6.169   4.324  1.6901 -0.3824 -1.3192
  171SAPE   C3819324   4.119   6.343   4.369  0.7321 -0.3850 -0.1873
  171SAPE   H8X19325   4.026   6.317   4.313  0.1909 -0.0619  0.5451
  171SAPE   H8Y19326   4.136   6.452   4.364  0.6370 -0.4078 -4.0422
  171SAPE   C3919327   4.111   6.289   4.518  0.1455  0.3044 -0.0403
  171SAPE   H9X19328   4.084   6.182   4.518 -1.1693  0.5433  2.6416
  171SAPE   H9Y19329   4.029   6.352   4.558 -1.0390 -1.0672 -0.2373
  171SAPE  C31019330   4.242   6.316   4.595  0.5046  0.1369 -0.0897
  171SAPE  H10X19331   4.285   6.416   4.573 -0.7707  0.3222 -1.8769
  171SAPE  H10Y19332   4.321   6.248   4.557  0.6677 -1.0326  2.1661
  171SAPE  C31119333   4.221   6.299   4.742  0.5192 -0.3463  0.2320
  171SAPE  H11X19334   4.171   6.202   4.759 -1.2397  0.7413  1.5939
  171SAPE  H11Y19335   4.156   6.373   4.793  0.5361 -0.3455  0.2524
  171SAPE  C31219336   4.353   6.293   4.825  0.3985 -0.1248 -0.2882
  171SAPE  H12X19337   4.404   6.390   4.811  0.2782 -0.2804 -2.1554
  171SAPE  H12Y19338   4.421   6.216   4.782  0.2237 -0.8993  0.7847
  171SAPE  C31319339   4.319   6.267   4.974 -0.5766  0.5219 -0.3225
  171SAPE  H13X19340   4.409   6.230   5.027 -1.7335 -0.8984  0.7496
  171SAPE  H13Y19341   4.243   6.187   4.985  0.6842 -0.9293 -1.7145
  171SAPE  C31419342   4.265   6.396   5.036  0.7854 -0.7621  0.0517
  171SAPE  H14X19343   4.155   6.406   5.028  0.5762  0.3390  3.0392
  171SAPE  H14Y19344   4.305   6.483   4.979  0.3246 -1.1662 -0.9160
  171SAPE  C31519345   4.287   6.416   5.182 -0.2218  0.3410 -0.7399
  171SAPE  H15X19346   4.299   6.523   5.209  4.0532 -0.1675 -0.0465
  171SAPE  H15Y19347   4.381   6.366   5.213 -0.6885  1.9642  4.0363
  171SAPE  C31619348   4.173   6.355   5.257 -0.0030  0.0809 -0.0878
  171SAPE  H16X19349   4.194   6.246   5.266 -2.8500 -0.5253  0.0748
  171SAPE  H16Y19350   4.078   6.370   5.201  0.6063 -1.5227 -1.6365
  171SAPE  C31719351   4.155   6.412   5.401  0.6259 -0.9231 -0.3042
  171SAPE  H17X19352   4.249   6.405   5.459  0.3926  2.0117  0.5645
  171SAPE  H17Y19353   4.082   6.349   5.458  0.9714 -1.3997 -0.3815
  171SAPE  C31819354   4.099   6.556   5.398 -0.6969  0.3408  0.6041
  171SAPE  H18X19355   4.061   6.584   5.499 -3.6021 -0.1568 -0.2747
  171SAPE  H18Y19356   4.019   6.552   5.321  0.9651  3.3991 -1.5139
  171SAPE  H18Z19357   4.161   6.641   5.360 -0.9156  0.0865 -0.3406
  172SAPE     N19358   5.869   6.271   3.010  0.7195 -0.0555 -0.2710
  172SAPE   HN119359   5.779   6.224   3.032  0.6329 -0.0785 -0.6740
  172SAPE   HN219360   5.872   6.314   2.915  1.6086 -2.0532 -1.1954
  172SAPE   HN319361   5.941   6.196   3.014  0.7575  0.0175  1.7739
  172SAPE   C1219362   5.879   6.374   3.119 -0.0468  0.4837  0.1728
  172SAPE  H12A19363   5.964   6.441   3.093 -0.8761  1.1167 -0.9792
  172SAPE  H12B19364   5.895   6.309   3.207 -0.2541 -1.1326 -0.9448
  172SAPE   C1119365   5.763   6.466   3.138  0.2438 -0.2700  0.0494
  172SAPE  H11A19366   5.772   6.528   3.230  2.8023  3.8824 -2.7017
  172SAPE  H11B19367   5.669   6.410   3.157 -1.4712  2.2000 -0.7450
  172SAPE     P19368   5.608   6.627   2.998  0.1170 -0.0927  0.0052
  172SAPE   O1319369   5.634   6.754   2.930  0.4614 -0.3253  0.7805
  172SAPE   O1419370   5.526   6.532   2.914  0.0768 -0.6031  0.2887
  172SAPE   O1219371   5.745   6.559   3.028 -0.1936  0.1675  0.1356
  172SAPE   O1119372   5.544   6.664   3.139 -0.2888 -0.1656  0.0358
  172SAPE    C119373   5.409   6.695   3.169  0.2473  0.0714  0.3843
  172SAPE    HA19374   5.357   6.760   3.096 -1.2838  0.2546  1.5853
  172SAPE    HB19375   5.343   6.607   3.182  0.1729  0.4782  3.7722
  172SAPE    C219376   5.383   6.779   3.299  0.1356  0.2018  0.1974
  172SAPE    HS19377   5.280   6.821   3.298 -0.9502 -2.2171 -1.8181
  172SAPE   O2119378   5.493   6.866   3.310 -0.2343 -0.7010 -0.7239
  172SAPE   C2119379   5.469   6.988   3.255  0.4086 -1.3158  0.6920
  172SAPE   O2219380   5.363   7.031   3.216 -0.6323  0.1980 -0.0336
  172SAPE   C2219381   5.592   7.074   3.245  0.5105  0.2224 -0.3781
  172SAPE   H2R19382   5.674   7.002   3.263  1.3505  1.6216  1.8674
  172SAPE   H2S19383   5.586   7.109   3.140  0.7431 -1.0297 -0.8265
  172SAPE    C319384   5.387   6.686   3.418  0.0318  0.3366  0.9143
  172SAPE    HX19385   5.481   6.628   3.414  0.6246  1.2413  1.3598
  172SAPE    HY19386   5.293   6.627   3.416  1.0380 -1.2993 -1.0915
  172SAPE   O3119387   5.385   6.762   3.543 -0.5450  0.4785  0.5888
  172SAPE   C3119388   5.493   6.769   3.619 -0.1137 -0.6792  0.2560
  172SAPE   O3219389   5.604   6.728   3.583 -0.9064  0.0881 -0.5672
  172SAPE   C3219390   5.458   6.824   3.760 -0.4091  0.5030  0.1461
  172SAPE   H2X19391   5.380   6.761   3.809  1.0442 -0.4724  1.2890
  172SAPE   H2Y19392   5.421   6.928   3.749  0.6236  0.8430 -0.2240
  172SAPE   C2319393   5.598   7.190   3.343 -0.8472  0.1081 -0.0767
  172SAPE   H3R19394   5.510   7.255   3.324 -0.6580  0.7679  1.1895
  172SAPE   H3S19395   5.687   7.254   3.325 -1.2942  0.7919  0.0848
  172SAPE   C2419396   5.586   7.148   3.486 -0.7568  0.3120  0.4551
  172SAPE   H4R19397   5.494   7.086   3.489 -1.2878  0.8475 -2.2123
  172SAPE   H4S19398   5.569   7.243   3.541 -0.4613 -0.2028  1.4651
  172SAPE   C2519399   5.705   7.082   3.547  0.5097 -0.5546 -0.0868
  172SAPE   H5R19400   5.757   7.007   3.485  0.3215  0.4811 -1.5389
  172SAPE   C2619401   5.768   7.114   3.660 -1.1570 -0.1092 -0.2585
  172SAPE   H6R19402   5.857   7.058   3.692 -1.4181 -0.1089  0.4915
  172SAPE   C2719403   5.717   7.224   3.752  0.5212  0.3597 -0.0553
  172SAPE   H7R19404   5.774   7.216   3.847 -1.3325  0.9829  1.1565
  172SAPE   H7S19405   5.609   7.213   3.776  0.4528  0.9339 -0.0759
  172SAPE   C2819406   5.737   7.358   3.689 -0.4312  0.0979 -0.2928
  172SAPE   H8R19407   5.746   7.360   3.579  0.8361  1.6305 -0.1970
  172SAPE   C2919408   5.768   7.476   3.745  0.1405 -0.6433 -0.3746
  172SAPE   H9R19409   5.796   7.564   3.686 -0.8934 -0.0832 -0.0368
  172SAPE  C21019410   5.785   7.506   3.898  0.4461 -0.0689 -0.1409
  172SAPE  H10R19411   5.887   7.522   3.937  0.4839  1.2091 -0.7464
  172SAPE  H10S19412   5.743   7.417   3.951  0.3751  0.9996  1.6533
  172SAPE  C21119413   5.701   7.623   3.939  0.5780 -0.1245 -0.0476
  172SAPE  H11R19414   5.688   7.702   3.864  0.0735 -0.4045 -0.2620
  172SAPE  C21219415   5.644   7.639   4.060  0.0284  0.1066 -0.1528
  172SAPE  H12R19416   5.598   7.735   4.084 -0.1738  0.1835 -0.8332
  172SAPE  C21319417   5.671   7.546   4.180 -0.3935 -0.4444  0.0272
  172SAPE  H13R19418   5.781   7.530   4.188 -0.2524 -0.1304 -1.0816
  172SAPE  H13S19419   5.629   7.448   4.152  0.2413 -0.3007 -1.5482
  172SAPE  C21419420   5.610   7.599   4.307 -0.0803 -0.0924 -0.1173
  172SAPE  H14R19421   5.537   7.680   4.297  0.6252  0.3952 -1.6584
  172SAPE  C21519422   5.641   7.557   4.436  0.2453 -0.2438  0.4274
  172SAPE  H15R19423   5.574   7.583   4.519  0.1612  0.3928  0.1665
  172SAPE  C21619424   5.744   7.453   4.472  0.3126  0.5428 -0.0442
  172SAPE  H16R19425   5.838   7.484   4.421 -0.6481  0.6573 -1.8515
  172SAPE  H16S19426   5.732   7.352   4.428 -0.4345 -0.0199  1.3969
  172SAPE  C21719427   5.762   7.442   4.627 -0.2346 -0.6827  0.6692
  172SAPE  H17R19428   5.667   7.405   4.670 -1.6403  2.3950  0.4689
  172SAPE  H17S19429   5.780   7.547   4.658 -0.9557 -1.1663  2.9055
  172SAPE  C21819430   5.878   7.359   4.684 -0.5633 -0.3846 -0.9355
  172SAPE  H18R19431   5.976   7.396   4.647 -0.8282  1.4942  0.1080
  172SAPE  H18S19432   5.867   7.251   4.660 -4.0310 -0.3795 -0.0166
  172SAPE  C21919433   5.876   7.364   4.835 -0.4298  0.5697 -0.1835
  172SAPE  H19R19434   5.792   7.301   4.871 -0.5621  1.2597  0.7756
  172SAPE  H19S19435   5.876   7.468   4.875 -0.4421  0.1245  1.0128
  172SAPE  C22019436   6.000   7.303   4.900 -0.3255 -0.2933  0.4223
  172SAPE  H20R19437   5.988   7.324   5.008  0.4565 -1.3444  0.7383
  172SAPE  H20S19438   6.099   7.350   4.882  0.9750 -3.3231 -1.0399
  172SAPE  H20T19439   6.002   7.193   4.883 -1.6089 -0.3008  0.2152
  172SAPE   C3319440   5.577   6.834   3.865 -0.1211 -0.7810 -0.1254
  172SAPE   H3X19441   5.660   6.876   3.806  0.3786  0.7588  1.5899
  172SAPE   H3Y19442   5.583   6.728   3.900 -0.4282 -1.3260 -1.6347
  172SAPE   C3419443   5.540   6.927   3.984 -0.2240 -0.4414  0.5312
  172SAPE   H4X19444   5.450   6.887   4.035  1.5491 -3.0056  1.8543
  172SAPE   H4Y19445   5.512   7.029   3.948  1.2386  0.9651  3.0835
  172SAPE   C3519446   5.664   6.937   4.068 -0.0998 -0.4717 -0.2130
  172SAPE   H5X19447   5.745   6.990   4.012 -1.2229  0.9186 -0.5808
  172SAPE   H5Y19448   5.692   6.831   4.086 -1.2726 -0.7682 -0.0737
  172SAPE   C3619449   5.619   7.012   4.195  0.4507 -0.4589  0.2537
  172SAPE   H6X19450   5.516   6.977   4.219 -1.3327  2.7859 -1.9849
  172SAPE   H6Y19451   5.614   7.122   4.181  0.7196  0.2052  4.1432
  172SAPE   C3719452   5.711   6.985   4.318 -0.1404 -0.1245  0.2845
  172SAPE   H7X19453   5.810   7.034   4.325 -0.8664  1.3238  1.0099
  172SAPE   H7Y19454   5.728   6.875   4.314 -1.0679 -0.2445 -0.9804
  172SAPE   C3819455   5.637   7.025   4.453  0.2007  0.1002 -0.3159
  172SAPE   H8X19456   5.550   6.960   4.476  1.6822 -1.4376  1.3100
  172SAPE   H8Y19457   5.616   7.133   4.438 -1.7593 -0.6178 -3.6093
  172SAPE   C3919458   5.735   6.999   4.574 -0.2000 -0.9206  0.2818
  172SAPE   H9X19459   5.828   7.060   4.567 -1.5563  1.2149 -0.1607
  172SAPE   H9Y19460   5.761   6.891   4.576  0.4290 -0.8200 -1.3657
  172SAPE  C31019461   5.667   7.039   4.707 -0.2084 -1.0197 -0.1795
  172SAPE  H10X19462   5.560   7.012   4.706 -0.7073  0.7180  1.1955
  172SAPE  H10Y19463   5.669   7.150   4.716 -2.1004 -1.0051  0.3664
  172SAPE  C31119464   5.734   6.984   4.834 -0.4126  0.1540 -0.5619
  172SAPE  H11X19465   5.844   7.004   4.830 -0.3575 -0.0044  0.1173
  172SAPE  H11Y19466   5.734   6.873   4.831  3.7781 -0.0301 -0.2153
  172SAPE  C31219467   5.693   7.020   4.984 -0.1645 -0.2112 -0.0147
  172SAPE  H12X19468   5.665   7.128   4.981  1.7216  0.3221  0.2834
  172SAPE  H12Y19469   5.785   7.009   5.045 -0.3013  0.5371  0.3397
  172SAPE  C31319470   5.577   6.944   5.032  0.2857  0.8855 -0.0825
  172SAPE  H13X19471   5.585   6.835   5.016 -1.3115  0.9314 -1.5236
  172SAPE  H13Y19472   5.485   6.967   4.973  0.0598 -0.7988 -0.4317
  172SAPE  C31419473   5.543   6.974   5.179  0.7716  0.0276  0.0363
  172SAPE  H14X19474   5.539   7.084   5.197 -0.8575 -0.2590  1.8968
  172SAPE  H14Y19475   5.625   6.943   5.247  0.0997  0.7166  1.1997
  172SAPE  C31519476   5.401   6.928   5.231  0.1276  0.2267  0.0483
  172SAPE  H15X19477   5.427   6.820   5.230  0.4344  0.2498 -2.7594
  172SAPE  H15Y19478   5.323   6.948   5.154  0.4592  1.9108  0.1053
  172SAPE  C31619479   5.349   6.954   5.373  0.5910  0.0901 -0.0143
  172SAPE  H16X19480   5.309   7.057   5.365  0.7287  0.2001  0.6262
  172SAPE  H16Y19481   5.429   6.932   5.447 -1.9982 -1.6373  2.5092
  172SAPE  C31719482   5.228   6.866   5.405  0.0191 -0.1493  0.0506
  172SAPE  H17X19483   5.198   6.899   5.507 -0.0183  0.8100 -0.2565
  172SAPE  H17Y19484   5.257   6.760   5.420  0.0320 -0.2658 -0.7291
  172SAPE  C31819485   5.108   6.876   5.308  0.8250  0.4323  0.0539
  172SAPE  H18X19486   5.082   6.978   5.274 -4.1967 -0.4591  0.4435
  172SAPE  H18Y19487   5.019   6.822   5.348 -0.2091  0.3660 -2.2301
  172SAPE  H18Z19488   5.127   6.818   5.216 -1.2401  0.2596 -0.2995
  173SLPC     N19489   3.674   2.925   8.123 -0.3286  0.4040  0.0807
  173SLPC   C1319490   3.773   2.972   8.228  0.2014 -0.6557 -0.4888
  173SLPC  H13A19491   3.747   2.927   8.323 -0.5200  1.2905  0.2830
  173SLPC  H13B19492   3.875   2.947   8.203  1.2610 -0.1033  2.7754
  173SLPC  H13C19493   3.769   3.078   8.244 -0.0567 -0.7655  0.1866
  173SLPC   C1419494   3.537   2.957   8.168  0.3187  0.8945  0.4050
  173SLPC  H14A19495   3.459   2.929   8.099 -0.6794 -0.1252  1.8834
  173SLPC  H14B19496   3.515   2.899   8.256 -0.4738  0.3520 -0.1460
  173SLPC  H14C19497   3.510   3.059   8.192  1.6279  1.1344  0.9518
  173SLPC   C1519498   3.699   2.779   8.111  0.5225 -0.0485 -0.0934
  173SLPC  H15A19499   3.639   2.731   8.035  0.0408 -0.9401  0.8325
  173SLPC  H15B19500   3.804   2.770   8.088  0.5490  3.1400 -1.8279
  173SLPC  H15C19501   3.677   2.733   8.206 -2.3764 -1.7988 -1.4713
  173SLPC   C1219502   3.699   2.997   7.999 -0.0018  0.3171  0.7753
  173SLPC  H12A19503   3.658   3.097   7.995 -1.3888 -0.2597 -1.9466
  173SLPC  H12B19504   3.655   2.949   7.913  1.8811  0.9244 -0.5696
  173SLPC   C1119505   3.854   2.992   7.948 -0.5173 -0.0677 -0.9490
  173SLPC  H11A19506   3.917   3.032   8.030 -0.8472  0.8202 -1.1275
  173SLPC  H11B19507   3.864   3.068   7.868 -0.9964  0.3108 -0.6485
  173SLPC     P19508   3.894   2.795   7.776  0.4337  0.3582  0.2863
  173SLPC   O1319509   3.919   2.652   7.788 -0.1096  0.1610 -0.3623
  173SLPC   O1419510   3.763   2.837   7.714 -0.2397 -0.1924  0.5485
  173SLPC   O1219511   3.910   2.862   7.919 -0.0693  0.5462  0.2173
  173SLPC   O1119512   4.012   2.857   7.691 -0.2365 -0.1922 -0.3499
  173SLPC    C119513   3.998   2.985   7.632  0.2660  0.1139 -0.3082
  173SLPC    HA19514   3.906   3.040   7.663  0.1337 -0.7498  0.8919
  173SLPC    HB19515   4.072   3.052   7.680 -1.9609  1.0261  2.1434
  173SLPC    C219516   4.015   2.995   7.478  0.2312  0.5115  0.0451
  173SLPC    HS19517   4.114   2.947   7.464  1.9293  3.8058 -0.2773
  173SLPC   O2119518   4.032   3.134   7.441  0.1676 -0.3832 -0.7897
  173SLPC   C2119519   4.115   3.150   7.342 -0.2873 -0.5507  0.1070
  173SLPC   O2219520   4.170   3.066   7.273  0.1581  0.5500  0.3803
  173SLPC   C2219521   4.128   3.299   7.323  0.8659  0.6775 -0.1823
  173SLPC   H2R19522   4.025   3.339   7.329  0.3851 -0.5831  0.3317
  173SLPC   H2S19523   4.197   3.339   7.401  3.2952 -2.0179 -0.7674
  173SLPC    C319524   3.902   2.923   7.401  0.1612  0.8222  0.4490
  173SLPC    HX19525   3.807   2.960   7.444  0.6821  1.9271  0.6795
  173SLPC    HY19526   3.898   2.817   7.434  0.4763 -0.3397 -2.8742
  173SLPC   O3119527   3.920   2.932   7.250  0.0228 -0.5782 -0.3320
  173SLPC   C3119528   3.816   2.968   7.184 -0.7257 -0.5597 -0.7108
  173SLPC   O3219529   3.702   2.980   7.231  0.4825 -0.2209  0.1148
  173SLPC   C3219530   3.852   2.965   7.034 -0.2465  0.3506  0.0191
  173SLPC   H2X19531   3.860   2.855   7.019  0.0973  0.4238 -0.3516
  173SLPC   H2Y19532   3.957   3.001   7.022  0.1106  0.5731  2.9188
  173SLPC   C2319533   4.195   3.340   7.200  0.2294  0.1102  0.9840
  173SLPC   H3R19534   4.293   3.288   7.190 -0.5164 -1.6373  2.1695
  173SLPC   H3S19535   4.209   3.450   7.201  0.9198  0.0279  1.4297
  173SLPC   C2419536   4.110   3.304   7.079 -0.8975 -0.1077  0.1810
  173SLPC   H4R19537   4.011   3.353   7.086 -0.7855  0.3380 -1.0707
  173SLPC   H4S19538   4.096   3.194   7.071 -0.2567 -0.0929 -1.7990
  173SLPC   C2519539   4.168   3.358   6.951  0.6805 -0.4979  0.6887
  173SLPC   H5R19540   4.270   3.328   6.917  0.1346 -1.4716 -0.1469
  173SLPC   H5S19541   4.185   3.466   6.968  0.0030 -0.2765  0.0109
  173SLPC   C2619542   4.074   3.340   6.830 -0.1776 -0.5082  0.0108
  173SLPC   H6R19543   3.971   3.373   6.857 -0.0899 -0.6280  0.5102
  173SLPC   H6S19544   4.063   3.231   6.812 -0.3705  0.0177 -3.9770
  173SLPC   C2719545   4.122   3.405   6.706  0.7807 -0.0532 -0.3175
  173SLPC   H7R19546   4.224   3.372   6.677  1.4486  2.0253 -0.5164
  173SLPC   H7S19547   4.144   3.509   6.739  1.0370 -0.1436 -0.2014
  173SLPC   C2819548   4.024   3.388   6.589 -0.4549 -0.4774  0.6265
  173SLPC   H8R19549   4.067   3.457   6.514  1.3357 -2.1292  0.0459
  173SLPC   H8S19550   3.925   3.432   6.615 -1.5258 -0.2307 -3.2769
  173SLPC   C2919551   4.012   3.245   6.544 -0.5736  0.0233 -0.1221
  173SLPC   H9R19552   4.017   3.170   6.625 -4.0570  0.8730  1.0688
  173SLPC  C21019553   4.023   3.200   6.418 -0.2038  0.0632 -0.6666
  173SLPC  H10R19554   4.006   3.093   6.398  0.2451 -0.5046  1.7459
  173SLPC  C21119555   4.030   3.279   6.287 -0.3111  0.4055  0.5000
  173SLPC  H11R19556   4.115   3.232   6.232 -0.6077  0.5524 -0.0850
  173SLPC  H11S19557   4.061   3.385   6.293 -0.4346  0.4224  0.8672
  173SLPC  C21219558   3.911   3.244   6.204  0.2058  0.6963 -0.0629
  173SLPC  H12R19559   3.812   3.225   6.246  0.8770 -0.7965  0.9391
  173SLPC  C21319560   3.901   3.261   6.072 -0.6703 -0.8550 -0.1649
  173SLPC  H13R19561   3.809   3.243   6.015  0.1998 -2.6670 -1.0697
  173SLPC  C21419562   4.016   3.299   5.982  0.8864 -0.2064  0.6064
  173SLPC  H14R19563   4.040   3.216   5.912  1.5348  0.0087  0.5599
  173SLPC  H14S19564   4.116   3.325   6.024  1.9372 -2.7388 -0.1046
  173SLPC  C21519565   3.982   3.428   5.902  0.0711 -0.5632 -0.2101
  173SLPC  H15R19566   3.975   3.518   5.968  0.0955  0.3451 -1.4106
  173SLPC  H15S19567   3.879   3.415   5.862  0.7795 -3.1981 -1.3957
  173SLPC  C21619568   4.084   3.440   5.786  0.1822 -0.2278 -0.2645
  173SLPC  H16R19569   4.048   3.365   5.712 -4.4291  1.4281  0.0251
  173SLPC  H16S19570   4.188   3.415   5.816  0.8541  1.8240 -0.7343
  173SLPC  C21719571   4.080   3.575   5.720 -0.3648 -0.1032  0.6007
  173SLPC  H17R19572   4.116   3.645   5.800 -0.7351  1.8563 -0.8652
  173SLPC  H17S19573   3.972   3.596   5.710 -0.5607 -0.0880  2.4400
  173SLPC  C21819574   4.156   3.601   5.596  0.7938  0.8251 -0.3183
  173SLPC  H18R19575   4.265   3.617   5.611  0.6075  2.4770 -0.5673
  173SLPC  H18S19576   4.115   3.698   5.560  1.9399  1.3326 -0.3149
  173SLPC  H18T19577   4.142   3.522   5.519  0.4261  0.7571 -0.1814
  173SLPC   C3319578   3.738   3.008   6.930 -0.0637 -0.2289 -0.3344
  173SLPC   H3X19579   3.737   3.119   6.941  2.7350 -0.2935  1.6609
  173SLPC   H3Y19580   3.635   2.969   6.946 -0.2282 -0.5650 -2.0050
  173SLPC   C3419581   3.767   3.000   6.776 -0.6326 -0.0447  0.1846
  173SLPC   H4X19582   3.875   3.027   6.771 -0.4179 -0.4970  1.7669
  173SLPC   H4Y19583   3.698   3.070   6.725 -1.5579 -0.7559  0.4406
  173SLPC   C3519584   3.755   2.849   6.729  1.1043 -0.0658  0.0199
  173SLPC   H5X19585   3.669   2.801   6.779  0.4509 -1.2681 -2.1233
  173SLPC   H5Y19586   3.853   2.806   6.758  2.1048  0.7023 -1.9966
  173SLPC   C3619587   3.730   2.842   6.572  0.3743  0.5593 -0.3669
  173SLPC   H6X19588   3.633   2.889   6.545  0.1793  2.5757  3.2875
  173SLPC   H6Y19589   3.712   2.733   6.561 -0.7575  0.8056 -1.2261
  173SLPC   C3719590   3.837   2.886   6.473 -0.0725 -0.9151  0.6583
  173SLPC   H7X19591   3.933   2.834   6.494  1.1598  1.8577  2.4735
  173SLPC   H7Y19592   3.859   2.994   6.481  0.8653 -1.1025  0.6551
  173SLPC   C3819593   3.780   2.856   6.334  0.3610  0.0363  0.3129
  173SLPC   H8X19594   3.699   2.925   6.303 -0.1444 -1.2090 -1.2715
  173SLPC   H8Y19595   3.738   2.753   6.332 -1.2407  0.6354  1.1707
  173SLPC   C3919596   3.898   2.847   6.231 -0.2512  0.0392 -0.3977
  173SLPC   H9X19597   3.967   2.774   6.278 -1.4373  0.9029  2.9973
  173SLPC   H9Y19598   3.965   2.935   6.224  0.6742 -0.6721 -0.6572
  173SLPC  C31019599   3.845   2.797   6.095  0.6927  0.0970  0.1316
  173SLPC  H10X19600   3.916   2.803   6.009  1.5359  0.7055  0.8512
  173SLPC  H10Y19601   3.757   2.856   6.062 -0.1699 -1.8359 -1.2585
  173SLPC  C31119602   3.802   2.648   6.090  0.4225  0.5525  0.0025
  173SLPC  H11X19603   3.727   2.636   6.170 -1.2991  1.0560 -1.4694
  173SLPC  H11Y19604   3.893   2.586   6.105  1.4255  1.9429 -0.1528
  173SLPC  C31219605   3.730   2.590   5.960  0.0486 -0.1579 -0.9888
  173SLPC  H12X19606   3.665   2.513   6.006 -0.6506  2.2509  2.4600
  173SLPC  H12Y19607   3.804   2.553   5.886  0.4132  0.6811 -1.0541
  173SLPC  C31319608   3.658   2.685   5.872 -0.1366  0.6709 -0.2886
  173SLPC  H13X19609   3.725   2.758   5.823 -0.0934  1.1186  0.4246
  173SLPC  H13Y19610   3.574   2.737   5.923  0.2153 -0.0072  1.0066
  173SLPC  C31419611   3.601   2.592   5.755  0.0395 -0.5700  0.1081
  173SLPC  H14X19612   3.540   2.510   5.798 -1.0827 -0.2487 -0.8466
  173SLPC  H14Y19613   3.688   2.538   5.713  4.0137  4.6668  0.5550
  173SLPC  C31519614   3.514   2.664   5.655  0.1733 -0.4194  0.4435
  173SLPC  H15X19615   3.435   2.716   5.714 -2.4371 -0.8483 -2.3741
  173SLPC  H15Y19616   3.467   2.584   5.594 -0.8175  0.1737  0.3979
  173SLPC  C31619617   3.586   2.754   5.558 -0.3746 -0.6502  0.4296
  173SLPC  H16X19618   3.674   2.697   5.522  1.6329  0.5518  3.0796
  173SLPC  H16Y19619   3.643   2.835   5.608 -1.3132  0.0390  0.4073
  173SLPC  C31719620   3.495   2.810   5.446  0.1088  0.3993 -0.6728
  173SLPC  H17X19621   3.413   2.868   5.493 -0.6400 -0.2202 -1.1920
  173SLPC  H17Y19622   3.448   2.726   5.391  3.2947 -3.9264  2.5032
  173SLPC  C31819623   3.566   2.903   5.346  0.9944 -0.2659  0.0591
  173SLPC  H18X19624   3.582   3.005   5.388  2.3228 -1.1030  1.6851
  173SLPC  H18Y19625   3.490   2.913   5.265 -0.0302  1.1849  1.1423
  173SLPC  H18Z19626   3.658   2.859   5.302  1.0505  1.6447 -1.8841
  174SLPC     N19627   1.308   2.959   7.834 -0.0094 -0.0541  0.0399
  174SLPC   C1319628   1.453   2.982   7.841 -0.5178  0.5248  0.9417
  174SLPC  H13A19629   1.501   2.909   7.778 -3.1507  0.3171 -1.0163
  174SLPC  H13B19630   1.461   3.078   7.792 -1.1201  0.1403  0.0688
  174SLPC  H13C19631   1.492   2.981   7.942  0.2403 -1.5406  0.6792
  174SLPC   C1419632   1.239   3.084   7.888  0.2195  0.2383 -0.2631
  174SLPC  H14A19633   1.265   3.178   7.841  0.7314  0.9631  1.4063
  174SLPC  H14B19634   1.131   3.087   7.887  0.1924  0.8674  1.2109
  174SLPC  H14C19635   1.264   3.097   7.992  1.0277 -0.9671 -0.2913
  174SLPC   C1519636   1.292   2.844   7.932 -0.0862  0.6697  0.1321
  174SLPC  H15A19637   1.331   2.849   8.032 -1.5376 -1.7591  0.9109
  174SLPC  H15B19638   1.186   2.845   7.950 -0.0872  0.2603  0.1750
  174SLPC  H15C19639   1.310   2.746   7.890 -2.3573  0.7330 -1.1789
  174SLPC   C1219640   1.266   2.942   7.691 -0.0899 -0.1647  0.5772
  174SLPC  H12A19641   1.160   2.921   7.679 -0.2830  0.8834  0.3353
  174SLPC  H12B19642   1.304   2.848   7.654 -1.8428 -0.1984 -1.3509
  174SLPC   C1119643   1.301   3.052   7.589  0.1864 -0.1255 -0.3143
  174SLPC  H11A19644   1.275   3.021   7.486  0.1197  1.9515 -0.9570
  174SLPC  H11B19645   1.411   3.060   7.577  0.1887 -0.4420 -0.5279
  174SLPC     P19646   1.107   3.233   7.546  0.4905  0.1895 -0.0274
  174SLPC   O1319647   1.024   3.120   7.501 -0.3496 -0.3302 -0.2368
  174SLPC   O1419648   1.047   3.332   7.643 -0.7790  0.0229 -0.2093
  174SLPC   O1219649   1.250   3.184   7.600  0.0866  0.7951 -0.7949
  174SLPC   O1119650   1.145   3.301   7.407 -0.8793 -0.0698 -0.1215
  174SLPC    C119651   1.263   3.393   7.397 -0.5097 -0.8305  0.1025
  174SLPC    HA19652   1.297   3.442   7.491  0.4995 -0.9964 -0.1652
  174SLPC    HB19653   1.341   3.327   7.354 -1.6066 -0.4121 -2.8234
  174SLPC    C219654   1.248   3.509   7.289  0.1362 -0.5891  0.4412
  174SLPC    HS19655   1.185   3.589   7.333  1.6372  0.7376  0.2518
  174SLPC   O2119656   1.191   3.460   7.161  0.1984  0.3865  0.6661
  174SLPC   C2119657   1.061   3.449   7.152  0.2284  0.4141 -0.8501
  174SLPC   O2219658   0.979   3.487   7.235  0.1758 -0.5082 -0.1182
  174SLPC   C2219659   1.034   3.389   7.012 -1.0597 -0.6424 -0.0982
  174SLPC   H2R19660   1.030   3.477   6.945 -1.1101 -2.2974 -2.3989
  174SLPC   H2S19661   1.114   3.320   6.978 -0.7478  0.5159 -1.8272
  174SLPC    C319662   1.392   3.576   7.261 -0.4696  0.0236  0.4448
  174SLPC    HX19663   1.454   3.485   7.241  1.8499  1.7734 -0.9328
  174SLPC    HY19664   1.424   3.633   7.351 -0.2374 -1.9376  1.6781
  174SLPC   O3119665   1.388   3.652   7.139  0.0739 -0.1866 -0.1489
  174SLPC   C3119666   1.344   3.775   7.146  0.2782 -0.7777 -0.1626
  174SLPC   O3219667   1.306   3.841   7.241 -0.1008 -0.1057  0.3408
  174SLPC   C3219668   1.363   3.847   7.010 -0.3905  0.3699  0.1352
  174SLPC   H2X19669   1.473   3.862   7.003 -0.5241  0.9941 -0.7490
  174SLPC   H2Y19670   1.324   3.951   7.019 -0.6889  0.3037 -0.3638
  174SLPC   C2319671   0.899   3.321   7.011  0.2497 -0.1126  0.8970
  174SLPC   H3R19672   0.817   3.396   7.004  0.3099 -0.1130  0.1383
  174SLPC   H3S19673   0.894   3.263   7.106 -2.2861 -0.3850  0.6822
  174SLPC   C2419674   0.874   3.225   6.892 -0.4285 -0.1663  0.6776
  174SLPC   H4R19675   0.950   3.145   6.892 -1.1056 -0.8152  0.6996
  174SLPC   H4S19676   0.880   3.263   6.788 -2.2783 -0.1383  0.5510
  174SLPC   C2519677   0.741   3.148   6.914 -1.1040 -0.4130 -0.1883
  174SLPC   H5R19678   0.667   3.230   6.929  0.1700  1.1071 -1.7868
  174SLPC   H5S19679   0.734   3.095   7.011 -0.1867 -1.1758 -0.5244
  174SLPC   C2619680   0.697   3.058   6.794 -0.2089  0.2245  0.1022
  174SLPC   H6R19681   0.787   2.997   6.772 -0.0425 -0.4274  2.2951
  174SLPC   H6S19682   0.663   3.117   6.707 -0.8360 -0.4356 -0.1144
  174SLPC   C2719683   0.574   2.971   6.825  0.0484 -0.7537 -0.2631
  174SLPC   H7R19684   0.514   3.040   6.888 -0.6575 -1.4056 -0.2050
  174SLPC   H7S19685   0.595   2.880   6.885 -0.0404 -2.1912 -2.2968
  174SLPC   C2819686   0.478   2.936   6.711  0.4187 -0.3679 -0.2365
  174SLPC   H8R19687   0.455   3.035   6.666  2.7581  0.5442  0.4120
  174SLPC   H8S19688   0.384   2.903   6.758  0.4727 -0.7749 -0.4081
  174SLPC   C2919689   0.535   2.836   6.612 -0.0163 -0.6040 -0.0314
  174SLPC   H9R19690   0.571   2.741   6.653  0.8380 -0.2174  0.1384
  174SLPC  C21019691   0.545   2.857   6.475 -0.4257 -0.4680  0.0316
  174SLPC  H10R19692   0.582   2.770   6.418 -0.4279  0.7050 -1.8346
  174SLPC  C21119693   0.516   2.976   6.381  0.3034 -0.3321 -0.0984
  174SLPC  H11R19694   0.417   3.010   6.418  1.1983  0.5752  1.5882
  174SLPC  H11S19695   0.509   2.953   6.273 -0.1271 -0.6205 -0.0093
  174SLPC  C21219696   0.610   3.095   6.399  0.3197  0.6564 -0.0221
  174SLPC  H12R19697   0.680   3.093   6.484  3.6104  1.7176 -2.5198
  174SLPC  C21319698   0.623   3.198   6.315 -0.2490  0.3261 -0.4194
  174SLPC  H13R19699   0.687   3.282   6.345 -2.4206  1.1746  2.3291
  174SLPC  C21419700   0.543   3.232   6.190  0.3120  0.1677  0.0947
  174SLPC  H14R19701   0.490   3.328   6.203 -1.8979 -0.7409 -1.5746
  174SLPC  H14S19702   0.464   3.155   6.179  1.0740 -0.5773 -0.2915
  174SLPC  C21519703   0.633   3.236   6.066 -0.3521 -0.2452  0.2825
  174SLPC  H15R19704   0.698   3.147   6.054 -0.2146 -0.4206  2.0631
  174SLPC  H15S19705   0.703   3.323   6.071 -0.0223 -0.5087  0.3210
  174SLPC  C21619706   0.562   3.250   5.942 -0.0892  0.5218  0.5680
  174SLPC  H16R19707   0.476   3.321   5.953 -1.0455 -0.5884  0.4624
  174SLPC  H16S19708   0.506   3.162   5.902 -2.0488  1.1220  1.8223
  174SLPC  C21719709   0.641   3.289   5.821 -0.6577  0.3064 -0.4424
  174SLPC  H17R19710   0.742   3.243   5.832  0.4358  3.0238  2.4540
  174SLPC  H17S19711   0.675   3.395   5.828  0.8435 -0.0029 -2.0425
  174SLPC  C21819712   0.583   3.265   5.685  0.1841 -0.0948  0.2086
  174SLPC  H18R19713   0.504   3.339   5.659  0.3636 -0.5990 -2.0482
  174SLPC  H18S19714   0.550   3.162   5.662 -0.2690  0.3036 -1.0555
  174SLPC  H18T19715   0.676   3.290   5.628  0.0281 -0.0073 -0.0080
  174SLPC   C3319716   1.323   3.774   6.882 -0.3052  0.2981 -0.2694
  174SLPC   H3X19717   1.354   3.668   6.868  1.9827  1.0589 -1.4736
  174SLPC   H3Y19718   1.383   3.828   6.806 -0.7545  2.8165  1.0609
  174SLPC   C3419719   1.174   3.790   6.850 -0.1874  0.9695 -0.5259
  174SLPC   H4X19720   1.131   3.839   6.939  0.0390 -0.8095  0.6157
  174SLPC   H4Y19721   1.121   3.693   6.861  0.7605  0.5378  0.4398
  174SLPC   C3519722   1.141   3.877   6.730  0.0103  0.0543  0.6323
  174SLPC   H5X19723   1.210   3.962   6.751 -0.3989  0.4569  0.3586
  174SLPC   H5Y19724   1.035   3.909   6.728 -0.4139 -1.2770  0.9204
  174SLPC   C3619725   1.174   3.815   6.592  0.1729 -0.1953 -0.8905
  174SLPC   H6X19726   1.120   3.718   6.582 -1.0138  0.2001  1.1218
  174SLPC   H6Y19727   1.284   3.803   6.582  0.8338  3.3014  0.7684
  174SLPC   C3719728   1.144   3.910   6.476  0.4218 -0.7059  0.1084
  174SLPC   H7X19729   1.205   4.002   6.471 -1.5972  0.7312  0.7153
  174SLPC   H7Y19730   1.038   3.938   6.495  0.1630 -0.0024 -2.0949
  174SLPC   C3819731   1.168   3.851   6.332 -0.0953 -0.0878 -0.5015
  174SLPC   H8X19732   1.072   3.799   6.309 -0.9880  1.3327 -0.1462
  174SLPC   H8Y19733   1.252   3.779   6.336 -1.5922 -1.8934  2.8875
  174SLPC   C3919734   1.202   3.953   6.220  0.3922 -0.0915  0.1092
  174SLPC   H9X19735   1.131   4.038   6.217  0.9401  0.4094 -3.8086
  174SLPC   H9Y19736   1.191   3.918   6.115  2.2458  1.4805 -0.6776
  174SLPC  C31019737   1.337   4.011   6.247 -0.1397 -0.3805  0.9650
  174SLPC  H10X19738   1.408   3.930   6.275  2.2460  1.2576 -0.0242
  174SLPC  H10Y19739   1.327   4.072   6.339  2.7992  0.2105  1.0144
  174SLPC  C31119740   1.388   4.107   6.133  0.6154 -0.0074  0.1887
  174SLPC  H11X19741   1.492   4.133   6.161  1.1089 -1.5633 -0.0883
  174SLPC  H11Y19742   1.318   4.192   6.123 -0.5428 -0.9970 -0.3630
  174SLPC  C31219743   1.415   4.032   5.998  0.6620 -0.1063 -0.6766
  174SLPC  H12X19744   1.315   4.023   5.949  0.4287 -3.3095  0.1921
  174SLPC  H12Y19745   1.439   3.926   6.020 -0.7141 -0.1620  0.6898
  174SLPC  C31319746   1.516   4.094   5.906  0.4229  0.0426  0.5258
  174SLPC  H13X19747   1.523   4.027   5.817 -0.2013  0.9861 -0.2437
  174SLPC  H13Y19748   1.616   4.088   5.955  0.6571 -1.9328 -0.1022
  174SLPC  C31419749   1.486   4.236   5.869 -0.1085 -0.3200  0.2973
  174SLPC  H14X19750   1.519   4.309   5.946  1.3758  0.0451 -0.6487
  174SLPC  H14Y19751   1.381   4.253   5.839  0.4227 -1.0962 -2.2356
  174SLPC  C31519752   1.572   4.268   5.744  0.6221 -0.4549  0.1534
  174SLPC  H15X19753   1.543   4.193   5.666  0.8408 -1.3094  0.8779
  174SLPC  H15Y19754   1.679   4.241   5.758  1.6379  1.5793 -2.6342
  174SLPC  C31619755   1.562   4.412   5.690  0.3024 -0.2461  0.1350
  174SLPC  H16X19756   1.457   4.447   5.675  0.3285 -0.8264 -1.7031
  174SLPC  H16Y19757   1.608   4.422   5.590  1.3303 -2.7773  0.2820
  174SLPC  C31719758   1.637   4.521   5.776 -0.4413  0.1806  0.7948
  174SLPC  H17X19759   1.745   4.493   5.776 -1.0028 -2.5114 -1.6210
  174SLPC  H17Y19760   1.596   4.498   5.877 -2.7953  1.4393  0.1964
  174SLPC  C31819761   1.612   4.668   5.747  0.1543 -0.5445 -0.3318
  174SLPC  H18X19762   1.686   4.698   5.669 -1.0682  0.4227 -1.1552
  174SLPC  H18Y19763   1.622   4.743   5.828 -1.6691  0.2578 -0.8060
  174SLPC  H18Z19764   1.509   4.679   5.708  0.4230 -1.9687 -1.5089
  175SLPC     N19765   5.204   6.258   7.910  0.7588  0.1741 -0.3081
  175SLPC   C1319766   5.184   6.114   7.872 -0.1810 -0.0555 -0.1134
  175SLPC  H13A19767   5.144   6.105   7.773  1.1272  1.4302 -0.8237
  175SLPC  H13B19768   5.271   6.052   7.883 -0.3975  0.0117  2.9509
  175SLPC  H13C19769   5.112   6.064   7.935  0.6456 -1.0630  0.0449
  175SLPC   C1419770   5.283   6.326   7.810  0.2390  0.0732  0.1260
  175SLPC  H14A19771   5.387   6.299   7.808 -0.1014 -1.2864  0.3656
  175SLPC  H14B19772   5.239   6.319   7.711 -1.0473 -1.0224  0.7450
  175SLPC  H14C19773   5.287   6.430   7.839 -0.0428  0.2125 -0.3149
  175SLPC   C1519774   5.286   6.263   8.036 -0.5472  0.0001 -0.0650
  175SLPC  H15A19775   5.300   6.363   8.075  0.7777  0.7176 -2.1571
  175SLPC  H15B19776   5.257   6.191   8.110  0.3686 -0.6326 -0.3033
  175SLPC  H15C19777   5.387   6.240   8.006 -0.6558 -0.9821  0.3114
  175SLPC   C1219778   5.070   6.327   7.951 -1.0699  0.1824 -0.1711
  175SLPC  H12A19779   5.033   6.274   8.037  2.7923 -0.1353  1.4741
  175SLPC  H12B19780   5.000   6.318   7.868 -0.8153  0.3114 -0.4005
  175SLPC   C1119781   5.076   6.476   7.972 -0.4786 -0.2147 -0.1046
  175SLPC  H11A19782   5.137   6.498   8.062 -1.1998 -1.5491  0.7514
  175SLPC  H11B19783   4.971   6.505   7.995  0.0397  0.7863  1.0786
  175SLPC     P19784   5.032   6.555   7.730  0.1622  0.1036  0.2575
  175SLPC   O1319785   4.906   6.631   7.758 -0.7772  0.0282  0.7844
  175SLPC   O1419786   5.112   6.618   7.625 -0.2032 -0.0640  0.3986
  175SLPC   O1219787   5.128   6.547   7.861  0.2414  0.1901 -0.1394
  175SLPC   O1119788   4.994   6.410   7.686 -0.7288 -0.4360  0.2535
  175SLPC    C119789   5.047   6.341   7.575 -0.0531  0.3278  0.7758
  175SLPC    HA19790   5.150   6.377   7.556  0.4651 -1.6752 -0.6211
  175SLPC    HB19791   5.049   6.231   7.592 -0.4085  0.1815 -0.0741
  175SLPC    C219792   4.968   6.356   7.440 -0.3801  0.6109 -0.5865
  175SLPC    HS19793   5.000   6.275   7.371  1.3343  2.1473 -1.6707
  175SLPC   O2119794   5.005   6.482   7.375 -0.9165  1.0881  0.0863
  175SLPC   C2119795   5.117   6.474   7.299  0.0307 -0.0686  0.0461
  175SLPC   O2219796   5.186   6.374   7.280 -0.1643  0.3434 -0.2490
  175SLPC   C2219797   5.148   6.607   7.235  0.2895  0.5156  0.4528
  175SLPC   H2R19798   5.164   6.684   7.313  0.3180  1.0287 -0.0555
  175SLPC   H2S19799   5.244   6.586   7.183  0.1415 -0.5833  0.6020
  175SLPC    C319800   4.811   6.348   7.466  0.1023  0.0669 -0.1510
  175SLPC    HX19801   4.781   6.449   7.500 -2.4836 -0.4171 -0.8427
  175SLPC    HY19802   4.783   6.269   7.539 -3.5727  0.9060 -0.4743
  175SLPC   O3119803   4.761   6.311   7.340  0.3443 -0.1602  0.5590
  175SLPC   C3119804   4.629   6.329   7.325  0.0894  0.2398  0.3718
  175SLPC   O3219805   4.558   6.382   7.407  0.7096  0.2442  0.7938
  175SLPC   C3219806   4.589   6.267   7.195  0.5257 -0.1024  0.3244
  175SLPC   H2X19807   4.479   6.282   7.191  0.6014  0.8046  1.1882
  175SLPC   H2Y19808   4.607   6.158   7.187  1.8487  0.2000 -1.5371
  175SLPC   C2319809   5.051   6.650   7.126 -0.5036 -0.5003  0.4884
  175SLPC   H3R19810   5.076   6.757   7.107 -0.2358 -0.7951 -0.9855
  175SLPC   H3S19811   4.945   6.651   7.158 -0.1102  0.5618  1.8711
  175SLPC   C2419812   5.071   6.571   7.003 -0.6060  0.3020  0.5653
  175SLPC   H4R19813   5.050   6.462   7.015  0.7991 -0.1731 -0.9764
  175SLPC   H4S19814   5.176   6.579   6.970 -0.7249 -1.7155 -0.4573
  175SLPC   C2519815   4.982   6.623   6.892  0.3034  0.4097 -0.8757
  175SLPC   H5R19816   4.986   6.734   6.891  1.9376  0.3675 -1.6527
  175SLPC   H5S19817   4.874   6.606   6.912  0.9489 -1.5226  1.4191
  175SLPC   C2619818   5.007   6.546   6.759  0.0652 -0.5193 -0.3501
  175SLPC   H6R19819   4.985   6.437   6.770  0.0913 -0.8088 -2.5832
  175SLPC   H6S19820   5.110   6.565   6.722 -0.8215  0.3013 -2.5916
  175SLPC   C2719821   4.919   6.596   6.638  0.2299  0.2346  0.2476
  175SLPC   H7R19822   4.944   6.702   6.618  2.3293 -0.5129 -1.4028
  175SLPC   H7S19823   4.815   6.584   6.675  0.0844  0.1875 -0.1643
  175SLPC   C2819824   4.932   6.518   6.507  0.0415 -0.1107  0.1507
  175SLPC   H8R19825   4.922   6.409   6.527 -1.4580  0.4473  2.8380
  175SLPC   H8S19826   5.040   6.528   6.480  0.3065 -2.9301 -0.1801
  175SLPC   C2919827   4.842   6.571   6.401  0.1077 -0.7995  0.2363
  175SLPC   H9R19828   4.749   6.613   6.442  1.1308  0.2043  1.5994
  175SLPC  C21019829   4.862   6.579   6.272 -0.0657 -0.1796  0.4021
  175SLPC  H10R19830   4.775   6.616   6.216 -0.0049  0.4481  0.7166
  175SLPC  C21119831   4.990   6.537   6.193  0.2863  0.0311 -0.8086
  175SLPC  H11R19832   4.989   6.430   6.164 -0.4687 -0.3345  0.4898
  175SLPC  H11S19833   5.075   6.537   6.265  0.5612  1.7548 -1.0864
  175SLPC  C21219834   5.017   6.622   6.073 -0.4584 -0.1447  0.6699
  175SLPC  H12R19835   5.031   6.729   6.096 -4.2552  0.3244  1.6563
  175SLPC  C21319836   5.059   6.576   5.952  0.2529  0.1730 -1.1530
  175SLPC  H13R19837   5.071   6.654   5.875  0.1867  0.3890 -0.9449
  175SLPC  C21419838   5.068   6.433   5.896  0.2452 -1.1360 -0.2587
  175SLPC  H14R19839   5.073   6.359   5.978 -0.3393 -0.3296  0.5200
  175SLPC  H14S19840   5.153   6.424   5.824  0.6020  1.1562 -0.2013
  175SLPC  C21519841   4.946   6.377   5.812 -0.3177  0.1828  0.1122
  175SLPC  H15R19842   4.861   6.360   5.883 -0.7628 -2.4300 -0.9372
  175SLPC  H15S19843   4.967   6.277   5.768 -1.5055  0.2521 -0.6609
  175SLPC  C21619844   4.906   6.470   5.702 -0.3374 -0.2304  0.0606
  175SLPC  H16R19845   4.878   6.570   5.743 -1.7630 -1.3885  2.1127
  175SLPC  H16S19846   4.818   6.435   5.644  0.2237  1.7597 -2.1746
  175SLPC  C21719847   5.021   6.488   5.598 -0.1717 -0.0398 -0.1854
  175SLPC  H17R19848   5.045   6.388   5.556 -0.2329 -0.0393 -0.2209
  175SLPC  H17S19849   5.107   6.532   5.652  1.7350 -1.0666 -2.1902
  175SLPC  C21819850   4.989   6.584   5.481  0.6208 -0.0044  0.0731
  175SLPC  H18R19851   5.080   6.603   5.419  1.8421 -1.3383  1.3826
  175SLPC  H18S19852   4.950   6.675   5.531 -0.1621 -0.6539  0.6630
  175SLPC  H18T19853   4.905   6.541   5.423 -0.0961 -0.0618  1.1333
  175SLPC   C3319854   4.663   6.328   7.073 -0.2524  0.2892 -0.0482
  175SLPC   H3X19855   4.765   6.284   7.066 -0.2669  0.0974  0.8404
  175SLPC   H3Y19856   4.669   6.439   7.075  1.1649  0.2755 -1.2140
  175SLPC   C3419857   4.588   6.286   6.949  0.6171 -0.4945 -0.3705
  175SLPC   H4X19858   4.499   6.349   6.932  0.5993 -0.4875 -0.2510
  175SLPC   H4Y19859   4.537   6.188   6.952 -0.6635  0.1020 -1.5245
  175SLPC   C3519860   4.669   6.305   6.820  0.4196  0.0458 -0.1386
  175SLPC   H5X19861   4.757   6.238   6.831 -0.1879 -0.8516 -0.7014
  175SLPC   H5Y19862   4.704   6.409   6.800  0.8542 -0.5894 -3.0613
  175SLPC   C3619863   4.600   6.253   6.699 -0.1341 -0.3997 -0.2267
  175SLPC   H6X19864   4.510   6.307   6.664  0.7488  2.3930  1.4619
  175SLPC   H6Y19865   4.570   6.154   6.738 -1.3765 -0.1074 -0.4029
  175SLPC   C3719866   4.696   6.235   6.578 -0.1599  0.0965  0.1070
  175SLPC   H7X19867   4.775   6.160   6.599  0.0602  0.5801  1.0928
  175SLPC   H7Y19868   4.740   6.332   6.548 -0.2161 -0.1438 -0.7870
  175SLPC   C3819869   4.616   6.178   6.463 -0.0614  0.3345  0.5493
  175SLPC   H8X19870   4.527   6.239   6.436 -0.2646 -0.1252  0.1539
  175SLPC   H8Y19871   4.581   6.075   6.484 -2.6806  1.1290  0.5396
  175SLPC   C3919872   4.711   6.180   6.346 -0.3574  0.2146  0.0083
  175SLPC   H9X19873   4.797   6.110   6.357 -1.0428 -0.9611 -1.7331
  175SLPC   H9Y19874   4.745   6.284   6.328 -1.0610  0.7318  1.4391
  175SLPC  C31019875   4.636   6.137   6.221 -0.0166 -0.4549  0.0857
  175SLPC  H10X19876   4.555   6.210   6.201 -1.2585 -1.9183 -0.4445
  175SLPC  H10Y19877   4.594   6.034   6.224  2.4064 -1.6438 -2.3335
  175SLPC  C31119878   4.734   6.137   6.097 -0.0301  0.9899 -0.9606
  175SLPC  H11X19879   4.826   6.078   6.121 -1.4907 -1.2411 -0.5415
  175SLPC  H11Y19880   4.773   6.241   6.097  0.8260  0.6876 -1.7954
  175SLPC  C31219881   4.678   6.067   5.970  0.5424  0.0514  0.3977
  175SLPC  H12X19882   4.629   5.974   6.007 -2.9546  1.9772  0.9939
  175SLPC  H12Y19883   4.755   6.048   5.892 -0.4419  0.3952 -0.6818
  175SLPC  C31319884   4.562   6.152   5.913  0.0695 -0.7921 -0.2391
  175SLPC  H13X19885   4.608   6.245   5.871  3.1631 -1.4793  1.3572
  175SLPC  H13Y19886   4.486   6.190   5.985  1.2826  3.1235 -0.7641
  175SLPC  C31419887   4.487   6.088   5.800  0.1907 -0.2484 -0.4758
  175SLPC  H14X19888   4.432   6.005   5.849 -1.0869  0.3874 -0.7933
  175SLPC  H14Y19889   4.557   6.050   5.723 -0.0881 -1.1728 -0.2741
  175SLPC  C31519890   4.370   6.171   5.753  0.2490 -0.0786  0.3302
  175SLPC  H15X19891   4.289   6.172   5.830 -1.8600 -0.9721 -1.7291
  175SLPC  H15Y19892   4.315   6.121   5.671  0.2120  3.1452 -1.7755
  175SLPC  C31619893   4.407   6.306   5.694 -0.0705 -0.1910 -0.5717
  175SLPC  H16X19894   4.467   6.375   5.757 -1.1686  0.5108 -0.2586
  175SLPC  H16Y19895   4.316   6.359   5.658  1.3446  2.7838 -0.0956
  175SLPC  C31719896   4.495   6.291   5.567 -0.5734  1.0753 -0.0604
  175SLPC  H17X19897   4.457   6.223   5.488  2.1993 -2.8814  1.7038
  175SLPC  H17Y19898   4.589   6.248   5.608 -0.1667 -0.4090 -2.3524
  175SLPC  C31819899   4.531   6.427   5.509  0.5361 -0.1976 -0.1348
  175SLPC  H18X19900   4.548   6.500   5.590  1.2471 -0.3591 -0.1310
  175SLPC  H18Y19901   4.444   6.474   5.457 -1.1862 -0.4110  2.3856
  175SLPC  H18Z19902   4.615   6.408   5.439  0.8542 -2.2671  0.7210
  176SLPC     N19903   2.565   3.663   7.928  0.1940 -0.1738 -0.0347
  176SLPC   C1319904   2.626   3.611   8.056 -0.6978 -0.5076 -0.0157
  176SLPC  H13A19905   2.662   3.690   8.120 -2.7205 -1.1050  2.0019
  176SLPC  H13B19906   2.554   3.560   8.119 -0.8800  2.4243  2.3488
  176SLPC  H13C19907   2.712   3.549   8.038  1.6967  1.3988  3.6728
  176SLPC   C1419908   2.477   3.766   7.977 -0.2707  0.0350  0.4136
  176SLPC  H14A19909   2.448   3.739   8.077 -1.2617  0.4138  0.2359
  176SLPC  H14B19910   2.535   3.857   7.978 -1.6838  0.9659 -0.1579
  176SLPC  H14C19911   2.391   3.786   7.915  0.5456 -0.6680 -1.0133
  176SLPC   C1519912   2.473   3.563   7.871  0.0971 -0.3756 -0.0549
  176SLPC  H15A19913   2.535   3.496   7.813  1.9952  0.6328  0.7341
  176SLPC  H15B19914   2.437   3.510   7.959  0.4697 -0.0122  0.3183
  176SLPC  H15C19915   2.390   3.604   7.815  1.0521 -0.4168 -1.5575
  176SLPC   C1219916   2.668   3.704   7.836 -1.3789 -0.2132  0.1784
  176SLPC  H12A19917   2.708   3.624   7.776  2.5496  1.2110  0.5745
  176SLPC  H12B19918   2.751   3.744   7.894 -0.9451 -1.0421  0.1416
  176SLPC   C1119919   2.632   3.801   7.721  0.1029 -0.0502 -0.1110
  176SLPC  H11A19920   2.544   3.764   7.664 -1.3306  1.1578  1.2198
  176SLPC  H11B19921   2.711   3.806   7.643  0.1347  1.2858 -0.0291
  176SLPC     P19922   2.706   4.025   7.830  0.5275 -0.0509 -0.2587
  176SLPC   O1319923   2.686   4.057   7.974  0.3939 -0.0512  0.0119
  176SLPC   O1419924   2.837   3.968   7.782  0.3087 -0.5259 -0.2624
  176SLPC   O1219925   2.594   3.930   7.776  0.0273 -0.3659 -0.3472
  176SLPC   O1119926   2.680   4.164   7.756 -0.5645 -0.9749  1.1392
  176SLPC    C119927   2.675   4.152   7.613 -0.2899 -0.0163  0.2170
  176SLPC    HA19928   2.764   4.104   7.567  0.0209  1.0321 -0.3094
  176SLPC    HB19929   2.587   4.097   7.574  0.6258 -2.8524  1.8914
  176SLPC    C219930   2.669   4.294   7.555 -0.2282  0.3391 -0.2728
  176SLPC    HS19931   2.596   4.348   7.619  0.3044  2.6756 -1.5226
  176SLPC   O2119932   2.631   4.287   7.411  0.1080  0.4552  0.0458
  176SLPC   C2119933   2.586   4.396   7.365 -0.8996 -0.2203  0.8738
  176SLPC   O2219934   2.558   4.499   7.426  0.7080 -0.5779  0.2980
  176SLPC   C2219935   2.571   4.379   7.215  0.4762 -0.3111 -0.0356
  176SLPC   H2R19936   2.672   4.385   7.168 -0.1136 -0.5967 -1.3954
  176SLPC   H2S19937   2.525   4.279   7.197  2.0191 -1.0822  0.1356
  176SLPC    C319938   2.801   4.372   7.593 -0.2368 -0.1688 -0.2074
  176SLPC    HX19939   2.800   4.351   7.702 -1.7679 -1.2861 -0.4117
  176SLPC    HY19940   2.798   4.482   7.578  0.0144  0.0984  1.5253
  176SLPC   O3119941   2.923   4.303   7.538 -0.0609  0.3229 -0.4561
  176SLPC   C3119942   2.939   4.331   7.412  0.2795  0.2778  0.4541
  176SLPC   O3219943   2.885   4.417   7.343  0.2502 -0.0518 -0.2058
  176SLPC   C3219944   3.035   4.220   7.363  0.4485  0.1747 -0.1098
  176SLPC   H2X19945   2.982   4.122   7.363  1.6504 -0.5058 -1.1551
  176SLPC   H2Y19946   3.113   4.218   7.442  0.8922 -0.6944 -0.5556
  176SLPC   C2319947   2.476   4.484   7.163  0.5983 -0.2996 -0.6883
  176SLPC   H3R19948   2.484   4.579   7.220  1.1649 -1.6733  1.7197
  176SLPC   H3S19949   2.378   4.434   7.176  1.9131 -2.7905  0.4089
  176SLPC   C2419950   2.514   4.492   7.013 -0.5381  0.0646 -0.4081
  176SLPC   H4R19951   2.510   4.397   6.955  1.7723  0.9141 -2.1246
  176SLPC   H4S19952   2.613   4.542   7.012 -1.7979  2.7060 -1.1728
  176SLPC   C2519953   2.414   4.591   6.947  0.0735  0.9318  0.7364
  176SLPC   H5R19954   2.413   4.684   7.008  3.7117  1.3115  0.4475
  176SLPC   H5S19955   2.310   4.552   6.953  0.9466 -1.9734 -1.1194
  176SLPC   C2619956   2.446   4.626   6.796  0.7295 -0.0664 -0.0694
  176SLPC   H6R19957   2.555   4.640   6.776  0.1676  0.0326 -3.8889
  176SLPC   H6S19958   2.384   4.716   6.775 -0.4528 -1.2310 -1.8036
  176SLPC   C2719959   2.393   4.514   6.700 -0.1484 -0.3887 -1.0454
  176SLPC   H7R19960   2.335   4.559   6.617  1.3394  0.4098 -1.6996
  176SLPC   H7S19961   2.319   4.454   6.757 -1.1351  0.3615 -1.5196
  176SLPC   C2819962   2.493   4.421   6.635 -0.5324  0.7990  0.2730
  176SLPC   H8R19963   2.439   4.353   6.565  2.4479 -1.3431 -0.1360
  176SLPC   H8S19964   2.516   4.347   6.714 -1.0106  1.0352  0.6430
  176SLPC   C2919965   2.615   4.481   6.573  0.0898 -0.5797 -0.0419
  176SLPC   H9R19966   2.674   4.560   6.621  0.9777  0.0613 -2.0768
  176SLPC  C21019967   2.651   4.463   6.444  0.3063 -0.3813  0.0090
  176SLPC  H10R19968   2.734   4.522   6.403 -2.1012  3.3580  0.0409
  176SLPC  C21119969   2.582   4.378   6.345  0.5847  0.4970  0.4034
  176SLPC  H11R19970   2.549   4.286   6.397 -0.5387  1.1458  0.8644
  176SLPC  H11S19971   2.657   4.345   6.270 -0.9824  1.6529 -1.7835
  176SLPC  C21219972   2.473   4.447   6.262 -0.2516 -0.6024  0.2267
  176SLPC  H12R19973   2.429   4.536   6.308 -1.3825 -0.7195 -0.5759
  176SLPC  C21319974   2.428   4.416   6.143  0.2032  0.3249  0.9398
  176SLPC  H13R19975   2.359   4.483   6.091  1.2876  0.7379 -0.0102
  176SLPC  C21419976   2.475   4.291   6.071 -0.0777  0.7118  0.0235
  176SLPC  H14R19977   2.536   4.224   6.134  2.5120  1.4921 -1.4981
  176SLPC  H14S19978   2.551   4.326   5.998 -0.2747 -0.7385 -0.9087
  176SLPC  C21519979   2.364   4.219   6.008  0.4781  0.2658  0.0972
  176SLPC  H15R19980   2.295   4.291   5.957 -0.7083 -2.5974 -2.6672
  176SLPC  H15S19981   2.315   4.159   6.088  0.1206  0.8405  0.3211
  176SLPC  C21619982   2.418   4.128   5.894  0.5158 -0.4672 -0.0082
  176SLPC  H16R19983   2.473   4.040   5.933  1.0295 -0.7004 -1.2036
  176SLPC  H16S19984   2.495   4.186   5.838  1.2487  1.1211  2.4535
  176SLPC  C21719985   2.303   4.066   5.814  0.2236  0.3355  0.1051
  176SLPC  H17R19986   2.235   4.145   5.775 -0.6982 -0.2829  0.4090
  176SLPC  H17S19987   2.239   4.015   5.890 -1.2559 -0.4770 -1.5940
  176SLPC  C21819988   2.331   3.954   5.714 -0.3486 -0.5875  0.9019
  176SLPC  H18R19989   2.375   4.001   5.624 -2.1038 -2.3368 -0.9836
  176SLPC  H18S19990   2.236   3.901   5.688  0.3166 -0.9763 -0.8446
  176SLPC  H18T19991   2.406   3.879   5.745  0.1110 -0.1818  0.7756
  176SLPC   C3319992   3.096   4.229   7.223 -0.9682  0.2654 -0.0917
  176SLPC   H3X19993   3.161   4.140   7.211  0.1403  1.0124  0.1730
  176SLPC   H3Y19994   3.162   4.317   7.204 -0.2488  0.1989  1.8562
  176SLPC   C3419995   2.999   4.230   7.108  0.6913  0.0434 -0.5580
  176SLPC   H4X19996   2.945   4.327   7.112  1.3477  0.3723  1.4163
  176SLPC   H4Y19997   2.918   4.155   7.119  0.2345  0.4794 -0.8521
  176SLPC   C3519998   3.076   4.210   6.978 -0.0898 -0.1607  0.4439
  176SLPC   H5X19999   3.137   4.117   6.971 -2.1795 -1.5324 -1.1662
  176SLPC   H5Y20000   3.143   4.298   6.969  1.4480 -1.2465  0.9768
  176SLPC   C3620001   2.993   4.204   6.850 -0.6262  0.3434  0.0421
  176SLPC   H6X20002   2.927   4.292   6.867 -2.0337 -0.4857 -0.9423
  176SLPC   H6Y20003   2.943   4.105   6.848  2.1543 -1.1379 -1.2296
  176SLPC   C3720004   3.062   4.217   6.717 -0.4094 -0.2322 -0.1810
  176SLPC   H7X20005   3.141   4.141   6.704  0.2937  0.1009  1.7825
  176SLPC   H7Y20006   3.132   4.303   6.709  1.3087 -1.6328 -0.8633
  176SLPC   C3820007   2.967   4.214   6.596  0.4688  0.0671  0.3635
  176SLPC   H8X20008   2.874   4.271   6.618  1.1616  2.2025 -1.7344
  176SLPC   H8Y20009   2.937   4.109   6.577 -1.7343  0.8271 -0.7931
  176SLPC   C3920010   3.031   4.258   6.467  0.2999 -0.6258 -0.2100
  176SLPC   H9X20011   3.137   4.226   6.466  0.4356 -0.3617 -3.1516
  176SLPC   H9Y20012   3.027   4.368   6.484  0.4110 -0.9179  2.1181
  176SLPC  C31020013   2.953   4.207   6.344  0.0291  0.3787  0.9806
  176SLPC  H10X20014   2.844   4.220   6.360 -0.2793  1.7870 -1.5977
  176SLPC  H10Y20015   2.975   4.102   6.316  0.1974  1.1901 -2.4411
  176SLPC  C31120016   2.987   4.293   6.213 -0.7617 -0.6022 -0.5060
  176SLPC  H11X20017   3.088   4.258   6.181 -1.1258 -0.8959 -1.3890
  176SLPC  H11Y20018   2.991   4.401   6.235  1.7504 -0.8278  0.4682
  176SLPC  C31220019   2.897   4.260   6.099  0.5394  0.8931  0.6780
  176SLPC  H12X20020   2.804   4.321   6.100  0.7529  1.3123 -1.2693
  176SLPC  H12Y20021   2.862   4.157   6.125 -1.6905  0.7853 -2.2119
  176SLPC  C31320022   2.962   4.256   5.959 -0.0756 -0.3970 -0.3483
  176SLPC  H13X20023   3.033   4.171   5.963 -1.4740 -1.5808  1.8917
  176SLPC  H13Y20024   3.031   4.342   5.951  0.8816 -0.9444  1.5286
  176SLPC  C31420025   2.851   4.255   5.849 -0.2296  0.1028 -0.0278
  176SLPC  H14X20026   2.790   4.344   5.875 -1.5760 -0.5008 -0.9815
  176SLPC  H14Y20027   2.773   4.179   5.874 -0.1780 -0.6677 -2.0653
  176SLPC  C31520028   2.908   4.248   5.711 -0.0707 -0.2820  0.0133
  176SLPC  H15X20029   2.960   4.152   5.688  1.7665  0.3464  1.3234
  176SLPC  H15Y20030   2.985   4.327   5.699 -0.1815 -0.0975  0.5008
  176SLPC  C31620031   2.805   4.249   5.595 -0.1714 -0.7150 -0.2983
  176SLPC  H16X20032   2.727   4.171   5.605 -0.8065 -0.2005 -1.0975
  176SLPC  H16Y20033   2.863   4.242   5.501  1.8826  1.1084  0.7414
  176SLPC  C31720034   2.721   4.383   5.583  0.0337 -0.0674  0.3871
  176SLPC  H17X20035   2.786   4.472   5.579 -0.5334  0.3448  0.1659
  176SLPC  H17Y20036   2.660   4.392   5.675 -0.9454  1.0288 -0.3463
  176SLPC  C31820037   2.621   4.396   5.467 -0.1813 -0.2759 -0.4007
  176SLPC  H18X20038   2.594   4.298   5.421 -1.1865  0.5398 -1.6167
  176SLPC  H18Y20039   2.655   4.466   5.388 -1.9023 -1.7514 -2.5859
  176SLPC  H18Z20040   2.523   4.425   5.510  0.1235 -1.7163  1.3987
  177SLPC     N20041   4.593   6.526   7.913 -0.4193  0.4069 -0.0833
  177SLPC   C1320042   4.484   6.444   7.985 -0.1355 -0.5743 -0.1785
  177SLPC  H13A20043   4.534   6.352   8.011 -1.4764 -1.5100 -0.7657
  177SLPC  H13B20044   4.460   6.509   8.068 -0.1065  1.5714 -1.7664
  177SLPC  H13C20045   4.400   6.426   7.919  0.6743 -0.6787 -1.2137
  177SLPC   C1420046   4.705   6.570   7.998  0.0956 -0.3642 -0.5461
  177SLPC  H14A20047   4.672   6.644   8.069 -2.1366 -1.3534 -0.4810
  177SLPC  H14B20048   4.741   6.488   8.059 -0.5107  1.0027  1.7837
  177SLPC  H14C20049   4.784   6.610   7.936 -1.8700  1.4096 -2.0294
  177SLPC   C1520050   4.528   6.648   7.849  0.2530  0.1464 -0.0184
  177SLPC  H15A20051   4.473   6.704   7.923 -2.0870 -0.5923 -1.1116
  177SLPC  H15B20052   4.607   6.711   7.809  1.0105 -1.0023 -0.3637
  177SLPC  H15C20053   4.471   6.617   7.763 -0.8158  1.5091  0.1595
  177SLPC   C1220054   4.652   6.441   7.807 -0.3276 -0.0055  0.0122
  177SLPC  H12A20055   4.728   6.502   7.761 -0.5138  1.7668  1.9067
  177SLPC  H12B20056   4.578   6.428   7.730  1.3385  2.4128 -2.1593
  177SLPC   C1120057   4.715   6.304   7.845 -0.2331 -1.4363  0.3886
  177SLPC  H11A20058   4.789   6.320   7.927 -1.6295 -0.7923  1.5582
  177SLPC  H11B20059   4.778   6.259   7.764  1.9315  0.4508  0.9183
  177SLPC     P20060   4.576   6.068   7.837 -0.3836 -0.4979  0.0394
  177SLPC   O1320061   4.691   5.971   7.844 -0.3110 -0.3045  0.8300
  177SLPC   O1420062   4.459   6.036   7.917 -0.0719  0.0297 -0.0711
  177SLPC   O1220063   4.625   6.208   7.893  0.4361 -0.1462 -0.6302
  177SLPC   O1120064   4.534   6.091   7.689 -0.3432  0.1129  0.0103
  177SLPC    C120065   4.426   6.175   7.653  0.4505  0.1557 -0.1342
  177SLPC    HA20066   4.387   6.236   7.737 -1.8777 -1.8868  0.3896
  177SLPC    HB20067   4.458   6.250   7.577  1.2949  0.3480  0.3983
  177SLPC    C220068   4.311   6.093   7.585 -0.1872 -0.2817  0.9067
  177SLPC    HS20069   4.268   6.035   7.669 -0.6118  2.1362  2.4462
  177SLPC   O2120070   4.370   6.029   7.475 -0.5919  0.3164  0.1368
  177SLPC   C2120071   4.292   5.941   7.410 -0.3278  0.0071 -0.2024
  177SLPC   O2220072   4.199   5.883   7.460 -0.1523 -0.1598 -0.0231
  177SLPC   C2220073   4.328   5.933   7.264 -0.1600 -0.1602  0.4018
  177SLPC   H2R20074   4.385   6.025   7.237 -0.4903 -0.4208 -1.3376
  177SLPC   H2S20075   4.398   5.846   7.254  0.7324  0.4756  0.9566
  177SLPC    C320076   4.191   6.174   7.548  0.8271 -0.4131 -0.0872
  177SLPC    HX20077   4.164   6.235   7.638  0.7608 -1.3083  0.5133
  177SLPC    HY20078   4.110   6.100   7.532  0.7984 -0.5597  0.6795
  177SLPC   O3120079   4.212   6.255   7.429  0.7291  0.3436  0.6429
  177SLPC   C3120080   4.150   6.363   7.411 -0.2993  0.1271 -0.2749
  177SLPC   O3220081   4.061   6.416   7.478 -0.7797 -0.4414  0.5172
  177SLPC   C3220082   4.197   6.425   7.276 -0.1904 -0.0917  0.1190
  177SLPC   H2X20083   4.307   6.435   7.289 -0.2188 -1.1095  1.3673
  177SLPC   H2Y20084   4.152   6.526   7.267 -0.0632 -0.0815 -0.3863
  177SLPC   C2320085   4.196   5.911   7.167  0.1303  0.0975 -0.6433
  177SLPC   H3R20086   4.148   6.010   7.154  0.0218 -0.0686 -1.5600
  177SLPC   H3S20087   4.125   5.830   7.195  1.7598 -1.0983  0.2371
  177SLPC   C2420088   4.239   5.866   7.023 -0.5676 -0.1787 -0.4532
  177SLPC   H4R20089   4.322   5.792   7.018 -0.1800  0.0279  1.7184
  177SLPC   H4S20090   4.287   5.958   6.983 -1.6345 -0.4049 -2.3690
  177SLPC   C2520091   4.126   5.819   6.934  1.0080  0.0686  0.1704
  177SLPC   H5R20092   4.043   5.893   6.943  0.9997  0.2300 -1.0699
  177SLPC   H5S20093   4.084   5.722   6.969  3.0928 -0.3252  1.8274
  177SLPC   C2620094   4.152   5.811   6.785 -0.1239 -0.1739  0.3100
  177SLPC   H6R20095   4.159   5.913   6.742 -2.4047  1.3216  3.0739
  177SLPC   H6S20096   4.065   5.768   6.731 -0.7049  2.5064 -1.0617
  177SLPC   C2720097   4.278   5.734   6.751  0.2240 -0.2014  0.2796
  177SLPC   H7R20098   4.276   5.634   6.799 -0.4344 -0.6845 -0.7361
  177SLPC   H7S20099   4.367   5.782   6.798 -0.4332  1.4884 -0.1383
  177SLPC   C2820100   4.313   5.718   6.597  0.5857  0.0268 -0.6286
  177SLPC   H8R20101   4.229   5.666   6.548  1.2256 -0.3791 -1.3234
  177SLPC   H8S20102   4.412   5.668   6.584  1.0794  0.8071 -0.0184
  177SLPC   C2920103   4.335   5.845   6.522  0.5479 -0.1831  0.5269
  177SLPC   H9R20104   4.366   5.928   6.587 -0.7604 -0.3513  1.4064
  177SLPC  C21020105   4.334   5.863   6.393 -0.2524  0.4979  0.7050
  177SLPC  H10R20106   4.345   5.964   6.350 -0.9861 -0.6976 -2.5764
  177SLPC  C21120107   4.317   5.756   6.293  0.8576 -0.3975 -0.8941
  177SLPC  H11R20108   4.208   5.734   6.295  0.8828 -0.4716  0.2766
  177SLPC  H11S20109   4.372   5.665   6.325 -0.9758 -1.0519  0.6033
  177SLPC  C21220110   4.370   5.798   6.163  0.4620  1.4201  0.2182
  177SLPC  H12R20111   4.476   5.825   6.154  1.1676 -1.1774  0.0211
  177SLPC  C21320112   4.305   5.807   6.046 -0.1407  0.5442 -0.1519
  177SLPC  H13R20113   4.372   5.843   5.967  0.4074  1.8081  0.8529
  177SLPC  C21420114   4.159   5.773   6.013 -0.0259 -0.3349  0.0005
  177SLPC  H14R20115   4.120   5.854   5.948  0.9167 -1.5611 -2.2209
  177SLPC  H14S20116   4.102   5.763   6.108 -0.3625  1.1912 -0.0124
  177SLPC  C21520117   4.152   5.644   5.928 -0.5564 -0.5697  0.0656
  177SLPC  H15R20118   4.045   5.616   5.921 -1.1450  1.7357 -1.3230
  177SLPC  H15S20119   4.190   5.563   5.993 -3.7690  0.7650  4.0539
  177SLPC  C21620120   4.213   5.643   5.785 -0.0172  0.0600 -0.0703
  177SLPC  H16R20121   4.319   5.612   5.794 -0.2342 -0.9704 -0.7643
  177SLPC  H16S20122   4.215   5.751   5.760 -0.7123  0.3047  0.9002
  177SLPC  C21720123   4.131   5.554   5.693  0.2084  0.2063  0.1403
  177SLPC  H17R20124   4.034   5.607   5.679 -0.0786 -0.7943 -2.2505
  177SLPC  H17S20125   4.096   5.465   5.750 -1.1120  0.4529 -0.2457
  177SLPC  C21820126   4.186   5.505   5.562  0.2302  0.6622 -0.1204
  177SLPC  H18R20127   4.104   5.465   5.499  0.3193  0.2319  0.0307
  177SLPC  H18S20128   4.261   5.424   5.573 -2.7158 -2.2040  0.3170
  177SLPC  H18T20129   4.230   5.590   5.505 -1.1304  0.4936 -1.4800
  177SLPC   C3320130   4.156   6.339   7.155 -0.2351 -0.1246  0.5661
  177SLPC   H3X20131   4.165   6.230   7.172  1.3480 -0.1379 -0.2237
  177SLPC   H3Y20132   4.225   6.361   7.071  1.3585 -0.6307  1.6945
  177SLPC   C3420133   4.018   6.374   7.090  0.3438 -0.2743 -0.1378
  177SLPC   H4X20134   3.995   6.482   7.074 -1.9997 -0.0454  3.5976
  177SLPC   H4Y20135   3.950   6.358   7.177 -0.1983  1.0256 -0.2977
  177SLPC   C3520136   3.992   6.270   6.978  0.6754  0.2412  0.0677
  177SLPC   H5X20137   3.885   6.243   6.991  0.6739  0.3596  0.3097
  177SLPC   H5Y20138   4.042   6.177   7.012  0.7654 -0.2466 -1.3268
  177SLPC   C3620139   4.040   6.309   6.838  0.3424 -0.0088  0.7017
  177SLPC   H6X20140   4.117   6.388   6.842  0.4701  0.0198 -1.1550
  177SLPC   H6Y20141   3.963   6.347   6.767  0.7831  0.9815  0.7423
  177SLPC   C3720142   4.109   6.185   6.775  0.0412 -0.3054 -0.1502
  177SLPC   H7X20143   4.031   6.107   6.760  0.3945 -0.5073 -0.9955
  177SLPC   H7Y20144   4.190   6.165   6.850  1.3420  4.3831 -0.0286
  177SLPC   C3820145   4.182   6.217   6.642  0.0557  0.4318  0.5266
  177SLPC   H8X20146   4.240   6.123   6.627  0.3047  0.3548  1.8721
  177SLPC   H8Y20147   4.253   6.302   6.654  0.4887  0.1564 -0.0394
  177SLPC   C3920148   4.086   6.247   6.527 -0.8967  0.2554 -0.0499
  177SLPC   H9X20149   4.028   6.339   6.549 -0.8290 -0.0966  1.7223
  177SLPC   H9Y20150   4.016   6.161   6.534 -1.8263  0.8444 -1.6224
  177SLPC  C31020151   4.167   6.238   6.399  0.2773 -0.4723  0.4611
  177SLPC  H10X20152   4.212   6.136   6.403  0.9427 -0.3138 -1.6820
  177SLPC  H10Y20153   4.234   6.323   6.374 -1.0492  0.2370 -0.7914
  177SLPC  C31120154   4.067   6.234   6.280 -0.0950 -0.3931  0.6116
  177SLPC  H11X20155   4.035   6.340   6.269 -0.4371 -0.6240 -0.7944
  177SLPC  H11Y20156   3.981   6.165   6.293 -0.3544 -0.0930  0.5058
  177SLPC  C31220157   4.141   6.202   6.144 -0.1652  0.0481  0.0596
  177SLPC  H12X20158   4.183   6.101   6.163 -1.0813 -0.0391  1.7706
  177SLPC  H12Y20159   4.223   6.276   6.130 -1.8962  1.8054 -1.4494
  177SLPC  C31320160   4.055   6.200   6.018  0.8030 -0.4244  0.4566
  177SLPC  H13X20161   3.982   6.115   6.024 -1.7903  1.3696 -2.6503
  177SLPC  H13Y20162   4.118   6.166   5.933 -0.2506  0.2389 -0.6242
  177SLPC  C31420163   3.987   6.324   5.984  0.5063 -0.3017  0.1289
  177SLPC  H14X20164   3.911   6.357   6.058  0.4040  0.3897 -0.2721
  177SLPC  H14Y20165   3.931   6.295   5.892  0.3669  0.6011 -0.0816
  177SLPC  C31520166   4.083   6.442   5.962 -0.3751 -0.1066  0.7169
  177SLPC  H15X20167   4.153   6.420   5.879  1.3544 -1.5977  2.4838
  177SLPC  H15Y20168   4.133   6.463   6.058 -2.0215  0.5123  1.4816
  177SLPC  C31620169   4.018   6.577   5.939 -0.1265  0.2294  0.7267
  177SLPC  H16X20170   4.098   6.653   5.926  1.2113 -0.8039  2.4533
  177SLPC  H16Y20171   3.950   6.610   6.020  1.5710  0.9350  1.9182
  177SLPC  C31720172   3.933   6.583   5.810  0.1541 -0.3836 -0.2284
  177SLPC  H17X20173   3.847   6.516   5.829  1.2581 -1.6789  0.3535
  177SLPC  H17Y20174   3.989   6.529   5.731 -2.4432 -0.1025 -2.3949
  177SLPC  C31820175   3.879   6.722   5.768  0.5986 -0.4539  0.3291
  177SLPC  H18X20176   3.809   6.763   5.844 -1.2543 -1.9811 -0.4590
  177SLPC  H18Y20177   3.812   6.705   5.681  1.6654 -2.1655 -0.1939
  177SLPC  H18Z20178   3.960   6.784   5.724 -0.3186 -0.1022 -0.9266
  178SLPC     N20179   1.694   3.915   8.191 -0.1553  0.1721  0.9206
  178SLPC   C1320180   1.577   3.875   8.110  0.0693 -0.9594  0.9054
  178SLPC  H13A20181   1.574   3.770   8.084  2.5329 -0.7915 -0.3985
  178SLPC  H13B20182   1.482   3.901   8.154 -1.5925 -1.6272 -2.0632
  178SLPC  H13C20183   1.588   3.927   8.017  0.3776 -3.9834 -0.8817
  178SLPC   C1420184   1.714   3.818   8.300  0.6663 -0.1972  0.4870
  178SLPC  H14A20185   1.813   3.826   8.340  1.0214  1.6148 -0.6027
  178SLPC  H14B20186   1.645   3.848   8.378 -0.4277  2.3649 -1.2930
  178SLPC  H14C20187   1.682   3.722   8.264 -3.7749  1.5302 -0.9655
  178SLPC   C1520188   1.647   4.044   8.246 -0.4148 -0.4154  0.1618
  178SLPC  H15A20189   1.548   4.037   8.288  0.0445  0.2500  1.4018
  178SLPC  H15B20190   1.712   4.058   8.332  1.9911 -3.8291 -0.8824
  178SLPC  H15C20191   1.649   4.128   8.178 -2.0225  1.1690  1.9384
  178SLPC   C1220192   1.825   3.924   8.126  0.2409 -0.3657 -0.4285
  178SLPC  H12A20193   1.868   3.831   8.091  2.0734  1.0092 -2.0644
  178SLPC  H12B20194   1.908   3.956   8.188  0.1943 -2.0667  0.5724
  178SLPC   C1120195   1.833   4.013   8.002  0.0682  0.1026 -0.0511
  178SLPC  H11A20196   1.941   4.028   7.982 -0.2801  1.4142 -1.0853
  178SLPC  H11B20197   1.789   4.114   8.016 -0.8320 -0.2661 -0.1320
  178SLPC     P20198   1.822   3.831   7.824  0.1580 -0.2980 -0.0661
  178SLPC   O1320199   1.933   3.784   7.907 -0.2596 -0.4651 -0.6894
  178SLPC   O1420200   1.712   3.739   7.790 -0.1536 -0.3454 -0.3415
  178SLPC   O1220201   1.756   3.955   7.896  0.0184 -0.4421  0.0503
  178SLPC   O1120202   1.876   3.902   7.699  0.0628  0.1265  0.9962
  178SLPC    C120203   1.800   3.945   7.586 -0.4391  0.3211  0.2570
  178SLPC    HA20204   1.714   4.002   7.626 -0.7117 -0.4582  0.7939
  178SLPC    HB20205   1.857   4.009   7.515 -3.0280  0.9183 -1.4199
  178SLPC    C220206   1.740   3.834   7.492  0.4060 -0.3285 -0.1076
  178SLPC    HS20207   1.701   3.751   7.554 -0.6704  0.7783  0.7266
  178SLPC   O2120208   1.844   3.784   7.406  0.0556 -0.5255 -0.1029
  178SLPC   C2120209   1.809   3.675   7.344  0.1865  0.0197 -0.4456
  178SLPC   O2220210   1.712   3.604   7.374 -0.0535 -0.1685 -0.1372
  178SLPC   C2220211   1.905   3.648   7.234 -0.2814 -0.3101 -0.3601
  178SLPC   H2R20212   1.907   3.719   7.149  0.3425  0.6393  0.4204
  178SLPC   H2S20213   2.010   3.643   7.270 -0.2447 -0.5668 -0.5018
  178SLPC    C320214   1.620   3.891   7.411  0.1999 -0.1128 -0.3261
  178SLPC    HX20215   1.549   3.918   7.492  2.1838  0.2289  1.3662
  178SLPC    HY20216   1.573   3.806   7.356  1.0244 -0.3072 -0.7403
  178SLPC   O3120217   1.650   4.007   7.333  0.2670  0.7521 -0.2121
  178SLPC   C3120218   1.683   3.980   7.203 -0.1343 -0.3530 -0.2149
  178SLPC   O3220219   1.664   3.883   7.140 -0.1900  0.1494  0.7216
  178SLPC   C3220220   1.727   4.115   7.146  0.1480  0.2821  0.1279
  178SLPC   H2X20221   1.829   4.146   7.178 -0.2238  0.4185  1.2108
  178SLPC   H2Y20222   1.665   4.194   7.195  2.2209  1.6691  0.6286
  178SLPC   C2320223   1.889   3.515   7.161  0.1084 -0.0028 -0.1900
  178SLPC   H3R20224   1.856   3.438   7.233 -0.0941  0.0922 -0.1799
  178SLPC   H3S20225   1.991   3.488   7.127  0.7465  2.7513 -0.6918
  178SLPC   C2420226   1.802   3.526   7.040  0.4811  0.1979  0.2275
  178SLPC   H4R20227   1.709   3.582   7.067  0.2465 -0.3356  0.5431
  178SLPC   H4S20228   1.762   3.427   7.009 -0.7763 -0.6156  3.9727
  178SLPC   C2520229   1.868   3.590   6.918 -0.0412  0.1619  0.1368
  178SLPC   H5R20230   1.969   3.545   6.906 -0.3230  0.1660 -3.1417
  178SLPC   H5S20231   1.882   3.697   6.942 -3.1704  0.4395  1.1749
  178SLPC   C2620232   1.801   3.561   6.777 -1.3289  0.2607 -0.4182
  178SLPC   H6R20233   1.697   3.597   6.792 -1.1668 -0.1464  1.9591
  178SLPC   H6S20234   1.796   3.453   6.755 -0.8620 -0.0828  1.0370
  178SLPC   C2720235   1.881   3.638   6.665 -0.6577  0.3308  0.0227
  178SLPC   H7R20236   1.985   3.601   6.670 -0.4995  0.9029  1.8390
  178SLPC   H7S20237   1.877   3.747   6.689 -1.8658  0.3342 -0.1021
  178SLPC   C2820238   1.836   3.602   6.519 -0.8859  0.5972  0.4429
  178SLPC   H8R20239   1.835   3.491   6.504  0.3482  0.6047  0.2680
  178SLPC   H8S20240   1.909   3.642   6.446 -0.9466 -0.3853 -0.1822
  178SLPC   C2920241   1.704   3.668   6.511 -0.3169 -1.1465  0.5955
  178SLPC   H9R20242   1.692   3.756   6.576 -0.4562 -0.0935 -0.8061
  178SLPC  C21020243   1.608   3.626   6.427  0.3635 -0.2932  0.1342
  178SLPC  H10R20244   1.520   3.690   6.416  1.6803  1.1582 -3.4102
  178SLPC  C21120245   1.627   3.509   6.330 -0.1796 -0.3337 -0.5876
  178SLPC  H11R20246   1.695   3.433   6.376 -0.5300  0.0189  0.5487
  178SLPC  H11S20247   1.685   3.549   6.244  0.4154  0.6792  0.2598
  178SLPC  C21220248   1.506   3.442   6.279  0.6254  0.7627 -0.0486
  178SLPC  H12R20249   1.484   3.358   6.347  0.2370  1.5392  0.8092
  178SLPC  C21320250   1.422   3.466   6.180 -0.1464  0.3163 -0.1577
  178SLPC  H13R20251   1.351   3.390   6.145 -1.2284  1.8611 -1.4808
  178SLPC  C21420252   1.431   3.586   6.085 -0.5132  0.1967 -0.2780
  178SLPC  H14R20253   1.506   3.648   6.139  0.7111 -0.7037 -0.8960
  178SLPC  H14S20254   1.340   3.649   6.077 -0.6094  0.7814  3.3901
  178SLPC  C21520255   1.487   3.542   5.951  0.4737 -0.0223  0.1103
  178SLPC  H15R20256   1.430   3.463   5.898  1.9276  0.6495 -2.6466
  178SLPC  H15S20257   1.586   3.493   5.963  1.3345  0.8630 -2.6023
  178SLPC  C21620258   1.504   3.674   5.862 -0.7282  0.1740 -0.5269
  178SLPC  H16R20259   1.579   3.648   5.784 -1.1073  0.7295 -1.0978
  178SLPC  H16S20260   1.541   3.755   5.929 -0.3083 -2.4417  2.6195
  178SLPC  C21720261   1.376   3.721   5.782 -0.3229 -0.6398  0.2820
  178SLPC  H17R20262   1.390   3.825   5.745 -3.0066 -0.3665 -0.1679
  178SLPC  H17S20263   1.292   3.716   5.855  0.3428 -0.0361  1.1114
  178SLPC  C21820264   1.352   3.620   5.671  0.2177  0.3095 -0.3303
  178SLPC  H18R20265   1.358   3.519   5.716  2.8950  0.4796 -0.1932
  178SLPC  H18S20266   1.427   3.624   5.589  0.6897 -0.7927  0.0320
  178SLPC  H18T20267   1.247   3.628   5.634 -0.8884 -3.0574  1.6380
  178SLPC   C3320268   1.713   4.128   6.993  0.7012 -0.0383  0.3075
  178SLPC   H3X20269   1.720   4.232   6.955 -0.9184  0.2275  0.6654
  178SLPC   H3Y20270   1.609   4.094   6.970  0.5420  1.3609 -1.3033
  178SLPC   C3420271   1.807   4.032   6.916 -0.5299  0.0715  0.3183
  178SLPC   H4X20272   1.787   3.923   6.925  1.0578 -0.3942 -1.2493
  178SLPC   H4Y20273   1.913   4.052   6.945 -0.5334  0.3637  0.1310
  178SLPC   C3520274   1.793   4.055   6.767  0.1122  0.6119  1.2230
  178SLPC   H5X20275   1.854   3.987   6.704 -0.7239  0.5937  0.4050
  178SLPC   H5Y20276   1.837   4.156   6.751 -1.1232  0.8444 -1.3057
  178SLPC   C3620277   1.650   4.047   6.719  0.6264  0.4147 -0.2259
  178SLPC   H6X20278   1.591   4.133   6.755  0.6067 -0.0326  0.8381
  178SLPC   H6Y20279   1.589   3.957   6.745 -0.1267 -0.6430 -4.6528
  178SLPC   C3720280   1.634   4.063   6.562  0.0767  0.2339  0.0602
  178SLPC   H7X20281   1.533   4.028   6.532 -0.0962  0.7374  0.0433
  178SLPC   H7Y20282   1.704   4.006   6.498 -0.5769  0.2331 -0.6637
  178SLPC   C3820283   1.641   4.209   6.525  0.0889 -0.0876  0.8376
  178SLPC   H8X20284   1.746   4.242   6.537  0.7178 -1.2812 -1.0088
  178SLPC   H8Y20285   1.582   4.272   6.595 -1.9893 -2.5759  1.4607
  178SLPC   C3920286   1.595   4.247   6.381  0.3639 -0.0224  0.1913
  178SLPC   H9X20287   1.490   4.212   6.371 -0.0747  1.5568 -1.2765
  178SLPC   H9Y20288   1.654   4.181   6.315 -2.8343 -0.4736 -2.5002
  178SLPC  C31020289   1.611   4.397   6.361  0.4283 -1.0656  0.9130
  178SLPC  H10X20290   1.718   4.427   6.364  0.1345  0.9583 -2.9040
  178SLPC  H10Y20291   1.547   4.444   6.439 -0.6506 -1.7750  0.4743
  178SLPC  C31120292   1.554   4.437   6.220  0.1344  0.2297  0.0157
  178SLPC  H11X20293   1.443   4.427   6.211  0.2170 -1.4862  0.5605
  178SLPC  H11Y20294   1.611   4.372   6.150  2.6329  1.8308  0.4508
  178SLPC  C31220295   1.581   4.587   6.188  0.3382 -0.1178  0.0450
  178SLPC  H12X20296   1.592   4.615   6.081  0.7496  3.6407  0.9291
  178SLPC  H12Y20297   1.680   4.613   6.232 -0.7726  2.1958  1.3678
  178SLPC  C31320298   1.472   4.680   6.239  0.3039  0.0673 -0.5758
  178SLPC  H13X20299   1.456   4.629   6.336  3.4349  2.4747  1.3872
  178SLPC  H13Y20300   1.379   4.681   6.179  2.1014 -0.3903 -3.6079
  178SLPC  C31420301   1.515   4.829   6.261 -0.0894 -0.0635  0.2549
  178SLPC  H14X20302   1.623   4.844   6.241 -0.4122  1.9370 -0.2060
  178SLPC  H14Y20303   1.494   4.856   6.367 -1.1624 -1.7815  0.5161
  178SLPC  C31520304   1.443   4.944   6.179 -0.4669 -0.7146  1.0045
  178SLPC  H15X20305   1.471   5.043   6.221 -2.3346  0.1952  0.2477
  178SLPC  H15Y20306   1.332   4.941   6.179 -0.6484  2.1343 -0.2197
  178SLPC  C31620307   1.464   4.945   6.025  0.0203 -0.2122  0.1272
  178SLPC  H16X20308   1.449   4.850   5.971  3.4642  0.3426 -2.1432
  178SLPC  H16Y20309   1.566   4.980   5.999 -0.0954 -0.3658 -0.5437
  178SLPC  C31720310   1.369   5.043   5.952  0.3376 -0.4800 -0.9016
  178SLPC  H17X20311   1.373   5.137   6.011 -0.0420 -1.6956  1.1980
  178SLPC  H17Y20312   1.263   5.011   5.964  1.1593 -2.7188  1.5772
  178SLPC  C31820313   1.399   5.049   5.802 -0.9889  0.3947 -0.7302
  178SLPC  H18X20314   1.405   4.943   5.770 -0.1236 -0.6022  2.4046
  178SLPC  H18Y20315   1.502   5.091   5.798 -0.9272  0.2105 -1.1657
  178SLPC  H18Z20316   1.324   5.111   5.749 -0.9742  0.3677 -0.7821
  179SLPC     N20317   0.607   3.644   3.058 -0.0392  1.1202  0.4854
  179SLPC   C1320318   0.574   3.608   3.192  0.6675  0.1953 -0.2891
  179SLPC  H13A20319   0.510   3.684   3.234 -0.6289 -0.5433 -0.8784
  179SLPC  H13B20320   0.531   3.510   3.205  3.2749 -0.9681  0.2476
  179SLPC  H13C20321   0.662   3.609   3.255 -0.5523  0.8252  1.5153
  179SLPC   C1420322   0.680   3.526   2.989  0.5285 -0.1139 -1.1816
  179SLPC  H14A20323   0.659   3.435   3.043 -0.2019  1.5057  1.4061
  179SLPC  H14B20324   0.642   3.515   2.888 -3.1230 -0.8279  0.0983
  179SLPC  H14C20325   0.785   3.549   2.992  0.3650  0.5694 -0.0388
  179SLPC   C1520326   0.683   3.772   3.034  0.5344  0.2217  0.5191
  179SLPC  H15A20327   0.622   3.861   3.035  1.2973  0.7680  0.0422
  179SLPC  H15B20328   0.768   3.789   3.098  0.1033 -0.2473  1.2289
  179SLPC  H15C20329   0.701   3.778   2.928  0.2416  0.0924  0.4615
  179SLPC   C1220330   0.483   3.662   2.975  0.4687  0.5587 -0.4771
  179SLPC  H12A20331   0.439   3.563   2.971  0.1598  0.5471  1.8118
  179SLPC  H12B20332   0.511   3.697   2.876 -1.6392 -0.2310 -1.4167
  179SLPC   C1120333   0.373   3.753   3.033  0.2772  0.4449  0.0495
  179SLPC  H11A20334   0.326   3.720   3.128 -0.4659  0.8194 -0.1766
  179SLPC  H11B20335   0.285   3.754   2.966 -0.6767  1.9535  1.2359
  179SLPC     P20336   0.335   4.011   3.071  0.0572  0.0649 -0.1759
  179SLPC   O1320337   0.407   4.099   3.166 -0.0913  0.1551  0.2870
  179SLPC   O1420338   0.295   4.058   2.937  0.3387  0.0643  0.0044
  179SLPC   O1220339   0.428   3.885   3.048  0.0667 -0.2210 -0.5783
  179SLPC   O1120340   0.203   3.959   3.145  0.0191 -0.2079 -0.1109
  179SLPC    C120341   0.209   3.899   3.273 -0.0738  0.0909 -0.1331
  179SLPC    HA20342   0.159   3.801   3.286 -0.7678  0.2144 -1.6944
  179SLPC    HB20343   0.312   3.880   3.311 -0.3654 -1.1764  0.0855
  179SLPC    C220344   0.157   4.004   3.375 -0.0633 -0.5739  0.3479
  179SLPC    HS20345   0.213   4.099   3.363 -0.1054 -0.3899  1.4894
  179SLPC   O2120346   0.153   3.957   3.510 -0.8767  0.0593 -0.1322
  179SLPC   C2120347   0.274   3.944   3.564 -0.1400 -0.0533  0.3340
  179SLPC   O2220348   0.380   3.993   3.518 -0.2065  0.1019  0.1202
  179SLPC   C2220349   0.257   3.910   3.717  0.1501 -0.7679 -0.4133
  179SLPC   H2R20350   0.160   3.856   3.719 -1.4573  1.7924  3.2389
  179SLPC   H2S20351   0.339   3.841   3.749  1.1692  0.6231  0.0621
  179SLPC    C320352   0.015   4.041   3.352  0.2949 -0.0613 -0.6182
  179SLPC    HX20353  -0.042   3.946   3.346  0.0166  0.1412 -1.2944
  179SLPC    HY20354   0.008   4.090   3.252 -0.7458  2.8796  0.7865
  179SLPC   O3120355  -0.028   4.137   3.448 -0.2486 -0.7540  0.0686
  179SLPC   C3120356  -0.098   4.087   3.545  0.4874 -0.7687  0.1680
  179SLPC   O3220357  -0.143   3.972   3.543  0.0104  1.3082  0.1228
  179SLPC   C3220358  -0.132   4.200   3.658 -0.8887  0.7916 -0.2841
  179SLPC   H2X20359  -0.225   4.245   3.616 -2.8381 -0.9644  1.8810
  179SLPC   H2Y20360  -0.052   4.277   3.657 -0.0096 -0.1004 -1.3005
  179SLPC   C2320361   0.257   4.026   3.819  0.2474 -0.1050  0.5746
  179SLPC   H3R20362   0.176   4.097   3.794 -0.0316 -0.8722 -0.7827
  179SLPC   H3S20363   0.353   4.082   3.822 -0.0081  0.3061  2.3285
  179SLPC   C2420364   0.231   3.976   3.961 -0.1403  0.0901 -0.4809
  179SLPC   H4R20365   0.305   3.895   3.980  0.1802  0.6455  0.7759
  179SLPC   H4S20366   0.130   3.930   3.963 -1.8151  3.4517  0.2367
  179SLPC   C2520367   0.241   4.080   4.074  0.1082 -0.8340  0.3685
  179SLPC   H5R20368   0.158   4.154   4.067  3.3011  2.9679 -1.1772
  179SLPC   H5S20369   0.325   4.150   4.055 -1.0041  0.0935 -1.3327
  179SLPC   C2620370   0.255   4.010   4.217  0.2739 -0.5007  0.4138
  179SLPC   H6R20371   0.338   3.935   4.221 -2.0214 -3.1762  1.0725
  179SLPC   H6S20372   0.166   3.946   4.234 -0.0026 -0.1118  0.4387
  179SLPC   C2720373   0.288   4.110   4.331 -0.2595  0.3999  0.1015
  179SLPC   H7R20374   0.228   4.199   4.304  1.1184  1.2499 -0.2564
  179SLPC   H7S20375   0.394   4.141   4.319 -0.6138  1.9491  0.7528
  179SLPC   C2820376   0.254   4.055   4.468 -0.0490  0.2837  0.1435
  179SLPC   H8R20377   0.310   3.961   4.487 -0.9925 -0.1680  0.7098
  179SLPC   H8S20378   0.148   4.025   4.464  0.1809 -0.4196 -1.2290
  179SLPC   C2920379   0.267   4.158   4.574  0.1903 -0.3657 -0.3563
  179SLPC   H9R20380   0.175   4.218   4.581 -0.7273 -1.9196  2.3991
  179SLPC  C21020381   0.357   4.162   4.672 -0.2322 -0.3883  0.5828
  179SLPC  H10R20382   0.357   4.248   4.741  1.4693  1.0012 -1.0222
  179SLPC  C21120383   0.476   4.076   4.678  0.0500  0.2627 -0.0336
  179SLPC  H11R20384   0.533   4.086   4.583 -0.9163 -1.6672 -0.8654
  179SLPC  H11S20385   0.453   3.968   4.684 -2.5471  0.4864 -3.3410
  179SLPC  C21220386   0.572   4.121   4.780 -0.2212 -0.1096  0.5890
  179SLPC  H12R20387   0.664   4.171   4.745 -0.3940  0.1049  0.4347
  179SLPC  C21320388   0.572   4.102   4.912 -0.3202  0.3309 -0.0290
  179SLPC  H13R20389   0.660   4.149   4.959 -0.3419  0.1203  0.2273
  179SLPC  C21420390   0.467   4.041   5.006  0.2760 -0.4436  0.1059
  179SLPC  H14R20391   0.499   3.960   5.075 -1.2438 -1.3956 -0.2543
  179SLPC  H14S20392   0.384   3.991   4.951  0.6606 -2.6141  1.3657
  179SLPC  C21520393   0.416   4.158   5.097 -0.2769  0.1416 -0.0313
  179SLPC  H15R20394   0.374   4.247   5.045 -0.9530  0.5517  1.1789
  179SLPC  H15S20395   0.494   4.192   5.168 -1.5709  1.2902  0.9167
  179SLPC  C21620396   0.298   4.098   5.190 -0.2178  0.6721  0.5809
  179SLPC  H16R20397   0.342   4.016   5.251  1.3463  1.6082  0.7526
  179SLPC  H16S20398   0.231   4.043   5.120 -1.7447  1.3808  1.4358
  179SLPC  C21720399   0.209   4.192   5.276 -0.1744  0.4627  0.3673
  179SLPC  H17R20400   0.176   4.272   5.206 -0.7108 -0.6823 -0.7349
  179SLPC  H17S20401   0.281   4.243   5.343 -1.6508 -0.8602  3.0986
  179SLPC  C21820402   0.097   4.130   5.361  0.3941  0.4748  0.0708
  179SLPC  H18R20403   0.144   4.053   5.425 -1.0810 -0.9531 -0.4845
  179SLPC  H18S20404   0.015   4.090   5.298 -1.6835  2.8421  1.1069
  179SLPC  H18T20405   0.042   4.200   5.427 -0.4212 -1.0655  1.0796
  179SLPC   C3320406  -0.143   4.134   3.792 -0.3192  0.4073  0.4168
  179SLPC   H3X20407  -0.048   4.078   3.807 -0.4314 -0.5556 -2.0463
  179SLPC   H3Y20408  -0.223   4.056   3.797  0.0565  0.0241  0.4633
  179SLPC   C3420409  -0.169   4.231   3.908 -0.6572  0.5175 -0.1731
  179SLPC   H4X20410  -0.269   4.276   3.897 -0.9834 -0.5212 -1.6946
  179SLPC   H4Y20411  -0.095   4.313   3.896  0.0509  0.1159  1.1731
  179SLPC   C3520412  -0.145   4.177   4.053  0.4032 -0.3631  0.3274
  179SLPC   H5X20413  -0.235   4.120   4.085  0.6913  0.1381  2.1258
  179SLPC   H5Y20414  -0.063   4.102   4.060  0.2288 -0.8249 -1.9665
  179SLPC   C3620415  -0.139   4.290   4.161 -0.9572 -0.9717  0.1429
  179SLPC   H6X20416  -0.196   4.375   4.118 -1.1922 -0.6962  0.9954
  179SLPC   H6Y20417  -0.031   4.315   4.168 -1.5018  1.7297 -0.0329
  179SLPC   C3720418  -0.194   4.243   4.295 -0.2568  0.8299  0.0588
  179SLPC   H7X20419  -0.200   4.133   4.279 -1.3737  1.1397 -1.9350
  179SLPC   H7Y20420  -0.296   4.283   4.309 -0.4362  0.7412 -0.9156
  179SLPC   C3820421  -0.105   4.269   4.411 -0.0120 -0.5723  0.1237
  179SLPC   H8X20422  -0.063   4.371   4.401  0.2823 -0.8122 -1.2990
  179SLPC   H8Y20423  -0.019   4.200   4.427  1.2001  0.2845 -2.2466
  179SLPC   C3920424  -0.191   4.267   4.543  0.3090  0.2733  0.3543
  179SLPC   H9X20425  -0.255   4.177   4.547 -1.5024  1.5205  1.4095
  179SLPC   H9Y20426  -0.271   4.344   4.543  0.0020 -0.0394 -0.3279
  179SLPC  C31020427  -0.100   4.284   4.674 -0.1420 -0.3635  0.1612
  179SLPC  H10X20428  -0.073   4.391   4.687 -1.0125 -0.2245  0.9209
  179SLPC  H10Y20429  -0.011   4.218   4.669  0.6348  0.3811  2.6285
  179SLPC  C31120430  -0.180   4.229   4.795  0.0682  0.1117 -0.6886
  179SLPC  H11X20431  -0.222   4.128   4.773 -1.2397  0.6681 -0.7955
  179SLPC  H11Y20432  -0.271   4.292   4.799 -0.2356 -0.3544 -0.0743
  179SLPC  C31220433  -0.110   4.256   4.927  0.0804  0.5116 -0.5683
  179SLPC  H12X20434  -0.164   4.214   5.015  0.9838  0.4484 -0.0339
  179SLPC  H12Y20435  -0.098   4.366   4.933 -1.2858  0.9908 -3.9298
  179SLPC  C31320436   0.038   4.204   4.936 -0.1354  1.1551  0.0959
  179SLPC  H13X20437   0.073   4.221   5.040 -2.4076  1.0779  0.9380
  179SLPC  H13Y20438   0.108   4.258   4.868  0.7520  0.9210  0.8051
  179SLPC  C31420439   0.051   4.053   4.896 -0.0720 -0.0471  0.6829
  179SLPC  H14X20440   0.160   4.028   4.891 -0.0866 -1.0759  3.5614
  179SLPC  H14Y20441  -0.004   4.026   4.804  2.0110  1.4493 -1.1075
  179SLPC  C31520442   0.002   3.958   5.000 -0.7458  0.6331 -0.6677
  179SLPC  H15X20443  -0.108   3.944   4.986 -0.2722 -2.5554 -1.9645
  179SLPC  H15Y20444   0.002   4.007   5.100 -0.6565  1.3772 -1.0255
  179SLPC  C31620445   0.065   3.815   5.005 -0.8737 -0.4100 -0.2616
  179SLPC  H16X20446   0.175   3.828   5.013 -0.8681 -1.2668  1.4766
  179SLPC  H16Y20447   0.047   3.763   4.909 -0.6309  0.6411 -0.9006
  179SLPC  C31720448   0.013   3.737   5.125 -0.6500 -0.6994  0.1972
  179SLPC  H17X20449   0.023   3.807   5.211 -0.9436  0.3202 -0.5844
  179SLPC  H17Y20450   0.065   3.640   5.144  1.3902 -0.1109 -1.9369
  179SLPC  C31820451  -0.149   3.717   5.123  0.4468  0.3233  0.3924
  179SLPC  H18X20452  -0.167   3.670   5.024  1.5022 -1.5431  1.0230
  179SLPC  H18Y20453  -0.202   3.809   5.155  1.1587  0.4229  1.3207
  179SLPC  H18Z20454  -0.173   3.646   5.205 -0.0320  0.2724  0.2092
  180SLPC     N20455   6.405   4.144   2.902 -0.0305 -0.3006  0.2373
  180SLPC   C1320456   6.501   4.193   3.001  0.6353  0.0964 -0.3768
  180SLPC  H13A20457   6.483   4.296   3.027  1.8011 -0.4857  3.2596
  180SLPC  H13B20458   6.485   4.132   3.088  1.4655 -1.0301 -0.9911
  180SLPC  H13C20459   6.604   4.178   2.972  0.4690 -3.4497  0.4257
  180SLPC   C1420460   6.427   4.002   2.846 -0.1705 -0.0219  0.4527
  180SLPC  H14A20461   6.362   3.984   2.762 -0.0544 -0.7677  0.5152
  180SLPC  H14B20462   6.526   3.984   2.809 -0.5797 -1.4130  0.0005
  180SLPC  H14C20463   6.416   3.937   2.932  0.4001  0.7223  1.1070
  180SLPC   C1520464   6.413   4.240   2.788  0.7055  0.0016 -0.1247
  180SLPC  H15A20465   6.343   4.233   2.705  2.9349 -0.8590 -2.0545
  180SLPC  H15B20466   6.410   4.339   2.830  0.5960  0.4545 -1.1752
  180SLPC  H15C20467   6.505   4.246   2.731 -0.3215 -1.0703 -2.0237
  180SLPC   C1220468   6.262   4.148   2.957 -0.7496 -0.6411 -0.1678
  180SLPC  H12A20469   6.199   4.085   2.896 -0.0958 -1.4034 -0.0804
  180SLPC  H12B20470   6.237   4.252   2.943  0.7301 -0.3799 -1.0546
  180SLPC   C1120471   6.238   4.110   3.108  0.2828  0.1686  0.0045
  180SLPC  H11A20472   6.136   4.147   3.129  0.2686  2.3409 -3.1245
  180SLPC  H11B20473   6.314   4.152   3.178  0.6121 -0.7979  0.2437
  180SLPC     P20474   6.128   3.881   3.060 -0.1726 -0.3032 -0.1922
  180SLPC   O1320475   6.039   3.958   2.976  0.7436 -0.4644 -0.2217
  180SLPC   O1420476   6.184   3.758   3.003 -0.6030  0.1160 -0.1579
  180SLPC   O1220477   6.245   3.968   3.120  0.4873 -0.4982 -0.2312
  180SLPC   O1120478   6.052   3.846   3.189 -0.0089  0.4319  0.0544
  180SLPC    C120479   6.103   3.763   3.293 -0.6981  0.2003 -0.2993
  180SLPC    HA20480   6.023   3.706   3.344  0.3139 -0.9745  0.0089
  180SLPC    HB20481   6.169   3.684   3.252  0.4361  0.4725  0.9421
  180SLPC    C220482   6.182   3.840   3.392  0.6462 -0.6569 -0.5678
  180SLPC    HS20483   6.262   3.896   3.339  0.2794 -0.6236 -1.0969
  180SLPC   O2120484   6.228   3.754   3.498 -0.3755  0.5024 -0.2590
  180SLPC   C2120485   6.336   3.685   3.491 -0.4779  0.0680  0.3400
  180SLPC   O2220486   6.408   3.671   3.392  0.3038  0.6895  0.0816
  180SLPC   C2220487   6.341   3.617   3.627 -0.0675  0.0657 -0.1012
  180SLPC   H2R20488   6.237   3.625   3.667 -0.2179 -1.2796 -0.1770
  180SLPC   H2S20489   6.377   3.513   3.613  0.9555  0.4074 -0.1092
  180SLPC    C320490   6.077   3.948   3.453 -0.8301  0.0333 -0.5870
  180SLPC    HX20491   5.991   3.879   3.471  0.4993 -2.1412 -2.1728
  180SLPC    HY20492   6.032   4.021   3.382 -3.4933 -1.6141 -0.7446
  180SLPC   O3120493   6.114   4.011   3.584  0.6937  0.0792  0.0370
  180SLPC   C3120494   6.197   4.119   3.577  0.3916  0.4825  0.2308
  180SLPC   O3220495   6.241   4.160   3.474 -0.0532 -0.5529 -0.0499
  180SLPC   C3220496   6.202   4.187   3.717 -0.1326  0.4809  0.1139
  180SLPC   H2X20497   6.154   4.287   3.710  0.8829  0.9532 -0.3433
  180SLPC   H2Y20498   6.311   4.206   3.734 -0.0103 -1.4707  1.8891
  180SLPC   C2320499   6.438   3.697   3.716  0.3203  0.1710 -0.0023
  180SLPC   H3R20500   6.413   3.805   3.707 -2.4379 -0.3928  0.1866
  180SLPC   H3S20501   6.544   3.675   3.689 -0.1926 -1.0091 -1.1406
  180SLPC   C2420502   6.427   3.660   3.865 -0.7047 -0.0074 -0.1385
  180SLPC   H4R20503   6.480   3.564   3.880  1.3371  1.0139 -0.4053
  180SLPC   H4S20504   6.320   3.673   3.893 -0.2128  1.2835  1.3011
  180SLPC   C2520505   6.511   3.750   3.964 -0.0767  0.1208  0.2599
  180SLPC   H5R20506   6.483   3.852   3.930 -1.5125 -0.4120 -0.2415
  180SLPC   H5S20507   6.620   3.728   3.956 -0.2058  0.0956 -2.0844
  180SLPC   C2620508   6.460   3.750   4.107 -0.3848 -0.7659  0.2038
  180SLPC   H6R20509   6.492   3.651   4.146 -0.5844 -1.3377 -1.0157
  180SLPC   H6S20510   6.350   3.763   4.110 -0.1301  1.5416  2.0505
  180SLPC   C2720511   6.516   3.859   4.202 -0.1409 -0.7610  0.0344
  180SLPC   H7R20512   6.446   3.945   4.212 -1.7044 -1.9537 -0.1966
  180SLPC   H7S20513   6.609   3.900   4.158  0.3385  0.9412  2.4528
  180SLPC   C2820514   6.565   3.804   4.334  0.4618  0.0170 -0.1266
  180SLPC   H8R20515   6.646   3.732   4.306  1.5581  0.2926  2.1463
  180SLPC   H8S20516   6.485   3.742   4.378 -1.3475  1.5300 -1.1278
  180SLPC   C2920517   6.622   3.901   4.430 -1.0214 -0.5001  1.0817
  180SLPC   H9R20518   6.673   3.991   4.395  0.6882 -1.2549  1.5070
  180SLPC  C21020519   6.607   3.879   4.562  0.3371  0.4604 -0.0071
  180SLPC  H10R20520   6.647   3.958   4.626 -1.6991  1.4016  0.1818
  180SLPC  C21120521   6.550   3.755   4.634  0.2566 -0.2954 -0.3531
  180SLPC  H11R20522   6.591   3.743   4.737  1.0501  1.4823 -0.4286
  180SLPC  H11S20523   6.591   3.665   4.583  2.6351  0.8058 -0.5034
  180SLPC  C21220524   6.400   3.737   4.632  0.2390 -0.3822  0.0550
  180SLPC  H12R20525   6.376   3.661   4.556  0.3668  1.5176 -2.0085
  180SLPC  C21320526   6.304   3.782   4.712  0.4702  0.0993 -0.3900
  180SLPC  H13R20527   6.202   3.744   4.696  0.5358 -0.3940  0.3286
  180SLPC  C21420528   6.320   3.892   4.817 -0.4148 -0.7999 -0.1166
  180SLPC  H14R20529   6.263   3.982   4.786 -1.7829 -1.9768 -1.1238
  180SLPC  H14S20530   6.426   3.925   4.825 -1.3207  2.5039 -0.0653
  180SLPC  C21520531   6.260   3.859   4.947 -0.2123 -0.3539  0.4694
  180SLPC  H15R20532   6.307   3.770   4.995 -0.4037 -1.7815 -1.8353
  180SLPC  H15S20533   6.153   3.838   4.928  0.2607 -1.3915 -1.2221
  180SLPC  C21620534   6.274   3.981   5.041 -0.2249 -0.2573  0.4357
  180SLPC  H16R20535   6.225   4.072   5.002  3.4836  1.7830  0.1653
  180SLPC  H16S20536   6.380   4.006   5.061 -0.1489  1.1988 -1.5542
  180SLPC  C21720537   6.211   3.939   5.179 -0.0478 -0.7788  0.2952
  180SLPC  H17R20538   6.275   3.853   5.209  2.6944 -0.1784 -3.2006
  180SLPC  H17S20539   6.107   3.902   5.168 -0.1391 -0.2130 -0.9095
  180SLPC  C21820540   6.212   4.049   5.284 -0.3206  0.2078 -0.1921
  180SLPC  H18R20541   6.312   4.044   5.334 -1.1840 -2.5330  1.5165
  180SLPC  H18S20542   6.144   4.031   5.370 -0.7206 -0.9228 -0.7229
  180SLPC  H18T20543   6.199   4.147   5.235 -0.6618  0.3547  0.1875
  180SLPC   C3320544   6.159   4.100   3.841  0.7453 -0.5772  0.2211
  180SLPC   H3X20545   6.240   4.027   3.864  1.8910 -0.3001 -2.5281
  180SLPC   H3Y20546   6.057   4.058   3.829  1.4382 -2.2644 -0.0661
  180SLPC   C3420547   6.134   4.205   3.957  0.1988  1.0808 -0.2479
  180SLPC   H4X20548   6.041   4.265   3.940 -1.3244 -0.5835  1.6767
  180SLPC   H4Y20549   6.215   4.280   3.945  1.2104  0.2053  0.9406
  180SLPC   C3520550   6.125   4.134   4.093  0.9116 -0.6169  0.1403
  180SLPC   H5X20551   6.210   4.063   4.102  1.6827 -0.3887 -3.5801
  180SLPC   H5Y20552   6.038   4.065   4.079  1.2048 -0.6145 -2.1338
  180SLPC   C3620553   6.103   4.215   4.219  0.4588 -0.0272 -0.2152
  180SLPC   H6X20554   6.005   4.264   4.199  0.1869  1.1053  3.3079
  180SLPC   H6Y20555   6.172   4.301   4.228  0.4124  0.1042 -1.0207
  180SLPC   C3720556   6.112   4.140   4.349  0.0813  0.5512  0.3784
  180SLPC   H7X20557   6.202   4.076   4.363  1.3530  1.5866 -2.2327
  180SLPC   H7Y20558   6.029   4.066   4.346  1.6316 -1.3466  1.4932
  180SLPC   C3820559   6.056   4.228   4.455 -0.1997 -0.2232 -0.6031
  180SLPC   H8X20560   5.987   4.166   4.517 -0.5368  0.7333 -0.0017
  180SLPC   H8Y20561   5.988   4.300   4.405 -2.7484  0.3718  3.2508
  180SLPC   C3920562   6.150   4.283   4.552 -0.5884  0.4458 -0.0289
  180SLPC   H9X20563   6.232   4.329   4.493 -0.0633  1.2791  1.2980
  180SLPC   H9Y20564   6.198   4.197   4.603 -0.4396  0.6998  0.2614
  180SLPC  C31020565   6.085   4.374   4.654  0.3133 -0.6036  0.2946
  180SLPC  H10X20566   6.004   4.323   4.709  0.6876 -0.0796  1.3619
  180SLPC  H10Y20567   6.035   4.461   4.607  1.5049 -0.5597 -0.9533
  180SLPC  C31120568   6.182   4.431   4.762 -0.0616 -0.9127  0.8393
  180SLPC  H11X20569   6.270   4.472   4.708 -0.5461  1.1710  1.5287
  180SLPC  H11Y20570   6.219   4.346   4.823  0.8547 -2.5617 -1.8207
  180SLPC  C31220571   6.125   4.546   4.837  0.6220  0.2892  0.1969
  180SLPC  H12X20572   6.039   4.502   4.891  2.4512 -0.0423  3.0694
  180SLPC  H12Y20573   6.086   4.637   4.786  1.8656 -0.0549 -1.4762
  180SLPC  C31320574   6.222   4.601   4.942 -1.0075 -0.8570 -0.0762
  180SLPC  H13X20575   6.169   4.688   4.987 -0.9957 -0.9198  0.0572
  180SLPC  H13Y20576   6.312   4.632   4.884  0.1790  0.6424  2.3938
  180SLPC  C31420577   6.266   4.505   5.056  0.4361 -0.0728 -0.2599
  180SLPC  H14X20578   6.337   4.425   5.028  1.3624  0.4400  0.5520
  180SLPC  H14Y20579   6.174   4.458   5.097  0.7258 -0.3303  0.0967
  180SLPC  C31520580   6.329   4.583   5.179  0.2581 -0.0738  0.0784
  180SLPC  H15X20581   6.261   4.658   5.225  0.9165  0.7373 -0.2504
  180SLPC  H15Y20582   6.412   4.640   5.132  0.3244  0.1953  0.5148
  180SLPC  C31620583   6.382   4.488   5.288 -0.1725 -1.5123  1.4264
  180SLPC  H16X20584   6.445   4.559   5.346 -0.2739  1.3657 -1.6756
  180SLPC  H16Y20585   6.456   4.411   5.258  0.1554 -0.4304 -0.7487
  180SLPC  C31720586   6.278   4.424   5.383 -0.0278  0.0775  0.6628
  180SLPC  H17X20587   6.228   4.341   5.328  2.4176 -1.0860  0.0534
  180SLPC  H17Y20588   6.193   4.495   5.385 -0.1451  0.0420 -1.1981
  180SLPC  C31820589   6.326   4.366   5.521  0.1858 -0.1088 -0.7764
  180SLPC  H18X20590   6.237   4.393   5.581  0.5249 -0.3426 -0.1610
  180SLPC  H18Y20591   6.413   4.427   5.555  0.1760  0.2823 -1.4289
  180SLPC  H18Z20592   6.339   4.256   5.531  1.8179  0.2109  1.6155
  181SLPC     N20593   5.578   2.719   3.208  0.1081  0.4953  0.0240
  181SLPC   C1320594   5.452   2.714   3.294 -0.1998 -0.2312 -0.2296
  181SLPC  H13A20595   5.434   2.802   3.354 -0.0000  0.5884 -1.3275
  181SLPC  H13B20596   5.364   2.703   3.233 -1.0388  2.0313  0.4818
  181SLPC  H13C20597   5.453   2.622   3.352  1.3205  0.0662  0.2685
  181SLPC   C1420598   5.571   2.833   3.122  0.1328 -0.0406  0.0985
  181SLPC  H14A20599   5.574   2.919   3.187 -0.0051  1.0913 -1.3678
  181SLPC  H14B20600   5.655   2.840   3.054  0.0453 -2.3777 -0.3391
  181SLPC  H14C20601   5.477   2.837   3.069  0.4859  0.9078 -0.4723
  181SLPC   C1520602   5.590   2.592   3.121 -0.0032 -0.0111 -0.1704
  181SLPC  H15A20603   5.494   2.581   3.072  0.1986 -2.1781 -0.1738
  181SLPC  H15B20604   5.672   2.590   3.050  1.9174 -3.0523  1.9030
  181SLPC  H15C20605   5.613   2.512   3.189  0.6068  2.7649  3.1310
  181SLPC   C1220606   5.705   2.727   3.292  0.3435  0.4109  0.7723
  181SLPC  H12A20607   5.787   2.719   3.223 -2.2550 -0.9373 -2.4331
  181SLPC  H12B20608   5.716   2.637   3.351 -0.0495  0.5598  1.0827
  181SLPC   C1120609   5.723   2.857   3.371  0.7057  0.7648  1.0709
  181SLPC  H11A20610   5.794   2.827   3.451 -1.7911 -0.2939  3.0525
  181SLPC  H11B20611   5.628   2.883   3.421 -0.8359 -2.0192 -0.1539
  181SLPC     P20612   5.929   2.951   3.241  0.1085  0.1955  0.0547
  181SLPC   O1320613   5.954   2.816   3.187  0.2778  0.5401 -0.2929
  181SLPC   O1420614   5.958   3.066   3.144  0.1514  0.0986 -0.1657
  181SLPC   O1220615   5.776   2.964   3.289  0.3354  0.2470 -0.7960
  181SLPC   O1120616   6.007   2.970   3.374 -0.2539 -0.3821 -0.3647
  181SLPC    C120617   6.033   3.092   3.450  0.3812  0.9640  0.6067
  181SLPC    HA20618   6.116   3.073   3.521  0.7833  2.6080  0.6109
  181SLPC    HB20619   6.060   3.176   3.383 -0.2509 -0.4166 -1.4739
  181SLPC    C220620   5.908   3.129   3.537  0.3713 -0.5069  0.3063
  181SLPC    HS20621   5.816   3.130   3.475  0.6662 -0.0924 -0.1254
  181SLPC   O2120622   5.934   3.269   3.568  0.1501 -0.5974  0.2985
  181SLPC   C2120623   5.839   3.326   3.638 -0.1033 -0.1803 -0.5297
  181SLPC   O2220624   5.734   3.272   3.674  0.2844 -0.0509 -0.2666
  181SLPC   C2220625   5.865   3.476   3.658 -0.0387 -0.6535 -0.5041
  181SLPC   H2R20626   5.945   3.519   3.593  1.5457  0.5724  2.0715
  181SLPC   H2S20627   5.771   3.532   3.638  1.0714  1.4401 -0.1868
  181SLPC    C320628   5.885   3.035   3.662 -0.7042  0.3799  0.4054
  181SLPC    HX20629   5.894   2.938   3.608 -1.0187  0.6527 -0.1515
  181SLPC    HY20630   5.789   3.048   3.715  0.3328  0.3533  2.3581
  181SLPC   O3120631   5.996   3.052   3.762  0.4800 -0.0899  0.2038
  181SLPC   C3120632   5.989   2.966   3.860 -0.8732 -0.8705  0.4136
  181SLPC   O3220633   5.911   2.873   3.860 -1.0269  0.2745  0.1845
  181SLPC   C3220634   6.096   3.003   3.962  0.2995 -0.0561 -0.7289
  181SLPC   H2X20635   6.156   3.090   3.929  0.4723  0.9430  1.9202
  181SLPC   H2Y20636   6.176   2.928   3.947  0.5927  0.3310 -1.1264
  181SLPC   C2320637   5.906   3.500   3.807  0.5481  0.6633  0.1958
  181SLPC   H3R20638   5.827   3.462   3.875 -0.0193 -1.8265 -1.6903
  181SLPC   H3S20639   5.900   3.611   3.809 -1.5534  0.6488 -1.4367
  181SLPC   C2420640   6.035   3.447   3.863 -0.5829 -0.0407  0.3830
  181SLPC   H4R20641   6.123   3.452   3.795  1.1928 -2.1722  2.3229
  181SLPC   H4S20642   6.014   3.341   3.888  0.4104 -0.3406  0.0046
  181SLPC   C2520643   6.088   3.524   3.986 -0.4681 -0.3630  0.1555
  181SLPC   H5R20644   6.094   3.630   3.953 -2.1921 -0.2436  0.1145
  181SLPC   H5S20645   6.189   3.485   4.009 -1.2461 -1.8708  1.2224
  181SLPC   C2620646   6.005   3.501   4.115  0.0402 -0.6859  0.0593
  181SLPC   H6R20647   5.979   3.396   4.141 -0.4590 -0.6073 -0.1120
  181SLPC   H6S20648   5.911   3.553   4.088  1.1656  2.0062  1.0434
  181SLPC   C2720649   6.062   3.569   4.235 -0.1653  0.2857 -0.3434
  181SLPC   H7R20650   5.985   3.576   4.316  0.7467 -1.4456  0.7323
  181SLPC   H7S20651   6.106   3.667   4.209  0.6012  0.4195  1.3434
  181SLPC   C2820652   6.181   3.486   4.302  0.3655  0.7356  0.0118
  181SLPC   H8R20653   6.239   3.554   4.368  0.2219  1.0749 -0.2095
  181SLPC   H8S20654   6.250   3.464   4.219 -1.6273 -1.0180 -1.2975
  181SLPC   C2920655   6.126   3.362   4.370 -0.0603  0.1977  0.0724
  181SLPC   H9R20656   6.089   3.283   4.304 -2.2688  0.0374  1.3899
  181SLPC  C21020657   6.094   3.355   4.504 -0.0063 -0.0040 -0.1149
  181SLPC  H10R20658   6.040   3.265   4.534 -0.6284  0.1508 -0.7438
  181SLPC  C21120659   6.107   3.452   4.617  0.3423  0.0654  0.3586
  181SLPC  H11R20660   6.156   3.547   4.584 -0.5673  0.0104 -1.2214
  181SLPC  H11S20661   6.189   3.418   4.684  0.3610 -1.1477 -0.2508
  181SLPC  C21220662   5.970   3.468   4.683 -0.4217 -0.4328  1.2602
  181SLPC  H12R20663   5.884   3.463   4.614  0.8463 -1.0879 -0.3515
  181SLPC  C21320664   5.948   3.480   4.816  0.0103  0.3438  0.4789
  181SLPC  H13R20665   5.846   3.503   4.852  0.0131  0.2188  0.5654
  181SLPC  C21420666   6.057   3.481   4.925 -0.0125 -0.5919  0.3137
  181SLPC  H14R20667   6.043   3.583   4.968 -0.9021 -0.2888 -0.6642
  181SLPC  H14S20668   6.161   3.479   4.886 -0.4086 -2.0317 -0.7225
  181SLPC  C21520669   6.050   3.371   5.034 -0.3861  0.3298  0.4184
  181SLPC  H15R20670   6.082   3.272   4.995  1.3061  0.4437  1.4445
  181SLPC  H15S20671   5.940   3.359   5.050  0.0863 -1.6857  2.5831
  181SLPC  C21620672   6.133   3.394   5.157 -0.0554 -0.1154 -0.8153
  181SLPC  H16R20673   6.128   3.503   5.182 -1.3052 -0.4299  0.4518
  181SLPC  H16S20674   6.236   3.362   5.132 -0.5273 -3.6496  1.1782
  181SLPC  C21720675   6.091   3.323   5.285  0.4341  0.2205 -0.0359
  181SLPC  H17R20676   6.162   3.369   5.356  2.7604 -0.5368 -1.7626
  181SLPC  H17S20677   6.123   3.217   5.269 -1.4790 -0.2023 -1.3706
  181SLPC  C21820678   5.944   3.320   5.322  0.2964  0.5064 -0.4363
  181SLPC  H18R20679   5.891   3.298   5.227  1.4475  0.1529 -1.0140
  181SLPC  H18S20680   5.914   3.422   5.353 -0.6646 -0.1378  0.8908
  181SLPC  H18T20681   5.910   3.232   5.382 -1.3911  1.0876 -0.4831
  181SLPC   C3320682   6.046   3.014   4.108  0.2629  0.5351 -0.1530
  181SLPC   H3X20683   6.120   3.065   4.173 -0.7572  0.8488  0.7874
  181SLPC   H3Y20684   6.042   2.914   4.155 -1.5595  1.1320  1.0706
  181SLPC   C3420685   5.915   3.084   4.132  0.1576 -0.4608 -0.6270
  181SLPC   H4X20686   5.834   3.048   4.065  1.2650 -0.5504 -1.9641
  181SLPC   H4Y20687   5.933   3.189   4.101 -0.1044 -1.0850 -3.1069
  181SLPC   C3520688   5.868   3.094   4.276  0.5058 -0.4138  0.4108
  181SLPC   H5X20689   5.952   3.122   4.342 -0.8427  1.7629  1.2901
  181SLPC   H5Y20690   5.813   3.001   4.301  0.3377 -0.4045  0.0796
  181SLPC   C3620691   5.752   3.199   4.297  0.1222  0.0677  0.2533
  181SLPC   H6X20692   5.679   3.175   4.217  0.2105  1.5123 -0.2959
  181SLPC   H6Y20693   5.797   3.299   4.277 -1.4376  0.8082  0.3651
  181SLPC   C3720694   5.690   3.196   4.439  0.3599  0.2607  0.3996
  181SLPC   H7X20695   5.761   3.179   4.523  2.3494  1.8176 -0.8685
  181SLPC   H7Y20696   5.621   3.110   4.448 -1.4730  1.5605 -0.6635
  181SLPC   C3820697   5.609   3.326   4.464 -0.3145  0.4247 -0.6680
  181SLPC   H8X20698   5.522   3.332   4.395 -2.0480  2.5075  1.5163
  181SLPC   H8Y20699   5.661   3.416   4.424  0.6638 -0.0728 -0.5498
  181SLPC   C3920700   5.566   3.336   4.608  0.0743 -0.8146 -0.4368
  181SLPC   H9X20701   5.661   3.340   4.665 -0.4759  0.6956  0.4172
  181SLPC   H9Y20702   5.514   3.242   4.637 -0.4238 -0.3635  0.1628
  181SLPC  C31020703   5.482   3.456   4.644 -0.0430 -0.0611 -0.0763
  181SLPC  H10X20704   5.377   3.426   4.625  0.1007 -0.3957 -0.3462
  181SLPC  H10Y20705   5.501   3.540   4.575 -0.8923 -0.1105 -0.3782
  181SLPC  C31120706   5.513   3.494   4.790  0.0421  0.2737  0.1474
  181SLPC  H11X20707   5.581   3.420   4.836  0.1463 -0.0310 -0.4878
  181SLPC  H11Y20708   5.417   3.479   4.843  0.0625 -0.1259  0.0742
  181SLPC  C31220709   5.575   3.632   4.811 -0.0983 -0.3577 -0.1192
  181SLPC  H12X20710   5.526   3.699   4.737 -0.2050  2.4367  2.2601
  181SLPC  H12Y20711   5.681   3.618   4.783 -0.1729 -2.7063  0.5630
  181SLPC  C31320712   5.561   3.678   4.954  0.0443 -0.0018  0.2522
  181SLPC  H13X20713   5.457   3.712   4.975 -0.3315 -0.4750 -0.7675
  181SLPC  H13Y20714   5.625   3.766   4.978 -0.3918  0.5725 -0.6295
  181SLPC  C31420715   5.609   3.564   5.056  0.9719 -0.0230  0.2966
  181SLPC  H14X20716   5.707   3.524   5.022  0.7587 -2.0812  1.9437
  181SLPC  H14Y20717   5.538   3.480   5.073  0.2744  0.4614 -0.1836
  181SLPC  C31520718   5.627   3.638   5.189  0.6857 -0.0871  0.4541
  181SLPC  H15X20719   5.603   3.573   5.275  1.1773 -0.3147  0.4245
  181SLPC  H15Y20720   5.547   3.715   5.185  2.3087  1.8152  2.2570
  181SLPC  C31620721   5.766   3.690   5.213 -0.0473 -0.0108  0.3368
  181SLPC  H16X20722   5.784   3.791   5.171  1.0447  0.0062  0.8362
  181SLPC  H16Y20723   5.839   3.616   5.176  3.4875  2.3203  2.1225
  181SLPC  C31720724   5.804   3.715   5.366  0.0322  0.0946 -0.5978
  181SLPC  H17X20725   5.777   3.623   5.423 -1.2618 -0.1098 -1.4930
  181SLPC  H17Y20726   5.748   3.802   5.406 -1.3144 -0.1239 -1.9155
  181SLPC  C31820727   5.962   3.740   5.382  0.7066 -0.5195 -0.1831
  181SLPC  H18X20728   5.991   3.832   5.327 -0.2688 -0.6172 -0.8908
  181SLPC  H18Y20729   6.010   3.657   5.326 -0.0411  0.2557 -2.0613
  181SLPC  H18Z20730   5.979   3.750   5.492 -2.4182 -3.0907  0.6922
  182SLPC     N20731   3.254   3.763   2.875  0.3118  0.3012 -0.5424
  182SLPC   C1320732   3.320   3.690   2.767  0.6584  0.0254 -0.4092
  182SLPC  H13A20733   3.424   3.709   2.745  0.8689  0.0806  0.5729
  182SLPC  H13B20734   3.308   3.584   2.782  0.0470  0.3377  1.6697
  182SLPC  H13C20735   3.270   3.716   2.675  0.4957 -1.1089 -0.6607
  182SLPC   C1420736   3.306   3.720   3.004  0.8454  0.3149  0.2236
  182SLPC  H14A20737   3.298   3.613   3.019  0.8051  0.4012  0.8404
  182SLPC  H14B20738   3.407   3.760   3.007  1.2930 -0.8191  1.6709
  182SLPC  H14C20739   3.251   3.764   3.086  0.4887  0.5286 -0.1286
  182SLPC   C1520740   3.116   3.714   2.860 -0.0406 -0.1038  0.6942
  182SLPC  H15A20741   3.088   3.717   2.755 -0.6667  1.2422  0.8798
  182SLPC  H15B20742   3.097   3.622   2.913 -1.1565 -0.9011 -1.0060
  182SLPC  H15C20743   3.049   3.783   2.908 -0.6863  0.9680 -1.6124
  182SLPC   C1220744   3.259   3.913   2.860 -0.4224  0.1377  0.3554
  182SLPC  H12A20745   3.215   3.950   2.769 -1.5743  1.9807  1.5680
  182SLPC  H12B20746   3.364   3.937   2.854  0.2256 -2.6257 -0.7538
  182SLPC   C1120747   3.202   3.999   2.971 -0.5829  0.5225  0.0355
  182SLPC  H11A20748   3.220   4.105   2.943  2.7201 -0.1839 -0.9869
  182SLPC  H11B20749   3.258   3.983   3.066 -1.0887  0.3472  0.3061
  182SLPC     P20750   2.959   4.090   3.034  0.2315 -0.1266 -0.1341
  182SLPC   O1320751   2.963   4.209   2.951  0.4083  0.1121  0.1829
  182SLPC   O1420752   2.828   4.017   3.035  0.1953 -0.8917 -0.2775
  182SLPC   O1220753   3.062   3.977   2.989  0.2659  0.0738 -0.3037
  182SLPC   O1120754   2.994   4.140   3.184 -0.4745 -0.2478 -0.2491
  182SLPC    C120755   3.125   4.176   3.229  0.3654  0.1571  0.6111
  182SLPC    HA20756   3.181   4.082   3.248  0.9523  0.1603 -0.9447
  182SLPC    HB20757   3.185   4.226   3.151 -0.8000 -0.2060 -0.5616
  182SLPC    C220758   3.133   4.272   3.354 -0.0295 -0.3519  0.5594
  182SLPC    HS20759   3.237   4.295   3.387 -0.2927  0.5342  0.7807
  182SLPC   O2120760   3.059   4.226   3.462 -0.5096 -0.0647  0.8151
  182SLPC   C2120761   3.121   4.131   3.535 -0.0974 -0.0218 -0.0480
  182SLPC   O2220762   3.233   4.087   3.517 -0.5312 -0.3112  0.1240
  182SLPC   C2220763   3.025   4.071   3.631 -0.6226  0.0305  1.4206
  182SLPC   H2R20764   2.928   4.059   3.579 -0.3087  2.5460  0.1084
  182SLPC   H2S20765   3.055   3.967   3.654 -1.6491 -0.7101 -0.4296
  182SLPC    C320766   3.077   4.408   3.296  0.6379  0.4265  0.0251
  182SLPC    HX20767   2.979   4.403   3.244  0.3106  2.5180  0.3767
  182SLPC    HY20768   3.156   4.442   3.226  0.5949 -1.6455 -1.1316
  182SLPC   O3120769   3.061   4.505   3.402 -0.0567 -0.0591 -0.1900
  182SLPC   C3120770   2.940   4.512   3.457  0.3636 -0.0625  0.3340
  182SLPC   O3220771   2.840   4.448   3.429  0.1762  0.2425 -0.0191
  182SLPC   C3220772   2.949   4.598   3.580 -0.1656 -0.4207  0.3550
  182SLPC   H2X20773   2.887   4.571   3.668  0.7207 -1.0448  0.8013
  182SLPC   H2Y20774   2.928   4.699   3.538  1.2110 -0.8975 -1.5901
  182SLPC   C2320775   3.014   4.149   3.759 -0.0911  0.1136 -1.2455
  182SLPC   H3R20776   3.113   4.192   3.784 -0.7126  0.6368  0.3840
  182SLPC   H3S20777   2.980   4.079   3.837  2.9372 -1.4720 -1.1858
  182SLPC   C2420778   2.900   4.247   3.758 -0.5907 -0.1868 -0.1988
  182SLPC   H4R20779   2.821   4.186   3.709 -0.1858 -0.0755 -1.0102
  182SLPC   H4S20780   2.927   4.332   3.691 -0.0221  1.1516  1.6394
  182SLPC   C2520781   2.863   4.301   3.893  0.0302 -0.2054 -0.4483
  182SLPC   H5R20782   2.826   4.226   3.966  0.6956 -0.8316 -0.7344
  182SLPC   H5S20783   2.775   4.368   3.884 -0.5474 -1.0514 -1.3360
  182SLPC   C2620784   2.982   4.365   3.969 -0.0793  0.4914  0.6883
  182SLPC   H6R20785   3.052   4.415   3.898  0.7119 -1.1328  0.2715
  182SLPC   H6S20786   3.046   4.285   4.012  0.7524  1.2572  0.9081
  182SLPC   C2720787   2.946   4.452   4.085  0.6469 -0.1431 -0.1665
  182SLPC   H7R20788   2.888   4.542   4.056 -0.8270 -0.6387  1.0838
  182SLPC   H7S20789   3.040   4.485   4.133 -0.0450 -0.8198  1.7573
  182SLPC   C2820790   2.855   4.378   4.189 -0.6430  0.1591 -0.4812
  182SLPC   H8R20791   2.907   4.284   4.219 -0.3197  0.7597  0.9283
  182SLPC   H8S20792   2.754   4.358   4.149 -1.3173 -2.1283  2.0764
  182SLPC   C2920793   2.841   4.450   4.321 -0.7277  0.2134  0.2028
  182SLPC   H9R20794   2.778   4.540   4.326  0.9150  1.4766 -0.6445
  182SLPC  C21020795   2.908   4.416   4.437  0.1304  0.4938 -0.1668
  182SLPC  H10R20796   2.877   4.477   4.524 -0.6508 -1.3048  0.8656
  182SLPC  C21120797   2.993   4.296   4.463 -0.3074 -0.6300  0.0251
  182SLPC  H11R20798   3.076   4.330   4.529 -0.6894 -0.3666  0.3805
  182SLPC  H11S20799   3.048   4.265   4.372  1.2833 -1.8336  1.3297
  182SLPC  C21220800   2.911   4.187   4.537 -0.8402  0.2552  0.3591
  182SLPC  H12R20801   2.825   4.154   4.478  0.7969  0.9006 -2.5529
  182SLPC  C21320802   2.941   4.120   4.653 -0.0248 -0.2835  0.3250
  182SLPC  H13R20803   2.874   4.035   4.670 -0.8659 -0.2216 -2.2656
  182SLPC  C21420804   3.062   4.135   4.738 -0.0510 -0.3035 -0.3251
  182SLPC  H14R20805   3.097   4.240   4.736 -0.7213 -0.0829 -0.7558
  182SLPC  H14S20806   3.144   4.072   4.696 -0.6662 -0.5809 -1.1249
  182SLPC  C21520807   3.034   4.110   4.891 -0.1667  0.0169  0.3685
  182SLPC  H15R20808   3.130   4.099   4.946 -0.2164 -1.1467  0.2341
  182SLPC  H15S20809   2.986   4.011   4.903  3.3050 -1.5951  2.3130
  182SLPC  C21620810   2.956   4.223   4.948  0.4688  0.2943 -0.7122
  182SLPC  H16R20811   2.863   4.240   4.889 -1.4347  0.7636  2.1603
  182SLPC  H16S20812   3.014   4.317   4.941  0.6451  0.2206 -0.2954
  182SLPC  C21720813   2.918   4.205   5.098  0.7280  0.3055  0.4509
  182SLPC  H17R20814   2.851   4.117   5.099 -1.6367  1.9482  3.4356
  182SLPC  H17S20815   2.866   4.296   5.136  0.4466 -0.6515  2.4720
  182SLPC  C21820816   3.025   4.152   5.195  0.0798  0.4911  0.0989
  182SLPC  H18R20817   3.067   4.059   5.153  0.3328 -0.7516  2.8618
  182SLPC  H18S20818   2.978   4.142   5.295  0.5054  0.0370  0.2567
  182SLPC  H18T20819   3.111   4.220   5.214 -0.3497  0.3753  3.0487
  182SLPC   C3320820   3.091   4.617   3.630 -0.0604 -0.1041 -0.1131
  182SLPC   H3X20821   3.151   4.637   3.539 -0.4163  0.9568 -0.1263
  182SLPC   H3Y20822   3.141   4.533   3.682 -0.7924 -0.7849 -0.4754
  182SLPC   C3420823   3.105   4.742   3.716  0.3709 -0.2824  0.7658
  182SLPC   H4X20824   3.059   4.829   3.663  1.7435 -0.0910 -0.1633
  182SLPC   H4Y20825   3.208   4.769   3.746  0.2274 -0.5479  1.5335
  182SLPC   C3520826   3.030   4.725   3.854  0.1897 -0.3738  0.0553
  182SLPC   H5X20827   3.077   4.646   3.917 -0.8889 -0.9897  0.1248
  182SLPC   H5Y20828   2.925   4.691   3.839  0.5740 -0.6305 -2.4354
  182SLPC   C3620829   3.029   4.852   3.933 -0.6637 -0.1681  0.2094
  182SLPC   H6X20830   3.003   4.935   3.864 -0.9213 -0.1681  0.3048
  182SLPC   H6Y20831   3.134   4.879   3.957 -0.9632  1.8453 -0.5796
  182SLPC   C3720832   2.926   4.854   4.048 -0.0380 -0.1527  0.2602
  182SLPC   H7X20833   2.832   4.800   4.024  0.5056 -1.9042  1.8356
  182SLPC   H7Y20834   2.903   4.963   4.054 -1.5684 -0.4211 -0.2813
  182SLPC   C3820835   2.985   4.831   4.185 -0.5548 -0.0013  0.5202
  182SLPC   H8X20836   3.075   4.890   4.216  1.0578 -1.6829 -0.7442
  182SLPC   H8Y20837   3.022   4.727   4.176  2.0034  0.8107  0.8609
  182SLPC   C3920838   2.880   4.834   4.297 -0.8902 -0.2135  0.1484
  182SLPC   H9X20839   2.807   4.751   4.282 -1.2589  0.0266  0.5679
  182SLPC   H9Y20840   2.829   4.932   4.297 -2.3654 -0.9437 -0.4365
  182SLPC  C31020841   2.935   4.812   4.444 -0.0273  0.2852 -0.0663
  182SLPC  H10X20842   2.992   4.902   4.477 -0.7224  1.3801 -1.6865
  182SLPC  H10Y20843   3.008   4.729   4.440  0.3696  0.6674 -1.1089
  182SLPC  C31120844   2.822   4.775   4.534 -0.5533 -0.6699  0.2560
  182SLPC  H11X20845   2.746   4.704   4.495 -3.0040  0.8186  2.0889
  182SLPC  H11Y20846   2.764   4.869   4.537  0.7287  0.3108 -2.4177
  182SLPC  C31220847   2.866   4.746   4.675 -0.8951  0.6684 -0.1904
  182SLPC  H12X20848   2.893   4.840   4.728 -1.0544  1.5072 -1.5482
  182SLPC  H12Y20849   2.960   4.689   4.682 -0.2963  1.7992  1.6067
  182SLPC  C31320850   2.746   4.676   4.750  0.2042  0.8612  0.4492
  182SLPC  H13X20851   2.700   4.608   4.675  0.6318 -0.0251  0.9703
  182SLPC  H13Y20852   2.681   4.762   4.778 -1.3351 -0.4132  0.9508
  182SLPC  C31420853   2.790   4.599   4.875 -0.1764 -0.2542 -0.8238
  182SLPC  H14X20854   2.847   4.507   4.849  0.5190  0.0338 -0.3531
  182SLPC  H14Y20855   2.693   4.566   4.917 -1.2290  1.6673 -1.5875
  182SLPC  C31520856   2.874   4.684   4.966 -0.7412 -0.0418  0.1286
  182SLPC  H15X20857   2.823   4.782   4.977 -0.2307  0.3062 -0.5695
  182SLPC  H15Y20858   2.968   4.711   4.914 -0.2152 -0.8358  0.6418
  182SLPC  C31620859   2.890   4.626   5.110 -0.8938  0.1534 -0.5950
  182SLPC  H16X20860   2.933   4.525   5.098  0.7862  1.1094 -3.8870
  182SLPC  H16Y20861   2.790   4.604   5.153  0.2199 -1.5642  1.2749
  182SLPC  C31720862   2.971   4.726   5.200  0.1125  1.0782 -0.1209
  182SLPC  H17X20863   2.908   4.817   5.205  1.2229  1.8462  0.1505
  182SLPC  H17Y20864   3.068   4.754   5.155  0.2013 -0.2954 -0.8483
  182SLPC  C31820865   2.985   4.665   5.342 -0.1106 -0.5974 -1.0395
  182SLPC  H18X20866   3.068   4.592   5.343  0.1222 -0.3287 -0.7101
  182SLPC  H18Y20867   2.895   4.608   5.375 -0.5732  0.6650 -0.0252
  182SLPC  H18Z20868   3.004   4.749   5.413  0.4634 -0.0506 -1.8330
  183SLPC     N20869   3.290   0.252   2.671  0.5501  0.1088 -0.0427
  183SLPC   C1320870   3.182   0.166   2.722  0.5259  0.2939  0.0352
  183SLPC  H13A20871   3.211   0.098   2.801  0.1718 -1.0522 -0.9475
  183SLPC  H13B20872   3.098   0.219   2.765  1.3768  0.8660  1.0512
  183SLPC  H13C20873   3.148   0.098   2.645  1.5616 -1.8818  1.4115
  183SLPC   C1420874   3.217   0.371   2.608 -0.3333  0.0435 -0.4142
  183SLPC  H14A20875   3.128   0.341   2.555 -0.5698  0.8551 -0.4841
  183SLPC  H14B20876   3.173   0.433   2.685 -1.5299 -0.8656 -0.3291
  183SLPC  H14C20877   3.286   0.430   2.551  0.6406  0.6726  1.3354
  183SLPC   C1520878   3.373   0.178   2.571  0.5908  0.0676  0.8063
  183SLPC  H15A20879   3.456   0.239   2.542  0.5625 -0.5693 -0.7349
  183SLPC  H15B20880   3.415   0.086   2.609 -1.0884 -0.9247  0.3832
  183SLPC  H15C20881   3.325   0.150   2.478  1.3128  1.6774 -0.0844
  183SLPC   C1220882   3.365   0.305   2.791 -0.3443 -0.2380 -0.4985
  183SLPC  H12A20883   3.301   0.377   2.839 -0.5676  1.2941 -2.9495
  183SLPC  H12B20884   3.450   0.363   2.758 -1.3262  1.2198 -0.5482
  183SLPC   C1120885   3.413   0.201   2.897 -0.0032  0.4251 -0.7093
  183SLPC  H11A20886   3.328   0.150   2.948  1.0634 -1.3072 -0.5900
  183SLPC  H11B20887   3.468   0.254   2.977  1.2594  0.4171 -1.5504
  183SLPC     P20888   3.651   0.120   2.823  0.1683  0.0278 -0.0764
  183SLPC   O1320889   3.696   0.024   2.725 -0.2148 -0.4870  0.2578
  183SLPC   O1420890   3.683   0.261   2.801  0.7861 -0.2213  0.3624
  183SLPC   O1220891   3.494   0.102   2.839 -0.2630 -0.1566 -0.1295
  183SLPC   O1120892   3.705   0.078   2.963 -0.4570  0.5049  0.3287
  183SLPC    C120893   3.724  -0.058   2.995 -0.1397  0.3973 -0.8029
  183SLPC    HA20894   3.753  -0.126   2.911  1.8110 -0.2510  0.3234
  183SLPC    HB20895   3.815  -0.071   3.058  1.2494 -0.0178 -2.7875
  183SLPC    C220896   3.599  -0.123   3.058 -0.2525 -1.0146 -0.3658
  183SLPC    HS20897   3.519  -0.113   2.982  0.5452  0.1853 -1.0770
  183SLPC   O2120898   3.566  -0.037   3.176 -0.6130  0.7027  0.3253
  183SLPC   C2120899   3.447  -0.057   3.235  0.5593  0.2924 -0.1395
  183SLPC   O2220900   3.361  -0.133   3.200 -0.5240  0.4128 -0.0113
  183SLPC   C2220901   3.427   0.053   3.336  1.0979 -0.7948 -0.5145
  183SLPC   H2R20902   3.526   0.087   3.374  1.3585 -0.1280 -1.7299
  183SLPC   H2S20903   3.389   0.142   3.282 -0.5768 -0.6982  0.7337
  183SLPC    C320904   3.633  -0.270   3.084  0.0942 -0.4379 -0.4843
  183SLPC    HX20905   3.658  -0.327   2.992  0.9836 -0.8431 -0.0018
  183SLPC    HY20906   3.541  -0.320   3.122  1.3982 -1.6619  1.1763
  183SLPC   O3120907   3.748  -0.284   3.167  0.0180  0.2158 -0.1252
  183SLPC   C3120908   3.717  -0.276   3.297  0.7536  0.3971 -0.0374
  183SLPC   O3220909   3.605  -0.276   3.343  0.0025  0.2590 -0.0995
  183SLPC   C3220910   3.847  -0.268   3.373 -1.0837  0.5286  0.4554
  183SLPC   H2X20911   3.899  -0.172   3.356 -1.1162  0.6999  1.2620
  183SLPC   H2Y20912   3.912  -0.348   3.332  1.0944  0.9794  2.8047
  183SLPC   C2320913   3.320   0.034   3.452  0.1504  0.3878  0.3818
  183SLPC   H3R20914   3.346  -0.046   3.525 -2.4810  0.6252  1.6908
  183SLPC   H3S20915   3.225   0.008   3.402 -1.0707  1.0589  2.2459
  183SLPC   C2420916   3.285   0.162   3.526 -0.8712  0.1481  0.9196
  183SLPC   H4R20917   3.271   0.245   3.455  0.1743  2.5402  3.3351
  183SLPC   H4S20918   3.377   0.191   3.582  0.6618  0.4999 -1.6104
  183SLPC   C2520919   3.159   0.143   3.618 -0.0825 -0.2976  0.2199
  183SLPC   H5R20920   3.156   0.047   3.674 -1.3577  0.1220  0.9025
  183SLPC   H5S20921   3.071   0.139   3.551 -0.0619 -0.4064  0.1993
  183SLPC   C2620922   3.135   0.268   3.708  0.6485 -0.2967 -0.6459
  183SLPC   H6R20923   3.107   0.354   3.643 -1.7119 -1.2645 -1.0089
  183SLPC   H6S20924   3.219   0.306   3.770  0.3328 -2.0078  0.9241
  183SLPC   C2720925   3.018   0.255   3.814  0.2464  1.0684  0.5074
  183SLPC   H7R20926   3.056   0.189   3.894 -0.4226  0.5417  0.4047
  183SLPC   H7S20927   2.936   0.207   3.755 -1.4189  2.5854  1.4837
  183SLPC   C2820928   2.961   0.387   3.871  0.3370  0.3315  0.0650
  183SLPC   H8R20929   2.875   0.357   3.935  0.8048 -3.0076 -0.6640
  183SLPC   H8S20930   2.916   0.448   3.790 -0.8215  0.4412  0.7573
  183SLPC   C2920931   3.068   0.467   3.940 -0.1860  0.0256 -0.6238
  183SLPC   H9R20932   3.136   0.525   3.877 -0.8002 -0.2385 -1.5421
  183SLPC  C21020933   3.075   0.477   4.074 -0.4659 -0.0125  0.3291
  183SLPC  H10R20934   3.156   0.537   4.118  1.0797 -2.0800  0.4634
  183SLPC  C21120935   2.985   0.399   4.175  0.7703  0.8132 -0.0032
  183SLPC  H11R20936   3.047   0.343   4.248  1.5060  0.8663 -0.5696
  183SLPC  H11S20937   2.940   0.313   4.123  0.1754  0.4028  1.1698
  183SLPC  C21220938   2.877   0.471   4.251 -0.5065 -0.3338  0.5024
  183SLPC  H12R20939   2.782   0.482   4.196  0.3376 -2.4644 -1.5763
  183SLPC  C21320940   2.897   0.529   4.372  0.0839  0.0609  0.0812
  183SLPC  H13R20941   2.810   0.575   4.420  2.1396  2.6560  1.5264
  183SLPC  C21420942   3.021   0.512   4.459  0.6189 -0.4615 -0.9785
  183SLPC  H14R20943   3.110   0.536   4.396  0.2696 -1.3651 -1.8345
  183SLPC  H14S20944   3.043   0.408   4.490 -1.3033 -0.5524  0.2844
  183SLPC  C21520945   3.025   0.612   4.587 -0.1123  0.1855  0.3064
  183SLPC  H15R20946   3.014   0.712   4.539 -0.5762  0.9793  1.9667
  183SLPC  H15S20947   3.121   0.603   4.642 -0.0080 -0.5650  0.0077
  183SLPC  C21620948   2.910   0.592   4.687 -0.7223  0.4316 -0.4456
  183SLPC  H16R20949   2.923   0.489   4.727 -0.0864 -0.1132 -1.9903
  183SLPC  H16S20950   2.808   0.592   4.642 -1.2868 -1.1490  0.7385
  183SLPC  C21720951   2.915   0.693   4.801 -0.5755  0.2361  0.1830
  183SLPC  H17R20952   2.898   0.795   4.760 -3.2216 -0.5025 -0.7618
  183SLPC  H17S20953   3.017   0.709   4.842 -0.8450  1.5939  0.3536
  183SLPC  C21820954   2.808   0.663   4.911  0.3446  0.5328  0.5529
  183SLPC  H18R20955   2.827   0.567   4.963 -2.3667 -0.1228  0.4459
  183SLPC  H18S20956   2.709   0.658   4.861 -0.0384  0.1321  1.3439
  183SLPC  H18T20957   2.810   0.739   4.992  0.1174 -0.5098  1.5535
  183SLPC   C3320958   3.816  -0.324   3.512  0.2952  0.1745  0.2854
  183SLPC   H3X20959   3.793  -0.432   3.503  1.9744 -0.0809 -2.2096
  183SLPC   H3Y20960   3.733  -0.268   3.559 -0.7248 -0.8057 -0.3103
  183SLPC   C3420961   3.939  -0.307   3.608  0.1556 -0.7220  0.2030
  183SLPC   H4X20962   3.935  -0.212   3.665  0.9017 -0.3813 -0.2931
  183SLPC   H4Y20963   4.023  -0.303   3.534 -0.9830 -0.5674 -1.1246
  183SLPC   C3520964   3.950  -0.422   3.705  0.0503 -0.0550  0.2439
  183SLPC   H5X20965   4.036  -0.390   3.767  0.5975 -1.3606  0.1834
  183SLPC   H5Y20966   3.977  -0.514   3.648 -0.3006 -0.7959  1.2531
  183SLPC   C3620967   3.824  -0.447   3.794 -0.1304  0.8258 -0.7430
  183SLPC   H6X20968   3.852  -0.543   3.843 -0.1070  0.9305 -0.5504
  183SLPC   H6Y20969   3.738  -0.486   3.737  0.4783 -0.6638 -0.6887
  183SLPC   C3720970   3.800  -0.342   3.904 -0.5056  0.1045  0.4731
  183SLPC   H7X20971   3.773  -0.248   3.852  2.8862 -0.0070 -1.8746
  183SLPC   H7Y20972   3.900  -0.334   3.953 -0.4153 -1.4636  0.6083
  183SLPC   C3820973   3.705  -0.387   4.020 -0.2646 -0.3355  0.4676
  183SLPC   H8X20974   3.741  -0.473   4.079 -2.5367 -1.1406  0.7870
  183SLPC   H8Y20975   3.607  -0.413   3.975  0.3803  1.7786 -2.5274
  183SLPC   C3920976   3.699  -0.278   4.127 -0.3154  0.0096  0.5546
  183SLPC   H9X20977   3.664  -0.183   4.079 -2.0320 -0.3094  1.0895
  183SLPC   H9Y20978   3.803  -0.271   4.165 -0.9701 -4.8704  4.1292
  183SLPC  C31020979   3.606  -0.316   4.246  0.4775 -0.5547  0.2571
  183SLPC  H10X20980   3.612  -0.228   4.314  0.5482  0.0249 -0.4880
  183SLPC  H10Y20981   3.661  -0.401   4.294  1.1601 -0.5592 -0.5065
  183SLPC  C31120982   3.456  -0.330   4.212 -0.1495  0.4266 -0.6698
  183SLPC  H11X20983   3.411  -0.362   4.308 -1.4066  0.5952 -1.1928
  183SLPC  H11Y20984   3.446  -0.407   4.133  0.8118 -0.1351 -0.2546
  183SLPC  C31220985   3.389  -0.201   4.163 -0.4095  0.3485 -0.9503
  183SLPC  H12X20986   3.433  -0.160   4.070  1.2778  0.1455 -0.2684
  183SLPC  H12Y20987   3.394  -0.132   4.250  0.9978 -0.9316  0.0330
  183SLPC  C31320988   3.245  -0.234   4.135  0.7660 -0.5984  1.1603
  183SLPC  H13X20989   3.198  -0.258   4.233  2.3193 -0.7692  1.8786
  183SLPC  H13Y20990   3.229  -0.331   4.082  2.7633  1.1562 -3.1461
  183SLPC  C31420991   3.166  -0.129   4.043  0.1413  0.0413  0.4793
  183SLPC  H14X20992   3.225  -0.112   3.950  0.2718  0.5379  0.6467
  183SLPC  H14Y20993   3.170  -0.037   4.106  0.8096  0.3608 -0.0054
  183SLPC  C31520994   3.023  -0.178   4.021  0.2955 -0.1308 -0.1351
  183SLPC  H15X20995   2.988  -0.227   4.114  4.2014 -0.0542  1.5344
  183SLPC  H15Y20996   3.016  -0.251   3.938  0.4309 -0.0058 -0.2567
  183SLPC  C31620997   2.917  -0.062   3.992 -0.2171 -0.3993  0.7340
  183SLPC  H16X20998   2.816  -0.108   3.977 -0.1327 -0.7467  1.1969
  183SLPC  H16Y20999   2.955  -0.001   3.908  0.0876  2.6997  2.9733
  183SLPC  C31721000   2.916   0.046   4.106 -0.3098 -0.0050  0.0628
  183SLPC  H17X21001   2.845   0.124   4.073  0.3218  0.2110 -0.8245
  183SLPC  H17Y21002   3.015   0.095   4.118 -1.1675  1.8274 -0.1154
  183SLPC  C31821003   2.883  -0.002   4.243  0.0013 -0.1314  0.6011
  183SLPC  H18X21004   2.859   0.086   4.307 -0.5053 -0.3890  0.7765
  183SLPC  H18Y21005   2.970  -0.050   4.293  0.9236 -1.0911 -1.8072
  183SLPC  H18Z21006   2.798  -0.073   4.252  0.0966 -0.2492  0.5665
  184SLPC     N21007   2.125   0.051   2.650  0.4514 -0.2761 -0.7341
  184SLPC   C1321008   2.033   0.154   2.595 -0.4972  0.1405 -0.1190
  184SLPC  H13A21009   1.989   0.117   2.504  1.3687  1.1109 -1.4849
  184SLPC  H13B21010   1.952   0.174   2.664  0.0901 -0.1884  0.6800
  184SLPC  H13C21011   2.079   0.251   2.579 -0.7170 -0.0062 -1.7900
  184SLPC   C1421012   2.245   0.066   2.562 -1.0914  0.2649  0.4169
  184SLPC  H14A21013   2.333   0.035   2.617 -0.2659  0.7670 -0.5983
  184SLPC  H14B21014   2.238  -0.010   2.486 -0.9475 -1.9196  2.4630
  184SLPC  H14C21015   2.268   0.167   2.531 -1.8941  0.2166 -0.3772
  184SLPC   C1521016   2.050  -0.080   2.637 -0.0903  0.3237 -0.2727
  184SLPC  H15A21017   1.953  -0.073   2.686 -0.4100 -1.1765 -0.6639
  184SLPC  H15B21018   2.031  -0.100   2.533  0.7395  0.0081 -0.3724
  184SLPC  H15C21019   2.111  -0.151   2.690 -0.7378  0.2731  0.4300
  184SLPC   C1221020   2.156   0.075   2.805 -0.2103  0.7667  0.1688
  184SLPC  H12A21021   2.233   0.001   2.819 -0.3265  0.7178  0.5607
  184SLPC  H12B21022   2.069   0.053   2.865 -0.0744  0.7890  0.3718
  184SLPC   C1121023   2.210   0.210   2.849 -0.1745 -0.5560 -0.6329
  184SLPC  H11A21024   2.227   0.210   2.959 -1.7744 -0.6360 -0.3475
  184SLPC  H11B21025   2.129   0.286   2.842  0.4878  0.3335  0.8224
  184SLPC     P21026   2.472   0.211   2.803  0.0226  0.0611 -0.4235
  184SLPC   O1321027   2.498   0.085   2.731  0.7028 -0.2571 -0.3658
  184SLPC   O1421028   2.567   0.326   2.771  0.2862 -0.2982  0.6304
  184SLPC   O1221029   2.324   0.254   2.779  0.0087  0.2072  0.2489
  184SLPC   O1121030   2.486   0.186   2.964 -0.2904 -0.6270  0.4760
  184SLPC    C121031   2.495   0.280   3.069  0.1813  0.4283 -0.5758
  184SLPC    HA21032   2.505   0.385   3.035  3.9287  1.4247  2.8345
  184SLPC    HB21033   2.402   0.263   3.126  0.1129 -2.7910 -1.4727
  184SLPC    C221034   2.623   0.248   3.150 -0.0661 -0.1695  0.0971
  184SLPC    HS21035   2.698   0.217   3.075 -0.1650 -1.4392  0.4936
  184SLPC   O2121036   2.589   0.146   3.244 -0.1591 -0.4560  0.0715
  184SLPC   C2121037   2.690   0.080   3.291 -0.2591  0.1141 -0.6511
  184SLPC   O2221038   2.811   0.104   3.280  0.1084 -0.3097  0.0876
  184SLPC   C2221039   2.630  -0.032   3.369 -0.1856  0.5163 -0.0211
  184SLPC   H2R21040   2.542   0.011   3.421  1.3628  0.7998  2.5758
  184SLPC   H2S21041   2.611  -0.114   3.297  3.4927 -1.3646  0.8823
  184SLPC    C321042   2.672   0.371   3.221  0.2227 -0.0758 -0.5028
  184SLPC    HX21043   2.711   0.444   3.147 -0.7212  0.5184 -0.4339
  184SLPC    HY21044   2.760   0.343   3.281  0.3269  0.4162 -0.4214
  184SLPC   O3121045   2.574   0.431   3.310  0.3723  0.5150  0.2838
  184SLPC   C3121046   2.614   0.537   3.368 -0.6318 -0.3242  0.7049
  184SLPC   O3221047   2.712   0.606   3.337 -0.0559 -0.1250  0.2879
  184SLPC   C3221048   2.515   0.572   3.478  0.5111 -1.2057  0.6958
  184SLPC   H2X21049   2.415   0.547   3.436  0.9441  0.4559 -1.5173
  184SLPC   H2Y21050   2.528   0.682   3.487  0.4198 -1.2751  1.7316
  184SLPC   C2321051   2.733  -0.081   3.479  0.4020 -0.1185  0.1535
  184SLPC   H3R21052   2.822  -0.098   3.415  0.6792 -0.8563  0.7278
  184SLPC   H3S21053   2.697  -0.177   3.521 -0.3132  0.0194 -0.1362
  184SLPC   C2421054   2.761   0.027   3.592  0.4698  0.4168  0.3947
  184SLPC   H4R21055   2.778   0.127   3.547  0.4480  1.3996  2.4254
  184SLPC   H4S21056   2.849  -0.003   3.653  1.7559 -1.5758 -2.2565
  184SLPC   C2521057   2.640   0.047   3.689  0.8447 -0.6814  0.4463
  184SLPC   H5R21058   2.615  -0.055   3.723  1.9534 -1.1353 -0.0372
  184SLPC   H5S21059   2.559   0.092   3.629  2.5669  0.3191 -1.2507
  184SLPC   C2621060   2.667   0.136   3.814  0.5988 -0.3470  0.9063
  184SLPC   H6R21061   2.705   0.231   3.772 -2.9292  2.2790  3.0579
  184SLPC   H6S21062   2.740   0.092   3.885  0.1333  0.1482  1.7091
  184SLPC   C2721063   2.537   0.190   3.878  0.6237  0.7379  0.0590
  184SLPC   H7R21064   2.457   0.113   3.880  0.7431  0.4633 -2.5583
  184SLPC   H7S21065   2.499   0.271   3.812  0.8296  1.2574  0.5711
  184SLPC   C2821066   2.555   0.225   4.025 -0.1813 -0.3561 -0.2067
  184SLPC   H8R21067   2.651   0.277   4.043 -0.2085 -0.4501  0.2476
  184SLPC   H8S21068   2.572   0.120   4.060 -1.5580 -0.9896 -1.3435
  184SLPC   C2921069   2.439   0.309   4.068  0.1507  1.2577 -0.2247
  184SLPC   H9R21070   2.418   0.393   4.000  0.7630  2.2899  0.8028
  184SLPC  C21021071   2.366   0.278   4.173  0.3023 -1.1539  0.0775
  184SLPC  H10R21072   2.285   0.347   4.202 -0.4366 -0.2381 -3.6610
  184SLPC  C21121073   2.378   0.152   4.257 -0.3207  0.0130  0.2256
  184SLPC  H11R21074   2.337   0.065   4.200  0.8024 -0.9809  0.8667
  184SLPC  H11S21075   2.304   0.151   4.339 -0.3114 -1.2540  0.2377
  184SLPC  C21221076   2.512   0.115   4.326  0.0287 -0.1582  0.2522
  184SLPC  H12R21077   2.542   0.010   4.317  1.0753  0.1970 -0.6566
  184SLPC  C21321078   2.573   0.198   4.418  0.2520 -0.2231 -0.7768
  184SLPC  H13R21079   2.677   0.174   4.445  0.8144  3.1129  0.5666
  184SLPC  C21421080   2.538   0.343   4.457 -0.1756  0.0114  0.2135
  184SLPC  H14R21081   2.459   0.386   4.393  0.2125 -2.7395 -2.3437
  184SLPC  H14S21082   2.621   0.417   4.449 -0.2809  0.1036 -0.0088
  184SLPC  C21521083   2.495   0.351   4.605  0.2643  0.1443 -1.4518
  184SLPC  H15R21084   2.410   0.282   4.624 -0.9427  2.4445  2.6799
  184SLPC  H15S21085   2.457   0.450   4.638  1.5922 -0.6587  3.1592
  184SLPC  C21621086   2.602   0.314   4.703  0.2558 -1.2798 -0.1553
  184SLPC  H16R21087   2.697   0.371   4.691 -0.9886  0.3754 -3.3965
  184SLPC  H16S21088   2.626   0.206   4.700  0.3329 -1.2764  0.3604
  184SLPC  C21721089   2.571   0.347   4.849 -0.4009  0.2244 -0.6301
  184SLPC  H17R21090   2.477   0.291   4.863 -1.0346  0.7703 -2.4356
  184SLPC  H17S21091   2.555   0.456   4.865  0.9029  0.2021  1.0929
  184SLPC  C21821092   2.670   0.306   4.956 -0.4033  0.2900  0.0015
  184SLPC  H18R21093   2.625   0.326   5.055  1.7842  2.2554  0.7093
  184SLPC  H18S21094   2.768   0.358   4.950  0.2626 -1.0237 -0.9333
  184SLPC  H18T21095   2.685   0.197   4.946 -1.0625  0.1409  0.5925
  184SLPC   C3321096   2.531   0.495   3.607  0.7757  0.1355 -0.0522
  184SLPC   H3X21097   2.525   0.388   3.575 -0.4733  0.1814 -0.0270
  184SLPC   H3Y21098   2.440   0.507   3.670  0.0268  1.0269 -1.2737
  184SLPC   C3421099   2.655   0.538   3.693 -0.1417  0.9401 -1.0092
  184SLPC   H4X21100   2.741   0.553   3.624 -2.0071  1.3306 -3.4147
  184SLPC   H4Y21101   2.685   0.455   3.760 -1.4865  0.5373 -0.8858
  184SLPC   C3521102   2.648   0.670   3.771  0.8407 -0.2806  0.2342
  184SLPC   H5X21103   2.652   0.648   3.880 -1.4494  0.1503  0.4525
  184SLPC   H5Y21104   2.548   0.718   3.761  1.7988  1.4440 -1.6747
  184SLPC   C3621105   2.755   0.769   3.739  0.0183  0.4088 -0.2432
  184SLPC   H6X21106   2.743   0.786   3.629  1.9540  0.0115 -0.5638
  184SLPC   H6Y21107   2.854   0.722   3.754  0.2844  1.4154  1.3521
  184SLPC   C3721108   2.748   0.892   3.825  0.7096 -0.0868  0.3915
  184SLPC   H7X21109   2.786   0.875   3.929  1.4977  1.6408  0.4143
  184SLPC   H7Y21110   2.638   0.894   3.837  0.6054 -1.5376 -0.0928
  184SLPC   C3821111   2.811   1.018   3.762 -0.7991 -0.4988  0.3959
  184SLPC   H8X21112   2.798   1.030   3.652 -0.6993 -1.0857  0.3173
  184SLPC   H8Y21113   2.920   1.016   3.780 -0.4743 -0.1110 -1.3118
  184SLPC   C3921114   2.771   1.144   3.836  0.1552  0.1645  0.4347
  184SLPC   H9X21115   2.830   1.228   3.794  1.7664 -0.6875  0.9208
  184SLPC   H9Y21116   2.810   1.136   3.940  2.8296 -0.5671 -0.5377
  184SLPC  C31021117   2.625   1.173   3.842  0.8851 -0.4226 -0.6899
  184SLPC  H10X21118   2.576   1.086   3.890  0.1561  0.9560  1.1901
  184SLPC  H10Y21119   2.572   1.180   3.744 -1.7022  0.4009  0.6794
  184SLPC  C31121120   2.588   1.297   3.927 -0.1530  0.0166  0.2274
  184SLPC  H11X21121   2.537   1.356   3.848  0.5360 -0.1087 -0.3146
  184SLPC  H11Y21122   2.675   1.353   3.968 -0.6729  0.6776  0.4560
  184SLPC  C31221123   2.487   1.263   4.042 -0.2339  0.7066  0.2745
  184SLPC  H12X21124   2.405   1.199   4.002 -1.2313  0.4047  2.6078
  184SLPC  H12Y21125   2.441   1.358   4.075  1.2700  1.8710 -0.8824
  184SLPC  C31321126   2.568   1.186   4.148 -0.3787 -0.0767 -0.3368
  184SLPC  H13X21127   2.652   1.244   4.191 -0.2566 -0.4247 -0.0998
  184SLPC  H13Y21128   2.612   1.091   4.109  0.3423 -0.8879  2.2560
  184SLPC  C31421129   2.485   1.149   4.275 -0.3074  0.2583  0.1756
  184SLPC  H14X21130   2.529   1.061   4.325  0.4436  0.3753 -0.2535
  184SLPC  H14Y21131   2.386   1.111   4.244 -1.1324  1.3484  1.3854
  184SLPC  C31521132   2.463   1.261   4.379 -0.7326  0.3595  0.3355
  184SLPC  H15X21133   2.417   1.351   4.332 -0.6100 -0.9615 -2.5878
  184SLPC  H15Y21134   2.566   1.288   4.410 -0.7799  3.0081 -1.5235
  184SLPC  C31621135   2.389   1.223   4.506 -0.2220  0.2555 -0.2597
  184SLPC  H16X21136   2.454   1.150   4.559 -0.5835  0.6675  0.7792
  184SLPC  H16Y21137   2.293   1.170   4.490  0.3051 -0.5726 -0.7806
  184SLPC  C31721138   2.372   1.339   4.602 -0.1865  0.1350  0.6215
  184SLPC  H17X21139   2.296   1.407   4.557  1.3811  1.3206 -0.3301
  184SLPC  H17Y21140   2.465   1.398   4.616 -1.2767  1.3618  3.5719
  184SLPC  C31821141   2.327   1.298   4.745 -0.0182 -0.1437 -0.5786
  184SLPC  H18X21142   2.236   1.234   4.742 -0.3678  0.0807  2.4525
  184SLPC  H18Y21143   2.291   1.388   4.799  2.0329  1.7131 -2.1012
  184SLPC  H18Z21144   2.407   1.258   4.810 -1.0652  1.2199  1.6460
  185POPC     N21145   4.019   1.762   7.660  0.1797 -0.1627 -0.3290
  185POPC   C1221146   3.908   1.798   7.555 -0.2613 -0.3356 -0.5782
  185POPC  H12A21147   3.816   1.824   7.606 -1.1169 -1.4148 -1.5154
  185POPC  H12B21148   3.869   1.712   7.503 -2.0201  0.3514 -0.4622
  185POPC   C1321149   3.955   1.662   7.748  0.3063  0.5586 -0.0916
  185POPC  H13A21150   3.931   1.565   7.708  0.2465  0.1738  0.8388
  185POPC  H13B21151   4.006   1.638   7.841  0.5123 -1.5326 -0.6809
  185POPC  H13C21152   3.858   1.705   7.764  1.0072  2.7379 -1.3144
  185POPC   C1421153   4.141   1.707   7.597 -0.1968  0.8562  0.0771
  185POPC  H14A21154   4.114   1.639   7.517  3.0480  0.5288 -0.8776
  185POPC  H14B21155   4.195   1.785   7.545  0.3538  0.2886 -0.2049
  185POPC  H14C21156   4.208   1.656   7.664  1.4795 -0.5797 -2.5413
  185POPC   C1521157   4.068   1.887   7.734 -0.2415 -0.3289  0.6693
  185POPC  H15A21158   4.095   1.961   7.661 -1.5380  0.0375  0.5335
  185POPC  H15B21159   4.149   1.866   7.802  0.7997  2.3925  0.3875
  185POPC  H15C21160   3.985   1.917   7.798  0.7032  1.5212  1.0925
  185POPC   C1121161   3.943   1.900   7.438  1.0248 -1.1071  0.3463
  185POPC  H11A21162   3.862   1.905   7.362 -0.8002  0.2899  2.2614
  185POPC  H11B21163   4.037   1.860   7.395  0.7346 -1.3007 -0.1166
  185POPC     P21164   3.848   2.139   7.487 -0.0849 -0.1562  0.1270
  185POPC   O1321165   3.904   2.261   7.552  0.0180  0.5984  0.5298
  185POPC   O1421166   3.738   2.067   7.555  0.0532  0.1248  0.4197
  185POPC   O1221167   3.969   2.033   7.479  0.0302  0.5881 -0.1872
  185POPC   O1121168   3.818   2.166   7.337 -0.6919  0.2104  0.6302
  185POPC    C121169   3.894   2.250   7.247 -0.4581 -0.2586 -0.1684
  185POPC    HA21170   3.854   2.225   7.146  0.2968 -0.3042 -0.4673
  185POPC    HB21171   4.005   2.248   7.255 -0.4865  1.6084  1.3006
  185POPC    C221172   3.845   2.393   7.253 -0.3977 -0.7270 -0.6629
  185POPC    HS21173   3.843   2.432   7.356 -1.7408 -0.9358 -0.5869
  185POPC   O2121174   3.719   2.401   7.195  0.3222 -0.4492  0.2798
  185POPC   C2121175   3.647   2.513   7.210  0.2155 -0.1775  0.7866
  185POPC   O2221176   3.679   2.611   7.273  0.2812  0.5393 -0.0327
  185POPC   C2221177   3.508   2.491   7.133  0.1262 -0.1516  0.2441
  185POPC   H2R21178   3.468   2.406   7.192  2.2633 -1.5237 -0.1590
  185POPC   H2S21179   3.533   2.457   7.030  0.9300 -2.2617  1.0888
  185POPC    C321180   3.956   2.485   7.180  0.4925  0.3828  0.2151
  185POPC    HX21181   4.046   2.474   7.244  1.0588 -0.2265 -0.6558
  185POPC    HY21182   3.926   2.591   7.189 -0.1276  0.1801  0.5905
  185POPC   O3121183   3.976   2.455   7.038  0.3458  0.3748 -0.1670
  185POPC   C3121184   3.898   2.526   6.952  0.2112  0.4168 -0.4857
  185POPC   O3221185   3.803   2.595   6.978 -0.1287  0.8183  0.4754
  185POPC   C3221186   3.953   2.503   6.810  0.2255 -0.3399 -0.0736
  185POPC   H2X21187   4.063   2.488   6.807  0.4939  1.4534 -0.2302
  185POPC   H2Y21188   3.935   2.598   6.755 -0.5521 -1.5194 -1.9081
  185POPC   C2321189   3.408   2.610   7.138 -0.9157 -0.2184  0.1180
  185POPC   H3R21190   3.415   2.649   7.242  1.5374 -2.4151  0.8652
  185POPC   H3S21191   3.300   2.584   7.130 -1.2371  1.4709 -1.7465
  185POPC   C2421192   3.444   2.721   7.033 -0.5890 -0.4687  0.0691
  185POPC   H4R21193   3.549   2.742   7.060 -1.0206  1.9576  0.0578
  185POPC   H4S21194   3.389   2.815   7.055  1.2035 -0.0514  3.2699
  185POPC   C2521195   3.423   2.686   6.884 -0.3046 -0.0076 -0.4316
  185POPC   H5R21196   3.502   2.610   6.866 -0.5571 -0.8687  1.7486
  185POPC   H5S21197   3.447   2.779   6.827  0.4909  0.7827  1.1237
  185POPC   C2621198   3.286   2.639   6.847 -0.2675 -0.0889  0.4182
  185POPC   H6R21199   3.227   2.729   6.819  1.0419  1.2300  1.7601
  185POPC   H6S21200   3.234   2.602   6.938 -0.1398 -1.0976  0.0963
  185POPC   C2721201   3.292   2.542   6.734  0.4012  0.1295  0.3075
  185POPC   H7R21202   3.190   2.524   6.694 -0.2667  0.4331  1.7923
  185POPC   H7S21203   3.329   2.445   6.773 -0.8885  0.0446  1.4075
  185POPC   C2821204   3.370   2.581   6.610 -0.8071  0.2863  0.3930
  185POPC   H8R21205   3.479   2.566   6.627 -1.0702 -0.9312  1.1772
  185POPC   H8S21206   3.353   2.688   6.587 -3.0806  0.1504  1.2463
  185POPC   C2921207   3.332   2.503   6.486 -0.0783 -0.0361 -0.2596
  185POPC   H9121208   3.259   2.421   6.495 -0.1502 -0.0720 -1.0873
  185POPC  C21021209   3.358   2.549   6.359 -0.1322 -0.2116 -0.0264
  185POPC  H10121210   3.328   2.493   6.270 -0.5912 -0.8285  0.5037
  185POPC  C21121211   3.433   2.674   6.330  0.2213 -0.1854 -0.6648
  185POPC  H11R21212   3.484   2.671   6.231  0.8620  1.8439 -0.4435
  185POPC  H11S21213   3.514   2.690   6.404 -1.2831  0.5592  0.8989
  185POPC  C21221214   3.335   2.787   6.314  0.1249  0.3042  0.2400
  185POPC  H12R21215   3.285   2.809   6.411  0.2141 -3.0606  1.1593
  185POPC  H12S21216   3.262   2.758   6.235  0.8257 -2.1119  0.3965
  185POPC  C21321217   3.387   2.921   6.257 -0.3296 -0.3873 -0.8612
  185POPC  H13R21218   3.455   2.974   6.326 -0.8275  0.5873 -1.0982
  185POPC  H13S21219   3.299   2.990   6.263  0.5665  0.8131 -1.1085
  185POPC  C21421220   3.436   2.908   6.114 -0.1753 -0.1063 -0.0836
  185POPC  H14R21221   3.413   2.810   6.067  0.1456  0.1580 -0.7947
  185POPC  H14S21222   3.545   2.926   6.109 -0.0984 -0.9141 -1.8765
  185POPC  C21521223   3.363   3.011   6.017  0.3660  0.7457 -0.3659
  185POPC  H15R21224   3.393   3.114   6.045  2.0304  0.2195 -0.1012
  185POPC  H15S21225   3.252   3.009   6.023  0.3837 -2.2937  0.9583
  185POPC  C21621226   3.398   2.993   5.870  0.0358 -0.0629 -0.5425
  185POPC  H16R21227   3.332   3.059   5.809  0.6158  1.0153 -0.0293
  185POPC  H16S21228   3.376   2.888   5.840 -1.6261 -0.0363  0.4615
  185POPC  C21721229   3.548   3.033   5.838 -0.0857 -0.4287 -0.0091
  185POPC  H17R21230   3.584   2.976   5.750  1.2123  0.2711  0.0501
  185POPC  H17S21231   3.617   3.008   5.921 -1.0052 -1.1793  0.5583
  185POPC  C21821232   3.558   3.186   5.814  0.1913 -0.5572  0.4608
  185POPC  H18R21233   3.659   3.216   5.782  0.3738 -0.3747  1.1833
  185POPC  H18S21234   3.530   3.251   5.900 -0.9791 -0.5592  0.1039
  185POPC  H18T21235   3.487   3.206   5.731 -0.8889  0.9117  1.6615
  185POPC   C3321236   3.874   2.404   6.726  0.0314 -0.4664 -0.1968
  185POPC   H3X21237   3.769   2.440   6.716  0.1284 -0.6099 -2.2079
  185POPC   H3Y21238   3.882   2.308   6.781 -1.6832 -0.8622 -0.5603
  185POPC   C3421239   3.934   2.378   6.591  0.1704  0.0363 -0.1269
  185POPC   H4X21240   3.871   2.305   6.536 -0.6193  0.8909 -0.3682
  185POPC   H4Y21241   4.035   2.338   6.613 -0.5826 -0.6685  2.4855
  185POPC   C3521242   3.946   2.498   6.495  0.5520  0.9342 -0.0670
  185POPC   H5X21243   3.998   2.578   6.552  2.0641 -0.1146  0.0624
  185POPC   H5Y21244   3.844   2.519   6.455 -1.0268 -0.8348  2.7423
  185POPC   C3621245   4.032   2.464   6.375 -0.0334  0.7272 -0.1316
  185POPC   H6X21246   4.129   2.434   6.420 -0.2882  0.4173  0.2116
  185POPC   H6Y21247   4.034   2.550   6.304 -0.3043 -0.2545 -1.3695
  185POPC   C3721248   3.990   2.345   6.287 -0.0088  0.9549 -0.7264
  185POPC   H7X21249   3.881   2.347   6.270 -0.2203 -0.3318  0.2535
  185POPC   H7Y21250   4.016   2.253   6.345  0.8159  1.7474  0.1923
  185POPC   C3821251   4.065   2.325   6.150  0.2102 -0.4281 -0.1886
  185POPC   H8X21252   4.174   2.333   6.169  0.0699 -0.9176  0.9078
  185POPC   H8Y21253   4.032   2.402   6.077  0.8847  1.0169  0.9841
  185POPC   C3921254   4.038   2.191   6.076  0.6647 -0.3360  0.6322
  185POPC   H9X21255   3.933   2.198   6.040  0.6755 -0.6393  0.5374
  185POPC   H9Y21256   4.044   2.108   6.150 -1.6794 -1.7483 -0.6574
  185POPC  C31021257   4.125   2.164   5.951 -0.0510 -0.3797 -0.1802
  185POPC  H10X21258   4.075   2.085   5.892 -1.7491  1.6888 -1.6921
  185POPC  H10Y21259   4.230   2.148   5.983  0.1308  2.2514  0.8310
  185POPC  C31121260   4.140   2.284   5.847 -0.1430  1.2009 -0.3270
  185POPC  H11X21261   4.221   2.258   5.776  2.2554  0.6610  2.4198
  185POPC  H11Y21262   4.183   2.358   5.918 -1.7079  0.4061  1.5217
  185POPC  C31221263   4.008   2.328   5.780  0.6429  0.2846  0.2471
  185POPC  H12X21264   3.919   2.329   5.847 -0.9943  2.0673 -1.7831
  185POPC  H12Y21265   3.974   2.259   5.700 -1.4388  1.2425  0.2408
  185POPC  C31321266   4.016   2.469   5.718  0.4301  0.3429  0.9392
  185POPC  H13X21267   4.046   2.554   5.783  0.1628  0.0188  1.4937
  185POPC  H13Y21268   3.915   2.499   5.680  0.1932 -2.7113 -1.1652
  185POPC  C31421269   4.120   2.467   5.599  0.2161 -0.0047 -0.3352
  185POPC  H14X21270   4.099   2.379   5.534  4.3149 -1.0180 -0.5567
  185POPC  H14Y21271   4.224   2.453   5.636  0.7715 -0.1120 -1.8877
  185POPC  C31521272   4.123   2.585   5.500 -0.4118  0.8383 -0.1135
  185POPC  H15X21273   4.148   2.681   5.550  0.3353 -0.4528  2.1036
  185POPC  H15Y21274   4.028   2.611   5.450  0.2386  3.4188 -0.1543
  185POPC  C31621275   4.234   2.565   5.390  0.1735  0.0674 -0.3943
  185POPC  H16X21276   4.209   2.625   5.301  0.6783  1.2070  0.2188
  185POPC  H16Y21277   4.236   2.463   5.346 -0.0716  0.9555 -2.5311
  185POPC  H16Z21278   4.325   2.605   5.441 -1.0851  2.1946  0.3049
  186POPC     N21279   1.045   0.489   7.856 -0.5988  0.8027  0.2083
  186POPC   C1221280   1.144   0.398   7.779  0.6866  0.3394  0.1252
  186POPC  H12A21281   1.115   0.398   7.675  1.8365 -1.3187 -0.2412
  186POPC  H12B21282   1.123   0.306   7.833  0.8930  0.8549  1.1126
  186POPC   C1321283   1.078   0.484   8.004  0.5410  0.0325  0.7729
  186POPC  H13A21284   1.091   0.381   8.033 -1.1479 -0.1395  1.0221
  186POPC  H13B21285   1.157   0.555   8.024 -0.5027  2.4913 -2.7593
  186POPC  H13C21286   0.985   0.514   8.051 -1.4081  0.0385 -2.7195
  186POPC   C1421287   1.042   0.620   7.794  0.2741 -0.3479 -0.1704
  186POPC  H14A21288   0.967   0.686   7.835 -1.1458 -1.1844 -1.3447
  186POPC  H14B21289   1.138   0.668   7.806 -0.1855  0.6955 -0.5476
  186POPC  H14C21290   1.024   0.615   7.688 -1.1754 -2.0582  0.1119
  186POPC   C1521291   0.910   0.445   7.832 -0.5821 -0.1527 -0.0327
  186POPC  H15A21292   0.873   0.452   7.730 -3.2075  1.8802  0.9451
  186POPC  H15B21293   0.830   0.496   7.882 -1.4957  0.6840 -2.2223
  186POPC  H15C21294   0.891   0.341   7.853  0.0712 -0.2992 -0.1265
  186POPC   C1121295   1.289   0.436   7.784 -1.0111 -0.1340 -0.0631
  186POPC  H11A21296   1.352   0.350   7.752 -0.8233 -0.5790  1.4393
  186POPC  H11B21297   1.328   0.452   7.886 -0.8397 -0.0477 -0.1431
  186POPC     P21298   1.442   0.585   7.617 -0.3771 -0.1826  0.3128
  186POPC   O1321299   1.555   0.606   7.704  0.2371  0.1025 -0.9799
  186POPC   O1421300   1.410   0.702   7.527  0.4005  0.6938  0.1899
  186POPC   O1221301   1.311   0.553   7.700  0.3122 -0.3610  0.9517
  186POPC   O1121302   1.471   0.469   7.524  0.3197  0.3570 -0.2879
  186POPC    C121303   1.373   0.397   7.448  0.1972 -0.1095  0.2829
  186POPC    HA21304   1.279   0.379   7.504 -0.6907  0.4720 -0.9606
  186POPC    HB21305   1.412   0.296   7.422  3.3213  1.5396 -2.1074
  186POPC    C221306   1.357   0.460   7.308 -0.3861 -0.4467 -0.0119
  186POPC    HS21307   1.324   0.565   7.324 -1.0835 -0.7386  0.4748
  186POPC   O2121308   1.259   0.389   7.227 -0.1286 -0.2923 -0.3196
  186POPC   C2121309   1.192   0.458   7.137  0.6335 -0.7605  0.0765
  186POPC   O2221310   1.173   0.585   7.140  0.3881 -0.0013  0.1716
  186POPC   C2221311   1.138   0.373   7.023 -0.0169  0.6169  0.2696
  186POPC   H2R21312   1.029   0.355   7.031 -0.3316  0.0944 -3.4648
  186POPC   H2S21313   1.190   0.275   7.025  2.4929  1.8725 -0.0899
  186POPC    C321314   1.496   0.473   7.236 -0.5997  0.0860  0.2748
  186POPC    HX21315   1.534   0.370   7.219 -0.0292  0.1805  0.9330
  186POPC    HY21316   1.561   0.519   7.314  1.7375 -1.1520 -0.8351
  186POPC   O3121317   1.496   0.541   7.117  0.5346  0.4631  0.0753
  186POPC   C3121318   1.607   0.546   7.051 -1.0600 -0.2604 -0.9064
  186POPC   O3221319   1.711   0.487   7.087 -0.0414 -0.0778  0.2985
  186POPC   C3221320   1.593   0.619   6.923 -0.0436 -1.2628 -0.1649
  186POPC   H2X21321   1.630   0.723   6.928 -0.3988 -1.0945 -0.9716
  186POPC   H2Y21322   1.484   0.625   6.907 -0.0872 -2.6540 -0.5430
  186POPC   C2321323   1.163   0.445   6.893  0.0566 -0.1386 -1.2480
  186POPC   H3R21324   1.269   0.478   6.892  0.2641 -0.7645 -0.6296
  186POPC   H3S21325   1.109   0.542   6.897 -0.9275 -0.7137  0.3810
  186POPC   C2421326   1.121   0.365   6.773 -0.5013 -0.3614  0.0293
  186POPC   H4R21327   1.011   0.347   6.771 -0.3952 -1.1778 -2.0486
  186POPC   H4S21328   1.153   0.258   6.776  0.0894 -0.1828  0.0819
  186POPC   C2521329   1.161   0.426   6.638 -0.8578 -0.5943  0.5579
  186POPC   H5R21330   1.272   0.419   6.631 -0.7929  1.2326 -0.9249
  186POPC   H5S21331   1.144   0.535   6.640  0.0101 -0.4339  0.0614
  186POPC   C2621332   1.116   0.362   6.508 -0.0199 -0.4541 -0.4869
  186POPC   H6R21333   1.006   0.365   6.493  0.3719  1.6538 -4.1675
  186POPC   H6S21334   1.138   0.254   6.501  1.3106 -0.5038  2.6075
  186POPC   C2721335   1.170   0.448   6.397  0.0341 -0.2068  0.4229
  186POPC   H7R21336   1.281   0.448   6.406  0.0299  0.4009  0.4993
  186POPC   H7S21337   1.137   0.554   6.404  4.9670  1.6202  0.0516
  186POPC   C2821338   1.123   0.399   6.256 -0.3613  0.4657  0.1194
  186POPC   H8R21339   1.020   0.436   6.236 -1.2871 -2.0578 -0.0816
  186POPC   H8S21340   1.130   0.288   6.258 -0.0896  0.4850  0.3921
  186POPC   C2921341   1.224   0.442   6.159 -0.2224 -0.4548 -0.3534
  186POPC   H9121342   1.326   0.445   6.199 -0.2363  0.5839 -0.3757
  186POPC  C21021343   1.208   0.458   6.028  0.0846  0.0264  0.1257
  186POPC  H10121344   1.289   0.506   5.970 -0.3727  0.6736  0.0043
  186POPC  C21121345   1.074   0.447   5.951 -0.5506  0.2962  0.5244
  186POPC  H11R21346   1.032   0.550   5.941 -2.3151 -0.4812 -0.5230
  186POPC  H11S21347   0.995   0.389   6.001  1.8941 -0.3049  4.0291
  186POPC  C21221348   1.083   0.384   5.805  0.6414  0.2373 -0.1069
  186POPC  H12R21349   1.094   0.274   5.814  1.1862  0.2311 -0.7560
  186POPC  H12S21350   1.172   0.432   5.756  2.0179 -0.7092  1.3725
  186POPC  C21321351   0.960   0.403   5.712 -0.1352 -0.0319 -0.3152
  186POPC  H13R21352   0.957   0.510   5.682  0.5323 -0.0386 -0.4116
  186POPC  H13S21353   0.866   0.383   5.769  1.2127  1.1548  2.5092
  186POPC  C21421354   0.966   0.313   5.580  0.2074 -0.1554 -0.3863
  186POPC  H14R21355   0.874   0.337   5.523 -0.3297 -0.5012  0.3183
  186POPC  H14S21356   0.964   0.205   5.607 -2.8026  0.3038  1.7474
  186POPC  C21521357   1.086   0.342   5.489  0.8857 -0.3988 -0.1845
  186POPC  H15R21358   1.174   0.321   5.554  0.5856 -0.2553  0.2730
  186POPC  H15S21359   1.092   0.445   5.449  1.6758 -0.7152 -0.9254
  186POPC  C21621360   1.073   0.247   5.362  0.0789 -0.5112 -0.3863
  186POPC  H16R21361   0.989   0.283   5.299 -0.3459  0.9104  0.9219
  186POPC  H16S21362   1.053   0.143   5.395 -0.3467 -0.4455 -0.4364
  186POPC  C21721363   1.195   0.250   5.267 -0.2963  0.2199  0.1570
  186POPC  H17R21364   1.173   0.186   5.179  3.0438 -0.3437 -0.3889
  186POPC  H17S21365   1.281   0.201   5.317  0.6942 -1.0583 -2.5820
  186POPC  C21821366   1.240   0.388   5.207  0.2512  0.1329 -0.2356
  186POPC  H18R21367   1.259   0.457   5.292 -2.0933  1.9265 -1.0506
  186POPC  H18S21368   1.160   0.429   5.142  0.9968 -0.1930 -1.3741
  186POPC  H18T21369   1.334   0.391   5.148 -0.2739 -0.2224 -1.1100
  186POPC   C3321370   1.654   0.544   6.807 -0.3465  0.5877  0.3078
  186POPC   H3X21371   1.751   0.506   6.844 -1.3003 -0.8166  1.4745
  186POPC   H3Y21372   1.678   0.616   6.726  0.9632  0.0510  0.1849
  186POPC   C3421373   1.578   0.412   6.774  1.4486  0.5460  0.2067
  186POPC   H4X21374   1.471   0.436   6.756  0.6160 -1.0481  2.5288
  186POPC   H4Y21375   1.569   0.344   6.862  1.5374 -0.7068 -0.7383
  186POPC   C3521376   1.650   0.343   6.655  0.6373 -0.4239 -0.4888
  186POPC   H5X21377   1.654   0.234   6.678 -1.7044 -0.2301  1.3023
  186POPC   H5Y21378   1.752   0.378   6.629 -0.0387  1.5803 -0.6523
  186POPC   C3621379   1.566   0.360   6.513 -0.1606  0.0777  0.0198
  186POPC   H6X21380   1.531   0.464   6.496 -1.1307 -0.3279 -0.5785
  186POPC   H6Y21381   1.471   0.304   6.519  0.2854 -0.9991 -1.9500
  186POPC   C3721382   1.653   0.308   6.395 -0.1910  0.1675 -0.2881
  186POPC   H7X21383   1.670   0.199   6.394  0.9441  0.2374  2.2467
  186POPC   H7Y21384   1.745   0.369   6.407  0.9494 -1.7913  1.5551
  186POPC   C3821385   1.583   0.331   6.263 -0.6196 -0.3815 -0.5339
  186POPC   H8X21386   1.557   0.439   6.267  2.5705  0.4508  0.5445
  186POPC   H8Y21387   1.484   0.280   6.266  0.1866 -2.1276 -2.0399
  186POPC   C3921388   1.660   0.289   6.139 -0.1044 -0.4992  0.2277
  186POPC   H9X21389   1.675   0.179   6.144  2.9604 -0.1644  0.2641
  186POPC   H9Y21390   1.762   0.329   6.154 -0.6669  0.7357  0.8828
  186POPC  C31021391   1.586   0.324   6.008 -0.0581 -0.4980  0.0136
  186POPC  H10X21392   1.557   0.431   6.003  2.5851  0.2327 -1.2795
  186POPC  H10Y21393   1.488   0.272   6.000 -0.7689  0.4741  1.7852
  186POPC  C31121394   1.660   0.297   5.877  0.4740  0.1364 -0.2495
  186POPC  H11X21395   1.707   0.197   5.869  2.0682  0.6824  1.4393
  186POPC  H11Y21396   1.749   0.361   5.891  0.0051  0.5515  1.0375
  186POPC  C31221397   1.569   0.324   5.756  0.2284 -0.1264 -0.2407
  186POPC  H12X21398   1.535   0.430   5.762  1.7175  0.2934  2.7032
  186POPC  H12Y21399   1.488   0.253   5.781  0.0106  0.9906  2.6152
  186POPC  C31321400   1.636   0.289   5.615  0.9214 -0.1048  0.7359
  186POPC  H13X21401   1.650   0.179   5.601 -0.8581 -0.3205  0.4371
  186POPC  H13Y21402   1.731   0.346   5.610 -0.3451  2.0128 -0.3212
  186POPC  C31421403   1.543   0.341   5.504  0.0665 -0.3390  0.1920
  186POPC  H14X21404   1.518   0.446   5.530  1.5047  0.3253 -0.9611
  186POPC  H14Y21405   1.445   0.291   5.519 -1.4610  2.4317  0.2457
  186POPC  C31521406   1.591   0.320   5.359 -0.3376 -0.4565 -0.3726
  186POPC  H15X21407   1.497   0.317   5.301  0.0423  2.0436 -1.2316
  186POPC  H15Y21408   1.652   0.228   5.353  1.6278  0.8576 -1.6365
  186POPC  C31621409   1.683   0.432   5.315  0.3729  0.1010 -0.4159
  186POPC  H16X21410   1.637   0.528   5.345 -0.3166 -0.5380  0.6625
  186POPC  H16Y21411   1.700   0.438   5.206  0.8372  1.6007 -0.2798
  186POPC  H16Z21412   1.784   0.417   5.359  0.4527 -0.4779 -0.7840
  187POPC     N21413   4.195   1.474   3.310 -0.3717  0.1340 -0.4403
  187POPC   C1221414   4.345   1.448   3.340  0.7234 -0.5191  0.1947
  187POPC  H12A21415   4.391   1.544   3.356  0.9397 -0.6191  0.1741
  187POPC  H12B21416   4.389   1.400   3.254  0.6123  1.6750 -1.1530
  187POPC   C1321417   4.130   1.537   3.432  0.5022  0.3040 -0.2957
  187POPC  H13A21418   4.167   1.636   3.456  0.8992 -0.1039  0.8839
  187POPC  H13B21419   4.023   1.540   3.415  0.5236 -1.5504 -0.9844
  187POPC  H13C21420   4.139   1.468   3.515 -0.8092  0.8333  0.3123
  187POPC   C1421421   4.171   1.549   3.185 -0.2964 -0.8216 -0.1256
  187POPC  H14A21422   4.223   1.518   3.096 -3.1085  1.3903 -2.7878
  187POPC  H14B21423   4.065   1.552   3.165 -0.6448 -1.5379  1.4414
  187POPC  H14C21424   4.214   1.647   3.196  2.6856 -2.1037  0.4914
  187POPC   C1521425   4.121   1.346   3.295  1.1166  0.5853 -0.4920
  187POPC  H15A21426   4.127   1.292   3.388  1.4220 -0.5404 -1.1431
  187POPC  H15B21427   4.148   1.295   3.204 -0.2552  1.7487 -1.6045
  187POPC  H15C21428   4.017   1.372   3.279  0.9445  0.5665  0.5053
  187POPC   C1121429   4.377   1.361   3.462 -0.9488  0.2073 -0.2892
  187POPC  H11A21430   4.308   1.273   3.458 -0.0218 -0.5940  0.8465
  187POPC  H11B21431   4.349   1.416   3.555 -0.0603 -0.3564  0.3297
  187POPC     P21432   4.629   1.442   3.507  0.4669  0.0285 -0.1679
  187POPC   O1321433   4.628   1.530   3.396 -0.2296  0.6395  0.5506
  187POPC   O1421434   4.754   1.380   3.559 -0.2232  0.1738 -0.0457
  187POPC   O1221435   4.518   1.329   3.476  0.4763 -0.0256 -0.0143
  187POPC   O1121436   4.563   1.523   3.638 -0.0161 -0.1564 -0.2789
  187POPC    C121437   4.580   1.455   3.771 -0.0559  0.1479  0.8049
  187POPC    HA21438   4.605   1.347   3.760  1.2273  0.6686 -2.3573
  187POPC    HB21439   4.488   1.461   3.833 -1.1356 -0.0660 -0.7070
  187POPC    C221440   4.696   1.521   3.854  0.1508  0.0784 -0.7146
  187POPC    HS21441   4.790   1.466   3.835  0.6581  0.4358  0.6450
  187POPC   O2121442   4.664   1.496   3.993 -0.0808  0.8149 -0.3123
  187POPC   C2121443   4.770   1.482   4.079  0.5460 -0.2831 -0.0227
  187POPC   O2221444   4.888   1.480   4.047 -0.3597 -0.1739  0.0235
  187POPC   C2221445   4.719   1.465   4.219  0.6988 -0.0355 -0.3617
  187POPC   H2R21446   4.794   1.420   4.287 -0.3063 -1.5441 -0.2075
  187POPC   H2S21447   4.635   1.393   4.231  0.4387  0.1071 -1.2486
  187POPC    C321448   4.703   1.669   3.827 -0.4907  0.7396 -0.1497
  187POPC    HX21449   4.617   1.715   3.879 -2.4574 -2.1335 -0.5994
  187POPC    HY21450   4.691   1.687   3.718  0.0384  0.6173 -0.2310
  187POPC   O3121451   4.814   1.721   3.893 -0.1823 -0.0200  0.1960
  187POPC   C3121452   4.921   1.726   3.823 -0.5054 -1.7572  0.1892
  187POPC   O3221453   4.926   1.701   3.704  0.2426 -0.1131  0.5610
  187POPC   C3221454   5.045   1.773   3.911  0.0694  0.8125 -0.0141
  187POPC   H2X21455   5.138   1.754   3.853 -1.6767  2.4957 -3.7483
  187POPC   H2Y21456   5.036   1.706   3.999 -2.5688  0.3337 -0.5678
  187POPC   C2321457   4.678   1.600   4.289  0.0267  0.3638  0.0210
  187POPC   H3R21458   4.587   1.645   4.246  0.0772  1.4951  1.0407
  187POPC   H3S21459   4.771   1.661   4.281  2.2971 -2.5909  1.6111
  187POPC   C2421460   4.645   1.578   4.438  0.3611  0.6157  0.3475
  187POPC   H4R21461   4.572   1.495   4.446  1.0196 -0.6034 -3.8156
  187POPC   H4S21462   4.601   1.670   4.484 -1.1029  0.3722 -0.5041
  187POPC   C2521463   4.765   1.536   4.528 -0.3673  0.0712 -0.1474
  187POPC   H5R21464   4.860   1.583   4.492 -0.6601  0.5324 -0.3278
  187POPC   H5S21465   4.784   1.427   4.523  0.0326  0.1689 -0.8537
  187POPC   C2621466   4.747   1.592   4.675 -0.3300 -0.6247  0.5433
  187POPC   H6R21467   4.658   1.555   4.729 -0.0628 -0.9018  0.7921
  187POPC   H6S21468   4.735   1.699   4.645 -0.6626 -0.9715 -0.6419
  187POPC   C2721469   4.874   1.579   4.760 -0.5814  0.1955  0.0070
  187POPC   H7R21470   4.888   1.651   4.844 -1.8254  0.2660  0.1775
  187POPC   H7S21471   4.953   1.595   4.684 -0.5245 -1.3607 -0.2952
  187POPC   C2821472   4.886   1.437   4.827  0.6178  0.1793 -0.4407
  187POPC   H8R21473   4.990   1.429   4.867  0.0008 -1.3720  1.0021
  187POPC   H8S21474   4.869   1.365   4.744  2.0664  1.1588 -1.6429
  187POPC   C2921475   4.781   1.419   4.938 -0.6012  0.4799 -1.2295
  187POPC   H9121476   4.810   1.475   5.028 -0.3976 -0.9799 -0.3646
  187POPC  C21021477   4.666   1.352   4.935 -0.3457  0.0974  0.1052
  187POPC  H10121478   4.615   1.342   5.032  1.4264  0.3373  1.1109
  187POPC  C21121479   4.616   1.275   4.821  0.5380 -0.2717  0.2873
  187POPC  H11R21480   4.681   1.267   4.730  2.3288  1.8643  1.2886
  187POPC  H11S21481   4.519   1.323   4.795  0.8749  1.2477  1.6577
  187POPC  C21221482   4.578   1.138   4.874 -0.5764 -0.4640  0.0315
  187POPC  H12R21483   4.533   1.098   4.780  0.1722  2.2076 -1.5831
  187POPC  H12S21484   4.490   1.136   4.942 -0.5027  0.1667  0.1519
  187POPC  C21321485   4.695   1.045   4.925  0.8123 -0.2183 -0.3808
  187POPC  H13R21486   4.787   1.099   4.897  1.0044  0.9210  2.2171
  187POPC  H13S21487   4.688   0.941   4.884 -0.3302 -0.4050  0.2373
  187POPC  C21421488   4.694   1.032   5.076  0.5696  0.1805 -0.1845
  187POPC  H14R21489   4.601   0.981   5.109  1.9746 -1.4521  1.4723
  187POPC  H14S21490   4.693   1.128   5.132 -0.5137 -0.5386  1.1075
  187POPC  C21521491   4.806   0.947   5.137 -0.4634  0.7785 -0.2464
  187POPC  H15R21492   4.798   0.844   5.095  1.3872 -0.2584  1.7504
  187POPC  H15S21493   4.794   0.944   5.247 -1.7504 -1.9748 -0.3694
  187POPC  C21621494   4.947   0.991   5.093 -0.2666 -0.8333  0.3114
  187POPC  H16R21495   4.940   1.101   5.099 -2.9625 -0.9097 -0.1461
  187POPC  H16S21496   4.964   0.965   4.986  2.4290 -2.5460  1.0556
  187POPC  C21721497   5.044   0.913   5.182  0.4795  0.1120  0.9287
  187POPC  H17R21498   5.016   0.806   5.189  1.2055 -0.3680 -2.2332
  187POPC  H17S21499   5.037   0.952   5.286  1.5476 -0.2687  1.1635
  187POPC  C21821500   5.193   0.930   5.136  0.7428  0.4816 -0.9645
  187POPC  H18R21501   5.267   0.884   5.205 -1.8229 -0.4703  1.3180
  187POPC  H18S21502   5.215   1.039   5.130  1.6831  0.2784 -1.3390
  187POPC  H18T21503   5.193   0.891   5.032  0.9389 -0.8285 -0.4866
  187POPC   C3321504   5.032   1.920   3.953  0.4677  0.3395 -0.1852
  187POPC   H3X21505   4.929   1.958   3.971  0.7390  0.2975  1.6759
  187POPC   H3Y21506   5.081   1.990   3.883 -1.3549  0.8465 -1.0180
  187POPC   C3421507   5.104   1.954   4.081  0.1332 -0.9478  0.2165
  187POPC   H4X21508   5.106   2.065   4.081 -1.5302 -0.8951  0.8524
  187POPC   H4Y21509   5.205   1.908   4.076  1.2616  1.4368 -0.1499
  187POPC   C3521510   5.027   1.900   4.204  0.2171 -0.1254  0.4444
  187POPC   H5X21511   5.025   1.789   4.204 -2.1093 -0.1444 -0.3532
  187POPC   H5Y21512   4.922   1.932   4.184  0.6874 -0.5243 -3.4418
  187POPC   C3621513   5.080   1.960   4.338  0.5551  0.0338  0.3781
  187POPC   H6X21514   5.098   2.069   4.332 -0.0204  0.1078 -0.0902
  187POPC   H6Y21515   5.176   1.904   4.344 -0.1549 -1.3679 -0.6518
  187POPC   C3721516   4.994   1.931   4.461  0.7478 -0.8574  0.1930
  187POPC   H7X21517   4.974   1.822   4.467 -2.1678 -0.3828  0.7386
  187POPC   H7Y21518   4.895   1.980   4.449 -0.8017 -3.2104  2.5352
  187POPC   C3821519   5.045   1.970   4.603 -0.1343  0.4402  0.1844
  187POPC   H8X21520   5.107   2.063   4.600 -0.1662  0.4438 -0.6568
  187POPC   H8Y21521   5.111   1.886   4.634 -0.1041  0.9407  1.5582
  187POPC   C3921522   4.927   1.990   4.698  0.7073 -0.7615 -0.2395
  187POPC   H9X21523   4.851   1.909   4.701  0.5466 -0.5851  0.8351
  187POPC   H9Y21524   4.876   2.083   4.664 -1.0504 -1.9917 -1.1279
  187POPC  C31021525   4.973   2.009   4.845  0.2474 -0.0315 -0.3676
  187POPC  H10X21526   4.888   1.993   4.915  1.4433  2.8106  1.9488
  187POPC  H10Y21527   5.003   2.115   4.862  0.2628 -0.0575 -0.2329
  187POPC  C31121528   5.094   1.921   4.902 -0.0453  1.0372  0.8335
  187POPC  H11X21529   5.186   1.940   4.843  0.4387 -0.6040  1.0103
  187POPC  H11Y21530   5.074   1.814   4.877 -0.2738  1.2260  0.1997
  187POPC  C31221531   5.123   1.936   5.055 -0.4710 -0.8416  0.0695
  187POPC  H12X21532   5.037   1.903   5.117  0.2495 -1.2188  0.8840
  187POPC  H12Y21533   5.141   2.043   5.079  0.1576 -0.5042 -1.7910
  187POPC  C31321534   5.248   1.847   5.097 -0.0074 -0.3541 -0.3500
  187POPC  H13X21535   5.332   1.877   5.030  2.0881 -2.7564  0.9996
  187POPC  H13Y21536   5.228   1.740   5.074  0.3797 -0.5594  0.2573
  187POPC  C31421537   5.288   1.853   5.239 -0.2773  0.5399  0.8332
  187POPC  H14X21538   5.385   1.804   5.262 -0.4962  0.6297  2.0073
  187POPC  H14Y21539   5.207   1.807   5.300  0.9246 -2.4079  0.3667
  187POPC  C31521540   5.326   1.995   5.293 -0.8554 -0.4370  0.1041
  187POPC  H15X21541   5.246   2.072   5.283 -1.4723 -1.1580 -0.5868
  187POPC  H15Y21542   5.409   2.031   5.229 -0.6864 -2.5916 -0.9639
  187POPC  C31621543   5.371   1.999   5.445 -0.1782  1.1482  0.4067
  187POPC  H16X21544   5.414   2.099   5.467 -0.4272  0.6174  3.7824
  187POPC  H16Y21545   5.445   1.918   5.462 -2.8320 -1.1435  1.8857
  187POPC  H16Z21546   5.276   1.984   5.500  0.7999 -1.5091  1.5483
  188POPC     N21547   2.948   1.130   2.923 -0.5064 -1.1067 -0.3529
  188POPC   C1221548   2.948   1.173   3.072 -0.6447  0.1381  0.3399
  188POPC  H12A21549   2.885   1.108   3.132  0.8954 -2.1839 -0.3981
  188POPC  H12B21550   2.891   1.264   3.076 -0.5877  0.2411 -0.8158
  188POPC   C1321551   3.022   1.004   2.907 -0.2863  0.0804 -0.2628
  188POPC  H13A21552   3.124   1.016   2.940  0.3408  1.1425 -2.4138
  188POPC  H13B21553   2.980   0.925   2.967  1.2274  0.6170  1.6412
  188POPC  H13C21554   3.026   0.959   2.809  3.3080  1.3778 -0.8585
  188POPC   C1421555   2.806   1.104   2.878 -0.0310 -0.0283  0.2250
  188POPC  H14A21556   2.750   1.196   2.883  2.0758  1.2891  0.6009
  188POPC  H14B21557   2.823   1.080   2.774  2.0003 -0.2523  0.5582
  188POPC  H14C21558   2.754   1.026   2.932  3.0887 -2.2747  0.2312
  188POPC   C1521559   3.011   1.230   2.844 -0.3354 -0.0399 -0.5986
  188POPC  H15A21560   3.019   1.195   2.742 -0.0932 -1.5320 -0.0902
  188POPC  H15B21561   3.114   1.249   2.870 -0.1753 -1.3005 -0.2660
  188POPC  H15C21562   2.958   1.324   2.851  0.2833  0.2988 -0.4019
  188POPC   C1121563   3.086   1.182   3.139 -0.2988 -0.3114  0.5522
  188POPC  H11A21564   3.143   1.088   3.120  0.5711 -0.1985  2.4047
  188POPC  H11B21565   3.083   1.192   3.249  1.3978 -0.9237  0.6881
  188POPC     P21566   3.138   1.430   3.163 -0.4060 -0.3536 -0.0862
  188POPC   O1321567   3.001   1.426   3.223 -0.5368  0.0289 -0.1023
  188POPC   O1421568   3.176   1.552   3.087 -0.6449 -0.1497  0.4172
  188POPC   O1221569   3.163   1.291   3.088 -0.4473  0.1077  0.1882
  188POPC   O1121570   3.232   1.420   3.290  0.2613 -0.4391  0.0037
  188POPC    C121571   3.237   1.546   3.372  0.1267  0.1880  0.7101
  188POPC    HA21572   3.142   1.604   3.380  0.3843  0.6845  0.2032
  188POPC    HB21573   3.306   1.617   3.322  0.5048  0.2191  1.2734
  188POPC    C221574   3.301   1.516   3.503 -0.7728 -0.1040 -0.2210
  188POPC    HS21575   3.402   1.479   3.477  1.7581  5.3706  0.3626
  188POPC   O2121576   3.219   1.422   3.577  0.3855 -0.8517  0.3734
  188POPC   C2121577   3.281   1.357   3.677 -0.1237 -0.1435 -0.4261
  188POPC   O2221578   3.402   1.355   3.698  0.2201  0.0495  0.5690
  188POPC   C2221579   3.170   1.281   3.749  0.0470  0.4365 -0.1956
  188POPC   H2R21580   3.215   1.206   3.818 -0.1034  0.4187 -0.1170
  188POPC   H2S21581   3.102   1.217   3.689  0.8719 -1.3288  0.6703
  188POPC    C321582   3.323   1.651   3.584 -0.8474  0.2187 -0.5428
  188POPC    HX21583   3.395   1.717   3.531  1.5065 -1.9937 -0.3240
  188POPC    HY21584   3.364   1.629   3.684  0.2785 -0.7232 -1.1797
  188POPC   O3121585   3.199   1.717   3.611 -0.4052  0.3272 -0.4590
  188POPC   C3121586   3.198   1.847   3.658  0.1099  0.1944 -0.4431
  188POPC   O3221587   3.302   1.904   3.687 -0.4324 -0.6156 -0.3335
  188POPC   C3221588   3.051   1.909   3.653  0.1031  0.4526  0.2561
  188POPC   H2X21589   2.975   1.827   3.655 -0.6201  1.1097  0.0900
  188POPC   H2Y21590   3.048   1.952   3.550  2.0721  0.7258  0.2790
  188POPC   C2321591   3.097   1.389   3.824  0.2630  0.6764 -0.7838
  188POPC   H3R21592   2.995   1.349   3.846  0.9010 -0.1205  0.9622
  188POPC   H3S21593   3.095   1.492   3.783  1.6541  0.4322 -1.4993
  188POPC   C2421594   3.150   1.405   3.966 -0.0340 -0.2259  0.4596
  188POPC   H4R21595   3.223   1.324   3.990  0.0685 -1.0344 -2.2411
  188POPC   H4S21596   3.064   1.391   4.035 -1.2594 -1.2642 -1.2079
  188POPC   C2521597   3.224   1.532   3.992 -0.6104  0.2943 -0.5141
  188POPC   H5R21598   3.163   1.625   3.981 -0.1556  0.5690 -0.7624
  188POPC   H5S21599   3.313   1.533   3.925 -0.7487 -2.1215 -0.8077
  188POPC   C2621600   3.284   1.544   4.135 -0.2184  0.7663  0.5816
  188POPC   H6R21601   3.332   1.643   4.148 -0.1640  0.8609 -0.2978
  188POPC   H6S21602   3.360   1.463   4.142  0.0214  0.5475 -2.7958
  188POPC   C2721603   3.177   1.533   4.250 -0.0247  0.0235  0.1225
  188POPC   H7R21604   3.125   1.435   4.237  1.1032 -0.7616  1.2588
  188POPC   H7S21605   3.106   1.618   4.243  0.5722  0.5745  0.6561
  188POPC   C2821606   3.235   1.530   4.401  0.5545  0.2150  0.0026
  188POPC   H8R21607   3.310   1.448   4.409 -1.3911 -1.9900 -2.2763
  188POPC   H8S21608   3.152   1.491   4.465 -0.1652  2.1445  0.3093
  188POPC   C2921609   3.282   1.665   4.440 -0.4631 -0.0793  0.2549
  188POPC   H9121610   3.317   1.719   4.350  1.9016 -0.2024  1.0202
  188POPC  C21021611   3.268   1.733   4.552 -1.2782  0.1433 -0.0135
  188POPC  H10121612   3.308   1.834   4.568 -1.0168  0.1100 -0.4401
  188POPC  C21121613   3.219   1.683   4.683  0.8871 -0.2130  0.2953
  188POPC  H11R21614   3.158   1.591   4.670 -0.0175  0.5992 -1.7132
  188POPC  H11S21615   3.147   1.755   4.727 -1.5693 -2.0700 -0.4623
  188POPC  C21221616   3.317   1.666   4.799 -0.2873 -0.0508 -0.0150
  188POPC  H12R21617   3.341   1.767   4.840  1.2206 -0.1788 -0.5182
  188POPC  H12S21618   3.416   1.624   4.773  0.9582  1.3044  2.2634
  188POPC  C21321619   3.253   1.581   4.908  0.5356  0.1290 -0.7921
  188POPC  H13R21620   3.341   1.559   4.973  0.4969 -1.6372 -1.3004
  188POPC  H13S21621   3.201   1.486   4.883 -0.7055 -0.2091  2.5662
  188POPC  C21421622   3.146   1.659   4.983 -0.1014  0.6365  0.4910
  188POPC  H14R21623   3.080   1.701   4.904  2.6121  1.4667 -1.5010
  188POPC  H14S21624   3.186   1.745   5.041  0.1432  1.4929 -0.8959
  188POPC  C21521625   3.074   1.575   5.083  0.7756  0.6138 -0.4763
  188POPC  H15R21626   3.144   1.520   5.150  0.6891 -0.0949 -0.9623
  188POPC  H15S21627   3.006   1.503   5.033 -2.2408  1.6571  1.8250
  188POPC  C21621628   2.978   1.654   5.179 -0.2426  0.8024 -0.0093
  188POPC  H16R21629   3.030   1.750   5.198 -1.0343  0.7993  2.6144
  188POPC  H16S21630   2.955   1.613   5.280  0.5773 -2.0766 -0.9047
  188POPC  C21721631   2.845   1.700   5.106 -0.5367 -0.0225  0.0498
  188POPC  H17R21632   2.790   1.612   5.065 -0.2281  0.3938 -1.2822
  188POPC  H17S21633   2.881   1.768   5.026  0.8139  0.5319  1.0823
  188POPC  C21821634   2.748   1.788   5.194  0.3228 -0.0838  0.2746
  188POPC  H18R21635   2.681   1.724   5.255 -0.0680  0.6115  0.5949
  188POPC  H18S21636   2.688   1.854   5.127 -2.0269 -2.8384 -0.5233
  188POPC  H18T21637   2.802   1.857   5.262 -2.3421  1.6621  0.8050
  188POPC   C3321638   3.015   2.008   3.763 -0.2710  0.1902  0.2037
  188POPC   H3X21639   2.907   2.028   3.745 -0.3609  0.0687  0.6083
  188POPC   H3Y21640   3.071   2.103   3.767 -2.4816  1.5537  4.0243
  188POPC   C3421641   3.029   1.950   3.904  0.5297  0.3199 -0.3982
  188POPC   H4X21642   3.131   1.909   3.921  0.3120 -0.3572 -0.6763
  188POPC   H4Y21643   2.961   1.864   3.924 -0.1084  1.2292  1.6309
  188POPC   C3521644   2.979   2.039   4.017  0.2310  0.1168 -0.7978
  188POPC   H5X21645   2.872   2.069   4.017  0.4266  0.8450 -1.1758
  188POPC   H5Y21646   3.023   2.140   4.008 -0.1493  0.7544  2.7956
  188POPC   C3621647   3.016   1.973   4.155 -0.0325 -0.5706 -0.3064
  188POPC   H6X21648   3.114   1.922   4.148  0.5641  0.4107  0.6641
  188POPC   H6Y21649   2.939   1.899   4.185 -0.0540 -0.2399  0.4719
  188POPC   C3721650   3.008   2.079   4.272  0.5796 -0.5305 -0.2935
  188POPC   H7X21651   2.913   2.135   4.260 -0.9355 -2.7664  0.6293
  188POPC   H7Y21652   3.092   2.150   4.257  1.1175 -0.9811  0.4710
  188POPC   C3821653   3.027   2.022   4.413  0.2016 -0.0423  0.5209
  188POPC   H8X21654   3.133   1.989   4.422  0.1898 -0.6036 -1.0818
  188POPC   H8Y21655   2.976   1.923   4.410  0.7146 -0.3295  1.1266
  188POPC   C3921656   2.984   2.106   4.532  0.2643 -0.4999  0.4691
  188POPC   H9X21657   3.001   2.045   4.623  0.7985  0.7676  1.2378
  188POPC   H9Y21658   2.875   2.122   4.521 -0.2737 -2.5069  2.2494
  188POPC  C31021659   3.066   2.230   4.538 -0.3834 -0.8604 -0.3098
  188POPC  H10X21660   3.086   2.279   4.440 -0.6289  0.0422  0.0831
  188POPC  H10Y21661   3.170   2.202   4.565 -0.3724 -0.6721 -0.1554
  188POPC  C31121662   3.018   2.322   4.649  0.6167  0.7498 -0.0756
  188POPC  H11X21663   3.003   2.264   4.742  0.2124 -2.9036 -2.2189
  188POPC  H11Y21664   2.919   2.355   4.608  0.5352  1.7961  0.9125
  188POPC  C31221665   3.103   2.446   4.689  0.1391  0.0785  0.2354
  188POPC  H12X21666   3.121   2.503   4.595 -0.3343 -0.8779 -0.4592
  188POPC  H12Y21667   3.202   2.429   4.735 -0.3654  0.5191  1.5282
  188POPC  C31321668   3.035   2.531   4.798 -0.2024 -0.3276  0.7109
  188POPC  H13X21669   2.929   2.559   4.777 -1.4555 -3.8781  1.4940
  188POPC  H13Y21670   3.098   2.622   4.808  0.4997 -0.3941 -2.2808
  188POPC  C31421671   3.043   2.455   4.933  0.4797 -0.5904 -0.0804
  188POPC  H14X21672   3.150   2.430   4.951  0.0428 -1.5545  1.4017
  188POPC  H14Y21673   2.982   2.363   4.921  0.5351 -1.0106  2.3802
  188POPC  C31521674   3.018   2.545   5.056  0.2528  0.3374  0.4000
  188POPC  H15X21675   3.100   2.621   5.058  0.5331  0.1636 -2.0343
  188POPC  H15Y21676   3.013   2.476   5.143 -1.9212  1.1243  0.9598
  188POPC  C31621677   2.884   2.618   5.053  0.2474 -0.0904 -0.5157
  188POPC  H16X21678   2.859   2.665   5.150 -0.4262 -0.6253 -0.4251
  188POPC  H16Y21679   2.807   2.540   5.036  0.8217 -0.1826 -3.1155
  188POPC  H16Z21680   2.875   2.690   4.969 -2.9158 -1.2853 -1.3444
  189SAPI   C1221681   6.464   1.317   8.049 -0.4923 -0.7386 -0.1150
  189SAPI    H221682   6.565   1.361   8.063  0.6284 -2.9424 -0.8069
  189SAPI    O221683   6.444   1.213   8.145 -0.1343  0.2441  0.0970
  189SAPI   HO221684   6.454   1.252   8.232 -0.0264  0.2825  0.0688
  189SAPI   C1321685   6.362   1.428   8.065 -0.0825  0.3059 -0.7111
  189SAPI    H321686   6.394   1.499   7.985  1.8325 -1.5540 -1.7104
  189SAPI    O321687   6.372   1.500   8.189 -0.3909 -0.9714  0.5896
  189SAPI   HO321688   6.375   1.433   8.258 -0.0979 -0.1364  1.4037
  189SAPI   C1421689   6.220   1.379   8.049 -0.1305  1.4506 -0.5002
  189SAPI    H421690   6.202   1.323   8.143 -0.8878  0.9571 -0.9206
  189SAPI    O421691   6.114   1.475   8.057 -0.6941  0.1113 -0.1034
  189SAPI   HO421692   6.121   1.532   7.980 -1.3809 -0.2034 -0.4031
  189SAPI   C1521693   6.199   1.281   7.932 -0.1319  0.1037  0.3000
  189SAPI    H521694   6.169   1.335   7.839  0.4111 -0.3160 -0.1231
  189SAPI    O521695   6.094   1.189   7.962 -0.5679  0.2966 -0.0838
  189SAPI   HO521696   6.032   1.182   7.890 -0.6810 -0.4076  0.0767
  189SAPI   C1621697   6.320   1.196   7.873 -0.0897 -0.0490  0.2619
  189SAPI    H621698   6.312   1.103   7.933 -2.3184  1.2988  2.2423
  189SAPI    O621699   6.292   1.152   7.740  0.0680 -0.2257  0.0919
  189SAPI   HO621700   6.366   1.181   7.685  0.0675 -2.2819 -1.0787
  189SAPI   C1121701   6.459   1.256   7.907 -0.5438  0.1052  0.6748
  189SAPI    H121702   6.449   1.343   7.839  0.8963  0.2023  0.5688
  189SAPI     P21703   6.661   1.181   7.747 -0.5098  0.6376 -0.3589
  189SAPI   O1321704   6.761   1.071   7.741 -0.1038 -0.4465 -0.0156
  189SAPI   O1421705   6.721   1.316   7.747 -0.0965  0.2931 -0.1741
  189SAPI   O1221706   6.563   1.161   7.878  0.0025 -0.3679 -0.2704
  189SAPI   O1121707   6.553   1.164   7.633  0.0954  0.2353  0.4448
  189SAPI    C121708   6.582   1.209   7.504 -0.6404  0.2700  0.5198
  189SAPI    HA21709   6.579   1.320   7.503 -0.8860  0.2966  2.0440
  189SAPI    HB21710   6.683   1.181   7.467 -0.4507  2.4211 -0.7929
  189SAPI    C221711   6.482   1.149   7.404 -0.0987  0.1230  0.4540
  189SAPI    HS21712   6.445   1.056   7.451  0.4931 -0.1446  0.3912
  189SAPI   O2121713   6.544   1.132   7.279 -1.2133  0.1528  0.1567
  189SAPI   C2121714   6.461   1.064   7.197 -0.0221  0.1245 -0.3531
  189SAPI   O2221715   6.354   1.013   7.230 -0.4335 -0.3929  0.2648
  189SAPI   C2221716   6.526   1.041   7.065  0.2305  0.2715 -0.3657
  189SAPI   H2R21717   6.635   1.063   7.055 -0.2121  2.5155 -0.8939
  189SAPI   H2S21718   6.511   0.932   7.050  0.7479 -0.0150  1.0765
  189SAPI    C321719   6.368   1.258   7.390  0.0956 -0.4676  0.0183
  189SAPI    HX21720   6.313   1.257   7.487  2.9879  1.8485  1.8340
  189SAPI    HY21721   6.290   1.221   7.319 -0.6496 -0.5343  0.8488
  189SAPI   O3121722   6.405   1.394   7.367 -0.3952  0.7094  0.3704
  189SAPI   C3121723   6.381   1.440   7.243 -0.6173  0.1781  0.1753
  189SAPI   O3221724   6.337   1.373   7.146  0.1390 -0.0824 -0.4415
  189SAPI   C3221725   6.405   1.591   7.237  0.1589 -0.9582 -0.0797
  189SAPI   H2X21726   6.482   1.614   7.313 -1.4543  2.0774  0.7865
  189SAPI   H2Y21727   6.310   1.642   7.264 -0.0410 -1.0767 -0.5417
  189SAPI   C2321728   6.454   1.122   6.959 -0.3351 -0.4752  0.8206
  189SAPI   H3R21729   6.463   1.229   6.991  1.4679  0.4775 -2.4583
  189SAPI   H3S21730   6.347   1.097   6.949 -0.5030  0.8140 -1.1174
  189SAPI   C2421731   6.533   1.116   6.822  0.1758 -0.4583  0.2099
  189SAPI   H4R21732   6.532   1.008   6.793  1.0082 -0.1074 -1.2646
  189SAPI   H4S21733   6.640   1.127   6.852  0.3471 -1.9068  0.2458
  189SAPI   C2521734   6.497   1.212   6.718 -0.4394  0.0690 -0.4323
  189SAPI   H5R21735   6.485   1.313   6.760 -0.4276 -0.4023  0.7392
  189SAPI   C2621736   6.464   1.170   6.592  0.7149 -0.2156  0.7931
  189SAPI   H6R21737   6.428   1.247   6.522  0.9090  0.3343  1.2856
  189SAPI   C2721738   6.482   1.036   6.526 -0.7145  0.1406  0.0975
  189SAPI   H7R21739   6.519   0.953   6.590  0.9280  1.3338  0.7596
  189SAPI   H7S21740   6.569   1.048   6.459 -1.8466  0.3440 -1.3950
  189SAPI   C2821741   6.373   0.992   6.437  0.3022 -0.3894  0.8310
  189SAPI   H8R21742   6.328   1.056   6.360  1.8949  0.6073  0.6790
  189SAPI   C2921743   6.304   0.880   6.461  0.2166 -0.0351 -0.6325
  189SAPI   H9R21744   6.224   0.855   6.390 -0.5197  0.8471 -0.1346
  189SAPI  C21021745   6.316   0.770   6.566 -0.6024  0.2750  0.2805
  189SAPI  H10R21746   6.422   0.739   6.554 -0.9089 -0.6953 -0.0821
  189SAPI  H10S21747   6.267   0.675   6.536 -0.2110  0.0213  0.4281
  189SAPI  C21121748   6.261   0.820   6.703 -0.7198  0.4410  0.0913
  189SAPI  H11R21749   6.321   0.895   6.758 -2.3908  1.8582  0.0594
  189SAPI  C21221750   6.158   0.770   6.768  0.5563 -0.3128  0.1102
  189SAPI  H12R21751   6.140   0.802   6.871  0.7696  0.9127 -0.2112
  189SAPI  C21321752   6.062   0.662   6.726  0.0755 -0.1772  0.0038
  189SAPI  H13R21753   6.082   0.581   6.800 -2.3375 -0.0049  0.9260
  189SAPI  H13S21754   6.084   0.624   6.624 -2.2330 -0.1974 -0.5338
  189SAPI  C21421755   5.914   0.686   6.745  0.3721  0.5960 -0.4203
  189SAPI  H14R21756   5.890   0.758   6.824  1.1006  0.3038  0.0725
  189SAPI  C21521757   5.815   0.631   6.666  0.6833  0.3427  0.4555
  189SAPI  H15R21758   5.709   0.657   6.685 -0.2254 -1.6097 -1.4563
  189SAPI  C21621759   5.842   0.552   6.540 -0.0390  0.7914 -0.9110
  189SAPI  H16R21760   5.758   0.483   6.519  1.4642 -0.9668 -1.4197
  189SAPI  H16S21761   5.926   0.484   6.568 -1.5097 -1.2368 -1.1546
  189SAPI  C21721762   5.873   0.651   6.426 -0.1054  0.0982  0.5883
  189SAPI  H17R21763   5.966   0.711   6.441  1.3006 -1.4813 -1.2085
  189SAPI  H17S21764   5.783   0.714   6.413  0.2298  0.0292 -2.8349
  189SAPI  C21821765   5.895   0.590   6.287  0.2045 -0.1070 -0.3928
  189SAPI  H18R21766   5.808   0.530   6.254 -0.6681  1.6620 -1.5260
  189SAPI  H18S21767   5.985   0.526   6.288  0.7974  0.6626  1.8792
  189SAPI  C21921768   5.904   0.700   6.178  0.4638 -0.1464  0.5891
  189SAPI  H19R21769   5.989   0.767   6.202  0.3940 -0.7022  2.5795
  189SAPI  H19S21770   5.814   0.762   6.195 -0.1602 -0.9954  0.5004
  189SAPI  C22021771   5.898   0.646   6.033 -0.1770 -0.0626  0.7084
  189SAPI  H20R21772   5.875   0.722   5.955  1.5153 -2.1317 -1.9885
  189SAPI  H20S21773   5.831   0.558   6.027 -2.4296  1.5736  0.8801
  189SAPI  H20T21774   5.999   0.617   5.995 -0.7752  1.0225 -1.9648
  189SAPI   C3321775   6.444   1.636   7.093 -0.1963  0.2837  0.4388
  189SAPI   H3X21776   6.410   1.741   7.080 -1.3059  0.1148  1.7808
  189SAPI   H3Y21777   6.392   1.580   7.012  1.3301 -0.8765  0.2039
  189SAPI   C3421778   6.592   1.615   7.072 -0.0510  0.0968 -0.3344
  189SAPI   H4X21779   6.614   1.507   7.083 -0.2862  0.0913  0.1089
  189SAPI   H4Y21780   6.648   1.670   7.151  0.2632 -0.6899  0.0016
  189SAPI   C3521781   6.640   1.663   6.935  0.8785 -0.7567 -0.3018
  189SAPI   H5X21782   6.737   1.715   6.952  0.2263  0.8494 -1.2477
  189SAPI   H5Y21783   6.577   1.748   6.900  2.5674 -0.0461 -1.7786
  189SAPI   C3621784   6.641   1.556   6.824  0.1947 -0.0708  0.4116
  189SAPI   H6X21785   6.533   1.539   6.807  0.1018 -0.3286  1.2311
  189SAPI   H6Y21786   6.693   1.464   6.859  2.2804  0.5272 -0.9062
  189SAPI   C3721787   6.698   1.597   6.690 -0.9324  0.4292  0.1850
  189SAPI   H7X21788   6.780   1.670   6.707 -0.6498 -0.0173  0.7449
  189SAPI   H7Y21789   6.630   1.656   6.624 -1.5196 -0.5480 -0.1009
  189SAPI   C3821790   6.747   1.484   6.603 -0.3271  0.5969  0.5915
  189SAPI   H8X21791   6.690   1.388   6.602  0.5468  0.0144 -1.8189
  189SAPI   H8Y21792   6.850   1.457   6.636 -0.1653  1.2752  0.6370
  189SAPI   C3921793   6.771   1.520   6.454 -0.1037  0.9735  0.4111
  189SAPI   H9X21794   6.830   1.434   6.414  0.8428  1.9619 -0.3838
  189SAPI   H9Y21795   6.832   1.612   6.442 -0.5018  0.9770 -2.4786
  189SAPI  C31021796   6.638   1.528   6.374 -0.4895 -0.0626 -0.0053
  189SAPI  H10X21797   6.583   1.625   6.380 -1.5917 -0.3366 -3.5015
  189SAPI  H10Y21798   6.560   1.453   6.401 -2.5493  2.2200  0.8138
  189SAPI  C31121799   6.667   1.534   6.225 -0.2632 -0.4005 -0.3702
  189SAPI  H11X21800   6.723   1.444   6.194  2.1708  0.0590  2.2786
  189SAPI  H11Y21801   6.735   1.620   6.207 -1.1103  0.2411 -0.5713
  189SAPI  C31221802   6.550   1.538   6.128  0.0763 -0.2108  0.4703
  189SAPI  H12X21803   6.593   1.565   6.028 -1.4318  1.2454  0.1657
  189SAPI  H12Y21804   6.483   1.621   6.158  0.7280 -0.1780  1.8818
  189SAPI  C31321805   6.459   1.420   6.125 -0.4348  0.2323 -0.5637
  189SAPI  H13X21806   6.405   1.411   6.222  2.6988 -1.4780  1.1973
  189SAPI  H13Y21807   6.519   1.327   6.122 -2.7214 -1.3786  0.4610
  189SAPI  C31421808   6.355   1.415   6.003  0.2195  0.2362 -0.4692
  189SAPI  H14X21809   6.419   1.418   5.912  1.9850  1.7146  0.7537
  189SAPI  H14Y21810   6.295   1.507   6.016  0.2014  0.0457  1.0248
  189SAPI  C31521811   6.265   1.293   6.000 -0.2528  0.4759 -0.2327
  189SAPI  H15X21812   6.325   1.206   5.965 -1.2955 -0.0069 -0.8491
  189SAPI  H15Y21813   6.197   1.319   5.917 -0.7494  1.1398  0.3753
  189SAPI  C31621814   6.193   1.260   6.131 -0.2703 -0.2135 -0.1150
  189SAPI  H16X21815   6.130   1.348   6.158  2.7429  1.9297  0.3745
  189SAPI  H16Y21816   6.271   1.236   6.206  2.0899  1.6751 -1.8050
  189SAPI  C31721817   6.093   1.138   6.117 -0.6714 -0.1087 -0.6005
  189SAPI  H17X21818   6.162   1.051   6.109  0.6780  0.9240 -0.6254
  189SAPI  H17Y21819   6.029   1.154   6.027 -0.5939  2.7412 -0.2454
  189SAPI  C31821820   5.997   1.120   6.238  0.1982 -0.0322 -0.2298
  189SAPI  H18X21821   5.940   1.215   6.252 -0.3117  0.0051 -2.2380
  189SAPI  H18Y21822   6.045   1.108   6.337 -2.3919 -3.1570  0.8116
  189SAPI  H18Z21823   5.932   1.031   6.231 -0.7749  0.4575  1.8003
  190SAPI   C1221824   6.555   3.426   8.146 -0.2352 -0.1943  0.9323
  190SAPI    H221825   6.572   3.536   8.147 -0.4340 -0.1411 -0.1440
  190SAPI    O221826   6.665   3.364   8.088 -0.1892 -0.0340  0.1299
  190SAPI   HO221827   6.645   3.387   7.997 -0.4498 -1.4233 -0.1833
  190SAPI   C1321828   6.510   3.370   8.272  0.5170  0.1982 -0.2104
  190SAPI    H321829   6.412   3.408   8.307  0.3744  0.6625 -1.0715
  190SAPI    O321830   6.603   3.412   8.374 -0.4126 -0.3406 -0.1727
  190SAPI   HO321831   6.691   3.378   8.356  0.1165 -0.6824  2.6817
  190SAPI   C1421832   6.502   3.225   8.260 -0.0845  0.3552 -0.2700
  190SAPI    H421833   6.607   3.190   8.244  0.1434  0.6530  0.5091
  190SAPI    O421834   6.455   3.171   8.386  0.0936  0.2454 -0.7112
  190SAPI   HO421835   6.508   3.092   8.398 -2.2065 -1.1145  1.3250
  190SAPI   C1521836   6.421   3.175   8.143  0.1374 -0.3629  0.2324
  190SAPI    H521837   6.317   3.160   8.180 -0.0999  0.9600  0.1791
  190SAPI    O521838   6.465   3.044   8.099 -0.2170 -0.5599  0.2599
  190SAPI   HO521839   6.387   2.987   8.103 -0.3371 -0.7309 -2.2969
  190SAPI   C1621840   6.399   3.273   8.025 -0.4738  0.0012 -0.0622
  190SAPI    H621841   6.472   3.241   7.948  1.2007  1.1826  0.9515
  190SAPI    O621842   6.274   3.267   7.962  0.3289 -0.0566  0.2264
  190SAPI   HO621843   6.275   3.339   7.899 -2.3296  1.3104  1.5544
  190SAPI   C1121844   6.445   3.423   8.044 -0.0488  0.4661  0.2233
  190SAPI    H121845   6.360   3.475   8.094 -0.4061  0.6177 -0.5149
  190SAPI     P21846   6.378   3.566   7.826 -0.5363  0.2786  0.1629
  190SAPI   O1321847   6.444   3.655   7.729  0.8012 -0.0336 -0.0830
  190SAPI   O1421848   6.281   3.640   7.913  0.3375 -0.6150  0.0629
  190SAPI   O1221849   6.480   3.479   7.925  0.1467  0.3662 -0.1268
  190SAPI   O1121850   6.317   3.446   7.750 -0.9717 -0.3298  0.2418
  190SAPI    C121851   6.192   3.474   7.667 -0.3534  0.5609  0.4082
  190SAPI    HA21852   6.115   3.399   7.695  0.8200 -1.3481 -1.1687
  190SAPI    HB21853   6.145   3.574   7.675 -1.0189  0.3998 -1.1921
  190SAPI    C221854   6.232   3.450   7.519  0.1140  0.2041 -0.0741
  190SAPI    HS21855   6.289   3.538   7.482  0.8540 -0.3011 -0.1623
  190SAPI   O2121856   6.119   3.423   7.437  0.4019 -0.1310 -0.4281
  190SAPI   C2121857   6.038   3.526   7.430 -0.2904  0.4561  0.9227
  190SAPI   O2221858   6.047   3.637   7.478  0.2286 -0.1368  0.2968
  190SAPI   C2221859   5.916   3.485   7.352 -0.1857  0.1937  0.5794
  190SAPI   H2R21860   5.961   3.434   7.264 -0.6535 -0.2806  0.6173
  190SAPI   H2S21861   5.846   3.418   7.405  1.4216 -3.0394 -1.1259
  190SAPI    C321862   6.351   3.347   7.517  0.6172 -0.0451  0.6285
  190SAPI    HX21863   6.308   3.258   7.566  2.7168 -1.4950 -0.0125
  190SAPI    HY21864   6.438   3.370   7.582  1.9433 -1.0349 -0.7173
  190SAPI   O3121865   6.396   3.304   7.381 -0.2865 -0.1497 -0.2149
  190SAPI   C3121866   6.461   3.398   7.316  0.3624  0.0810  0.5216
  190SAPI   O3221867   6.492   3.505   7.351  0.0619 -0.3960  0.6105
  190SAPI   C3221868   6.507   3.338   7.178  0.0742  0.3865  0.6895
  190SAPI   H2X21869   6.434   3.263   7.141 -0.5806  0.8615  0.9923
  190SAPI   H2Y21870   6.614   3.310   7.178  0.1494  0.4421 -1.5881
  190SAPI   C2321871   5.840   3.606   7.288  0.7499 -0.6072  0.6570
  190SAPI   H3R21872   5.896   3.702   7.285  0.3499 -0.3896 -1.6288
  190SAPI   H3S21873   5.749   3.624   7.349  0.6037 -0.4457  0.3934
  190SAPI   C2421874   5.786   3.575   7.145 -0.4249 -0.2271 -0.0799
  190SAPI   H4R21875   5.735   3.477   7.145 -0.2704 -0.3107 -0.6047
  190SAPI   H4S21876   5.877   3.552   7.086 -0.1155 -2.5270  1.1737
  190SAPI   C2521877   5.705   3.675   7.072 -0.2719 -0.7637  0.1220
  190SAPI   H5R21878   5.694   3.772   7.123 -1.5354 -0.1613 -1.2120
  190SAPI   C2621879   5.643   3.648   6.961 -0.1667 -0.9366 -0.4897
  190SAPI   H6R21880   5.599   3.738   6.915  2.4067 -0.1316 -1.5398
  190SAPI   C2721881   5.650   3.515   6.889 -0.4047  0.6039 -1.0709
  190SAPI   H7R21882   5.551   3.470   6.909 -0.3057  0.6766 -0.3872
  190SAPI   H7S21883   5.732   3.451   6.927 -0.5609  1.8691  1.6210
  190SAPI   C2821884   5.680   3.523   6.736 -0.3096  0.2859 -0.2395
  190SAPI   H8R21885   5.778   3.480   6.711  0.6350 -0.1795  3.5666
  190SAPI   C2921886   5.616   3.591   6.635 -0.5550 -0.1092 -0.7005
  190SAPI   H9R21887   5.647   3.578   6.531 -1.3004 -1.2403 -0.8047
  190SAPI  C21021888   5.487   3.674   6.641 -0.5901 -0.0316  0.0746
  190SAPI  H10R21889   5.445   3.646   6.740  0.5649  1.2086  0.9656
  190SAPI  H10S21890   5.416   3.633   6.567 -0.3216  0.4963 -0.4880
  190SAPI  C21121891   5.512   3.821   6.626 -0.2358  0.0442  0.7775
  190SAPI  H11R21892   5.617   3.850   6.642  0.0031  0.0729 -0.7529
  190SAPI  C21221893   5.421   3.921   6.625  0.1729 -0.2046  0.1407
  190SAPI  H12R21894   5.458   4.024   6.628  1.6950 -0.7643  1.3856
  190SAPI  C21321895   5.271   3.904   6.633 -0.2181 -0.0507 -0.4149
  190SAPI  H13R21896   5.234   3.884   6.736  1.4478  0.1128  0.2347
  190SAPI  H13S21897   5.246   3.808   6.583 -0.4789 -2.1298  3.3038
  190SAPI  C21421898   5.202   4.024   6.570 -0.3171  0.2210 -0.4354
  190SAPI  H14R21899   5.172   4.099   6.644 -2.4774  1.3327 -2.3260
  190SAPI  C21521900   5.193   4.053   6.435  0.7076 -0.0972  0.3269
  190SAPI  H15R21901   5.147   4.148   6.404  1.4843  0.8344  1.8881
  190SAPI  C21621902   5.211   3.959   6.318 -0.0337  0.5559 -0.0501
  190SAPI  H16R21903   5.125   3.979   6.251 -1.8934 -0.8233  1.8134
  190SAPI  H16S21904   5.204   3.854   6.352  3.2102  0.3143  0.1876
  190SAPI  C21721905   5.343   3.982   6.240  0.2258 -0.6159  0.0242
  190SAPI  H17R21906   5.354   3.915   6.152  1.0363 -0.4428 -0.0179
  190SAPI  H17S21907   5.424   3.947   6.308 -1.2093  1.1856  2.8290
  190SAPI  C21821908   5.355   4.123   6.196 -0.1795  0.0053 -0.1120
  190SAPI  H18R21909   5.453   4.149   6.150  1.2594 -1.6597  1.8235
  190SAPI  H18S21910   5.363   4.194   6.281  2.1315  2.0888 -1.9112
  190SAPI  C21921911   5.246   4.178   6.100 -0.6216  0.8528  0.2155
  190SAPI  H19R21912   5.264   4.286   6.077  0.0752  1.3263  2.6856
  190SAPI  H19S21913   5.151   4.194   6.155 -0.6470  0.4115  0.3009
  190SAPI  C22021914   5.210   4.094   5.987 -0.3054 -0.3232  0.2920
  190SAPI  H20R21915   5.297   4.082   5.919 -1.1736  2.0642 -1.4084
  190SAPI  H20S21916   5.127   4.121   5.918  0.5140  2.8131  0.3690
  190SAPI  H20T21917   5.183   3.994   6.027  0.0938  0.2825  2.1663
  190SAPI   C3321918   6.520   3.440   7.061  0.1450  0.1286  0.7244
  190SAPI   H3X21919   6.562   3.533   7.105 -1.1104 -0.6621  3.8839
  190SAPI   H3Y21920   6.417   3.460   7.024 -0.2442 -2.5424  0.2113
  190SAPI   C3421921   6.601   3.388   6.947  0.4074 -0.4141  0.1099
  190SAPI   H4X21922   6.547   3.298   6.909 -0.2851 -0.2437  0.6717
  190SAPI   H4Y21923   6.700   3.354   6.982 -0.6301 -0.2410  3.6044
  190SAPI   C3521924   6.595   3.478   6.827  0.0231  0.1243 -0.0987
  190SAPI   H5X21925   6.694   3.519   6.800  0.9879 -1.7181  0.4735
  190SAPI   H5Y21926   6.525   3.560   6.854 -0.3845  0.1160 -1.0791
  190SAPI   C3621927   6.537   3.400   6.706 -0.5713  0.0198  0.4411
  190SAPI   H6X21928   6.432   3.377   6.735 -0.2376 -0.3122  1.4185
  190SAPI   H6Y21929   6.596   3.305   6.708  1.1227  0.9278 -1.8293
  190SAPI   C3721930   6.556   3.474   6.578 -0.0922 -0.7445 -0.2119
  190SAPI   H7X21931   6.663   3.489   6.553 -0.1112 -2.6014 -1.6014
  190SAPI   H7Y21932   6.511   3.575   6.584 -0.4681 -0.9741  1.4271
  190SAPI   C3821933   6.492   3.402   6.463  0.4726  0.3331  0.2309
  190SAPI   H8X21934   6.381   3.401   6.465  0.4642 -1.5201  1.7800
  190SAPI   H8Y21935   6.533   3.298   6.454  2.5403  1.1558 -0.5282
  190SAPI   C3921936   6.527   3.473   6.324  0.7463  0.3324 -0.2154
  190SAPI   H9X21937   6.635   3.497   6.321  0.7061  1.4524  3.2458
  190SAPI   H9Y21938   6.470   3.566   6.306  1.2232  0.4995 -0.8943
  190SAPI  C31021939   6.486   3.393   6.196 -0.5411  0.3120 -0.0292
  190SAPI  H10X21940   6.376   3.376   6.201 -0.8161  1.6235 -0.9932
  190SAPI  H10Y21941   6.537   3.295   6.190  0.4174  0.7974 -0.0114
  190SAPI  C31121942   6.514   3.488   6.077 -0.6107  0.5443  0.2318
  190SAPI  H11X21943   6.622   3.514   6.086 -0.0193 -2.1650  2.0646
  190SAPI  H11Y21944   6.456   3.580   6.101  0.6306  1.1784  0.9235
  190SAPI  C31221945   6.485   3.417   5.942 -0.3892 -0.3456  0.1942
  190SAPI  H12X21946   6.376   3.401   5.928 -0.4830 -0.4619  1.0042
  190SAPI  H12Y21947   6.538   3.319   5.943  0.4210 -0.0949 -3.4670
  190SAPI  C31321948   6.553   3.474   5.815 -0.0048  0.2911  0.7702
  190SAPI  H13X21949   6.553   3.394   5.738  0.0623  0.0524  1.0172
  190SAPI  H13Y21950   6.662   3.485   5.834 -0.4262  0.2475  3.6517
  190SAPI  C31421951   6.484   3.604   5.762 -0.1274 -0.9904 -0.3249
  190SAPI  H14X21952   6.489   3.677   5.846 -0.2862 -1.8722  0.4664
  190SAPI  H14Y21953   6.379   3.580   5.739  0.3582 -0.5536 -3.3902
  190SAPI  C31521954   6.557   3.675   5.649 -0.0025 -0.0544 -0.2245
  190SAPI  H15X21955   6.666   3.669   5.666 -0.0908  2.0360  1.5403
  190SAPI  H15Y21956   6.526   3.782   5.650 -0.1253 -0.0524  2.4235
  190SAPI  C31621957   6.519   3.601   5.517  0.9538  0.0754 -0.3085
  190SAPI  H16X21958   6.547   3.494   5.521  0.2876 -0.0813  0.5850
  190SAPI  H16Y21959   6.578   3.647   5.435 -2.7912  2.2186 -2.0688
  190SAPI  C31721960   6.370   3.620   5.484  0.3417  0.0909  0.6145
  190SAPI  H17X21961   6.311   3.535   5.525  1.3254 -1.7888 -1.6510
  190SAPI  H17Y21962   6.370   3.615   5.373 -2.3367  0.6112  0.5104
  190SAPI  C31821963   6.311   3.755   5.516 -0.4545 -0.1635  0.2678
  190SAPI  H18X21964   6.215   3.770   5.463 -0.0087  1.6400 -0.1071
  190SAPI  H18Y21965   6.369   3.845   5.484  1.4448 -1.6303 -0.5975
  190SAPI  H18Z21966   6.301   3.778   5.624  2.6513  1.1865  0.3732
  191SAPI   C1221967   1.503   6.367   2.694 -0.0692  0.0541 -0.4321
  191SAPI    H221968   1.528   6.475   2.691  2.0021 -0.3278  0.5717
  191SAPI    O221969   1.400   6.338   2.597 -0.1421  0.2178  0.4906
  191SAPI   HO221970   1.348   6.418   2.599 -2.1130 -0.9957  0.9992
  191SAPI   C1321971   1.634   6.286   2.676 -1.0982 -0.3434  0.6741
  191SAPI    H321972   1.697   6.310   2.764  0.4329 -3.4134  0.5599
  191SAPI    O321973   1.709   6.330   2.558  0.4225 -0.2304 -0.2851
  191SAPI   HO321974   1.800   6.315   2.585  0.4699  1.3746  0.5077
  191SAPI   C1421975   1.608   6.140   2.679  0.8175 -0.8841  0.3693
  191SAPI    H421976   1.554   6.119   2.584 -0.3741  2.9087  0.0461
  191SAPI    O421977   1.728   6.063   2.685  0.3236 -0.1583  0.4099
  191SAPI   HO421978   1.742   6.026   2.598  1.0368 -0.1584  0.5172
  191SAPI   C1521979   1.502   6.103   2.793  0.4015 -0.5803 -0.3567
  191SAPI    H521980   1.558   6.085   2.888  1.2112  2.4031 -0.1574
  191SAPI    O521981   1.430   5.981   2.769 -0.3468  0.2069  0.2710
  191SAPI   HO521982   1.389   5.998   2.683 -0.1440  4.5932  0.7869
  191SAPI   C1621983   1.401   6.204   2.855  0.5237  0.0470  0.6534
  191SAPI    H621984   1.318   6.186   2.783 -0.2752  2.0745  1.0074
  191SAPI    O621985   1.362   6.179   2.988  0.1844 -0.1423 -0.4359
  191SAPI   HO621986   1.266   6.182   2.986  0.0390 -1.8154  1.3411
  191SAPI   C1121987   1.437   6.351   2.832  0.4268  0.4158  0.6641
  191SAPI    H121988   1.515   6.358   2.911 -0.3159  0.3002  1.4113
  191SAPI     P21989   1.325   6.578   2.922  0.1594 -0.3474  0.0115
  191SAPI   O1321990   1.194   6.653   2.928  0.3685  0.0599 -0.2580
  191SAPI   O1421991   1.438   6.648   2.857  0.3021 -0.0600 -0.1535
  191SAPI   O1221992   1.318   6.434   2.848 -0.4541 -0.4141  0.3253
  191SAPI   O1121993   1.366   6.531   3.070 -0.3122  0.4666  0.6405
  191SAPI    C121994   1.408   6.623   3.172 -0.4788  0.2606 -0.6851
  191SAPI    HA21995   1.387   6.730   3.151  1.2402  1.0404  1.1900
  191SAPI    HB21996   1.348   6.600   3.263 -1.3733 -0.5338 -1.4666
  191SAPI    C221997   1.558   6.588   3.214  0.5163  0.1842 -0.4124
  191SAPI    HS21998   1.569   6.482   3.183  1.2648 -0.7215  2.5849
  191SAPI   O2121999   1.569   6.597   3.360  0.5182 -0.5094 -0.7897
  191SAPI   C2122000   1.670   6.541   3.415  0.2915  0.3640  0.1146
  191SAPI   O2222001   1.753   6.479   3.355 -0.1407 -0.3777 -0.5282
  191SAPI   C2222002   1.656   6.560   3.572 -0.0491 -0.9005  0.5998
  191SAPI   H2R22003   1.712   6.649   3.607 -2.4239  2.0250 -2.4484
  191SAPI   H2S22004   1.548   6.571   3.596 -0.7291 -0.6495 -2.2747
  191SAPI    C322005   1.654   6.679   3.136 -0.4033 -0.5842 -1.0889
  191SAPI    HX22006   1.627   6.675   3.028  0.5900 -0.5616 -1.3479
  191SAPI    HY22007   1.751   6.627   3.152  0.5473  1.1803 -0.9668
  191SAPI   O3122008   1.644   6.819   3.176 -0.2338  0.3171 -0.5513
  191SAPI   C3122009   1.752   6.869   3.227  0.3205  0.7078  0.1413
  191SAPI   O3222010   1.864   6.819   3.231 -0.0843 -0.5058 -0.6720
  191SAPI   C3222011   1.718   7.010   3.273 -0.7051 -0.5979 -0.2624
  191SAPI   H2X22012   1.628   7.058   3.227 -1.0600 -0.9793  0.0245
  191SAPI   H2Y22013   1.800   7.079   3.245 -0.7433 -0.1409  0.7099
  191SAPI   C2322014   1.707   6.430   3.651  0.6403  0.4248  0.4118
  191SAPI   H3R22015   1.809   6.409   3.614 -0.3601  0.0062 -2.2915
  191SAPI   H3S22016   1.650   6.342   3.616  0.2680  0.6917  0.3350
  191SAPI   C2422017   1.702   6.445   3.805  0.7836  0.2250 -0.0845
  191SAPI   H4R22018   1.750   6.543   3.826 -0.0615  1.1284 -2.0100
  191SAPI   H4S22019   1.750   6.357   3.852 -1.5780 -0.6082  0.9231
  191SAPI   C2522020   1.556   6.451   3.864  0.5096 -0.3331  0.0597
  191SAPI   H5R22021   1.477   6.491   3.799 -0.7487 -0.3344  1.5222
  191SAPI   C2622022   1.517   6.393   3.981  0.6639  0.4035  0.1247
  191SAPI   H6R22023   1.417   6.419   4.018 -0.2959 -2.0639 -0.5460
  191SAPI   C2722024   1.608   6.327   4.086 -0.2726 -0.0366 -0.3080
  191SAPI   H7R22025   1.592   6.386   4.178 -3.2441 -2.8681  1.1989
  191SAPI   H7S22026   1.714   6.323   4.052 -0.4355 -2.4292 -0.7347
  191SAPI   C2822027   1.565   6.187   4.124  0.2373  0.6674 -0.2631
  191SAPI   H8R22028   1.527   6.120   4.046 -0.5294 -0.7932  1.2973
  191SAPI   C2922029   1.559   6.127   4.252  0.2760  0.1755  0.7905
  191SAPI   H9R22030   1.518   6.025   4.253 -2.7011  1.2903  1.9873
  191SAPI  C21022031   1.588   6.195   4.382 -0.2249  0.2770  0.8284
  191SAPI  H10R22032   1.557   6.121   4.459 -0.8059  0.7492  1.0535
  191SAPI  H10S22033   1.511   6.275   4.389 -0.2209  0.4695 -0.8651
  191SAPI  C21122034   1.729   6.245   4.402  0.1776 -0.2807 -0.1165
  191SAPI  H11R22035   1.793   6.253   4.312  0.1741  1.7722  0.0169
  191SAPI  C21222036   1.782   6.258   4.525  0.3878 -0.1707  0.4775
  191SAPI  H12R22037   1.880   6.307   4.533 -0.8069  2.5936 -0.5296
  191SAPI  C21322038   1.714   6.229   4.654 -0.1122  0.0573  0.0405
  191SAPI  H13R22039   1.605   6.253   4.651 -0.0639  0.6112  1.6977
  191SAPI  H13S22040   1.741   6.297   4.737 -0.2355 -0.5227  0.5570
  191SAPI  C21422041   1.742   6.085   4.700  0.1445  0.6119 -0.4582
  191SAPI  H14R22042   1.724   6.004   4.629  0.2129 -0.2988  0.5317
  191SAPI  C21522043   1.807   6.045   4.813 -0.0526  0.1049  0.3063
  191SAPI  H15R22044   1.801   5.937   4.831  0.0866 -0.6781 -3.6328
  191SAPI  C21622045   1.846   6.142   4.921  0.6941  0.7977  0.2432
  191SAPI  H16R22046   1.765   6.159   4.995 -0.6398 -0.3453 -0.9014
  191SAPI  H16S22047   1.864   6.241   4.873 -1.0373  1.6191  1.1942
  191SAPI  C21722048   1.969   6.091   4.990 -0.1167 -0.2703 -0.1810
  191SAPI  H17R22049   2.023   6.184   5.019 -2.8334  1.1206  0.7660
  191SAPI  H17S22050   2.029   6.037   4.914 -0.6056  1.9394 -2.2808
  191SAPI  C21822051   1.959   5.997   5.106 -0.2614 -0.9112 -0.5983
  191SAPI  H18R22052   1.911   5.907   5.060  0.3712 -0.1066 -3.0039
  191SAPI  H18S22053   1.890   6.039   5.183 -0.3881  0.5185 -1.4547
  191SAPI  C21922054   2.095   5.985   5.178  0.1578 -0.3581 -0.0088
  191SAPI  H19R22055   2.129   6.090   5.187 -0.9154 -0.0087  0.0142
  191SAPI  H19S22056   2.154   5.921   5.108 -2.7880 -1.2791 -1.8336
  191SAPI  C22022057   2.073   5.907   5.312 -0.2003  0.2159 -0.7812
  191SAPI  H20R22058   2.170   5.888   5.364 -0.5266  1.2559  0.2643
  191SAPI  H20S22059   2.031   5.808   5.286  1.4171 -0.2240 -1.8292
  191SAPI  H20T22060   1.986   5.949   5.367  0.2575  0.1593  0.0116
  191SAPI   C3322061   1.692   7.014   3.425 -0.3257 -0.0515  0.0641
  191SAPI   H3X22062   1.666   7.117   3.454 -0.2714  0.5487 -1.8468
  191SAPI   H3Y22063   1.784   6.991   3.482 -0.5223  2.5958  1.5815
  191SAPI   C3422064   1.573   6.927   3.467  0.3690 -0.6511  0.1073
  191SAPI   H4X22065   1.600   6.820   3.452  0.9869 -0.5996  0.8019
  191SAPI   H4Y22066   1.488   6.952   3.401 -0.9870  0.8053  2.2753
  191SAPI   C3522067   1.530   6.974   3.609 -0.2213  0.6068 -0.1671
  191SAPI   H5X22068   1.436   6.917   3.628  0.0731 -0.3510 -1.4136
  191SAPI   H5Y22069   1.496   7.079   3.613 -2.0463  0.0609 -0.3394
  191SAPI   C3622070   1.634   6.938   3.723 -0.0563 -0.2598 -0.2839
  191SAPI   H6X22071   1.680   7.035   3.753  0.4239 -0.0837 -1.5373
  191SAPI   H6Y22072   1.725   6.884   3.689  1.3379  2.4117 -1.0849
  191SAPI   C3722073   1.562   6.869   3.838 -0.3725  0.4311  0.2044
  191SAPI   H7X22074   1.510   6.774   3.816 -1.7969  1.0072  0.9710
  191SAPI   H7Y22075   1.479   6.935   3.871 -1.8463 -0.4221 -1.5924
  191SAPI   C3822076   1.652   6.851   3.956  0.1631  0.2590  0.5135
  191SAPI   H8X22077   1.688   6.953   3.981 -0.7839  0.7074  0.0974
  191SAPI   H8Y22078   1.740   6.788   3.931 -1.3071 -0.9399 -2.0138
  191SAPI   C3922079   1.569   6.805   4.077 -0.0438  0.0539  0.7388
  191SAPI   H9X22080   1.493   6.732   4.040  0.2278  0.2734 -0.2557
  191SAPI   H9Y22081   1.513   6.884   4.131  1.2885  2.2126 -0.9130
  191SAPI  C31022082   1.661   6.738   4.183  0.5290  0.0265 -0.6576
  191SAPI  H10X22083   1.744   6.810   4.196 -1.7219  2.7173  0.0314
  191SAPI  H10Y22084   1.697   6.638   4.151 -1.7507 -1.6461  1.5901
  191SAPI  C31122085   1.577   6.721   4.317 -0.0491 -0.2818  0.1929
  191SAPI  H11X22086   1.504   6.638   4.313 -0.8869  0.3630  1.5339
  191SAPI  H11Y22087   1.519   6.815   4.326 -0.0308 -0.0077 -1.8707
  191SAPI  C31222088   1.673   6.702   4.438 -0.0887  0.1232 -0.3678
  191SAPI  H12X22089   1.735   6.794   4.451 -0.2230  0.2427 -0.5664
  191SAPI  H12Y22090   1.753   6.631   4.409 -1.4206 -1.8390  0.6034
  191SAPI  C31322091   1.594   6.656   4.565 -0.0424 -0.1717  0.8707
  191SAPI  H13X22092   1.560   6.550   4.557  1.0124 -0.6078  1.9319
  191SAPI  H13Y22093   1.498   6.710   4.579  1.7171  3.4613  0.0025
  191SAPI  C31422094   1.681   6.685   4.695 -0.2635  0.1998 -0.1929
  191SAPI  H14X22095   1.665   6.795   4.693 -0.3415  0.1760 -0.8451
  191SAPI  H14Y22096   1.783   6.641   4.681 -0.5839  0.3197 -3.5329
  191SAPI  C31522097   1.614   6.639   4.827 -0.3725  0.0042  0.1704
  191SAPI  H15X22098   1.609   6.528   4.817  0.3718 -0.1694  1.4659
  191SAPI  H15Y22099   1.510   6.678   4.822 -0.8166 -1.2692 -1.3850
  191SAPI  C31622100   1.685   6.687   4.957  0.2936  0.5867 -0.1619
  191SAPI  H16X22101   1.694   6.794   4.929 -1.0737  0.9285  0.6087
  191SAPI  H16Y22102   1.784   6.637   4.956  0.1669  0.2920  0.8445
  191SAPI  C31722103   1.605   6.672   5.088 -0.3942 -0.2669 -0.4317
  191SAPI  H17X22104   1.661   6.712   5.175 -1.9483  0.6128  0.2054
  191SAPI  H17Y22105   1.588   6.564   5.107  0.9440 -0.3186  0.5813
  191SAPI  C31822106   1.460   6.724   5.091 -0.1083 -0.2093  0.2858
  191SAPI  H18X22107   1.456   6.831   5.061 -2.5266  0.1764  1.7173
  191SAPI  H18Y22108   1.427   6.700   5.194 -2.9937 -3.1208 -1.1447
  191SAPI  H18Z22109   1.397   6.669   5.019 -0.3853  0.2329  0.1887
  192SAPI   C1222110   5.446   3.773   3.065  0.0992 -0.4098  0.5378
  192SAPI    H222111   5.463   3.813   3.167  1.8206 -1.1447  0.5894
  192SAPI    O222112   5.480   3.877   2.984 -0.6245  0.5804  0.0881
  192SAPI   HO222113   5.436   3.952   3.024 -3.0489 -0.9003  0.3440
  192SAPI   C1322114   5.544   3.666   3.051  0.3292 -0.1126  0.1401
  192SAPI    H322115   5.527   3.589   3.129 -0.0390  0.3990  0.5778
  192SAPI    O322116   5.674   3.713   3.090 -0.4880  0.1219  0.2339
  192SAPI   HO322117   5.703   3.776   3.023  0.9666 -0.7651 -0.0118
  192SAPI   C1422118   5.540   3.580   2.919  0.1983  0.4824  0.5225
  192SAPI    H422119   5.570   3.644   2.833 -1.6448  0.9186  0.1488
  192SAPI    O422120   5.607   3.458   2.929 -0.6300  0.0100  0.0181
  192SAPI   HO422121   5.702   3.466   2.926 -0.3319 -2.7462 -0.0562
  192SAPI   C1522122   5.396   3.552   2.870  0.0618 -0.3500 -0.7162
  192SAPI    H522123   5.364   3.466   2.934  3.1689  1.1807  3.3562
  192SAPI    O522124   5.383   3.493   2.738  0.2414  0.3181 -0.0479
  192SAPI   HO522125   5.417   3.403   2.734  1.5288  0.8135 -1.6845
  192SAPI   C1622126   5.296   3.668   2.887  0.0883  1.0171  0.5751
  192SAPI    H622127   5.334   3.737   2.809  0.5900 -1.3231 -1.3670
  192SAPI    O622128   5.166   3.625   2.861 -0.0951 -0.1449 -0.5666
  192SAPI   HO622129   5.111   3.673   2.923 -0.1548 -1.5059  0.4694
  192SAPI   C1122130   5.307   3.732   3.024  0.5384 -0.3432  0.0624
  192SAPI    H122131   5.275   3.645   3.086  0.2492  0.2448  0.7536
  192SAPI     P22132   5.073   3.837   3.108 -0.1363  0.1789  0.3839
  192SAPI   O1322133   4.988   3.736   3.035  0.8002 -1.0391  0.3228
  192SAPI   O1422134   5.021   3.975   3.129  0.3453 -0.0462 -0.0482
  192SAPI   O1222135   5.220   3.848   3.043 -0.5528  0.0909 -0.4076
  192SAPI   O1122136   5.109   3.766   3.243 -0.3897  0.8770 -0.0515
  192SAPI    C122137   5.190   3.830   3.347  0.6252  0.4486  0.7152
  192SAPI    HA22138   5.288   3.777   3.354  0.1527 -0.8866 -1.8474
  192SAPI    HB22139   5.202   3.940   3.336  0.5821  0.4431  0.6129
  192SAPI    C222140   5.114   3.808   3.479  0.0077  0.6074  0.2125
  192SAPI    HS22141   5.101   3.699   3.495  0.6758  0.5828  0.5928
  192SAPI   O2122142   4.990   3.870   3.463  0.5825  0.0101  1.0822
  192SAPI   C2122143   4.882   3.801   3.408 -0.5903  0.5067 -0.0189
  192SAPI   O2222144   4.880   3.678   3.390 -0.5285 -0.0459 -0.6657
  192SAPI   C2222145   4.764   3.886   3.394 -0.3195  0.4828  0.1497
  192SAPI   H2R22146   4.798   3.990   3.413 -1.2668  0.9411 -0.5731
  192SAPI   H2S22147   4.738   3.875   3.286  1.7894  2.8461 -0.6881
  192SAPI    C322148   5.202   3.865   3.594 -1.5810 -0.3834  0.3195
  192SAPI    HX22149   5.211   3.975   3.581  0.6399 -0.6764 -1.3076
  192SAPI    HY22150   5.308   3.829   3.589 -1.5111 -0.3682  1.4219
  192SAPI   O3122151   5.143   3.838   3.725  0.1668  0.1977 -0.6740
  192SAPI   C3122152   5.191   3.724   3.782  0.2353  0.1848 -0.3705
  192SAPI   O3222153   5.248   3.631   3.726  0.0725  0.0929 -0.1297
  192SAPI   C3222154   5.155   3.732   3.929 -0.5410  0.6440 -0.2519
  192SAPI   H2X22155   5.047   3.757   3.941 -0.5747 -0.1810  1.6819
  192SAPI   H2Y22156   5.218   3.815   3.967  0.5760 -0.0204 -0.6276
  192SAPI   C2322157   4.644   3.842   3.487  0.5957 -0.8627 -0.0584
  192SAPI   H3R22158   4.603   3.747   3.446 -0.3326  0.2867 -1.9617
  192SAPI   H3S22159   4.562   3.913   3.461  2.2526  0.9852 -0.4929
  192SAPI   C2422160   4.671   3.823   3.637  0.2545 -0.2668 -0.4255
  192SAPI   H4R22161   4.753   3.750   3.651  1.0426  0.6687 -0.1140
  192SAPI   H4S22162   4.579   3.780   3.683  1.1599 -0.4599  1.2716
  192SAPI   C2522163   4.708   3.961   3.690 -0.5015 -0.9149  0.3486
  192SAPI   H5R22164   4.783   4.018   3.632 -1.5495 -1.1057 -1.2347
  192SAPI   C2622165   4.647   4.025   3.796  1.0403 -0.6103  1.1690
  192SAPI   H6R22166   4.687   4.122   3.830  1.0964  0.7835 -2.4263
  192SAPI   C2722167   4.550   3.960   3.892  0.1395 -0.4755 -0.3614
  192SAPI   H7R22168   4.583   3.862   3.934 -0.8055  0.3843  2.6696
  192SAPI   H7S22169   4.462   3.939   3.828  0.0349 -0.0274 -0.3644
  192SAPI   C2822170   4.502   4.047   4.002 -0.0021  0.2715  0.1956
  192SAPI   H8R22171   4.450   4.142   3.978  1.1183  0.8608  0.0160
  192SAPI   C2922172   4.515   4.022   4.135  0.5202  0.0796 -0.1965
  192SAPI   H9R22173   4.455   4.096   4.190  0.2370  0.8376 -1.4637
  192SAPI  C21022174   4.562   3.909   4.216  0.6841  0.3082 -0.4908
  192SAPI  H10R22175   4.583   3.829   4.142 -1.3075 -0.9539  0.2249
  192SAPI  H10S22176   4.472   3.865   4.264 -0.3800  1.6487 -1.1564
  192SAPI  C21122177   4.667   3.943   4.314 -0.9692  0.3837 -0.0401
  192SAPI  H11R22178   4.770   3.956   4.276 -1.2116 -1.6880 -1.6059
  192SAPI  C21222179   4.656   3.950   4.448  0.1206 -0.6259  0.4642
  192SAPI  H12R22180   4.743   3.970   4.511  1.1481  2.5669 -1.7270
  192SAPI  C21322181   4.529   3.941   4.525 -0.4738 -0.0047 -0.0020
  192SAPI  H13R22182   4.520   3.832   4.541 -1.1381  0.0205 -0.1805
  192SAPI  H13S22183   4.446   3.972   4.457  0.8098  1.2646 -1.0359
  192SAPI  C21422184   4.514   4.020   4.655 -0.1156  0.2666  0.3769
  192SAPI  H14R22185   4.548   4.125   4.649  2.1330 -0.4743 -2.3649
  192SAPI  C21522186   4.469   3.973   4.775 -0.2738  0.0647 -0.5942
  192SAPI  H15R22187   4.456   4.037   4.863  0.1550  0.1178 -0.5656
  192SAPI  C21622188   4.424   3.833   4.792  0.3941 -1.0118  1.0983
  192SAPI  H16R22189   4.520   3.779   4.805  2.1079  1.3607 -0.7679
  192SAPI  H16S22190   4.378   3.794   4.699 -0.0099 -0.9631  1.2758
  192SAPI  C21722191   4.326   3.812   4.910  0.2787 -0.4863 -0.6883
  192SAPI  H17R22192   4.294   3.705   4.914 -1.6783  0.0814  0.3271
  192SAPI  H17S22193   4.234   3.872   4.895  0.6891  0.2182 -0.4096
  192SAPI  C21822194   4.393   3.857   5.045  0.6044 -0.0816 -0.1351
  192SAPI  H18R22195   4.321   3.857   5.130 -1.0095  2.2223 -1.4066
  192SAPI  H18S22196   4.428   3.962   5.038 -2.5661  0.9566 -2.9726
  192SAPI  C21922197   4.508   3.763   5.074  0.1634  0.4683  0.2663
  192SAPI  H19R22198   4.585   3.763   4.994 -0.3162 -0.0464 -0.2058
  192SAPI  H19S22199   4.459   3.663   5.066 -2.4134  1.7583 -1.5146
  192SAPI  C22022200   4.565   3.776   5.216  0.2361 -0.9673  0.5082
  192SAPI  H20R22201   4.622   3.682   5.233  0.1283 -1.0858  0.2185
  192SAPI  H20S22202   4.482   3.797   5.286  0.6770  2.1808  0.2650
  192SAPI  H20T22203   4.625   3.870   5.215  0.3207 -0.9912 -1.1805
  192SAPI   C3322204   5.186   3.608   4.015  0.3796  0.2195 -0.2606
  192SAPI   H3X22205   5.282   3.565   3.979  0.7101  0.4431  0.3469
  192SAPI   H3Y22206   5.103   3.535   4.004  1.0158 -0.7660  1.2677
  192SAPI   C3422207   5.206   3.646   4.162 -0.0514  0.4759  0.5027
  192SAPI   H4X22208   5.306   3.689   4.185 -0.7716  1.4407  1.9738
  192SAPI   H4Y22209   5.201   3.556   4.228 -0.2847 -1.1665 -1.6465
  192SAPI   C3522210   5.100   3.746   4.216 -0.3541  0.8197  1.0264
  192SAPI   H5X22211   5.003   3.733   4.163  0.7096  1.0614 -1.0532
  192SAPI   H5Y22212   5.131   3.851   4.200  0.8308  0.2852 -0.4045
  192SAPI   C3622213   5.054   3.719   4.361 -0.4443  0.2194  0.8785
  192SAPI   H6X22214   5.036   3.611   4.382  1.4083 -0.6084 -1.3141
  192SAPI   H6Y22215   4.970   3.788   4.384  0.5671  2.0978 -0.6974
  192SAPI   C3722216   5.161   3.744   4.460  0.0177 -0.3616  0.2289
  192SAPI   H7X22217   5.195   3.849   4.445 -0.5375 -0.1326  0.5334
  192SAPI   H7Y22218   5.252   3.684   4.439 -0.4963 -0.4984 -1.7787
  192SAPI   C3822219   5.121   3.718   4.609  0.4721  0.1424 -0.2667
  192SAPI   H8X22220   5.085   3.613   4.617 -1.1736  0.4233 -2.8092
  192SAPI   H8Y22221   5.028   3.774   4.632  0.4364  0.1906 -0.5342
  192SAPI   C3922222   5.230   3.752   4.715  0.1007  0.9332 -0.1164
  192SAPI   H9X22223   5.288   3.838   4.676  2.3881 -0.7707 -0.6864
  192SAPI   H9Y22224   5.295   3.662   4.711 -0.9653  0.1762 -0.8625
  192SAPI  C31022225   5.195   3.791   4.854  0.0745  0.4723 -0.2766
  192SAPI  H10X22226   5.102   3.851   4.851 -0.6962 -0.6698  0.1834
  192SAPI  H10Y22227   5.282   3.844   4.898  1.0274 -0.4605 -0.9721
  192SAPI  C31122228   5.168   3.667   4.946  0.1113 -1.2123  0.0345
  192SAPI  H11X22229   5.263   3.609   4.943  2.2721  2.0323  0.1844
  192SAPI  H11Y22230   5.079   3.615   4.904 -1.4955 -0.5960  2.4790
  192SAPI  C31222231   5.142   3.714   5.093 -0.6964 -0.9515  0.5073
  192SAPI  H12X22232   5.203   3.803   5.120 -0.5732 -1.0127  0.4335
  192SAPI  H12Y22233   5.175   3.623   5.148  1.0039 -0.6533  0.0371
  192SAPI  C31322234   4.994   3.756   5.114 -0.4736 -0.4935  0.6973
  192SAPI  H13X22235   4.928   3.699   5.045  0.4596 -2.4607  1.3623
  192SAPI  H13Y22236   4.988   3.856   5.067  1.0721 -0.6055  0.2117
  192SAPI  C31422237   4.947   3.750   5.254 -0.5300  0.2621  0.4359
  192SAPI  H14X22238   4.846   3.794   5.244 -0.6150 -0.1530 -0.7025
  192SAPI  H14Y22239   5.010   3.806   5.327  0.0324 -0.9662  0.9189
  192SAPI  C31522240   4.941   3.601   5.299 -0.3271 -0.1855  0.1465
  192SAPI  H15X22241   5.039   3.549   5.303  0.0189  0.1532 -2.4072
  192SAPI  H15Y22242   4.886   3.542   5.222 -0.4513 -0.2105  0.2524
  192SAPI  C31622243   4.857   3.587   5.423 -0.0497  0.2859 -0.0385
  192SAPI  H16X22244   4.801   3.491   5.414 -0.5355  0.7267 -2.6602
  192SAPI  H16Y22245   4.784   3.669   5.436 -0.8974 -0.0021 -2.5020
  192SAPI  C31722246   4.941   3.590   5.557 -0.2620  0.2759 -0.5697
  192SAPI  H17X22247   4.874   3.586   5.645 -0.0525  0.7475 -0.3910
  192SAPI  H17Y22248   4.986   3.691   5.561 -1.1498  0.6473  0.8492
  192SAPI  C31822249   5.042   3.473   5.576 -0.4499  0.4793  0.6936
  192SAPI  H18X22250   4.999   3.371   5.580  1.1379 -0.3021 -1.1305
  192SAPI  H18Y22251   5.102   3.490   5.668  0.0535 -1.1692  0.6846
  192SAPI  H18Z22252   5.114   3.480   5.492 -1.5296  4.7898 -0.1304
  193SOD    SOD22253   1.940   0.536   1.074  0.5148  0.0857 -0.4034
  194SOD    SOD22254   2.660   0.748   2.982 -0.2544  0.1450 -0.4175
  195SOD    SOD22255   0.708   3.386   8.673  0.3533  0.2550 -0.1417
  196SOD    SOD22256   5.122   3.177   2.213 -0.0231 -0.0797  0.1061
  197SOD    SOD22257   4.903   1.010   7.904 -0.2254 -0.0481 -0.4340
  198SOD    SOD22258   6.215   0.734   7.609 -0.0774 -0.3297 -0.2565
  199SOD    SOD22259   2.330   2.435   8.012 -0.1912  0.0375 -0.0628
  200SOD    SOD22260   2.087   1.109   1.760  0.3823 -0.2558  0.4214
  201SOD    SOD22261   2.898   3.576   3.178 -0.0784  0.6539 -0.3610
  202SOD    SOD22262   2.607   4.504   3.391  0.7198  0.1992  0.1010
  203SOD    SOD22263   5.897   4.373   2.190 -0.2213  0.3178 -0.2640
  204SOD    SOD22264   3.768   5.709   8.541 -0.6760  0.3559 -0.0399
  205SOD    SOD22265   4.418   2.709   7.453  0.4188  0.1022 -0.3996
  206SOD    SOD22266   0.030   5.428   1.702 -0.1532 -0.3480 -0.0017
  207SOD    SOD22267   2.111   0.760   7.407 -0.6033  0.7288 -0.7405
  208SOD    SOD22268   5.068   2.718   0.023  0.3203 -0.3533  0.3075
  209SOD    SOD22269   1.972   6.332   3.030  0.0662 -0.0776 -0.3807
  210SOD    SOD22270   6.172   1.701   2.708 -0.5235 -0.0342 -0.2862
  211SOD    SOD22271   1.617   4.735   3.098  0.5011  0.1928  0.3770
  212SOD    SOD22272   3.633   0.745   8.607  0.0808  0.4270 -0.2066
  213SOD    SOD22273   2.928   0.485   7.610 -0.1950  0.2596  0.1201
  214SOD    SOD22274   1.284   6.587   8.365  0.0671  0.1315 -0.1429
  215SOD    SOD22275   1.276   5.658   0.145  0.0083  1.4044  0.2854
  216SOD    SOD22276   2.213   0.212   7.232 -0.1215 -0.1786  0.1859
  217SOD    SOD22277   1.359   2.730   8.800 -0.6169 -1.1767  0.0078
  218SOD    SOD22278   4.983   3.372   0.677  0.1812  0.0024  0.8188
  219SOD    SOD22279   5.113   4.545   0.989  0.0539  0.2251  0.0400
  220SOD    SOD22280   3.538   4.572   8.477  0.0455  0.0540 -0.3220
  221SOD    SOD22281   2.968   6.025   1.674 -0.5841  0.1029 -0.0129
  222SOD    SOD22282   3.481   5.614   2.866  0.3887 -0.1718  0.0999
  223SOD    SOD22283   2.294   6.531   1.369  0.1253 -0.0552 -0.6740
  224SOD    SOD22284   4.266   0.107   0.880 -0.2876 -0.4078 -0.1816
  225SOD    SOD22285   4.185   5.302   1.690  0.4145 -0.2272  0.0136
  226SOD    SOD22286   4.804   0.521   7.277 -0.1149  0.3801 -0.1034
  227SOD    SOD22287   2.808   3.200   2.802 -0.0557  0.1522  0.2010
  228SOD    SOD22288   1.990   1.210   7.299 -0.2829  0.1657 -0.2342
  229SOD    SOD22289   4.227   6.183   2.453  0.3872 -0.8425 -0.2256
  230SOD    SOD22290   3.862   0.889   3.019  0.3029 -0.3621 -0.0078
  231SOD    SOD22291   4.414   1.202   1.863  0.3159  0.2054 -0.4814
  232SOD    SOD22292   1.261   6.704   2.110 -0.1196  0.1946  0.2027
  233SOD    SOD22293   4.268   1.872   2.989  0.0643  0.3501 -0.0136
  234CLA    CLA22294   5.576   3.369   0.294 -0.0237 -0.2127 -0.0481
  235CLA    CLA22295   6.225   0.925   0.277 -0.0813 -0.4851  0.4190
  236CLA    CLA22296   2.873   3.449   1.219  0.4197  0.5479  0.3109
  237CLA    CLA22297   4.097   1.586   1.991 -0.0165 -0.1078  0.6147
  238CLA    CLA22298   6.328   5.697   0.204  0.1010  0.0536 -0.0094
  239CLA    CLA22299   5.713   4.060   2.692 -0.3899 -0.1339 -0.0262
  240CLA    CLA22300   5.781   5.314   2.240 -0.0089  0.2114  0.1074
  241CLA    CLA22301   5.435   1.256   2.784 -0.1345 -0.0238  0.0032
  242CLA    CLA22302   2.510   0.642   1.462 -0.0755  0.3631  0.5484
  243CLA    CLA22303   4.744   6.440   1.770 -0.1370  0.0596  0.2305
  244CLA    CLA22304   3.812   2.076   0.971  0.3311  0.1231  0.2493
  245CLA    CLA22305   5.259   5.907   0.607  0.3244 -0.0261 -0.0248
  246CLA    CLA22306   3.374   0.407   8.487 -0.0298 -0.4491  0.2191
  247CLA    CLA22307   1.962   5.421   8.569  0.4619  0.1641 -0.4014
  248CLA    CLA22308   5.726   3.159   1.874  0.0563 -0.6404 -0.5388
  249CLA    CLA22309   5.838   2.089   1.619 -0.1103  0.0838  0.2319
  250CLA    CLA22310   2.840   6.641   1.196  0.4891  0.0382  0.2503
  251TIP3   OH222311   0.580   1.652   8.690  0.3718 -0.2816  0.0845
  251TIP3    H122312   0.644   1.626   8.757 -1.5452 -1.5175  1.5709
  251TIP3    H222313   0.496   1.619   8.724 -0.8418 -0.0421 -2.4841
  252TIP3   OH222314   5.233   1.585   7.377 -0.0941 -0.0038  0.9385
  252TIP3    H122315   5.295   1.544   7.316  1.5670  1.1597  1.7475
  252TIP3    H222316   5.169   1.629   7.321 -1.2386 -2.6182  0.0680
  253TIP3   OH222317   2.947   0.125   2.517 -0.3995 -0.0283 -0.3310
  253TIP3    H122318   2.862   0.101   2.478 -0.8050  2.0124 -0.7913
  253TIP3    H222319   2.925   0.183   2.589  0.5097 -1.7227  1.3833
  254TIP3   OH222320   3.546   6.565   8.642 -0.1581 -0.2804 -0.7258
  254TIP3    H122321   3.533   6.635   8.578 -2.1372  0.5580  0.5003
  254TIP3    H222322   3.629   6.586   8.685  0.1292  0.3285 -1.5649
  255TIP3   OH222323   3.434   5.194   2.522 -0.4732 -0.2271 -0.9705
  255TIP3    H122324   3.420   5.110   2.567 -0.5606 -0.6655 -1.7880
  255TIP3    H222325   3.524   5.217   2.542  0.2927 -1.6726 -2.5754
  256TIP3   OH222326   5.965   0.907   1.995 -0.1057 -0.4828 -0.2812
  256TIP3    H122327   5.927   0.962   1.927 -0.3413 -0.1935  0.0736
  256TIP3    H222328   5.946   0.817   1.968  2.0421 -0.5078 -1.8977
  257TIP3   OH222329   5.839   2.399   2.639 -0.0370 -0.3028 -0.1158
  257TIP3    H122330   5.768   2.337   2.620 -0.4991 -0.7567  2.6733
  257TIP3    H222331   5.908   2.345   2.678  0.8690  0.5125 -0.5588
  258TIP3   OH222332   2.110   2.864   1.625  0.0589  0.1325 -0.1141
  258TIP3    H122333   2.110   2.933   1.559  2.9478  0.8689  0.5305
  258TIP3    H222334   2.177   2.891   1.688 -0.9369 -1.7272  1.8573
  259TIP3   OH222335   6.701   4.798   8.264 -0.1238 -0.1595  0.3411
  259TIP3    H122336   6.718   4.719   8.212 -2.4307 -1.5014  1.4577
  259TIP3    H222337   6.690   4.867   8.199  1.1756 -0.8817 -0.7133
  260TIP3   OH222338   4.443   1.321   8.735 -0.6121 -0.1271  0.0373
  260TIP3    H122339   4.522   1.353   8.777 -0.5357 -0.3929  0.0968
  260TIP3    H222340   4.459   1.228   8.721 -0.5288  0.0039 -0.8150
  261TIP3   OH222341   6.315   5.698   2.480 -0.6639  0.2128 -0.2611
  261TIP3    H122342   6.371   5.730   2.551 -1.4525  0.4151  0.2778
  261TIP3    H222343   6.367   5.714   2.401  1.3145 -2.3026  0.3875
  262TIP3   OH222344   2.458   1.766   2.289 -0.6651  0.3680 -0.0435
  262TIP3    H122345   2.441   1.836   2.225  0.3588  0.7633  0.0982
  262TIP3    H222346   2.540   1.727   2.259 -1.8576 -1.6307 -0.8527
  263TIP3   OH222347   1.227   1.933   7.880 -0.0290  0.4531  0.5935
  263TIP3    H122348   1.143   1.971   7.855 -0.9685 -1.6022  0.3863
  263TIP3    H222349   1.226   1.846   7.839  0.9037 -0.7774  3.0242
  264TIP3   OH222350   2.300   3.150   0.943  0.0806  0.1426  0.1990
  264TIP3    H122351   2.322   3.095   1.018  0.1077  0.9525  0.7998
  264TIP3    H222352   2.370   3.215   0.940  1.8550 -1.7047 -2.4612
  265TIP3   OH222353   0.768   6.374   2.723  0.6814 -0.4331  0.2254
  265TIP3    H122354   0.828   6.425   2.668  0.2763  1.0001  1.0529
  265TIP3    H222355   0.799   6.389   2.813 -1.0135  0.5614  0.7041
  266TIP3   OH222356   3.750   1.559   8.274 -0.1415 -0.0495  0.3909
  266TIP3    H122357   3.788   1.582   8.359  0.5880 -0.7572  0.2694
  266TIP3    H222358   3.795   1.478   8.249 -1.0925 -0.4159 -0.1860
  267TIP3   OH222359   0.793   6.053   1.874 -0.5021 -0.3508 -0.1760
  267TIP3    H122360   0.703   6.085   1.862 -0.0349  0.6329 -1.2330
  267TIP3    H222361   0.845   6.102   1.810  0.2569 -3.2880 -2.0014
  268TIP3   OH222362   0.737   5.745   3.660 -0.2306  0.4334 -0.0420
  268TIP3    H122363   0.743   5.826   3.610  0.4360  0.9908  0.9074
  268TIP3    H222364   0.810   5.692   3.628 -0.1369  0.5659 -0.0508
  269TIP3   OH222365   1.522   6.190   8.911 -0.3271 -0.4136 -0.2585
  269TIP3    H122366   1.505   6.139   8.832 -1.3534  1.5548 -1.3854
  269TIP3    H222367   1.468   6.268   8.901  3.4610  2.5275 -0.2168
  270TIP3   OH222368   0.280   4.671   1.145 -1.2199 -0.1237 -0.6261
  270TIP3    H122369   0.221   4.730   1.098 -1.4408 -0.4002 -0.7014
  270TIP3    H222370   0.361   4.672   1.095 -0.9985  0.6323 -0.2559
  271TIP3   OH222371   1.053   0.525   8.851  0.4712  0.2896  0.2787
  271TIP3    H122372   1.118   0.536   8.780 -0.1371  2.1110 -0.0430
  271TIP3    H222373   0.969   0.521   8.806  0.1929 -0.0938  0.8225
  272TIP3   OH222374   2.713   2.398   0.335  0.1838 -0.0936 -0.1611
  272TIP3    H122375   2.631   2.437   0.307 -0.7636 -1.0424  1.2122
  272TIP3    H222376   2.723   2.424   0.426  1.6193  0.3221 -0.4069
  273TIP3   OH222377   0.812   2.118   0.974 -0.6334 -0.0793  0.5388
  273TIP3    H122378   0.820   2.195   0.917 -3.2777  1.5160  2.0845
  273TIP3    H222379   0.748   2.062   0.930 -1.0074  0.1107  0.8230
  274TIP3   OH222380   4.490   0.188   8.923  0.3717  0.3914  0.0391
  274TIP3    H122381   4.462   0.166   8.834 -0.6463  1.1722  0.1513
  274TIP3    H222382   4.577   0.149   8.931 -0.1056 -0.9142 -0.8130
  275TIP3   OH222383   5.455   1.120   8.443 -0.8566  0.0028  0.2981
  275TIP3    H122384   5.383   1.069   8.481 -2.4866  1.6103 -0.5250
  275TIP3    H222385   5.496   1.059   8.380 -2.2626 -0.5741 -0.1040
  276TIP3   OH222386   0.451   1.634   0.468  0.1798 -0.5248 -0.0735
  276TIP3    H122387   0.376   1.614   0.412  0.5748 -0.8122 -0.5105
  276TIP3    H222388   0.435   1.585   0.549 -1.2032  1.1690  0.7362
  277TIP3   OH222389   2.953   0.805   2.136  0.2695 -0.4054  0.3583
  277TIP3    H122390   2.900   0.736   2.176 -0.8626  0.5079  0.4767
  277TIP3    H222391   2.987   0.766   2.056 -2.9646 -0.1906 -1.2899
  278TIP3   OH222392   1.527   2.337   0.788 -0.1958 -0.3037 -0.1129
  278TIP3    H122393   1.535   2.283   0.867 -2.9257 -0.4508  0.1605
  278TIP3    H222394   1.581   2.292   0.723 -2.5923 -3.7856 -0.0096
  279TIP3   OH222395   0.135   5.293   7.924  0.3394 -0.2564  0.1373
  279TIP3    H122396   0.041   5.310   7.918  0.1511 -0.5026  1.8743
  279TIP3    H222397   0.146   5.207   7.885  0.0470  0.2392 -1.1140
  280TIP3   OH222398   6.295   6.029   8.952 -0.0072 -0.1053 -0.4284
  280TIP3    H122399   6.202   6.049   8.940  0.2049  0.8841 -0.4347
  280TIP3    H222400   6.307   6.028   9.047 -0.1830 -1.0243 -0.4042
  281TIP3   OH222401   1.992   3.751   8.956 -0.2686  0.1968  0.0468
  281TIP3    H122402   2.011   3.689   9.026 -1.0843 -0.2418 -0.1109
  281TIP3    H222403   2.051   3.726   8.885 -0.7709 -0.5758 -0.1113
  282TIP3   OH222404   2.315   1.406   3.271 -0.5352  0.1817  0.2148
  282TIP3    H122405   2.391   1.459   3.293 -0.3665 -0.6691  1.8863
  282TIP3    H222406   2.241   1.467   3.272  0.0306  0.9074 -0.8934
  283TIP3   OH222407   2.069   2.197   8.431  0.1936 -0.4052  0.0202
  283TIP3    H122408   2.065   2.152   8.346  2.7162 -1.0652  0.1635
  283TIP3    H222409   2.130   2.270   8.416 -2.2086  1.7984  0.3523
  284TIP3   OH222410   1.639   4.900   1.042  0.1371 -0.2527  0.1337
  284TIP3    H122411   1.646   4.894   1.138  1.5599  0.0188  0.0663
  284TIP3    H222412   1.703   4.967   1.018 -1.6213  1.1582 -0.8559
  285TIP3   OH222413   1.875   4.894   8.471  0.2746  0.4614 -1.1358
  285TIP3    H122414   1.884   4.857   8.559  0.4217 -0.4338 -1.5134
  285TIP3    H222415   1.937   4.966   8.469 -0.6844  1.3597 -0.0725
  286TIP3   OH222416   6.591   1.028   0.764 -0.6304  0.1552  0.0799
  286TIP3    H122417   6.617   1.037   0.672 -1.1483  1.8169  0.0650
  286TIP3    H222418   6.672   1.008   0.810 -0.3334 -0.5265 -0.7063
  287TIP3   OH222419   1.739   3.246   2.121 -0.0547 -0.3882 -0.0265
  287TIP3    H122420   1.812   3.227   2.063 -0.3198  1.9359 -1.2558
  287TIP3    H222421   1.664   3.202   2.080  0.2829 -1.0989  0.1174
  288TIP3   OH222422   3.968   4.502   0.122 -0.5060 -0.1689 -0.8595
  288TIP3    H122423   3.930   4.589   0.113 -0.8392 -0.3552 -1.2419
  288TIP3    H222424   3.914   4.459   0.188  0.1310  0.1735 -0.0918
  289TIP3   OH222425   2.489   3.725   1.449 -0.1796 -0.0704  0.3501
  289TIP3    H122426   2.412   3.779   1.432 -0.1230 -0.4683 -1.2651
  289TIP3    H222427   2.453   3.639   1.472 -0.2144 -0.2217 -0.2759
  290TIP3   OH222428   1.635   2.102   0.660  0.3496  0.1117  0.0758
  290TIP3    H122429   1.587   2.028   0.697 -2.4837  1.6423 -0.3170
  290TIP3    H222430   1.631   2.088   0.565  1.6268 -0.2487  0.0515
  291TIP3   OH222431   1.600   0.844   0.855  0.0068  0.0979  0.0971
  291TIP3    H122432   1.535   0.844   0.786 -1.1762  1.6438  1.1242
  291TIP3    H222433   1.647   0.927   0.844  1.8657 -0.9981 -0.6405
  292TIP3   OH222434   2.532   3.094   0.406  0.0362 -0.4302  0.0886
  292TIP3    H122435   2.623   3.069   0.420 -0.1709 -1.4327 -0.3174
  292TIP3    H222436   2.511   3.062   0.318 -0.8667 -0.6615  0.3820
  293TIP3   OH222437   4.878   2.397   0.967  0.5050  0.4156  0.1444
  293TIP3    H122438   4.890   2.357   0.881 -0.4932  0.5832 -0.0908
  293TIP3    H222439   4.911   2.331   1.028 -0.1077 -0.3374 -0.3012
  294TIP3   OH222440   2.652   5.346   1.499  0.1180 -0.3404  0.0565
  294TIP3    H122441   2.580   5.294   1.536 -0.9795  1.0362 -0.0253
  294TIP3    H222442   2.635   5.346   1.405 -1.2137  1.8918  0.2088
  295TIP3   OH222443   0.692   5.472   0.304  0.1528 -0.2857 -0.4913
  295TIP3    H122444   0.689   5.554   0.353  0.3285 -0.2596 -0.5226
  295TIP3    H222445   0.777   5.474   0.260 -0.3613  0.0790 -1.4787
  296TIP3   OH222446   6.504   1.428   1.128  0.0827  0.3841 -0.5041
  296TIP3    H122447   6.581   1.410   1.181 -1.2257  1.5225  1.9629
  296TIP3    H222448   6.434   1.377   1.169 -0.9967  1.2930 -1.1494
  297TIP3   OH222449   6.590   5.751   1.384 -0.4984 -0.1748  0.4450
  297TIP3    H122450   6.605   5.731   1.477  2.0138 -1.1640 -0.1049
  297TIP3    H222451   6.510   5.703   1.362 -0.9289 -0.2343  1.9888
  298TIP3   OH222452   1.103   1.909   7.131  0.1873  0.4632  0.2987
  298TIP3    H122453   1.008   1.924   7.130 -0.4227 -2.6797 -0.5014
  298TIP3    H222454   1.132   1.945   7.215 -1.5081  2.3294  0.1561
  299TIP3   OH222455   3.803   3.658   1.375  0.2074 -0.4051 -0.2652
  299TIP3    H122456   3.726   3.712   1.395 -0.0417 -0.9720  0.3334
  299TIP3    H222457   3.780   3.571   1.406  0.5778 -0.8856 -1.2856
  300TIP3   OH222458   3.634   4.230   8.803  0.3171  0.0489  1.0374
  300TIP3    H122459   3.547   4.251   8.769  0.0223 -1.8895  0.5105
  300TIP3    H222460   3.631   4.258   8.894 -1.3136 -1.1303  1.3876
  301TIP3   OH222461   4.117   5.555   0.312  0.3516 -0.1797  0.2157
  301TIP3    H122462   4.135   5.580   0.222 -1.3094 -0.0212 -0.1078
  301TIP3    H222463   4.122   5.637   0.362  1.0239 -0.2297  0.2434
  302TIP3   OH222464   5.202   1.417   1.972  0.4285  0.3664  0.3565
  302TIP3    H122465   5.245   1.419   2.058  0.3136 -0.6692  0.4557
  302TIP3    H222466   5.267   1.452   1.911  0.9279  0.0739  0.7099
  303TIP3   OH222467   2.403   0.722   8.235 -0.2643 -0.3836 -0.0124
  303TIP3    H122468   2.422   0.794   8.296 -0.9761  0.2148 -0.4697
  303TIP3    H222469   2.472   0.658   8.251  0.6515  0.6003  0.0921
  304TIP3   OH222470   1.502   2.677   1.549 -0.0192 -0.7514  0.3526
  304TIP3    H122471   1.463   2.589   1.556  1.7548 -1.8207 -1.9451
  304TIP3    H222472   1.563   2.682   1.622  0.0186 -1.5294  0.3815
  305TIP3   OH222473   5.557   2.720   1.554 -0.4542  0.4269 -0.3807
  305TIP3    H122474   5.531   2.775   1.479  2.3721  0.4055 -1.5144
  305TIP3    H222475   5.651   2.705   1.541 -0.5899 -2.6220  1.2489
  306TIP3   OH222476   4.253   2.304   1.201 -0.2644  0.0629 -0.7257
  306TIP3    H122477   4.200   2.236   1.242  0.6232 -0.4494 -0.4006
  306TIP3    H222478   4.311   2.335   1.272 -0.0517  0.5383 -1.1001
  307TIP3   OH222479   2.030   4.254   0.450 -0.1926 -0.1794 -0.3863
  307TIP3    H122480   1.956   4.268   0.509  0.9410  0.3292  0.9749
  307TIP3    H222481   2.046   4.340   0.411  1.8978  0.7011  2.1005
  308TIP3   OH222482   4.240   4.696   7.669 -0.2923 -0.1715  0.2187
  308TIP3    H122483   4.162   4.643   7.652 -2.2283  2.7770 -0.9355
  308TIP3    H222484   4.209   4.769   7.722  1.8296  0.7799  0.2621
  309TIP3   OH222485   5.898   5.062   1.033 -0.5799 -0.0211 -0.2805
  309TIP3    H122486   5.986   5.035   1.007 -0.5010 -0.8049  0.7094
  309TIP3    H222487   5.877   5.005   1.108 -2.1501 -0.2555 -0.8564
  310TIP3   OH222488   5.228   6.631   1.407  0.2271 -0.4900 -0.6230
  310TIP3    H122489   5.145   6.676   1.420 -0.1439 -1.7722  2.3901
  310TIP3    H222490   5.292   6.687   1.451  0.2813 -1.3409  0.4051
  311TIP3   OH222491   2.629   1.163   2.079 -0.3042 -0.3906 -0.3972
  311TIP3    H122492   2.627   1.259   2.078  1.6236 -0.2313 -3.5564
  311TIP3    H222493   2.715   1.141   2.116 -0.4032 -0.8451 -0.4320
  312TIP3   OH222494   6.394   6.056   7.649 -0.5077 -0.0976  0.3822
  312TIP3    H122495   6.427   6.125   7.707  0.8948  0.8038 -1.3808
  312TIP3    H222496   6.329   6.100   7.594  0.3052 -0.1776 -0.6713
  313TIP3   OH222497   1.207   3.113   8.216  0.3152 -0.5004  0.6395
  313TIP3    H122498   1.212   3.077   8.304  0.8444 -0.5362  0.5982
  313TIP3    H222499   1.295   3.145   8.198 -0.5145  2.3926  1.3276
  314TIP3   OH222500   0.960   2.080   0.243 -0.2233 -0.0286 -0.1881
  314TIP3    H122501   0.988   2.136   0.170 -1.7673 -0.1448 -0.9119
  314TIP3    H222502   1.004   2.117   0.319  0.4346  0.8905 -0.9852
  315TIP3   OH222503   1.424   4.673   3.267  0.5389  0.4573 -0.0367
  315TIP3    H122504   1.376   4.739   3.316  0.6544  0.0769  0.5983
  315TIP3    H222505   1.357   4.626   3.218  0.5019  1.3330 -0.8568
  316TIP3   OH222506   1.962   5.065   3.551  0.5813  0.3129  1.1487
  316TIP3    H122507   1.946   5.154   3.520 -0.7476  0.2724  1.6536
  316TIP3    H222508   2.049   5.069   3.591  0.3691  1.4902  1.5258
  317TIP3   OH222509   3.451   4.925   1.010 -0.5871 -0.9336  0.1262
  317TIP3    H122510   3.425   4.882   1.092  0.4489 -0.2226  0.8530
  317TIP3    H222511   3.457   4.854   0.947 -1.0034 -1.5584  0.7717
  318TIP3   OH222512   0.681   4.117   3.106 -0.0368 -0.6109 -0.2136
  318TIP3    H122513   0.593   4.117   3.144 -0.2096  0.2437 -0.5988
  318TIP3    H222514   0.666   4.097   3.013 -0.1829  2.6143 -0.9945
  319TIP3   OH222515   3.233   3.211   1.395  0.5798 -0.1600 -0.0067
  319TIP3    H122516   3.220   3.225   1.488 -0.1731 -1.8290  0.1948
  319TIP3    H222517   3.181   3.132   1.376  0.5432  0.2646 -1.8703
  320TIP3   OH222518   5.792   4.308   0.594  0.3974  0.0044  0.1566
  320TIP3    H122519   5.860   4.367   0.624  0.1109 -0.2355  1.3101
  320TIP3    H222520   5.727   4.365   0.553  0.3348  0.4387  0.8560
  321TIP3   OH222521   0.137   5.475   8.566  0.0215 -0.0870  0.6590
  321TIP3    H122522   0.066   5.515   8.616  0.0549 -0.0054  0.6415
  321TIP3    H222523   0.093   5.408   8.513 -0.2072  0.6427 -0.1117
  322TIP3   OH222524   3.086   4.603   2.363  0.1649  0.1746 -0.3475
  322TIP3    H122525   3.103   4.691   2.396  0.8743  0.3458 -1.1140
  322TIP3    H222526   3.155   4.549   2.403  0.9180  0.3500 -1.3555
  323TIP3   OH222527   0.984   5.440   0.355  0.4840 -0.0944 -0.2750
  323TIP3    H122528   1.003   5.346   0.360 -3.7219 -1.3020 -2.4645
  323TIP3    H222529   0.923   5.456   0.427 -0.0726  0.5311 -0.8739
  324TIP3   OH222530   4.058   1.115   8.133 -0.2343  0.1120 -0.2210
  324TIP3    H122531   4.055   1.051   8.062 -1.8477 -0.4328  0.2964
  324TIP3    H222532   4.147   1.111   8.166  0.6455  0.5902 -2.3845
  325TIP3   OH222533   0.079   0.430   0.489 -0.0327  0.0330 -0.1306
  325TIP3    H122534   0.074   0.421   0.394  1.6695  1.2575 -0.3759
  325TIP3    H222535   0.104   0.521   0.504 -0.7315 -0.0039  1.5312
  326TIP3   OH222536   5.609   3.177   0.569  0.0781 -0.4872  0.3542
  326TIP3    H122537   5.617   3.237   0.495 -1.8646  0.1584  0.6118
  326TIP3    H222538   5.672   3.209   0.633 -1.3576  1.7431  0.7519
  327TIP3   OH222539   4.140   3.102   1.827  0.3459 -0.1107  0.3465
  327TIP3    H122540   4.173   3.116   1.738 -0.2669 -1.8706 -0.2015
  327TIP3    H222541   4.078   3.030   1.818  0.4833 -0.5116  2.2580
  328TIP3   OH222542   1.247   2.022   0.018 -0.4008  0.1023 -0.0333
  328TIP3    H122543   1.201   1.938   0.011 -0.6783  0.3591 -2.0295
  328TIP3    H222544   1.198   2.080  -0.041  0.8278  1.1664 -0.0459
  329TIP3   OH222545   5.880   4.494   1.081  0.2319  0.2754  0.0509
  329TIP3    H122546   5.843   4.441   1.152  0.6949 -1.1037 -0.6912
  329TIP3    H222547   5.942   4.436   1.038  0.0500  1.1129 -1.4157
  330TIP3   OH222548   1.229   0.072   7.319  0.2089  0.0275 -0.1971
  330TIP3    H122549   1.143   0.112   7.313 -0.2068 -0.8321 -0.0977
  330TIP3    H222550   1.247   0.067   7.413  1.2874  2.0808 -0.2283
  331TIP3   OH222551   0.419   3.336   8.163  0.4769  0.3589 -0.1364
  331TIP3    H122552   0.457   3.253   8.192  1.8277  0.3268 -1.8211
  331TIP3    H222553   0.473   3.402   8.206  1.2460  0.3169 -0.9952
  332TIP3   OH222554   0.101   5.260   2.727  0.0388 -1.0259 -0.2343
  332TIP3    H122555   0.178   5.221   2.769 -0.1075  0.0995  1.1775
  332TIP3    H222556   0.135   5.304   2.649  0.2841 -3.4086 -1.5683
  333TIP3   OH222557   4.223   4.887   2.194 -0.3781  0.0412 -0.2855
  333TIP3    H122558   4.193   4.843   2.273  0.4662 -0.9551 -0.4999
  333TIP3    H222559   4.271   4.964   2.225  3.0102 -2.1655  0.4108
  334TIP3   OH222560   1.122   0.145   1.514 -1.0385 -0.2482 -0.0181
  334TIP3    H122561   1.077   0.088   1.577  1.2040 -0.8984  1.0931
  334TIP3    H222562   1.060   0.215   1.497 -1.9817 -0.3933  2.4416
  335TIP3   OH222563   2.895   5.862   8.287  0.4555 -0.6977  0.4625
  335TIP3    H122564   2.824   5.802   8.265 -0.0214 -0.7555  2.0066
  335TIP3    H222565   2.954   5.810   8.342  0.3340  0.0586  1.3351
  336TIP3   OH222566   3.509   3.570   2.282  0.0362 -0.0763  0.1444
  336TIP3    H122567   3.588   3.579   2.228 -0.1055  0.5080  0.0252
  336TIP3    H222568   3.540   3.529   2.363  0.1830 -1.3015 -0.5168
  337TIP3   OH222569   4.701   6.240   0.643 -0.7114  0.3379  0.3245
  337TIP3    H122570   4.674   6.158   0.603  2.1905  0.3187 -1.9973
  337TIP3    H222571   4.758   6.214   0.715  0.2660  0.2280 -0.4556
  338TIP3   OH222572   0.892   0.676   0.271 -0.2560  0.2759 -0.4994
  338TIP3    H122573   0.877   0.703   0.362  1.7106 -0.0616 -0.0286
  338TIP3    H222574   0.816   0.622   0.249 -0.2939 -0.4510  1.2717
  339TIP3   OH222575   2.131   0.569   7.279  0.3153  0.1801  0.2671
  339TIP3    H122576   2.224   0.550   7.270  0.1349 -0.1235 -1.2542
  339TIP3    H222577   2.088   0.484   7.277 -0.0636  0.3740 -0.0987
  340TIP3   OH222578   3.756   0.502   1.291  0.1473 -0.6074  0.3435
  340TIP3    H122579   3.739   0.536   1.203 -3.0288  0.9032  1.3883
  340TIP3    H222580   3.763   0.407   1.279  1.4089 -0.3395 -1.6655
  341TIP3   OH222581   5.603   1.281   1.552 -0.1989  0.4942 -0.1002
  341TIP3    H122582   5.548   1.234   1.615 -0.1615  2.6721  1.7075
  341TIP3    H222583   5.660   1.214   1.515 -1.4044 -1.1667  0.9080
  342TIP3   OH222584   5.446   3.881   2.625  0.2659 -0.3336  0.2432
  342TIP3    H122585   5.392   3.941   2.676  0.3095  0.6638 -0.8302
  342TIP3    H222586   5.535   3.918   2.632  0.1492  0.2846 -1.1619
  343TIP3   OH222587   0.318   6.702   7.997  0.2477  0.2520  0.3324
  343TIP3    H122588   0.312   6.787   7.954  2.0258  0.7688  1.0057
  343TIP3    H222589   0.403   6.703   8.040  0.6123 -2.1230 -0.1629
  344TIP3   OH222590   4.855   6.100   8.764  0.1837  0.0358  0.3938
  344TIP3    H122591   4.921   6.112   8.833 -0.2949 -1.3575  1.1228
  344TIP3    H222592   4.801   6.179   8.769  1.6727  1.1491 -0.1229
  345TIP3   OH222593   0.134   1.727   3.416  0.3410 -0.2877  0.7025
  345TIP3    H122594   0.227   1.712   3.436 -0.0202 -2.2419  1.0924
  345TIP3    H222595   0.094   1.742   3.501  0.5172  2.2188  0.4048
  346TIP3   OH222596   4.134   6.173   1.118  0.3697 -0.2906 -0.0795
  346TIP3    H122597   4.183   6.143   1.042  0.8822  0.1887  0.0497
  346TIP3    H222598   4.046   6.191   1.085  0.3501 -0.8880 -0.3740
  347TIP3   OH222599   0.709   4.778   1.932  0.4488  0.0482 -0.1985
  347TIP3    H122600   0.684   4.693   1.894  1.6398 -1.1632  1.6015
  347TIP3    H222601   0.625   4.817   1.958 -0.0826 -0.8141 -0.5491
  348TIP3   OH222602   2.332   1.313   8.618  0.1007  0.4505  0.0599
  348TIP3    H122603   2.413   1.293   8.665 -0.1452 -1.0822 -0.1116
  348TIP3    H222604   2.360   1.332   8.529  0.1665 -2.2237 -0.5683
  349TIP3   OH222605   0.799   3.290   2.109 -0.0595 -0.6567 -0.2217
  349TIP3    H122606   0.878   3.309   2.160  0.7737  0.5205 -1.8715
  349TIP3    H222607   0.738   3.360   2.131 -0.8386 -1.7402  1.2988
  350TIP3   OH222608   1.352   1.288   0.520  0.1998  0.2424  0.1373
  350TIP3    H122609   1.417   1.218   0.515 -0.2322 -0.5967  3.4659
  350TIP3    H222610   1.397   1.359   0.566 -0.8272  0.1285  1.3754
  351TIP3   OH222611   3.536   0.859   1.461 -0.3674  0.2458  0.1121
  351TIP3    H122612   3.523   0.953   1.467  0.3571  0.2650  1.7679
  351TIP3    H222613   3.483   0.823   1.532 -1.2793 -0.6948 -0.9941
  352TIP3   OH222614   0.357   0.183   8.805 -0.3775 -0.4338  0.0135
  352TIP3    H122615   0.393   0.231   8.731  0.2282 -1.1115 -0.1557
  352TIP3    H222616   0.287   0.129   8.768 -0.1368 -0.7022 -0.0611
  353TIP3   OH222617   5.443   0.068   8.365 -0.1031 -0.0683 -0.0273
  353TIP3    H122618   5.438   0.132   8.435  2.0245  0.4614 -0.3068
  353TIP3    H222619   5.534   0.068   8.338 -0.9949  0.5937 -3.5981
  354TIP3   OH222620   0.022   3.641   8.479 -0.0258 -0.4726  0.9323
  354TIP3    H122621  -0.016   3.723   8.449  2.7605  0.8769  0.7843
  354TIP3    H222622  -0.025   3.573   8.431 -3.1987  0.8513  1.8800
  355TIP3   OH222623   5.516   0.022   2.680  0.3505  0.5260 -0.0679
  355TIP3    H122624   5.546   0.013   2.771 -0.4417  2.2179  0.4037
  355TIP3    H222625   5.531   0.114   2.659 -0.4811  0.4067 -1.2849
  356TIP3   OH222626   4.144   3.659   0.875  0.2056 -0.0921  0.0136
  356TIP3    H122627   4.151   3.753   0.861 -0.1375  0.1541  1.3661
  356TIP3    H222628   4.188   3.644   0.958 -1.9757 -0.7268  1.1199
  357TIP3   OH222629   4.691   5.945   8.222 -0.1006  0.3146  0.2544
  357TIP3    H122630   4.609   5.899   8.202  1.2715 -2.2140  0.0256
  357TIP3    H222631   4.697   5.942   8.318  0.4392 -0.9609  0.2070
  358TIP3   OH222632   1.881   3.304   2.592 -0.2095 -0.0621  0.3910
  358TIP3    H122633   1.841   3.327   2.675 -1.3564  1.8240 -0.6176
  358TIP3    H222634   1.954   3.364   2.582  1.8328 -2.2212  1.3231
  359TIP3   OH222635   3.499   4.478   1.965 -0.5118  0.1988 -0.9391
  359TIP3    H122636   3.582   4.458   1.921  0.8005 -1.9428  2.1490
  359TIP3    H222637   3.446   4.399   1.954 -0.1163 -0.4262  1.2354
  360TIP3   OH222638   6.496   5.962   8.786 -0.3503  0.1913  0.1744
  360TIP3    H122639   6.453   5.909   8.719 -1.4577  1.1326  0.1278
  360TIP3    H222640   6.426   5.991   8.843  0.4205  0.4851  0.9929
  361TIP3   OH222641   6.157   0.195   2.295  0.8290  0.3093  0.1393
  361TIP3    H122642   6.225   0.150   2.245  0.9528 -0.3164  0.8611
  361TIP3    H222643   6.079   0.140   2.286  0.9422  0.0094  0.9028
  362TIP3   OH222644   0.707   5.276   2.054 -0.0999  0.4950  0.1170
  362TIP3    H122645   0.779   5.307   2.109  0.0444  0.2811  0.0481
  362TIP3    H222646   0.734   5.190   2.025  0.0213  0.7933 -0.6671
  363TIP3   OH222647   0.479   4.450   8.358 -0.3167 -0.0942  0.0164
  363TIP3    H122648   0.414   4.508   8.318 -1.8435 -1.1434  0.8942
  363TIP3    H222649   0.433   4.410   8.432  0.7489 -2.2660 -0.4355
  364TIP3   OH222650   1.811   2.296   8.311  0.6892  0.2742  0.1266
  364TIP3    H122651   1.814   2.217   8.365 -2.9369 -0.6787 -0.8017
  364TIP3    H222652   1.850   2.269   8.227 -1.3790 -0.9273 -0.5106
  365TIP3   OH222653   6.658   3.351   1.649 -0.0622 -0.2094  0.0025
  365TIP3    H122654   6.615   3.278   1.606 -1.7389  0.8040 -0.1366
  365TIP3    H222655   6.688   3.407   1.577  1.6538 -0.9713  0.0972
  366TIP3   OH222656   6.319   5.281   3.560  0.4066  0.3608  0.0136
  366TIP3    H122657   6.371   5.219   3.611  0.1336  0.2667  0.1822
  366TIP3    H222658   6.380   5.350   3.536  1.2254 -0.9379 -1.8687
  367TIP3   OH222659   3.433   6.446   1.891  0.1469  0.4107 -0.3952
  367TIP3    H122660   3.413   6.536   1.865  1.1370  0.5940 -0.5654
  367TIP3    H222661   3.382   6.433   1.971 -0.5949  0.8571 -0.7761
  368TIP3   OH222662   1.877   3.317   0.716 -1.0127  0.1893 -0.5245
  368TIP3    H122663   1.940   3.246   0.730 -0.5956  0.2423 -2.0347
  368TIP3    H222664   1.806   3.297   0.778 -0.7085 -1.3036 -0.6009
  369TIP3   OH222665   3.811   0.985   0.124  0.2992  0.1783 -0.7239
  369TIP3    H122666   3.903   0.988   0.097  0.7812  3.5795  0.7632
  369TIP3    H222667   3.815   0.977   0.219 -0.9320  0.3251 -0.6514
  370TIP3   OH222668   2.307   4.976   2.485 -1.0352 -0.4238 -0.8473
  370TIP3    H122669   2.243   4.905   2.493 -1.6321  0.2581  0.8817
  370TIP3    H222670   2.345   4.983   2.572  0.9828 -0.3816 -1.6821
  371TIP3   OH222671   3.867   4.672   8.584 -0.4743  0.0048  0.2078
  371TIP3    H122672   3.813   4.615   8.638  0.1849 -1.3814 -0.5398
  371TIP3    H222673   3.837   4.656   8.495  1.4353 -1.2148 -0.2921
  372TIP3   OH222674   4.988   0.127   2.757  0.2846  0.0118 -0.4143
  372TIP3    H122675   4.892   0.124   2.755  0.0771  3.2835 -0.3694
  372TIP3    H222676   5.013   0.132   2.665  0.3812 -0.2126 -0.4005
  373TIP3   OH222677   3.960   5.129   1.345 -0.0567  0.2629  0.5253
  373TIP3    H122678   3.869   5.145   1.371  0.1925  1.3666  0.7686
  373TIP3    H222679   3.968   5.169   1.259 -0.6560 -2.6874 -1.0294
  374TIP3   OH222680   3.046   4.288   1.502  0.5936 -0.4534  0.6042
  374TIP3    H122681   2.969   4.321   1.456  0.7952  0.0248  0.6047
  374TIP3    H222682   3.111   4.357   1.492  0.7774 -0.5277  1.2495
  375TIP3   OH222683   1.859   1.072   8.289 -0.5649  0.2043  0.1697
  375TIP3    H122684   1.802   1.146   8.268  0.8375  0.8170 -1.6744
  375TIP3    H222685   1.932   1.111   8.338 -0.0039  0.0055 -0.4916
  376TIP3   OH222686   3.993   5.872   2.264  0.2090 -0.1652  0.0568
  376TIP3    H122687   3.938   5.863   2.186 -1.2344 -1.9044  1.1937
  376TIP3    H222688   4.056   5.801   2.257 -1.3266 -1.7725  1.4632
  377TIP3   OH222689   4.092   1.846   0.319 -0.2828  0.5493 -0.1151
  377TIP3    H122690   4.004   1.848   0.358  0.7285  1.6024  2.2975
  377TIP3    H222691   4.086   1.780   0.250 -2.1992 -1.6636  1.9739
  378TIP3   OH222692   2.971   1.809   2.604  0.2025  0.5009  0.0236
  378TIP3    H122693   2.898   1.793   2.544  0.1669  3.1010 -0.7534
  378TIP3    H222694   2.931   1.852   2.679  0.7618  0.7015  0.2093
  379TIP3   OH222695   5.351   4.366   2.454 -0.0164  0.0146  0.5480
  379TIP3    H122696   5.422   4.412   2.501  0.5241 -0.2380 -0.0068
  379TIP3    H222697   5.387   4.279   2.436 -0.0176  0.2643 -0.7644
  380TIP3   OH222698   1.455   5.921   2.310  0.1350  0.2231  0.3462
  380TIP3    H122699   1.473   5.862   2.238  0.2869  0.4885  0.1646
  380TIP3    H222700   1.364   5.947   2.298 -0.4779 -1.3112  1.4044
  381TIP3   OH222701   0.189   2.698   1.510  0.7501  0.0432 -0.1250
  381TIP3    H122702   0.237   2.683   1.429  0.0457 -1.2468 -0.3279
  381TIP3    H222703   0.196   2.616   1.558  0.6911  0.6152  0.8784
  382TIP3   OH222704   2.166   2.720   8.915 -0.6512 -0.7392  0.1184
  382TIP3    H122705   2.182   2.630   8.885 -0.8260 -1.2180  1.3961
  382TIP3    H222706   2.144   2.710   9.008 -0.5252  0.6433  0.3087
  383TIP3   OH222707   4.503   0.897   8.137 -0.8800  0.2172  0.2169
  383TIP3    H122708   4.563   0.870   8.067 -0.2530 -1.6659  1.4003
  383TIP3    H222709   4.416   0.889   8.098 -0.5462 -0.8148 -0.3785
  384TIP3   OH222710   6.093   0.239   8.423  0.2321  0.8547 -0.2936
  384TIP3    H122711   6.104   0.316   8.367  0.4188 -0.3570 -1.9913
  384TIP3    H222712   6.087   0.165   8.362  0.7925 -0.5773  1.2970
  385TIP3   OH222713   1.627   3.469   7.850  0.6438  0.4436  0.4827
  385TIP3    H122714   1.564   3.427   7.790  1.1642 -0.8025  0.7813
  385TIP3    H222715   1.655   3.548   7.803 -0.2473  0.3916 -0.1683
  386TIP3   OH222716   4.252   2.312   0.371 -0.2406 -0.1435 -0.2611
  386TIP3    H122717   4.317   2.342   0.435  0.2473  0.1817 -0.8929
  386TIP3    H222718   4.286   2.343   0.287  0.8690 -3.3656 -1.1428
  387TIP3   OH222719   2.380   0.848   2.119 -0.1376 -0.4574 -1.0990
  387TIP3    H122720   2.295   0.802   2.122  0.1342 -0.9571 -0.8753
  387TIP3    H222721   2.385   0.895   2.202  0.6218 -1.9498 -0.2490
  388TIP3   OH222722   4.366   5.933   2.976 -0.4439 -0.2931  1.0039
  388TIP3    H122723   4.432   5.901   3.038 -0.3275  0.2455  1.1676
  388TIP3    H222724   4.403   5.913   2.890 -0.0085  0.0935  1.0922
  389TIP3   OH222725   2.675   6.235   3.222 -0.5349 -0.1512 -0.0633
  389TIP3    H122726   2.663   6.194   3.308 -0.2014 -1.5688 -0.6589
  389TIP3    H222727   2.590   6.223   3.179  0.1440 -2.0246 -0.9557
  390TIP3   OH222728   3.324   6.431   2.922  0.2812  0.3002 -0.6423
  390TIP3    H122729   3.301   6.339   2.908 -0.2733  0.6040 -1.8922
  390TIP3    H222730   3.319   6.443   3.017  1.1332 -1.1405 -0.3837
  391TIP3   OH222731   1.054   1.239   8.932  0.2055 -0.2267 -0.0054
  391TIP3    H122732   1.007   1.158   8.952  1.4398 -0.8196  0.5929
  391TIP3    H222733   1.044   1.292   9.011 -0.2049  0.0017 -0.2134
  392TIP3   OH222734   0.073   5.689   0.095  0.5299  0.6243  0.2946
  392TIP3    H122735   0.003   5.630   0.121  0.7476  0.1410 -0.2085
  392TIP3    H222736   0.028   5.771   0.073  0.2148  0.5967  0.8280
  393TIP3   OH222737   0.316   2.558   1.329 -0.3351 -0.0880  0.2119
  393TIP3    H122738   0.363   2.591   1.252 -0.6123  1.2858  0.6151
  393TIP3    H222739   0.341   2.465   1.334  0.3713  0.0152 -1.0195
  394TIP3   OH222740   0.635   4.367   1.111 -0.1511 -0.6265 -0.4052
  394TIP3    H122741   0.676   4.408   1.035 -1.7984  1.1038 -0.4365
  394TIP3    H222742   0.567   4.310   1.073 -1.1950  0.4892 -0.2651
  395TIP3   OH222743   1.798   2.290   7.799 -0.1666  0.4137  0.2844
  395TIP3    H122744   1.872   2.343   7.770  0.7006  0.1733  1.9180
  395TIP3    H222745   1.750   2.346   7.860 -2.4739  1.2431 -2.1000
  396TIP3   OH222746   5.041   3.188   0.297  0.1932 -0.2661  0.4656
  396TIP3    H122747   5.018   3.276   0.327 -0.5556 -0.7980  1.5384
  396TIP3    H222748   5.136   3.185   0.302  0.2152  0.4405  0.5521
  397TIP3   OH222749   2.579   6.581   7.189 -0.0003 -0.2731 -0.3300
  397TIP3    H122750   2.660   6.534   7.207 -0.6946 -1.0803  0.8119
  397TIP3    H222751   2.510   6.519   7.211 -0.9418  1.0545  0.6571
  398TIP3   OH222752   2.125   4.558   0.048  0.7456 -0.2341 -0.1279
  398TIP3    H122753   2.032   4.577   0.035  0.7768 -0.7758 -1.2369
  398TIP3    H222754   2.170   4.638   0.019  0.6048  0.3864  1.2912
  399TIP3   OH222755   4.733   4.994   2.158 -0.0254 -0.4461 -0.0435
  399TIP3    H122756   4.808   5.031   2.111 -0.1978 -0.9559 -0.7355
  399TIP3    H222757   4.772   4.952   2.235  0.3911 -0.6038 -0.3361
  400TIP3   OH222758   1.263   2.467   0.133  0.0970 -0.3439  0.7497
  400TIP3    H122759   1.215   2.389   0.161 -1.7543 -0.3252 -2.0266
  400TIP3    H222760   1.201   2.539   0.147  0.8047  0.2618  0.7914
  401TIP3   OH222761   4.468   2.072   0.411  0.5442  0.0519  0.3666
  401TIP3    H122762   4.544   2.085   0.467  2.0210  1.8847 -1.8360
  401TIP3    H222763   4.414   2.150   0.426  0.8501  0.4544 -0.5210
  402TIP3   OH222764   0.156   1.137   1.365 -0.3438  0.2505 -0.2935
  402TIP3    H122765   0.084   1.111   1.309 -1.1256  1.1134  0.2868
  402TIP3    H222766   0.125   1.216   1.409  0.1592 -0.4883  1.4761
  403TIP3   OH222767   5.278   5.838   1.044 -0.1568 -0.2744  0.1645
  403TIP3    H122768   5.275   5.842   0.948 -0.6370  0.5742  0.2007
  403TIP3    H222769   5.336   5.765   1.063 -0.0748 -0.4741 -0.7763
  404TIP3   OH222770   4.566   2.632   0.022 -0.3935 -0.2137 -0.8186
  404TIP3    H122771   4.644   2.671   0.061  0.5353 -1.3938 -1.4579
  404TIP3    H222772   4.526   2.704  -0.028  0.0920  0.4798 -0.2306
  405TIP3   OH222773   2.385   6.467   0.393  0.1268 -0.6956  0.4156
  405TIP3    H122774   2.322   6.438   0.326  0.3095  1.6649 -0.8917
  405TIP3    H222775   2.456   6.403   0.388 -0.3445 -1.1602 -0.9418
  406TIP3   OH222776   1.178   3.997   0.423  0.3864 -0.2043  0.3197
  406TIP3    H122777   1.116   3.940   0.378 -0.8616  0.6771  0.8656
  406TIP3    H222778   1.264   3.965   0.396 -0.2847 -1.7084 -0.1555
  407TIP3   OH222779   6.696   3.448   1.388  0.3509  0.1452  0.1169
  407TIP3    H122780   6.750   3.375   1.358  0.7388  0.3713  0.2639
  407TIP3    H222781   6.750   3.525   1.374 -0.2219  0.4619 -0.4578
  408TIP3   OH222782   5.483   2.358   2.854 -0.1139 -0.5393  0.0111
  408TIP3    H122783   5.431   2.357   2.774 -0.6442  0.5718  0.3224
  408TIP3    H222784   5.452   2.283   2.905  0.5679 -1.5408 -1.0207
  409TIP3   OH222785   3.104   6.193   8.328 -0.1534 -0.1511  0.3531
  409TIP3    H122786   3.032   6.173   8.269  0.0378 -1.2861  0.4857
  409TIP3    H222787   3.066   6.187   8.416 -0.4584  1.6138  0.3692
  410TIP3   OH222788   4.393   4.988   2.664 -0.1227  0.0766 -0.3450
  410TIP3    H122789   4.346   5.062   2.701 -0.1814  1.8652 -3.6000
  410TIP3    H222790   4.475   5.025   2.632  0.8079 -1.7423 -0.1775
  411TIP3   OH222791   2.138   3.200   1.659  0.4216 -0.5792 -0.3805
  411TIP3    H122792   2.147   3.164   1.571  0.0089  0.6064 -0.9269
  411TIP3    H222793   2.056   3.164   1.692  1.1249 -1.9356 -0.0056
  412TIP3   OH222794   0.528   6.442   7.693  0.0125  0.3090  0.0184
  412TIP3    H122795   0.513   6.392   7.613  0.6405 -0.5164  0.4086
  412TIP3    H222796   0.442   6.445   7.736 -0.3121  0.7044 -0.6423
  413TIP3   OH222797   5.976   4.842   8.374  0.3013 -0.3268 -0.3477
  413TIP3    H122798   5.881   4.833   8.369  0.1667 -1.1107  2.0997
  413TIP3    H222799   6.010   4.776   8.313 -0.7355 -1.0592 -0.1671
  414TIP3   OH222800   6.112   1.119   2.608 -0.0514 -0.0808  0.0768
  414TIP3    H122801   6.069   1.036   2.588 -0.4881 -0.2489  1.5726
  414TIP3    H222802   6.063   1.154   2.683  0.6164  1.1456 -0.0255
  415TIP3   OH222803   1.774   1.226   2.129  0.4725 -0.4260  0.0162
  415TIP3    H122804   1.782   1.267   2.215 -1.2817  1.7246 -0.7456
  415TIP3    H222805   1.681   1.203   2.122  0.4691 -0.0360 -1.4895
  416TIP3   OH222806   5.361   5.806   3.521  0.3510  0.4608  0.5249
  416TIP3    H122807   5.292   5.744   3.545  2.0068 -1.5209  0.4306
  416TIP3    H222808   5.324   5.856   3.449 -0.2523 -2.1675 -1.1624
  417TIP3   OH222809   3.113   0.554   7.785 -0.0447  0.2173  0.3005
  417TIP3    H122810   3.176   0.528   7.717 -0.0199  0.3208  0.2840
  417TIP3    H222811   3.106   0.649   7.776  1.2246  0.4575  1.5254
  418TIP3   OH222812   2.746   3.682   8.854  0.4360 -0.0440 -0.1748
  418TIP3    H122813   2.769   3.690   8.946 -0.3502  0.5558 -0.0157
  418TIP3    H222814   2.824   3.646   8.812  0.6937 -0.5983  0.7712
  419TIP3   OH222815   4.105   3.925   0.497  0.0197  0.2526  0.0907
  419TIP3    H122816   4.102   4.017   0.470 -0.4777 -0.3457 -2.0520
  419TIP3    H222817   4.014   3.897   0.497  0.3136 -0.8451 -1.6484
  420TIP3   OH222818   0.516   0.031   8.190  0.4307  0.1634 -0.1024
  420TIP3    H122819   0.471   0.102   8.237  0.7148  0.0353  0.3705
  420TIP3    H222820   0.544  -0.029   8.259  2.6384  0.9774 -0.2032
  421TIP3   OH222821   4.409   2.899   2.196  0.3377  0.0055  0.4377
  421TIP3    H122822   4.414   2.977   2.141  0.3596  1.3490  2.2546
  421TIP3    H222823   4.500   2.873   2.208  0.4774  0.8225  1.3006
  422TIP3   OH222824   1.462   3.336   7.657  0.3870 -0.6788 -0.1812
  422TIP3    H122825   1.392   3.278   7.625  0.7066 -0.6583 -0.9446
  422TIP3    H222826   1.510   3.361   7.578  0.5004  0.3123  0.1847
  423TIP3   OH222827   1.444   0.216   8.697 -0.4734  0.2924 -0.0911
  423TIP3    H122828   1.459   0.122   8.707 -1.8901  0.0656  0.0065
  423TIP3    H222829   1.404   0.225   8.610 -0.6975  0.7625  0.0600
  424TIP3   OH222830   4.222   6.075   0.865 -0.2983  0.3528  0.0011
  424TIP3    H122831   4.276   6.004   0.829 -3.5104 -2.6579  0.6447
  424TIP3    H222832   4.250   6.152   0.816  3.4547 -1.2013 -0.7253
  425TIP3   OH222833   5.903   2.629   3.722 -0.1264  0.2571 -0.7495
  425TIP3    H122834   5.873   2.686   3.793  2.1207  0.2161  0.3365
  425TIP3    H222835   5.947   2.689   3.661 -1.2285  0.1664 -1.6530
  426TIP3   OH222836   5.746   6.149   2.689  0.6920  0.0358  0.2699
  426TIP3    H122837   5.768   6.080   2.751  2.3054  0.5663  0.3425
  426TIP3    H222838   5.687   6.207   2.736  1.0361 -0.1577  0.9434
  427TIP3   OH222839   3.428   6.410   1.036  0.2170  0.1679  0.5878
  427TIP3    H122840   3.380   6.493   1.031 -0.4234 -0.2234  0.2128
  427TIP3    H222841   3.393   6.367   1.114 -1.9679 -1.2816 -1.0722
  428TIP3   OH222842   5.821   3.075   8.605  0.1172 -0.7523  0.5775
  428TIP3    H122843   5.795   3.135   8.535 -0.5977 -1.1010  0.5345
  428TIP3    H222844   5.844   3.132   8.678 -1.5887 -0.4058  0.9006
  429TIP3   OH222845   5.483   6.428   7.594  0.5626 -0.8731  0.0385
  429TIP3    H122846   5.509   6.438   7.686 -0.6593  0.3131  0.2794
  429TIP3    H222847   5.521   6.344   7.567  1.4956 -0.9225  1.4242
  430TIP3   OH222848   2.956   0.437   1.822 -0.4135  0.4472 -0.0629
  430TIP3    H122849   2.976   0.420   1.730 -0.4151 -0.9042  0.1695
  430TIP3    H222850   3.041   0.446   1.864 -0.4151  1.4648 -0.2476
  431TIP3   OH222851   3.629   4.489   8.673 -0.2924  0.0642  0.1152
  431TIP3    H122852   3.554   4.481   8.731 -0.0592 -1.2695  0.2521
  431TIP3    H222853   3.664   4.400   8.665  0.3345  0.3969 -1.1901
  432TIP3   OH222854   0.753   6.496   2.213 -0.1866 -0.1384  0.6078
  432TIP3    H122855   0.766   6.413   2.168 -0.4079  0.2034 -0.1101
  432TIP3    H222856   0.841   6.525   2.237 -0.1276 -0.6727  1.0328
  433TIP3   OH222857   2.230   1.971   2.672  0.3009 -0.0192  0.2992
  433TIP3    H122858   2.297   1.926   2.622 -1.8494 -1.6671 -1.3133
  433TIP3    H222859   2.212   1.914   2.747 -0.1045 -0.1940  0.0743
  434TIP3   OH222860   4.078   0.599   1.812 -0.1739  0.6239 -0.1692
  434TIP3    H122861   3.998   0.647   1.792 -0.1587  0.3220 -1.0110
  434TIP3    H222862   4.073   0.520   1.758  0.6801  0.5996 -0.2274
  435TIP3   OH222863   4.454   2.791   8.587 -0.2574  0.2500  0.1579
  435TIP3    H122864   4.443   2.700   8.616 -0.5234 -0.1603 -1.1538
  435TIP3    H222865   4.383   2.805   8.525 -0.1976  1.3631  0.3187
  436TIP3   OH222866   0.268   4.743   2.192  0.5650  0.6528 -0.0679
  436TIP3    H122867   0.323   4.747   2.270 -0.7063  1.6656  0.7939
  436TIP3    H222868   0.256   4.649   2.177  0.1326  0.4348  1.4602
  437TIP3   OH222869   6.170   2.741   1.364  0.1739  0.0266 -0.4675
  437TIP3    H122870   6.118   2.730   1.285 -0.1646 -2.0279 -0.0134
  437TIP3    H222871   6.108   2.773   1.429 -0.2340 -1.1020 -0.2857
  438TIP3   OH222872   0.053   3.099   8.631 -0.3166 -0.2545  0.7839
  438TIP3    H122873   0.012   3.084   8.546 -0.1049  2.5756  0.0799
  438TIP3    H222874  -0.021   3.115   8.690 -0.4329 -1.4989  0.9969
  439TIP3   OH222875   6.605   0.751   7.857  0.0003  0.2487 -0.3028
  439TIP3    H122876   6.663   0.760   7.781  0.9006 -0.4479  0.2885
  439TIP3    H222877   6.565   0.665   7.846  0.6824 -0.1696  0.3677
  440TIP3   OH222878   2.394   0.235   8.060  0.0985  0.4015  0.3847
  440TIP3    H122879   2.368   0.287   8.136 -1.3639 -0.1564  0.3160
  440TIP3    H222880   2.418   0.150   8.096 -1.4262 -0.1456  0.2021
  441TIP3   OH222881   2.033   0.383   8.255  0.2609  0.1300  0.2254
  441TIP3    H122882   1.997   0.388   8.166  0.9985  0.0736 -0.0866
  441TIP3    H222883   1.974   0.436   8.308 -0.8713 -0.7960 -0.0596
  442TIP3   OH222884   5.731   0.013   8.309  0.2624  0.1135  0.0603
  442TIP3    H122885   5.767  -0.057   8.363 -0.7045 -0.3250  0.1587
  442TIP3    H222886   5.773   0.093   8.342 -0.1547 -0.1723  1.3276
  443TIP3   OH222887   6.192   3.200   8.826  0.4353 -0.0023  0.8315
  443TIP3    H122888   6.163   3.168   8.740 -0.6186 -0.3232  1.2819
  443TIP3    H222889   6.111   3.211   8.876  0.7681  3.1176  0.8314
  444TIP3   OH222890   6.626   5.508   7.711 -0.1026 -0.0849  0.2622
  444TIP3    H122891   6.718   5.498   7.685  0.2720  0.2792  1.3551
  444TIP3    H222892   6.608   5.602   7.702  0.3962  0.2697  2.2731
  445TIP3   OH222893   6.001   0.641   7.607  0.2901  0.2020 -0.1311
  445TIP3    H122894   5.917   0.681   7.628  0.8056  0.6664  1.1134
  445TIP3    H222895   5.995   0.552   7.642 -0.1753 -0.2547 -1.2896
  446TIP3   OH222896   5.648   2.876   8.649  0.6370 -0.7515  0.1970
  446TIP3    H122897   5.611   2.881   8.561  1.9670 -0.0786 -0.3448
  446TIP3    H222898   5.711   2.948   8.653  0.8436 -0.9776  1.5894
  447TIP3   OH222899   5.460   1.343   8.273 -0.6970  0.4301  0.3780
  447TIP3    H122900   5.474   1.255   8.307 -0.2705  0.6308  0.7345
  447TIP3    H222901   5.545   1.386   8.284  0.2430 -0.1920 -3.0623
  448TIP3   OH222902   3.293   1.873   0.086 -0.6369 -0.5861  0.1092
  448TIP3    H122903   3.245   1.859   0.004  0.1738 -1.1800 -0.2696
  448TIP3    H222904   3.342   1.954   0.071 -2.9177  1.1107  1.1791
  449TIP3   OH222905   3.748   5.260   8.649  0.0494 -0.3413  0.5347
  449TIP3    H122906   3.842   5.275   8.649 -0.0900  0.6643 -0.1021
  449TIP3    H222907   3.735   5.186   8.590  0.5007 -0.9895  1.2414
  450TIP3   OH222908   2.088   1.456   7.537 -1.0051  0.3303 -0.3954
  450TIP3    H122909   2.056   1.544   7.558 -1.4793  0.2154 -0.6165
  450TIP3    H222910   2.013   1.413   7.494 -0.6833 -0.0828 -0.5498
  451TIP3   OH222911   4.877   3.094   2.569 -0.2505  0.2632  0.1888
  451TIP3    H122912   4.923   3.026   2.619 -1.7551 -0.3611  0.7880
  451TIP3    H222913   4.901   3.176   2.613  3.1038  0.4405 -1.6812
  452TIP3   OH222914   4.325   3.147   1.220 -0.3532 -0.2606 -0.3191
  452TIP3    H122915   4.278   3.149   1.137 -0.3740 -1.8108 -0.3826
  452TIP3    H222916   4.279   3.081   1.272 -1.2377  1.7069  1.5056
  453TIP3   OH222917   1.607   1.316   2.391  0.8897 -0.0901 -0.0476
  453TIP3    H122918   1.663   1.297   2.466 -0.0093 -0.2049  0.6089
  453TIP3    H222919   1.639   1.400   2.358 -1.3837  2.2816  3.1436
  454TIP3   OH222920   2.976   1.914   7.306  0.3445 -0.0338 -0.0696
  454TIP3    H122921   3.053   1.858   7.299  0.9458  0.5115  1.7196
  454TIP3    H222922   2.904   1.858   7.277  1.1210 -1.2754  0.2884
  455TIP3   OH222923   4.831   5.744   1.105 -0.4282 -0.6111  0.2761
  455TIP3    H122924   4.918   5.776   1.082 -0.5778 -0.9167 -0.7717
  455TIP3    H222925   4.797   5.810   1.165 -0.0438  0.2946 -0.4617
  456TIP3   OH222926   1.315   0.146   1.929 -0.0281 -0.1365 -0.0894
  456TIP3    H122927   1.259   0.223   1.941  1.0928  0.4148  2.0897
  456TIP3    H222928   1.404   0.178   1.944  0.4053 -1.9811  1.8417
  457TIP3   OH222929   1.209   4.872   1.536 -0.4579 -0.7562 -0.1386
  457TIP3    H122930   1.136   4.934   1.538  0.1014  0.0600 -2.3718
  457TIP3    H222931   1.260   4.893   1.614 -1.3218  0.2545  0.1822
  458TIP3   OH222932   1.952   1.697   8.927 -0.3463 -0.1180 -0.4782
  458TIP3    H122933   1.949   1.623   8.988 -2.4221  0.1596 -0.1743
  458TIP3    H222934   1.992   1.661   8.848  0.4689 -1.0316  0.3189
  459TIP3   OH222935   2.740   3.891   8.171  0.0213  0.3510  0.0499
  459TIP3    H122936   2.710   3.964   8.117 -2.2786  0.0363  0.8111
  459TIP3    H222937   2.736   3.924   8.261  0.2081 -0.3079  0.3080
  460TIP3   OH222938   5.497   2.460   1.244  0.0478 -0.2525 -0.4556
  460TIP3    H122939   5.544   2.441   1.325 -2.0745 -0.6881  0.7669
  460TIP3    H222940   5.479   2.374   1.205  0.6249 -0.0711 -1.1487
  461TIP3   OH222941   1.514   6.636   2.106  0.0424 -0.1835  0.3207
  461TIP3    H122942   1.582   6.684   2.058  1.4919 -1.4463  1.0046
  461TIP3    H222943   1.555   6.614   2.190 -2.0318  1.0048  1.7351
  462TIP3   OH222944   1.197   0.682   2.888 -0.1026 -0.2734 -0.4401
  462TIP3    H122945   1.289   0.705   2.902 -0.1353  0.0752 -0.8021
  462TIP3    H222946   1.152   0.714   2.966 -0.2101  1.2609 -1.1000
  463TIP3   OH222947   5.930   4.218   2.958  0.2710  0.1123 -0.8906
  463TIP3    H122948   5.963   4.279   2.893  1.6265 -0.3601 -0.6853
  463TIP3    H222949   5.978   4.137   2.942  0.5640 -0.0522  0.6012
  464TIP3   OH222950   1.814   5.377   1.625 -0.3352  0.0715  0.8207
  464TIP3    H122951   1.803   5.417   1.539 -0.4477  1.5216  1.4943
  464TIP3    H222952   1.793   5.284   1.610  2.0362 -0.2643 -1.2301
  465TIP3   OH222953   2.426   3.448   1.123  0.0119  0.0736 -0.0924
  465TIP3    H122954   2.373   3.513   1.169 -1.0825 -0.2034 -0.9090
  465TIP3    H222955   2.424   3.370   1.179  1.0663  0.6220  0.7358
  466TIP3   OH222956   1.519   1.817   8.272  0.3132  0.1222 -0.2003
  466TIP3    H122957   1.539   1.738   8.223  0.2549  0.8336 -1.4126
  466TIP3    H222958   1.573   1.811   8.351  0.7294 -0.8465 -0.5478
  467TIP3   OH222959   4.241   2.448   3.143  0.5495  0.1525  0.9989
  467TIP3    H122960   4.203   2.364   3.168  1.5003  0.1493  2.5902
  467TIP3    H222961   4.178   2.513   3.174  0.5092  0.0694  1.0895
  468TIP3   OH222962   6.664   2.853   2.238  0.0143  0.0197 -0.5454
  468TIP3    H122963   6.592   2.909   2.266 -1.0264 -0.2978 -2.4645
  468TIP3    H222964   6.734   2.914   2.214 -0.0690  0.3693  0.0788
  469TIP3   OH222965   6.637   6.598   1.703  0.4461  0.0519  0.2980
  469TIP3    H122966   6.689   6.669   1.665  0.4609 -1.1196 -2.0234
  469TIP3    H222967   6.600   6.552   1.628 -1.9309 -0.6886  1.8190
  470TIP3   OH222968   3.985   2.171   2.849 -0.3314  0.0380 -0.6531
  470TIP3    H122969   3.940   2.191   2.767 -0.0795  0.2411 -0.7433
  470TIP3    H222970   3.929   2.209   2.916  1.5741  3.8782 -0.9552
  471TIP3   OH222971   4.396   2.852   0.989 -0.2277 -0.3917  0.1156
  471TIP3    H122972   4.348   2.811   0.916 -0.5243 -0.9974  0.6434
  471TIP3    H222973   4.416   2.780   1.048  1.0275 -0.0890  0.0867
  472TIP3   OH222974   6.654   4.656   0.623  0.0524  0.5452 -0.5060
  472TIP3    H122975   6.736   4.607   0.631 -1.0057 -1.5222 -1.6375
  472TIP3    H222976   6.681   4.748   0.617  2.2273 -0.0318 -0.2812
  473TIP3   OH222977   2.698   3.954   2.824  0.3330  0.2451  0.2879
  473TIP3    H122978   2.728   4.016   2.758  1.8975  0.0832  0.8033
  473TIP3    H222979   2.753   3.971   2.900 -0.0712 -0.9238  0.8674
  474TIP3   OH222980   4.088   3.620   3.429  0.1564  0.1568  0.5644
  474TIP3    H122981   4.046   3.568   3.498  0.1478 -0.2683  0.2412
  474TIP3    H222982   4.029   3.612   3.354  0.2458  0.4885  0.4587
  475TIP3   OH222983   2.684   4.791   2.857 -0.6533  0.0301 -0.5338
  475TIP3    H122984   2.770   4.755   2.833 -0.4851  0.0328  0.0311
  475TIP3    H222985   2.693   4.885   2.845 -0.5839  0.0283 -0.4966
  476TIP3   OH222986   2.048   5.920   2.679 -0.9051 -0.0073  0.4944
  476TIP3    H122987   2.104   5.990   2.713 -0.0995 -0.6379  0.4839
  476TIP3    H222988   2.065   5.919   2.585  1.6599 -2.3787  0.8586
  477TIP3   OH222989   3.064   2.598   7.902  0.1268 -0.0405  0.4302
  477TIP3    H122990   3.017   2.519   7.877 -0.6488 -0.0223  1.7400
  477TIP3    H222991   3.016   2.669   7.861  0.3711 -0.1867 -0.1155
  478TIP3   OH222992   2.661   6.712   2.509 -0.2666 -0.3389  0.3927
  478TIP3    H122993   2.599   6.729   2.438 -0.1505 -1.3488  0.0347
  478TIP3    H222994   2.620   6.749   2.587 -1.0235 -0.4289  0.0404
  479TIP3   OH222995   5.904   0.495   8.321 -0.2090 -0.2082 -0.2954
  479TIP3    H122996   5.911   0.589   8.303  0.6047 -0.1277  0.3875
  479TIP3    H222997   5.987   0.458   8.292 -0.4615 -0.6913 -0.4101
  480TIP3   OH222998   2.696   2.449   8.696  0.1240  0.0809 -0.1953
  480TIP3    H122999   2.683   2.514   8.766 -0.5896  0.2012 -0.4361
  480TIP3    H223000   2.747   2.496   8.630 -0.1195  0.2945 -0.2297
  481TIP3   OH223001   2.611   5.253   3.378  0.1619 -0.4470 -0.1887
  481TIP3    H123002   2.576   5.191   3.314  0.5775 -0.6762 -0.2011
  481TIP3    H223003   2.705   5.235   3.379  0.6940  1.7904 -1.9554
  482TIP3   OH223004   4.866   2.909   8.570 -0.1340  0.2692  0.0678
  482TIP3    H123005   4.921   2.966   8.515 -1.4137  0.4830 -1.0361
  482TIP3    H223006   4.803   2.968   8.610 -0.3163 -0.1338  0.3824
  483TIP3   OH223007   0.982   5.408   8.807 -0.3471 -0.3083 -0.2360
  483TIP3    H123008   1.069   5.429   8.773 -0.2258 -0.4735 -0.0325
  483TIP3    H223009   0.982   5.312   8.815 -1.5800 -0.6098 -2.9928
  484TIP3   OH223010   2.785   5.554   0.608  0.0897  0.3412  0.5927
  484TIP3    H123011   2.736   5.603   0.674  1.0103  2.5836 -0.2878
  484TIP3    H223012   2.877   5.577   0.625  0.3395  1.0752 -1.4965
  485TIP3   OH223013   4.801   5.438   2.505  0.6103 -0.2064 -0.2028
  485TIP3    H123014   4.738   5.465   2.438  0.2079 -0.8388 -0.0841
  485TIP3    H223015   4.876   5.407   2.454 -0.1035 -1.6882 -0.4118
  486TIP3   OH223016   4.665   3.495   3.309 -0.4147  0.0004 -0.3676
  486TIP3    H123017   4.669   3.412   3.356  1.3963 -0.1897 -0.8153
  486TIP3    H223018   4.734   3.548   3.348 -0.4047  0.6676 -1.2763
  487TIP3   OH223019   3.924   5.488   7.542 -0.7785  0.0044  0.5561
  487TIP3    H123020   3.892   5.399   7.555 -1.8031  0.3730  0.5955
  487TIP3    H223021   3.969   5.509   7.624 -1.0623 -0.2508  0.7769
  488TIP3   OH223022   2.657   3.022   8.135  0.2806  0.5444  0.5781
  488TIP3    H123023   2.566   2.993   8.133  0.7544 -1.2515  1.7095
  488TIP3    H223024   2.678   3.028   8.229  1.3591  0.7516  0.3361
  489TIP3   OH223025   1.268   4.358   2.628 -0.8039 -0.2004 -0.4390
  489TIP3    H123026   1.184   4.389   2.662 -0.5277  0.0437  0.0288
  489TIP3    H223027   1.309   4.312   2.701  0.9760  2.6015  0.4861
  490TIP3   OH223028   3.873   5.033   2.750  0.5841 -0.4129  0.1938
  490TIP3    H123029   3.899   5.121   2.722 -0.3719 -0.4121 -0.7914
  490TIP3    H223030   3.949   4.998   2.795  0.6570  1.2740  1.4518
  491TIP3   OH223031   3.425   4.734   2.945 -0.2891  0.0968 -0.2260
  491TIP3    H123032   3.383   4.652   2.920 -2.1066  1.4017 -1.7947
  491TIP3    H223033   3.518   4.713   2.949 -0.8637 -2.5607  1.8530
  492TIP3   OH223034   4.577   3.481   2.571  0.4264  0.2389  0.3995
  492TIP3    H123035   4.593   3.573   2.553 -0.2253  0.3816  0.5364
  492TIP3    H223036   4.649   3.455   2.629  0.5251  0.6966  0.4838
  493TIP3   OH223037   6.526   4.907   8.662 -0.3422 -0.3570  0.3366
  493TIP3    H123038   6.525   4.811   8.654 -2.8970 -0.4860  1.1923
  493TIP3    H223039   6.480   4.924   8.744 -1.5525  1.6686 -0.6887
  494TIP3   OH223040   6.190   4.969   8.513 -0.3155 -0.3390 -0.3503
  494TIP3    H123041   6.252   4.975   8.441  0.8063 -1.4511  0.4844
  494TIP3    H223042   6.112   4.929   8.474 -0.5731  1.1011 -1.4162
  495TIP3   OH223043   2.089   5.811   1.860  0.1004 -0.0192  0.1083
  495TIP3    H123044   2.074   5.717   1.852 -0.8294  0.2053 -0.9704
  495TIP3    H223045   2.181   5.818   1.888  1.6606 -1.1753 -3.9589
  496TIP3   OH223046   1.279   3.174   2.631 -0.0760  0.3752  0.4967
  496TIP3    H123047   1.304   3.266   2.639 -0.3077  0.4993 -0.1224
  496TIP3    H223048   1.227   3.170   2.551  0.0536 -0.3198  0.4376
  497TIP3   OH223049   2.483   6.429   2.339 -0.3129  0.0685  0.3388
  497TIP3    H123050   2.389   6.441   2.330 -0.5170 -1.8534 -0.6244
  497TIP3    H223051   2.496   6.412   2.433 -1.3125 -2.1816  0.1240
  498TIP3   OH223052   6.650   4.073   8.709 -0.7472  0.6806 -0.2611
  498TIP3    H123053   6.585   4.044   8.645 -1.1661  0.7888  0.1166
  498TIP3    H223054   6.674   3.994   8.757  0.8550  0.2400 -1.6799
  499TIP3   OH223055   5.117   2.543   1.018  0.1093 -0.1712  0.8465
  499TIP3    H123056   5.158   2.573   0.936  0.4531 -0.3381  0.9546
  499TIP3    H223057   5.035   2.503   0.990 -0.9105  1.8529  0.7982
  500TIP3   OH223058   6.154   4.531   1.428 -0.1103  0.1676  0.1102
  500TIP3    H123059   6.159   4.613   1.477  0.0482  0.4867 -0.4247
  500TIP3    H223060   6.238   4.487   1.445 -0.4426 -0.1759  0.8905
  501TIP3   OH223061   5.572   1.363   0.492 -0.0850 -0.2395 -0.5736
  501TIP3    H123062   5.593   1.452   0.463  2.0652 -0.5279 -0.0115
  501TIP3    H223063   5.526   1.375   0.575 -0.0106  0.3570 -0.6169
  502TIP3   OH223064   2.315   0.359   1.557  0.4236  0.1438  0.0405
  502TIP3    H123065   2.391   0.416   1.542  0.0812  0.2291 -1.6331
  502TIP3    H223066   2.295   0.323   1.470 -0.4825 -1.1265  0.7403
  503TIP3   OH223067   4.613   5.589   1.021  0.0430 -0.5642 -0.7001
  503TIP3    H123068   4.530   5.632   1.041 -0.4153 -1.3074 -0.9692
  503TIP3    H223069   4.680   5.653   1.044 -0.6235  0.2218 -0.9285
  504TIP3   OH223070   0.615   4.173   7.362  0.8239  0.1206  0.3202
  504TIP3    H123071   0.545   4.108   7.362  1.4666 -0.5787  0.2238
  504TIP3    H223072   0.576   4.249   7.406  0.1056 -0.3665  0.5504
  505TIP3   OH223073   0.511   3.783   2.450  0.3294 -0.2881 -0.3745
  505TIP3    H123074   0.466   3.853   2.403  0.7484  1.5541  1.7874
  505TIP3    H223075   0.603   3.810   2.450  0.1954  0.4157  2.4077
  506TIP3   OH223076   5.711   0.334   0.743  0.2492 -0.9292  0.6724
  506TIP3    H123077   5.633   0.362   0.695  0.3742 -1.4275  0.1734
  506TIP3    H223078   5.724   0.243   0.716  2.0614 -0.3208 -0.6827
  507TIP3   OH223079   5.616   6.117   8.623 -0.1276 -0.5956  0.1758
  507TIP3    H123080   5.544   6.078   8.671  1.0854 -0.4358  2.2498
  507TIP3    H223081   5.685   6.050   8.625  0.1430 -0.3683 -0.8861
  508TIP3   OH223082   3.902   3.789   8.986 -0.6133 -0.2456  0.4596
  508TIP3    H123083   3.823   3.840   8.968 -0.2526 -0.3294 -1.5522
  508TIP3    H223084   3.916   3.737   8.907 -0.1039 -2.3626  1.8624
  509TIP3   OH223085   1.179   2.314   2.675 -0.0174  0.4256 -0.7480
  509TIP3    H123086   1.230   2.373   2.731 -1.6755  1.1902  0.0597
  509TIP3    H223087   1.237   2.294   2.602  1.8091  0.3560  0.6413
  510TIP3   OH223088   3.232   6.528   0.454  0.2547 -0.1045  0.3878
  510TIP3    H123089   3.183   6.521   0.536  0.7380 -0.7205  0.6350
  510TIP3    H223090   3.251   6.621   0.444  0.1489 -0.0238  0.9489
  511TIP3   OH223091   6.229   6.026   0.231 -0.0305  0.1504  0.3955
  511TIP3    H123092   6.137   6.043   0.252  0.1502  0.1970  1.1995
  511TIP3    H223093   6.239   5.932   0.241 -0.2529 -0.0070 -0.8082
  512TIP3   OH223094   3.946   1.361   8.199 -0.0765 -0.0167 -0.1237
  512TIP3    H123095   3.985   1.274   8.187 -1.2809 -0.4724 -0.9376
  512TIP3    H223096   3.887   1.371   8.124 -0.0196  1.4803  0.0041
  513TIP3   OH223097   4.647   1.371   8.933 -0.2019 -0.1379  0.5966
  513TIP3    H123098   4.715   1.429   8.965  0.4629 -0.3465 -0.3780
  513TIP3    H223099   4.631   1.310   9.005  0.3140  0.1994  1.0021
  514TIP3   OH223100   3.392   0.426   1.417 -0.1366  0.0990  0.1501
  514TIP3    H123101   3.438   0.501   1.380  0.2986 -0.7227 -1.0312
  514TIP3    H223102   3.408   0.354   1.355  0.7450 -1.3961  2.0168
  515TIP3   OH223103   1.869   3.229   8.505 -0.3179  0.4127  0.1000
  515TIP3    H123104   1.919   3.249   8.426 -0.0788 -2.4434 -0.5697
  515TIP3    H223105   1.919   3.161   8.549 -2.3509 -0.8064  0.6780
  516TIP3   OH223106   0.968   5.395   1.689 -0.3227  0.1891 -0.1477
  516TIP3    H123107   1.022   5.437   1.756 -3.0934  1.1792  1.6384
  516TIP3    H223108   0.883   5.439   1.696 -1.6650 -1.8774 -2.1668
  517TIP3   OH223109   0.990   0.890   7.635 -0.4254  0.2655 -0.1743
  517TIP3    H123110   1.032   0.817   7.591 -1.1890 -0.3764  0.1333
  517TIP3    H223111   0.907   0.903   7.588 -0.6123  0.4763  0.2018
  518TIP3   OH223112   5.355   5.252   8.283  0.1107  0.0955 -0.1837
  518TIP3    H123113   5.326   5.208   8.203 -0.5500  0.8376 -0.3692
  518TIP3    H223114   5.372   5.343   8.256 -0.6350  0.4946  0.6010
  519TIP3   OH223115   4.214   2.569   7.444 -0.2238 -0.5450  0.6541
  519TIP3    H123116   4.224   2.479   7.413 -0.4983 -0.5121  0.4676
  519TIP3    H223117   4.127   2.571   7.483  0.1011 -0.5715  1.3875
  520TIP3   OH223118   1.844   3.501   1.302 -0.4806  0.7777 -0.4082
  520TIP3    H123119   1.849   3.544   1.217 -2.6468 -1.1307 -1.6060
  520TIP3    H223120   1.761   3.454   1.301 -0.2560  0.1145  2.5137
  521TIP3   OH223121   3.055   1.612   1.932 -0.1550 -0.2734 -0.3521
  521TIP3    H123122   2.977   1.598   1.877  0.8748  0.4482 -2.1003
  521TIP3    H223123   3.055   1.706   1.948  0.4037 -0.2527 -0.4624
  522TIP3   OH223124   3.075   4.218   2.719  0.3081 -0.4375  0.2914
  522TIP3    H123125   3.150   4.277   2.725 -1.5266  2.5355 -2.4562
  522TIP3    H223126   3.051   4.201   2.809  0.2210  4.2994  1.4176
  523TIP3   OH223127   6.379   5.152   2.342 -0.0129 -0.5077 -0.2278
  523TIP3    H123128   6.453   5.205   2.313 -0.4346  0.2514  0.0446
  523TIP3    H223129   6.403   5.062   2.318  1.3272 -0.3821  0.5557
  524TIP3   OH223130   3.325   4.812   2.212  0.2971  0.0493 -0.4574
  524TIP3    H123131   3.300   4.721   2.223 -0.5231  0.2124 -0.9193
  524TIP3    H223132   3.329   4.846   2.302  1.0325 -0.5428 -0.2598
  525TIP3   OH223133   6.379   5.592   1.753  0.4740 -0.1757  0.6842
  525TIP3    H123134   6.336   5.653   1.812 -1.9127  0.0364 -1.1182
  525TIP3    H223135   6.307   5.549   1.706  2.1706  0.1682 -2.5248
  526TIP3   OH223136   5.075   6.588   8.690 -0.0803  0.3639  0.0845
  526TIP3    H123137   5.113   6.582   8.777 -0.8618  1.7512  0.5559
  526TIP3    H223138   5.151   6.586   8.631  0.6000  1.2512  0.8982
  527TIP3   OH223139   6.246   6.569   8.353 -0.0399 -0.3768  0.0252
  527TIP3    H123140   6.259   6.475   8.344 -0.7796 -0.3141 -2.2515
  527TIP3    H223141   6.329   6.607   8.324 -0.8963 -0.3071 -2.6342
  528TIP3   OH223142   2.064   6.461   2.141  0.2230  0.4469 -0.1556
  528TIP3    H123143   2.067   6.489   2.050  0.3987  0.2581 -0.2110
  528TIP3    H223144   1.979   6.418   2.150  0.6218 -0.4559 -0.5180
  529TIP3   OH223145   0.468   3.993   0.089  0.3318  0.0475 -0.7709
  529TIP3    H123146   0.398   3.929   0.102  2.2910 -2.0483  0.1331
  529TIP3    H223147   0.440   4.069   0.139 -1.3929 -0.6105 -0.6429
  530TIP3   OH223148   6.612   2.296   3.308 -0.4011 -0.1978  0.2631
  530TIP3    H123149   6.681   2.230   3.303 -1.7848 -1.7344  0.3024
  530TIP3    H223150   6.638   2.363   3.244  1.2527 -0.5611  0.5027
  531TIP3   OH223151   4.517   3.445   0.010 -0.0739  0.4926 -0.2207
  531TIP3    H123152   4.493   3.379   0.075 -0.0815  0.1335 -0.5858
  531TIP3    H223153   4.503   3.529   0.055  0.9508  0.2354  0.6064
  532TIP3   OH223154   4.706   0.106   7.215 -0.3734  0.7764  0.4228
  532TIP3    H123155   4.768   0.076   7.281  0.1981 -0.7293 -0.7334
  532TIP3    H223156   4.620   0.090   7.255 -0.1284 -2.6303 -0.0729
  533TIP3   OH223157   6.281   0.833   8.000  0.3007 -0.2080  0.0170
  533TIP3    H123158   6.370   0.861   8.016  0.3661 -1.0967  1.3723
  533TIP3    H223159   6.234   0.913   7.977  1.1955  0.4386  0.3922
  534TIP3   OH223160   4.765   1.147   8.739  0.2111  0.1230  0.6583
  534TIP3    H123161   4.783   1.144   8.833 -0.5728 -0.7730  0.8043
  534TIP3    H223162   4.786   1.059   8.707 -1.4230 -0.2251  0.4051
  535TIP3   OH223163   6.641   0.247   2.994  0.3185 -0.4678  0.0691
  535TIP3    H123164   6.596   0.165   3.012 -0.6733 -0.2898 -1.3673
  535TIP3    H223165   6.692   0.229   2.915 -0.1754  0.3740 -0.4572
  536TIP3   OH223166   0.297   2.811   0.528 -0.1117 -0.2000 -0.5228
  536TIP3    H123167   0.289   2.735   0.471 -0.3574  0.1761 -0.9961
  536TIP3    H223168   0.306   2.774   0.616  0.3275 -0.7851 -0.8046
  537TIP3   OH223169   5.201   0.536   8.197  0.9418 -0.0876 -0.3884
  537TIP3    H123170   5.246   0.523   8.281 -1.9729 -1.7158  1.0576
  537TIP3    H223171   5.189   0.448   8.162 -1.4423  0.2070 -0.4638
  538TIP3   OH223172   6.469   5.201   0.158 -0.2279  0.5496  0.0871
  538TIP3    H123173   6.537   5.269   0.152 -0.8786  1.1570 -0.7485
  538TIP3    H223174   6.398   5.233   0.102 -1.5502  0.3251  1.5366
  539TIP3   OH223175   6.150   2.477   1.597 -0.1713 -0.5264 -1.0885
  539TIP3    H123176   6.210   2.543   1.563 -1.2667  0.9280 -0.3155
  539TIP3    H223177   6.205   2.402   1.616  1.3586  0.6561 -0.6441
  540TIP3   OH223178   5.766   3.527   1.308  0.0313  0.5160 -0.3514
  540TIP3    H123179   5.808   3.560   1.388  3.6471 -1.8168 -1.0360
  540TIP3    H223180   5.824   3.555   1.238 -0.1383 -1.8709 -1.5420
  541TIP3   OH223181   4.214   0.315   8.161  0.3477 -0.0160 -0.5411
  541TIP3    H123182   4.270   0.241   8.186 -0.5708 -0.8779 -0.9462
  541TIP3    H223183   4.264   0.361   8.094  1.5303  0.5649  0.6984
  542TIP3   OH223184   4.138   0.125   9.008 -0.0382 -0.5335  0.4865
  542TIP3    H123185   4.226   0.087   9.004 -0.5837 -1.7459 -0.2715
  542TIP3    H223186   4.085   0.071   8.951 -1.0282  0.9375 -0.0515
  543TIP3   OH223187   6.128   5.099   8.197 -0.5114 -0.2473 -0.5381
  543TIP3    H123188   6.130   5.060   8.110  0.2053 -0.1185 -0.5776
  543TIP3    H223189   6.162   5.031   8.255  0.3374  0.1646 -0.5493
  544TIP3   OH223190   4.500   5.849   2.148 -0.2185  0.0806 -0.0391
  544TIP3    H123191   4.579   5.854   2.094 -0.1639  0.0320  0.0368
  544TIP3    H223192   4.530   5.816   2.233 -0.0477  1.5485  0.5084
  545TIP3   OH223193   6.574   3.310   2.605 -0.2597  0.0703 -0.3917
  545TIP3    H123194   6.485   3.276   2.608 -0.7074  1.2513  0.5579
  545TIP3    H223195   6.571   3.381   2.540  0.1258 -0.2255 -0.7421
  546TIP3   OH223196   3.048   0.054   8.410 -0.1258 -0.0872  0.4226
  546TIP3    H123197   3.063  -0.033   8.373  2.9905  0.2016  0.7524
  546TIP3    H223198   2.973   0.042   8.468  0.3343 -2.6190  0.6316
  547TIP3   OH223199   2.792   6.472   8.384  0.0940  0.2284  0.1998
  547TIP3    H123200   2.713   6.508   8.424  0.0777  0.8034 -0.3307
  547TIP3    H223201   2.763   6.437   8.300  0.5836  1.4278 -0.4855
  548TIP3   OH223202   2.807   1.636   2.476 -0.0159  0.1501  0.3064
  548TIP3    H123203   2.864   1.644   2.399 -0.7896 -0.8112 -0.3918
  548TIP3    H223204   2.831   1.552   2.515 -0.3523  0.1462  0.5078
  549TIP3   OH223205   6.585   1.728   1.440  0.4537 -0.1901  0.3305
  549TIP3    H123206   6.647   1.791   1.402 -1.0966  1.3808  0.2852
  549TIP3    H223207   6.599   1.648   1.390  0.5624  0.9415 -1.5515
  550TIP3   OH223208   2.233   1.035   0.253  0.6390 -0.1465 -0.3703
  550TIP3    H123209   2.178   1.082   0.190  1.2467 -0.1821 -0.9392
  550TIP3    H223210   2.265   0.959   0.204  0.5066 -0.5904  0.2187
  551TIP3   OH223211   3.849   6.509   8.684  0.3218  0.0134 -0.2360
  551TIP3    H123212   3.846   6.546   8.596  0.7275  1.2738  0.2484
  551TIP3    H223213   3.938   6.528   8.715  0.1526 -0.3108  0.4748
  552TIP3   OH223214   3.798   5.690   2.056  0.2729  0.1376 -0.2483
  552TIP3    H123215   3.822   5.630   2.126 -0.6940  1.1443  0.9884
  552TIP3    H223216   3.742   5.755   2.098 -0.4500  0.6950 -1.9905
  553TIP3   OH223217   4.772   0.713   0.861 -0.2396 -0.5972  0.3788
  553TIP3    H123218   4.792   0.747   0.774 -0.7522 -0.4673  0.3087
  553TIP3    H223219   4.856   0.712   0.906  0.0015 -0.5103 -0.0650
  554TIP3   OH223220   3.451   0.943   0.834 -0.1106  0.1166  0.2017
  554TIP3    H123221   3.411   0.940   0.921  1.0979  0.2538  0.7727
  554TIP3    H223222   3.457   0.852   0.807  0.4013  0.0045  0.6827
  555TIP3   OH223223   5.516   4.973   8.700  0.1904  0.3011  0.6816
  555TIP3    H123224   5.508   5.058   8.658 -1.0646  0.8491  1.9346
  555TIP3    H223225   5.573   4.988   8.776 -0.7076  0.2582  1.3901
  556TIP3   OH223226   1.614   3.379   8.951 -0.3311  0.1277  0.5854
  556TIP3    H123227   1.634   3.301   9.003 -0.9858 -0.5501 -0.1351
  556TIP3    H223228   1.671   3.372   8.874 -0.4435  0.3194  0.4840
  557TIP3   OH223229   5.097   5.697   0.048 -0.2441  0.0362 -0.4492
  557TIP3    H123230   5.169   5.667   0.104 -0.2523  0.0062 -0.4548
  557TIP3    H223231   5.059   5.617   0.012 -0.1823  0.0610 -0.5687
  558TIP3   OH223232   5.003   0.413   7.377  0.4124 -0.3430  0.0287
  558TIP3    H123233   5.029   0.403   7.468  0.5887 -0.2543 -0.0110
  558TIP3    H223234   5.076   0.378   7.327  0.2354 -0.5660 -0.0761
  559TIP3   OH223235   2.562   0.501   6.988 -0.2895 -0.2508 -0.2284
  559TIP3    H123236   2.533   0.552   6.912 -0.9182 -0.8350 -0.3873
  559TIP3    H223237   2.518   0.543   7.062  2.6397  2.2483  0.2910
  560TIP3   OH223238   4.131   4.173   8.510  0.4880 -0.2517  0.5471
  560TIP3    H123239   4.155   4.091   8.468  1.6251  0.0681  0.5583
  560TIP3    H223240   4.043   4.192   8.476  1.0657 -0.3761 -1.1138
  561TIP3   OH223241   4.299   5.937   1.532  0.1957 -0.0500 -0.2527
  561TIP3    H123242   4.243   6.011   1.556  0.5594 -0.0666  0.6980
  561TIP3    H223243   4.388   5.974   1.531  0.2109 -0.0953 -1.4394
  562TIP3   OH223244   0.974   0.781   3.320 -0.2896 -0.2879  0.1998
  562TIP3    H123245   0.912   0.729   3.371 -1.4111  0.8120  0.0026
  562TIP3    H223246   0.967   0.869   3.356 -0.2092  0.2486 -1.0351
  563TIP3   OH223247   1.373   5.752   2.501  0.4657  0.4980 -0.3965
  563TIP3    H123248   1.440   5.683   2.510  0.1984  0.3163  0.2833
  563TIP3    H223249   1.415   5.819   2.447  1.0148  0.1541 -0.4077
  564TIP3   OH223250   0.786   1.544   8.818  0.1729 -0.2143 -0.3175
  564TIP3    H123251   0.806   1.565   8.909  0.5420  0.4377 -0.5399
  564TIP3    H223252   0.858   1.486   8.792  1.2173  1.2280 -0.7813
  565TIP3   OH223253   2.373   2.562   7.811 -0.2275  0.0007 -0.2006
  565TIP3    H123254   2.332   2.526   7.733  1.2730 -0.8372 -0.6400
  565TIP3    H223255   2.421   2.638   7.780  1.3002 -0.9749 -0.3626
  566TIP3   OH223256   5.352   2.296   1.574 -0.3387  0.4970 -0.3091
  566TIP3    H123257   5.310   2.235   1.513 -0.1171 -0.5844  0.5954
  566TIP3    H223258   5.421   2.337   1.523  1.8896 -2.5969 -0.0964
  567TIP3   OH223259   5.945   5.974   8.456  0.2112 -0.6660 -0.5800
  567TIP3    H123260   5.897   5.945   8.379  1.4221 -1.9624 -0.9035
  567TIP3    H223261   5.889   5.951   8.530 -0.0620 -1.3484 -0.9882
  568TIP3   OH223262   5.022   2.563   1.607 -0.1946 -0.1957  0.7577
  568TIP3    H123263   5.044   2.496   1.672  0.7365 -0.6311  0.0117
  568TIP3    H223264   5.082   2.636   1.626 -2.6307  1.4418  2.9846
  569TIP3   OH223265   5.805   3.638   0.753 -0.0178 -0.1409  0.1021
  569TIP3    H123266   5.751   3.601   0.682  0.6835 -2.1563  0.5650
  569TIP3    H223267   5.892   3.647   0.715 -0.5466  3.0575 -0.6228
  570TIP3   OH223268   4.013   4.524   1.858 -0.0878 -0.1159  0.0903
  570TIP3    H123269   4.032   4.587   1.788 -0.9775  0.3067  0.2184
  570TIP3    H223270   4.096   4.516   1.905 -0.1208  1.5095  0.4921
  571TIP3   OH223271   6.337   5.890   2.981 -0.2922  0.2125  0.0848
  571TIP3    H123272   6.328   5.795   2.983 -1.9780  0.3262 -0.2054
  571TIP3    H223273   6.299   5.915   2.896 -3.2730  1.3770  1.6026
  572TIP3   OH223274   0.753   4.770   8.325 -0.3178  0.1504  0.0003
  572TIP3    H123275   0.708   4.710   8.385  1.5771  1.2899  2.7170
  572TIP3    H223276   0.833   4.795   8.371  1.9260  0.1454 -3.5827
  573TIP3   OH223277   4.964   4.466   1.671  0.1536  0.3500 -0.1802
  573TIP3    H123278   4.954   4.393   1.732 -0.2036 -0.2245 -0.8957
  573TIP3    H223279   4.997   4.538   1.724  4.5049 -1.4165 -0.1360
  574TIP3   OH223280   3.076   5.340   0.879  0.0509 -0.6679  0.1809
  574TIP3    H123281   2.990   5.339   0.836 -0.5522 -1.8452  1.3235
  574TIP3    H223282   3.133   5.385   0.817 -1.5019  0.6847 -0.3597
  575TIP3   OH223283   0.299   4.158   8.363  0.3582 -0.1250 -0.0861
  575TIP3    H123284   0.275   4.237   8.411 -0.3344  0.0724 -0.7414
  575TIP3    H223285   0.377   4.125   8.409  1.0262  1.2563 -0.1644
  576TIP3   OH223286   1.754   6.475   0.130 -0.1101  0.1911 -0.0229
  576TIP3    H123287   1.752   6.537   0.057 -0.9688 -0.5751 -0.6671
  576TIP3    H223288   1.751   6.389   0.089 -1.5023 -0.2482  0.9281
  577TIP3   OH223289   4.371   2.978   8.279  0.4791 -0.0917 -0.2700
  577TIP3    H123290   4.417   3.025   8.349  0.1259 -0.6483  0.3457
  577TIP3    H223291   4.283   3.016   8.279  0.4201 -0.2271 -0.2811
  578TIP3   OH223292   1.588   3.555   2.044  0.0246  0.4690  0.1259
  578TIP3    H123293   1.657   3.490   2.031  0.0351  0.3010  0.9506
  578TIP3    H223294   1.634   3.638   2.049  0.0663  0.4759 -0.3653
  579TIP3   OH223295   3.214   1.429   8.534 -0.3599  0.2450 -0.7052
  579TIP3    H123296   3.134   1.443   8.585  1.4727  0.4014  2.3480
  579TIP3    H223297   3.226   1.334   8.533 -0.7426  0.1944 -1.5050
  580TIP3   OH223298   4.101   5.625   1.014 -0.1625  0.6339  0.1570
  580TIP3    H123299   4.108   5.530   1.016 -0.1590  0.5883 -1.2744
  580TIP3    H223300   4.049   5.647   1.092 -0.6828 -0.5826  0.1669
  581TIP3   OH223301   5.019   4.752   0.962  0.0903 -0.7451  0.1367
  581TIP3    H123302   5.002   4.776   1.053  0.1024 -0.4898  0.0748
  581TIP3    H223303   5.095   4.804   0.938  0.7161 -1.5769  0.2866
  582TIP3   OH223304   0.593   5.659   2.514 -0.2606  0.6136 -0.0424
  582TIP3    H123305   0.568   5.732   2.569 -0.8499 -1.8369  3.2501
  582TIP3    H223306   0.658   5.696   2.453 -1.2237  3.9803  0.7718
  583TIP3   OH223307   3.391   3.118   3.631  0.6051  0.6893  0.0630
  583TIP3    H123308   3.310   3.096   3.586  1.0408 -0.8655  0.0066
  583TIP3    H223309   3.459   3.114   3.563  0.8115  1.5034  0.2081
  584TIP3   OH223310   2.874   3.010   0.718 -0.6376  0.6961  0.5529
  584TIP3    H123311   2.780   3.025   0.722 -1.2150 -2.4450  1.5290
  584TIP3    H223312   2.900   2.995   0.808  0.5220  0.0977  0.1359
  585TIP3   OH223313   0.640   3.476   1.602 -0.0415  0.2906 -0.2352
  585TIP3    H123314   0.602   3.397   1.564  1.0284 -0.1559 -0.3901
  585TIP3    H223315   0.666   3.451   1.690 -2.2086  1.2353  0.7492
  586TIP3   OH223316   1.070   3.142   0.504  0.1328 -0.1715  0.1298
  586TIP3    H123317   1.137   3.084   0.539 -1.4656 -1.0587  1.9221
  586TIP3    H223318   0.990   3.090   0.506 -0.6955  0.9108 -1.7252
  587TIP3   OH223319   0.097   3.321   7.483  0.4445 -0.2356 -0.2973
  587TIP3    H123320   0.156   3.255   7.520 -0.7239  0.1182  2.4619
  587TIP3    H223321   0.009   3.290   7.504 -0.2147  1.1873 -0.7847
  588TIP3   OH223322   4.415   2.548   8.736  0.0201 -0.0783 -0.0427
  588TIP3    H123323   4.483   2.506   8.789  1.1833  1.8517  0.0517
  588TIP3    H223324   4.337   2.545   8.792  0.1252 -1.7645  0.0817
  589TIP3   OH223325   5.925   3.421   8.591 -0.3214 -0.2632  0.1619
  589TIP3    H123326   5.908   3.469   8.671  2.0898  1.8691 -0.4718
  589TIP3    H223327   5.853   3.444   8.532 -0.5964  0.4436  0.7691
  590TIP3   OH223328   2.291   5.188   8.620 -0.1761 -0.0808  0.5477
  590TIP3    H123329   2.307   5.168   8.528 -1.5131  0.2376  0.2347
  590TIP3    H223330   2.232   5.118   8.650  1.0393 -0.7741  1.4609
  591TIP3   OH223331   3.013   4.679   7.567 -1.0589 -0.0266 -0.0490
  591TIP3    H123332   3.043   4.704   7.479 -1.0102  0.6105  0.1464
  591TIP3    H223333   3.093   4.660   7.615 -1.1171 -1.1353 -0.3550
  592TIP3   OH223334   4.477   3.605   7.445 -0.1000 -0.5594 -0.0805
  592TIP3    H123335   4.415   3.580   7.513 -0.0197 -1.1617 -0.2172
  592TIP3    H223336   4.492   3.524   7.396  1.3946 -0.6191  0.4374
  593TIP3   OH223337   6.352   4.777   1.636  0.4678 -0.2455 -0.1014
  593TIP3    H123338   6.436   4.732   1.637  1.3045  1.2488  0.9333
  593TIP3    H223339   6.290   4.713   1.670  1.3371 -1.0927 -0.0611
  594TIP3   OH223340   3.318   4.509   0.647 -0.7798  0.0995  0.0534
  594TIP3    H123341   3.368   4.566   0.588  1.0267  0.1808  1.5734
  594TIP3    H223342   3.265   4.569   0.699 -0.2777  0.2580  0.3888
  595TIP3   OH223343   5.910   0.385   1.837  0.0658  0.1856 -0.2103
  595TIP3    H123344   5.916   0.318   1.769  2.0844 -0.2477  0.3306
  595TIP3    H223345   5.852   0.348   1.903 -0.7919  0.0273 -1.0289
  596TIP3   OH223346   3.671   3.944   2.209  0.1100 -0.0190 -0.2545
  596TIP3    H123347   3.736   4.014   2.213 -0.4245  0.5175 -0.7786
  596TIP3    H223348   3.697   3.892   2.132  1.2324 -1.1558  0.8314
  597TIP3   OH223349   5.514   0.283   8.532 -0.5655  0.3844 -0.0767
  597TIP3    H123350   5.595   0.304   8.485 -0.8030 -0.6266 -0.9816
  597TIP3    H223351   5.544   0.231   8.607 -0.4265 -0.7542 -0.8995
  598TIP3   OH223352   3.627   3.805   2.878  0.4247 -0.4145  0.3387
  598TIP3    H123353   3.681   3.732   2.910 -0.3408 -1.8574 -1.4637
  598TIP3    H223354   3.628   3.795   2.783 -0.7761  1.1818  0.1296
  599TIP3   OH223355   6.395   0.379   8.737  0.2448 -0.4333  0.3200
  599TIP3    H123356   6.372   0.300   8.688 -0.1693  0.1175 -0.3934
  599TIP3    H223357   6.486   0.364   8.764  0.2187 -1.0871  0.0741
  600TIP3   OH223358   0.206   5.871   1.381  0.1364  0.1015  0.1829
  600TIP3    H123359   0.245   5.904   1.300 -1.8795 -0.0600 -0.9448
  600TIP3    H223360   0.138   5.936   1.402 -1.1138 -1.1751  0.2412
  601TIP3   OH223361   5.250   0.031   7.917 -0.1050 -0.7360  0.1744
  601TIP3    H123362   5.344   0.019   7.903  0.2427 -1.0193  2.4028
  601TIP3    H223363   5.212  -0.054   7.896  0.3285 -1.0521  0.6440
  602TIP3   OH223364   6.146   1.631   0.183  0.1373  0.7037 -0.1140
  602TIP3    H123365   6.227   1.652   0.230  1.8266 -0.7558 -2.1517
  602TIP3    H223366   6.170   1.638   0.090 -1.8144 -0.6767 -0.7878
  603TIP3   OH223367   3.563   0.900   0.003 -0.2988 -0.0440  0.4926
  603TIP3    H123368   3.634   0.948   0.047 -1.3670  2.0520  0.0645
  603TIP3    H223369   3.515   0.858   0.075  2.1565 -2.8838  0.7201
  604TIP3   OH223370   4.507   3.377   8.521 -0.1450 -0.2818  0.1770
  604TIP3    H123371   4.505   3.427   8.603  1.3065  1.2103 -0.6305
  604TIP3    H223372   4.417   3.378   8.490 -0.3991  0.6371  0.9075
  605TIP3   OH223373   5.515   4.167   1.506 -0.1826  0.1159  0.6199
  605TIP3    H123374   5.556   4.092   1.464 -0.1159  1.7661 -2.5431
  605TIP3    H223375   5.427   4.136   1.530 -0.4637 -0.7772 -1.3714
  606TIP3   OH223376   0.159   3.198   1.751  0.2802  0.0982 -0.1470
  606TIP3    H123377   0.155   3.107   1.720 -0.1722  0.4472 -1.1454
  606TIP3    H223378   0.073   3.235   1.729  0.0839  0.4948  1.1760
  607TIP3   OH223379   2.759   1.743   8.018 -0.3079 -0.0763  0.9006
  607TIP3    H123380   2.785   1.674   7.957 -0.9661 -1.6571  2.3478
  607TIP3    H223381   2.836   1.758   8.072 -0.5974 -0.6962  1.4957
  608TIP3   OH223382   0.130   0.327   3.130 -0.4648  0.3040  0.3657
  608TIP3    H123383   0.146   0.400   3.071 -0.6449 -0.9858 -1.3850
  608TIP3    H223384   0.072   0.269   3.080  2.1013 -2.5085  0.3489
  609TIP3   OH223385   1.776   6.723   7.890 -0.3563 -0.0648 -0.2234
  609TIP3    H123386   1.729   6.767   7.961  0.4914  1.1996 -0.4130
  609TIP3    H223387   1.761   6.778   7.813  1.9865  0.7802 -0.1335
  610TIP3   OH223388   3.194   2.055   0.460  0.2122  0.0332 -0.4436
  610TIP3    H123389   3.204   2.029   0.552  1.6920  2.1330  0.0639
  610TIP3    H223390   3.280   2.039   0.421 -0.3586 -0.6866 -1.4496
  611TIP3   OH223391   3.372   5.689   1.351 -0.0206  0.0586 -0.0990
  611TIP3    H123392   3.307   5.644   1.298 -2.0735  1.3688  1.1287
  611TIP3    H223393   3.448   5.631   1.353 -1.9863 -2.6601  0.2499
  612TIP3   OH223394   1.781   0.508   8.362 -0.2363  0.3964  0.0497
  612TIP3    H123395   1.759   0.481   8.273  1.4816  1.0979 -0.6429
  612TIP3    H223396   1.755   0.601   8.366 -1.3816  0.0765  0.7046
  613TIP3   OH223397   2.855   3.065   1.830 -0.2494 -0.3115  0.4644
  613TIP3    H123398   2.804   3.130   1.783  0.0152  0.8669  1.7419
  613TIP3    H223399   2.877   3.107   1.914  1.4425 -1.3652  0.6115
  614TIP3   OH223400   1.236   6.603   2.559 -0.2466  0.2213  0.0543
  614TIP3    H123401   1.264   6.694   2.562 -0.6098  0.4455 -1.9328
  614TIP3    H223402   1.145   6.604   2.589 -0.7983  0.8071 -1.5470
  615TIP3   OH223403   3.096   2.192   8.826  0.1543 -0.2172  0.1693
  615TIP3    H123404   3.084   2.238   8.909  0.9472  0.2646  0.0336
  615TIP3    H223405   3.183   2.220   8.796  0.1048 -0.8102 -0.5529
  616TIP3   OH223406   6.085   2.667   8.753  0.1070 -0.0798 -0.1247
  616TIP3    H123407   6.034   2.587   8.745 -0.7219  0.4175 -0.0153
  616TIP3    H223408   6.073   2.695   8.844  0.0114  0.4019 -0.2798
  617TIP3   OH223409   4.031   4.380   2.373 -0.0443  0.0425  0.1220
  617TIP3    H123410   4.001   4.453   2.319 -1.7633 -2.0684 -2.0222
  617TIP3    H223411   3.950   4.343   2.410  0.5128 -1.9424 -0.5241
  618TIP3   OH223412   1.307   5.089   0.678  0.5562  0.3135  1.1603
  618TIP3    H123413   1.260   5.103   0.760 -0.9794  2.3386  0.0515
  618TIP3    H223414   1.261   5.016   0.636  1.1241 -0.4911  1.8984
  619TIP3   OH223415   3.842   0.996   7.796 -0.2122 -0.2216 -0.1392
  619TIP3    H123416   3.823   1.085   7.827  0.1554 -0.5281  1.0142
  619TIP3    H223417   3.783   0.940   7.845  0.1719 -0.6971 -0.2105
  620TIP3   OH223418   0.573   6.084   0.771 -0.4913  0.0597  0.5127
  620TIP3    H123419   0.636   6.044   0.832 -0.0519  0.8411  0.5878
  620TIP3    H223420   0.615   6.075   0.685  0.0975  1.2588  0.6538
  621TIP3   OH223421   6.666   3.327   8.962 -0.2008  0.2479 -0.4306
  621TIP3    H123422   6.603   3.272   8.914 -1.6521 -1.1052  2.7459
  621TIP3    H223423   6.616   3.404   8.987 -0.4223 -0.4254  1.3496
  622TIP3   OH223424   0.685   6.109   8.998 -0.1175 -0.2232 -0.3878
  622TIP3    H123425   0.621   6.148   8.938 -0.9805  0.7696  1.1109
  622TIP3    H223426   0.700   6.021   8.964 -2.2787 -0.4762 -0.8098
  623TIP3   OH223427   3.040   2.310   0.037 -0.0202 -0.5673  0.1744
  623TIP3    H123428   3.110   2.357   0.081 -0.9696  0.6804  0.4156
  623TIP3    H223429   3.031   2.228   0.085  0.2968 -0.1035  1.0384
  624TIP3   OH223430   0.480   5.180   0.212  0.3007 -0.1883 -0.5900
  624TIP3    H123431   0.550   5.214   0.156  0.8204  1.5243  0.9831
  624TIP3    H223432   0.402   5.229   0.187  0.5313  0.5717  0.1163
  625TIP3   OH223433   3.829   3.494   1.711  0.0317  0.3631  0.1887
  625TIP3    H123434   3.857   3.572   1.760 -1.2320  1.1088 -0.1998
  625TIP3    H223435   3.822   3.425   1.777  2.9141  0.0376  0.2612
  626TIP3   OH223436   4.093   2.034   3.461 -0.2186  0.0743 -0.0409
  626TIP3    H123437   4.056   2.120   3.483  2.3587  0.6791  2.5369
  626TIP3    H223438   4.032   1.971   3.499  0.2249  0.9545  2.2769
  627TIP3   OH223439   5.385   2.350   2.596 -0.3387  0.0067 -0.1232
  627TIP3    H123440   5.418   2.436   2.573  0.4512 -0.4369 -0.7228
  627TIP3    H223441   5.413   2.293   2.523 -2.2705 -0.4442 -0.5710
  628TIP3   OH223442   4.830   3.757   1.524 -0.3057  0.0602 -0.1668
  628TIP3    H123443   4.834   3.776   1.618  0.3815 -0.0328 -0.1675
  628TIP3    H223444   4.915   3.786   1.490 -0.6214  0.2752 -0.7984
  629TIP3   OH223445   5.775   3.596   3.357  0.3764 -0.1530 -0.2678
  629TIP3    H123446   5.744   3.671   3.407  2.0661  0.2937  0.1502
  629TIP3    H223447   5.727   3.602   3.274 -2.4743 -0.9121  1.1873
  630TIP3   OH223448   1.731   3.233   1.388  0.5543  0.2624  0.2109
  630TIP3    H123449   1.661   3.289   1.352 -0.4475 -1.0755  0.0043
  630TIP3    H223450   1.783   3.208   1.312  1.5969  1.6400  0.4217
  631TIP3   OH223451   3.906   6.260   0.381 -0.1460 -0.0370  0.4018
  631TIP3    H123452   3.919   6.200   0.308  0.7036 -0.1200  0.6082
  631TIP3    H223453   3.851   6.330   0.346  0.4282  0.0341 -0.3867
  632TIP3   OH223454   4.048   5.342   1.875 -0.0092 -0.2571 -0.3542
  632TIP3    H123455   3.980   5.305   1.932  2.0460 -0.7892  1.9353
  632TIP3    H223456   4.033   5.436   1.877 -1.1783 -0.4308 -0.5876
  633TIP3   OH223457   5.645   1.512   2.389  0.2445  0.4944  0.0188
  633TIP3    H123458   5.690   1.587   2.350 -0.2630  0.2327 -1.1100
  633TIP3    H223459   5.608   1.465   2.314  0.2446 -0.6804  0.7336
  634TIP3   OH223460   0.547   2.541   0.580  0.4117 -0.0324  0.3671
  634TIP3    H123461   0.500   2.593   0.646 -0.9569 -0.0733 -0.5238
  634TIP3    H223462   0.594   2.606   0.528 -0.9858  0.3273 -0.5036
  635TIP3   OH223463   2.417   5.341   0.276  0.1285 -0.2407 -0.0830
  635TIP3    H123464   2.448   5.288   0.203  0.4352 -0.6639  0.3534
  635TIP3    H223465   2.467   5.311   0.352  0.3276  0.6936  0.1675
  636TIP3   OH223466   4.465   1.051   2.365  0.0019  0.2915  0.1304
  636TIP3    H123467   4.414   1.047   2.445 -0.7008 -1.2752 -0.3534
  636TIP3    H223468   4.430   0.980   2.311  2.8533 -1.0723 -0.1185
  637TIP3   OH223469   2.984   5.511   0.124 -0.5248  0.1068  0.1752
  637TIP3    H123470   2.991   5.582   0.187  1.1376  0.3854 -0.2953
  637TIP3    H223471   3.072   5.500   0.089 -0.6015 -2.5015  0.5773
  638TIP3   OH223472   3.565   4.030   3.046  0.1196  0.0076  0.1496
  638TIP3    H123473   3.615   4.001   3.122 -0.8723  0.2019  0.9023
  638TIP3    H223474   3.577   3.961   2.981  1.4467  0.1133  0.2599
  639TIP3   OH223475   2.187   6.510   8.696  0.1600 -0.8290  0.3197
  639TIP3    H123476   2.094   6.489   8.702  0.2112 -1.5276 -0.9828
  639TIP3    H223477   2.232   6.431   8.724  0.3812 -0.5204  0.8651
  640TIP3   OH223478   2.765   1.632   9.018 -0.0999  0.3059  0.7889
  640TIP3    H123479   2.855   1.623   9.051  0.2450 -1.1694 -0.3883
  640TIP3    H223480   2.716   1.669   9.090  1.8304  3.0419  0.8523
  641TIP3   OH223481   2.039   0.376   8.925 -0.3121  0.3168  0.9063
  641TIP3    H123482   2.090   0.330   8.991 -1.0306 -3.4192 -0.8516
  641TIP3    H223483   1.953   0.389   8.965 -0.7352 -1.8847  0.8604
  642TIP3   OH223484   5.360   5.373   0.076 -0.3336 -0.1494  0.3781
  642TIP3    H123485   5.455   5.362   0.078 -0.3030  0.0103 -0.2367
  642TIP3    H223486   5.333   5.333  -0.006 -0.8927 -0.9107  0.9188
  643TIP3   OH223487   0.256   1.745   2.113 -0.0476 -0.3974 -0.0789
  643TIP3    H123488   0.334   1.759   2.060  1.0086  0.5438  1.6449
  643TIP3    H223489   0.224   1.833   2.132 -0.1866 -0.7041  1.1426
  644TIP3   OH223490   0.648   6.546   0.315 -0.1008 -0.0785  0.0679
  644TIP3    H123491   0.735   6.545   0.275 -0.2375 -1.5181 -0.2302
  644TIP3    H223492   0.664   6.562   0.408  0.3452  1.3808 -0.2348
  645TIP3   OH223493   0.738   5.106   2.716  0.0949  0.3493  0.0861
  645TIP3    H123494   0.698   5.167   2.777  0.9824  0.9866  0.0518
  645TIP3    H223495   0.785   5.044   2.772  1.6775  1.4693  0.0776
  646TIP3   OH223496   4.181   0.593   0.639  0.5551 -0.1069 -0.1315
  646TIP3    H123497   4.174   0.643   0.559 -0.9969 -0.4568 -0.2522
  646TIP3    H223498   4.253   0.532   0.623  0.7672  0.3435 -0.9535
  647TIP3   OH223499   1.178   5.762   2.727 -0.0746  0.3804 -0.4756
  647TIP3    H123500   1.155   5.854   2.735  2.6440  1.0331  0.9524
  647TIP3    H223501   1.272   5.762   2.709  0.3483 -2.1280  1.2319
  648TIP3   OH223502   3.876   3.565   8.677  0.2319  0.0409 -0.1845
  648TIP3    H123503   3.803   3.627   8.678 -0.6633 -0.9762  1.0163
  648TIP3    H223504   3.867   3.518   8.595  0.4850  0.9726 -0.7635
  649TIP3   OH223505   2.768   5.612   1.356 -0.3078  0.4014  0.4210
  649TIP3    H123506   2.761   5.521   1.386 -0.7761  0.3890  0.2841
  649TIP3    H223507   2.690   5.654   1.391  0.4048  0.9977  1.3318
  650TIP3   OH223508   1.076   1.989   1.700  1.0535  0.0878  0.0256
  650TIP3    H123509   1.057   1.930   1.773 -1.2806  2.5402  1.5998
  650TIP3    H223510   1.018   1.959   1.630  0.9411 -0.3621  0.3086
  651TIP3   OH223511   0.290   3.354   0.859 -0.2664  0.0304  0.1459
  651TIP3    H123512   0.233   3.338   0.934 -0.3146  2.1500  0.6196
  651TIP3    H223513   0.363   3.404   0.894  0.5044 -0.2795 -0.9646
  652TIP3   OH223514   3.980   1.562   2.843  0.3128 -0.3677 -0.2076
  652TIP3    H123515   3.950   1.534   2.929  0.3683 -1.0052 -0.3943
  652TIP3    H223516   3.972   1.485   2.788  1.2113 -0.2403 -0.5384
  653TIP3   OH223517   5.935   2.225   0.947  0.3820 -0.2434 -0.3675
  653TIP3    H123518   6.000   2.171   0.993  0.8526  1.5018  1.1535
  653TIP3    H223519   5.852   2.181   0.964  0.9831 -1.7809 -1.2177
  654TIP3   OH223520   5.229   0.534   0.220  0.1713 -0.0011  0.1976
  654TIP3    H123521   5.243   0.623   0.251 -0.6978  0.2412 -0.0788
  654TIP3    H223522   5.156   0.541   0.159 -0.2110 -0.9682  0.5198
  655TIP3   OH223523   3.765   2.978   1.474  0.2361  0.9680  0.3987
  655TIP3    H123524   3.675   2.990   1.443  0.4931  2.3253  0.1290
  655TIP3    H223525   3.803   2.915   1.413 -0.7780 -0.3143  1.0466
  656TIP3   OH223526   1.597   3.825   0.546 -0.3475 -0.4473 -0.4295
  656TIP3    H123527   1.567   3.859   0.461  0.1610 -0.7994 -0.7517
  656TIP3    H223528   1.528   3.764   0.573  0.1239 -1.3618 -1.2346
  657TIP3   OH223529   3.493   4.050   2.644 -0.4429  0.6385 -0.2127
  657TIP3    H123530   3.398   4.038   2.646 -0.5292  1.1183 -0.8920
  657TIP3    H223531   3.518   4.028   2.554  0.3833 -1.4655  0.4771
  658TIP3   OH223532   4.687   0.977   7.807  0.1911  0.0893 -0.3070
  658TIP3    H123533   4.601   1.016   7.824 -0.0062 -0.1138 -0.8133
  658TIP3    H223534   4.677   0.934   7.722  0.5134 -0.7711  0.0864
  659TIP3   OH223535   6.179   3.475   8.942  0.1879  0.0660 -0.1218
  659TIP3    H123536   6.197   3.395   8.892 -1.1926 -0.4447  0.1709
  659TIP3    H223537   6.149   3.444   9.027 -0.6391  0.8956 -0.1009
  660TIP3   OH223538   5.802   3.668   1.873  0.0869  0.5715 -0.1107
  660TIP3    H123539   5.753   3.749   1.862 -1.7022 -0.0648  2.3706
  660TIP3    H223540   5.748   3.601   1.831  1.0452  0.4706 -1.2321
  661TIP3   OH223541   5.724   1.214   3.168  0.3080  0.0309 -0.1817
  661TIP3    H123542   5.691   1.300   3.142 -0.4812 -0.2636 -0.1867
  661TIP3    H223543   5.742   1.223   3.262 -2.8416 -0.6643  0.6102
  662TIP3   OH223544   0.885   4.209   7.431  0.2724  0.4097  0.2874
  662TIP3    H123545   0.791   4.207   7.412  0.2269  1.3301  0.3382
  662TIP3    H223546   0.922   4.137   7.380 -0.1713  1.3450 -1.4341
  663TIP3   OH223547   2.876   3.168   2.586  0.2488  0.2504 -0.4585
  663TIP3    H123548   2.921   3.089   2.554 -0.0657 -0.7809  1.5305
  663TIP3    H223549   2.839   3.207   2.507  2.4151 -0.2639 -1.8328
  664TIP3   OH223550   1.450   4.290   1.814 -0.0585  0.5139 -0.8282
  664TIP3    H123551   1.542   4.311   1.831  0.2616  0.2322 -2.0803
  664TIP3    H223552   1.404   4.373   1.829  0.7175  1.2554 -2.3048
  665TIP3   OH223553   2.015   6.547   1.905 -0.0086 -0.0419 -0.0051
  665TIP3    H123554   2.000   6.639   1.927 -0.5128 -0.1107 -0.0525
  665TIP3    H223555   2.092   6.548   1.849 -0.1239  0.3699 -0.1559
  666TIP3   OH223556   4.805   0.581   7.521  0.2388  0.7740 -0.4138
  666TIP3    H123557   4.816   0.510   7.583  1.8157  1.8744  0.6437
  666TIP3    H223558   4.721   0.620   7.543  0.3970  0.6232  0.4640
  667TIP3   OH223559   5.334   4.826   1.622 -0.0403  0.0966  0.0276
  667TIP3    H123560   5.308   4.824   1.530  1.1838  1.3882 -0.3991
  667TIP3    H223561   5.421   4.785   1.623  0.4065  1.0190  0.4046
  668TIP3   OH223562   6.436   1.531   1.789  0.7225 -0.0495  0.2728
  668TIP3    H123563   6.390   1.451   1.762 -0.4434  1.1446 -1.4545
  668TIP3    H223564   6.398   1.553   1.874 -1.0689  0.2376 -0.5636
  669TIP3   OH223565   0.401   1.246   0.876 -0.8167  0.3990  0.0722
  669TIP3    H123566   0.395   1.177   0.942  0.1088  0.5262  0.2999
  669TIP3    H223567   0.395   1.200   0.792  1.4058 -0.1995  0.1738
  670TIP3   OH223568   4.946   2.284   0.462  0.2183 -0.5592 -0.0854
  670TIP3    H123569   4.923   2.220   0.395  2.7909 -1.1463 -0.4887
  670TIP3    H223570   5.011   2.340   0.422 -1.1831  1.7199  0.6292
  671TIP3   OH223571   3.077   2.834   8.409 -0.2325  0.4807 -0.1569
  671TIP3    H123572   3.073   2.927   8.434 -1.2974  0.8485 -1.5277
  671TIP3    H223573   3.115   2.835   8.321  1.0001 -0.5230  0.3407
  672TIP3   OH223574   4.655   5.737   8.466  0.5757  0.4597 -0.0613
  672TIP3    H123575   4.595   5.664   8.447  0.8086 -0.0951  1.2361
  672TIP3    H223576   4.738   5.710   8.428  0.0927  1.1342 -1.6760
  673TIP3   OH223577   5.366   4.213   7.931 -0.0293 -0.2557 -0.3994
  673TIP3    H123578   5.450   4.183   7.894  0.4294  0.2791  0.1922
  673TIP3    H223579   5.380   4.305   7.950 -0.4742 -0.3657  0.5036
  674TIP3   OH223580   3.660   0.446   0.145 -0.0361  0.1832 -0.8708
  674TIP3    H123581   3.742   0.416   0.185  0.8539  2.0261 -1.2027
  674TIP3    H223582   3.593   0.387   0.180  1.1923 -0.3409  0.7138
  675TIP3   OH223583   4.087   0.107   1.286  0.1679 -0.3616  0.3692
  675TIP3    H123584   4.176   0.141   1.293  0.3958 -0.9919  0.6130
  675TIP3    H223585   4.035   0.181   1.255  0.7574  0.0391  0.3274
  676TIP3   OH223586   4.851   1.064   0.859  0.2342 -0.6777 -0.3450
  676TIP3    H123587   4.869   1.158   0.856  1.3199 -0.8556  0.0911
  676TIP3    H223588   4.814   1.044   0.773  2.0325 -0.2347 -1.2623
  677TIP3   OH223589   1.367   2.802   0.978  0.1716  0.0931  0.0677
  677TIP3    H123590   1.402   2.736   1.037  1.8894 -0.0707 -1.0676
  677TIP3    H223591   1.434   2.813   0.911 -0.1785  2.7543  0.0234
  678TIP3   OH223592   1.959   2.616   8.493 -0.1742 -0.0734  0.0420
  678TIP3    H123593   1.877   2.595   8.447 -0.4958 -0.2156  0.6692
  678TIP3    H223594   1.936   2.689   8.550  0.3270  0.3712 -0.3252
  679TIP3   OH223595   2.041   1.809   0.212 -0.4709  0.1661 -0.0033
  679TIP3    H123596   2.108   1.826   0.147 -0.7269  0.3328 -0.2232
  679TIP3    H223597   1.960   1.840   0.173 -0.4925  1.1203  0.7551
  680TIP3   OH223598   3.335   4.532   2.199  0.1942 -0.1864  0.6449
  680TIP3    H123599   3.404   4.501   2.140 -0.6107 -0.3288 -0.2432
  680TIP3    H223600   3.287   4.453   2.223  0.5927 -0.1498  1.6277
  681TIP3   OH223601   2.683   1.542   1.345  0.2572  0.3092  0.1676
  681TIP3    H123602   2.678   1.604   1.418  1.5408  1.0306 -0.3229
  681TIP3    H223603   2.696   1.597   1.268 -3.3884 -0.2512 -1.0228
  682TIP3   OH223604   2.907   2.626   0.442 -0.3091 -0.3048 -0.6880
  682TIP3    H123605   2.968   2.601   0.512 -1.0406 -0.7734 -0.2057
  682TIP3    H223606   2.924   2.564   0.371  0.0321 -0.1957 -0.7026
  683TIP3   OH223607   4.858   5.174   0.214 -0.4054 -0.3211 -0.1480
  683TIP3    H123608   4.864   5.100   0.275  0.5893 -0.2937 -0.1921
  683TIP3    H223609   4.914   5.149   0.141  1.5038  1.2706  0.6883
  684TIP3   OH223610   1.190   2.677   0.448 -0.0317 -0.3780  0.6473
  684TIP3    H123611   1.118   2.613   0.451  0.6222 -1.2960 -1.3507
  684TIP3    H223612   1.269   2.623   0.440  0.9111  0.6218  2.6223
  685TIP3   OH223613   4.591   2.387   8.888 -0.1370 -0.1595 -0.0617
  685TIP3    H123614   4.652   2.437   8.942 -0.1209  0.9574 -1.0812
  685TIP3    H223615   4.645   2.320   8.847  0.2327  0.2305 -0.2244
  686TIP3   OH223616   2.508   5.656   7.808 -0.4499 -0.5750 -0.1577
  686TIP3    H123617   2.420   5.629   7.782 -0.4792 -0.8678  0.2358
  686TIP3    H223618   2.552   5.574   7.833  0.8312 -0.8596 -2.8931
  687TIP3   OH223619   3.986   5.903   1.925  0.5238 -0.4273  0.3434
  687TIP3    H123620   3.956   5.818   1.892  0.8940 -0.0162 -1.1144
  687TIP3    H223621   4.076   5.887   1.953  0.5861 -0.5214  0.0928
  688TIP3   OH223622   5.674   2.560   2.800  0.0203 -0.7406  0.1577
  688TIP3    H123623   5.622   2.487   2.834 -0.7891 -0.2187  0.0694
  688TIP3    H223624   5.716   2.525   2.721  1.1274 -1.6611  1.1230
  689TIP3   OH223625   1.012   1.820   1.906 -0.2440  0.0296  0.5871
  689TIP3    H123626   0.964   1.744   1.938 -0.0154  0.2592  1.4832
  689TIP3    H223627   1.102   1.807   1.938  0.6022 -0.9283 -1.9140
  690TIP3   OH223628   4.356   2.551   2.913 -0.1050 -0.2656  0.4083
  690TIP3    H123629   4.403   2.470   2.892 -1.5406 -1.1293  0.3362
  690TIP3    H223630   4.320   2.535   3.001 -0.6203  0.1833  0.2855
  691TIP3   OH223631   1.385   0.202   1.161  1.0341 -0.1793  0.8704
  691TIP3    H123632   1.441   0.224   1.087  2.1164  1.1789  2.0234
  691TIP3    H223633   1.312   0.153   1.123  1.6864  0.2525 -1.0324
  692TIP3   OH223634   5.816   6.584   8.832  0.2665 -0.3975 -0.4002
  692TIP3    H123635   5.888   6.640   8.804 -0.5527  0.3487 -1.0684
  692TIP3    H223636   5.796   6.612   8.921  1.7712 -1.6411  0.3877
  693TIP3   OH223637   2.550   4.627   8.705 -0.2562 -0.1349 -0.0964
  693TIP3    H123638   2.587   4.649   8.620  0.3721 -2.1094 -0.3864
  693TIP3    H223639   2.464   4.590   8.684 -0.5822  0.4500  0.2186
  694TIP3   OH223640   0.909   2.249   7.716 -0.2681  0.4409 -0.0424
  694TIP3    H123641   0.924   2.331   7.669  1.1593  0.6079  0.6363
  694TIP3    H223642   0.936   2.181   7.654 -2.4054  0.3686 -0.9848
  695TIP3   OH223643   4.584   3.939   2.933  0.5021 -0.1669 -0.1431
  695TIP3    H123644   4.558   3.891   3.012 -0.9716 -0.3423 -0.7012
  695TIP3    H223645   4.577   4.032   2.958 -1.5957 -0.1764 -0.4976
  696TIP3   OH223646   0.735   0.698   3.455  0.2422 -0.0852 -0.0500
  696TIP3    H123647   0.694   0.700   3.542  1.6560  0.2964  0.6343
  696TIP3    H223648   0.662   0.686   3.395 -0.7385 -0.7525  1.2139
  697TIP3   OH223649   5.911   6.709   2.834 -0.9140  0.5091  0.2952
  697TIP3    H123650   5.953   6.692   2.919 -0.7625 -2.2943 -0.2245
  697TIP3    H223651   5.830   6.658   2.837 -0.9191  0.3794 -1.2040
  698TIP3   OH223652   1.993   5.771   0.827 -0.6782  0.1440 -0.6774
  698TIP3    H123653   1.995   5.853   0.877  1.1916 -0.8691  1.1096
  698TIP3    H223654   2.065   5.779   0.764 -0.9548  0.1585 -0.9919
  699TIP3   OH223655   4.973   5.939   2.148 -0.3073 -0.2676 -0.7346
  699TIP3    H123656   5.063   5.930   2.179 -0.4785 -1.7980 -0.5859
  699TIP3    H223657   4.921   5.949   2.228 -0.2695  0.7990 -0.8290
  700TIP3   OH223658   4.995   4.878   1.719 -0.0340  0.2152 -0.4480
  700TIP3    H123659   5.063   4.928   1.765  0.5066  0.4948 -1.5163
  700TIP3    H223660   4.923   4.874   1.781 -0.0189  2.1557 -0.2324
  701TIP3   OH223661   2.962   3.588   1.878 -0.3499  0.1570  0.5590
  701TIP3    H123662   2.971   3.527   1.804 -0.3642  1.2743 -0.3928
  701TIP3    H223663   3.045   3.584   1.924 -0.3113 -0.4955  0.4360
  702TIP3   OH223664   3.894   5.522   0.472  1.0893  0.1054  0.0255
  702TIP3    H123665   3.943   5.599   0.501 -0.7526  1.0574  0.7815
  702TIP3    H223666   3.947   5.486   0.400  1.9173  2.2005 -0.5027
  703TIP3   OH223667   4.460   2.791   2.850  0.2236  0.3205  0.4558
  703TIP3    H123668   4.412   2.710   2.870  2.3849 -2.3333 -3.6051
  703TIP3    H223669   4.550   2.771   2.873  0.5454  2.4746  1.2637
  704TIP3   OH223670   0.172   2.940   1.647 -0.0850  0.0304  0.0511
  704TIP3    H123671   0.244   2.890   1.683 -0.2849  0.4799  1.1173
  704TIP3    H223672   0.142   2.889   1.572  2.6163  0.8096 -1.6947
  705TIP3   OH223673   3.146   6.276   0.383 -0.1911 -0.2939 -0.1192
  705TIP3    H123674   3.175   6.223   0.457  0.2006  0.3985  0.2364
  705TIP3    H223675   3.183   6.363   0.400  0.5498 -0.2996 -1.5007
  706TIP3   OH223676   1.585   4.767   1.657  0.1225  0.0135 -0.5239
  706TIP3    H123677   1.627   4.849   1.683  0.7660 -0.4243 -0.1512
  706TIP3    H223678   1.493   4.779   1.678  0.3680  0.2825  0.4568
  707TIP3   OH223679   0.702   6.688   8.529 -0.4105  0.3567 -0.2873
  707TIP3    H123680   0.741   6.607   8.497  0.9882  1.4812 -1.6267
  707TIP3    H223681   0.619   6.662   8.568  0.2853 -1.7666 -0.1281
  708TIP3   OH223682   2.818   3.433   7.949 -0.3000  0.2856 -0.2974
  708TIP3    H123683   2.860   3.349   7.970 -1.4608 -0.2472 -0.0113
  708TIP3    H223684   2.782   3.420   7.861  0.0431  0.6984 -0.4996
  709TIP3   OH223685   0.003   4.897   0.032 -0.0613  0.0049  0.3249
  709TIP3    H123686   0.010   4.973   0.090  1.8348  0.9387 -1.0524
  709TIP3    H223687  -0.019   4.825   0.091 -0.1159  1.2662  1.9167
  710TIP3   OH223688   1.425   0.972   0.386  0.0856  0.1259  0.3873
  710TIP3    H123689   1.401   1.024   0.310  2.4083 -0.2943 -0.6996
  710TIP3    H223690   1.373   0.892   0.378 -0.8814  0.7606  0.1608
  711TIP3   OH223691   5.208   5.854   8.786 -0.7094 -0.6161  0.5427
  711TIP3    H123692   5.257   5.774   8.807 -0.8311 -0.4609  1.4486
  711TIP3    H223693   5.166   5.879   8.868 -2.3022 -0.7170 -0.1973
  712TIP3   OH223694   2.311   2.121   2.425  0.1259 -0.0953  0.3318
  712TIP3    H123695   2.249   2.192   2.444 -1.5517 -1.1545 -0.9245
  712TIP3    H223696   2.324   2.078   2.509  0.6522  1.2596  0.9861
  713TIP3   OH223697   1.960   5.845   8.742 -0.0664  0.3876  0.1654
  713TIP3    H123698   2.046   5.853   8.702  0.3221  1.1527  1.1016
  713TIP3    H223699   1.943   5.931   8.781 -1.5814  0.4893 -0.6118
  714TIP3   OH223700   2.593   6.105   8.827  0.7290 -0.2382 -0.0283
  714TIP3    H123701   2.561   6.015   8.819  0.4038 -0.1752  0.5087
  714TIP3    H223702   2.630   6.110   8.915  0.0737  0.3560  0.2277
  715TIP3   OH223703   5.015   4.535   1.193 -0.1161  0.2639  0.6667
  715TIP3    H123704   4.993   4.554   1.284  1.3581 -0.7678  1.2838
  715TIP3    H223705   5.015   4.440   1.187 -1.3682  0.3062 -0.7625
  716TIP3   OH223706   0.245   6.583   7.578  0.6376  0.1213 -0.3147
  716TIP3    H123707   0.249   6.635   7.498  0.2385 -1.2766 -1.2951
  716TIP3    H223708   0.248   6.492   7.547 -3.4095 -0.6365  0.9168
  717TIP3   OH223709   6.178   3.914   7.942  0.3259 -0.1824  0.7450
  717TIP3    H123710   6.213   3.988   7.892  3.5179 -0.7311  2.0007
  717TIP3    H223711   6.226   3.838   7.910 -0.4529 -1.1859  1.8612
  718TIP3   OH223712   3.968   2.658   2.855  0.4165  0.2832  0.2744
  718TIP3    H123713   4.016   2.658   2.772  0.4360 -0.9102  0.2637
  718TIP3    H223714   4.033   2.688   2.919  0.3387  1.4148 -0.1634
  719TIP3   OH223715   1.667   1.174   0.791  0.1644  0.7233  0.6391
  719TIP3    H123716   1.646   1.138   0.704  2.6436  0.3822  0.1013
  719TIP3    H223717   1.607   1.247   0.802 -0.3220  0.6693 -1.3070
  720TIP3   OH223718   2.425   6.661   7.592 -0.1849  0.3080 -0.2617
  720TIP3    H123719   2.399   6.656   7.684 -0.2898  1.1827 -0.2339
  720TIP3    H223720   2.378   6.590   7.550 -0.0255 -0.1894  0.3868
  721TIP3   OH223721   2.218   0.581   2.797  0.6771  0.1488  0.0749
  721TIP3    H123722   2.134   0.579   2.842  0.8656 -1.4046  0.4103
  721TIP3    H223723   2.209   0.516   2.727  1.3008  0.6174 -0.4544
  722TIP3   OH223724   0.726   5.743   0.364  0.6965 -0.1807  0.1817
  722TIP3    H123725   0.814   5.750   0.328  0.7443  0.7085  0.4413
  722TIP3    H223726   0.682   5.824   0.337  0.2187 -0.2495  0.7257
  723TIP3   OH223727   6.552   5.402   8.853  0.1285  1.2942  0.0130
  723TIP3    H123728   6.564   5.324   8.798  0.9592  0.4761  1.2960
  723TIP3    H223729   6.463   5.430   8.834 -0.3131 -0.1714 -0.2459
  724TIP3   OH223730   3.243   5.778   0.547 -0.3280 -0.1091 -0.1770
  724TIP3    H123731   3.226   5.837   0.474 -0.7981 -0.5613 -0.4453
  724TIP3    H223732   3.314   5.721   0.517  0.7078  0.8466  0.3982
  725TIP3   OH223733   5.445   1.630   8.475 -0.2673 -0.0381 -0.4296
  725TIP3    H123734   5.389   1.583   8.413  0.6446 -1.4116 -0.2697
  725TIP3    H223735   5.469   1.564   8.540 -0.8494  1.2695  1.1555
  726TIP3   OH223736   1.352   1.741   0.224 -0.2414  0.0735 -0.3746
  726TIP3    H123737   1.363   1.651   0.254 -0.9616  0.0595 -0.1478
  726TIP3    H223738   1.382   1.739   0.133 -0.1298 -0.3645 -0.3302
  727TIP3   OH223739   0.810   0.404   8.663  0.2257 -0.7464  0.1936
  727TIP3    H123740   0.834   0.339   8.729 -0.2555 -1.1580 -0.0319
  727TIP3    H223741   0.807   0.355   8.581  2.0218 -0.0071 -0.3750
  728TIP3   OH223742   0.353   6.516   2.765  0.3748  0.1336  0.5080
  728TIP3    H123743   0.342   6.594   2.710 -1.7516  0.9032  1.8857
  728TIP3    H223744   0.366   6.551   2.853 -0.9194 -1.0632  1.2031
  729TIP3   OH223745   5.388   2.381   0.025  0.5961 -0.0257 -0.1801
  729TIP3    H123746   5.418   2.366   0.115 -0.1106  0.5907  0.1695
  729TIP3    H223747   5.346   2.466   0.028  0.5378 -0.0173 -1.0979
  730TIP3   OH223748   0.082   3.006   9.017 -0.5434 -0.0680 -0.1821
  730TIP3    H123749   0.004   3.062   9.016  0.3227  1.4154  2.8379
  730TIP3    H223750   0.070   2.949   9.092  1.8053  1.1545  1.2369
  731TIP3   OH223751   0.171   0.696   0.145 -0.1559 -0.2680  0.2815
  731TIP3    H123752   0.244   0.759   0.140 -1.2101  0.9570 -0.1054
  731TIP3    H223753   0.169   0.655   0.058 -1.9697  2.1223 -0.9270
  732TIP3   OH223754   5.287   0.318   8.019  0.0174  0.0729 -0.5604
  732TIP3    H123755   5.252   0.329   7.931  0.6243 -0.1547 -0.8315
  732TIP3    H223756   5.280   0.224   8.036 -2.0750  0.3332  0.4745
  733TIP3   OH223757   5.718   3.233   8.384  0.3061 -0.3094  0.8528
  733TIP3    H123758   5.695   3.227   8.291 -1.2146 -2.5918  1.2950
  733TIP3    H223759   5.722   3.327   8.402 -1.4491  0.2020 -1.0316
  734TIP3   OH223760   4.082   0.959   0.059 -0.1657  0.1857 -0.2905
  734TIP3    H123761   4.176   0.960   0.079 -0.4928 -1.2481  1.5432
  734TIP3    H223762   4.075   0.903  -0.018  0.4377 -0.0167 -0.2023
  735TIP3   OH223763   0.035   1.158   0.273 -0.8631  1.0069  0.3726
  735TIP3    H123764   0.097   1.107   0.222 -1.1993  0.6126  0.3583
  735TIP3    H223765   0.032   1.243   0.229  1.2840  1.7821  1.6109
  736TIP3   OH223766   4.936   3.507   8.799 -0.0201 -0.3467  0.0126
  736TIP3    H123767   5.020   3.481   8.838  0.3471 -1.9324 -1.7120
  736TIP3    H223768   4.955   3.519   8.706 -1.4476  0.5966 -0.1857
  737TIP3   OH223769   5.056   0.449   0.562  0.8561 -0.4412  0.1019
  737TIP3    H123770   5.053   0.533   0.517 -1.1188  0.1398  1.1712
  737TIP3    H223771   5.037   0.384   0.494 -2.2915  0.4271 -0.0165
  738TIP3   OH223772   1.290   1.644   8.565 -0.0392 -0.2020 -0.0554
  738TIP3    H123773   1.217   1.604   8.518  0.0329  0.9271 -1.1947
  738TIP3    H223774   1.257   1.655   8.654  0.1945 -3.3480  0.5303
  739TIP3   OH223775   1.750   5.081   3.722 -0.2492  0.0599 -0.1424
  739TIP3    H123776   1.829   5.074   3.669 -0.2484  1.8779 -0.4475
  739TIP3    H223777   1.758   5.165   3.767 -2.2150  0.5588 -0.6025
  740TIP3   OH223778   0.251   0.892   3.376 -0.4033  0.2450 -1.1569
  740TIP3    H123779   0.326   0.845   3.412 -1.1145 -1.4112 -1.7204
  740TIP3    H223780   0.223   0.952   3.445 -2.2042 -3.3257  1.5383
  741TIP3   OH223781   1.941   0.342   1.706  0.2081 -0.2109  0.0996
  741TIP3    H123782   1.962   0.434   1.721 -1.8272  0.3401 -0.2009
  741TIP3    H223783   1.961   0.327   1.614  1.1534 -0.2908  0.2974
  742TIP3   OH223784   3.494   6.028   0.861 -0.4579  0.5960  0.1069
  742TIP3    H123785   3.500   5.975   0.781 -0.3808  1.9092 -0.7917
  742TIP3    H223786   3.584   6.056   0.877 -0.6003  1.0315  0.1578
  743TIP3   OH223787   1.654   4.234   2.607  0.1304 -0.5221  0.2407
  743TIP3    H123788   1.585   4.240   2.541 -0.2640 -0.5657  0.6507
  743TIP3    H223789   1.735   4.227   2.556 -0.1026  0.1973 -0.2439
  744TIP3   OH223790   1.022   4.303   2.112  0.1045 -0.3018  0.2622
  744TIP3    H123791   1.041   4.300   2.018 -0.4718  0.1061  0.1295
  744TIP3    H223792   1.068   4.227   2.148  0.2915 -0.4869 -0.3553
  745TIP3   OH223793   1.805   0.165   8.120 -0.5252 -0.5542  0.2541
  745TIP3    H123794   1.893   0.130   8.103 -0.8657 -0.9794 -0.7177
  745TIP3    H223795   1.777   0.121   8.200  0.0992 -0.5147  0.4975
  746TIP3   OH223796   2.303   0.705   1.215 -0.0686 -0.6930 -0.3654
  746TIP3    H123797   2.349   0.699   1.299  2.7067  0.8912 -1.6588
  746TIP3    H223798   2.256   0.789   1.219 -0.4792 -0.9254 -0.1842
  747TIP3   OH223799   1.745   0.766   0.544 -0.0114  0.8420 -0.1970
  747TIP3    H123800   1.779   0.701   0.483 -1.5470  0.1607 -0.3863
  747TIP3    H223801   1.813   0.833   0.550  1.1561 -0.2577 -0.8184
  748TIP3   OH223802   2.937   1.404   8.605 -0.2062 -0.0755 -0.3199
  748TIP3    H123803   2.964   1.357   8.685  0.4782  1.4084  0.3525
  748TIP3    H223804   2.880   1.342   8.559 -0.4161 -1.0562  1.1940
  749TIP3   OH223805   4.435   6.105   1.861 -0.2584 -0.3777  0.2421
  749TIP3    H123806   4.410   6.189   1.822 -0.3311  0.3151  1.7426
  749TIP3    H223807   4.527   6.095   1.837 -0.0721  0.4467  0.5846
  750TIP3   OH223808   0.330   3.371   1.635  0.1945  0.1740 -0.1413
  750TIP3    H123809   0.387   3.298   1.658  1.0209  1.0560  0.7747
  750TIP3    H223810   0.241   3.337   1.644  0.5369 -0.3947  1.4741
  751TIP3   OH223811   5.636   2.417   1.476 -0.2695 -0.2584  0.2907
  751TIP3    H123812   5.730   2.405   1.485 -0.3852 -1.6232 -0.0465
  751TIP3    H223813   5.607   2.445   1.562  0.1788 -1.8929  1.0093
  752TIP3   OH223814   2.786   3.075   1.474 -0.3318  0.0372  0.5326
  752TIP3    H123815   2.744   3.107   1.394  0.5427 -0.6066 -0.2147
  752TIP3    H223816   2.753   3.132   1.544 -2.2716 -0.3297 -0.0325
  753TIP3   OH223817   0.978   0.552   2.045  0.1897 -0.5368  0.1930
  753TIP3    H123818   0.896   0.507   2.024  0.3128 -1.1439  0.9811
  753TIP3    H223819   0.996   0.530   2.136 -0.0206  1.5616  0.8006
  754TIP3   OH223820   6.158   0.910   1.587 -0.6040 -0.1415  0.5423
  754TIP3    H123821   6.091   0.873   1.645 -0.1677  0.4967  1.4782
  754TIP3    H223822   6.224   0.841   1.579 -1.1070 -0.5787  0.0345
  755TIP3   OH223823   6.270   6.578   7.967 -0.7298 -0.6385  0.1569
  755TIP3    H123824   6.236   6.508   8.024  0.5244 -2.0085 -0.7259
  755TIP3    H223825   6.252   6.547   7.878  0.1443  0.0067 -0.2546
  756TIP3   OH223826   2.496   4.583   3.012 -0.2547 -0.2335 -0.7001
  756TIP3    H123827   2.478   4.657   2.954  0.0712 -0.7602 -1.4769
  756TIP3    H223828   2.474   4.505   2.960  0.5949 -0.7322 -0.3300
  757TIP3   OH223829   2.536   4.086   8.833 -0.3417 -0.6469  0.1930
  757TIP3    H123830   2.545   4.061   8.741  1.8733 -0.7535  0.4058
  757TIP3    H223831   2.538   4.004   8.881 -2.9203 -0.7167  0.3159
  758TIP3   OH223832   6.691   4.990   1.018 -0.4794  0.4483  0.5245
  758TIP3    H123833   6.717   5.064   1.073 -0.6599  2.6274 -2.1053
  758TIP3    H223834   6.773   4.956   0.982 -0.4342 -0.4111  1.3900
  759TIP3   OH223835   4.217   6.557   1.937  0.4199 -0.6131  0.6689
  759TIP3    H123836   4.166   6.637   1.929  1.3682 -0.1612 -1.7808
  759TIP3    H223837   4.175   6.508   2.008 -1.3209  1.1976  0.9584
  760TIP3   OH223838   2.225   4.117   8.689 -0.0654 -0.1672  0.1434
  760TIP3    H123839   2.172   4.153   8.618 -1.1116 -1.3830  0.2771
  760TIP3    H223840   2.256   4.194   8.737  0.3175  0.6679 -1.3633
  761TIP3   OH223841   3.147   4.626   8.213 -0.0269  0.1012  0.1305
  761TIP3    H123842   3.235   4.595   8.190  0.4475  1.3412  0.2158
  761TIP3    H223843   3.111   4.658   8.130  0.2287  1.0708  0.3824
  762TIP3   OH223844   1.558   2.236   1.057  0.2658  0.3728 -0.2803
  762TIP3    H123845   1.591   2.314   1.101  2.2150 -0.4456 -0.2036
  762TIP3    H223846   1.475   2.216   1.101  0.3237  1.6903  0.4765
  763TIP3   OH223847   0.942   0.525   2.880  0.3007 -0.0631  0.3466
  763TIP3    H123848   1.028   0.513   2.840 -0.5933 -1.8125 -1.2095
  763TIP3    H223849   0.900   0.439   2.874 -1.2789  0.5461  1.7787
  764TIP3   OH223850   4.205   4.571   2.121  0.1929 -0.0622 -0.0477
  764TIP3    H123851   4.281   4.531   2.163  0.1689  0.0725  0.1243
  764TIP3    H223852   4.190   4.651   2.170  1.5527  1.2834 -1.6870
  765TIP3   OH223853   6.655   2.375   0.849 -0.1884 -0.0338 -0.0233
  765TIP3    H123854   6.623   2.465   0.860 -0.0231  0.0167  0.0423
  765TIP3    H223855   6.688   2.350   0.935 -1.0334 -0.4681  0.1877
  766TIP3   OH223856   6.365   4.825   2.041  0.4887  0.1197  0.2828
  766TIP3    H123857   6.419   4.874   1.979 -1.7300  0.3791 -1.5717
  766TIP3    H223858   6.394   4.857   2.127  0.4143  3.4126 -0.7608
  767TIP3   OH223859   0.672   0.020   1.411 -0.9155 -0.2425  0.6837
  767TIP3    H123860   0.677   0.115   1.420  1.5808 -0.1281 -0.8385
  767TIP3    H223861   0.625   0.006   1.329  0.8460 -0.1518 -0.3996
  768TIP3   OH223862   4.296   1.408   2.528 -0.6529  0.8141  0.0694
  768TIP3    H123863   4.280   1.314   2.541  0.2481  0.6018 -0.3349
  768TIP3    H223864   4.239   1.431   2.455  0.1753  0.2592 -0.7710
  769TIP3   OH223865   1.022   0.699   1.038 -0.1036 -0.5773 -0.0581
  769TIP3    H123866   1.069   0.781   1.025  0.3981 -0.9180 -0.4213
  769TIP3    H223867   1.029   0.681   1.131 -2.0550  0.8883  0.4278
  770TIP3   OH223868   2.481   2.817   8.421 -0.1117 -0.0646 -0.1016
  770TIP3    H123869   2.470   2.728   8.454 -0.8624  0.5998  1.5362
  770TIP3    H223870   2.575   2.826   8.405  0.2502 -0.5375  1.5980
  771TIP3   OH223871   5.259   4.700   1.098 -0.1133 -0.8353 -0.0064
  771TIP3    H123872   5.352   4.688   1.083 -0.2336 -0.9395 -0.6726
  771TIP3    H223873   5.250   4.704   1.194  0.6912  0.1327  0.0401
  772TIP3   OH223874   3.467   2.528   8.960 -0.4965 -0.1617  0.0351
  772TIP3    H123875   3.555   2.535   8.996 -1.0597  2.6374  1.0809
  772TIP3    H223876   3.449   2.614   8.922 -3.2238 -0.2156  0.9786
  773TIP3   OH223877   3.910   0.986   0.620 -0.0433  0.1330 -0.1046
  773TIP3    H123878   3.859   1.062   0.648 -0.8816 -0.0749 -0.9966
  773TIP3    H223879   3.986   1.025   0.575 -0.9118  0.4913 -1.3452
  774TIP3   OH223880   4.921   1.094   1.679 -0.5537 -0.0380 -0.1250
  774TIP3    H123881   4.883   1.176   1.645 -0.1921 -0.2153 -0.9823
  774TIP3    H223882   4.979   1.122   1.750 -0.5399  0.4361 -0.3187
  775TIP3   OH223883   3.130   1.290   2.546 -0.1387  0.0231  0.0541
  775TIP3    H123884   3.107   1.382   2.564 -0.7181 -0.0213 -0.4307
  775TIP3    H223885   3.052   1.254   2.505 -0.2612 -0.9563  1.1177
  776TIP3   OH223886   1.996   3.759   2.679 -0.2605  0.2620  0.0685
  776TIP3    H123887   1.989   3.773   2.773 -0.6538  0.5395  0.0028
  776TIP3    H223888   2.077   3.803   2.654  0.4654 -0.8151  0.4532
  777TIP3   OH223889   4.817   4.475   1.427  1.0060 -0.2603 -0.4020
  777TIP3    H123890   4.798   4.569   1.432  1.4150  0.0066 -2.7410
  777TIP3    H223891   4.878   4.459   1.499 -0.3470  0.8849  1.0796
  778TIP3   OH223892   2.268   6.564   1.839 -0.0040 -0.3037 -0.1990
  778TIP3    H123893   2.333   6.535   1.903  0.6143  1.0013 -0.1968
  778TIP3    H223894   2.313   6.633   1.790  0.3451 -2.6097 -3.5081
  779TIP3   OH223895   6.681   1.152   8.479  0.1300 -0.1507  0.2118
  779TIP3    H123896   6.663   1.087   8.411  0.4353 -0.0252  0.0063
  779TIP3    H223897   6.772   1.178   8.463 -0.7418  2.2935 -1.4315
  780TIP3   OH223898   2.528   4.972   1.414 -0.3471  0.1289 -0.0745
  780TIP3    H123899   2.474   5.025   1.355 -1.8144 -0.0748  1.0234
  780TIP3    H223900   2.546   5.030   1.488 -2.7093 -1.0412  1.5584
  781TIP3   OH223901   2.427   2.005   8.257 -0.1883 -0.0431 -0.0160
  781TIP3    H123902   2.377   1.923   8.262  2.3635 -1.6657  1.2107
  781TIP3    H223903   2.479   1.996   8.177  1.1823 -0.3549  0.8720
  782TIP3   OH223904   6.514   2.417   2.211  0.2128  0.0740 -0.1536
  782TIP3    H123905   6.557   2.332   2.219  0.1364 -0.0544 -1.0194
  782TIP3    H223906   6.447   2.417   2.279 -0.5816 -1.0549 -0.8942
  783TIP3   OH223907   1.350   2.561   0.676 -0.2605 -0.1802  0.3164
  783TIP3    H123908   1.301   2.517   0.607  2.3419  0.1585 -1.9103
  783TIP3    H223909   1.410   2.493   0.709 -0.1217  0.2035  0.8715
  784TIP3   OH223910   2.065   2.268   2.503  0.0539 -0.5329  0.1057
  784TIP3    H123911   2.021   2.190   2.468 -1.0534  0.0542  0.1371
  784TIP3    H223912   2.025   2.341   2.457  1.1192  0.0318  0.0442
  785TIP3   OH223913   1.759   1.070   1.050  0.5475 -0.3950  0.3513
  785TIP3    H123914   1.791   1.142   1.104 -1.9947  0.2768  1.1076
  785TIP3    H223915   1.720   1.114   0.973 -1.8434 -0.7913  1.2477
  786TIP3   OH223916   2.954   0.266   0.501 -0.2761  0.1215  0.1359
  786TIP3    H123917   2.984   0.325   0.433  1.0699 -0.2098  0.4240
  786TIP3    H223918   2.942   0.182   0.457 -0.1180  0.0869  0.1588
  787TIP3   OH223919   4.255   0.505   2.260  0.0888  0.5382  0.4691
  787TIP3    H123920   4.176   0.453   2.277 -0.9074  1.1685 -1.8703
  787TIP3    H223921   4.321   0.466   2.317 -1.3568 -1.3707  0.9690
  788TIP3   OH223922   2.863   1.936   8.616  0.3119  0.3846  0.3644
  788TIP3    H123923   2.882   1.867   8.679 -0.4910  1.0755  1.3968
  788TIP3    H223924   2.842   2.013   8.670  0.8601  1.3426 -0.7524
  789TIP3   OH223925   5.699   2.428   8.182 -0.8950  0.7170 -0.5534
  789TIP3    H123926   5.699   2.511   8.134 -0.4543 -0.5264 -2.8486
  789TIP3    H223927   5.607   2.403   8.189 -1.0683  1.6035  0.5953
  790TIP3   OH223928   1.774   3.147   8.229 -0.3570 -0.0958 -0.4160
  790TIP3    H123929   1.845   3.206   8.254 -0.2429 -0.8133  1.0538
  790TIP3    H223930   1.754   3.170   8.138  0.2984  1.5654 -0.1651
  791TIP3   OH223931   4.251   3.492   2.255  0.1898 -0.4872 -0.1055
  791TIP3    H123932   4.346   3.491   2.265  0.2524 -3.9445  0.1193
  791TIP3    H223933   4.236   3.443   2.174 -1.4264 -1.6871  0.8709
  792TIP3   OH223934   0.264   4.383   8.524 -0.4325 -0.1575 -0.3595
  792TIP3    H123935   0.269   4.354   8.615  1.7117  2.1403  0.3841
  792TIP3    H223936   0.187   4.440   8.521 -1.5158 -1.5800 -0.4756
  793TIP3   OH223937   5.214   3.028   2.060  0.5071  0.8451 -0.8967
  793TIP3    H123938   5.213   2.935   2.037  1.3648  0.9196 -1.2898
  793TIP3    H223939   5.240   3.072   1.979  0.2613  1.4140 -0.6708
  794TIP3   OH223940   1.487   1.342   8.567  0.2942  0.5975  0.0517
  794TIP3    H123941   1.440   1.349   8.484  1.4830 -1.9524 -0.9416
  794TIP3    H223942   1.432   1.285   8.621  1.3870 -1.1339 -0.5611
  795TIP3   OH223943   1.077   3.561   1.240 -0.6342  0.0017 -0.1650
  795TIP3    H123944   1.046   3.568   1.331  0.2816 -1.1773  0.2576
  795TIP3    H223945   1.172   3.560   1.248 -0.5169  0.8437 -1.2332
  796TIP3   OH223946   3.343   5.373   0.252  0.2093  0.2494 -0.0534
  796TIP3    H123947   3.335   5.351   0.345 -0.0903 -1.4780 -0.4513
  796TIP3    H223948   3.415   5.318   0.221 -2.1627 -2.2749 -1.6436
  797TIP3   OH223949   4.584   0.914   1.049  0.3216  0.1223  0.1038
  797TIP3    H123950   4.627   0.917   0.964  0.7941  2.0849  0.3497
  797TIP3    H223951   4.583   1.006   1.078 -1.5204 -0.2441  1.3682
  798TIP3   OH223952   0.426   4.826   0.801 -0.2296  0.5775 -0.1551
  798TIP3    H123953   0.478   4.784   0.869  0.0925 -0.1424 -0.8332
  798TIP3    H223954   0.379   4.755   0.758  0.0065  0.9527 -1.0524
  799TIP3   OH223955   0.396   4.176   1.282  0.0149 -0.2472 -0.4265
  799TIP3    H123956   0.449   4.248   1.315 -1.5886  1.1633 -0.8150
  799TIP3    H223957   0.449   4.098   1.299  1.5545  0.9443  0.5151
  800TIP3   OH223958   6.252   6.233   2.302 -0.1989 -0.0676 -0.1273
  800TIP3    H123959   6.311   6.162   2.328  1.0321  1.3504  1.1025
  800TIP3    H223960   6.283   6.309   2.351 -1.8943  1.1781 -0.9113
  801TIP3   OH223961   2.461   3.302   1.548 -0.3296  0.1314 -0.5340
  801TIP3    H123962   2.449   3.208   1.540  2.1727 -0.1683 -1.4382
  801TIP3    H223963   2.482   3.332   1.459  0.5849  1.2564  0.0260
  802TIP3   OH223964   3.074   5.043   1.311  0.0237 -0.4187  0.0687
  802TIP3    H123965   3.147   5.097   1.341  1.1949 -1.4548 -0.8299
  802TIP3    H223966   3.055   5.076   1.223  0.8924 -1.5554 -0.5760
  803TIP3   OH223967   2.985   6.057   0.562  0.1573  0.0429 -0.2495
  803TIP3    H123968   3.049   6.015   0.618 -1.2942 -0.9709  0.7113
  803TIP3    H223969   3.020   6.047   0.473  2.6286  1.9258  0.4142
  804TIP3   OH223970   4.098   3.086   8.339  0.6126 -0.2816 -0.1380
  804TIP3    H123971   4.132   3.171   8.368 -0.4976 -0.0314  0.4765
  804TIP3    H223972   4.080   3.098   8.246 -0.2222  0.4069  0.0967
  805TIP3   OH223973   2.925   5.678   2.716  0.2035 -0.1209 -0.0765
  805TIP3    H123974   2.931   5.672   2.812  0.0796 -1.7847 -0.1516
  805TIP3    H223975   3.008   5.718   2.690  0.3539  0.0999  0.7070
  806TIP3   OH223976   0.344   0.613   3.075  0.8927  0.4709  0.3615
  806TIP3    H123977   0.283   0.576   3.012  0.0628  2.0811  0.1696
  806TIP3    H223978   0.300   0.693   3.107  2.9740  1.8135  0.0410
  807TIP3   OH223979   3.445   3.775   1.916  0.2667 -0.2414  0.0143
  807TIP3    H123980   3.498   3.854   1.915 -1.3781  0.9230 -1.5314
  807TIP3    H223981   3.473   3.725   1.840 -1.0455  0.5588 -1.0280
  808TIP3   OH223982   6.072   2.709   0.001  0.0094  0.4485 -0.8506
  808TIP3    H123983   6.139   2.651   0.037 -1.0707 -0.6950 -0.6273
  808TIP3    H223984   6.036   2.755   0.077  1.0838  1.7048 -1.0595
  809TIP3   OH223985   0.699   2.766   2.357 -0.1178  0.4162  0.0172
  809TIP3    H123986   0.734   2.680   2.377  2.6220  0.9764 -1.8050
  809TIP3    H223987   0.632   2.750   2.290  0.4817 -0.2969 -0.4185
  810TIP3   OH223988   0.886   3.570   7.818 -0.1573 -0.3472  0.1133
  810TIP3    H123989   0.860   3.588   7.728 -2.2100 -1.2576  0.4694
  810TIP3    H223990   0.845   3.639   7.870  0.2251 -0.3689  0.4483
  811TIP3   OH223991   0.837   1.260   7.680 -0.4241  0.7805 -0.2894
  811TIP3    H123992   0.808   1.340   7.723  0.3987  0.9973 -0.1093
  811TIP3    H223993   0.764   1.234   7.625 -1.1058  1.0634  0.4650
  812TIP3   OH223994   6.077   1.918   0.826 -0.0267 -0.0218 -0.1914
  812TIP3    H123995   6.019   1.965   0.886  1.0511  1.6135 -0.3711
  812TIP3    H223996   6.056   1.825   0.840 -2.4668  0.4764 -0.0544
  813TIP3   OH223997   1.410   0.388   8.914  0.0276 -0.0431 -0.3277
  813TIP3    H123998   1.427   0.476   8.880  0.5670 -0.1328 -0.2923
  813TIP3    H223999   1.432   0.330   8.840  0.0652 -0.1714 -0.2154
  814TIP3   OH224000   2.621   6.087   0.844 -0.3074 -0.3438 -0.0070
  814TIP3    H124001   2.635   6.019   0.910 -1.1023 -1.1682 -0.6553
  814TIP3    H224002   2.709   6.118   0.823  0.0397 -0.8964  0.5923
  815TIP3   OH224003   4.216   4.273   1.032 -0.3560 -0.5371  0.1506
  815TIP3    H124004   4.292   4.316   0.993 -0.8016 -1.7304 -2.1767
  815TIP3    H224005   4.231   4.180   1.018 -2.8674 -0.7467 -1.6764
  816TIP3   OH224006   4.067   1.988   2.478  0.3324  0.3814 -0.1721
  816TIP3    H124007   4.086   2.061   2.537  2.8759 -0.3795  0.0935
  816TIP3    H224008   4.043   1.916   2.537  0.2646  0.3280 -0.2657
  817TIP3   OH224009   0.315   2.676   0.773  0.3519 -0.6455  0.1164
  817TIP3    H124010   0.314   2.583   0.796 -0.3517 -0.6141  0.2447
  817TIP3    H224011   0.252   2.716   0.833  1.8855  0.2018  1.2111
  818TIP3   OH224012   3.948   2.869   2.107 -0.0140  0.3414  0.2794
  818TIP3    H124013   3.950   2.962   2.130  0.0933  0.8941 -1.7708
  818TIP3    H224014   4.032   2.853   2.064  0.0234 -0.7591  0.7288
  819TIP3   OH224015   5.334   6.635   7.512  0.2722  0.3006 -0.4940
  819TIP3    H124016   5.380   6.559   7.549  0.4001  1.0473  0.9519
  819TIP3    H224017   5.248   6.635   7.554  0.4575  1.2346 -0.0774
  820TIP3   OH224018   6.676   2.000   3.286  0.3134  0.2091 -0.1168
  820TIP3    H124019   6.765   2.022   3.258  0.4340 -2.2288 -1.9732
  820TIP3    H224020   6.636   1.961   3.209 -2.9372  2.4815  0.2197
  821TIP3   OH224021   3.861   0.610   2.059  0.3511  0.6274 -0.6595
  821TIP3    H124022   3.847   0.657   1.976 -1.7715  0.7890 -0.2613
  821TIP3    H224023   3.864   0.518   2.034 -1.6634  0.5568 -0.8438
  822TIP3   OH224024   1.833   3.998   3.719 -0.1609 -0.2449 -0.0735
  822TIP3    H124025   1.882   3.939   3.776  1.1920  0.8460 -0.0482
  822TIP3    H224026   1.758   3.946   3.690 -0.6160 -1.0064  2.2478
  823TIP3   OH224027   0.678   6.357   8.693  0.0433 -0.0482 -0.4346
  823TIP3    H124028   0.700   6.360   8.600 -0.5890 -1.4050 -0.6529
  823TIP3    H224029   0.636   6.272   8.705 -1.2989  0.7408  0.7817
  824TIP3   OH224030   3.264   3.491   0.257  0.5399 -0.0850  0.0288
  824TIP3    H124031   3.266   3.573   0.308  0.3478  0.6602 -1.1307
  824TIP3    H224032   3.311   3.428   0.312  1.5068  1.0409  0.5523
  825TIP3   OH224033   5.882   4.329   2.676 -0.2551 -0.3029  0.4340
  825TIP3    H124034   5.926   4.311   2.593 -3.1784  0.9158 -1.5565
  825TIP3    H224035   5.814   4.262   2.682  0.4100 -0.8713  2.3454
  826TIP3   OH224036   4.582   2.024   1.662 -0.5220 -0.1581  0.4033
  826TIP3    H124037   4.632   1.976   1.728 -1.4796 -1.5571  0.1587
  826TIP3    H224038   4.497   1.980   1.661 -0.1239 -1.0690 -2.6850
  827TIP3   OH224039   2.240   3.970   2.156  0.4026  0.5093 -0.2243
  827TIP3    H124040   2.267   3.902   2.094 -1.4293  0.6853 -1.2839
  827TIP3    H224041   2.262   4.053   2.112  2.2121  0.6657  0.8673
  828TIP3   OH224042   4.248   6.405   2.519 -0.8907 -0.8989  0.1294
  828TIP3    H124043   4.212   6.443   2.600  1.6912  1.9763  0.1299
  828TIP3    H224044   4.235   6.474   2.453  0.2547 -1.7181 -0.9932
  829TIP3   OH224045   5.092   6.453   8.348  0.2061  0.2630 -0.1983
  829TIP3    H124046   5.084   6.493   8.261 -0.7019 -0.4257 -0.4600
  829TIP3    H224047   5.177   6.482   8.381 -0.3096  2.1840 -0.4555
  830TIP3   OH224048   4.668   6.566   0.824  0.0571 -0.1545 -0.3206
  830TIP3    H124049   4.715   6.649   0.834  0.1362 -0.1236 -0.9199
  830TIP3    H224050   4.737   6.501   0.815 -0.0128 -0.1246 -1.0874
  831TIP3   OH224051   1.830   3.652   0.245 -0.5139  0.0356  0.3455
  831TIP3    H124052   1.755   3.664   0.186 -1.0047  1.7444  1.2287
  831TIP3    H224053   1.798   3.592   0.312 -1.6124  1.7529  1.4400
  832TIP3   OH224054   6.292   2.840   8.651 -0.0865  0.6758  0.4577
  832TIP3    H124055   6.369   2.791   8.622 -0.0244  1.3316 -0.5271
  832TIP3    H224056   6.228   2.773   8.677 -0.1161  0.0564 -1.1578
  833TIP3   OH224057   6.504   2.258   0.180  0.3216 -0.0438 -0.4538
  833TIP3    H124058   6.412   2.254   0.155  0.1099 -1.8327  0.3846
  833TIP3    H224059   6.528   2.350   0.172 -1.2802  0.3136 -1.5650
  834TIP3   OH224060   0.616   3.830   8.581  0.1609  0.0951  0.3272
  834TIP3    H124061   0.658   3.798   8.501  1.2716 -0.2033  1.0085
  834TIP3    H224062   0.593   3.750   8.629 -2.5676  0.1844 -0.6746
  835TIP3   OH224063   2.771   2.159   0.237 -0.3956 -0.2971 -0.0896
  835TIP3    H124064   2.764   2.248   0.273 -1.6625 -1.1808  2.0450
  835TIP3    H224065   2.858   2.130   0.262 -0.4476 -0.1008  0.3346
  836TIP3   OH224066   6.173   0.500   0.908  0.1372  0.0148 -0.2453
  836TIP3    H124067   6.085   0.514   0.874 -0.6833 -1.2658  1.2035
  836TIP3    H224068   6.190   0.407   0.893  2.1415  0.6334 -2.4034
  837TIP3   OH224069   6.104   4.757   2.008  0.2167  0.0995  0.2369
  837TIP3    H124070   6.096   4.778   2.101 -0.9820  0.4350  0.0861
  837TIP3    H224071   6.188   4.793   1.982  1.7476 -2.1754  1.7130
  838TIP3   OH224072   1.529   5.098   2.193 -0.2956  0.3822 -0.3592
  838TIP3    H124073   1.475   5.143   2.258 -2.4374 -2.5533  0.0962
  838TIP3    H224074   1.493   5.123   2.109 -0.3711  0.7760 -0.2115
  839TIP3   OH224075   4.062   4.783   2.646 -0.1594 -0.3213 -0.5505
  839TIP3    H124076   4.086   4.866   2.687 -0.7954  0.7806 -2.2941
  839TIP3    H224077   3.983   4.755   2.693  0.2654 -0.1617  0.2858
  840TIP3   OH224078   0.791   5.277   1.078 -0.3677 -0.1449  0.3378
  840TIP3    H124079   0.823   5.338   1.144  0.7204 -1.9444  1.5424
  840TIP3    H224080   0.841   5.300   0.999 -1.1726  1.5588  0.2800
  841TIP3   OH224081   0.373   0.031   2.013 -0.3103 -0.5090  0.4866
  841TIP3    H124082   0.291   0.045   2.061 -0.6654 -0.4563 -0.1181
  841TIP3    H224083   0.347   0.033   1.921  0.9422  3.6559  0.0347
  842TIP3   OH224084   3.698   2.837   2.754  0.2009  0.1856 -0.0802
  842TIP3    H124085   3.697   2.883   2.670 -0.7274 -1.4814 -1.0299
  842TIP3    H224086   3.771   2.776   2.746 -1.2611 -1.5729 -0.6269
  843TIP3   OH224087   5.069   1.579   1.556  0.3299 -0.5272 -0.0372
  843TIP3    H124088   4.990   1.616   1.517 -0.9832 -1.3518  1.6837
  843TIP3    H224089   5.058   1.484   1.547  1.3813 -0.6406 -0.2278
  844TIP3   OH224090   4.073   3.401   2.483 -0.0990  0.0918 -0.0865
  844TIP3    H124091   4.114   3.482   2.453 -1.1428  0.5743 -0.2649
  844TIP3    H224092   4.146   3.346   2.511  0.5332  2.0890  2.6066
  845TIP3   OH224093   2.285   3.522   1.586  0.0903  0.1422 -0.3967
  845TIP3    H124094   2.201   3.498   1.549  0.2451  3.3422 -3.2318
  845TIP3    H224095   2.339   3.444   1.575 -1.7844 -1.1713 -0.7159
  846TIP3   OH224096   6.473   5.797   3.220  0.4322  0.0079  0.4214
  846TIP3    H124097   6.401   5.747   3.260  1.6232 -2.1261  0.0618
  846TIP3    H224098   6.433   5.838   3.143 -0.2741 -1.8268 -0.2599
  847TIP3   OH224099   1.054   1.512   8.473  0.3446 -0.2143  0.0109
  847TIP3    H124100   0.967   1.508   8.432 -0.9688  0.5424  2.5466
  847TIP3    H224101   1.040   1.478   8.561  2.7402 -0.4245  0.3620
  848TIP3   OH224102   5.112   2.018   7.531  0.7024 -0.0459  0.3177
  848TIP3    H124103   5.056   1.960   7.478  0.0791 -0.7515  1.7110
  848TIP3    H224104   5.062   2.099   7.538  0.4373 -0.2228  0.4838
  849TIP3   OH224105   1.355   4.924   1.812  0.0853 -0.3340  0.0933
  849TIP3    H124106   1.425   4.966   1.862  0.1105  0.4526 -0.5644
  849TIP3    H224107   1.276   4.971   1.838  0.0300 -0.2357 -0.2401
  850TIP3   OH224108   0.258   3.706   0.133  0.3698 -0.1383 -0.1502
  850TIP3    H124109   0.207   3.777   0.174  1.1228 -0.3415  1.1837
  850TIP3    H224110   0.204   3.628   0.144  1.1439 -0.4594  1.7524
  851TIP3   OH224111   0.255   5.049   7.938 -0.0000  0.6373 -0.0582
  851TIP3    H124112   0.304   5.005   7.868  0.9198  1.0619  0.2958
  851TIP3    H224113   0.321   5.099   7.985 -1.0240  2.4805 -0.4982
  852TIP3   OH224114   2.875   6.593   0.426 -0.2188  0.2964  0.0981
  852TIP3    H124115   2.898   6.617   0.336  0.4578  1.5051  0.5770
  852TIP3    H224116   2.780   6.606   0.432 -0.0146  1.9297  0.0502
  853TIP3   OH224117   6.722   0.677   3.063  0.0264  0.0291 -0.1322
  853TIP3    H124118   6.775   0.679   3.143  0.4154 -0.0607 -0.3831
  853TIP3    H224119   6.736   0.763   3.023  0.0425 -0.0210 -0.2356
  854TIP3   OH224120   5.816   3.855   2.905 -0.7481 -0.0741 -0.1221
  854TIP3    H124121   5.773   3.912   2.841 -1.6644  1.0302  1.3923
  854TIP3    H224122   5.905   3.890   2.911 -1.1786  0.9604  0.4761
  855TIP3   OH224123   5.122   5.250   1.655  0.5341  0.2095  0.2139
  855TIP3    H124124   5.075   5.222   1.577  2.4232 -0.8929 -0.5792
  855TIP3    H224125   5.211   5.266   1.626  1.3414 -0.3837  2.1701
  856TIP3   OH224126   4.935   1.690   8.723 -0.0947  0.0274  0.1529
  856TIP3    H124127   4.865   1.710   8.662 -0.3705 -0.8738  0.1645
  856TIP3    H224128   4.987   1.771   8.727  0.5958 -0.2479 -2.1344
  857TIP3   OH224129   1.706   1.233   0.035  0.3325 -0.0897  0.2263
  857TIP3    H124130   1.771   1.166   0.015  0.2482  0.0853 -0.6489
  857TIP3    H224131   1.750   1.316   0.018 -0.0736  0.0331 -0.2638
  858TIP3   OH224132   0.851   3.982   8.597  0.2780  0.7959 -0.4192
  858TIP3    H124133   0.909   3.920   8.553  0.4077  1.0154 -0.5579
  858TIP3    H224134   0.764   3.941   8.592  0.4258  0.4440 -0.1688
  859TIP3   OH224135   4.806   2.375   0.095  0.1854 -0.3499 -0.0450
  859TIP3    H124136   4.893   2.339   0.078  0.8624  0.9147  0.5688
  859TIP3    H224137   4.755   2.300   0.128  1.1693 -1.0095  0.0223
  860TIP3   OH224138   0.709   5.671   2.878 -0.3560 -0.1860  0.0874
  860TIP3    H124139   0.727   5.657   2.971 -0.7607 -1.2226  0.0284
  860TIP3    H224140   0.757   5.750   2.855  1.9926 -1.3710  0.5541
  861TIP3   OH224141   3.657   5.928   1.894  0.7279 -0.8264  0.1129
  861TIP3    H124142   3.740   5.882   1.904  1.1388 -0.3490 -0.9481
  861TIP3    H224143   3.674   6.017   1.923  1.1327 -0.2238 -1.8204
  862TIP3   OH224144   2.341   3.495   8.650  0.0056 -0.1926  0.5558
  862TIP3    H124145   2.400   3.529   8.583  0.1902  1.9047  1.7145
  862TIP3    H224146   2.328   3.403   8.625  1.1830  0.1353 -1.5248
  863TIP3   OH224147   0.272   6.669   1.765 -0.3983  0.8322  0.6910
  863TIP3    H124148   0.358   6.710   1.750  0.5094 -1.5461 -1.3053
  863TIP3    H224149   0.213   6.716   1.707  0.0980  0.9050  0.2351
  864TIP3   OH224150   1.818   6.246   2.220  0.0454 -0.2075  0.3455
  864TIP3    H124151   1.787   6.307   2.286 -0.5483 -0.0660 -0.0563
  864TIP3    H224152   1.750   6.247   2.153  0.6243 -0.3655 -0.2552
  865TIP3   OH224153   3.342   6.561   1.495 -0.0605 -0.8777  0.6082
  865TIP3    H124154   3.387   6.500   1.554  1.3563  0.0488  0.5212
  865TIP3    H224155   3.409   6.622   1.467 -0.7496 -1.1142 -1.7811
  866TIP3   OH224156   2.668   0.925   1.145 -0.0203  0.2037  0.3202
  866TIP3    H124157   2.640   0.966   1.227 -3.1102  1.1254 -1.0691
  866TIP3    H224158   2.641   0.987   1.077  0.3063 -1.5963 -1.5357
  867TIP3   OH224159   3.444   6.407   7.897 -0.5829  0.4242  0.0395
  867TIP3    H124160   3.496   6.365   7.829 -1.8727 -0.4111 -0.4742
  867TIP3    H224161   3.458   6.354   7.975  0.3746  0.9975  0.2768
  868TIP3   OH224162   3.008   4.865   2.152 -0.5183  0.4552 -0.4680
  868TIP3    H124163   2.966   4.801   2.095 -1.1552  1.8148 -1.5827
  868TIP3    H224164   3.101   4.847   2.144 -0.7204 -0.9150 -0.0195
  869TIP3   OH224165   3.029   3.379   2.230 -0.2072  0.0901  0.3990
  869TIP3    H124166   3.081   3.344   2.302 -0.7488 -0.4895  0.5168
  869TIP3    H224167   3.053   3.471   2.226 -0.4659  0.2238  1.5844
  870TIP3   OH224168   4.439   3.715   1.916 -0.0732  0.1930 -0.2288
  870TIP3    H124169   4.404   3.628   1.895 -1.9570  1.1273 -1.1644
  870TIP3    H224170   4.457   3.754   1.830  0.3645  0.8943  0.1806
  871TIP3   OH224171   4.756   5.726   0.334  0.5052 -0.4529 -0.4469
  871TIP3    H124172   4.692   5.796   0.320 -0.3251 -1.5391 -2.5485
  871TIP3    H224173   4.832   5.771   0.370 -0.9689  1.0721  0.9889
  872TIP3   OH224174   4.752   1.722   0.800 -0.0310 -0.3018  0.1451
  872TIP3    H124175   4.833   1.694   0.757 -0.2160 -1.0421  0.2540
  872TIP3    H224176   4.704   1.769   0.732 -0.3814 -1.5742 -0.5316
  873TIP3   OH224177   6.448   6.375   8.807 -0.4412  0.0471  0.0339
  873TIP3    H124178   6.484   6.319   8.875 -0.0296 -0.8895 -0.9134
  873TIP3    H224179   6.373   6.418   8.847 -0.1151 -0.3676  1.1101
  874TIP3   OH224180   2.441   4.095   2.863  0.1241  0.1250 -0.0068
  874TIP3    H124181   2.512   4.032   2.853 -0.5543 -1.0563  2.0761
  874TIP3    H224182   2.361   4.042   2.863 -0.6685  1.2656 -0.7575
  875TIP3   OH224183   1.096   5.905   7.521 -0.4438  0.3605 -0.4037
  875TIP3    H124184   1.006   5.928   7.546 -0.7372 -1.2626  0.1600
  875TIP3    H224185   1.089   5.873   7.431 -0.1766  1.5775 -0.8747
  876TIP3   OH224186   4.209   1.378   8.594  0.0046  0.2586 -0.3611
  876TIP3    H124187   4.268   1.362   8.668 -0.4000  0.3225 -0.0240
  876TIP3    H224188   4.266   1.376   8.517  0.1292 -2.2127 -0.3047
  877TIP3   OH224189   6.701   0.682   1.324  0.2696  0.1876  0.0935
  877TIP3    H124190   6.791   0.652   1.337  0.0477 -0.6835 -0.2452
  877TIP3    H224191   6.691   0.685   1.229  0.4715  2.0067  0.0981
  878TIP3   OH224192   4.094   2.781   1.839  0.1190  0.5241  0.2817
  878TIP3    H124193   4.027   2.740   1.783 -2.9510  3.4267  1.5224
  878TIP3    H224194   4.129   2.852   1.786  1.8404 -0.5378 -0.0896
  879TIP3   OH224195   6.526   1.072   8.688  0.1147 -0.0964  0.5144
  879TIP3    H124196   6.588   1.050   8.757  0.1752  1.6786  1.0681
  879TIP3    H224197   6.580   1.098   8.614  0.0394 -0.1201  0.4506
  880TIP3   OH224198   3.921   6.485   2.383  0.1197 -0.4289  0.2997
  880TIP3    H124199   3.886   6.569   2.414  0.4501  0.0355 -0.5570
  880TIP3    H224200   3.848   6.444   2.336  0.4684  0.2033 -0.8370
  881TIP3   OH224201   2.522   1.522   2.772 -1.0234  0.0646 -0.3465
  881TIP3    H124202   2.503   1.569   2.853  2.4733 -0.3090  0.8936
  881TIP3    H224203   2.560   1.588   2.714 -1.2640 -0.1521 -0.7548
  882TIP3   OH224204   0.508   1.248   2.533 -1.0874 -0.0750 -0.1353
  882TIP3    H124205   0.598   1.234   2.562 -0.7306  0.7864 -0.7727
  882TIP3    H224206   0.469   1.161   2.533  0.0315 -0.6040 -0.7543
  883TIP3   OH224207   0.957   0.486   8.361 -0.3732  0.1652  0.1303
  883TIP3    H124208   0.991   0.416   8.416  0.0254  0.3285  0.0963
  883TIP3    H224209   1.035   0.531   8.329 -0.6242  0.5788  0.0941
  884TIP3   OH224210   3.846   0.767   0.464 -0.1739  0.1278  0.1784
  884TIP3    H124211   3.927   0.731   0.429 -0.0643  1.4278 -0.9788
  884TIP3    H224212   3.874   0.828   0.532 -0.2103  0.2041  0.1249
  885TIP3   OH224213   1.058   0.123   2.090 -0.1909 -0.2243  0.3472
  885TIP3    H124214   1.051   0.218   2.076 -2.3434 -0.4620 -0.6005
  885TIP3    H224215   1.035   0.111   2.182  1.3405  0.2349  0.8269
  886TIP3   OH224216   2.931   3.736   7.463 -0.0461 -0.1988 -0.3048
  886TIP3    H124217   2.892   3.689   7.389 -1.8822  0.1862  0.3525
  886TIP3    H224218   2.896   3.691   7.540  1.5058 -0.3272  0.3563
  887TIP3   OH224219   4.838   0.961   7.435 -1.1180 -0.5108  0.9027
  887TIP3    H124220   4.771   1.009   7.386 -0.0680 -0.5581 -0.6439
  887TIP3    H224221   4.789   0.896   7.486 -2.2140 -1.2131 -0.9425
  888TIP3   OH224222   1.897   0.278   1.417 -0.3646 -0.1544 -0.2602
  888TIP3    H124223   1.897   0.189   1.384  0.0771 -1.6041  3.2789
  888TIP3    H224224   1.815   0.286   1.467  0.8248  0.4380  1.6969
  889TIP3   OH224225   4.984   0.164   7.891  0.2600 -0.1513  0.1166
  889TIP3    H124226   5.075   0.135   7.881  0.6541  0.5703  1.4262
  889TIP3    H224227   4.938   0.087   7.924  0.4197 -0.4561 -0.3487
  890TIP3   OH224228   0.624   2.887   1.361  0.0186 -0.5371 -0.1262
  890TIP3    H124229   0.696   2.950   1.360 -1.3216  1.2417  2.8955
  890TIP3    H224230   0.635   2.839   1.442 -1.9456 -0.4743  0.2233
  891TIP3   OH224231   5.662   3.459   1.823 -0.3604  0.1453 -0.1462
  891TIP3    H124232   5.680   3.376   1.868 -1.7584 -0.4941 -0.7175
  891TIP3    H224233   5.658   3.435   1.731  1.1788  1.2170 -0.5241
  892TIP3   OH224234   5.216   2.214   7.711  0.0993  0.4206 -0.1123
  892TIP3    H124235   5.240   2.136   7.760 -0.1291  1.1648  1.2344
  892TIP3    H224236   5.218   2.187   7.619  0.5954 -0.9939  0.2986
  893TIP3   OH224237   2.297   0.243   1.101 -0.4726  0.4093 -0.3067
  893TIP3    H124238   2.383   0.275   1.129 -0.5748 -0.2381  0.7893
  893TIP3    H224239   2.257   0.208   1.181 -1.9164  1.0475 -0.7179
  894TIP3   OH224240   5.469   2.425   0.293  0.2523 -0.3136  0.2012
  894TIP3    H124241   5.538   2.485   0.264  0.6811 -1.2941 -0.8998
  894TIP3    H224242   5.506   2.381   0.370 -0.0958  0.8637  1.0594
  895TIP3   OH224243   4.892   0.265   1.213 -0.2131 -0.2490 -0.0573
  895TIP3    H124244   4.860   0.180   1.183 -1.2730 -0.0814  0.5374
  895TIP3    H224245   4.828   0.293   1.278 -0.8297  1.7508 -1.4088
  896TIP3   OH224246   5.533   1.940   8.623 -0.1896  0.3228  0.5037
  896TIP3    H124247   5.503   1.849   8.614  0.2329  0.1054  1.1746
  896TIP3    H224248   5.622   1.939   8.585 -0.6608  0.7580 -0.6590
  897TIP3   OH224249   5.417   5.472   8.143 -0.0006 -0.2188 -0.0553
  897TIP3    H124250   5.329   5.489   8.110 -0.2180 -3.0666 -1.2883
  897TIP3    H224251   5.472   5.537   8.100 -1.5510  2.3567  1.6060
  898TIP3   OH224252   0.260   0.967   0.095  0.0458  0.0008  0.2780
  898TIP3    H124253   0.180   0.942   0.048 -1.3824  1.7022  1.6388
  898TIP3    H224254   0.311   1.015   0.031 -1.9312  2.4037  0.3609
  899TIP3   OH224255   4.468   6.557   7.571 -0.7583 -0.2742 -0.1981
  899TIP3    H124256   4.476   6.644   7.533 -0.4053  0.1794  0.8604
  899TIP3    H224257   4.494   6.497   7.501  2.9286  0.6504  0.1731
  900TIP3   OH224258   4.656   6.439   2.392 -0.2116 -0.2234  0.1491
  900TIP3    H124259   4.642   6.450   2.486 -0.1659  0.3907  0.0925
  900TIP3    H224260   4.595   6.502   2.352 -0.3594 -0.6090 -0.2375
  901TIP3   OH224261   2.111   1.899   2.211  0.4437  0.1927  0.4339
  901TIP3    H124262   2.130   1.992   2.203  0.3701  0.2272  0.6420
  901TIP3    H224263   2.184   1.855   2.168 -0.5240  0.3858 -1.5335
  902TIP3   OH224264   0.056   3.640   1.649  0.0012  0.4187 -0.2707
  902TIP3    H124265  -0.028   3.637   1.603 -0.2223 -1.4837  0.1768
  902TIP3    H224266   0.032   3.635   1.742  0.5704  1.2718 -0.0703
  903TIP3   OH224267   1.902   0.140   0.225 -0.0946  0.4113  0.5481
  903TIP3    H124268   1.982   0.174   0.265 -0.4771  0.8031  0.9877
  903TIP3    H224269   1.884   0.059   0.272 -0.4834  0.8159  1.1164
  904TIP3   OH224270   4.644   4.969   2.524  0.5740 -0.2116  0.2768
  904TIP3    H124271   4.605   4.895   2.478 -0.1608  1.3780 -1.7773
  904TIP3    H224272   4.718   4.996   2.469 -0.2258  1.6451  0.0585
  905TIP3   OH224273   3.397   3.141   3.267  0.6239 -0.3767 -0.2720
  905TIP3    H124274   3.302   3.132   3.254  0.4484  0.2224  0.5006
  905TIP3    H224275   3.427   3.190   3.190  0.2618 -0.3148 -0.3769
  906TIP3   OH224276   5.562   5.000   1.935  0.0917 -0.2864 -0.2050
  906TIP3    H124277   5.606   4.969   2.015 -1.7857 -0.2975  0.8940
  906TIP3    H224278   5.633   5.026   1.877  1.5485 -0.9044  1.2115
  907TIP3   OH224279   1.265   2.914   0.588 -0.2572  0.2027 -0.0234
  907TIP3    H124280   1.226   2.832   0.558  0.6926 -1.0981  2.0410
  907TIP3    H224281   1.230   2.926   0.676  1.7703  0.4501  0.8147
  908TIP3   OH224282   1.979   4.302   2.953 -0.2700  0.5097 -0.0279
  908TIP3    H124283   1.900   4.267   2.995 -0.0703  1.0327  0.8058
  908TIP3    H224284   1.993   4.386   2.997  1.1258  0.1272  0.2802
  909TIP3   OH224285   1.953   5.006   2.514  0.2535  1.2750 -0.2704
  909TIP3    H124286   1.999   5.013   2.431  0.3566 -0.3291 -0.3830
  909TIP3    H224287   1.947   5.096   2.546  0.3035  1.9043 -1.9484
  910TIP3   OH224288   4.683   4.703   0.099  0.1915  0.5045  0.1347
  910TIP3    H124289   4.679   4.655   0.016 -2.5708  0.5612  0.1628
  910TIP3    H224290   4.677   4.795   0.073  2.0865  0.7202  0.2964
  911TIP3   OH224291   0.518   5.513   2.794 -0.4872  0.3667  0.0531
  911TIP3    H124292   0.581   5.583   2.808 -0.2516  0.3840 -1.0826
  911TIP3    H224293   0.519   5.464   2.877  1.0026  0.3575  0.0525
  912TIP3   OH224294   2.742   1.130   8.507  0.5526 -0.1779 -0.2756
  912TIP3    H124295   2.765   1.044   8.542 -1.4071 -0.2919  0.8763
  912TIP3    H224296   2.796   1.139   8.428  0.3016 -2.7732 -0.8357
  913TIP3   OH224297   3.428   4.747   8.359  0.0247  0.2022  0.2093
  913TIP3    H124298   3.481   4.827   8.350 -0.7529  0.8606  1.2511
  913TIP3    H224299   3.338   4.778   8.357 -0.2825 -0.6581  0.6427
  914TIP3   OH224300   1.057   3.410   2.697 -0.1371  0.3481  0.4907
  914TIP3    H124301   1.107   3.468   2.639  0.8607  1.0583  1.9965
  914TIP3    H224302   1.062   3.325   2.655  0.9538  0.7473 -0.2492
  915TIP3   OH224303   2.594   5.305   2.675 -0.7480 -0.2410 -0.0917
  915TIP3    H124304   2.575   5.272   2.762 -0.9896 -0.7957 -0.3446
  915TIP3    H224305   2.515   5.284   2.624  0.3526 -2.3387 -1.0940
  916TIP3   OH224306   1.711   0.774   1.744  0.0483 -0.1912  0.0823
  916TIP3    H124307   1.675   0.806   1.827 -0.1171 -3.2178  1.3347
  916TIP3    H224308   1.676   0.833   1.678 -2.5385  0.4482  1.8557
  917TIP3   OH224309   2.168   1.622   0.616  0.0493 -0.4245 -0.3431
  917TIP3    H124310   2.108   1.635   0.543  0.8465 -0.1503 -0.9639
  917TIP3    H224311   2.210   1.538   0.598  0.9678  0.1029 -0.7430
  918TIP3   OH224312   2.850   3.950   9.014  0.2475  0.6613 -0.3940
  918TIP3    H124313   2.800   4.032   9.011 -0.7205  0.2034  1.6744
  918TIP3    H224314   2.783   3.881   9.012  0.9927 -0.0736 -0.9218
  919TIP3   OH224315   5.888   0.470   2.203  0.5171  0.5446  0.5188
  919TIP3    H124316   5.969   0.429   2.174 -0.0196  1.2076 -2.2452
  919TIP3    H224317   5.898   0.479   2.298  3.1214 -0.4806  0.4310
  920TIP3   OH224318   4.464   3.975   8.305  0.1229 -0.2707  0.1319
  920TIP3    H124319   4.430   4.062   8.285  0.1010  0.2768  2.3534
  920TIP3    H224320   4.405   3.940   8.371  1.4614 -0.9790  1.0075
  921TIP3   OH224321   4.086   2.042   0.777 -0.2266 -0.1609 -0.3333
  921TIP3    H124322   4.005   2.050   0.826 -2.2088  1.8208 -3.5876
  921TIP3    H224323   4.143   2.111   0.813 -0.0966 -1.2327  1.6266
  922TIP3   OH224324   4.995   3.952   2.748  0.6782  0.1531  0.1945
  922TIP3    H124325   4.922   3.980   2.803 -0.2386  2.8619 -2.1978
  922TIP3    H224326   4.956   3.893   2.684  0.9247  0.2149 -0.0145
  923TIP3   OH224327   2.049   5.485   8.282 -0.2932  0.4886 -0.0255
  923TIP3    H124328   2.019   5.463   8.371 -0.5637 -2.5036 -0.7231
  923TIP3    H224329   2.043   5.402   8.235  2.8561  1.2382 -2.0139
  924TIP3   OH224330   3.449   4.512   0.916 -0.1080  0.0176  0.1045
  924TIP3    H124331   3.504   4.441   0.884  1.0589  0.5221  0.9045
  924TIP3    H224332   3.443   4.573   0.842 -1.1950 -0.9377 -0.6123
  925TIP3   OH224333   1.545   5.179   1.626 -0.3006 -0.4301  0.3073
  925TIP3    H124334   1.509   5.129   1.553  0.8048 -1.3254  0.3532
  925TIP3    H224335   1.590   5.115   1.680  2.0205  0.6835 -0.1523
  926TIP3   OH224336   4.076   3.090   2.393  0.5341  0.3150  0.3157
  926TIP3    H124337   4.075   3.051   2.480 -0.4712  1.9161  1.0769
  926TIP3    H224338   4.012   3.161   2.398  1.6180  1.4752 -1.2487
  927TIP3   OH224339   1.958   0.925   2.592 -0.0779 -0.0254 -0.3672
  927TIP3    H124340   2.023   0.995   2.604 -0.0740  0.4040 -2.5850
  927TIP3    H224341   1.984   0.882   2.511 -0.9142 -1.7381  0.2311
  928TIP3   OH224342   2.779   1.908   1.290 -0.4944 -0.8140  0.4583
  928TIP3    H124343   2.711   1.906   1.358  0.1458 -0.2591  1.1273
  928TIP3    H224344   2.765   1.991   1.245 -0.2095 -0.6479  0.6669
  929TIP3   OH224345   4.180   0.975   0.945 -0.2292 -0.2788  0.8683
  929TIP3    H124346   4.106   0.984   1.005 -0.6953  1.7638  0.0843
  929TIP3    H224347   4.195   1.064   0.913 -2.4265 -1.5598 -4.9582
  930TIP3   OH224348   4.972   5.850   0.476 -0.0587  0.3319  0.7958
  930TIP3    H124349   5.044   5.879   0.532  0.7262 -1.3447  0.7084
  930TIP3    H224350   5.008   5.853   0.388 -0.9318  1.8879  0.4660
  931TIP3   OH224351   2.010   2.294   2.749 -0.3777 -0.3621 -0.3355
  931TIP3    H124352   2.022   2.256   2.662  0.3362  2.9010 -1.8118
  931TIP3    H224353   1.954   2.370   2.735 -0.9861 -0.2258  2.2516
  932TIP3   OH224354   5.309   1.431   0.152  0.0191 -0.3508 -0.4953
  932TIP3    H124355   5.221   1.464   0.173  0.2641 -0.7062  1.2375
  932TIP3    H224356   5.358   1.510   0.130 -0.6164 -0.1020 -1.0741
  933TIP3   OH224357   0.178   3.980   8.960 -0.1024  0.2204 -0.1500
  933TIP3    H124358   0.167   4.072   8.986 -0.4922  0.3938 -0.9168
  933TIP3    H224359   0.109   3.934   9.007  1.1787  0.0275  1.6430
  934TIP3   OH224360   3.949   4.238   3.121  0.3763  0.0912 -0.2135
  934TIP3    H124361   3.865   4.217   3.079  0.9800 -1.6517 -0.6457
  934TIP3    H224362   4.013   4.181   3.076  1.6355  0.7227  0.7182
  935TIP3   OH224363   0.478   5.808   0.516 -0.8246 -0.4324 -0.4457
  935TIP3    H124364   0.504   5.851   0.434 -2.0036 -1.5105 -1.4408
  935TIP3    H224365   0.411   5.866   0.553 -0.6035 -0.1560 -0.4825
  936TIP3   OH224366   6.140   0.111   7.840  0.1109 -0.1039  0.2437
  936TIP3    H124367   6.201   0.040   7.862 -0.2951 -1.3776 -2.3556
  936TIP3    H224368   6.064   0.067   7.802 -1.0495  1.6338  0.4102
  937TIP3   OH224369   3.170   1.548   1.509  0.4596  0.2489 -0.0517
  937TIP3    H124370   3.239   1.543   1.442  0.6526 -2.1023  0.2603
  937TIP3    H224371   3.180   1.636   1.546  3.8848 -0.2567  0.5467
  938TIP3   OH224372   6.386   3.005   1.775 -0.5158  0.4417  0.4090
  938TIP3    H124373   6.423   2.919   1.794  2.7856  1.7170  0.3401
  938TIP3    H224374   6.394   3.013   1.680 -0.3899  0.9679  0.4613
  939TIP3   OH224375   2.529   1.148   2.394 -0.1295 -0.3025 -0.1068
  939TIP3    H124376   2.589   1.214   2.358 -1.8425  1.7064  0.5391
  939TIP3    H224377   2.574   1.113   2.470  0.3174  1.0683  0.2859
  940TIP3   OH224378   1.579   2.335   1.438  0.3269 -0.2293  0.4505
  940TIP3    H124379   1.624   2.371   1.362 -0.9065  1.5425  0.5109
  940TIP3    H224380   1.629   2.367   1.513  1.9428 -2.5261  0.4511
  941TIP3   OH224381   5.879   3.520   1.544  0.3523 -0.3449  0.4409
  941TIP3    H124382   5.832   3.436   1.537 -0.0952 -0.0075 -1.0635
  941TIP3    H224383   5.914   3.520   1.633  2.2535 -3.1327 -0.1627
  942TIP3   OH224384   2.573   3.336   0.889  0.0801 -0.3424  0.0028
  942TIP3    H124385   2.566   3.343   0.984 -0.2155  2.0697 -0.1268
  942TIP3    H224386   2.614   3.418   0.862 -1.1189 -0.3415 -2.0417
  943TIP3   OH224387   1.659   3.420   2.726 -0.0790  0.3586  0.0578
  943TIP3    H124388   1.671   3.489   2.661 -1.0849  1.1557  0.6850
  943TIP3    H224389   1.571   3.387   2.710  0.4098 -0.8579 -0.2759
  944TIP3   OH224390   0.581   0.308   1.412  0.2756  0.3026 -0.0227
  944TIP3    H124391   0.514   0.240   1.409  0.8404 -0.2396 -0.4756
  944TIP3    H224392   0.538   0.382   1.456 -0.4102 -0.2606  0.2663
  945TIP3   OH224393   2.324   6.609   0.892 -0.4764  0.3668 -0.1708
  945TIP3    H124394   2.411   6.632   0.923 -0.5151 -0.7993  0.8906
  945TIP3    H224395   2.333   6.518   0.861 -1.0531  0.6252 -1.1290
  946TIP3   OH224396   4.295   4.739   8.844 -0.2490 -0.3497  0.8224
  946TIP3    H124397   4.318   4.825   8.879 -0.0326 -0.6602  1.4483
  946TIP3    H224398   4.354   4.678   8.889 -1.6942 -1.0554  1.8126
  947TIP3   OH224399   2.607   6.030   1.321 -0.3798 -0.7086 -0.3749
  947TIP3    H124400   2.646   6.012   1.407 -0.3651 -1.1782 -0.4782
  947TIP3    H224401   2.519   6.064   1.341 -0.6800 -1.5745 -0.1926
  948TIP3   OH224402   2.581   1.978   8.054 -0.7149  0.2032 -0.1531
  948TIP3    H124403   2.629   1.895   8.047 -2.3486 -0.9345  1.2444
  948TIP3    H224404   2.649   2.045   8.049  1.0935 -1.3168  1.8098
  949TIP3   OH224405   1.807   6.115   8.684 -0.0750  0.2038 -0.6065
  949TIP3    H124406   1.720   6.126   8.720 -0.0185  0.0899 -0.4342
  949TIP3    H224407   1.794   6.067   8.602 -0.0705 -0.8231 -0.0166
  950TIP3   OH224408   2.433   4.719   1.880  0.5217  0.0689 -0.5777
  950TIP3    H124409   2.471   4.719   1.793  0.1201 -1.1784 -0.7769
  950TIP3    H224410   2.423   4.811   1.903 -0.1460  0.4254 -2.2062
  951TIP3   OH224411   6.654   3.146   0.514 -0.0956  0.3552 -0.5046
  951TIP3    H124412   6.732   3.096   0.487 -0.9728 -1.1185 -0.4210
  951TIP3    H224413   6.594   3.138   0.440 -0.8443 -0.0217  0.1315
  952TIP3   OH224414   4.129   0.503   1.363  0.4291  0.2721  0.4073
  952TIP3    H124415   4.098   0.454   1.287  0.1940  0.0789  0.6266
  952TIP3    H224416   4.165   0.584   1.327  0.2908  0.1945  0.0952
  953TIP3   OH224417   0.416   1.511   0.721  0.2205 -0.5118  0.0610
  953TIP3    H124418   0.438   1.580   0.783 -0.7159 -0.1723  0.0378
  953TIP3    H224419   0.430   1.430   0.769 -0.2981 -0.2564  0.6485
  954TIP3   OH224420   4.181   1.850   0.572 -0.0980  0.0223 -0.3921
  954TIP3    H124421   4.130   1.905   0.631 -2.2356 -1.5400 -0.6714
  954TIP3    H224422   4.136   1.855   0.488  0.8262 -0.5809 -0.9578
  955TIP3   OH224423   0.017   2.378   8.367 -0.0350 -0.0485 -0.7631
  955TIP3    H124424   0.071   2.380   8.446 -0.8332  0.3758 -0.2097
  955TIP3    H224425   0.062   2.435   8.305  0.3438  0.0160 -0.4298
  956TIP3   OH224426   4.038   0.363   3.052  0.1366  0.1245  0.2432
  956TIP3    H124427   4.061   0.414   3.129 -0.7089 -0.7295  1.0937
  956TIP3    H224428   4.112   0.304   3.039 -0.3216 -0.7247  1.3059
  957TIP3   OH224429   5.353   4.341   0.054 -0.0577  0.1664 -0.0377
  957TIP3    H124430   5.324   4.328  -0.036 -0.7122  1.5441 -0.0582
  957TIP3    H224431   5.444   4.311   0.055  0.5267  1.7055 -1.6061
  958TIP3   OH224432   0.596   3.310   1.827 -0.1281 -0.6533 -0.1920
  958TIP3    H124433   0.500   3.312   1.834 -0.0360  0.6012  1.3353
  958TIP3    H224434   0.621   3.232   1.876 -0.2893  0.3614  1.6101
  959TIP3   OH224435   4.727   5.077   1.078  0.2243  0.4662  0.0333
  959TIP3    H124436   4.759   5.166   1.091  0.6922 -0.0033  2.6527
  959TIP3    H224437   4.777   5.044   1.003  2.5794  1.3109  1.1314
  960TIP3   OH224438   6.705   5.854   7.958 -0.0409  0.0770  0.3884
  960TIP3    H124439   6.732   5.765   7.981  2.1424  0.3115 -0.8830
  960TIP3    H224440   6.776   5.909   7.992 -1.1574  1.2945  0.7878
  961TIP3   OH224441   3.755   0.262   3.195  0.4795  0.0389  0.7083
  961TIP3    H124442   3.780   0.296   3.109  0.7030  2.2813  1.6084
  961TIP3    H224443   3.732   0.170   3.178  2.6200 -0.2217 -1.3644
  962TIP3   OH224444   2.581   4.001   8.398  0.4797 -0.1403 -0.4117
  962TIP3    H124445   2.645   3.973   8.464 -1.2570 -3.3097  0.1421
  962TIP3    H224446   2.520   4.058   8.446 -0.3552 -1.8376  0.6496
  963TIP3   OH224447   0.707   1.651   0.656 -0.6154  0.1214 -0.3705
  963TIP3    H124448   0.632   1.682   0.705 -0.9407  0.8269 -1.2766
  963TIP3    H224449   0.674   1.637   0.567  0.2502  0.1857 -0.7193
  964TIP3   OH224450   4.190   2.591   8.902 -0.2245  0.3248 -0.1917
  964TIP3    H124451   4.144   2.553   8.977 -1.5536  1.0093 -0.6368
  964TIP3    H224452   4.210   2.681   8.929  1.2734 -0.0969  0.1631
  965TIP3   OH224453   0.422   1.740   3.409  0.2678  0.0293 -0.1974
  965TIP3    H124454   0.501   1.695   3.380 -0.0553  0.3405 -1.6590
  965TIP3    H224455   0.452   1.802   3.475  1.0191 -0.8701  0.3211
  966TIP3   OH224456   3.352   5.314   2.267 -0.0712  0.8510  0.1811
  966TIP3    H124457   3.365   5.295   2.360 -0.0734  0.1084  0.0371
  966TIP3    H224458   3.305   5.238   2.233  1.5118  0.2851 -0.8144
  967TIP3   OH224459   6.642   2.185   2.148  0.1207 -0.1051 -0.3313
  967TIP3    H124460   6.718   2.225   2.106  1.3463 -1.7042  0.2732
  967TIP3    H224461   6.638   2.097   2.112 -1.7785  0.0973 -0.7176
  968TIP3   OH224462   3.337   6.277   8.183 -0.0148 -0.6387 -0.1266
  968TIP3    H124463   3.359   6.223   8.107 -0.5628 -1.3949  0.2433
  968TIP3    H224464   3.260   6.235   8.222  0.4533 -0.4720  1.0410
  969TIP3   OH224465   0.448   1.688   0.993  0.4513  0.4901  0.0519
  969TIP3    H124466   0.537   1.683   1.028  0.9166  2.0488 -0.7916
  969TIP3    H224467   0.437   1.780   0.970 -1.3812  0.3102  0.1044
  970TIP3   OH224468   2.232   6.296   2.300  0.7483 -0.3414  0.3550
  970TIP3    H124469   2.238   6.217   2.247  1.1087 -0.4573  0.5634
  970TIP3    H224470   2.178   6.356   2.248  0.2871 -0.8021  0.3003
  971TIP3   OH224471   3.848   1.928   8.926 -0.2710  0.1914 -0.1516
  971TIP3    H124472   3.875   1.841   8.955 -1.1391 -0.4503 -1.1713
  971TIP3    H224473   3.863   1.985   9.002  1.4727 -0.5943  0.1365
  972TIP3   OH224474   2.297   5.469   2.794  0.4860 -0.4985 -0.1650
  972TIP3    H124475   2.336   5.466   2.881 -1.2741  0.4511  0.7189
  972TIP3    H224476   2.300   5.379   2.763  0.7996 -0.9237  1.0491
  973TIP3   OH224477   4.242   1.418   2.915  0.0033 -0.2497  0.3107
  973TIP3    H124478   4.314   1.450   2.860 -1.0475 -1.1108 -1.6887
  973TIP3    H224479   4.163   1.451   2.872 -0.8667 -0.0954  1.9370
  974TIP3   OH224480   5.070   1.464   2.910 -0.0606 -0.4450  0.3325
  974TIP3    H124481   5.041   1.481   2.820 -1.6440 -1.1330  0.6777
  974TIP3    H224482   5.010   1.397   2.942  0.9451 -0.7466  1.6710
  975TIP3   OH224483   5.232   3.721   2.574  0.2159  0.0391  0.3981
  975TIP3    H124484   5.245   3.664   2.649  1.0429 -1.0947 -0.5729
  975TIP3    H224485   5.301   3.786   2.581  1.7549 -1.4217 -0.5785
  976TIP3   OH224486   0.240   3.760   2.194  0.4278 -0.3170  0.3909
  976TIP3    H124487   0.165   3.816   2.175  0.7077  0.1301  0.5960
  976TIP3    H224488   0.313   3.800   2.147  1.0204  0.5013  1.9250
  977TIP3   OH224489   3.501   1.164   1.207  0.0237 -0.0220  0.4319
  977TIP3    H124490   3.543   1.150   1.122 -1.0291  0.8128 -0.2446
  977TIP3    H224491   3.568   1.139   1.271  2.2323  2.7784 -0.5624
  978TIP3   OH224492   5.427   6.030   0.849 -0.2367 -0.2776 -0.2436
  978TIP3    H124493   5.353   6.042   0.789 -0.2293 -0.9086 -0.3885
  978TIP3    H224494   5.474   5.955   0.813  0.8645  0.5209 -0.5421
  979TIP3   OH224495   1.287   5.996   8.419 -0.0849 -0.0116 -0.1172
  979TIP3    H124496   1.363   5.980   8.363 -0.2384  1.9240 -0.9605
  979TIP3    H224497   1.220   6.032   8.360 -0.9296  0.2821  0.9715
  980TIP3   OH224498   1.738   3.416   8.710 -0.4146 -0.1800  0.4669
  980TIP3    H124499   1.776   3.335   8.676 -0.4374 -0.4672  1.1055
  980TIP3    H224500   1.788   3.486   8.667  0.0241 -0.5415  0.3801
  981TIP3   OH224501   1.011   5.288   8.276 -0.2489 -0.3898  0.0715
  981TIP3    H124502   1.043   5.376   8.258  0.8167 -0.5473  1.0677
  981TIP3    H224503   1.075   5.250   8.336 -1.4669 -1.3114  0.8603
  982TIP3   OH224504   2.875   4.648   0.438  0.0364  0.1842 -0.0822
  982TIP3    H124505   2.883   4.577   0.375 -0.6750 -0.5824  0.6628
  982TIP3    H224506   2.783   4.674   0.433  0.0992  0.4811  0.2588
  983TIP3   OH224507   3.839   5.125   0.696  0.1142  0.0582  0.4187
  983TIP3    H124508   3.844   5.067   0.621 -3.6453  0.9722 -0.7182
  983TIP3    H224509   3.897   5.198   0.674  0.1333 -0.3515 -0.9247
  984TIP3   OH224510   4.528   5.760   3.225  0.6688  0.1708 -0.2086
  984TIP3    H124511   4.582   5.821   3.175 -0.1449 -0.5793 -2.1022
  984TIP3    H224512   4.580   5.680   3.229  1.1540  0.5330  1.0683
  985TIP3   OH224513   6.607   6.641   0.541 -0.3917 -0.5716  0.8955
  985TIP3    H124514   6.569   6.555   0.528  0.6997 -1.2412  1.9119
  985TIP3    H224515   6.590   6.661   0.633 -0.1714  0.0621  0.8070
  986TIP3   OH224516   1.728   3.505   8.113 -0.1841  0.4898 -0.3239
  986TIP3    H124517   1.721   3.496   8.018  1.0868 -0.6408 -0.3418
  986TIP3    H224518   1.638   3.513   8.143 -0.6500  0.0512 -1.5437
  987TIP3   OH224519   3.476   0.676   0.161 -1.0121 -0.6062 -0.1213
  987TIP3    H124520   3.428   0.654   0.241 -1.4546 -1.4058 -0.5836
  987TIP3    H224521   3.545   0.609   0.156  0.5113  0.8142  0.7893
  988TIP3   OH224522   5.795   3.367   0.062 -0.7063 -0.2441 -0.5328
  988TIP3    H124523   5.724   3.357   0.125 -0.8709  0.2466 -0.6332
  988TIP3    H224524   5.840   3.447   0.089  0.3811 -1.0422  0.0796
  989TIP3   OH224525   0.496   5.787   3.114 -0.2010  0.2687 -0.3368
  989TIP3    H124526   0.424   5.730   3.089  0.5340  0.6221 -3.7956
  989TIP3    H224527   0.574   5.731   3.114 -0.1062  0.3373  1.2172
  990TIP3   OH224528   4.951   6.200   0.214 -0.1116  0.0649 -0.0048
  990TIP3    H124529   4.884   6.269   0.212 -2.4227 -2.0240  0.1299
  990TIP3    H224530   5.002   6.218   0.293 -1.2176  1.1120  0.5058
  991TIP3   OH224531   6.528   0.918   8.046 -0.0819  0.0402  0.0675
  991TIP3    H124532   6.584   0.869   7.986 -0.3088 -0.1514  0.0094
  991TIP3    H224533   6.540   1.010   8.022  0.5132  0.0340  0.3186
  992TIP3   OH224534   6.329   6.271   8.313  0.8733 -0.7826 -0.9818
  992TIP3    H124535   6.285   6.193   8.347  0.5992  1.0540  3.7170
  992TIP3    H224536   6.422   6.252   8.323  0.8148  0.0255  2.2386
  993TIP3   OH224537   3.074   1.991   8.452  0.4514 -0.2031  0.4090
  993TIP3    H124538   3.014   1.999   8.527 -0.7455  1.5495 -0.6633
  993TIP3    H224539   3.152   2.040   8.479 -0.0493  0.5859  0.4630
  994TIP3   OH224540   2.063   5.261   1.102 -0.0933 -0.3302  0.1772
  994TIP3    H124541   2.093   5.170   1.096 -0.2726 -0.3335 -0.7321
  994TIP3    H224542   2.030   5.269   1.192  1.8876 -0.5459  0.9685
  995TIP3   OH224543   3.225   1.391   1.061  0.6187  0.3008 -0.0996
  995TIP3    H124544   3.141   1.404   1.106  0.0900 -0.3966 -0.8444
  995TIP3    H224545   3.219   1.303   1.024  2.8132 -0.9176  2.1561
  996TIP3   OH224546   5.002   5.292   8.844 -0.1200  0.3687 -0.0501
  996TIP3    H124547   4.992   5.223   8.778  0.8773  1.4420 -1.3749
  996TIP3    H224548   5.094   5.316   8.841 -0.3445  1.4227  0.7551
  997TIP3   OH224549   0.797   5.847   1.392  0.0859  0.1678  0.2752
  997TIP3    H124550   0.860   5.795   1.341  0.2608 -0.1536  0.8116
  997TIP3    H224551   0.712   5.826   1.353  0.1793 -0.3472  0.3388
  998TIP3   OH224552   4.718   4.626   2.364  0.8296 -0.3050  0.4934
  998TIP3    H124553   4.659   4.690   2.404  2.6179  0.9916  1.2437
  998TIP3    H224554   4.673   4.542   2.371 -1.4111  0.7869 -0.1030
  999TIP3   OH224555   6.054   0.604   1.326  0.0720  0.2932  0.6156
  999TIP3    H124556   6.141   0.581   1.295 -0.0310  1.7501 -0.8365
  999TIP3    H224557   5.995   0.579   1.255 -0.7198 -0.6104  1.5491
 1000TIP3   OH224558   1.845   1.392   8.775  0.2884 -0.2009 -0.9851
 1000TIP3    H124559   1.788   1.440   8.835 -0.3628 -2.2925  0.1495
 1000TIP3    H224560   1.909   1.457   8.746 -0.7565  1.4270  0.1883
 1001TIP3   OH224561   0.454   5.458   7.512 -0.4132  0.3406  0.2473
 1001TIP3    H124562   0.407   5.383   7.550  1.0066 -0.1877  1.0772
 1001TIP3    H224563   0.501   5.496   7.586 -0.5697  1.6431 -0.3064
 1002TIP3   OH224564   0.178   5.298   0.359  0.4112  0.5541  0.4847
 1002TIP3    H124565   0.095   5.329   0.395 -0.3628  0.5791 -1.2551
 1002TIP3    H224566   0.222   5.376   0.326  0.4221  0.3461 -0.0009
 1003TIP3   OH224567   4.482   5.857   0.856  0.9568  0.0288 -0.1651
 1003TIP3    H124568   4.480   5.824   0.945  0.5597 -0.6239 -0.4122
 1003TIP3    H224569   4.575   5.865   0.835  1.0515  0.3851  0.3737
 1004TIP3   OH224570   1.726   2.548   8.332 -0.1175 -0.6133  0.7201
 1004TIP3    H124571   1.758   2.579   8.247 -0.9508  1.4262  1.0988
 1004TIP3    H224572   1.743   2.454   8.330  2.0284 -0.2945 -0.7598
 1005TIP3   OH224573   6.631   1.122   1.261 -0.2453 -0.0819 -0.2757
 1005TIP3    H124574   6.558   1.184   1.259 -0.3962 -0.1260  1.6894
 1005TIP3    H224575   6.613   1.062   1.188 -2.1893 -0.0933  0.1418
 1006TIP3   OH224576   1.328   3.443   7.987  0.2257  0.0971 -0.1427
 1006TIP3    H124577   1.280   3.415   8.065 -1.7466  1.5930 -0.7437
 1006TIP3    H224578   1.401   3.496   8.022  2.2752 -3.0768  0.8276
 1007TIP3   OH224579   5.926   6.084   0.277  0.6176  0.5534 -0.4482
 1007TIP3    H124580   5.885   6.081   0.364 -1.3841  1.5851 -1.2685
 1007TIP3    H224581   5.888   6.009   0.231  2.8541 -0.9256 -0.0312
 1008TIP3   OH224582   3.137   4.789   1.093  0.2604 -1.0662 -0.3236
 1008TIP3    H124583   3.118   4.733   1.168  1.7987  0.6624  1.4727
 1008TIP3    H224584   3.059   4.843   1.082  0.1308 -1.1332  0.2401
 1009TIP3   OH224585   1.763   2.509   0.727  0.8681  0.1708  0.1202
 1009TIP3    H124586   1.844   2.560   0.725  0.5561  0.6699 -0.1200
 1009TIP3    H224587   1.790   2.420   0.705  1.7240 -0.2072  2.4804
 1010TIP3   OH224588   5.534   6.350   0.012  0.0006 -0.6512  0.6384
 1010TIP3    H124589   5.588   6.422  -0.021  0.9501 -2.7125 -2.8366
 1010TIP3    H224590   5.484   6.389   0.084  1.7563  2.9461  0.1603
 1011TIP3   OH224591   2.959   0.955   7.567  0.1931 -0.3994 -0.0078
 1011TIP3    H124592   2.867   0.983   7.561  0.0714 -1.1339 -3.0759
 1011TIP3    H224593   3.007   1.035   7.587 -0.9275  0.3633 -0.2739
 1012TIP3   OH224594   3.118   3.108   0.286 -0.2624 -0.1539 -0.1846
 1012TIP3    H124595   3.213   3.121   0.287 -0.4431  1.4208  0.9504
 1012TIP3    H224596   3.103   3.044   0.216  1.4521  1.0778 -1.7916
 1013TIP3   OH224597   6.608   1.856   0.032 -0.7538 -0.2979  0.0855
 1013TIP3    H124598   6.669   1.878  -0.039 -0.6353 -1.2600 -0.1285
 1013TIP3    H224599   6.665   1.838   0.107 -0.9347  3.3757  1.3033
 1014TIP3   OH224600   3.932   6.468   8.276  0.2670 -0.2951  0.2704
 1014TIP3    H124601   3.839   6.482   8.256 -0.1895 -1.1042  1.7091
 1014TIP3    H224602   3.962   6.553   8.308 -0.5761 -0.5718  1.8990
 1015TIP3   OH224603   2.810   2.662   3.466  0.6701  0.2037  0.6429
 1015TIP3    H124604   2.826   2.632   3.555 -0.4754 -1.7392  0.2509
 1015TIP3    H224605   2.737   2.609   3.435  1.8123 -0.0691 -1.8678
 1016TIP3   OH224606   1.092   6.051   2.020 -0.4838  0.4788  0.3945
 1016TIP3    H124607   1.174   6.095   2.045  0.1338  0.2073 -1.0088
 1016TIP3    H224608   1.055   6.107   1.951 -1.3337  0.4440  0.8145
 1017TIP3   OH224609   1.351   0.168   2.226  0.0080  0.4895  0.4189
 1017TIP3    H124610   1.293   0.216   2.284 -0.0085  1.3957 -0.3296
 1017TIP3    H224611   1.423   0.138   2.283  0.1471  1.6169  0.8550
 1018TIP3   OH224612   3.453   0.712   2.976 -0.1930 -1.0423 -0.1937
 1018TIP3    H124613   3.499   0.717   3.060  0.4622  0.4324 -0.6067
 1018TIP3    H224614   3.520   0.681   2.915 -0.4141 -1.2289 -0.3391
 1019TIP3   OH224615   1.999   3.289   8.250 -0.5615 -0.5655 -0.2340
 1019TIP3    H124616   2.057   3.241   8.191 -1.0271 -0.1248 -1.0617
 1019TIP3    H224617   2.026   3.381   8.241  0.5014 -0.6429  1.5325
 1020TIP3   OH224618   4.293   3.847   2.101  0.3944  0.3259 -0.0810
 1020TIP3    H124619   4.357   3.884   2.162 -0.3250  0.2507  0.7230
 1020TIP3    H224620   4.347   3.801   2.036  1.1915  0.8810  0.1648
 1021TIP3   OH224621   2.762   5.114   8.173 -0.1644  0.8190 -0.4013
 1021TIP3    H124622   2.798   5.057   8.240 -0.7828  0.5667 -0.2760
 1021TIP3    H224623   2.770   5.063   8.092  0.9659  1.2868 -0.6045
 1022TIP3   OH224624   1.844   1.861   2.735  0.1471  0.1775 -0.1320
 1022TIP3    H124625   1.788   1.922   2.784 -0.2300  0.3770 -0.7990
 1022TIP3    H224626   1.903   1.918   2.685  0.2417 -0.0146 -0.2389
 1023TIP3   OH224627   2.722   3.424   3.152  0.6674 -0.2886 -0.5741
 1023TIP3    H124628   2.701   3.380   3.070  0.0626 -0.4489 -0.3435
 1023TIP3    H224629   2.645   3.409   3.207  1.0500 -0.1521  0.0076
 1024TIP3   OH224630   1.625   3.774   8.619  0.0916  0.5690  0.3083
 1024TIP3    H124631   1.615   3.816   8.705  0.4688 -1.3941  1.3792
 1024TIP3    H224632   1.712   3.735   8.621  1.0076  2.2692 -1.8685
 1025TIP3   OH224633   1.872   2.022   7.813 -0.2609 -0.6787 -0.3349
 1025TIP3    H124634   1.946   2.049   7.758  0.3250  0.2492  0.8561
 1025TIP3    H224635   1.817   2.100   7.819  0.4205 -0.2670  1.5138
 1026TIP3   OH224636   3.757   0.006   2.442  0.5199 -0.0253  0.6003
 1026TIP3    H124637   3.724   0.087   2.405  1.6152  0.4291  0.5814
 1026TIP3    H224638   3.712  -0.002   2.526  1.7922  1.6161  1.4928
 1027TIP3   OH224639   5.272   1.541   8.263  0.5178 -0.1358  0.3712
 1027TIP3    H124640   5.334   1.564   8.194  0.1685 -0.6999 -0.1281
 1027TIP3    H224641   5.287   1.448   8.279 -0.8192 -0.5077 -0.3871
 1028TIP3   OH224642   4.962   0.317   0.330  0.3299 -0.3795  0.6634
 1028TIP3    H124643   4.981   0.240   0.277  2.4293  0.4512  0.1320
 1028TIP3    H224644   4.956   0.389   0.267  1.2294  0.3475  1.3766
 1029TIP3   OH224645   0.691   4.377   2.821 -0.3981  0.4247  0.4328
 1029TIP3    H124646   0.672   4.414   2.907 -0.3005  0.4059  0.4635
 1029TIP3    H224647   0.618   4.318   2.803 -0.1949  0.0874  0.7038
 1030TIP3   OH224648   4.917   3.508   0.068 -0.1122 -0.3694 -0.1716
 1030TIP3    H124649   4.919   3.482  -0.024 -0.8058 -0.2495 -0.2263
 1030TIP3    H224650   4.904   3.427   0.117 -1.1251 -0.2867 -0.2729
 1031TIP3   OH224651   3.571   5.674   0.980  0.2425 -0.0275  0.1145
 1031TIP3    H124652   3.516   5.608   1.022 -0.4008  0.6596  0.3741
 1031TIP3    H224653   3.599   5.633   0.898  0.4150 -0.8725  0.5881
 1032TIP3   OH224654   4.761   6.231   1.371  0.4546  0.3981 -0.8743
 1032TIP3    H124655   4.796   6.265   1.454  0.7314  1.8264 -1.5352
 1032TIP3    H224656   4.668   6.252   1.374  0.8476  2.5610 -1.8442
 1033TIP3   OH224657   3.792   0.757   8.431  0.2944  0.3679 -0.0263
 1033TIP3    H124658   3.849   0.833   8.418  0.8677 -0.1501 -0.6224
 1033TIP3    H224659   3.800   0.708   8.350 -3.1097  1.6310 -1.3093
 1034TIP3   OH224660   3.409   6.200   7.126  0.0765  0.0582 -0.0080
 1034TIP3    H124661   3.380   6.221   7.214 -1.3650  0.1277 -0.4750
 1034TIP3    H224662   3.328   6.190   7.075  0.8169 -1.5564 -0.9632
 1035TIP3   OH224663   5.011   3.773   0.380  0.3018  0.1686 -0.0044
 1035TIP3    H124664   5.025   3.747   0.289 -2.3836 -2.2348  0.1443
 1035TIP3    H224665   4.928   3.821   0.379  0.4577  0.4881  1.1210
 1036TIP3   OH224666   4.355   0.779   0.994 -0.0406 -0.4456  0.1270
 1036TIP3    H124667   4.441   0.816   1.014  0.0462 -0.0477 -0.9265
 1036TIP3    H224668   4.301   0.855   0.975 -0.0454 -0.8022 -1.3700
 1037TIP3   OH224669   4.283   0.841   0.721 -0.1106 -0.0899 -0.0209
 1037TIP3    H124670   4.248   0.905   0.783  0.1899 -0.2209  0.2790
 1037TIP3    H224671   4.224   0.766   0.728  0.8311 -0.7379  1.2624
 1038TIP3   OH224672   4.054   2.447   0.057  0.3090  0.1340  0.4106
 1038TIP3    H124673   3.972   2.401   0.044  1.2966 -1.8717  0.9074
 1038TIP3    H224674   4.043   2.492   0.141 -0.3852  0.1926  0.2959
 1039TIP3   OH224675   4.455   0.831   2.711 -1.0393  0.2686  0.3498
 1039TIP3    H124676   4.436   0.809   2.802  2.3092 -2.9260  0.5000
 1039TIP3    H224677   4.528   0.894   2.716 -1.4380  0.7790 -0.1449
 1040TIP3   OH224678   1.014   3.305   1.830 -0.5922  0.1925 -0.1285
 1040TIP3    H124679   0.966   3.363   1.771  1.4374  2.4762  0.3229
 1040TIP3    H224680   1.082   3.265   1.776 -1.3374 -1.0308 -0.2021
 1041TIP3   OH224681   0.508   5.926   2.583  0.1300 -0.2818 -0.0957
 1041TIP3    H124682   0.557   6.008   2.590  2.0591 -1.2208 -1.8258
 1041TIP3    H224683   0.476   5.925   2.493 -2.2791 -0.1916  0.6871
 1042TIP3   OH224684   0.295   2.557   2.202 -0.4092  0.4990 -0.0826
 1042TIP3    H124685   0.287   2.649   2.179 -0.1802  0.7588  0.8645
 1042TIP3    H224686   0.210   2.534   2.239  0.1683  0.8764  1.5541
 1043TIP3   OH224687   3.845   1.309   0.878 -0.2337 -0.3827  0.2067
 1043TIP3    H124688   3.932   1.346   0.866 -0.2634 -0.3341  0.1360
 1043TIP3    H224689   3.802   1.367   0.941 -1.1627  1.2210 -1.7784
 1044TIP3   OH224690   5.629   4.939   1.490  0.1220  0.0704  0.2076
 1044TIP3    H124691   5.618   4.856   1.537  0.1335 -0.6659 -1.0372
 1044TIP3    H224692   5.663   4.914   1.404 -3.6231  0.8962 -1.7761
 1045TIP3   OH224693   0.416   6.461   1.231 -0.1733  0.1005  0.1194
 1045TIP3    H124694   0.449   6.472   1.320 -1.4221  0.5275  0.5576
 1045TIP3    H224695   0.335   6.411   1.241  0.1369 -0.6399 -0.8776
 1046TIP3   OH224696   0.015   1.211   1.791  0.0446 -0.1183  0.2493
 1046TIP3    H124697  -0.018   1.184   1.706  3.6911  0.6994 -1.6094
 1046TIP3    H224698   0.017   1.306   1.788  0.1491 -0.0669  1.3095
 1047TIP3   OH224699   1.476   4.580   2.956 -0.1203 -0.2878  0.1841
 1047TIP3    H124700   1.384   4.562   2.937 -0.0598 -0.2431 -0.1518
 1047TIP3    H224701   1.522   4.500   2.931  0.0033 -0.0981 -0.2014
 1048TIP3   OH224702   5.777   3.283   3.211 -0.3162 -0.4052  0.2125
 1048TIP3    H124703   5.841   3.212   3.207  0.1856  0.0129  0.6071
 1048TIP3    H224704   5.761   3.294   3.305 -0.1033  0.2503  0.1766
 1049TIP3   OH224705   3.985   1.547   8.538  0.0074  0.1328 -0.1113
 1049TIP3    H124706   3.986   1.638   8.509  0.3375  0.8584  2.0389
 1049TIP3    H224707   4.077   1.527   8.555 -0.2317 -0.0577  1.0032
 1050TIP3   OH224708   1.039   0.805   2.406  0.0790  0.4488 -0.0193
 1050TIP3    H124709   1.044   0.762   2.492  2.3181 -0.9232 -0.7487
 1050TIP3    H224710   0.985   0.746   2.353 -0.2954  0.6870  0.0877
 1051TIP3   OH224711   4.910   4.686   0.589  0.2833 -0.2377  0.4142
 1051TIP3    H124712   4.876   4.647   0.508  0.1326  1.2747 -0.2802
 1051TIP3    H224713   4.832   4.722   0.632  0.2287 -1.7975  1.7125
 1052TIP3   OH224714   3.401   5.638   2.042 -0.1216 -0.1922  0.1257
 1052TIP3    H124715   3.469   5.570   2.038 -0.6709 -0.7064 -1.5105
 1052TIP3    H224716   3.322   5.590   2.065 -0.4450 -0.0627 -0.6882
 1053TIP3   OH224717   4.465   5.536   8.447 -0.5104 -0.3297  0.1786
 1053TIP3    H124718   4.463   5.448   8.484 -1.4450 -0.8521 -1.0403
 1053TIP3    H224719   4.412   5.530   8.367  1.0800  0.8282 -1.0333
 1054TIP3   OH224720   5.753   6.395   2.462 -0.1917 -0.4070 -0.1375
 1054TIP3    H124721   5.695   6.320   2.472 -0.6202 -0.0358  0.2038
 1054TIP3    H224722   5.816   6.369   2.395 -0.0307 -1.2598  0.3329
 1055TIP3   OH224723   2.546   4.736   8.145  0.1787  0.2741  0.0001
 1055TIP3    H124724   2.538   4.679   8.068 -0.3929  2.8820 -1.9849
 1055TIP3    H224725   2.639   4.732   8.167  0.3662 -0.4968 -0.8333
 1056TIP3   OH224726   1.502   3.605   2.862  0.3293 -0.6200  0.3050
 1056TIP3    H124727   1.567   3.667   2.895  1.3305 -2.2979  1.6473
 1056TIP3    H224728   1.554   3.531   2.830 -0.8047 -0.5654 -1.8077
 1057TIP3   OH224729   0.259   4.967   1.637 -0.3306 -0.1586  0.1963
 1057TIP3    H124730   0.305   5.001   1.714 -1.7199  0.8206  0.6415
 1057TIP3    H224731   0.318   4.987   1.564  0.7474 -0.5740  0.9264
 1058TIP3   OH224732   1.068   3.880   2.294  0.0575  0.4802  0.2035
 1058TIP3    H124733   1.110   3.875   2.380 -1.4209 -0.0579  0.9260
 1058TIP3    H224734   1.107   3.807   2.245  0.5088  0.4405  0.6043
 1059TIP3   OH224735   5.699   1.701   2.680 -0.5107  0.1236  0.0862
 1059TIP3    H124736   5.678   1.764   2.749 -0.2833  0.8985 -0.5282
 1059TIP3    H224737   5.630   1.715   2.614  1.0269  1.7006 -1.3077
 1060TIP3   OH224738   2.402   4.763   2.748 -0.0990  0.1112  0.2581
 1060TIP3    H124739   2.498   4.765   2.749 -0.1101  0.6498  0.6708
 1060TIP3    H224740   2.376   4.854   2.735 -0.5622  0.5100  3.2311
 1061TIP3   OH224741   6.719   6.301   0.927  0.6282  0.6175 -1.2095
 1061TIP3    H124742   6.785   6.248   0.972 -1.9511 -0.2574  1.8364
 1061TIP3    H224743   6.666   6.237   0.878  0.7549  1.0816 -1.9797
 1062TIP3   OH224744   0.163   1.405   2.016  0.0710  0.5543 -0.3471
 1062TIP3    H124745   0.248   1.410   1.973 -0.1387  1.0264 -0.7139
 1062TIP3    H224746   0.102   1.383   1.946 -0.5186  2.8846 -0.6551
 1063TIP3   OH224747   3.898   1.522   1.502 -0.0239  0.5775  0.1520
 1063TIP3    H124748   3.833   1.460   1.469  3.3489 -2.1469 -2.0846
 1063TIP3    H224749   3.892   1.597   1.444 -0.0957 -0.4100 -1.1662
 1064TIP3   OH224750   2.737   5.042   0.981  0.4036  0.5086  0.1172
 1064TIP3    H124751   2.646   5.034   1.008  0.7465 -0.3356  1.0774
 1064TIP3    H224752   2.739   5.008   0.892 -0.1627  0.1868  0.2238
 1065TIP3   OH224753   1.172   0.696   0.726  0.4061 -0.2887 -0.2254
 1065TIP3    H124754   1.256   0.732   0.699  1.1998 -1.6139  0.3734
 1065TIP3    H224755   1.173   0.606   0.695 -2.0833  0.4323 -2.8901
 1066TIP3   OH224756   4.369   1.568   2.092  0.0105 -0.7447 -0.0321
 1066TIP3    H124757   4.280   1.578   2.056 -0.5647 -1.1061  1.2266
 1066TIP3    H224758   4.415   1.515   2.027 -1.0391 -1.5134 -0.1842
 1067TIP3   OH224759   4.273   3.701   0.464 -0.2050 -0.1977 -0.1350
 1067TIP3    H124760   4.207   3.769   0.464 -1.8684 -1.7483  0.1284
 1067TIP3    H224761   4.234   3.628   0.416  0.9983 -1.4472  0.6785
 1068TIP3   OH224762   5.723   2.647   2.443  0.7476 -0.1198  0.0537
 1068TIP3    H124763   5.719   2.555   2.417 -0.7940 -0.0426 -0.1187
 1068TIP3    H224764   5.634   2.667   2.472  0.6536  1.7186 -1.3355
 1069TIP3   OH224765   6.455   1.006   1.020  0.0038 -0.4731  0.4235
 1069TIP3    H124766   6.444   1.094   1.055 -4.3901 -0.4881 -0.3234
 1069TIP3    H224767   6.487   1.019   0.931  1.5257  0.1482  1.0291
 1070TIP3   OH224768   1.610   2.883   8.115 -0.0161  0.5494 -0.4359
 1070TIP3    H124769   1.672   2.911   8.048  0.2117 -0.2317 -0.5581
 1070TIP3    H224770   1.617   2.788   8.116 -1.0362  0.4655 -0.2824
 1071TIP3   OH224771   5.316   5.230   1.447 -0.5222 -0.0778 -0.2803
 1071TIP3    H124772   5.281   5.166   1.385  1.6456 -2.2782  0.5615
 1071TIP3    H224773   5.350   5.301   1.392 -0.6711 -0.8831 -1.4616
 1072TIP3   OH224774   5.021   2.504   8.427 -0.1945 -0.3973  0.2460
 1072TIP3    H124775   5.022   2.468   8.338  0.2617 -2.3720  0.9890
 1072TIP3    H224776   4.943   2.559   8.429  0.6314  0.9812 -1.8130
 1073TIP3   OH224777   0.839   6.548   8.831 -0.5121 -0.4078  0.2818
 1073TIP3    H124778   0.762   6.602   8.810 -0.6343 -0.3834  0.7919
 1073TIP3    H224779   0.810   6.458   8.815 -0.7507 -0.4220  0.7974
 1074TIP3   OH224780   2.290   0.826   2.704 -0.0280  0.3238 -0.1374
 1074TIP3    H124781   2.266   0.751   2.759 -2.4373  1.2145  0.1640
 1074TIP3    H224782   2.214   0.840   2.648  0.9172  1.7219 -1.1360
 1075TIP3   OH224783   6.236   0.558   0.286  0.2663  0.8328 -0.1588
 1075TIP3    H124784   6.199   0.591   0.368  1.7273 -0.6184  1.1614
 1075TIP3    H224785   6.263   0.636   0.238 -1.2513  1.7419  0.3961
 1076TIP3   OH224786   6.140   6.387   8.128 -0.7066  0.2143 -0.2834
 1076TIP3    H124787   6.194   6.361   8.203  0.3201  0.1453 -1.0373
 1076TIP3    H224788   6.055   6.410   8.167  0.1235  1.1841  1.0125
 1077TIP3   OH224789   6.421   2.669   1.299  0.0646  0.3806 -0.1286
 1077TIP3    H124790   6.333   2.690   1.328 -0.7797 -0.5567 -1.8677
 1077TIP3    H224791   6.427   2.574   1.305  0.9589  0.4295 -0.0502
 1078TIP3   OH224792   3.084   1.330   0.118  0.4763  1.0462 -0.1247
 1078TIP3    H124793   3.045   1.261   0.171  0.2586  0.1307 -1.4304
 1078TIP3    H224794   3.010   1.386   0.095  0.3509  0.7201 -0.5230
 1079TIP3   OH224795   4.706   0.454   8.406  0.1489  0.9194 -0.3256
 1079TIP3    H124796   4.752   0.374   8.379  1.4325  1.5002  0.0939
 1079TIP3    H224797   4.616   0.441   8.374  0.8983  0.3668 -2.3923
 1080TIP3   OH224798   2.416   0.943   7.616 -0.2087  0.4972 -0.8058
 1080TIP3    H124799   2.479   0.993   7.565 -0.0314  0.0402 -1.0371
 1080TIP3    H224800   2.399   0.997   7.693  2.3004 -0.4009  0.4991
 1081TIP3   OH224801   2.581   2.714   1.058 -0.0759  0.3597  0.2373
 1081TIP3    H124802   2.570   2.620   1.047 -0.2357  0.1470  1.9510
 1081TIP3    H224803   2.667   2.725   1.096 -1.0327  0.6585  2.4457
 1082TIP3   OH224804   5.111   5.209   8.442  0.1055  0.5914 -0.3628
 1082TIP3    H124805   5.063   5.180   8.365  1.5010 -1.8910 -0.4121
 1082TIP3    H224806   5.203   5.205   8.415  0.6170 -0.3601  1.4190
 1083TIP3   OH224807   3.659   1.724   1.941  0.4585  0.0967  0.6423
 1083TIP3    H124808   3.724   1.688   1.881  0.5455 -1.8055  1.8111
 1083TIP3    H224809   3.709   1.782   1.999  0.7126  0.3740  0.1501
 1084TIP3   OH224810   4.738   2.110   8.858 -0.0667  0.0003  0.2253
 1084TIP3    H124811   4.772   2.049   8.924 -0.6972 -0.6736 -0.0630
 1084TIP3    H224812   4.664   2.065   8.819  0.3119  0.3682 -0.9780
 1085TIP3   OH224813   1.948   0.567   2.836  0.1881  0.1321 -0.0857
 1085TIP3    H124814   1.890   0.643   2.831 -0.3264 -0.0495  1.9793
 1085TIP3    H224815   1.893   0.493   2.810  0.5514  0.3651 -1.6162
 1086TIP3   OH224816   1.030   5.825   0.439 -0.0669 -0.3433  0.4614
 1086TIP3    H124817   1.051   5.767   0.513  1.5515 -0.0368  0.2726
 1086TIP3    H224818   1.102   5.812   0.377  0.2004  1.6466  0.2898
 1087TIP3   OH224819   5.086   0.869   2.573  0.1358  0.5555 -0.5701
 1087TIP3    H124820   5.169   0.904   2.605  0.5473 -0.8456 -0.0518
 1087TIP3    H224821   5.030   0.946   2.561  0.7421  1.3262  1.2906
 1088TIP3   OH224822   4.755   2.506   2.688  0.3549 -0.1477  0.0281
 1088TIP3    H124823   4.832   2.516   2.743  0.1766 -0.8334  0.4168
 1088TIP3    H224824   4.716   2.593   2.683  0.1844 -0.1391  1.2680
 1089TIP3   OH224825   1.656   4.229   1.227 -0.5425 -0.8618  0.3231
 1089TIP3    H124826   1.662   4.145   1.273  1.4624 -0.6800  0.5177
 1089TIP3    H224827   1.662   4.294   1.297  1.6576 -0.5871 -0.0465
 1090TIP3   OH224828   3.523   5.765   8.564  0.4178  0.0619  0.1557
 1090TIP3    H124829   3.472   5.820   8.504 -0.1929  0.4840  1.0363
 1090TIP3    H224830   3.471   5.762   8.644  0.9426 -0.9711  0.4755
 1091TIP3   OH224831   1.209   6.320   0.046  0.1054  0.0716  0.8446
 1091TIP3    H124832   1.152   6.325   0.123 -0.0948 -0.6515  0.7478
 1091TIP3    H224833   1.237   6.410   0.032 -0.0338  0.2487  1.6314
 1092TIP3   OH224834   2.911   2.173   2.131  0.1505  0.4054 -0.3379
 1092TIP3    H124835   2.957   2.164   2.214  1.1852 -1.2831 -1.0432
 1092TIP3    H224836   2.819   2.154   2.152  0.0033  2.1517  0.7728
 1093TIP3   OH224837   0.680   3.386   0.495 -0.0146  0.0865  0.3087
 1093TIP3    H124838   0.757   3.422   0.451 -1.2408  3.9569  0.9465
 1093TIP3    H224839   0.625   3.353   0.424  1.7427 -1.9770 -0.2125
 1094TIP3   OH224840   2.832   5.258   8.515 -0.4654  0.2509 -0.2723
 1094TIP3    H124841   2.818   5.312   8.437 -1.2533 -0.8008 -0.8847
 1094TIP3    H224842   2.744   5.240   8.548 -0.1606  0.2482  0.5574
 1095TIP3   OH224843   5.432   4.414   2.165  0.0320 -0.1246  0.5317
 1095TIP3    H124844   5.370   4.476   2.127 -0.6913 -1.2565 -0.1944
 1095TIP3    H224845   5.443   4.443   2.255 -0.4092  0.9526  0.2611
 1096TIP3   OH224846   6.305   0.014   1.293  0.4109 -0.0225  0.1666
 1096TIP3    H124847   6.320   0.100   1.254  0.2993  0.0882  0.3663
 1096TIP3    H224848   6.390  -0.011   1.330  0.2335  0.3879  0.8707
 1097TIP3   OH224849   4.143   2.820   0.643 -1.1697 -0.0087 -0.1726
 1097TIP3    H124850   4.061   2.854   0.606 -1.4905 -0.3725  0.1910
 1097TIP3    H224851   4.123   2.806   0.736 -1.0724 -1.2348 -0.3185
 1098TIP3   OH224852   1.361   1.876   0.859 -0.1495 -0.1819 -0.1230
 1098TIP3    H124853   1.365   1.908   0.769  0.7176 -0.9992 -0.3793
 1098TIP3    H224854   1.272   1.843   0.868 -0.7285  1.2625 -0.1909
 1099TIP3   OH224855   5.776   3.501   2.478 -0.2923 -0.2223 -0.1401
 1099TIP3    H124856   5.694   3.535   2.515  0.0748 -0.2352  0.7060
 1099TIP3    H224857   5.844   3.528   2.540  0.4994  0.6428 -1.3239
 1100TIP3   OH224858   3.072   2.140   7.612  0.7715 -0.8261 -0.0439
 1100TIP3    H124859   3.041   2.050   7.623  1.1997 -1.1735 -1.5366
 1100TIP3    H224860   3.157   2.142   7.656  0.7812 -1.1720 -0.0438
 1101TIP3   OH224861   6.365   3.680   1.449 -0.1734 -0.6265  0.1236
 1101TIP3    H124862   6.345   3.720   1.364 -1.3353  2.2705  1.5933
 1101TIP3    H224863   6.305   3.605   1.455 -1.3895  0.2154 -0.9041
 1102TIP3   OH224864   6.708   1.684   0.248  0.1589 -0.2271  0.8510
 1102TIP3    H124865   6.778   1.619   0.259  1.1290  0.9331  1.7007
 1102TIP3    H224866   6.692   1.717   0.336 -0.8434  0.1728  0.5267
 1103TIP3   OH224867   1.936   3.122   3.044 -0.4439  0.5352 -0.4098
 1103TIP3    H124868   1.869   3.054   3.038 -0.4387  0.6633 -3.5253
 1103TIP3    H224869   1.891   3.202   3.016  0.2602  1.2776  0.5138
 1104TIP3   OH224870   0.167   4.493   2.185 -0.2284  0.3369 -0.0391
 1104TIP3    H124871   0.134   4.531   2.266 -0.1844  2.0072 -0.7767
 1104TIP3    H224872   0.229   4.426   2.214 -1.6258 -0.4429  1.3087
 1105TIP3   OH224873   1.409   4.052   8.507  0.6816 -0.2978  0.2422
 1105TIP3    H124874   1.419   4.147   8.498 -0.9745 -0.0988  0.2271
 1105TIP3    H224875   1.359   4.026   8.430  1.4086 -1.2486  0.0783
 1106TIP3   OH224876   0.837   0.155   8.211  0.2227  0.7612  0.6035
 1106TIP3    H124877   0.795   0.222   8.156 -1.6460  0.1526  1.2200
 1106TIP3    H224878   0.873   0.092   8.148  2.3674  2.4503 -0.0112
 1107TIP3   OH224879   1.154   2.582   8.185 -0.1145 -0.0568  0.5868
 1107TIP3    H124880   1.162   2.677   8.179  0.0006 -0.1592 -2.4896
 1107TIP3    H224881   1.227   2.548   8.132 -0.6543 -1.8281  0.8993
 1108TIP3   OH224882   5.137   0.549   1.381 -0.1699 -0.3381  0.0604
 1108TIP3    H124883   5.152   0.514   1.469  0.0621 -3.1028 -0.9696
 1108TIP3    H224884   5.216   0.599   1.362 -0.6681  1.2194  1.7598
 1109TIP3   OH224885   5.725   5.917   0.131 -0.5010  0.5250  0.0590
 1109TIP3    H124886   5.728   5.822   0.148 -1.5835  0.5590  0.5274
 1109TIP3    H224887   5.648   5.947   0.179  0.7905  1.9533  1.3350
 1110TIP3   OH224888   0.773   4.696   0.253 -0.5664 -0.5136 -0.1371
 1110TIP3    H124889   0.704   4.652   0.302 -0.3787 -0.8590 -0.1785
 1110TIP3    H224890   0.839   4.628   0.239  0.8328  0.3444  1.8435
 1111TIP3   OH224891   4.665   3.273   1.099  0.1747 -0.0958  0.2754
 1111TIP3    H124892   4.606   3.287   1.025 -1.3035  2.5194  1.8207
 1111TIP3    H224893   4.651   3.181   1.123 -1.1311 -0.3063 -1.1419
 1112TIP3   OH224894   1.780   4.572   0.050 -0.0067 -0.0574 -0.5480
 1112TIP3    H124895   1.850   4.631   0.079  0.6296 -0.3507 -1.4515
 1112TIP3    H224896   1.798   4.557  -0.043  1.2029 -3.4273  0.0793
 1113TIP3   OH224897   5.206   2.424   3.258  0.5265  0.1691  0.7650
 1113TIP3    H124898   5.287   2.437   3.308 -0.1899  0.0512  1.9968
 1113TIP3    H224899   5.151   2.498   3.282  0.4457  0.5172 -0.4611
 1114TIP3   OH224900   4.799   1.208   7.968  0.1024  0.3623  0.0830
 1114TIP3    H124901   4.800   1.302   7.985 -1.0403  0.7302 -1.6306
 1114TIP3    H224902   4.706   1.186   7.961  0.3809 -0.4187 -1.7314
 1115TIP3   OH224903   4.672   5.432   0.620  0.1974 -0.0775  0.3448
 1115TIP3    H124904   4.668   5.452   0.526  1.4064 -0.6773  0.1469
 1115TIP3    H224905   4.742   5.488   0.653  0.0518 -0.1722  0.8174
 1116TIP3   OH224906   2.484   6.247   1.828 -0.3715 -0.5355  0.3567
 1116TIP3    H124907   2.547   6.281   1.764 -1.0931  0.2720  0.0510
 1116TIP3    H224908   2.535   6.188   1.882  0.4941 -0.4428 -0.3256
 1117TIP3   OH224909   1.476   0.292   0.626 -0.0461  0.3856 -0.1264
 1117TIP3    H124910   1.503   0.236   0.553  0.9160 -0.3482  0.7598
 1117TIP3    H224911   1.532   0.370   0.618  2.2032 -0.9330  1.4389
 1118TIP3   OH224912   4.090   3.400   0.806  0.1040 -0.4629  0.5555
 1118TIP3    H124913   4.052   3.488   0.808  0.8184 -0.1037 -0.5459
 1118TIP3    H224914   4.123   3.386   0.895 -0.5646  0.1187  0.9099
 1119TIP3   OH224915   2.013   0.311   1.064  0.0044  0.1736  0.1639
 1119TIP3    H124916   2.080   0.252   1.098 -1.1849 -1.7144 -0.6430
 1119TIP3    H224917   1.930   0.270   1.087 -0.8638  0.5582 -2.0045
 1120TIP3   OH224918   4.915   0.744   7.252 -0.1020 -0.3131  0.0366
 1120TIP3    H124919   4.992   0.760   7.306 -0.5021 -1.4745  0.9953
 1120TIP3    H224920   4.846   0.797   7.292 -0.2375 -0.6741  0.2897
 1121TIP3   OH224921   1.915   6.507   2.882 -0.0527  0.3844 -0.0470
 1121TIP3    H124922   1.831   6.538   2.850 -0.4914 -0.1042  0.6127
 1121TIP3    H224923   1.949   6.580   2.935 -0.9328 -0.1053  1.2323
 1122TIP3   OH224924   5.980   3.769   8.280 -0.1759 -0.3442  0.4619
 1122TIP3    H124925   6.048   3.816   8.328 -1.6036  0.4009  1.8259
 1122TIP3    H224926   5.898   3.792   8.324 -1.4733 -0.3471 -1.7860
 1123TIP3   OH224927   3.552   1.109   7.823 -0.2935 -0.1876 -0.2176
 1123TIP3    H124928   3.531   1.111   7.916  0.5728  0.1112 -0.0117
 1123TIP3    H224929   3.629   1.166   7.815  1.6592 -2.6924 -0.5808
 1124TIP3   OH224930   2.886   2.940   2.444 -0.4295 -0.6675  0.0193
 1124TIP3    H124931   2.909   2.849   2.425  0.6886 -0.2758 -0.5407
 1124TIP3    H224932   2.892   2.985   2.360 -3.1921 -0.4871 -0.1870
 1125TIP3   OH224933   4.332   0.331   0.869  0.3205 -0.1344  0.2923
 1125TIP3    H124934   4.343   0.417   0.910 -0.7168  0.9146 -1.4776
 1125TIP3    H224935   4.334   0.350   0.775  2.1027 -2.3508 -0.1943
 1126TIP3   OH224936   2.818   5.268   0.720  0.5197  0.0009  0.4277
 1126TIP3    H124937   2.863   5.240   0.641  0.7284  1.4358  0.0068
 1126TIP3    H224938   2.729   5.289   0.691  0.2035 -0.7287  0.8378
 1127TIP3   OH224939   6.675   0.336   1.969 -0.2743 -0.4785  0.1672
 1127TIP3    H124940   6.653   0.350   2.061  1.3913 -1.2909  0.7272
 1127TIP3    H224941   6.647   0.246   1.951 -0.0964 -0.5086  0.0407
 1128TIP3   OH224942   2.377   0.772   8.759  0.4071 -0.6326 -0.4876
 1128TIP3    H124943   2.329   0.754   8.678 -1.3834  1.3109  0.0335
 1128TIP3    H224944   2.458   0.814   8.730 -0.7455  1.1378 -1.2955
 1129TIP3   OH224945   4.457   5.185   0.993  0.1095  0.6798  0.2865
 1129TIP3    H124946   4.439   5.115   0.931  0.6751  0.6946  0.0991
 1129TIP3    H224947   4.548   5.171   1.020 -0.0275  0.8694  0.8583
 1130TIP3   OH224948   3.206   1.572   2.150  0.2768 -0.6537  0.4616
 1130TIP3    H124949   3.154   1.585   2.070  0.7947  0.4068  0.2824
 1130TIP3    H224950   3.297   1.571   2.120  0.6184  1.6247  1.1870
 1131TIP3   OH224951   0.262   4.580   7.645  0.0323  0.0523 -0.7310
 1131TIP3    H124952   0.200   4.619   7.584  0.4780 -0.1209 -1.2985
 1131TIP3    H224953   0.269   4.644   7.716  0.0597  0.5873 -1.2076
 1132TIP3   OH224954   4.099   3.028   0.328 -0.3228  0.0830 -0.5109
 1132TIP3    H124955   4.019   3.059   0.285  1.1617  1.9399 -2.1083
 1132TIP3    H224956   4.101   3.074   0.412  0.0559  1.6475 -1.3437
 1133TIP3   OH224957   0.508   5.421   1.039  0.5810 -0.0466  0.4681
 1133TIP3    H124958   0.592   5.424   0.992 -0.6665  1.5039 -1.8870
 1133TIP3    H224959   0.528   5.379   1.122  3.3008 -1.4788 -0.7892
 1134TIP3   OH224960   3.776   3.092   0.618 -0.1490 -0.1984 -0.1532
 1134TIP3    H124961   3.752   3.184   0.618  0.4630 -0.0212 -1.1721
 1134TIP3    H224962   3.722   3.053   0.687 -1.2215  0.7112 -0.4501
 1135TIP3   OH224963   1.292   2.590   2.765 -0.4386 -0.2420 -0.0856
 1135TIP3    H124964   1.269   2.609   2.856 -1.0859  1.1243 -0.4972
 1135TIP3    H224965   1.355   2.658   2.741 -1.3686  0.3053 -1.0666
 1136TIP3   OH224966   1.266   2.911   2.163  0.6660  0.8034  0.4135
 1136TIP3    H124967   1.320   2.945   2.234  0.0454  1.3482  0.6264
 1136TIP3    H224968   1.312   2.939   2.083 -0.1206  2.6711  0.5677
 1137TIP3   OH224969   0.597   4.757   1.565  0.1300 -0.2323  0.2717
 1137TIP3    H124970   0.530   4.756   1.497 -0.3261  0.3241  0.7048
 1137TIP3    H224971   0.679   4.740   1.518 -0.1724  0.1775 -0.4195
 1138TIP3   OH224972   3.015   0.837   2.503 -0.2122 -0.4182 -0.3343
 1138TIP3    H124973   2.987   0.765   2.559 -1.2679 -1.0948 -1.6532
 1138TIP3    H224974   3.103   0.812   2.473  0.8392  0.4810  1.8076
 1139TIP3   OH224975   2.014   3.946   0.814 -0.2397 -0.0497 -0.1584
 1139TIP3    H124976   2.075   3.879   0.844 -0.0413  1.2821  2.7236
 1139TIP3    H224977   2.066   4.026   0.812 -1.6922  1.0500  2.0158
 1140TIP3   OH224978   5.367   1.620   7.645  0.2190  0.7087  0.1634
 1140TIP3    H124979   5.380   1.612   7.551 -0.4132  2.3421 -0.0826
 1140TIP3    H224980   5.289   1.674   7.655  0.4697  0.8592  1.6312
 1141TIP3   OH224981   4.204   6.602   0.959  0.4861  0.3473  0.3427
 1141TIP3    H124982   4.219   6.587   1.053 -1.1794 -1.2127  0.4312
 1141TIP3    H224983   4.273   6.551   0.916  1.9292  1.9357  0.6712
 1142TIP3   OH224984   2.246   6.009   8.907  0.0051  0.2858 -0.2758
 1142TIP3    H124985   2.319   5.958   8.945  0.6879  1.4988  0.0915
 1142TIP3    H224986   2.224   5.962   8.826 -1.4363 -2.3270  1.4958
 1143TIP3   OH224987   6.643   0.933   8.306  0.1944  0.0180  0.2689
 1143TIP3    H124988   6.620   0.851   8.350  0.5757 -0.0859  0.2804
 1143TIP3    H224989   6.610   0.922   8.217 -1.4504  0.6208  0.7733
 1144TIP3   OH224990   2.229   0.119   2.249 -0.2163  0.0002  0.3861
 1144TIP3    H124991   2.208   0.168   2.170  1.1915 -0.7745 -0.4924
 1144TIP3    H224992   2.186   0.034   2.237  0.2029 -0.2067  0.3389
 1145TIP3   OH224993   5.303   3.016   0.612  0.0412  0.3862  0.2288
 1145TIP3    H124994   5.394   3.021   0.641  0.6458 -0.5942 -1.3891
 1145TIP3    H224995   5.297   3.080   0.541 -0.9217  1.4314  1.2111
 1146TIP3   OH224996   2.414   1.283   7.549  0.1878 -0.3094  0.1340
 1146TIP3    H124997   2.460   1.232   7.483 -0.7757 -0.9989 -0.0264
 1146TIP3    H224998   2.428   1.374   7.523  2.1168 -0.4401  0.5454
 1147TIP3   OH224999   0.237   4.364   1.136  0.1506 -0.0884 -0.2127
 1147TIP3    H125000   0.295   4.314   1.193  0.1996  2.3294  2.0397
 1147TIP3    H225001   0.258   4.456   1.154 -3.3532  0.8917 -0.3226
 1148TIP3   OH225002   1.781   0.066   2.400  0.3908  0.1052 -0.1546
 1148TIP3    H125003   1.731  -0.015   2.416 -0.1715  0.5214  0.2243
 1148TIP3    H225004   1.748   0.128   2.465 -0.1484  1.0538 -1.2850
 1149TIP3   OH225005   0.281   6.490   7.834  0.0734 -0.1568 -0.4319
 1149TIP3    H125006   0.303   6.564   7.891  0.9121  0.0458 -0.9823
 1149TIP3    H225007   0.253   6.531   7.752  0.3895 -0.4383 -0.6869
 1150TIP3   OH225008   3.060   2.123   0.236 -0.3376  0.1442  0.3048
 1150TIP3    H125009   3.016   2.038   0.226  0.3690 -0.2070  0.0823
 1150TIP3    H225010   3.125   2.107   0.305 -0.7686  0.7489  0.8682
 1151TIP3   OH225011   0.905   5.646   2.584  0.1043 -0.0402 -0.0897
 1151TIP3    H125012   0.861   5.565   2.609  0.3160 -0.0321  0.3271
 1151TIP3    H225013   0.909   5.697   2.665  0.0693  0.3397 -0.3260
 1152TIP3   OH225014   6.362   0.597   8.149 -0.2968 -0.6750  0.1104
 1152TIP3    H125015   6.364   0.684   8.109 -2.2804 -0.5177  0.2725
 1152TIP3    H225016   6.365   0.536   8.075 -0.2321 -0.4583 -0.0658
 1153TIP3   OH225017   1.764   2.166   2.963  0.2787  0.0573 -0.2090
 1153TIP3    H125018   1.777   2.260   2.954  1.1864 -0.0304  0.1654
 1153TIP3    H225019   1.698   2.145   2.896 -1.0776  1.1895  0.7222
 1154TIP3   OH225020   4.977   3.779   8.913 -0.4531  0.5753 -0.0034
 1154TIP3    H125021   4.933   3.697   8.892 -1.1018  0.8462  0.2598
 1154TIP3    H225022   4.939   3.806   8.997 -0.8933  1.5814 -0.5020
 1155TIP3   OH225023   1.889   1.879   3.655 -0.4973  0.5791 -0.1274
 1155TIP3    H125024   1.887   1.823   3.577  0.5063  2.3708 -1.4835
 1155TIP3    H225025   1.796   1.894   3.675 -0.7717  0.4391 -1.2269
 1156TIP3   OH225026   5.784   3.537   8.832  0.2030  0.5704  0.2273
 1156TIP3    H125027   5.699   3.502   8.803  0.7493 -0.7712  0.1824
 1156TIP3    H225028   5.794   3.505   8.921  1.8118 -1.5590 -0.6347
 1157TIP3   OH225029   4.747   0.282   2.544 -0.1439  0.1403 -0.4226
 1157TIP3    H125030   4.836   0.247   2.536 -0.5747 -1.3848  0.8929
 1157TIP3    H225031   4.759   0.369   2.582  0.7542 -0.5192  0.8862
 1158TIP3   OH225032   5.984   2.569   3.267 -0.3754  0.4781  0.5987
 1158TIP3    H125033   6.045   2.581   3.340 -1.3005  1.2566  1.2661
 1158TIP3    H225034   5.990   2.652   3.218 -0.3885  0.2859  0.2677
 1159TIP3   OH225035   0.264   4.603   2.712 -0.3073 -0.4478  0.2404
 1159TIP3    H125036   0.184   4.600   2.763 -0.3395 -1.6158  0.1581
 1159TIP3    H225037   0.330   4.640   2.771 -0.3894 -1.5793  1.0764
 1160TIP3   OH225038   5.116   1.639   8.039 -0.2664  0.3677 -0.3030
 1160TIP3    H125039   5.163   1.634   8.122 -0.3955 -0.7113 -0.2799
 1160TIP3    H225040   5.098   1.732   8.027  3.1935  1.0454 -1.0590
 1161TIP3   OH225041   5.108   5.562   8.261 -0.7976  0.5373 -0.5559
 1161TIP3    H125042   5.049   5.589   8.331 -2.2059  0.0941 -1.5177
 1161TIP3    H225043   5.057   5.576   8.181  0.2173 -0.3796 -1.3858
 1162TIP3   OH225044   4.644   4.101   0.971 -0.4298 -0.0985 -0.6350
 1162TIP3    H125045   4.682   4.056   1.046 -0.4750  3.0488  1.4674
 1162TIP3    H225046   4.718   4.117   0.912  0.4133  0.7230  0.6000
 1163TIP3   OH225047   5.265   2.192   8.093 -0.1783 -0.4833  0.2627
 1163TIP3    H125048   5.176   2.225   8.094 -0.3813 -1.0282  0.3967
 1163TIP3    H225049   5.285   2.179   8.001 -0.7321 -1.6608  0.2913
 1164TIP3   OH225050   3.748   4.816   0.637 -0.4517 -0.1395 -0.7622
 1164TIP3    H125051   3.744   4.784   0.727 -0.5806  2.2963  0.1683
 1164TIP3    H225052   3.841   4.831   0.621 -0.5323  0.7990 -0.4608
 1165TIP3   OH225053   1.963   0.922   0.842  0.0281  0.2482 -0.1107
 1165TIP3    H125054   1.993   0.853   0.782 -0.8855 -0.7190  0.5317
 1165TIP3    H225055   1.955   0.879   0.927  0.7342  1.4698  0.6072
 1166TIP3   OH225056   2.080   0.637   8.673 -0.2332 -0.7820 -0.3349
 1166TIP3    H125057   2.007   0.582   8.644 -0.6059 -0.4699 -0.0030
 1166TIP3    H225058   2.156   0.604   8.625 -0.7922 -0.3988 -1.5404
 1167TIP3   OH225059   4.156   4.343   8.988  0.0332 -0.2754  0.3044
 1167TIP3    H125060   4.125   4.269   8.936  1.0128  1.2183 -2.6395
 1167TIP3    H225061   4.079   4.373   9.036 -1.7582 -0.0749 -2.4655
 1168TIP3   OH225062   1.251   4.737   2.395 -0.0928 -0.2940  0.0197
 1168TIP3    H125063   1.249   4.756   2.301 -0.9475 -0.2413  0.0439
 1168TIP3    H225064   1.168   4.693   2.412  0.0814 -0.3484  0.7468
 1169TIP3   OH225065   2.397   0.126   1.737 -0.2753 -0.1042  0.3395
 1169TIP3    H125066   2.460   0.163   1.799 -2.2572  0.7578  1.9422
 1169TIP3    H225067   2.334   0.196   1.721 -0.1064 -0.4571 -2.3664
 1170TIP3   OH225068   1.937   6.615   1.626 -0.1093  0.3808  0.7563
 1170TIP3    H125069   1.968   6.684   1.684 -0.0649  0.6350  0.4327
 1170TIP3    H225070   1.861   6.578   1.672 -1.9292  2.5234 -0.3132
 1171TIP3   OH225071   3.284   5.082   0.292  0.0546  0.0828  0.6452
 1171TIP3    H125072   3.296   5.164   0.340 -0.5517 -0.0951  1.1137
 1171TIP3    H225073   3.319   5.100   0.205 -1.0426  1.1993  0.3980
 1172TIP3   OH225074   5.100   5.532   1.901 -0.1849  0.1380 -0.5475
 1172TIP3    H125075   5.032   5.490   1.848  0.1042 -0.8348 -0.1878
 1172TIP3    H225076   5.112   5.471   1.974  1.7263 -0.1859 -1.0888
 1173TIP3   OH225077   1.988   3.507   0.526  0.2196 -0.1235  0.3709
 1173TIP3    H125078   1.953   3.460   0.602  0.1837  1.0918  1.1349
 1173TIP3    H225079   1.945   3.593   0.530  1.5858  0.6058  0.0342
 1174TIP3   OH225080   5.055   3.126   8.381  0.0337 -0.1581  0.2201
 1174TIP3    H125081   5.084   3.080   8.302  2.0458  0.0362  0.7920
 1174TIP3    H225082   5.065   3.219   8.361 -0.7758 -0.0575  0.2447
 1175TIP3   OH225083   3.026   5.134   2.439 -0.5442  0.1623 -0.1763
 1175TIP3    H125084   3.042   5.196   2.510 -0.3564 -0.4949  0.3695
 1175TIP3    H225085   2.931   5.124   2.437 -0.5941  0.6314 -0.4215
 1176TIP3   OH225086   1.817   1.910   8.086 -0.1628 -0.0395 -0.1593
 1176TIP3    H125087   1.724   1.891   8.098 -0.9954  2.4298 -1.9063
 1176TIP3    H225088   1.825   1.932   7.993  2.1344  0.0612  0.0016
 1177TIP3   OH225089   4.464   5.315   9.013 -0.2607  0.6545 -0.7207
 1177TIP3    H125090   4.496   5.360   9.092 -2.4150  1.9084 -0.5048
 1177TIP3    H225091   4.536   5.323   8.951  1.7236 -0.8182  1.2156
 1178TIP3   OH225092   3.374   6.688   1.789 -0.2735 -0.1254  0.1629
 1178TIP3    H125093   3.285   6.715   1.811  0.2519  0.8026  1.2193
 1178TIP3    H225094   3.386   6.719   1.699 -1.0151 -0.2604  0.0091
 1179TIP3   OH225095   3.017   4.984   0.191  0.0158  0.1725 -0.4453
 1179TIP3    H125096   3.078   5.009   0.262 -2.2931  0.4465  1.5660
 1179TIP3    H225097   3.064   4.916   0.142  2.0564  0.6017  0.7948
 1180TIP3   OH225098   1.516   1.623   2.060  0.8587  0.0451  0.0333
 1180TIP3    H125099   1.426   1.652   2.041  1.0075 -0.6103 -1.9265
 1180TIP3    H225100   1.571   1.689   2.019  1.4018  1.5118  2.8560
 1181TIP3   OH225101   0.641   5.768   1.610 -0.0659  0.1705 -0.3352
 1181TIP3    H125102   0.556   5.812   1.612  0.1086  0.6324 -1.9703
 1181TIP3    H225103   0.698   5.829   1.564  1.2285 -0.0525  0.9033
 1182TIP3   OH225104   0.180   1.591   0.961 -0.3303  0.2777 -0.2080
 1182TIP3    H125105   0.254   1.647   0.937  0.3165  0.1723  1.3994
 1182TIP3    H225106   0.119   1.600   0.888  0.9184  0.9821 -1.2189
 1183TIP3   OH225107   2.789   0.088   8.543 -0.6840  0.0898  0.4433
 1183TIP3    H125108   2.769   0.149   8.473 -1.0282 -0.1224  0.3572
 1183TIP3    H225109   2.773   0.138   8.623 -0.5935  0.2323  0.3733
 1184TIP3   OH225110   1.087   3.770   1.815  0.7046 -0.7587  0.0131
 1184TIP3    H125111   1.111   3.697   1.872 -0.2587 -0.2484  1.1112
 1184TIP3    H225112   1.171   3.802   1.780  1.1658 -2.0795 -0.1170
 1185TIP3   OH225113   2.664   5.919   1.057 -0.0345 -0.6080 -0.0234
 1185TIP3    H125114   2.659   5.968   1.139  1.0557  0.1423 -0.3750
 1185TIP3    H225115   2.690   5.830   1.084 -1.4210 -0.8620  0.5683
 1186TIP3   OH225116   5.833   4.816   0.283  0.1309 -0.0229  0.0397
 1186TIP3    H125117   5.804   4.904   0.304  1.6835  0.1959  1.4877
 1186TIP3    H225118   5.884   4.826   0.203 -0.0615  0.3158 -0.0434
 1187TIP3   OH225119   5.948   0.132   2.576 -0.1507  0.1380  0.1271
 1187TIP3    H125120   6.035   0.092   2.565 -0.4293 -0.2018 -0.9383
 1187TIP3    H225121   5.900   0.069   2.629 -0.6458 -1.0934 -1.6990
 1188TIP3   OH225122   2.614   4.400   1.311  0.1684 -0.0783 -0.0645
 1188TIP3    H125123   2.599   4.446   1.229  0.0981 -0.4614 -0.2688
 1188TIP3    H225124   2.600   4.467   1.379 -0.5874  0.0445 -0.3291
 1189TIP3   OH225125   2.010   0.626   2.495 -0.1951  0.0569  0.3107
 1189TIP3    H125126   2.048   0.539   2.512 -1.1579 -0.4426 -0.0056
 1189TIP3    H225127   2.083   0.678   2.461  0.5945 -0.3758  1.3012
 1190TIP3   OH225128   6.174   0.882   8.778 -0.5860 -0.2199 -0.6151
 1190TIP3    H125129   6.091   0.914   8.813 -0.8237 -0.3668 -1.0363
 1190TIP3    H225130   6.224   0.857   8.855  0.6564  3.4974 -0.0129
 1191TIP3   OH225131   5.530   1.077   3.008 -0.2818  0.2591 -0.4006
 1191TIP3    H125132   5.623   1.101   3.009  0.0004 -0.8039 -0.0818
 1191TIP3    H225133   5.494   1.124   2.932  0.4413  0.9208 -0.3420
 1192TIP3   OH225134   2.062   1.500   2.200 -0.2682  0.2211  0.6683
 1192TIP3    H125135   2.146   1.489   2.245  0.4927  0.5745 -0.6033
 1192TIP3    H225136   1.996   1.497   2.269  0.7457 -0.6785  1.6227
 1193TIP3   OH225137   3.462   3.093   0.610  0.0354  0.4321 -0.3583
 1193TIP3    H125138   3.497   3.005   0.623 -0.4575 -0.0718 -2.0798
 1193TIP3    H225139   3.511   3.148   0.670  1.3431 -0.7903 -0.2478
 1194TIP3   OH225140   6.318   3.079   0.022  0.4483 -0.2470  0.7662
 1194TIP3    H125141   6.351   3.157   0.065 -0.5778  0.5280  0.1820
 1194TIP3    H225142   6.249   3.110  -0.036 -1.2389 -1.7579  1.8278
 1195TIP3   OH225143   0.249   5.284   0.057  0.1753 -0.3180 -0.2810
 1195TIP3    H125144   0.186   5.224   0.017  0.7789 -0.7520 -0.5829
 1195TIP3    H225145   0.242   5.364   0.004  2.5737 -1.6167 -2.7540
 1196TIP3   OH225146   5.645   4.628   7.656  0.2234 -0.2804  0.2916
 1196TIP3    H125147   5.585   4.646   7.729 -0.4465 -0.4585 -0.2037
 1196TIP3    H225148   5.698   4.554   7.686 -0.0950 -0.3965  0.5696
 1197TIP3   OH225149   4.913   1.410   2.016  0.2947 -0.4565 -0.3854
 1197TIP3    H125150   5.006   1.427   2.004  0.0585 -0.8758 -3.7093
 1197TIP3    H225151   4.905   1.315   2.014 -0.0773 -0.5767  2.2141
 1198TIP3   OH225152   5.676   0.130   0.318  0.1113 -0.0589  0.3160
 1198TIP3    H125153   5.636   0.202   0.368  0.2468 -0.1900  0.6163
 1198TIP3    H225154   5.707   0.172   0.238 -2.1383 -0.2429 -0.7445
 1199TIP3   OH225155   3.839   1.824   8.456  0.3777 -0.0877 -0.4020
 1199TIP3    H125156   3.934   1.810   8.454  0.3891 -0.6708  1.8008
 1199TIP3    H225157   3.822   1.882   8.382  2.3695 -0.3771 -1.1576
 1200TIP3   OH225158   4.668   2.875   0.723 -0.3654  0.4287 -0.4035
 1200TIP3    H125159   4.633   2.947   0.776 -1.0305 -1.0211  1.2477
 1200TIP3    H225160   4.670   2.800   0.783 -2.0402 -1.5825 -2.6240
 1201TIP3   OH225161   4.321   3.358   2.592  0.4869 -0.2670 -0.0064
 1201TIP3    H125162   4.404   3.406   2.595 -0.1573  0.9152 -0.3999
 1201TIP3    H225163   4.339   3.282   2.537  0.7962  1.0581 -1.8219
 1202TIP3   OH225164   6.180   0.705   0.521  0.4310 -0.3620 -0.2196
 1202TIP3    H125165   6.263   0.710   0.569 -0.2977 -0.5864  1.1061
 1202TIP3    H225166   6.190   0.767   0.449  2.0333 -0.9487 -0.5497
 1203TIP3   OH225167   4.183   3.482   0.296  0.0069 -0.1325  0.4182
 1203TIP3    H125168   4.244   3.466   0.225  1.4848  2.9600  0.8201
 1203TIP3    H225169   4.107   3.523   0.255 -0.7128 -1.5729  0.2508
 1204TIP3   OH225170   2.744   6.410   0.992  0.2066  0.2771  0.4737
 1204TIP3    H125171   2.762   6.469   1.065  1.4863 -0.5319  0.8406
 1204TIP3    H225172   2.796   6.332   1.010 -1.9491 -1.2777  0.3321
 1205TIP3   OH225173   2.689   5.395   1.801 -0.1257  0.1058 -0.0050
 1205TIP3    H125174   2.640   5.357   1.875  0.0186 -0.4045 -0.1691
 1205TIP3    H225175   2.671   5.336   1.728  1.2064 -0.4236  0.0712
 1206TIP3   OH225176   4.931   2.657   1.948  0.2310  0.3037  0.3976
 1206TIP3    H125177   4.970   2.743   1.935 -0.6633  0.6604  0.0379
 1206TIP3    H225178   4.926   2.619   1.860 -0.7330  0.4830  0.3712
 1207TIP3   OH225179   1.963   6.598   1.154  0.1443  0.1954 -0.3127
 1207TIP3    H125180   1.934   6.608   1.063  1.2381 -0.2486 -0.7281
 1207TIP3    H225181   1.912   6.525   1.188 -0.9255  0.9367 -0.2708
 1208TIP3   OH225182   6.510   0.902   1.935  0.2609 -0.4459 -0.3463
 1208TIP3    H125183   6.419   0.900   1.964  0.4293 -0.9233  0.1577
 1208TIP3    H225184   6.529   0.995   1.921 -0.7696 -0.4386 -1.9921
 1209TIP3   OH225185   4.909   1.963   9.018  0.3238  0.0847 -0.2665
 1209TIP3    H125186   4.965   1.934   8.945 -0.4445  0.6922 -1.1179
 1209TIP3    H225187   4.919   1.894   9.084  2.0222  0.1446 -0.4109
 1210TIP3   OH225188   4.778   0.362   7.117 -0.8678  0.1745  0.2023
 1210TIP3    H125189   4.733   0.389   7.037 -1.0125 -1.3513 -0.2707
 1210TIP3    H225190   4.757   0.269   7.125  0.2326  0.0055  1.2951
 1211TIP3   OH225191   2.182   4.576   1.780 -0.8945 -0.2031  0.8994
 1211TIP3    H125192   2.207   4.523   1.704 -0.6718  1.1847 -0.0330
 1211TIP3    H225193   2.264   4.617   1.807 -1.1020 -0.1724  1.4919
 1212TIP3   OH225194   1.373   5.886   0.952  0.0863 -0.3324 -0.4598
 1212TIP3    H125195   1.359   5.965   0.900  0.9700  0.1651  0.0317
 1212TIP3    H225196   1.452   5.905   1.003  0.1816 -1.4451 -0.1698
 1213TIP3   OH225197   4.154   2.995   2.658 -0.4431  0.5846 -0.3800
 1213TIP3    H125198   4.133   2.974   2.749  0.3388  1.7287  0.0782
 1213TIP3    H225199   4.248   2.979   2.650 -0.5622  0.1755 -1.0891
 1214TIP3   OH225200   6.179   5.027   0.037 -0.3057 -0.4782  0.1214
 1214TIP3    H125201   6.160   4.949   0.090  0.9594 -0.7236  0.2494
 1214TIP3    H225202   6.273   5.023   0.022 -0.3365  0.6676 -0.4680
 1215TIP3   OH225203   0.779   2.512   2.472 -0.0963 -0.1991  0.0721
 1215TIP3    H125204   0.834   2.498   2.549  0.7696  1.0169 -0.2908
 1215TIP3    H225205   0.776   2.427   2.428  1.4665 -0.3023  0.1325
 1216TIP3   OH225206   4.883   2.233   0.756  0.0220 -0.0663 -0.1440
 1216TIP3    H125207   4.884   2.271   0.668  0.9704  1.2671  0.4150
 1216TIP3    H225208   4.961   2.177   0.759  0.6562  0.8153  0.2164
 1217TIP3   OH225209   0.984   5.155   0.296  0.2598 -0.3469  0.7236
 1217TIP3    H125210   0.961   5.062   0.302  0.3342 -0.3750  0.5720
 1217TIP3    H225211   1.080   5.155   0.289  0.7140 -0.1218  4.6530
 1218TIP3   OH225212   4.334   4.130   2.092 -0.4866  0.6915 -0.0787
 1218TIP3    H125213   4.312   4.169   2.177 -0.1645 -2.4230  1.5583
 1218TIP3    H225214   4.310   4.038   2.101  1.4328 -0.1750 -2.6885
 1219TIP3   OH225215   0.744   1.188   2.255 -0.0188  0.1666 -0.0097
 1219TIP3    H125216   0.813   1.124   2.272  0.0766 -0.0830 -1.2965
 1219TIP3    H225217   0.662   1.141   2.274  0.1270  0.8500  2.8228
 1220TIP3   OH225218   1.752   0.563   8.969  0.3011  0.0167 -0.4925
 1220TIP3    H125219   1.702   0.583   9.048 -0.5660 -1.5890 -0.5870
 1220TIP3    H225220   1.705   0.490   8.928  0.0999  1.4499 -3.0720
 1221TIP3   OH225221   3.354   0.192   1.587 -0.0650 -0.6985 -0.3333
 1221TIP3    H125222   3.279   0.211   1.530 -0.2846 -2.5888 -0.7252
 1221TIP3    H225223   3.425   0.170   1.527 -0.4702 -3.3490  0.0390
 1222TIP3   OH225224   6.721   2.374   7.843  0.4748 -0.2387  0.4107
 1222TIP3    H125225   6.803   2.332   7.817  0.1255 -0.1560 -0.8949
 1222TIP3    H225226   6.655   2.335   7.784  0.0866  1.9014 -0.6669
 1223TIP3   OH225227   5.535   3.623   2.546  0.0579  0.0322 -0.2364
 1223TIP3    H125228   5.508   3.567   2.618  1.5741  0.0846  0.4178
 1223TIP3    H225229   5.492   3.707   2.562  0.4135  0.0525  0.6428
 1224TIP3   OH225230   1.973   4.213   8.288  0.0817 -0.6971  0.2220
 1224TIP3    H125231   2.029   4.159   8.233  3.5066  1.9528  0.7779
 1224TIP3    H225232   2.027   4.234   8.364 -1.3077  2.7245  0.4299
 1225TIP3   OH225233   3.673   3.931   2.474  0.1345 -0.0822  0.3650
 1225TIP3    H125234   3.658   3.911   2.382 -0.8196 -1.3142  0.7540
 1225TIP3    H225235   3.741   3.998   2.474  0.0816 -0.0055 -1.2304
 1226TIP3   OH225236   3.714   6.571   1.068 -0.2005 -0.1704  0.0921
 1226TIP3    H125237   3.657   6.506   1.026  2.0804 -2.0178 -0.3647
 1226TIP3    H225238   3.798   6.561   1.024  1.0597  1.0291  2.0832
 1227TIP3   OH225239   6.117   1.303   7.600 -0.4605 -0.2790  0.2797
 1227TIP3    H125240   6.201   1.327   7.638 -0.5374 -1.9817  1.6488
 1227TIP3    H225241   6.070   1.260   7.671 -1.1755 -2.3457 -1.3446
 1228TIP3   OH225242   4.836   5.702   1.524 -0.1747 -0.4754  0.0501
 1228TIP3    H125243   4.803   5.658   1.602 -0.8446 -0.7873 -0.3936
 1228TIP3    H225244   4.820   5.795   1.540 -1.1187 -0.5991 -0.0579
 1229TIP3   OH225245   2.041   2.222   1.512  0.6197 -0.8611 -0.0179
 1229TIP3    H125246   2.057   2.154   1.446 -0.1811  0.2257 -1.3805
 1229TIP3    H225247   2.079   2.186   1.592 -0.3532 -3.2267 -0.5152
 1230TIP3   OH225248   5.759   6.570   0.068 -0.4114 -0.1649  0.2959
 1230TIP3    H125249   5.839   6.575   0.120  0.8097 -0.0139 -1.5211
 1230TIP3    H225250   5.688   6.569   0.133  0.9913  0.8236  1.9258
 1231TIP3   OH225251   1.663   5.081   8.516 -0.1208  0.2985 -0.1268
 1231TIP3    H125252   1.712   5.009   8.477  3.0203  2.0022  0.3149
 1231TIP3    H225253   1.603   5.039   8.578  2.9187 -1.9844  1.5499
 1232TIP3   OH225254   3.771   1.748   0.894  0.1355  0.1009  0.2116
 1232TIP3    H125255   3.786   1.842   0.899  0.9979  0.1173 -1.7388
 1232TIP3    H225256   3.834   1.717   0.829 -1.0152 -1.6132 -0.1707
 1233TIP3   OH225257   2.008   4.258   8.583  0.4907  0.7677  0.1012
 1233TIP3    H125258   1.979   4.349   8.572 -0.5452  0.8415  2.7029
 1233TIP3    H225259   1.927   4.209   8.601  1.3608 -0.0586  1.9582
 1234TIP3   OH225260   2.977   4.191   0.238  0.0588 -0.2289 -0.1384
 1234TIP3    H125261   3.059   4.174   0.286 -0.5901  0.0661  1.1256
 1234TIP3    H225262   2.909   4.180   0.304 -1.0218 -1.5045 -1.4032
 1235TIP3   OH225263   5.406   6.497   0.229  0.0295  0.0137 -0.0222
 1235TIP3    H125264   5.434   6.468   0.316  1.1740  1.1851  0.0269
 1235TIP3    H225265   5.382   6.589   0.241 -0.6902 -0.0634 -0.7728
 1236TIP3   OH225266   3.079   1.719   0.999  0.0560 -0.6400  0.2775
 1236TIP3    H125267   3.171   1.693   0.993 -0.3711 -2.1568 -0.0838
 1236TIP3    H225268   3.052   1.694   1.087  0.1416  0.4008  0.6144
 1237TIP3   OH225269   6.474   4.876   2.512 -0.3882  0.0097 -0.3022
 1237TIP3    H125270   6.539   4.847   2.576 -1.4803  0.4506  1.0600
 1237TIP3    H225271   6.393   4.884   2.562 -0.8477  2.3428 -1.2961
 1238TIP3   OH225272   1.004   4.409   2.724 -0.0695  0.3520 -0.2785
 1238TIP3    H125273   0.924   4.358   2.717  0.1644 -0.4410  2.0430
 1238TIP3    H225274   0.974   4.499   2.734 -0.7548 -0.0277  1.4218
 1239TIP3   OH225275   4.917   6.286   8.493  0.0043  0.3132 -0.2796
 1239TIP3    H125276   4.902   6.343   8.568 -0.3851  1.0139 -0.8747
 1239TIP3    H225277   4.995   6.322   8.450 -0.0313  0.1774 -0.4606
 1240TIP3   OH225278   3.479   1.824   7.918  0.1658  0.2564 -0.7189
 1240TIP3    H125279   3.425   1.860   7.988 -2.6536 -0.8160 -2.1870
 1240TIP3    H225280   3.440   1.857   7.838  2.5040  0.3905 -1.8827
 1241TIP3   OH225281   5.427   2.395   0.848 -0.3732 -0.8517  0.2180
 1241TIP3    H125282   5.343   2.440   0.851 -0.5489 -0.9538 -1.9464
 1241TIP3    H225283   5.415   2.324   0.786  1.5046 -0.3916 -0.7654
 1242TIP3   OH225284   2.466   0.104   8.924  0.1282 -0.4772 -0.4979
 1242TIP3    H125285   2.430   0.135   8.841 -2.1072 -2.1796 -0.2672
 1242TIP3    H225286   2.465   0.008   8.916 -1.1996 -0.7240  1.8492
 1243TIP3   OH225287   4.310   0.687   1.985  0.6754  0.2770 -0.1242
 1243TIP3    H125288   4.256   0.657   2.058  1.2093 -0.8909 -0.1975
 1243TIP3    H225289   4.283   0.633   1.910  0.8052  0.8043 -0.5612
 1244TIP3   OH225290   3.807   4.318   0.305  0.5054 -0.2144  0.4144
 1244TIP3    H125291   3.851   4.329   0.389 -0.2530  0.3575  0.7415
 1244TIP3    H225292   3.772   4.229   0.308 -2.1643  0.7805  2.0122
 1245TIP3   OH225293   4.287   5.249   1.193 -0.7097  0.1434 -0.0350
 1245TIP3    H125294   4.219   5.311   1.166  0.1240  0.5991 -1.1617
 1245TIP3    H225295   4.328   5.221   1.111  1.6596  1.2533  0.6743
 1246TIP3   OH225296   3.962   2.819   8.521 -0.3284 -0.3035 -0.0046
 1246TIP3    H125297   3.879   2.858   8.490  0.9004  2.2765 -0.3567
 1246TIP3    H225298   3.952   2.725   8.505 -2.5274  0.1178 -1.6359
 1247TIP3   OH225299   1.967   4.299   1.202  1.0189  0.0578  0.1769
 1247TIP3    H125300   1.888   4.249   1.222  1.0452 -0.2686 -0.5331
 1247TIP3    H225301   1.975   4.360   1.275 -0.3907  0.7163 -0.1876
 1248TIP3   OH225302   5.613   5.217   0.561  0.1115 -0.2355 -0.3479
 1248TIP3    H125303   5.678   5.243   0.626  0.9622 -0.0329 -1.2576
 1248TIP3    H225304   5.575   5.300   0.531  0.4489 -0.2505 -0.8331
 1249TIP3   OH225305   5.748   6.511   0.419 -0.5554 -0.2534  0.1369
 1249TIP3    H125306   5.662   6.538   0.453  0.5630  1.6650  1.6767
 1249TIP3    H225307   5.765   6.427   0.462 -1.7160 -0.7787 -0.3676
 1250TIP3   OH225308   6.052   2.753   3.530 -0.0193  0.1471  0.1171
 1250TIP3    H125309   6.046   2.829   3.473 -0.3246  1.8090  2.2459
 1250TIP3    H225310   6.135   2.711   3.506  0.8848  2.0017 -0.1426
 1251TIP3   OH225311   4.793   4.605   8.866  0.3464 -0.1221 -0.1257
 1251TIP3    H125312   4.877   4.585   8.907  1.3161  2.0195 -0.9320
 1251TIP3    H225313   4.803   4.575   8.776  0.1503 -0.0658 -0.1665
 1252TIP3   OH225314   5.337   2.159   8.499 -0.0575  0.0835 -0.6070
 1252TIP3    H125315   5.373   2.071   8.505 -0.2505  0.0794  1.1383
 1252TIP3    H225316   5.385   2.201   8.427  1.9453 -0.5818  0.2868
 1253TIP3   OH225317   5.041   0.678   8.721 -0.4410 -0.0227  0.5705
 1253TIP3    H125318   4.980   0.619   8.677 -1.4903  1.5754 -0.2249
 1253TIP3    H225319   5.118   0.623   8.740 -0.1383 -1.0193 -2.7144
 1254TIP3   OH225320   5.810   4.426   7.755 -0.3705 -0.2951  0.7918
 1254TIP3    H125321   5.872   4.378   7.699  0.2421  2.0986 -0.7398
 1254TIP3    H225322   5.862   4.449   7.832  0.2780  0.5334  0.1292
 1255TIP3   OH225323   1.400   3.201   8.973 -0.3738 -0.4039 -0.1575
 1255TIP3    H125324   1.463   3.218   9.043 -1.9326 -0.9117  1.4558
 1255TIP3    H225325   1.405   3.277   8.916  1.0032 -0.0104  0.4523
 1256TIP3   OH225326   3.952   2.172   1.822  0.1854 -0.0629 -0.0342
 1256TIP3    H125327   3.991   2.175   1.910  1.0877 -1.0356 -0.3807
 1256TIP3    H225328   4.026   2.166   1.763 -0.4510 -1.7728 -0.7304
 1257TIP3   OH225329   0.547   3.912   7.825  0.4447 -0.2710 -0.4295
 1257TIP3    H125330   0.605   3.973   7.870  0.2283 -0.6909  0.4389
 1257TIP3    H225331   0.466   3.962   7.812  0.6462 -0.0186 -0.7169
 1258TIP3   OH225332   5.250   0.255   8.761  0.5171  0.4427  0.5412
 1258TIP3    H125333   5.340   0.225   8.760  0.7809  1.2087 -0.0118
 1258TIP3    H225334   5.254   0.343   8.797 -0.2686 -0.1998  2.3455
 1259TIP3   OH225335   1.904   3.637   8.626 -0.2175  0.0187 -0.1754
 1259TIP3    H125336   1.987   3.641   8.675 -0.7243  0.3833  0.6767
 1259TIP3    H225337   1.920   3.690   8.548  0.7101 -0.8283 -0.5948
 1260TIP3   OH225338   3.862   5.555   8.011 -0.3614  0.2386  0.1343
 1260TIP3    H125339   3.942   5.558   7.959 -0.7689 -1.8194 -0.6869
 1260TIP3    H225340   3.794   5.528   7.950 -1.4605  0.7640  1.0889
 1261TIP3   OH225341   0.208   6.243   2.182  0.3745 -0.3895  0.5692
 1261TIP3    H125342   0.298   6.250   2.213 -0.0895  2.7748  1.5498
 1261TIP3    H225343   0.168   6.327   2.205 -2.5197 -1.2387 -0.8798
 1262TIP3   OH225344   3.987   6.089   8.837  0.0098 -0.3197  0.1493
 1262TIP3    H125345   3.908   6.144   8.837  0.5726  0.5093  0.8808
 1262TIP3    H225346   4.054   6.143   8.877  0.7340 -1.3431  0.3650
 1263TIP3   OH225347   4.228   0.759   8.157  0.4897  0.5134  0.5010
 1263TIP3    H125348   4.246   0.678   8.109  1.4315  0.8021  0.3397
 1263TIP3    H225349   4.210   0.824   8.090 -1.1555  0.2490  0.6618
 1264TIP3   OH225350   0.164   6.536   8.976  0.1943  0.0437  0.2874
 1264TIP3    H125351   0.105   6.511   9.047 -0.8828  0.3431 -0.4793
 1264TIP3    H225352   0.156   6.467   8.911  2.2690 -0.9851  1.0182
 1265TIP3   OH225353   5.110   1.536   7.772 -0.0971  0.3071  0.5268
 1265TIP3    H125354   5.103   1.615   7.719  0.0761  0.8383  1.2840
 1265TIP3    H225355   5.084   1.563   7.860  1.0699 -0.2033  1.0481
 1266TIP3   OH225356   1.064   5.831   8.881 -0.5396 -0.1210 -0.3138
 1266TIP3    H125357   0.998   5.784   8.830  0.9709 -2.4458 -0.2924
 1266TIP3    H225358   1.085   5.771   8.952  0.1244  1.4599  0.8611
 1267TIP3   OH225359   6.082   1.016   1.259  0.8278  0.4691 -0.0341
 1267TIP3    H125360   6.080   1.109   1.236 -3.8934  1.4333  2.8588
 1267TIP3    H225361   6.044   0.971   1.184  1.5495  1.0580 -0.7693
 1268TIP3   OH225362   4.663   0.908   1.754 -0.1634  0.5379  0.0514
 1268TIP3    H125363   4.724   0.880   1.686 -0.7234  0.7266 -0.5491
 1268TIP3    H225364   4.576   0.896   1.714 -0.6844 -2.1200  1.7541
 1269TIP3   OH225365   1.051   1.334   0.841  0.4462 -0.8421  0.5173
 1269TIP3    H125366   0.980   1.382   0.798 -0.3580 -2.4548 -0.0574
 1269TIP3    H225367   1.045   1.357   0.933  1.3990  1.7118  0.0331
 1270TIP3   OH225368   4.249   6.564   0.503 -0.0033  0.5282 -0.9108
 1270TIP3    H125369   4.299   6.488   0.472  0.6049 -0.2634  1.7682
 1270TIP3    H225370   4.158   6.537   0.494  0.2015 -0.3756 -0.3924
 1271TIP3   OH225371   3.364   1.946   8.737  0.5623  0.3956  0.2710
 1271TIP3    H125372   3.328   1.876   8.682  0.5852  0.7184 -0.1586
 1271TIP3    H225373   3.341   2.027   8.692  3.0247  0.5855 -0.7850
 1272TIP3   OH225374   1.965   3.161   1.993 -0.3049  0.4669 -0.1966
 1272TIP3    H125375   1.923   3.122   1.916  0.5060 -0.1714 -0.3150
 1272TIP3    H225376   2.058   3.164   1.972 -0.0716  0.3164  0.7495
 1273TIP3   OH225377   0.871   2.403   7.466 -0.5475  0.1916 -0.2838
 1273TIP3    H125378   0.779   2.395   7.490 -0.4211  0.7940  0.4693
 1273TIP3    H225379   0.878   2.491   7.428 -0.2764  0.1791 -0.2646
 1274TIP3   OH225380   0.824   0.291   1.199  0.0868 -0.0156  0.4426
 1274TIP3    H125381   0.774   0.356   1.150  1.4843  0.6617 -0.1565
 1274TIP3    H225382   0.839   0.331   1.285 -1.4601 -0.7615  1.0925
 1275TIP3   OH225383   1.724   0.849   8.917  0.3388 -1.0436  0.4467
 1275TIP3    H125384   1.636   0.862   8.882  1.6012  1.8167 -2.1655
 1275TIP3    H225385   1.741   0.756   8.904 -1.5032 -1.2473 -1.0880
 1276TIP3   OH225386   4.943   3.847   7.962  0.2165 -0.0578  0.6049
 1276TIP3    H125387   5.024   3.896   7.946 -0.0176  0.6254  1.4290
 1276TIP3    H225388   4.881   3.880   7.897  0.2627  0.2402  0.7128
 1277TIP3   OH225389   4.194   1.964   2.246 -0.4193 -0.6538  0.6866
 1277TIP3    H125390   4.160   1.951   2.335  0.4176 -1.4476  0.9060
 1277TIP3    H225391   4.207   1.875   2.212 -0.4176 -0.3574 -0.1145
 1278TIP3   OH225392   3.028   3.140   0.939  0.4642  0.3364  0.2042
 1278TIP3    H125393   3.094   3.171   0.878  0.4528  0.7157  0.3815
 1278TIP3    H225394   3.046   3.187   1.021  0.2065  0.1670  0.3630
 1279TIP3   OH225395   3.079   3.772   2.512  0.0340  0.0435  0.1589
 1279TIP3    H125396   3.020   3.703   2.541  0.8371 -0.1622  1.3900
 1279TIP3    H225397   3.131   3.731   2.441 -0.3138 -0.2231  0.0556
 1280TIP3   OH225398   3.684   3.235   0.332  0.0243 -0.4019  0.0611
 1280TIP3    H125399   3.652   3.284   0.408 -1.8316 -2.4396  0.7147
 1280TIP3    H225400   3.666   3.291   0.257 -1.5264  0.1540  0.8182
 1281TIP3   OH225401   0.929   1.247   7.996  0.2328  0.4322  0.3840
 1281TIP3    H125402   0.903   1.296   7.918 -1.0122 -0.0357  0.4936
 1281TIP3    H225403   0.852   1.196   8.019  0.9914 -0.3536  1.2218
 1282TIP3   OH225404   0.565   0.935   0.161 -0.0747 -0.0466 -0.4679
 1282TIP3    H125405   0.573   0.961   0.069 -0.7502  1.7282 -0.0653
 1282TIP3    H225406   0.493   0.989   0.194  1.2470  0.5640  1.5226
 1283TIP3   OH225407   3.640   0.223   1.145  0.4281  0.0332  0.0291
 1283TIP3    H125408   3.571   0.209   1.209  0.1763  0.8206 -0.0563
 1283TIP3    H225409   3.594   0.230   1.061  0.7105 -0.5223 -0.1746
 1284TIP3   OH225410   1.078   4.619   1.915 -0.1722  0.8651  0.0203
 1284TIP3    H125411   1.038   4.679   1.852  1.4050  0.7036 -1.1918
 1284TIP3    H225412   1.047   4.532   1.888  2.0360  0.5691 -1.8679
 1285TIP3   OH225413   1.452   5.167   1.936 -0.0041  0.1244  0.3404
 1285TIP3    H125414   1.406   5.249   1.954 -1.1031 -0.1929 -0.8669
 1285TIP3    H225415   1.537   5.194   1.900 -1.3993  0.8275 -2.7087
 1286TIP3   OH225416   3.990   1.314   1.672 -0.4095 -0.0218  0.1521
 1286TIP3    H125417   3.941   1.263   1.737  0.6748  0.3432  1.3097
 1286TIP3    H225418   3.929   1.382   1.644 -0.5702  0.4745  1.6284
 1287TIP3   OH225419   0.234   0.340   1.981  0.4930  0.0647  0.5140
 1287TIP3    H125420   0.255   0.301   2.066 -0.8195 -2.9349 -0.4230
 1287TIP3    H225421   0.138   0.336   1.976  0.6034 -1.2660 -1.6868
 1288TIP3   OH225422   1.263   6.150   1.187  0.0561  0.3385  0.2640
 1288TIP3    H125423   1.246   6.238   1.153  1.3149  0.2006 -0.7930
 1288TIP3    H225424   1.351   6.128   1.154  0.0036 -1.0789  0.9992
 1289TIP3   OH225425   1.495   0.190   8.114  0.1365 -0.2333  0.0007
 1289TIP3    H125426   1.489   0.176   8.020 -1.6343  1.0134 -0.1319
 1289TIP3    H225427   1.584   0.166   8.137 -0.3529 -4.0590 -1.3738
 1290TIP3   OH225428   1.281   2.695   1.839 -0.2088  0.1317  0.6795
 1290TIP3    H125429   1.266   2.609   1.879 -1.6088 -0.1362 -0.3393
 1290TIP3    H225430   1.372   2.691   1.807  0.2843 -0.3484  2.0676
 1291TIP3   OH225431   2.521   2.260   2.295  0.3713 -0.2956  0.0365
 1291TIP3    H125432   2.483   2.345   2.272  1.5752  0.5044  0.8788
 1291TIP3    H225433   2.468   2.229   2.369 -0.9757 -0.9938 -1.1676
 1292TIP3   OH225434   1.184   0.071   0.740 -0.2998  0.0913  0.1050
 1292TIP3    H125435   1.114   0.133   0.762  0.7982  0.9994  1.1745
 1292TIP3    H225436   1.212   0.036   0.825  1.5772  0.9339 -0.1071
 1293TIP3   OH225437   4.820   1.632   8.981  0.4655  0.1393 -0.1555
 1293TIP3    H125438   4.756   1.693   9.020 -0.2329 -0.9026  0.3784
 1293TIP3    H225439   4.820   1.654   8.888 -0.0064  0.7406 -0.0236
 1294TIP3   OH225440   0.553   1.202   2.016  0.3526  0.1249 -0.3746
 1294TIP3    H125441   0.575   1.214   2.108  1.1169 -1.1429 -0.3738
 1294TIP3    H225442   0.505   1.120   2.013  2.3912 -1.1036 -1.3730
 1295TIP3   OH225443   0.532   0.432   1.122 -0.4407  0.6652  0.0784
 1295TIP3    H125444   0.555   0.400   1.209  1.3127 -0.0946 -0.6009
 1295TIP3    H225445   0.583   0.512   1.112 -1.2867  1.2057  0.0572
 1296TIP3   OH225446   6.385   1.662   8.988  0.4724  0.2093 -0.1510
 1296TIP3    H125447   6.425   1.748   9.002  0.1645 -0.0434  2.7565
 1296TIP3    H225448   6.296   1.682   8.959  0.3144  0.9022  0.7622
 1297TIP3   OH225449   6.656   0.620   0.684 -0.2901  0.6131 -0.2757
 1297TIP3    H125450   6.676   0.527   0.685 -0.8024  0.4901  1.4423
 1297TIP3    H225451   6.585   0.629   0.621 -2.2719 -0.6728  1.6127
 1298TIP3   OH225452   1.922   1.039   8.958  0.2743 -0.4983  0.0928
 1298TIP3    H125453   1.992   0.984   8.923 -1.4612 -1.9392 -1.3948
 1298TIP3    H225454   1.842   1.005   8.916 -1.1791  1.8124  0.7811
 1299TIP3   OH225455   5.060   2.525   8.911  0.3145 -0.3865  0.4779
 1299TIP3    H125456   4.995   2.461   8.883  0.0883  0.5108 -1.1620
 1299TIP3    H225457   5.133   2.514   8.850  0.3068  0.8249  0.2184
 1300TIP3   OH225458   0.573   0.121   7.873 -0.2974 -0.2475 -0.1428
 1300TIP3    H125459   0.601   0.159   7.956  0.3271  0.9135 -0.8615
 1300TIP3    H225460   0.478   0.133   7.871 -0.2505  0.1910  0.1818
 1301TIP3   OH225461   0.893   0.811   7.996 -0.0958 -0.1879  0.5373
 1301TIP3    H125462   0.913   0.856   8.078  0.5374 -0.4358  0.5221
 1301TIP3    H225463   0.864   0.724   8.024  0.2134 -0.3045  0.4904
 1302TIP3   OH225464   1.176   3.129   1.326  0.5650 -0.0892 -0.4382
 1302TIP3    H125465   1.116   3.114   1.399  1.4684  1.6512  0.7104
 1302TIP3    H225466   1.164   3.052   1.270  0.3985 -1.8660  1.8933
 1303TIP3   OH225467   3.702   3.265   8.205 -0.0029 -0.3022  0.4014
 1303TIP3    H125468   3.699   3.354   8.238 -0.9146 -0.2097  0.1090
 1303TIP3    H225469   3.735   3.274   8.115  0.4671 -0.3264  0.5705
 1304TIP3   OH225470   2.647   2.560   1.941  1.0240  0.6378 -0.0377
 1304TIP3    H125471   2.658   2.642   1.893  0.8037  0.8266  0.2325
 1304TIP3    H225472   2.718   2.504   1.909  0.6994  0.6559 -0.8087
 1305TIP3   OH225473   5.174   6.330   2.039 -0.3967  1.0307  0.4028
 1305TIP3    H125474   5.103   6.371   1.989 -0.9647  0.1470  0.4593
 1305TIP3    H225475   5.239   6.306   1.974 -1.3059 -0.4698  0.0050
 1306TIP3   OH225476   0.429   1.316   7.627  0.4882 -0.1894  0.1787
 1306TIP3    H125477   0.385   1.256   7.688  0.3852  1.0817  1.3883
 1306TIP3    H225478   0.506   1.268   7.598 -0.3857 -1.4991 -0.0689
 1307TIP3   OH225479   5.168   1.320   2.580  0.0728 -0.0044  0.5335
 1307TIP3    H125480   5.228   1.269   2.635  1.2189  0.1421 -0.5446
 1307TIP3    H225481   5.217   1.397   2.555 -0.5017  0.0377 -0.5232
 1308TIP3   OH225482   5.654   2.274   0.147 -0.3415  0.7177  0.0532
 1308TIP3    H125483   5.748   2.291   0.141 -0.1262 -0.6419 -0.7014
 1308TIP3    H225484   5.622   2.286   0.058 -0.6216 -0.2581  0.0173
 1309TIP3   OH225485   1.627   2.822   2.236 -0.4277  0.0091 -0.6169
 1309TIP3    H125486   1.559   2.888   2.250  1.2267  1.4166  1.3040
 1309TIP3    H225487   1.709   2.869   2.247  0.8517 -2.0738 -0.7242
 1310TIP3   OH225488   4.427   0.575   8.362  0.4514  0.5322 -0.4206
 1310TIP3    H125489   4.415   0.652   8.306 -0.8719  0.1806 -0.6695
 1310TIP3    H225490   4.338   0.544   8.377  0.9904 -1.2057 -0.6688
 1311TIP3   OH225491   0.448   1.977   2.523 -0.2580 -0.1689 -0.4383
 1311TIP3    H125492   0.375   1.917   2.510 -0.4147  0.4498 -2.9757
 1311TIP3    H225493   0.525   1.921   2.527 -0.3845 -0.6022 -2.9426
 1312TIP3   OH225494   4.906   2.005   8.593 -0.8227  0.0208  0.2685
 1312TIP3    H125495   4.959   2.003   8.673 -1.3687 -0.2649  0.6328
 1312TIP3    H225496   4.887   2.098   8.579 -3.0365 -0.0553  2.0630
 1313TIP3   OH225497   1.216   5.554   0.406  0.3334 -0.1591 -0.9915
 1313TIP3    H125498   1.123   5.543   0.386  0.2131 -1.1101 -0.0049
 1313TIP3    H225499   1.248   5.466   0.422  1.0635  0.2789  0.1103
 1314TIP3   OH225500   3.034   3.937   8.422  0.3949  0.1444 -0.1559
 1314TIP3    H125501   2.962   3.980   8.375 -0.8495 -0.8546  0.7763
 1314TIP3    H225502   3.060   4.002   8.488 -0.1096  0.2667 -0.0670
 1315TIP3   OH225503   3.108   3.647   2.244 -0.3180 -0.0193 -0.4319
 1315TIP3    H125504   3.097   3.724   2.188  0.4978  1.3866  1.2070
 1315TIP3    H225505   3.201   3.650   2.270 -0.4980 -1.0084  0.4034
 1316TIP3   OH225506   5.795   0.458   8.662  0.4715 -0.5426 -0.0232
 1316TIP3    H125507   5.803   0.545   8.701  0.1569  0.4341 -2.0305
 1316TIP3    H225508   5.706   0.431   8.684 -1.1360  1.6603 -3.1152
 1317TIP3   OH225509   4.915   6.413   0.775 -0.1014  0.0002 -0.6422
 1317TIP3    H125510   4.902   6.321   0.752  0.3644 -0.1043 -0.5082
 1317TIP3    H225511   4.980   6.410   0.845 -2.6545  0.1714  1.9077
 1318TIP3   OH225512   1.912   6.343   8.759  0.8873  0.3148  0.3294
 1318TIP3    H125513   1.890   6.265   8.708 -0.1222  0.1717  0.9572
 1318TIP3    H225514   1.920   6.311   8.849 -0.2515  1.0479  0.7026
 1319TIP3   OH225515   2.301   2.334   1.613 -0.3665  0.5772  0.3320
 1319TIP3    H125516   2.242   2.277   1.661  0.9827 -2.5241 -1.3933
 1319TIP3    H225517   2.246   2.379   1.549 -1.3041  0.2287  0.8870
 1320TIP3   OH225518   0.930   2.383   1.726  0.4549 -0.4961  0.4479
 1320TIP3    H125519   1.020   2.360   1.751  0.1382 -1.0582  1.1111
 1320TIP3    H225520   0.883   2.391   1.809  0.0803  0.6467  0.1459
 1321TIP3   OH225521   2.738   6.582   2.809 -0.0074 -0.2674 -0.4026
 1321TIP3    H125522   2.725   6.506   2.866 -0.9415 -0.9538 -1.4713
 1321TIP3    H225523   2.660   6.583   2.753  0.6354  0.6761 -1.3179
 1322TIP3   OH225524   4.809   4.958   8.360  0.2809 -0.4687 -0.2126
 1322TIP3    H125525   4.795   5.052   8.352  2.0116 -0.2137 -0.5042
 1322TIP3    H225526   4.748   4.919   8.297  0.2737  0.5099 -0.8298
 1323TIP3   OH225527   0.511   4.907   0.184 -0.0271 -0.1303  0.5410
 1323TIP3    H125528   0.460   4.987   0.171  0.9216  0.2046 -1.4879
 1323TIP3    H225529   0.551   4.918   0.270  2.6389  3.1679 -0.8497
 1324TIP3   OH225530   4.694   0.148   2.824  0.4582 -0.2294  0.1443
 1324TIP3    H125531   4.745   0.119   2.900  0.2509  0.4778  0.5549
 1324TIP3    H225532   4.646   0.225   2.854 -0.5885 -0.6679 -0.3435
 1325TIP3   OH225533   0.301   5.938   0.670 -0.2535  0.3155 -0.0645
 1325TIP3    H125534   0.206   5.942   0.677 -0.2316  1.3130 -0.2372
 1325TIP3    H225535   0.332   5.949   0.760 -0.3191 -1.3165  0.1811
 1326TIP3   OH225536   6.225   4.516   2.179  0.3146 -0.0294  0.0946
 1326TIP3    H125537   6.285   4.453   2.219 -1.1504 -2.1330 -0.8884
 1326TIP3    H225538   6.227   4.495   2.086  0.0385  1.6330 -0.3169
 1327TIP3   OH225539   6.121   3.805   1.627  0.1845 -0.3294  0.0321
 1327TIP3    H125540   6.148   3.729   1.575  0.3150 -0.0027 -0.3907
 1327TIP3    H225541   6.092   3.869   1.562 -1.9501 -0.7782  0.4974
 1328TIP3   OH225542   0.124   0.350   1.535 -0.1064  0.1341  0.1315
 1328TIP3    H125543   0.097   0.400   1.613 -1.6128  0.9462 -0.8723
 1328TIP3    H225544   0.123   0.414   1.464 -2.2224 -1.2745 -1.2277
 1329TIP3   OH225545   0.986   3.601   3.073 -0.3507  0.6786 -0.2444
 1329TIP3    H125546   1.042   3.558   3.009  1.7398  0.4432  1.6001
 1329TIP3    H225547   1.023   3.689   3.082 -0.8489  0.8383  0.3577
 1330TIP3   OH225548   1.172   6.673   1.279  0.2622  0.3554  0.4300
 1330TIP3    H125549   1.082   6.641   1.284  0.2479  0.2356 -0.5340
 1330TIP3    H225550   1.176   6.742   1.345 -0.1793 -0.4729  1.3629
 1331TIP3   OH225551   2.179   1.945   0.405 -0.0637 -0.8470 -0.0908
 1331TIP3    H125552   2.150   1.914   0.319  1.2562  1.2784 -1.4061
 1331TIP3    H225553   2.270   1.918   0.411  0.4995  0.8857 -0.3778
 1332TIP3   OH225554   3.608   5.916   8.842  0.3137  0.5719 -0.0026
 1332TIP3    H125555   3.620   5.970   8.763 -0.5599 -1.4742 -1.6526
 1332TIP3    H225556   3.686   5.860   8.844  0.6144  1.0059  0.9667
 1333TIP3   OH225557   2.820   3.306   8.909  0.2523 -0.1991 -0.3399
 1333TIP3    H125558   2.733   3.317   8.873 -0.4126 -1.9926  0.5939
 1333TIP3    H225559   2.868   3.384   8.881 -1.8325  1.1811 -0.2834
 1334TIP3   OH225560   0.460   6.458   1.592  0.0944  0.1315  0.2064
 1334TIP3    H125561   0.368   6.431   1.594 -0.6916  2.3541 -1.3271
 1334TIP3    H225562   0.465   6.528   1.658  0.4037  0.7637 -0.4800
 1335TIP3   OH225563   5.378   3.921   1.998  0.5328 -0.0559 -0.2815
 1335TIP3    H125564   5.410   3.999   2.044 -0.1194  0.2187 -0.2744
 1335TIP3    H225565   5.385   3.851   2.063 -0.4992  0.3570  0.2997
 1336TIP3   OH225566   1.226   3.518   1.487 -0.0676  0.4648  0.5665
 1336TIP3    H125567   1.294   3.451   1.482  1.0682  1.5735  0.2955
 1336TIP3    H225568   1.149   3.473   1.521  0.5632 -1.0192  0.1260
 1337TIP3   OH225569   4.882   3.238   0.088 -0.1083  0.6777  0.6038
 1337TIP3    H125570   4.797   3.234   0.132  0.0263  1.7861  0.9751
 1337TIP3    H225571   4.938   3.181   0.141 -0.3946  0.6377  0.8692
 1338TIP3   OH225572   1.220   1.324   0.254  0.5052  0.0349 -0.8823
 1338TIP3    H125573   1.273   1.362   0.184 -0.5310  2.1821 -0.5883
 1338TIP3    H225574   1.271   1.341   0.334  0.0184  0.9248 -0.7450
 1339TIP3   OH225575   3.723   0.402   7.285  0.2190  0.4899  1.0711
 1339TIP3    H125576   3.701   0.308   7.291  0.0887  0.5451  1.5503
 1339TIP3    H225577   3.814   0.403   7.255 -0.2640  0.2462 -0.5101
 1340TIP3   OH225578   1.088   1.453   2.372 -0.4588  0.0296 -0.8491
 1340TIP3    H125579   1.129   1.480   2.290  1.0939 -0.5281 -0.2831
 1340TIP3    H225580   1.161   1.429   2.430 -1.5580 -0.6721  0.3155
 1341TIP3   OH225581   5.426   1.627   0.916  0.5496  0.0883  0.2551
 1341TIP3    H125582   5.485   1.637   0.991  0.1844 -1.5951  0.8186
 1341TIP3    H225583   5.340   1.650   0.950  0.6509  1.1612 -0.1828
 1342TIP3   OH225584   2.465   3.671   8.465 -1.1629  0.6536 -0.4743
 1342TIP3    H125585   2.386   3.673   8.411 -1.5313 -0.1241  0.0086
 1342TIP3    H225586   2.449   3.737   8.533 -1.7554 -0.0430  0.0828
 1343TIP3   OH225587   5.666   0.884   8.544 -0.0796 -0.1417 -0.0469
 1343TIP3    H125588   5.625   0.799   8.528 -1.1709  0.5945 -1.5492
 1343TIP3    H225589   5.741   0.887   8.485  0.0468 -0.1210  0.1133
 1344TIP3   OH225590   2.377   5.023   0.182  0.6053  0.5515  0.4084
 1344TIP3    H125591   2.357   5.083   0.110  0.4268  2.1732  1.7487
 1344TIP3    H225592   2.291   4.999   0.218  0.7232  0.4526  0.6306
 1345TIP3   OH225593   0.437   5.331   1.985 -0.1217  0.4454  0.0504
 1345TIP3    H125594   0.531   5.317   1.988 -0.1018  0.6602  0.5136
 1345TIP3    H225595   0.403   5.255   1.938  0.2046 -0.0399  0.5794
 1346TIP3   OH225596   3.759   6.245   8.777  0.2396 -0.6592 -0.1546
 1346TIP3    H125597   3.707   6.201   8.709  0.7623 -0.2171 -0.8575
 1346TIP3    H225598   3.784   6.329   8.737  0.6502 -0.4435  0.5452
 1347TIP3   OH225599   2.938   1.175   7.949  0.0013 -0.5025 -0.0719
 1347TIP3    H125600   2.898   1.091   7.928 -2.0304  0.8469 -2.1307
 1347TIP3    H225601   2.900   1.236   7.886  0.6562  2.1739  1.9374
 1348TIP3   OH225602   4.931   2.563   2.875  0.0361  0.3184  0.3627
 1348TIP3    H125603   4.961   2.476   2.903  0.8855  0.1956 -0.8530
 1348TIP3    H225604   4.877   2.594   2.948 -0.1065 -1.1305  0.9094
 1349TIP3   OH225605   4.064   3.050   8.643 -0.2624 -0.2033 -0.4156
 1349TIP3    H125606   4.029   2.962   8.654  1.7166 -1.0581 -0.4825
 1349TIP3    H225607   4.069   3.063   8.549 -3.2065  1.1861 -0.4921
 1350TIP3   OH225608   3.427   3.991   8.043  0.3624  0.2257 -0.1069
 1350TIP3    H125609   3.510   4.031   8.070 -0.5209  1.7192  0.4324
 1350TIP3    H225610   3.402   3.936   8.117  1.7600 -1.7844 -0.9912
 1351TIP3   OH225611   0.154   5.538   1.541 -0.0744 -0.2546  0.0106
 1351TIP3    H125612   0.197   5.508   1.461 -2.3530 -2.4088 -0.5514
 1351TIP3    H225613   0.127   5.628   1.521  1.6627  0.1645 -0.6153
 1352TIP3   OH225614   0.927   5.639   2.149  0.0976  0.0549 -0.5856
 1352TIP3    H125615   0.989   5.671   2.083 -0.1274  0.6416 -0.5194
 1352TIP3    H225616   0.972   5.565   2.191  1.1469  1.0568  0.1077
 1353TIP3   OH225617   5.824   3.784   0.097  0.4157 -0.2409 -0.1784
 1353TIP3    H125618   5.859   3.874   0.099  1.2875 -0.5848  0.9084
 1353TIP3    H225619   5.738   3.791   0.138  1.6645 -0.3403  2.6914
 1354TIP3   OH225620   1.650   6.350   0.487 -0.2114  0.0801  0.2032
 1354TIP3    H125621   1.731   6.306   0.461 -0.0931 -0.2380  1.0711
 1354TIP3    H225622   1.679   6.425   0.540 -0.4907 -0.2764  0.8728
 1355TIP3   OH225623   0.056   0.476   1.761  0.0974 -0.5111 -0.1417
 1355TIP3    H125624   0.013   0.561   1.774 -1.0480 -0.8297 -1.6059
 1355TIP3    H225625   0.017   0.419   1.826 -1.0937 -0.5699 -0.8886
 1356TIP3   OH225626   4.222   1.995   1.533  0.0605 -0.1280  0.3046
 1356TIP3    H125627   4.171   2.026   1.458  1.7660  0.1015 -0.8135
 1356TIP3    H225628   4.219   2.067   1.595  0.0455  0.3747 -0.2660
 1357TIP3   OH225629   5.448   3.183   8.742  0.0210 -0.0621  0.8458
 1357TIP3    H125630   5.519   3.120   8.757  1.4232  0.9502 -1.0734
 1357TIP3    H225631   5.370   3.128   8.731  0.8436 -1.3443  1.1400
 1358TIP3   OH225632   3.068   1.201   8.425 -0.0620  0.1098 -0.3083
 1358TIP3    H125633   3.032   1.149   8.496 -1.2859  0.4277 -0.6521
 1358TIP3    H225634   3.037   1.157   8.345  2.0260 -0.7484 -0.6870
 1359TIP3   OH225635   5.525   4.168   2.466  0.1444  0.4695 -0.2564
 1359TIP3    H125636   5.574   4.125   2.395 -2.0830 -1.8335 -0.5530
 1359TIP3    H225637   5.566   4.136   2.546  0.1299 -0.2073 -0.5076
 1360TIP3   OH225638   4.259   0.956   8.724  0.0309 -0.2950  0.5279
 1360TIP3    H125639   4.250   0.892   8.654 -0.5552 -0.5629  0.8426
 1360TIP3    H225640   4.340   1.002   8.704 -0.4783  0.0943 -0.7050
 1361TIP3   OH225641   2.873   5.355   2.096  0.5175 -0.7187 -0.3494
 1361TIP3    H125642   2.928   5.324   2.168 -0.4792  1.2620  1.3387
 1361TIP3    H225643   2.783   5.342   2.126  0.0771  1.2984 -0.6595
 1362TIP3   OH225644   2.323   3.962   0.242  0.0639  0.1317 -0.8483
 1362TIP3    H125645   2.327   3.888   0.303 -0.2175 -0.2776 -1.3219
 1362TIP3    H225646   2.414   3.992   0.235  0.2531 -0.4634 -1.0119
 1363TIP3   OH225647   1.702   3.688   9.003  0.3800  0.0801  0.2938
 1363TIP3    H125648   1.796   3.708   9.002  0.3417  0.2621 -0.3016
 1363TIP3    H225649   1.691   3.618   8.939  0.0079  0.5743 -0.1964
 1364TIP3   OH225650   0.517   4.654   1.010 -0.3697 -0.3414  0.3271
 1364TIP3    H125651   0.567   4.578   0.980  1.0481  0.1878  1.2574
 1364TIP3    H225652   0.583   4.717   1.037 -1.5330  1.0119  0.1189
 1365TIP3   OH225653   3.423   3.331   1.106  0.2016  0.0631 -0.3905
 1365TIP3    H125654   3.347   3.337   1.049 -0.3182 -1.5384  0.0776
 1365TIP3    H225655   3.387   3.324   1.194  0.9296  0.4554 -0.0546
 1366TIP3   OH225656   4.200   0.897   1.656  0.7017  0.6859 -0.2654
 1366TIP3    H125657   4.186   0.982   1.614 -1.2260  0.2085 -0.6731
 1366TIP3    H225658   4.133   0.840   1.617  1.1555 -0.6958  0.9066
 1367TIP3   OH225659   1.890   2.268   0.678 -0.1416  0.3797 -0.7183
 1367TIP3    H125660   1.953   2.226   0.620 -0.1528 -0.4366 -0.1590
 1367TIP3    H225661   1.820   2.203   0.689 -0.3244  0.6747 -0.0993
 1368TIP3   OH225662   1.286   5.284   0.468  0.4834  0.4336 -0.5609
 1368TIP3    H125663   1.266   5.219   0.536  1.2297  1.8845  1.1067
 1368TIP3    H225664   1.353   5.241   0.414  0.2429 -0.5548 -0.1039
 1369TIP3   OH225665   4.548   4.789   8.553 -0.7514 -0.0222  0.3948
 1369TIP3    H125666   4.636   4.807   8.584 -1.4049  0.1490  2.2884
 1369TIP3    H225667   4.512   4.726   8.616 -1.8250 -0.4756 -0.6144
 1370TIP3   OH225668   5.705   1.113   8.833  0.0153 -0.6387 -0.1000
 1370TIP3    H125669   5.667   1.129   8.746 -3.4883 -2.5053  0.9059
 1370TIP3    H225670   5.668   1.182   8.888  0.3307 -0.8430  0.3700
 1371TIP3   OH225671   6.457   5.455   2.125  0.4586 -0.1269  0.0188
 1371TIP3    H125672   6.458   5.516   2.198  1.2777 -0.9942  0.7597
 1371TIP3    H225673   6.373   5.471   2.081  0.1202  0.6547  0.9215
 1372TIP3   OH225674   6.255   6.567   0.430  0.1931 -0.1255 -0.1021
 1372TIP3    H125675   6.289   6.657   0.431 -1.3623  0.4987 -0.0027
 1372TIP3    H225676   6.207   6.559   0.512  1.7244 -1.6731  0.7068
 1373TIP3   OH225677   4.316   0.450   7.212 -0.4630  0.0545  0.2625
 1373TIP3    H125678   4.267   0.507   7.153 -1.3054 -1.0416 -0.1324
 1373TIP3    H225679   4.320   0.366   7.166 -1.5683 -0.9794  1.9476
 1374TIP3   OH225680   5.227   1.114   2.979  0.1837  0.1807 -0.1596
 1374TIP3    H125681   5.296   1.163   2.934 -1.3266  1.1913 -1.4756
 1374TIP3    H225682   5.191   1.176   3.042  0.1610 -0.1744  0.1761
 1375TIP3   OH225683   1.225   4.520   2.914 -0.3617  0.3886 -0.1473
 1375TIP3    H125684   1.186   4.454   2.972  1.0647 -1.0850 -0.7911
 1375TIP3    H225685   1.150   4.562   2.871 -1.3152 -0.7379  0.3594
 1376TIP3   OH225686   6.666   3.117   2.363 -0.0598 -0.7120 -0.1713
 1376TIP3    H125687   6.572   3.099   2.370 -0.0377 -1.6126 -1.6488
 1376TIP3    H225688   6.671   3.195   2.308  0.0626 -1.6847 -1.6025
 1377TIP3   OH225689   3.495   1.557   1.685 -0.0076  0.0914 -0.7814
 1377TIP3    H125690   3.410   1.554   1.729 -0.2565 -1.0400 -1.2922
 1377TIP3    H225691   3.545   1.623   1.733 -1.2152  0.8680 -0.5554
 1378TIP3   OH225692   0.742   0.233   8.448  0.2284 -0.3949  0.0268
 1378TIP3    H125693   0.796   0.227   8.369  0.0449  0.1645 -0.1472
 1378TIP3    H225694   0.724   0.142   8.472  0.7247 -0.5780 -0.2710
 1379TIP3   OH225695   4.442   1.614   1.082 -0.7756 -0.1213 -0.6177
 1379TIP3    H125696   4.493   1.536   1.063 -1.4186 -0.7276  0.0744
 1379TIP3    H225697   4.371   1.583   1.138 -1.0955  0.9403 -0.4128
 1380TIP3   OH225698   4.706   3.628   0.213  0.3381  0.7751 -0.4228
 1380TIP3    H125699   4.642   3.664   0.151  0.0142  1.3925  0.2503
 1380TIP3    H225700   4.768   3.579   0.159 -1.4609 -1.0047 -0.9650
 1381TIP3   OH225701   1.705   1.618   3.207  0.6631 -0.4628 -0.2999
 1381TIP3    H125702   1.661   1.685   3.259  1.8683  0.8403 -0.9138
 1381TIP3    H225703   1.633   1.569   3.166 -0.2938  2.1043 -1.9132
 1382TIP3   OH225704   0.790   5.564   7.894 -0.6543 -0.4742  0.0506
 1382TIP3    H125705   0.877   5.529   7.912 -0.2015 -0.0822 -1.1983
 1382TIP3    H225706   0.803   5.620   7.817 -2.3126 -1.7139 -1.2007
 1383TIP3   OH225707   5.574   2.965   0.730  0.5097 -0.0906  0.2841
 1383TIP3    H125708   5.595   2.881   0.688 -1.7276  0.8695 -3.1453
 1383TIP3    H225709   5.593   3.031   0.663 -0.5992  1.8937  1.8007
 1384TIP3   OH225710   0.110   0.539   7.714 -0.0690  0.2034 -0.1510
 1384TIP3    H125711   0.115   0.629   7.682 -0.1007  0.2767  0.0538
 1384TIP3    H225712   0.018   0.526   7.736  0.2615  0.7537  1.6730
 1385TIP3   OH225713   0.056   6.391   7.986 -0.5197  0.8095  0.4962
 1385TIP3    H125714  -0.007   6.453   8.023  0.7630  1.5811  1.4754
 1385TIP3    H225715   0.099   6.440   7.915  0.1866  0.9077  0.9802
 1386TIP3   OH225716   1.470   1.320   8.131  0.0827  0.0358  0.5685
 1386TIP3    H125717   1.420   1.388   8.177 -0.3622  2.1725 -2.7670
 1386TIP3    H225718   1.405   1.252   8.111 -0.9142  1.3971 -1.0861
 1387TIP3   OH225719   3.817   4.514   0.626  0.0499  0.3603  0.0769
 1387TIP3    H125720   3.869   4.444   0.587 -0.4355  0.4614 -0.7571
 1387TIP3    H225721   3.728   4.498   0.597  0.0113  1.6439 -0.6051
 1388TIP3   OH225722   4.737   5.802   2.000  0.0263 -0.2837  0.0293
 1388TIP3    H125723   4.814   5.852   2.025 -0.6777  1.7595 -1.5521
 1388TIP3    H225724   4.764   5.711   2.007  0.6969  0.0533  5.2041
 1389TIP3   OH225725   0.211   4.196   7.982  0.4351 -0.0364 -0.0192
 1389TIP3    H125726   0.278   4.264   7.976  1.1589 -0.5574  1.5796
 1389TIP3    H225727   0.226   4.140   7.905  1.7800 -0.0927  0.2695
 1390TIP3   OH225728   1.960   2.410   1.851 -0.3927  0.2872  0.6287
 1390TIP3    H125729   2.038   2.466   1.844 -0.0119 -0.3185 -0.1305
 1390TIP3    H225730   1.922   2.433   1.936  1.9893 -1.1373  2.2305
 1391TIP3   OH225731   5.961   1.636   2.761 -0.6755 -0.1104  0.2395
 1391TIP3    H125732   5.877   1.662   2.722 -0.4398 -1.2302 -1.0693
 1391TIP3    H225733   5.936   1.579   2.834 -1.0615 -0.6902 -0.3328
 1392TIP3   OH225734   4.925   1.403   8.717 -0.1723 -0.3877 -0.2647
 1392TIP3    H125735   4.843   1.384   8.764 -0.1688 -1.3574 -0.6296
 1392TIP3    H225736   4.945   1.494   8.740 -0.3037 -0.7592  1.4122
 1393TIP3   OH225737   4.479   1.792   1.326  0.2952  0.4366  0.0199
 1393TIP3    H125738   4.391   1.821   1.349  0.1437 -0.7963  1.1200
 1393TIP3    H225739   4.482   1.799   1.230 -0.5253  1.7173  0.0634
 1394TIP3   OH225740   0.233   4.209   2.719 -0.2937 -0.3385 -0.3869
 1394TIP3    H125741   0.243   4.150   2.794 -1.8149  1.5891  1.4670
 1394TIP3    H225742   0.305   4.272   2.728 -1.7766  1.2758  0.9166
 1395TIP3   OH225743   5.370   3.018   2.841 -0.0671  0.4032 -0.4509
 1395TIP3    H125744   5.449   3.070   2.854  0.2853 -0.1817 -0.1961
 1395TIP3    H225745   5.330   3.012   2.928 -0.0422  0.1481 -0.4563
 1396TIP3   OH225746   3.504   0.766   8.794 -0.0684  0.6442 -0.0057
 1396TIP3    H125747   3.413   0.738   8.803 -0.2039  1.2063  0.4378
 1396TIP3    H225748   3.523   0.810   8.877  1.2940 -1.4057  0.8754
 1397TIP3   OH225749   0.595   0.632   7.923 -0.0338 -0.0528 -0.2053
 1397TIP3    H125750   0.618   0.725   7.917  1.8670 -0.5050 -0.6515
 1397TIP3    H225751   0.504   0.631   7.952  0.4562  1.9448  1.6545
 1398TIP3   OH225752   2.087   4.828   3.147  0.0199  0.3208  0.3172
 1398TIP3    H125753   2.062   4.856   3.235  2.9747 -0.5864  1.5592
 1398TIP3    H225754   2.168   4.876   3.129  0.9806 -1.5998 -0.7303
 1399TIP3   OH225755   0.364   5.091   1.429 -0.7922  0.2545 -0.5366
 1399TIP3    H125756   0.308   5.166   1.406  1.9739  2.1085 -1.7736
 1399TIP3    H225757   0.410   5.070   1.348  1.6131  0.0558  0.7917
 1400TIP3   OH225758   0.647   6.168   2.605 -0.0294 -0.2390  0.6115
 1400TIP3    H125759   0.718   6.184   2.667  1.8975 -0.2191 -1.4620
 1400TIP3    H225760   0.626   6.254   2.571 -0.1738 -0.3856  0.3287
 1401TIP3   OH225761   1.661   1.822   7.857  0.3029 -0.3026 -0.2015
 1401TIP3    H125762   1.736   1.868   7.820 -0.9281  0.8896 -1.3765
 1401TIP3    H225763   1.618   1.782   7.781  0.0296 -1.4118  0.5108
 1402TIP3   OH225764   3.915   4.146   1.121  0.4648 -0.2554 -0.3695
 1402TIP3    H125765   3.901   4.195   1.039  0.9611 -0.9040 -0.8513
 1402TIP3    H225766   3.940   4.214   1.184 -0.9668  0.3993 -0.4606
 1403TIP3   OH225767   1.871   5.020   0.934  0.8023 -0.1469  0.5053
 1403TIP3    H125768   1.962   5.005   0.962  0.8308 -0.7446  0.1033
 1403TIP3    H225769   1.859   4.962   0.859  0.6152  1.1491 -0.5093
 1404TIP3   OH225770   0.836   0.611   3.142 -0.0585 -0.5644  0.2147
 1404TIP3    H125771   0.895   0.657   3.201  0.4841 -1.9985  0.8434
 1404TIP3    H225772   0.890   0.586   3.067 -0.0584 -1.1068  0.3848
 1405TIP3   OH225773   3.500   6.250   7.416  0.4742  0.2595 -0.3037
 1405TIP3    H125774   3.407   6.272   7.424  0.1963 -0.2737 -1.7218
 1405TIP3    H225775   3.506   6.161   7.449  0.3576  0.0567 -0.8275
 1406TIP3   OH225776   0.488   3.789   1.142 -0.0514 -0.6321 -0.2289
 1406TIP3    H125777   0.483   3.697   1.164 -1.5332 -0.3392  0.7843
 1406TIP3    H225778   0.419   3.831   1.194 -0.7039  0.7611 -2.0798
 1407TIP3   OH225779   5.746   0.752   2.234  0.6277  0.0362  0.0290
 1407TIP3    H125780   5.838   0.762   2.259  0.4771  0.6391  0.3436
 1407TIP3    H225781   5.718   0.671   2.276  0.4807  0.8408  1.5250
 1408TIP3   OH225782   5.874   3.551   2.929  0.1237  0.0544 -0.0062
 1408TIP3    H125783   5.860   3.643   2.953 -0.1299  0.1299 -0.4239
 1408TIP3    H225784   5.951   3.525   2.978 -1.2797 -0.2726  2.1410
 1409TIP3   OH225785   5.482   1.389   0.733 -0.1196 -0.1030  0.2478
 1409TIP3    H125786   5.433   1.313   0.764  1.1920 -1.2691 -0.3949
 1409TIP3    H225787   5.443   1.464   0.779 -2.2958 -0.9680 -0.0321
 1410TIP3   OH225788   0.954   5.419   0.855  0.2613  0.2872 -0.4660
 1410TIP3    H125789   0.974   5.386   0.767  0.5010  0.4108 -0.4587
 1410TIP3    H225790   0.861   5.441   0.851 -0.2383 -1.6229 -0.0775
 1411TIP3   OH225791   6.701   3.141   2.828 -0.0271  0.2625 -0.6299
 1411TIP3    H125792   6.649   3.097   2.895  0.1140  1.4955  0.3260
 1411TIP3    H225793   6.664   3.229   2.823 -0.1755  0.1362 -2.3520
 1412TIP3   OH225794   0.340   6.107   0.903 -0.0099  0.6673  0.1556
 1412TIP3    H125795   0.421   6.110   0.852 -0.9026  0.2536 -1.3460
 1412TIP3    H225796   0.310   6.198   0.905 -0.6731  0.5031 -1.2724
 1413TIP3   OH225797   6.260   2.511   0.099 -0.0343 -0.4858  0.5063
 1413TIP3    H125798   6.253   2.434   0.155  2.0421 -2.6019 -1.9077
 1413TIP3    H225799   6.339   2.556   0.129 -0.1888 -0.3449  0.7046
 1414TIP3   OH225800   1.884   1.632   8.210  0.4352  0.4891  0.2941
 1414TIP3    H125801   1.805   1.609   8.260 -0.0997 -0.0628 -0.7668
 1414TIP3    H225802   1.850   1.682   8.136  1.0945  0.2629 -0.1610
 1415TIP3   OH225803   5.117   4.441   8.331  0.4302 -0.2060 -0.8810
 1415TIP3    H125804   5.104   4.511   8.267  0.8714  1.2148  0.5353
 1415TIP3    H225805   5.207   4.412   8.317  0.6104  0.2792 -0.7433
 1416TIP3   OH225806   2.301   0.459   7.713  0.2709  0.1556 -0.5960
 1416TIP3    H125807   2.327   0.370   7.688  2.2881  0.5996 -0.2708
 1416TIP3    H225808   2.342   0.514   7.646  0.2189  0.9295  0.0084
 1417TIP3   OH225809   2.228   2.647   2.231  0.1784 -0.6636  0.2490
 1417TIP3    H125810   2.140   2.656   2.195  0.0026  2.4788  1.2081
 1417TIP3    H225811   2.284   2.692   2.169  0.2696  2.1332  2.1604
 1418TIP3   OH225812   2.256   1.118   2.298 -0.0931  0.3347 -0.0099
 1418TIP3    H125813   2.255   1.158   2.211  0.7792  1.9522  0.7032
 1418TIP3    H225814   2.349   1.116   2.323 -0.0302 -2.3875 -0.0848
 1419TIP3   OH225815   6.572   3.618   1.139 -0.3424 -0.2564  0.5858
 1419TIP3    H125816   6.621   3.622   1.221 -0.5521  0.9766  0.6607
 1419TIP3    H225817   6.544   3.708   1.123 -1.2721 -0.6792 -0.2545
 1420TIP3   OH225818   1.230   0.503   0.466  0.1476  0.2037 -0.3772
 1420TIP3    H125819   1.183   0.421   0.480  2.0905 -0.4904  3.4244
 1420TIP3    H225820   1.308   0.478   0.416  0.7375 -0.3681  0.7769
 1421TIP3   OH225821   2.582   6.024   2.414  0.6536 -0.1071 -0.2824
 1421TIP3    H125822   2.661   5.984   2.452  0.7641 -0.7253 -1.1349
 1421TIP3    H225823   2.593   6.118   2.431  2.7688  0.1393 -2.4229
 1422TIP3   OH225824   0.629   1.738   1.903  0.7992  0.2255  0.1222
 1422TIP3    H125825   0.600   1.695   1.984  1.5142  0.1999  0.3712
 1422TIP3    H225826   0.598   1.828   1.911 -1.3797 -0.3708 -0.7394
 1423TIP3   OH225827   3.258   1.143   0.513  0.2372 -0.0236 -0.0343
 1423TIP3    H125828   3.286   1.051   0.507  0.8524  0.1165  0.5749
 1423TIP3    H225829   3.210   1.148   0.596  0.0161  0.1639 -0.1716
 1424TIP3   OH225830   6.285   2.815   2.436 -0.1430 -0.4682 -0.6872
 1424TIP3    H125831   6.275   2.767   2.354  0.5589  0.1564 -1.1516
 1424TIP3    H225832   6.227   2.890   2.427 -0.4988 -0.7042 -0.3715
 1425TIP3   OH225833   4.841   0.676   2.129  0.0708  0.2079  0.3606
 1425TIP3    H125834   4.864   0.739   2.197 -0.5297 -1.1707  1.8978
 1425TIP3    H225835   4.917   0.617   2.125 -0.3117 -0.3076  0.5749
 1426TIP3   OH225836   3.721   1.553   1.091  0.8571 -0.3202 -0.6767
 1426TIP3    H125837   3.633   1.526   1.065  0.7466 -0.4636 -0.1531
 1426TIP3    H225838   3.743   1.623   1.029 -1.2010  2.5234  1.5240
 1427TIP3   OH225839   5.684   3.546   0.525 -0.0532 -0.0097 -0.5630
 1427TIP3    H125840   5.688   3.463   0.476  2.1515 -0.9963  1.1003
 1427TIP3    H225841   5.610   3.592   0.487 -0.4546 -2.0957 -2.5870
 1428TIP3   OH225842   4.724   1.472   1.243 -0.2721  0.6247 -0.3337
 1428TIP3    H125843   4.669   1.403   1.205 -0.0311 -0.1788  0.7253
 1428TIP3    H225844   4.706   1.468   1.337  2.0935 -0.1882  0.1743
 1429TIP3   OH225845   2.155   3.665   8.730  0.2170 -0.1414  0.3123
 1429TIP3    H125846   2.210   3.601   8.684 -0.6303  0.3842 -1.5309
 1429TIP3    H225847   2.217   3.733   8.758  0.5170  0.9553 -2.6260
 1430TIP3   OH225848   3.323   1.090   7.640  0.0174 -0.4219  0.4434
 1430TIP3    H125849   3.252   1.140   7.679  0.9436  1.6296 -0.3278
 1430TIP3    H225850   3.401   1.114   7.690  0.4952 -1.0840  0.0431
 1431TIP3   OH225851   6.284   0.749   0.021 -0.2427 -0.4085  0.4309
 1431TIP3    H125852   6.277   0.802   0.101 -0.3035 -0.4548  0.4562
 1431TIP3    H225853   6.373   0.765  -0.009 -0.5335  0.3933 -0.0386
 1432TIP3   OH225854   1.755   4.223   2.049 -0.0549 -0.8258  0.0863
 1432TIP3    H125855   1.670   4.182   2.068 -0.0644 -0.6383  0.4495
 1432TIP3    H225856   1.818   4.170   2.097 -0.1510  0.0483  1.2117
 1433TIP3   OH225857   1.335   5.430   1.256  0.1449 -0.5271  0.5368
 1433TIP3    H125858   1.275   5.443   1.183  0.0770  2.5931  1.0232
 1433TIP3    H225859   1.284   5.385   1.322 -0.2760 -1.9140 -0.6780
 1434TIP3   OH225860   0.253   4.135   0.730 -0.7337  0.1350  0.2361
 1434TIP3    H125861   0.313   4.076   0.776 -2.1144 -1.8033 -0.3532
 1434TIP3    H225862   0.180   4.147   0.791 -0.1799  1.8242  0.6186
 1435TIP3   OH225863   3.896   4.904   0.309 -0.0772 -0.2554  0.6173
 1435TIP3    H125864   3.991   4.890   0.306  0.0586  0.5523  0.9856
 1435TIP3    H225865   3.876   4.946   0.226 -0.2471 -1.1530  0.1893
 1436TIP3   OH225866   2.871   0.171   6.568 -0.1865  0.1475 -0.4256
 1436TIP3    H125867   2.919   0.157   6.649 -1.0946  0.5913  0.2181
 1436TIP3    H225868   2.797   0.110   6.573  0.4875 -0.8068 -1.5796
 1437TIP3   OH225869   4.127   5.820   8.877  0.4853 -0.0192 -0.4963
 1437TIP3    H125870   4.172   5.790   8.798  0.3658  0.0507 -0.5914
 1437TIP3    H225871   4.093   5.907   8.854  0.2080 -0.1168 -0.4622
 1438TIP3   OH225872   6.421   3.887   8.611  0.2720  0.1049 -0.0934
 1438TIP3    H125873   6.439   3.823   8.681 -0.7385 -0.1815 -0.0853
 1438TIP3    H225874   6.394   3.834   8.536  0.4309  0.4718 -0.4159
 1439TIP3   OH225875   0.322   1.906   1.876  0.5445  0.9932 -0.0266
 1439TIP3    H125876   0.327   1.817   1.842  0.0685  0.6078  0.8657
 1439TIP3    H225877   0.325   1.963   1.799  0.5734  0.1907 -0.6178
 1440TIP3   OH225878   0.525   1.857   2.245 -0.2736  0.0766  0.4244
 1440TIP3    H125879   0.551   1.765   2.243  1.0254  0.4120  1.0419
 1440TIP3    H225880   0.470   1.865   2.323  0.7894  0.1086  1.1865
 1441TIP3   OH225881   1.760   5.411   2.308  0.1823  0.4647  0.3706
 1441TIP3    H125882   1.788   5.410   2.400  0.7399  2.0764  0.2621
 1441TIP3    H225883   1.671   5.446   2.311 -0.1648 -0.4051  0.3631
 1442TIP3   OH225884   1.830   2.834   8.942  0.0965  0.0020  0.1228
 1442TIP3    H125885   1.804   2.744   8.957 -0.4969  0.2954  0.9305
 1442TIP3    H225886   1.776   2.885   9.002 -0.7880  1.0494 -1.4761
 1443TIP3   OH225887   2.625   6.683   0.441  0.8174 -0.0430  0.0161
 1443TIP3    H125888   2.534   6.656   0.446  0.5289  0.9948  0.8724
 1443TIP3    H225889   2.622   6.778   0.453  1.9015  0.1942 -1.3250
 1444TIP3   OH225890   2.825   1.908   2.820 -0.6385  0.4883  0.7749
 1444TIP3    H125891   2.888   1.966   2.861 -1.0536  1.9756 -0.6074
 1444TIP3    H225892   2.786   1.859   2.893  1.4135  0.1992  1.7241
 1445TIP3   OH225893   5.562   4.761   7.903 -0.6646  0.4854 -0.8532
 1445TIP3    H125894   5.477   4.775   7.860 -0.8184 -0.7419 -0.9839
 1445TIP3    H225895   5.544   4.771   7.996 -1.1308 -0.5503 -0.8236
 1446TIP3   OH225896   1.519   4.184   2.322 -0.1209 -1.1381 -0.4779
 1446TIP3    H125897   1.441   4.237   2.341  1.1377  1.0649 -1.1269
 1446TIP3    H225898   1.526   4.185   2.227  0.1203 -2.2508 -0.4884
 1447TIP3   OH225899   2.869   1.501   2.814  0.1280 -0.0731 -0.0215
 1447TIP3    H125900   2.787   1.521   2.858  0.3143  0.1153  0.2511
 1447TIP3    H225901   2.928   1.571   2.841  0.0747  0.3803 -1.0724
 1448TIP3   OH225902   2.693   4.000   2.190  0.0072 -0.0568 -0.1069
 1448TIP3    H125903   2.731   4.087   2.201 -0.0522  0.3688 -2.6970
 1448TIP3    H225904   2.747   3.943   2.246 -0.9870  1.7961  2.9756
 1449TIP3   OH225905   2.658   1.148   0.996 -0.1792 -0.3290  0.2319
 1449TIP3    H125906   2.571   1.150   0.957 -0.9312 -2.0769  1.6968
 1449TIP3    H225907   2.656   1.218   1.061  0.2564  0.9843 -1.1129
 1450TIP3   OH225908   0.859   5.345   0.572 -0.1974 -0.6418  0.0608
 1450TIP3    H125909   0.770   5.310   0.575 -0.0588 -0.9423  0.7577
 1450TIP3    H225910   0.910   5.277   0.528 -0.3040 -0.4721 -0.3333
 1451TIP3   OH225911   6.460   2.262   0.666 -0.1704  0.5543  0.0313
 1451TIP3    H125912   6.417   2.324   0.606 -1.7817  0.7807  1.3291
 1451TIP3    H225913   6.507   2.317   0.728 -0.2444  0.4103  0.2164
 1452TIP3   OH225914   1.339   1.885   1.515 -0.3665 -0.7824  0.1140
 1452TIP3    H125915   1.405   1.949   1.489 -2.0741 -0.2779 -3.7731
 1452TIP3    H225916   1.262   1.938   1.536 -0.2778 -1.4446  2.2882
 1453TIP3   OH225917   4.272   5.947   2.039  0.1957 -0.4715 -0.0418
 1453TIP3    H125918   4.292   5.989   1.956 -0.5285  0.4213  0.2249
 1453TIP3    H225919   4.358   5.932   2.079  0.6253 -1.8482 -1.3726
 1454TIP3   OH225920   6.175   2.134   8.774  0.3344 -0.1296  0.0698
 1454TIP3    H125921   6.081   2.137   8.793  0.0250  0.0792 -1.3808
 1454TIP3    H225922   6.203   2.225   8.779  0.0758  0.0404 -1.1813
 1455TIP3   OH225923   1.791   4.155   0.945  0.0527 -0.6387  0.0512
 1455TIP3    H125924   1.762   4.065   0.927 -2.0097 -0.0057 -0.0587
 1455TIP3    H225925   1.786   4.163   1.040 -3.0005  0.2825 -0.0931
 1456TIP3   OH225926   4.461   6.208   2.373  0.1571 -0.1838 -0.1935
 1456TIP3    H125927   4.458   6.304   2.372 -0.7034 -0.2002 -0.1232
 1456TIP3    H225928   4.515   6.185   2.298 -1.7514  0.3236 -1.8198
 1457TIP3   OH225929   1.206   1.694   2.639 -0.1986  0.0781  0.3878
 1457TIP3    H125930   1.130   1.704   2.697 -0.5925  1.9645 -0.3669
 1457TIP3    H225931   1.192   1.610   2.595 -1.2529 -0.1423  1.0950
 1458TIP3   OH225932   4.329   0.579   1.175 -0.2855  0.8636 -0.2365
 1458TIP3    H125933   4.321   0.655   1.117 -3.1797  0.9750  0.1592
 1458TIP3    H225934   4.418   0.584   1.208 -0.4043  4.2421 -0.0240
 1459TIP3   OH225935   1.660   4.004   0.088  0.1181 -0.3137 -0.3002
 1459TIP3    H125936   1.740   3.963   0.124  1.0911  1.6709 -0.0828
 1459TIP3    H225937   1.688   4.092   0.063 -2.4291  1.1685  1.6222
 1460TIP3   OH225938   2.743   1.268   8.900 -0.2178 -0.0273  0.3233
 1460TIP3    H125939   2.799   1.346   8.907  0.6470 -0.0903 -3.6870
 1460TIP3    H225940   2.803   1.194   8.914 -0.2119 -0.0316  0.2760
 1461TIP3   OH225941   0.432   2.951   1.977 -0.1012 -0.1406 -0.0355
 1461TIP3    H125942   0.421   2.912   2.064 -2.3224 -0.1081 -0.2342
 1461TIP3    H225943   0.403   3.042   1.988  0.1195  0.0135 -0.7005
 1462TIP3   OH225944   5.211   3.637   7.830  0.2225  0.2434  0.3653
 1462TIP3    H125945   5.196   3.545   7.807 -0.9109  0.6878 -0.7551
 1462TIP3    H225946   5.307   3.645   7.833  0.3433 -0.8621  0.0476
 1463TIP3   OH225947   5.218   3.982   8.000  0.0619  0.3412 -0.0392
 1463TIP3    H125948   5.232   4.077   8.002 -0.8396  0.4806  0.4474
 1463TIP3    H225949   5.280   3.949   7.936  0.9202  1.1690  0.3513
 1464TIP3   OH225950   2.127   0.677   0.692  0.1044 -0.1336  0.2293
 1464TIP3    H125951   2.195   0.640   0.635  1.1974  0.7779  0.8825
 1464TIP3    H225952   2.157   0.657   0.780 -0.4643  0.3079  0.5283
 1465TIP3   OH225953   2.722   3.351   0.572 -0.0072 -0.2091  0.2213
 1465TIP3    H125954   2.659   3.351   0.644  0.1257  0.1267  0.3362
 1465TIP3    H225955   2.805   3.325   0.611 -0.6451 -3.7461 -0.4469
 1466TIP3   OH225956   2.594   0.248   7.058  0.0602 -0.6312 -0.2142
 1466TIP3    H125957   2.662   0.255   7.125  0.3440  0.0500 -0.5674
 1466TIP3    H225958   2.581   0.337   7.027  0.1431 -0.9681 -1.2736
 1467TIP3   OH225959   1.056   2.659   0.172  0.3960  0.6464  0.0491
 1467TIP3    H125960   1.021   2.650   0.260 -0.9607  2.1813 -0.2936
 1467TIP3    H225961   1.064   2.754   0.159 -0.1682  0.4853 -1.7427
 1468TIP3   OH225962   6.357   2.337   8.113 -0.3779  0.3008  0.1638
 1468TIP3    H125963   6.449   2.347   8.090 -0.5123 -0.0096 -0.5193
 1468TIP3    H225964   6.316   2.420   8.087 -0.3086  0.4054  0.3877
 1469TIP3   OH225965   5.040   5.528   2.218 -0.4254 -0.1062  0.3864
 1469TIP3    H125966   5.108   5.587   2.250 -0.4579 -0.4737  1.1596
 1469TIP3    H225967   5.080   5.441   2.220 -0.4523 -0.1552 -0.5258
 1470TIP3   OH225968   5.765   4.035   8.190 -0.3542  0.4535  0.4041
 1470TIP3    H125969   5.856   4.005   8.190 -0.8613 -1.1664  0.1657
 1470TIP3    H225970   5.767   4.116   8.140  1.0143  0.6305  0.7138
 1471TIP3   OH225971   6.278   0.347   1.947 -0.2107  0.2091 -0.1056
 1471TIP3    H125972   6.256   0.418   1.887 -4.5409  0.0723  0.9411
 1471TIP3    H225973   6.275   0.388   2.034  0.4255 -0.6633  0.3403
 1472TIP3   OH225974   4.443   1.588   8.206  0.3526 -0.4802  0.0111
 1472TIP3    H125975   4.483   1.581   8.292 -0.2002  0.2029  0.3298
 1472TIP3    H225976   4.362   1.538   8.212  1.0650 -1.7420 -0.5916
 1473TIP3   OH225977   2.290   0.489   8.499 -0.4212 -0.3141  0.3607
 1473TIP3    H125978   2.314   0.473   8.408  1.9599 -0.7767  0.9964
 1473TIP3    H225979   2.249   0.408   8.529  0.4956 -0.8620  0.1822
 1474TIP3   OH225980   3.332   1.278   1.503  0.3741  0.1847  0.1199
 1474TIP3    H125981   3.309   1.333   1.429 -0.2187 -0.4637 -0.1786
 1474TIP3    H225982   3.427   1.289   1.512  0.6184 -0.5492 -1.3984
 1475TIP3   OH225983   5.785   0.421   1.531  0.0647 -0.1213 -0.1949
 1475TIP3    H125984   5.798   0.503   1.579 -1.0083 -0.1191  0.1171
 1475TIP3    H225985   5.867   0.374   1.541  0.2415  0.3586  0.7195
 1476TIP3   OH225986   4.496   4.789   2.393 -0.0021  0.3763  0.3061
 1476TIP3    H125987   4.502   4.789   2.298 -0.0573  0.2644  0.3030
 1476TIP3    H225988   4.410   4.752   2.412 -0.1475  0.7499  0.3893
 1477TIP3   OH225989   6.066   4.605   9.000  0.3927  0.1385 -0.2665
 1477TIP3    H125990   5.980   4.568   9.018  0.9630 -1.3221 -0.4482
 1477TIP3    H225991   6.075   4.676   9.064 -0.4342 -0.5151  0.6066
 1478TIP3   OH225992   3.726   0.727   2.871 -0.5447  0.5507  0.7653
 1478TIP3    H125993   3.771   0.734   2.787  2.1786  0.4725  2.1132
 1478TIP3    H225994   3.759   0.645   2.909 -1.6060  0.6515  1.9681
 1479TIP3   OH225995   2.086   4.619   0.980 -0.3650  0.3764 -0.0982
 1479TIP3    H125996   2.111   4.527   0.969  0.2324  0.3214  1.5052
 1479TIP3    H225997   1.991   4.621   0.967 -0.3909 -0.4833 -0.0515
 1480TIP3   OH225998   1.887   0.645   7.495 -1.0724 -0.7371 -0.6887
 1480TIP3    H125999   1.877   0.558   7.455 -0.8864 -0.7272 -0.7555
 1480TIP3    H226000   1.877   0.706   7.423  0.7808 -0.7622 -1.0067
 1481TIP3   OH226001   6.405   5.525   0.460  0.2878  0.0224 -0.3535
 1481TIP3    H126002   6.426   5.575   0.381  0.1928 -0.4282 -0.6641
 1481TIP3    H226003   6.350   5.584   0.512  1.1631  0.6987 -0.1648
 1482TIP3   OH226004   1.207   2.401   8.702 -0.9141  0.1290  0.2339
 1482TIP3    H126005   1.176   2.315   8.732 -2.0585 -0.3239 -2.0175
 1482TIP3    H226006   1.162   2.415   8.619 -0.1767  2.6044  0.1720
 1483TIP3   OH226007   2.678   5.040   1.830  0.0841 -0.0327 -0.4191
 1483TIP3    H126008   2.725   4.970   1.784 -0.5736 -2.9063  2.8636
 1483TIP3    H226009   2.748   5.091   1.872  0.5057  0.1536 -1.3221
 1484TIP3   OH226010   6.422   3.391   1.098 -0.0228  0.3471  0.6214
 1484TIP3    H126011   6.454   3.481   1.097  0.7504  0.0894  0.9880
 1484TIP3    H226012   6.502   3.337   1.093 -0.3569 -0.3254  2.0202
 1485TIP3   OH226013   0.492   1.333   0.468 -0.7978  0.2818 -0.4646
 1485TIP3    H126014   0.544   1.406   0.435 -0.9662  0.8026  0.4030
 1485TIP3    H226015   0.420   1.323   0.405  0.2005 -0.3116 -1.5659
 1486TIP3   OH226016   2.996   6.579   2.916 -1.0644 -0.5248  0.4833
 1486TIP3    H126017   3.067   6.548   2.860 -0.3407 -0.2966  1.2439
 1486TIP3    H226018   2.919   6.582   2.859 -0.8968 -2.5154  0.0643
 1487TIP3   OH226019   2.436   1.957   1.724  0.4932  0.2132 -0.5123
 1487TIP3    H126020   2.430   1.894   1.795  0.6357  0.1159 -0.5842
 1487TIP3    H226021   2.512   2.011   1.745  1.7158 -1.0303 -1.5384
 1488TIP3   OH226022   2.617   5.918   0.344 -0.0223 -0.5033  0.5013
 1488TIP3    H126023   2.640   5.826   0.334  0.6795 -0.4476  1.4656
 1488TIP3    H226024   2.522   5.920   0.334 -0.1458 -1.4708  1.2917
 1489TIP3   OH226025   1.537   6.227   0.713  0.6330 -0.2743 -0.2225
 1489TIP3    H126026   1.518   6.136   0.689  0.7683 -0.3144 -0.1735
 1489TIP3    H226027   1.581   6.262   0.636  0.3151 -0.1663 -0.3565
 1490TIP3   OH226028   6.424   2.121   8.871 -0.0173 -0.1487  0.4326
 1490TIP3    H126029   6.423   2.099   8.964 -1.2330  0.1115  0.4879
 1490TIP3    H226030   6.332   2.124   8.846  0.1457  2.5476 -0.1201
 1491TIP3   OH226031   1.133   0.927   0.878 -0.2694  0.0221  0.5028
 1491TIP3    H126032   1.123   0.996   0.813 -2.0524 -0.2268  0.4515
 1491TIP3    H226033   1.128   0.845   0.828  0.7737 -0.1574  0.6812
 1492TIP3   OH226034   3.142   3.371   1.941 -0.5611  0.2400  0.1357
 1492TIP3    H126035   3.215   3.366   2.003  1.4322  0.7950 -1.9986
 1492TIP3    H226036   3.071   3.323   1.983  0.3961  1.2364  3.1195
 1493TIP3   OH226037   2.495   4.630   7.640  0.5366  0.3803  0.4231
 1493TIP3    H126038   2.455   4.714   7.617 -1.1969 -0.5203 -0.0462
 1493TIP3    H226039   2.526   4.595   7.557  0.7883  0.3281  0.5395
 1494TIP3   OH226040   6.400   0.243   3.223 -0.0748 -0.1872  0.2460
 1494TIP3    H126041   6.479   0.280   3.263 -1.2837  2.0248  0.7870
 1494TIP3    H226042   6.336   0.243   3.294 -0.8610 -0.9908 -0.4429
 1495TIP3   OH226043   5.280   5.615   7.784  0.0652 -0.2611  0.0294
 1495TIP3    H126044   5.225   5.559   7.838  0.3227 -0.6156 -0.0750
 1495TIP3    H226045   5.319   5.676   7.847  1.5021 -1.5848  0.4900
 1496TIP3   OH226046   0.693   0.502   0.232 -0.5469  0.1306 -0.1214
 1496TIP3    H126047   0.740   0.424   0.202 -1.3804 -0.5762  0.3549
 1496TIP3    H226048   0.600   0.479   0.222 -0.8958  2.1919 -2.8786
 1497TIP3   OH226049   0.426   3.127   1.498  0.5589 -0.1040  0.0333
 1497TIP3    H126050   0.400   3.054   1.441 -1.4813  0.6689 -0.1482
 1497TIP3    H226051   0.484   3.088   1.563  1.8715 -1.2890 -1.7571
 1498TIP3   OH226052   5.109   4.009   8.492  0.0954  0.3166  0.0125
 1498TIP3    H126053   5.172   3.977   8.428  1.0425  2.1820 -0.0246
 1498TIP3    H226054   5.084   3.931   8.541  2.2052 -0.5146 -0.1512
 1499TIP3   OH226055   4.735   5.527   1.718  0.5891 -1.1865  0.9511
 1499TIP3    H126056   4.711   5.469   1.646  2.1643  0.4742 -1.0523
 1499TIP3    H226057   4.788   5.474   1.776  3.1319 -1.5439 -1.5096
 1500TIP3   OH226058   2.178   5.692   2.917 -0.4854 -0.2056  0.0185
 1500TIP3    H126059   2.196   5.626   2.850  0.3097  0.1514 -0.1282
 1500TIP3    H226060   2.124   5.757   2.873  1.2925  0.8131 -0.7441
 1501TIP3   OH226061   5.814   3.067   0.432 -0.1900  0.0478  0.3886
 1501TIP3    H126062   5.802   3.076   0.338  0.4268 -0.9500  0.2052
 1501TIP3    H226063   5.725   3.069   0.467 -0.4025  0.8099 -0.1643
 1502TIP3   OH226064   0.031   4.986   2.849  0.2789  0.1340  0.0788
 1502TIP3    H126065   0.035   5.072   2.892  0.0119 -0.7312  1.9496
 1502TIP3    H226066  -0.047   4.945   2.888  0.5841 -1.0702 -0.5614
 1503TIP3   OH226067   3.769   2.320   2.958  0.1996  0.0630 -0.3009
 1503TIP3    H126068   3.697   2.321   3.021  0.2574 -1.8722 -0.1425
 1503TIP3    H226069   3.730   2.350   2.876  0.0916  2.4774  0.5400
 1504TIP3   OH226070   4.837   5.282   1.826 -0.3099 -0.1365  0.1260
 1504TIP3    H126071   4.838   5.220   1.898 -1.2122 -1.8820 -1.2815
 1504TIP3    H226072   4.882   5.237   1.755 -2.5719 -0.0300 -1.5129
 1505TIP3   OH226073   4.158   4.103   0.254 -0.4679  0.2430 -0.2378
 1505TIP3    H126074   4.216   4.168   0.294 -0.2736 -0.6936  1.0787
 1505TIP3    H226075   4.164   4.121   0.160  1.6512  0.4574 -0.1225
 1506TIP3   OH226076   5.772   3.109   2.967  0.2800  0.1247 -0.2637
 1506TIP3    H126077   5.854   3.088   3.013  0.4778 -0.6796 -0.9701
 1506TIP3    H226078   5.736   3.184   3.016  1.3648  0.4097  0.1308
 1507TIP3   OH226079   0.738   4.357   1.668  0.3540 -0.0833  0.7128
 1507TIP3    H126080   0.686   4.277   1.659 -0.9931  0.7475  0.8033
 1507TIP3    H226081   0.789   4.344   1.747  1.4911 -1.5587 -0.2003
 1508TIP3   OH226082   5.856   3.796   8.762 -0.1293 -0.4831 -0.4864
 1508TIP3    H126083   5.816   3.711   8.783  0.1225 -0.8631 -1.4826
 1508TIP3    H226084   5.949   3.784   8.783 -0.2189 -0.2039  0.0804
 1509TIP3   OH226085   1.152   6.524   8.761  0.0703  0.6152  0.3689
 1509TIP3    H126086   1.075   6.548   8.812 -0.6810  0.4115 -0.6167
 1509TIP3    H226087   1.120   6.454   8.702  0.4473  1.9101 -1.4714
 1510TIP3   OH226088   4.525   5.497   1.954  0.0619  0.2050  0.0313
 1510TIP3    H126089   4.602   5.540   1.916 -0.9168  1.0344 -1.0963
 1510TIP3    H226090   4.559   5.449   2.030  1.3962  2.0537  0.6754
 1511TIP3   OH226091   5.099   5.483   1.382  0.0131  0.2205 -0.4049
 1511TIP3    H126092   5.056   5.402   1.354  0.1953  0.3926 -1.1864
 1511TIP3    H226093   5.125   5.465   1.473 -0.3332 -0.4375 -0.4277
 1512TIP3   OH226094   4.393   1.849   0.266  0.1047 -0.4601 -0.1507
 1512TIP3    H126095   4.308   1.813   0.290 -0.6198  0.7452 -0.8245
 1512TIP3    H226096   4.409   1.920   0.328 -0.3285  0.6167 -1.2296
 1513TIP3   OH226097   5.692   4.223   0.860 -0.9195  0.0840 -0.1154
 1513TIP3    H126098   5.721   4.231   0.770 -0.5244 -0.8991 -0.0869
 1513TIP3    H226099   5.764   4.262   0.912 -1.1053  0.5629 -0.2086
 1514TIP3   OH226100   5.503   6.632   0.891 -0.7039 -0.1017  0.2259
 1514TIP3    H126101   5.586   6.585   0.887  0.4412  1.8564 -0.5119
 1514TIP3    H226102   5.485   6.656   0.800 -1.2872  0.7798  0.5655
 1515TIP3   OH226103   5.241   2.194   1.322  0.5944 -0.6195  0.0583
 1515TIP3    H126104   5.197   2.277   1.305  3.1088  0.7158 -0.3361
 1515TIP3    H226105   5.195   2.131   1.266 -1.0204  0.5696 -0.0384
 1516TIP3   OH226106   1.071   3.446   8.833  0.4557  0.5806  0.3039
 1516TIP3    H126107   1.097   3.451   8.926 -0.4981  0.4231  0.5842
 1516TIP3    H226108   1.144   3.401   8.791  1.5830  1.9565  0.7014
 1517TIP3   OH226109   5.089   1.929   8.814 -0.0897  0.3782 -0.2777
 1517TIP3    H126110   5.174   1.889   8.831 -0.5472 -0.5295 -0.0815
 1517TIP3    H226111   5.106   2.023   8.816  0.5910  0.2616  1.5697
 1518TIP3   OH226112   5.036   3.588   0.747 -0.3835 -0.1882 -0.2656
 1518TIP3    H126113   5.103   3.600   0.681 -0.2444 -2.7705 -0.6947
 1518TIP3    H226114   5.083   3.587   0.830 -0.4207  1.8887 -0.1780
 1519TIP3   OH226115   3.160   6.071   1.856  0.0268  0.0131 -0.1319
 1519TIP3    H126116   3.123   6.021   1.929 -0.1557 -0.6800 -0.6927
 1519TIP3    H226117   3.246   6.031   1.841  0.4097  0.6814  0.2233
 1520TIP3   OH226118   1.024   1.666   1.336 -0.2258 -0.2397  0.0347
 1520TIP3    H126119   0.971   1.672   1.256 -0.6826  0.1525  0.3601
 1520TIP3    H226120   1.007   1.748   1.382 -2.9268 -1.8747  2.3386
 1521TIP3   OH226121   0.959   6.271   8.969  0.2562  0.0286  0.2682
 1521TIP3    H126122   1.047   6.308   8.983  1.3153 -2.3976  0.4429
 1521TIP3    H226123   0.945   6.278   8.875  0.2493  1.1828  0.3377
 1522TIP3   OH226124   2.783   2.790   1.826 -0.1871  0.1515  0.5264
 1522TIP3    H126125   2.782   2.885   1.827  0.6867  0.1791  0.0109
 1522TIP3    H226126   2.838   2.766   1.901  0.0873  0.0770  0.3049
 1523TIP3   OH226127   0.614   1.435   3.154  0.2495 -0.0183  0.2466
 1523TIP3    H126128   0.532   1.458   3.111 -0.7864 -1.7566  1.1453
 1523TIP3    H226129   0.645   1.516   3.194 -1.3286  0.5540  0.3622
 1524TIP3   OH226130   3.039   1.899   3.234  0.5893 -0.0776 -0.3496
 1524TIP3    H126131   3.028   1.988   3.268  0.6219 -0.7502  1.5403
 1524TIP3    H226132   3.064   1.911   3.142 -2.2190  1.8069 -0.9893
 1525TIP3   OH226133   6.578   4.645   2.237 -0.2027 -0.1554  0.4921
 1525TIP3    H126134   6.637   4.628   2.311 -0.7672  4.0686  2.2122
 1525TIP3    H226135   6.629   4.701   2.179 -1.1397  0.0415 -0.1547
 1526TIP3   OH226136   5.255   0.940   0.659 -0.2253 -0.0485 -0.5610
 1526TIP3    H126137   5.350   0.938   0.671 -0.4029  1.3149  1.5476
 1526TIP3    H226138   5.227   0.850   0.677  0.3785  0.2269  2.0851
 1527TIP3   OH226139   0.838   2.064   2.058 -1.0519 -0.3769 -0.0919
 1527TIP3    H126140   0.771   2.051   1.990 -1.3482  1.8486 -0.3204
 1527TIP3    H226141   0.914   2.097   2.010 -0.4896 -0.9179  0.4125
 1528TIP3   OH226142   4.466   1.571   1.489 -0.1512  1.2428 -0.3499
 1528TIP3    H126143   4.488   1.651   1.442  1.5954  2.4760  2.3081
 1528TIP3    H226144   4.397   1.598   1.550  0.6021  0.8094  0.7227
 1529TIP3   OH226145   0.117   3.803   0.593  0.2216  0.1906 -0.7611
 1529TIP3    H126146   0.158   3.729   0.546  1.3448 -0.9094  1.7527
 1529TIP3    H226147   0.163   3.806   0.676 -2.2482  1.4707  0.6645
 1530TIP3   OH226148   4.270   5.716   8.633  0.0545 -0.1785  0.1831
 1530TIP3    H126149   4.314   5.777   8.573 -0.9448  0.7126  0.3385
 1530TIP3    H226150   4.333   5.644   8.644  0.7344  0.2079 -1.0012
 1531TIP3   OH226151   2.791   4.775   1.348  0.2239  0.3778 -0.1131
 1531TIP3    H126152   2.771   4.736   1.263  0.5535 -1.6349  0.6932
 1531TIP3    H226153   2.708   4.771   1.396  0.4866 -0.2034  0.2987
 1532TIP3   OH226154   1.304   2.305   3.359  0.1208 -0.1110  0.3346
 1532TIP3    H126155   1.261   2.343   3.283 -1.2066  0.3379  1.2767
 1532TIP3    H226156   1.254   2.225   3.377  3.3123 -3.0180 -2.1094
 1533TIP3   OH226157   6.618   3.091   1.320  0.2474 -0.4541  0.4745
 1533TIP3    H126158   6.559   3.120   1.250  1.6028  0.9494 -0.1467
 1533TIP3    H226159   6.591   3.001   1.339 -2.1868  0.1858  0.3438
 1534TIP3   OH226160   4.745   5.870   0.737 -0.5471  0.0867 -0.0473
 1534TIP3    H126161   4.746   5.966   0.741 -1.4974  0.2874 -2.5883
 1534TIP3    H226162   4.821   5.843   0.789  2.0790  2.3902 -2.3517
 1535TIP3   OH226163   2.717   3.551   1.517  0.0302 -0.3789 -0.0271
 1535TIP3    H126164   2.748   3.552   1.427  3.2225 -1.4239  0.9227
 1535TIP3    H226165   2.665   3.631   1.526  1.5928  0.9666 -2.1618
 1536TIP3   OH226166   0.677   3.434   8.909 -0.1664  0.4848  0.2901
 1536TIP3    H126167   0.589   3.458   8.938 -0.5822  1.5434 -1.6892
 1536TIP3    H226168   0.735   3.472   8.976 -1.1163  1.9803  0.3184
 1537TIP3   OH226169   5.348   3.110   1.538  0.3705 -0.3705  0.3335
 1537TIP3    H126170   5.353   3.123   1.443  0.9368  1.9320  0.6141
 1537TIP3    H226171   5.435   3.081   1.563  0.1264 -1.3136  0.1351
 1538TIP3   OH226172   0.493   1.425   8.499  0.1974  0.0592 -0.3650
 1538TIP3    H126173   0.443   1.482   8.441 -1.5065  0.5197  1.4252
 1538TIP3    H226174   0.431   1.400   8.568  2.5720  1.3829  2.5160
 1539TIP3   OH226175   3.218   4.016   2.573 -0.6355 -0.6167  0.1111
 1539TIP3    H126176   3.160   3.949   2.537 -0.7328 -0.5709  0.1834
 1539TIP3    H226177   3.167   4.097   2.569 -0.7883 -0.6787  0.7071
 1540TIP3   OH226178   3.960   0.887   1.085  0.4276 -0.3546  0.2182
 1540TIP3    H126179   3.917   0.895   1.000  1.4796 -1.7886 -0.4950
 1540TIP3    H226180   3.888   0.886   1.149 -0.3441  1.3015 -0.5750
 1541TIP3   OH226181   6.638   4.694   1.042 -0.3671  0.3136 -0.2185
 1541TIP3    H126182   6.692   4.676   1.119  0.3675 -0.8240 -0.9778
 1541TIP3    H226183   6.632   4.790   1.040 -0.7190  0.3697  1.4437
 1542TIP3   OH226184   1.887   4.481   8.518  0.6291 -0.1925 -0.4794
 1542TIP3    H126185   1.957   4.510   8.460  1.1840  1.0198  0.7363
 1542TIP3    H226186   1.807   4.518   8.480  0.8709 -0.1143 -0.9191
 1543TIP3   OH226187   2.253   4.484   8.782  0.1284 -0.5415  0.3695
 1543TIP3    H126188   2.208   4.557   8.741  1.4241  0.4379  0.6371
 1543TIP3    H226189   2.207   4.470   8.864  1.1458  1.4060  1.3328
 1544TIP3   OH226190   5.239   6.369   1.618 -0.6425  0.4405 -0.7555
 1544TIP3    H126191   5.196   6.450   1.647 -0.0052  0.3143  0.6024
 1544TIP3    H226192   5.332   6.390   1.618 -0.4774 -0.2658 -0.4801
 1545TIP3   OH226193   1.800   0.735   1.395  0.0933 -0.2745  0.2300
 1545TIP3    H126194   1.718   0.735   1.445  0.2430 -1.9328  0.5267
 1545TIP3    H226195   1.804   0.648   1.356  0.4649  0.6431 -1.9458
 1546TIP3   OH226196   5.779   1.664   8.344 -0.3322  0.1526 -0.2279
 1546TIP3    H126197   5.758   1.676   8.437 -2.3382  0.0682 -0.6268
 1546TIP3    H226198   5.766   1.571   8.328 -0.8531  0.3118 -0.7739
 1547TIP3   OH226199   2.204   1.313   7.734 -0.5287 -0.4156  0.0600
 1547TIP3    H126200   2.281   1.279   7.690 -0.1699 -0.3525  0.6331
 1547TIP3    H226201   2.141   1.329   7.663 -0.2213 -0.9878 -0.3529
 1548TIP3   OH226202   2.473   2.863   0.868 -0.5342  0.0493  0.0310
 1548TIP3    H126203   2.500   2.827   0.952 -0.0990  0.1389 -0.0682
 1548TIP3    H226204   2.485   2.790   0.806 -1.0808 -0.0893  0.0874
 1549TIP3   OH226205   5.417   2.438   3.423  0.0777 -0.3777  0.1712
 1549TIP3    H126206   5.481   2.371   3.397 -0.4730 -1.1656  0.7659
 1549TIP3    H226207   5.388   2.410   3.510 -0.1390  0.6736  0.4513
 1550TIP3   OH226208   2.184   3.188   0.583 -0.5775  0.3527  0.0560
 1550TIP3    H126209   2.165   3.166   0.674  0.4135 -1.4067 -0.1280
 1550TIP3    H226210   2.163   3.109   0.534 -0.7696  1.1689 -1.2179
 1551TIP3   OH226211   1.534   2.248   8.455 -0.2256 -0.4234 -0.6828
 1551TIP3    H126212   1.604   2.182   8.453  0.7913  0.6383 -2.0037
 1551TIP3    H226213   1.539   2.285   8.542  1.3717  0.1188 -0.9720
 1552TIP3   OH226214   3.210   5.504   1.605 -0.2752  0.0615 -0.4871
 1552TIP3    H126215   3.114   5.494   1.603 -0.2183 -0.4220 -1.2521
 1552TIP3    H226216   3.243   5.425   1.562  0.4167  0.8865 -1.5184
 1553TIP3   OH226217   0.359   0.846   1.827  0.3729  0.7890 -0.1887
 1553TIP3    H126218   0.436   0.887   1.788  0.2638  0.9882 -0.1981
 1553TIP3    H226219   0.295   0.844   1.756  1.0594 -1.3261 -0.8249
 1554TIP3   OH226220   3.601   5.546   1.378 -0.1565 -0.3011  0.5783
 1554TIP3    H126221   3.642   5.528   1.293  1.0840  1.1581  0.8245
 1554TIP3    H226222   3.675   5.568   1.435 -0.9918 -1.1505  2.0180
 1555TIP3   OH226223   4.164   0.999   2.138 -0.2011 -0.5358 -0.7307
 1555TIP3    H126224   4.251   0.962   2.150  0.0453  0.1294 -0.4469
 1555TIP3    H226225   4.146   0.989   2.044  0.2336 -0.5537 -0.8118
 1556TIP3   OH226226   0.923   3.527   8.319  0.4135 -0.3920  0.5666
 1556TIP3    H126227   0.850   3.481   8.361  0.9575 -0.5075  1.4110
 1556TIP3    H226228   0.951   3.467   8.250 -1.2652  0.3312 -0.8106
 1557TIP3   OH226229   0.620   6.162   1.141 -0.8588  0.0947 -0.0231
 1557TIP3    H126230   0.644   6.069   1.140  1.0577  0.5527  0.8131
 1557TIP3    H226231   0.676   6.201   1.208 -1.1804  1.9799 -0.8019
 1558TIP3   OH226232   5.838   5.852   2.461 -0.1170 -0.0039 -0.0536
 1558TIP3    H126233   5.840   5.816   2.373  0.9711  0.2123 -0.1409
 1558TIP3    H226234   5.916   5.816   2.503 -1.6013 -1.6409  1.4786
 1559TIP3   OH226235   5.849   6.199   1.409 -0.4427 -0.0616 -0.0312
 1559TIP3    H126236   5.873   6.262   1.341 -0.5341 -0.7278 -0.6878
 1559TIP3    H226237   5.760   6.223   1.434  0.2195  1.3499  1.2012
 1560TIP3   OH226238   2.530   0.968   1.900  0.0269  0.4190  0.6206
 1560TIP3    H126239   2.473   0.918   1.959 -0.0626  0.6606  0.7430
 1560TIP3    H226240   2.593   1.011   1.958  0.4461  0.0139  0.4705
 1561TIP3   OH226241   3.604   4.311   0.814 -0.1547 -0.0797  0.3516
 1561TIP3    H126242   3.550   4.233   0.802  1.6692 -1.4651  0.7093
 1561TIP3    H226243   3.689   4.287   0.778  0.4601  1.7716  0.4673
 1562TIP3   OH226244   4.562   5.358   2.727 -0.0631  0.2750 -0.4154
 1562TIP3    H126245   4.523   5.365   2.814 -1.5244  0.5497 -1.0647
 1562TIP3    H226246   4.606   5.273   2.727  0.7473  0.6632  0.8834
 1563TIP3   OH226247   5.606   3.948   1.365  0.3698 -0.4408 -0.0431
 1563TIP3    H126248   5.538   3.894   1.324  1.5898 -0.7759 -1.7367
 1563TIP3    H226249   5.661   3.977   1.292  0.0743  2.6982  0.8555
 1564TIP3   OH226250   5.351   1.253   0.404 -0.0381  0.1820  0.0292
 1564TIP3    H126251   5.351   1.302   0.321 -1.0237  2.8871  1.4821
 1564TIP3    H226252   5.430   1.283   0.450 -0.6233  0.3925  0.9281
 1565TIP3   OH226253   0.650   1.471   2.833  0.4329 -0.3545 -0.6353
 1565TIP3    H126254   0.696   1.544   2.875  1.1851 -0.1483 -1.7580
 1565TIP3    H226255   0.718   1.404   2.822  0.2796 -0.3610 -1.5811
 1566TIP3   OH226256   0.933   5.243   1.481  0.4854 -0.5521  0.2960
 1566TIP3    H126257   0.948   5.318   1.422  0.3891 -0.3270  0.5550
 1566TIP3    H226258   0.931   5.282   1.568 -0.9250 -0.6482  0.3373
 1567TIP3   OH226259   1.376   4.308   1.382 -0.3001  0.0426  0.3717
 1567TIP3    H126260   1.313   4.370   1.346 -0.7242 -0.9967 -0.7615
 1567TIP3    H226261   1.324   4.247   1.433 -0.0748 -0.1672  0.3530
 1568TIP3   OH226262   6.575   4.035   8.065  0.2046  0.1026 -0.0731
 1568TIP3    H126263   6.591   4.008   7.974 -1.7036  0.1926 -0.4765
 1568TIP3    H226264   6.661   4.063   8.097  1.0873 -0.7386 -1.5630
 1569TIP3   OH226265   6.330   5.613   2.919 -0.1927 -0.3492 -1.0358
 1569TIP3    H126266   6.310   5.531   2.872 -0.0554 -2.4254  2.2118
 1569TIP3    H226267   6.247   5.639   2.959  0.2105 -0.0894 -0.3570
 1570TIP3   OH226268   5.374   0.713   8.639  0.0463 -0.0331 -0.2290
 1570TIP3    H126269   5.392   0.692   8.730 -4.9866 -0.9474  0.8160
 1570TIP3    H226270   5.329   0.797   8.641  4.6291  2.9415 -2.7222
 1571TIP3   OH226271   2.197   3.071   3.089 -0.0619 -0.0250  0.4014
 1571TIP3    H126272   2.190   2.979   3.114  1.1817 -0.6883 -1.4680
 1571TIP3    H226273   2.107   3.101   3.080 -0.4853 -0.9273  1.4063
 1572TIP3   OH226274   3.428   5.733   0.359  0.1059  0.3110  0.1392
 1572TIP3    H126275   3.436   5.827   0.345 -2.5856  0.8241  1.5526
 1572TIP3    H226276   3.519   5.703   0.370  1.1260  2.4313 -1.8165
 1573TIP3   OH226277   2.326   2.548   2.646  0.1221 -0.2388 -0.3926
 1573TIP3    H126278   2.367   2.473   2.689 -0.0196  1.0378  2.1632
 1573TIP3    H226279   2.373   2.557   2.563  1.8266 -1.6187  0.3639
 1574TIP3   OH226280   2.437   1.657   3.003  0.0414  0.0086  0.2927
 1574TIP3    H126281   2.412   1.630   3.091  0.7836 -1.6123  0.0309
 1574TIP3    H226282   2.370   1.722   2.978 -2.3560 -2.1621  0.6400
 1575TIP3   OH226283   4.877   1.123   2.045  1.0079 -0.5141 -0.6598
 1575TIP3    H126284   4.806   1.060   2.030  0.8320 -0.3798 -0.3984
 1575TIP3    H226285   4.955   1.069   2.055  0.8800 -0.6827 -0.5693
 1576TIP3   OH226286   2.532   3.255   1.898 -0.1206 -0.3725  0.0467
 1576TIP3    H126287   2.553   3.348   1.891  0.5268 -0.5126  0.0577
 1576TIP3    H226288   2.602   3.211   1.849 -0.6060 -0.8315 -0.2442
 1577TIP3   OH226289   4.045   4.198   2.147 -0.1258 -0.0890  0.1798
 1577TIP3    H126290   4.070   4.112   2.179 -1.3239 -0.6617 -0.3450
 1577TIP3    H226291   4.042   4.253   2.225  0.9382 -0.4397  0.4795
 1578TIP3   OH226292   3.010   3.381   0.291  0.1535 -0.2676 -0.2228
 1578TIP3    H126293   3.037   3.289   0.283  0.8848 -0.0960  0.2037
 1578TIP3    H226294   3.091   3.431   0.286 -0.1799  0.3226  0.1132
 1579TIP3   OH226295   2.931   0.053   1.480 -0.0485  0.1369  0.7511
 1579TIP3    H126296   2.914  -0.005   1.405  1.3317 -1.5962  1.6812
 1579TIP3    H226297   2.958  -0.007   1.550  1.7926  1.9583  1.6889
 1580TIP3   OH226298   6.299   0.201   0.941  0.4166  0.0865  1.0528
 1580TIP3    H126299   6.229   0.140   0.961  0.4201 -0.0315  0.7056
 1580TIP3    H226300   6.351   0.204   1.022  1.5206 -1.8364  0.4858
 1581TIP3   OH226301   5.335   4.701   0.760 -0.8264  0.5094  0.4068
 1581TIP3    H126302   5.411   4.645   0.777 -0.1572  0.8061 -1.3541
 1581TIP3    H226303   5.309   4.681   0.670 -1.2166  2.2352  0.0839
 1582TIP3   OH226304   5.207   2.851   8.921 -0.6412 -0.0798 -0.4134
 1582TIP3    H126305   5.300   2.831   8.911 -0.7962 -1.0377 -0.0802
 1582TIP3    H226306   5.205   2.932   8.971  0.0189 -1.4172  1.9316
 1583TIP3   OH226307   6.373   1.286   1.527 -0.0547 -0.0780  0.8569
 1583TIP3    H126308   6.352   1.215   1.467  1.3659  0.0676  0.1469
 1583TIP3    H226309   6.350   1.365   1.479  1.8123  0.0770  0.1245
 1584TIP3   OH226310   2.344   1.321   0.562 -0.4699  0.3741 -0.0687
 1584TIP3    H126311   2.388   1.319   0.477  0.2917 -2.0103  0.2809
 1584TIP3    H226312   2.255   1.291   0.544  0.0877 -1.5589  0.0664
 1585TIP3   OH226313   1.474   2.980   0.442 -0.4794  0.2123  0.3095
 1585TIP3    H126314   1.427   3.022   0.370  0.2453 -0.0097 -0.3110
 1585TIP3    H226315   1.407   2.936   0.493 -0.8148 -1.6065 -1.5556
 1586TIP3   OH226316   1.997   5.850   8.444 -0.0440  0.0033 -0.2182
 1586TIP3    H126317   1.907   5.852   8.476 -0.1476 -1.6910 -0.2946
 1586TIP3    H226318   2.038   5.778   8.492  1.1724  0.5238 -0.4356
 1587TIP3   OH226319   3.763   3.050   1.831 -0.3468 -0.1466  0.2493
 1587TIP3    H126320   3.681   3.046   1.881  0.3009 -2.0054  1.2760
 1587TIP3    H226321   3.782   2.959   1.809 -0.3319  0.5418 -3.0627
 1588TIP3   OH226322   2.316   5.469   1.377  0.5496  0.1406 -0.4441
 1588TIP3    H126323   2.356   5.547   1.416  1.4823  0.1474 -1.3645
 1588TIP3    H226324   2.256   5.503   1.311 -0.8572  0.1219  0.7781
 1589TIP3   OH226325   1.260   1.159   8.091  0.3075 -0.0631  0.1067
 1589TIP3    H126326   1.190   1.132   8.031  1.2435 -2.4637 -0.0196
 1589TIP3    H226327   1.238   1.117   8.174  2.5882 -2.7361 -0.4880
 1590TIP3   OH226328   4.386   4.912   8.065  0.1618 -0.3162  0.0943
 1590TIP3    H126329   4.363   4.923   7.973  0.3473 -0.0621  0.0768
 1590TIP3    H226330   4.308   4.875   8.105 -0.4364  0.9035  0.1090
 1591TIP3   OH226331   5.065   3.902   1.413 -0.4340  0.2355 -0.3053
 1591TIP3    H126332   5.055   3.975   1.351  0.8911  0.4546 -0.3116
 1591TIP3    H226333   5.124   3.937   1.480 -1.6512 -0.0787  0.9583
 1592TIP3   OH226334   1.808   2.219   0.082 -0.1689  0.0378 -0.3873
 1592TIP3    H126335   1.822   2.272   0.004 -1.1838  0.5443 -0.2437
 1592TIP3    H226336   1.782   2.133   0.048 -0.7776  0.3041 -0.6234
 1593TIP3   OH226337   4.477   1.959   3.031  0.0009 -0.0987  0.0612
 1593TIP3    H126338   4.515   1.986   3.114 -0.3116  0.7469 -0.0582
 1593TIP3    H226339   4.490   2.035   2.973 -1.9379  0.2691  0.0554
 1594TIP3   OH226340   4.626   2.138   0.190 -0.5992 -0.0875 -0.3847
 1594TIP3    H126341   4.560   2.163   0.126 -1.1017  0.4743  0.3279
 1594TIP3    H226342   4.576   2.121   0.270  0.1073  0.3394  0.1632
 1595TIP3   OH226343   0.390   4.078   2.040  0.7015 -0.2089  0.6303
 1595TIP3    H126344   0.407   4.083   2.134 -1.5668  1.6291  1.0403
 1595TIP3    H226345   0.370   3.985   2.024 -2.1943 -0.0824  2.7344
 1596TIP3   OH226346   5.298   3.356   2.184  0.3329  0.8850  0.0215
 1596TIP3    H126347   5.300   3.415   2.259  1.1440  0.2890  0.4880
 1596TIP3    H226348   5.366   3.291   2.203  1.2592  1.2824 -1.6956
 1597TIP3   OH226349   2.471   0.539   2.589 -0.0054 -0.3359  0.1601
 1597TIP3    H126350   2.488   0.629   2.617  0.7022 -0.1355 -0.8527
 1597TIP3    H226351   2.511   0.485   2.656  1.7855  0.1292 -0.4613
 1598TIP3   OH226352   4.455   5.730   8.882 -0.6264 -0.0630  0.8508
 1598TIP3    H126353   4.495   5.643   8.876 -0.3957 -0.0247  1.7435
 1598TIP3    H226354   4.411   5.742   8.798  0.5868 -0.4315  0.1437
 1599TIP3   OH226355   3.356   5.981   1.339  0.2163  0.7138  0.3935
 1599TIP3    H126356   3.386   5.895   1.308 -2.2019 -0.1937  0.3621
 1599TIP3    H226357   3.348   6.033   1.260 -1.3348 -0.0891 -0.0294
 1600TIP3   OH226358   0.555   2.950   8.760  0.2253 -0.2138 -0.2439
 1600TIP3    H126359   0.466   2.919   8.740  0.6605 -2.1483  0.5634
 1600TIP3    H226360   0.546   3.045   8.770 -2.1165 -0.5284  1.6326
 1601TIP3   OH226361   5.082   2.893   0.204  0.1916  0.3656 -0.1717
 1601TIP3    H126362   5.071   2.884   0.299 -0.1058  1.4164 -0.0947
 1601TIP3    H226363   5.068   2.986   0.187  0.1895  0.1790 -1.2581
 1602TIP3   OH226364   4.472   5.486   1.339 -0.2454  0.2704  0.4451
 1602TIP3    H126365   4.450   5.433   1.262  1.8545 -1.2649  0.7800
 1602TIP3    H226366   4.562   5.515   1.323 -0.1027  0.7289  1.8807
 1603TIP3   OH226367   3.311   5.726   2.752  0.2153  0.5252  0.1466
 1603TIP3    H126368   3.287   5.797   2.693  0.4374  0.7893  0.3702
 1603TIP3    H226369   3.248   5.656   2.733  1.1754  0.0568 -1.3999
 1604TIP3   OH226370   3.644   2.463   1.969  0.6090 -0.2688  0.0122
 1604TIP3    H126371   3.700   2.540   1.966 -0.0232  0.2236  0.5206
 1604TIP3    H226372   3.701   2.393   2.001  0.5710  0.5818  2.1436
 1605TIP3   OH226373   6.281   4.664   2.423 -0.4473 -0.1933  0.2965
 1605TIP3    H126374   6.290   4.612   2.342  3.2607 -1.5746  1.4132
 1605TIP3    H226375   6.360   4.718   2.426 -1.8069  1.8649  1.7460
 1606TIP3   OH226376   5.863   4.170   2.106 -0.0634 -0.7085  0.4148
 1606TIP3    H126377   5.851   4.178   2.012  0.5764  0.5147  0.4225
 1606TIP3    H226378   5.908   4.086   2.117  0.8136 -0.3775 -0.4784
 1607TIP3   OH226379   5.213   1.213   1.581  0.2368 -0.7617  0.0636
 1607TIP3    H126380   5.161   1.262   1.518  2.2494  1.0537 -0.3105
 1607TIP3    H226381   5.150   1.179   1.644 -1.5381 -0.2267 -1.3557
 1608TIP3   OH226382   0.006   1.490   1.736  0.2020 -0.0210 -0.6187
 1608TIP3    H126383   0.050   1.573   1.718  0.3477  0.1442  0.4048
 1608TIP3    H226384  -0.075   1.515   1.780 -0.7401 -0.3479 -2.1125
 1609TIP3   OH226385   2.494   3.423   2.626  0.8361 -0.3295  0.2243
 1609TIP3    H126386   2.562   3.455   2.567 -0.5775 -0.9738 -1.8586
 1609TIP3    H226387   2.538   3.357   2.680  2.5125  1.3192  0.9863
 1610TIP3   OH226388   4.022   3.353   8.217  0.2536  0.2436 -0.4071
 1610TIP3    H126389   3.977   3.326   8.137  0.5011 -0.6966 -0.2358
 1610TIP3    H226390   4.107   3.386   8.187 -0.3151  1.5391 -0.6802
 1611TIP3   OH226391   5.007   1.615   8.342  0.0918  0.0873 -0.3966
 1611TIP3    H126392   5.092   1.602   8.300  0.5712 -0.7786  0.7885
 1611TIP3    H226393   5.028   1.644   8.431 -0.8889  1.6127 -0.6310
 1612TIP3   OH226394   5.800   1.551   2.039  0.1469 -0.5076  0.3415
 1612TIP3    H126395   5.879   1.497   2.039 -1.4089 -2.9918  2.2387
 1612TIP3    H226396   5.763   1.539   1.952  1.6878  0.5243 -0.5019
 1613TIP3   OH226397   2.307   1.518   2.342 -0.1235 -0.0033 -0.4448
 1613TIP3    H126398   2.313   1.474   2.427  1.4781  2.0329  0.5768
 1613TIP3    H226399   2.314   1.611   2.362 -1.8823  0.7057 -2.6542
 1614TIP3   OH226400   5.495   2.059   0.226 -0.1292 -0.3918 -0.2939
 1614TIP3    H126401   5.440   2.010   0.165 -2.3881  0.0542  1.2558
 1614TIP3    H226402   5.544   2.120   0.171 -0.8175 -1.1357 -1.7825
 1615TIP3   OH226403   6.285   6.492   1.757 -0.4561 -0.9375  0.1375
 1615TIP3    H126404   6.355   6.472   1.820  1.3314 -0.8724 -1.7207
 1615TIP3    H226405   6.257   6.406   1.725 -1.3177 -0.9680  0.9476
 1616TIP3   OH226406   4.870   3.285   0.866  0.6619  0.0290 -0.3098
 1616TIP3    H126407   4.891   3.197   0.896 -0.3454 -0.8631 -2.0590
 1616TIP3    H226408   4.841   3.331   0.945  0.6478 -1.3791  0.5352
 1617TIP3   OH226409   3.586   1.771   3.195 -0.3532  0.0458 -0.0231
 1617TIP3    H126410   3.608   1.686   3.159 -0.8158 -0.1702  0.1956
 1617TIP3    H226411   3.491   1.778   3.184 -0.3969  0.2954  0.4696
 1618TIP3   OH226412   4.147   2.489   1.033 -0.2528 -0.4609  0.5379
 1618TIP3    H126413   4.098   2.424   0.984 -1.3453  0.4707  0.3328
 1618TIP3    H226414   4.195   2.439   1.099 -0.1171 -1.5627 -0.3735
 1619TIP3   OH226415   2.206   1.135   8.115  0.1510 -0.1739  0.0948
 1619TIP3    H126416   2.207   1.052   8.068  0.6764 -0.8099  1.1848
 1619TIP3    H226417   2.122   1.175   8.093 -0.8559 -1.7652  0.8400
 1620TIP3   OH226418   4.428   5.054   0.229 -0.5428 -0.4566  0.6266
 1620TIP3    H126419   4.483   5.119   0.272 -0.2179 -0.7169  0.6119
 1620TIP3    H226420   4.347   5.100   0.209 -0.5221 -0.2086  1.1088
 1621TIP3   OH226421   6.075   3.478   2.059 -0.0051 -0.3119 -0.2703
 1621TIP3    H126422   6.111   3.434   2.136  0.0552 -0.5417 -0.4291
 1621TIP3    H226423   6.135   3.551   2.043  0.4429 -0.7412 -0.5817
 1622TIP3   OH226424   3.538   0.022   1.411 -0.0159  0.0380  0.6919
 1622TIP3    H126425   3.598  -0.052   1.403  0.9340  0.7405  1.0800
 1622TIP3    H226426   3.594   0.099   1.405 -0.9900  0.7315  0.2563
 1623TIP3   OH226427   6.651   5.625   0.906  0.1258  0.2827 -0.4132
 1623TIP3    H126428   6.678   5.688   0.839  1.8870  0.4020  0.3333
 1623TIP3    H226429   6.707   5.645   0.981 -0.2926 -1.2400  0.3493
 1624TIP3   OH226430   6.151   4.802   0.201  0.5636 -0.2122  0.1337
 1624TIP3    H126431   6.087   4.823   0.269 -0.7888 -0.2516 -1.0796
 1624TIP3    H226432   6.203   4.730   0.237 -0.5860 -0.6981  0.8396
 1625TIP3   OH226433   6.333   6.158   1.672 -0.5829 -0.2793  0.2417
 1625TIP3    H126434   6.345   6.067   1.701 -0.3317 -1.0766 -2.1175
 1625TIP3    H226435   6.422   6.192   1.662 -0.6689  0.0885  0.7142
 1626TIP3   OH226436   4.718   2.694   0.495  0.0686 -0.4928  0.7930
 1626TIP3    H126437   4.697   2.740   0.576 -1.0330  0.1605  0.1626
 1626TIP3    H226438   4.643   2.710   0.438  1.3227  0.0986 -0.7943
 1627TIP3   OH226439   0.469   5.077   1.807  0.0416  0.1319  0.4224
 1627TIP3    H126440   0.558   5.067   1.774 -0.3651  0.5094 -0.8426
 1627TIP3    H226441   0.471   5.037   1.894  1.2545 -0.5411  0.1060
 1628TIP3   OH226442   3.788   2.425   3.310 -0.1720 -0.1573  0.0515
 1628TIP3    H126443   3.711   2.397   3.260 -0.8040 -0.6936  1.2846
 1628TIP3    H226444   3.752   2.455   3.394  1.0112 -1.0394  0.8943
 1629TIP3   OH226445   1.716   5.909   8.479  0.1555 -0.1994 -0.3728
 1629TIP3    H126446   1.698   5.972   8.408 -1.2060 -0.9769 -0.7584
 1629TIP3    H226447   1.677   5.827   8.448  0.3364 -0.7837  0.8928
 1630TIP3   OH226448   5.436   2.351   8.231  0.1599 -0.0045 -0.1632
 1630TIP3    H126449   5.395   2.438   8.235 -1.1663 -0.5867 -0.7240
 1630TIP3    H226450   5.380   2.301   8.173  1.6678 -0.8597 -0.9231
 1631TIP3   OH226451   3.242   0.394   1.954 -0.5233  0.0138  0.3723
 1631TIP3    H126452   3.283   0.450   1.889  2.3303 -3.8807 -1.6429
 1631TIP3    H226453   3.301   0.399   2.030 -0.7430  0.3858  0.5178
 1632TIP3   OH226454   1.921   2.734   0.599 -0.5426  0.4469  0.2765
 1632TIP3    H126455   1.880   2.785   0.528 -1.0274 -0.0446  0.1962
 1632TIP3    H226456   2.013   2.759   0.595 -0.4974  0.1725 -0.7550
 1633TIP3   OH226457   6.160   3.297   0.144  0.0810 -0.5588  0.1992
 1633TIP3    H126458   6.177   3.241   0.219 -2.3687 -1.2565  0.3192
 1633TIP3    H226459   6.074   3.335   0.161 -0.3706 -0.4252 -2.0699
 1634TIP3   OH226460   2.140   4.646   2.735  0.3719 -0.1625 -0.0676
 1634TIP3    H126461   2.111   4.694   2.657  1.3609  1.4651  0.5077
 1634TIP3    H226462   2.235   4.651   2.731  0.4339  1.0522  1.8587
 1635TIP3   OH226463   4.116   1.848   8.483 -0.1554 -0.1503 -0.1803
 1635TIP3    H126464   4.092   1.856   8.575 -1.2384  1.0006 -0.5364
 1635TIP3    H226465   4.195   1.794   8.483 -0.8391 -1.2372  1.3203
 1636TIP3   OH226466   2.484   2.281   1.825 -0.0022 -0.4788 -0.1513
 1636TIP3    H126467   2.440   2.326   1.897 -0.5210 -0.8638 -0.2196
 1636TIP3    H226468   2.427   2.295   1.749 -0.8947 -2.3868  0.1232
 1637TIP3   OH226469   1.337   3.556   1.979  0.3773  0.0449  0.4404
 1637TIP3    H126470   1.431   3.562   1.998  0.1266  1.9975  1.2140
 1637TIP3    H226471   1.331   3.484   1.916  2.2870 -0.6757  0.9949
 1638TIP3   OH226472   0.602   1.932   0.920 -0.2464  0.3228  0.2384
 1638TIP3    H126473   0.677   1.875   0.932  0.6315  1.1422 -1.0906
 1638TIP3    H226474   0.565   1.907   0.836  1.0233  2.5698 -1.0889
 1639TIP3   OH226475   5.032   2.208   0.023 -0.3402 -0.0067 -0.2734
 1639TIP3    H126476   5.071   2.203  -0.064 -2.5373 -0.4483 -1.3080
 1639TIP3    H226477   4.986   2.125   0.034 -0.9700  0.4661  0.8621
 1640TIP3   OH226478   0.639   0.584   2.690  0.0436  0.1180  0.0063
 1640TIP3    H126479   0.628   0.489   2.681 -2.3206 -0.2113  3.8532
 1640TIP3    H226480   0.706   0.593   2.757  0.6695  1.2277 -0.7538
 1641TIP3   OH226481   1.560   5.690   8.106 -0.1209 -0.1269  0.0224
 1641TIP3    H126482   1.494   5.736   8.054 -0.3540 -1.0995 -0.5727
 1641TIP3    H226483   1.534   5.598   8.102  0.8755 -0.4388  0.3582
 1642TIP3   OH226484   3.609   3.447   2.871  0.0756  0.3001 -0.1854
 1642TIP3    H126485   3.641   3.441   2.781 -1.2649  0.5876 -0.7137
 1642TIP3    H226486   3.663   3.514   2.912  0.3464  0.5566 -0.9378
 1643TIP3   OH226487   6.005   4.468   7.940 -0.2624 -0.2268  0.4056
 1643TIP3    H126488   6.028   4.376   7.946  1.2251  0.1442  0.6604
 1643TIP3    H226489   6.081   4.515   7.973 -0.7046  1.1222 -0.3828
 1644TIP3   OH226490   2.592   4.593   8.431  0.2082 -0.2630  0.1495
 1644TIP3    H126491   2.556   4.505   8.418  1.3159 -1.0227  1.8103
 1644TIP3    H226492   2.539   4.649   8.375 -1.3150 -1.8036 -0.0489
 1645TIP3   OH226493   6.604   6.689   3.048  0.0080  0.1233  0.1464
 1645TIP3    H126494   6.517   6.708   3.014 -0.5053 -1.4785  0.4940
 1645TIP3    H226495   6.595   6.604   3.091  1.9373 -0.4910 -0.5649
 1646TIP3   OH226496   2.183   2.845   2.874  0.0127  0.0016 -0.6743
 1646TIP3    H126497   2.139   2.839   2.959 -2.2651 -2.3087 -1.8842
 1646TIP3    H226498   2.126   2.900   2.822  0.1088 -0.5608 -1.3866
 1647TIP3   OH226499   5.635   0.858   2.485 -0.1578 -0.6853  0.1897
 1647TIP3    H126500   5.563   0.885   2.427 -0.7420 -0.7726  0.8632
 1647TIP3    H226501   5.638   0.925   2.553 -0.4716 -1.3681  0.8946
 1648TIP3   OH226502   4.421   2.216   8.755  0.3585 -0.3547 -0.8630
 1648TIP3    H126503   4.464   2.288   8.801  1.4657  0.0087 -2.3662
 1648TIP3    H226504   4.395   2.155   8.824 -0.3119  1.3166  0.4129
 1649TIP3   OH226505   2.364   0.816   0.100  0.1591 -0.0386 -0.0195
 1649TIP3    H126506   2.330   0.750   0.040  0.1996 -1.2416  1.2327
 1649TIP3    H226507   2.410   0.879   0.043 -0.1251 -0.9166 -1.2616
 1650TIP3   OH226508   6.522   2.040   0.328  0.3510  0.1835 -0.3453
 1650TIP3    H126509   6.522   2.132   0.299  3.0338  1.0486  1.9326
 1650TIP3    H226510   6.431   2.023   0.352 -0.2260  2.2411 -0.8295
 1651TIP3   OH226511   0.986   4.012   1.329  0.0655 -0.4853 -0.1156
 1651TIP3    H126512   1.050   4.083   1.333  1.2531 -1.4960 -0.3941
 1651TIP3    H226513   0.931   4.024   1.407  0.1092  0.8255 -0.2608
 1652TIP3   OH226514   0.940   0.133   2.348  0.2490 -0.6952 -0.1148
 1652TIP3    H126515   0.848   0.151   2.329  0.2746 -0.8286 -0.3628
 1652TIP3    H226516   0.938   0.063   2.414  0.1591 -0.1382  0.4774
 1653TIP3   OH226517   4.514   2.477   0.772  0.0037 -0.3812 -0.0268
 1653TIP3    H126518   4.482   2.567   0.764 -3.2038 -1.2626  1.2095
 1653TIP3    H226519   4.539   2.468   0.864  0.9480 -0.6060 -0.2926
 1654TIP3   OH226520   6.105   0.898   7.730  0.0862 -0.1680  0.6817
 1654TIP3    H126521   6.167   0.970   7.717 -0.0734 -0.3187 -1.2143
 1654TIP3    H226522   6.019   0.938   7.722 -0.0240 -0.3217  1.0914
 1655TIP3   OH226523   1.193   3.680   8.141  0.3173 -0.4206  0.3175
 1655TIP3    H126524   1.201   3.732   8.061  0.5318  1.1328  1.3113
 1655TIP3    H226525   1.134   3.608   8.117 -1.9530  1.5941 -0.5028
 1656TIP3   OH226526   0.041   3.946   1.426  0.6566  0.3386 -0.5933
 1656TIP3    H126527   0.036   4.040   1.441 -0.0309  0.3124 -0.6174
 1656TIP3    H226528  -0.046   3.913   1.451 -0.2646  0.1522 -3.6374
 1657TIP3   OH226529   3.644   5.149   2.146 -0.0225 -0.2442  0.1420
 1657TIP3    H126530   3.680   5.091   2.213  1.5993 -0.7917 -1.1475
 1657TIP3    H226531   3.562   5.107   2.120 -0.7578  0.0585  1.8522
 1658TIP3   OH226532   1.628   5.760   1.479  0.0980 -0.1072  0.2428
 1658TIP3    H126533   1.616   5.693   1.412 -0.4363  0.1868  0.0300
 1658TIP3    H226534   1.585   5.724   1.557 -0.6566  0.1935 -0.0182
 1659TIP3   OH226535   0.458   4.349   7.534 -0.0286 -0.3484  0.7583
 1659TIP3    H126536   0.490   4.412   7.599  0.3453  0.6986 -0.4035
 1659TIP3    H226537   0.377   4.388   7.500 -0.3947 -1.0380  0.8129
 1660TIP3   OH226538   5.522   3.264   2.646  0.0308  0.3472 -0.3094
 1660TIP3    H126539   5.595   3.209   2.675 -0.3366  0.5707  1.0901
 1660TIP3    H226540   5.527   3.261   2.550  0.4045 -1.6164 -0.2804
 1661TIP3   OH226541   2.207   0.511   0.981  0.0839  0.5829  0.4321
 1661TIP3    H126542   2.285   0.510   1.036 -0.2524  0.1236  0.9138
 1661TIP3    H226543   2.168   0.424   0.992 -1.2456  1.2510  1.3091
 1662TIP3   OH226544   2.225   6.100   2.747 -0.9908  0.1958 -0.2571
 1662TIP3    H126545   2.289   6.060   2.688 -2.2379  0.4982 -1.9068
 1662TIP3    H226546   2.206   6.185   2.707 -1.7474  0.4838  0.6908
 1663TIP3   OH226547   2.942   3.189   8.314 -1.0104  0.0448  0.3522
 1663TIP3    H126548   2.961   3.127   8.244 -0.1143 -0.1050  0.7255
 1663TIP3    H226549   2.910   3.267   8.268  1.4440  0.6889 -0.4155
 1664TIP3   OH226550   4.163   2.621   1.292 -0.1872  0.2953 -0.0623
 1664TIP3    H126551   4.115   2.550   1.333  2.5160 -1.8785 -0.3716
 1664TIP3    H226552   4.163   2.599   1.198  2.0931 -0.3494  0.0206
 1665TIP3   OH226553   1.811   5.100   8.232  0.1620  0.2497  0.0482
 1665TIP3    H126554   1.738   5.109   8.170  0.4757  3.2674 -0.0580
 1665TIP3    H226555   1.769   5.088   8.317 -0.4519  0.8978 -0.1541
 1666TIP3   OH226556   2.066   2.477   0.536  0.2810  0.5879  0.0765
 1666TIP3    H126557   2.039   2.565   0.508  0.4202  0.9263  0.9521
 1666TIP3    H226558   2.009   2.418   0.488 -0.2879  1.1901 -0.0114
 1667TIP3   OH226559   1.842   1.850   2.078  0.5224  0.3965  0.7070
 1667TIP3    H126560   1.935   1.851   2.099  0.0318  0.3030  3.3131
 1667TIP3    H226561   1.802   1.798   2.148 -1.5904  1.1993  0.1930
 1668TIP3   OH226562   2.672   4.742   0.158  0.3856  0.2355  0.0966
 1668TIP3    H126563   2.653   4.812   0.220  1.0442  1.1241 -0.6917
 1668TIP3    H226564   2.631   4.771   0.076  1.2011  0.0112 -0.4018
 1669TIP3   OH226565   5.321   2.204   3.108  0.5171 -0.2958  0.4002
 1669TIP3    H126566   5.290   2.270   3.170 -0.6306 -2.2710  2.0480
 1669TIP3    H226567   5.372   2.143   3.162  1.1697 -1.0034 -0.9800
 1670TIP3   OH226568   3.246   4.959   1.649  0.1876 -0.2280  0.6782
 1670TIP3    H126569   3.235   5.051   1.671  0.2605 -0.5240  2.0105
 1670TIP3    H226570   3.168   4.937   1.598 -0.3232  0.3067  1.2201
 1671TIP3   OH226571   0.119   1.744   8.585 -0.0336 -0.1845  0.0707
 1671TIP3    H126572   0.067   1.682   8.636  0.6795 -0.7781  0.0938
 1671TIP3    H226573   0.060   1.773   8.515 -0.3178 -1.0369 -0.0540
 1672TIP3   OH226574   3.902   2.118   8.484 -0.1572 -0.3132 -0.9520
 1672TIP3    H126575   3.879   2.042   8.537 -0.0602  0.5079  0.2934
 1672TIP3    H226576   3.980   2.155   8.526  0.0827  0.2171 -1.8188
 1673TIP3   OH226577   3.490   0.267   0.907  0.1932 -0.0833 -0.3628
 1673TIP3    H126578   3.579   0.242   0.884  0.4926 -0.5667  1.2457
 1673TIP3    H226579   3.481   0.356   0.871  1.2865 -0.0546 -0.6055
 1674TIP3   OH226580   0.013   1.528   2.933  0.4177  0.4255 -0.8429
 1674TIP3    H126581   0.014   1.559   3.024 -0.9544 -1.2208 -0.2271
 1674TIP3    H226582  -0.001   1.608   2.882 -2.7387  0.9970  0.6717
 1675TIP3   OH226583   5.810   1.186   8.553 -0.3970  0.0760 -0.0998
 1675TIP3    H126584   5.869   1.141   8.613 -0.1999  1.4308  0.7602
 1675TIP3    H226585   5.777   1.117   8.496  1.0874 -0.9020  0.1695
 1676TIP3   OH226586   0.211   6.286   1.297  0.2085  0.3187 -0.6396
 1676TIP3    H126587   0.185   6.197   1.274  0.4985  0.2308 -0.6207
 1676TIP3    H226588   0.127   6.332   1.311  0.0562 -0.3959  1.0457
 1677TIP3   OH226589   0.060   0.283   0.037 -0.2337 -0.0719 -0.2964
 1677TIP3    H126590   0.078   0.279   0.131  0.2705  0.2386 -0.3780
 1677TIP3    H226591   0.106   0.207   0.001  3.2321  2.0956 -0.8596
 1678TIP3   OH226592   0.913   3.961   2.044  0.4769  0.1316 -0.0657
 1678TIP3    H126593   0.908   3.866   2.052  1.3817  0.0706 -0.0731
 1678TIP3    H226594   1.000   3.983   2.077  0.4086  0.9229 -0.3894
 1679TIP3   OH226595   5.092   6.118   2.686  0.0949  0.5351 -0.3773
 1679TIP3    H126596   5.185   6.134   2.703  0.4416 -0.7963 -0.8337
 1679TIP3    H226597   5.070   6.045   2.744 -0.4272  0.2914 -0.8707
 1680TIP3   OH226598   4.756   6.683   1.555  0.5176  0.3988  0.0142
 1680TIP3    H126599   4.835   6.717   1.513  0.7162 -0.4754 -0.3498
 1680TIP3    H226600   4.782   6.595   1.585 -1.0955 -1.1112 -2.6233
 1681TIP3   OH226601   4.668   2.937   0.083  0.0935  0.3680 -0.0132
 1681TIP3    H126602   4.669   3.019   0.132  0.5624  0.7164 -0.5908
 1681TIP3    H226603   4.592   2.943   0.026 -1.2028 -0.5777  1.5321
 1682TIP3   OH226604   0.972   1.113   8.574 -0.0682  0.1499  0.0992
 1682TIP3    H126605   0.970   1.029   8.620  0.2230 -0.4074 -0.8753
 1682TIP3    H226606   0.941   1.093   8.485  1.9768  0.6382 -0.7828
 1683TIP3   OH226607   4.011   0.733   1.549  0.4889  0.5834 -0.3025
 1683TIP3    H126608   3.928   0.711   1.591  0.7117 -0.0280 -0.1746
 1683TIP3    H226609   4.055   0.649   1.538  0.2382  0.6571 -2.1784
 1684TIP3   OH226610   3.642   3.390   8.531  0.1333 -0.4040 -0.2355
 1684TIP3    H126611   3.591   3.310   8.516 -0.0347 -0.2414 -0.5526
 1684TIP3    H226612   3.592   3.458   8.487  0.0325 -0.0372  0.4361
 1685TIP3   OH226613   5.886   5.599   0.394 -0.4674  0.1794 -0.4326
 1685TIP3    H126614   5.844   5.640   0.470 -4.4468 -0.8873 -1.8058
 1685TIP3    H226615   5.899   5.508   0.420 -2.1398 -0.2663 -1.0541
 1686TIP3   OH226616   1.089   2.143   1.959  0.0119 -0.4506  0.1355
 1686TIP3    H126617   1.178   2.134   1.991  0.4954  1.3117 -0.5932
 1686TIP3    H226618   1.087   2.089   1.880  0.3187 -0.7813  0.3493
 1687TIP3   OH226619   1.188   6.359   8.403  0.1134 -0.1650 -0.3439
 1687TIP3    H126620   1.249   6.320   8.465 -0.6914  0.7833  1.1265
 1687TIP3    H226621   1.153   6.285   8.353  0.1069 -1.0978  0.9801
 1688TIP3   OH226622   1.555   2.960   0.795 -0.6944  0.2834  0.7792
 1688TIP3    H126623   1.610   2.948   0.872 -0.8006  1.5025  1.0587
 1688TIP3    H226624   1.545   2.872   0.759  1.4907  0.0368  0.6665
 1689TIP3   OH226625   2.188   2.589   1.754 -0.6071  0.6897  0.1100
 1689TIP3    H126626   2.194   2.666   1.811 -0.1110 -0.0532  1.1120
 1689TIP3    H226627   2.177   2.624   1.666  1.1529  1.9574  0.3420
 1690TIP3   OH226628   0.807   4.007   1.527 -0.7298  0.1545  0.0708
 1690TIP3    H126629   0.805   3.925   1.576 -1.9731 -0.0147 -0.2038
 1690TIP3    H226630   0.808   4.075   1.594  1.0445 -0.0663  0.3004
 1691TIP3   OH226631   4.589   2.296   1.608  0.6312  0.3235 -0.3224
 1691TIP3    H126632   4.588   2.202   1.623  2.5394  0.3864  0.4833
 1691TIP3    H226633   4.564   2.335   1.692  1.6939  0.5341 -0.0849
 1692TIP3   OH226634   3.539   0.199   7.977  0.2771 -0.3617 -0.5328
 1692TIP3    H126635   3.482   0.125   7.958 -1.2815  0.8586 -0.7848
 1692TIP3    H226636   3.480   0.267   8.008  1.8735  0.2082  1.4980
 1693TIP3   OH226637   1.800   3.745   2.107 -0.3789 -0.6071 -0.3294
 1693TIP3    H126638   1.875   3.727   2.050 -0.4964  1.8051 -1.3415
 1693TIP3    H226639   1.825   3.823   2.156 -1.6480 -0.6486  0.4294
 1694TIP3   OH226640   1.435   3.643   7.600 -1.3537 -0.0123 -0.1683
 1694TIP3    H126641   1.406   3.569   7.654 -0.5898  0.5731  1.0781
 1694TIP3    H226642   1.425   3.720   7.656 -0.7380  0.6435 -0.9308
 1695TIP3   OH226643   2.090   4.671   2.257  0.2295  0.5812  0.0552
 1695TIP3    H126644   2.102   4.590   2.206  1.6480  0.3317  0.7514
 1695TIP3    H226645   1.998   4.693   2.245 -0.2822 -1.3483  0.1300
 1696TIP3   OH226646   5.293   6.604   0.485  0.4963 -0.6596  0.1851
 1696TIP3    H126647   5.248   6.688   0.491  1.9535  0.0605  2.1143
 1696TIP3    H226648   5.223   6.539   0.488 -0.7543  0.4086 -2.5680
 1697TIP3   OH226649   1.643   5.716   7.379 -0.0147  0.1344  0.1071
 1697TIP3    H126650   1.574   5.653   7.400  0.7025 -0.0936  2.0162
 1697TIP3    H226651   1.711   5.663   7.337 -0.3451  0.0696 -0.3521
 1698TIP3   OH226652   6.656   2.416   0.463  0.1501  0.3170  0.0545
 1698TIP3    H126653   6.736   2.365   0.448 -0.2976 -0.5136  0.4272
 1698TIP3    H226654   6.666   2.450   0.552 -0.7400 -1.4069  0.8788
 1699TIP3   OH226655   0.654   1.137   7.125 -0.5816  0.0085  0.5913
 1699TIP3    H126656   0.728   1.078   7.113 -0.1182  0.8219 -0.7536
 1699TIP3    H226657   0.577   1.082   7.107 -0.3242 -0.7737  1.7464
 1700TIP3   OH226658   0.678   2.376   1.416  0.2492 -0.1130  0.2520
 1700TIP3    H126659   0.722   2.388   1.332 -1.7727  1.9735 -0.6125
 1700TIP3    H226660   0.666   2.465   1.449 -1.0449 -0.7688  1.6630
 1701TIP3   OH226661   1.261   0.585   8.349  0.1391 -0.0455 -0.3371
 1701TIP3    H126662   1.333   0.635   8.389 -0.3508  0.9496 -0.6623
 1701TIP3    H226663   1.253   0.621   8.260  0.5837 -1.5697 -1.0311
 1702TIP3   OH226664   1.171   0.807   3.123 -0.2080 -0.7417  0.8834
 1702TIP3    H126665   1.221   0.888   3.135  0.3276 -1.1913  1.8721
 1702TIP3    H226666   1.116   0.801   3.201 -1.0651 -0.7866  0.2957
 1703TIP3   OH226667   2.619   5.013   2.543 -0.7833 -0.4025  0.3393
 1703TIP3    H126668   2.686   5.011   2.612  0.0161  1.4724 -0.3204
 1703TIP3    H226669   2.539   5.039   2.589 -0.6996 -1.0209  0.8569
 1704TIP3   OH226670   5.029   4.897   2.588 -0.8562 -0.2361 -0.2596
 1704TIP3    H126671   4.977   4.945   2.653 -1.4343 -1.0638 -0.0918
 1704TIP3    H226672   5.109   4.872   2.635 -0.0230  1.5141 -0.6755
 1705TIP3   OH226673   3.035   2.922   1.185  0.3761 -0.8141 -0.7912
 1705TIP3    H126674   3.059   2.892   1.272  0.7719 -0.6768 -0.8537
 1705TIP3    H226675   3.018   3.016   1.195  3.1515 -0.1784 -1.3929
 1706TIP3   OH226676   3.187   2.118   2.587 -0.0158 -0.0684  0.1632
 1706TIP3    H126677   3.160   2.088   2.674 -0.0427 -0.1070  0.1417
 1706TIP3    H226678   3.145   2.057   2.526 -1.7076  1.1671  0.0022
 1707TIP3   OH226679   6.038   4.076   8.126  0.4397 -0.6079 -0.2488
 1707TIP3    H126680   6.092   4.018   8.072  2.3671  1.2206 -0.4215
 1707TIP3    H226681   6.071   4.163   8.107  1.3228  0.1736  3.9125
 1708TIP3   OH226682   5.929   0.394   2.640 -0.1321  0.0064  0.4974
 1708TIP3    H126683   5.952   0.381   2.732 -0.8225  0.3355  0.7232
 1708TIP3    H226684   5.969   0.320   2.595  3.5982  1.8077  0.4507
 1709TIP3   OH226685   6.310   5.973   2.720  0.2300  0.1671  0.1733
 1709TIP3    H126686   6.275   5.961   2.632  2.0181  0.2138 -0.5867
 1709TIP3    H226687   6.337   6.065   2.723  1.2539 -0.1205  0.3285
 1710TIP3   OH226688   4.171   6.544   2.265 -0.2658  0.0874 -0.1555
 1710TIP3    H126689   4.085   6.526   2.304 -0.7436  1.7885 -0.3324
 1710TIP3    H226690   4.202   6.621   2.312  0.6687  0.1485 -0.8600
 1711TIP3   OH226691   2.718   0.823   0.530  0.5661  0.3764  0.0180
 1711TIP3    H126692   2.715   0.841   0.624  0.6665  0.3758  0.0215
 1711TIP3    H226693   2.694   0.906   0.488 -0.6267  0.0639  0.0657
 1712TIP3   OH226694   5.610   5.573   2.181  0.6297 -0.1538 -0.0316
 1712TIP3    H126695   5.633   5.601   2.092  0.8455 -0.9203 -0.2227
 1712TIP3    H226696   5.658   5.492   2.194  0.0896 -0.3919  0.5472
 1713TIP3   OH226697   1.058   6.603   0.604 -0.2612  0.2854 -0.2315
 1713TIP3    H126698   1.022   6.648   0.527 -0.1979  1.3112  0.3222
 1713TIP3    H226699   1.101   6.672   0.654 -2.3854  0.1440  1.9675
 1714TIP3   OH226700   2.305   6.341   1.230 -0.2469 -0.2240 -0.5400
 1714TIP3    H126701   2.320   6.345   1.136  2.0912  1.2968 -0.1765
 1714TIP3    H226702   2.336   6.254   1.255  1.0053  0.1029 -0.9145
 1715TIP3   OH226703   3.323   3.400   0.814 -0.2754 -0.5518 -0.1028
 1715TIP3    H126704   3.276   3.430   0.737  0.6153  0.3783 -0.2956
 1715TIP3    H226705   3.394   3.463   0.826  0.6279 -1.6409  0.4790
 1716TIP3   OH226706   2.924   0.957   1.080  0.2929 -0.1933 -0.2507
 1716TIP3    H126707   2.911   1.033   1.137 -0.7538  1.2599 -2.2848
 1716TIP3    H226708   2.836   0.919   1.072  0.4978 -0.5979 -0.5901
 1717TIP3   OH226709   1.745   3.819   3.199  0.2804 -0.1904  0.1334
 1717TIP3    H126710   1.730   3.765   3.276 -0.4939  0.5076  0.4891
 1717TIP3    H226711   1.808   3.885   3.228  1.0439 -0.7364 -0.2339
 1718TIP3   OH226712   5.356   4.167   7.608 -0.2089 -0.1990  0.4670
 1718TIP3    H126713   5.286   4.203   7.662  0.5058  1.4527  0.3386
 1718TIP3    H226714   5.430   4.225   7.623  0.3626 -0.3985 -1.3976
 1719TIP3   OH226715   3.721   2.525   2.760  0.1091  0.0467 -0.6936
 1719TIP3    H126716   3.757   2.458   2.702  0.5502 -1.6118  1.3563
 1719TIP3    H226717   3.799   2.568   2.796 -0.0626 -0.2792  0.1011
 1720TIP3   OH226718   2.331   4.964   1.908  0.1481  0.2436 -0.1052
 1720TIP3    H126719   2.285   5.026   1.852  0.9121 -0.0815 -1.1247
 1720TIP3    H226720   2.350   5.014   1.988 -1.2211  0.6170  0.0160
 1721TIP3   OH226721   6.203   0.632   2.601 -0.0925  0.4485 -0.3293
 1721TIP3    H126722   6.162   0.635   2.688  1.2413 -0.1452  0.3431
 1721TIP3    H226723   6.157   0.699   2.551 -1.4032  0.2870  0.6019
 1722TIP3   OH226724   4.385   2.285   0.603 -0.5424  0.0308 -0.5940
 1722TIP3    H126725   4.289   2.286   0.613 -0.3199 -0.9683  3.8290
 1722TIP3    H226726   4.416   2.352   0.664  1.6423 -0.0440 -1.5393
 1723TIP3   OH226727   2.244   2.422   8.862 -0.6396  0.5152  0.2920
 1723TIP3    H126728   2.311   2.421   8.930  0.7993 -1.2256 -1.0494
 1723TIP3    H226729   2.290   2.396   8.782 -3.0804 -1.9638 -0.4905
 1724TIP3   OH226730   1.178   3.310   0.326  0.5797 -0.0747  0.3568
 1724TIP3    H126731   1.113   3.269   0.383 -0.8990  0.2482 -1.0214
 1724TIP3    H226732   1.206   3.388   0.373  0.0663 -0.2878  1.0287
 1725TIP3   OH226733   6.642   5.017   8.444 -0.3697 -0.3727 -0.2470
 1725TIP3    H126734   6.579   4.974   8.502 -0.6738 -0.3828 -0.5806
 1725TIP3    H226735   6.675   4.947   8.388 -0.1118 -0.3545 -0.1196
 1726TIP3   OH226736   5.163   0.718   2.047  0.2515  1.2309 -0.1621
 1726TIP3    H126737   5.133   0.642   1.997  0.9130  0.4194  0.6366
 1726TIP3    H226738   5.251   0.693   2.078  1.3203  3.0823 -1.4877
 1727TIP3   OH226739   6.294   2.341   1.023 -0.6849  0.1126 -0.2813
 1727TIP3    H126740   6.249   2.401   1.083 -0.2266  1.4250 -1.2161
 1727TIP3    H226741   6.267   2.368   0.936 -0.3279 -0.9379 -0.7330
 1728TIP3   OH226742   1.048   2.736   1.009  0.1924  0.7056  0.0425
 1728TIP3    H126743   1.066   2.650   0.972 -0.9075  1.0802 -1.4729
 1728TIP3    H226744   0.954   2.748   0.995  0.0238  1.5094  1.6696
 1729TIP3   OH226745   0.997   4.300   7.916  0.7508  0.6136 -0.0370
 1729TIP3    H126746   0.936   4.306   7.843  1.0629  0.6306 -0.2974
 1729TIP3    H226747   1.078   4.339   7.883  0.7787  0.9665  0.4405
 1730TIP3   OH226748   5.105   1.202   1.847  0.6375 -0.1291  0.2477
 1730TIP3    H126749   5.128   1.126   1.901  0.9521  0.7386  1.3673
 1730TIP3    H226750   5.126   1.277   1.902 -0.2030  0.7648 -0.6251
 1731TIP3   OH226751   4.821   4.030   8.677 -0.2619  0.0714  0.0219
 1731TIP3    H126752   4.888   3.964   8.658  0.0256 -0.4035  2.3041
 1731TIP3    H226753   4.870   4.104   8.712 -0.7406  0.7745 -0.7679
 1732TIP3   OH226754   2.793   2.145   1.151  0.0285  0.1937  0.0532
 1732TIP3    H126755   2.704   2.169   1.128  0.2590  0.9801 -0.0670
 1732TIP3    H226756   2.839   2.140   1.067 -0.3927 -2.4129 -0.0935
 1733TIP3   OH226757   2.099   6.463   1.454 -0.1470 -0.0766 -0.0377
 1733TIP3    H126758   2.080   6.375   1.489  0.0257  0.3076  1.0781
 1733TIP3    H226759   2.042   6.521   1.505  0.0496  0.5003 -0.4705
 1734TIP3   OH226760   2.920   3.814   0.912  0.3016 -0.6342 -0.5667
 1734TIP3    H126761   2.979   3.855   0.976  1.7522 -1.7606 -1.1214
 1734TIP3    H226762   2.852   3.774   0.966  0.4471  0.0436  0.1508
 1735TIP3   OH226763   0.277   5.149   2.264 -0.4094 -0.0301  0.6594
 1735TIP3    H126764   0.357   5.097   2.261 -0.6005 -0.2877 -0.0858
 1735TIP3    H226765   0.262   5.175   2.173 -0.2776  1.3926  1.0096
 1736TIP3   OH226766   4.623   5.913   7.441  0.2023  0.0623  0.8079
 1736TIP3    H126767   4.574   5.982   7.486  0.4724  0.9356 -0.1788
 1736TIP3    H226768   4.715   5.937   7.454  0.2838  0.3130 -0.1615
 1737TIP3   OH226769   5.626   0.131   2.206 -0.3702 -0.1015  0.2776
 1737TIP3    H126770   5.585   0.156   2.289  1.7252  3.6903  0.4069
 1737TIP3    H226771   5.700   0.076   2.231 -1.0986 -0.9215  0.6766
 1738TIP3   OH226772   4.622   4.523   8.419  0.1968  0.3387 -0.3754
 1738TIP3    H126773   4.548   4.475   8.456  0.3730  0.2091 -0.1867
 1738TIP3    H226774   4.614   4.612   8.454 -0.5917  0.6725 -1.3679
 1739TIP3   OH226775   1.849   6.633   0.354 -0.0615 -0.2128 -0.1991
 1739TIP3    H126776   1.828   6.577   0.278  0.9046 -1.1187  0.1770
 1739TIP3    H226777   1.808   6.588   0.428 -1.7875  1.1467 -0.2595
 1740TIP3   OH226778   4.163   3.059   2.138  0.1291 -0.3701  0.0622
 1740TIP3    H126779   4.134   3.081   2.227  0.7965 -0.7526  0.3774
 1740TIP3    H226780   4.229   2.991   2.150  1.1079  0.4297 -0.6539
 1741TIP3   OH226781   0.845   3.171   8.620  0.2894 -0.0124 -0.8490
 1741TIP3    H126782   0.917   3.118   8.653 -0.8808 -1.5251 -0.6326
 1741TIP3    H226783   0.847   3.158   8.526  0.1683 -0.2284 -0.8225
 1742TIP3   OH226784   6.609   2.861   0.260 -0.9801  0.0305  0.1100
 1742TIP3    H126785   6.675   2.906   0.312 -1.3384  0.0346  0.5680
 1742TIP3    H226786   6.647   2.776   0.239 -1.1279 -0.2629  1.0110
 1743TIP3   OH226787   3.890   0.552   3.286  0.3779 -0.2902 -0.0328
 1743TIP3    H126788   3.976   0.582   3.259 -0.0997 -0.4740 -1.9798
 1743TIP3    H226789   3.904   0.463   3.318  0.8153 -0.6967 -1.2861
 1744TIP3   OH226790   2.097   2.050   1.220  0.3880 -0.1297  0.2598
 1744TIP3    H126791   2.109   2.059   1.125  0.1765  0.4389  0.2796
 1744TIP3    H226792   2.018   1.997   1.229 -0.1797  0.6682  0.1036
 1745TIP3   OH226793   2.712   3.718   1.088  0.0603 -0.8571 -0.0433
 1745TIP3    H126794   2.723   3.631   1.126 -0.9214 -0.8765  0.2249
 1745TIP3    H226795   2.775   3.773   1.135 -1.0770 -0.9019  1.6029
 1746TIP3   OH226796   4.354   4.587   1.822 -0.3104 -0.0836  0.0431
 1746TIP3    H126797   4.315   4.673   1.836  0.8172  0.4404  0.0971
 1746TIP3    H226798   4.320   4.533   1.893  0.0817  0.7105  0.8488
 1747TIP3   OH226799   3.166   3.265   1.673 -0.2140 -0.0217  0.1442
 1747TIP3    H126800   3.176   3.290   1.765 -0.3183 -1.4437  0.5542
 1747TIP3    H226801   3.093   3.318   1.642  1.0656  1.9408  0.3010
 1748TIP3   OH226802   3.670   3.900   0.732  0.2251 -0.4488  0.2171
 1748TIP3    H126803   3.599   3.964   0.729  0.4575 -0.1965  0.0696
 1748TIP3    H226804   3.691   3.891   0.825 -0.6075 -1.1977  0.3369
 1749TIP3   OH226805   4.813   0.282   8.190 -0.5915 -0.6707 -0.4676
 1749TIP3    H126806   4.764   0.201   8.203 -0.0591 -0.9460 -0.1799
 1749TIP3    H226807   4.904   0.260   8.210 -0.3212 -0.1970 -1.1295
 1750TIP3   OH226808   3.617   5.958   0.625  0.1461 -0.6346 -0.6526
 1750TIP3    H126809   3.710   5.967   0.647 -0.3959 -0.9664  2.1739
 1750TIP3    H226810   3.611   5.871   0.584  0.9685 -0.9363 -0.1567
 1751TIP3   OH226811   6.392   6.153   0.981  0.7054  0.1919 -0.1087
 1751TIP3    H126812   6.306   6.121   0.954 -0.2314 -0.3082  3.1280
 1751TIP3    H226813   6.453   6.110   0.921 -1.1159 -1.2929 -1.0007
 1752TIP3   OH226814   5.098   0.089   0.186 -0.3685  0.1125 -0.3349
 1752TIP3    H126815   5.098   0.167   0.131  1.0745 -2.2162 -4.0127
 1752TIP3    H226816   5.188   0.082   0.217 -0.2788 -0.4882 -0.7171
 1753TIP3   OH226817   6.656   5.920   0.016 -0.2202 -0.2275 -0.0029
 1753TIP3    H126818   6.593   5.950  -0.049 -1.2057 -0.0766  0.9925
 1753TIP3    H226819   6.735   5.972  -0.002  0.1282 -1.3638 -2.1159
 1754TIP3   OH226820   2.416   2.720   2.054 -0.5602 -0.3462 -0.6418
 1754TIP3    H126821   2.423   2.806   2.014 -1.6442  0.3500  0.5629
 1754TIP3    H226822   2.506   2.692   2.068 -0.1881  0.7836 -0.6804
 1755TIP3   OH226823   2.495   0.153   2.323 -0.3379 -0.1352 -0.3665
 1755TIP3    H126824   2.518   0.089   2.255  0.0239  0.4827 -0.8298
 1755TIP3    H226825   2.399   0.153   2.325 -0.4344 -2.9926  1.8227
 1756TIP3   OH226826   0.452   3.576   0.582 -0.4465  0.2999  0.0362
 1756TIP3    H126827   0.476   3.612   0.667 -1.2699  1.0876 -0.0571
 1756TIP3    H226828   0.507   3.498   0.573 -0.7078 -0.0849  1.5127
 1757TIP3   OH226829   2.525   1.962   3.252  0.0308  0.1577  0.3672
 1757TIP3    H126830   2.465   2.022   3.207 -0.4642  1.4829  2.6508
 1757TIP3    H226831   2.605   1.965   3.199 -0.7481  1.0420 -0.8345
 1758TIP3   OH226832   6.325   5.839   7.774 -0.2269  0.2588 -0.1740
 1758TIP3    H126833   6.249   5.788   7.745 -1.2717  0.8943  1.2747
 1758TIP3    H226834   6.341   5.901   7.703 -0.7286 -0.2356 -0.7317
 1759TIP3   OH226835   1.640   4.345   8.444  0.0330  0.2829  0.3208
 1759TIP3    H126836   1.552   4.329   8.478  0.0652  0.6596  0.5945
 1759TIP3    H226837   1.694   4.277   8.483 -0.1654 -0.0460  0.0264
 1760TIP3   OH226838   0.618   4.572   7.635 -0.5800  0.3072 -0.2231
 1760TIP3    H126839   0.572   4.641   7.587  0.8812  1.1255 -0.5286
 1760TIP3    H226840   0.701   4.612   7.662  0.7206 -1.5558 -1.1598
 1761TIP3   OH226841   2.930   4.345   8.487 -0.2528 -0.1101  0.2001
 1761TIP3    H126842   3.005   4.395   8.520  0.5579 -1.3894  0.3465
 1761TIP3    H226843   2.854   4.389   8.526  0.3501  1.5610 -0.4131
 1762TIP3   OH226844   3.757   0.406   8.908  0.0350  0.0302  0.5157
 1762TIP3    H126845   3.850   0.418   8.928  0.3237  0.4701 -0.9599
 1762TIP3    H226846   3.712   0.440   8.985  1.0875  0.5190  0.9415
 1763TIP3   OH226847   1.461   2.645   8.346  0.1382 -0.2146 -0.2432
 1763TIP3    H126848   1.555   2.655   8.332  0.8822 -2.0770  2.6874
 1763TIP3    H226849   1.434   2.580   8.282  1.1240 -0.6254 -0.2539
 1764TIP3   OH226850   1.145   0.796   1.826  0.0101 -0.4900 -0.2716
 1764TIP3    H126851   1.078   0.854   1.789 -0.2850 -1.4066 -1.2340
 1764TIP3    H226852   1.132   0.801   1.920 -1.4581 -0.6876 -0.4478
 1765TIP3   OH226853   5.213   6.706   2.756  0.2761  0.6827  0.5086
 1765TIP3    H126854   5.163   6.784   2.780  0.8783  1.3884 -0.4524
 1765TIP3    H226855   5.300   6.739   2.735  0.7033 -0.3281  0.6330
 1766TIP3   OH226856   4.871   4.821   1.180  0.1484  0.1535 -0.5337
 1766TIP3    H126857   4.851   4.914   1.192 -0.9728 -0.2522  1.0972
 1766TIP3    H226858   4.846   4.780   1.263  0.4506 -1.6395 -1.2768
 1767TIP3   OH226859   2.554   2.867   2.511  0.2865  0.0444 -0.4530
 1767TIP3    H126860   2.616   2.796   2.499 -1.0586 -1.0099 -1.3968
 1767TIP3    H226861   2.573   2.928   2.440  0.2592 -0.2638 -0.7270
 1768TIP3   OH226862   1.380   1.098   1.005 -0.1747  0.2819  0.1290
 1768TIP3    H126863   1.439   1.094   0.930 -0.5029  1.5375 -0.2132
 1768TIP3    H226864   1.301   1.052   0.975  0.1670 -0.3325  0.1598
 1769TIP3   OH226865   4.249   2.237   0.871 -0.0714  0.0530 -0.5723
 1769TIP3    H126866   4.340   2.210   0.854 -0.4390 -0.9633 -0.9834
 1769TIP3    H226867   4.248   2.260   0.963  0.3771 -0.9541 -0.3004
 1770TIP3   OH226868   2.928   0.220   1.204  0.2387 -0.5616 -0.3618
 1770TIP3    H126869   2.871   0.144   1.194  0.4967 -0.7723 -0.2341
 1770TIP3    H226870   2.996   0.208   1.137  0.8067 -0.9230  0.2714
 1771TIP3   OH226871   2.947   2.176   1.852 -0.7890 -0.1318 -0.4573
 1771TIP3    H126872   2.933   2.171   1.947 -2.8841 -0.4305 -0.7271
 1771TIP3    H226873   3.041   2.188   1.842 -0.6831  1.3348  1.7022
 1772TIP3   OH226874   3.750   1.261   7.527  0.3506 -0.2838  0.0147
 1772TIP3    H126875   3.750   1.278   7.621  0.0528  0.5893 -0.1306
 1772TIP3    H226876   3.839   1.230   7.509  0.1231 -1.3802  0.7283
 1773TIP3   OH226877   1.766   6.291   3.144  0.2777  0.1319  0.2578
 1773TIP3    H126878   1.683   6.243   3.141  0.7617 -0.7502  0.3810
 1773TIP3    H226879   1.755   6.355   3.215 -0.5106  0.4477 -0.1462
 1774TIP3   OH226880   5.197   0.018   0.815 -0.2695  0.1869 -0.4421
 1774TIP3    H126881   5.240   0.092   0.859  0.6766 -0.5298 -0.1159
 1774TIP3    H226882   5.184   0.047   0.725  3.3322 -0.4311 -1.3199
 1775TIP3   OH226883   2.696   6.158   8.438 -0.1379  0.0531  0.7621
 1775TIP3    H126884   2.769   6.210   8.472  1.0165 -0.8495 -0.2358
 1775TIP3    H226885   2.696   6.175   8.344  1.6896 -3.2692 -0.0126
 1776TIP3   OH226886   4.907   5.190   2.083  0.1348  0.1581 -0.3817
 1776TIP3    H126887   4.995   5.174   2.049  0.7342  1.2717  0.5877
 1776TIP3    H226888   4.920   5.213   2.175 -1.1538  0.4990 -0.2639
 1777TIP3   OH226889   3.948   2.520   7.560 -0.4437  0.0856  0.4177
 1777TIP3    H126890   3.966   2.426   7.560  0.0557  0.1678  1.2915
 1777TIP3    H226891   3.922   2.540   7.650  0.7833  1.0104  0.6107
 1778TIP3   OH226892   0.774   0.659   8.535 -0.1883 -0.5369 -0.0862
 1778TIP3    H126893   0.821   0.596   8.480  0.7719  0.2401 -0.1778
 1778TIP3    H226894   0.828   0.665   8.614 -0.2711  0.1670 -0.0799
 1779TIP3   OH226895   6.369   4.969   8.327 -0.0040 -0.0319 -0.0407
 1779TIP3    H126896   6.383   4.901   8.261  1.0198  1.9817 -2.0355
 1779TIP3    H226897   6.457   4.992   8.357 -0.4133 -0.3873  1.5590
 1780TIP3   OH226898   6.680   4.171   0.234  0.2727  0.3110 -0.2895
 1780TIP3    H126899   6.643   4.090   0.270 -0.7703  0.5132 -0.8727
 1780TIP3    H226900   6.739   4.203   0.302 -1.2796  0.4253  1.0517
 1781TIP3   OH226901   4.603   4.890   3.050 -0.0859 -0.5584 -0.0649
 1781TIP3    H126902   4.641   4.825   3.109 -1.2394 -0.5406  0.7245
 1781TIP3    H226903   4.512   4.899   3.079  0.2841  2.1087  0.4814
 1782TIP3   OH226904   5.911   6.369   2.750 -0.2695  0.3157  0.2063
 1782TIP3    H126905   5.939   6.444   2.696  1.7713 -0.9789 -0.6771
 1782TIP3    H226906   5.869   6.310   2.688 -1.5830  0.5400  0.8442
 1783TIP3   OH226907   4.027   5.805   7.673 -0.0961 -0.4646  0.2065
 1783TIP3    H126908   4.085   5.849   7.611 -1.2581  0.5735 -0.2003
 1783TIP3    H226909   3.939   5.823   7.640 -0.7290 -0.3942  1.8147
 1784TIP3   OH226910   2.719   5.918   1.545  0.3591 -0.2100 -0.3789
 1784TIP3    H126911   2.749   5.856   1.611 -0.6760 -0.7858 -0.4279
 1784TIP3    H226912   2.660   5.866   1.489 -2.0221  1.2371  0.6702
 1785TIP3   OH226913   1.054   0.821   2.089  0.0662  0.2198  0.1962
 1785TIP3    H126914   1.015   0.734   2.098  0.7561 -0.0548  0.6190
 1785TIP3    H226915   0.981   0.878   2.068 -0.4839 -0.3722  0.4765
 1786TIP3   OH226916   1.233   0.536   8.660  0.4037 -0.4898  0.6280
 1786TIP3    H126917   1.227   0.523   8.566 -0.3558  0.5490  0.5165
 1786TIP3    H226918   1.323   0.566   8.674  0.3350 -0.0547  0.1521
 1787TIP3   OH226919   3.773   0.006   1.733  0.4264 -0.0575  0.0322
 1787TIP3    H126920   3.847  -0.050   1.708 -0.1490 -0.8242  0.0122
 1787TIP3    H226921   3.736  -0.036   1.811  0.7755  1.0273  0.8095
 1788TIP3   OH226922   3.842   5.478   1.034  0.1225 -0.0380  0.2657
 1788TIP3    H126923   3.822   5.572   1.031  1.8358  0.3349 -0.0416
 1788TIP3    H226924   3.781   5.439   0.971 -1.4582  0.6775  1.2883
 1789TIP3   OH226925   6.672   3.819   0.037  0.0855  0.5709  0.0357
 1789TIP3    H126926   6.615   3.849   0.108 -1.8348 -1.0479 -0.7524
 1789TIP3    H226927   6.715   3.740   0.073 -2.5971 -1.6125 -1.2154
 1790TIP3   OH226928   1.278   5.667   8.944  0.3915  0.5985 -0.0227
 1790TIP3    H126929   1.245   5.639   8.859  0.8432  2.6051 -0.9024
 1790TIP3    H226930   1.370   5.689   8.928  1.1732 -1.1873  1.5288
 1791TIP3   OH226931   5.724   5.475   0.869 -0.3722  0.4874 -0.1015
 1791TIP3    H126932   5.707   5.389   0.907  0.1422 -0.1928 -1.3387
 1791TIP3    H226933   5.672   5.476   0.789  0.7346  0.7281 -0.8499
 1792TIP3   OH226934   6.158   1.159   0.102  0.1056  0.5284  0.4361
 1792TIP3    H126935   6.225   1.161   0.034 -0.0993 -0.2745  0.1950
 1792TIP3    H226936   6.183   1.087   0.159  0.3769  1.3133  1.3431
 1793TIP3   OH226937   2.529   1.106   7.379  0.2866 -0.6622 -0.3184
 1793TIP3    H126938   2.541   1.023   7.332  1.3981  0.0695 -1.3637
 1793TIP3    H226939   2.602   1.161   7.350 -0.7937  0.9225 -0.1512
 1794TIP3   OH226940   5.528   4.300   8.298 -0.0752 -0.4641 -0.1594
 1794TIP3    H126941   5.602   4.242   8.283  0.4166 -0.0319  0.5459
 1794TIP3    H226942   5.541   4.373   8.237  0.1917 -0.2869  0.1091
 1795TIP3   OH226943   3.275   0.853   0.428 -0.6103 -0.1355  0.8609
 1795TIP3    H126944   3.187   0.821   0.448 -0.0094 -0.1963  3.9177
 1795TIP3    H226945   3.327   0.773   0.414 -0.9620 -0.1028 -0.8198
 1796TIP3   OH226946   1.583   4.520   1.716  0.1936  0.2805  0.4553
 1796TIP3    H126947   1.604   4.610   1.691 -0.9135 -0.0216 -1.7810
 1796TIP3    H226948   1.502   4.527   1.767 -0.3921  0.4835 -0.4942
 1797TIP3   OH226949   0.343   0.525   8.707 -0.1210 -0.5248  0.2277
 1797TIP3    H126950   0.322   0.500   8.616 -1.2360  0.8851  0.0670
 1797TIP3    H226951   0.289   0.466   8.760 -1.9266  0.7294 -0.1221
 1798TIP3   OH226952   5.529   4.644   1.874 -0.4880 -0.0583 -0.6935
 1798TIP3    H126953   5.577   4.714   1.918 -1.5645 -0.0002  0.4581
 1798TIP3    H226954   5.465   4.615   1.939 -0.2811 -1.9052 -1.2556
 1799TIP3   OH226955   4.323   6.129   2.652  0.3147  0.1723  0.0958
 1799TIP3    H126956   4.373   6.047   2.644 -1.0302 -0.6065 -0.7569
 1799TIP3    H226957   4.350   6.166   2.736  1.9757 -0.4371 -0.1389
 1800TIP3   OH226958   3.428   0.031   2.243  0.1148 -0.5779 -0.2829
 1800TIP3    H126959   3.475   0.113   2.261 -0.7728  0.0105 -0.5583
 1800TIP3    H226960   3.343   0.043   2.286  0.8668 -2.4061  1.8794
 1801TIP3   OH226961   0.586   4.461   0.313 -0.2553 -0.0467  0.3714
 1801TIP3    H126962   0.586   4.486   0.220  0.3609  1.2605  0.6903
 1801TIP3    H226963   0.621   4.372   0.314  0.6716  0.2879 -0.5823
 1802TIP3   OH226964   1.089   4.167   8.471 -0.1833  0.3334  0.2550
 1802TIP3    H126965   1.080   4.244   8.415  1.2989  0.2722 -0.1057
 1802TIP3    H226966   1.144   4.106   8.421  0.4319 -0.0840  1.3913
 1803TIP3   OH226967   4.516   6.635   0.469  0.7949 -0.5105 -0.2738
 1803TIP3    H126968   4.424   6.652   0.491  1.0200 -0.3079  0.5481
 1803TIP3    H226969   4.541   6.709   0.413  0.4518 -0.5827 -0.5263
 1804TIP3   OH226970   1.208   3.919   7.979  0.4634 -0.6783  0.2685
 1804TIP3    H126971   1.128   3.967   7.997 -0.5977 -1.6724 -1.5005
 1804TIP3    H226972   1.278   3.982   7.994 -0.8321  1.2687 -1.3852
 1805TIP3   OH226973   6.265   0.017   8.841  0.1084  0.2532 -0.1825
 1805TIP3    H126974   6.264  -0.079   8.849 -1.4105  0.1157 -1.5578
 1805TIP3    H226975   6.279   0.048   8.930 -0.7316 -1.2441  0.5066
 1806TIP3   OH226976   4.894   1.261   2.987  0.3205 -0.1243  0.3743
 1806TIP3    H126977   4.836   1.303   3.051  1.2536 -0.5212  1.5284
 1806TIP3    H226978   4.910   1.174   3.023 -0.3464 -0.9417 -1.2040
 1807TIP3   OH226979   3.774   0.721   2.589 -0.7211  0.3996 -0.0201
 1807TIP3    H126980   3.803   0.672   2.511 -2.1176 -0.6612  0.0851
 1807TIP3    H226981   3.724   0.794   2.553  0.5197  1.2045 -0.1541
 1808TIP3   OH226982   6.692   4.407   1.088 -0.1320  0.2032 -0.3404
 1808TIP3    H126983   6.686   4.464   1.011 -0.2194  0.2185 -0.3221
 1808TIP3    H226984   6.786   4.390   1.098  0.1364  2.0793  0.9111
 1809TIP3   OH226985   1.475   3.457   0.929  0.5580  0.0155 -0.5585
 1809TIP3    H126986   1.434   3.404   0.860 -1.4631  0.9420 -0.1334
 1809TIP3    H226987   1.558   3.487   0.890  0.3209 -0.9508 -1.8942
 1810TIP3   OH226988   5.442   1.457   1.411 -0.4015  0.3207 -0.8370
 1810TIP3    H126989   5.495   1.403   1.470 -2.7694 -1.4443 -0.2018
 1810TIP3    H226990   5.394   1.516   1.469  0.5877  1.7251 -1.3891
 1811TIP3   OH226991   3.075   4.570   1.280  0.4631 -0.4375 -0.0110
 1811TIP3    H126992   2.995   4.535   1.319  0.6566 -0.5214  0.3168
 1811TIP3    H226993   3.124   4.605   1.354  0.4806  0.1113 -0.2818
 1812TIP3   OH226994   0.791   5.750   2.367 -0.4492  0.2831  0.4285
 1812TIP3    H126995   0.815   5.716   2.281  0.3257  0.0179  0.7406
 1812TIP3    H226996   0.867   5.731   2.423 -0.3515  1.7358  0.8311
 1813TIP3   OH226997   3.414   6.278   8.988  0.1338  0.8556 -0.3974
 1813TIP3    H126998   3.347   6.213   9.007  1.6623 -1.0542 -1.1576
 1813TIP3    H226999   3.381   6.326   8.912 -0.1504 -0.4169 -1.0999
 1814TIP3   OH227000   3.729   0.887   8.022 -0.0122  0.1578  0.1953
 1814TIP3    H127001   3.800   0.827   8.049  0.8348  0.6266 -0.9132
 1814TIP3    H227002   3.665   0.881   8.092  0.9979 -0.5130  1.0963
 1815TIP3   OH227003   0.761   2.952   0.218  0.1021  0.2387  0.6306
 1815TIP3    H127004   0.720   2.919   0.139 -0.3765 -0.4527  1.1633
 1815TIP3    H227005   0.717   3.036   0.235 -2.0509 -1.0774  1.9104
 1816TIP3   OH227006   6.018   0.902   8.142 -0.1307  1.2155  0.2695
 1816TIP3    H127007   6.084   0.946   8.194  0.6770 -0.6993  0.9415
 1816TIP3    H227008   6.065   0.869   8.066 -0.9361  2.3643 -0.7744
 1817TIP3   OH227009   1.505   4.845   2.285  0.1255 -0.4141  0.5192
 1817TIP3    H127010   1.533   4.925   2.239  1.3311 -0.8957  0.3743
 1817TIP3    H227011   1.478   4.875   2.372 -0.6770  0.3054  0.0391
 1818TIP3   OH227012   1.132   2.391   0.825 -0.6544 -0.0369  0.1058
 1818TIP3    H127013   1.069   2.460   0.806  0.4985  0.8390 -0.6639
 1818TIP3    H227014   1.208   2.436   0.861 -0.6056 -1.1235  1.4635
 1819TIP3   OH227015   6.058   1.872   2.138 -0.0088  0.2998  0.3657
 1819TIP3    H127016   6.151   1.853   2.143  0.3363  2.2462  2.7797
 1819TIP3    H227017   6.051   1.937   2.068  0.3199 -0.2521 -0.1978
 1820TIP3   OH227018   0.545   1.233   3.330  0.2417 -0.0532  0.4985
 1820TIP3    H127019   0.452   1.249   3.344  0.5322  0.7242  1.6357
 1820TIP3    H227020   0.574   1.305   3.273  0.2247 -0.1157  0.4096
 1821TIP3   OH227021   1.162   2.391   2.303  0.0438  0.2623  0.3836
 1821TIP3    H127022   1.071   2.367   2.290  0.0343 -0.1944  1.2392
 1821TIP3    H227023   1.160   2.458   2.372  0.2228  1.4883 -0.7596
 1822TIP3   OH227024   5.437   5.388   0.437 -0.3050 -0.2015  0.4565
 1822TIP3    H127025   5.395   5.305   0.460 -0.2823 -0.4374 -0.3206
 1822TIP3    H227026   5.398   5.413   0.354  0.5487 -0.0429  0.0881
 1823TIP3   OH227027   5.646   0.695   0.023 -0.0117 -0.2757  0.1763
 1823TIP3    H127028   5.674   0.736  -0.059 -0.6156 -2.8055 -1.4123
 1823TIP3    H227029   5.722   0.643   0.051 -0.0811 -0.0506  0.7987
 1824TIP3   OH227030   2.650   4.081   0.456 -0.0706 -0.2963 -0.1525
 1824TIP3    H127031   2.629   4.112   0.368  0.8628 -0.0240 -0.2937
 1824TIP3    H227032   2.679   3.991   0.444  0.0819 -0.2509 -0.1363
 1825TIP3   OH227033   4.246   4.119   1.329 -0.4325  0.1125 -0.1673
 1825TIP3    H127034   4.192   4.121   1.250 -0.5347 -1.8817 -0.1875
 1825TIP3    H227035   4.262   4.026   1.345  0.8932  0.5508  1.2808
 1826TIP3   OH227036   6.235   1.011   8.229 -0.2837  0.1961 -0.0518
 1826TIP3    H127037   6.238   1.075   8.300  0.7991  0.7589 -0.5830
 1826TIP3    H227038   6.300   1.041   8.166  1.2672 -2.1685  0.3119
 1827TIP3   OH227039   4.683   0.522   0.170 -0.5961 -0.0536  0.0271
 1827TIP3    H127040   4.674   0.434   0.135 -0.1076  0.3781 -1.2193
 1827TIP3    H227041   4.704   0.577   0.095 -0.3778  1.0498  0.8542
 1828TIP3   OH227042   0.455   4.061   7.585 -0.2360 -0.5124  0.0202
 1828TIP3    H127043   0.452   4.156   7.583 -3.4926 -0.4920  0.1184
 1828TIP3    H227044   0.368   4.035   7.615  0.1035 -3.5372 -1.2376
 1829TIP3   OH227045   1.495   2.389   2.747  0.4280 -0.6827 -0.1102
 1829TIP3    H127046   1.441   2.342   2.811 -2.2203 -0.4457 -1.9904
 1829TIP3    H227047   1.472   2.481   2.760  0.2876 -0.5894 -0.9976
 1830TIP3   OH227048   3.112   2.066   1.278  0.3099  0.3291 -0.2514
 1830TIP3    H127049   3.093   2.137   1.339 -0.3160 -0.5759  0.6461
 1830TIP3    H227050   3.026   2.044   1.240  0.4488 -0.1788 -0.2682
 1831TIP3   OH227051   0.788   0.165   7.131  0.0510 -0.3375  0.2285
 1831TIP3    H127052   0.761   0.254   7.110 -0.4721 -0.3284  0.8836
 1831TIP3    H227053   0.857   0.176   7.197  0.4981 -0.4009 -0.2271
 1832TIP3   OH227054   3.674   4.624   3.005 -0.1570  0.1944  0.0280
 1832TIP3    H127055   3.678   4.594   3.096 -0.4393  0.6912  0.2107
 1832TIP3    H227056   3.676   4.544   2.953  2.2950 -0.0569  0.3628
 1833TIP3   OH227057   1.443   3.826   7.804  0.1414  0.0125  0.4817
 1833TIP3    H127058   1.443   3.919   7.781 -0.4501 -0.1031 -0.0223
 1833TIP3    H227059   1.535   3.800   7.799  0.1937  0.3325 -0.4000
 1834TIP3   OH227060   1.441   4.406   8.844 -0.2860  0.0662  0.3074
 1834TIP3    H127061   1.366   4.346   8.847  0.5035 -0.9351  0.9478
 1834TIP3    H227062   1.451   4.437   8.934  0.5568 -0.4767  0.4189
 1835TIP3   OH227063   4.146   5.382   8.899 -0.4138  0.3746 -0.3646
 1835TIP3    H127064   4.145   5.463   8.949 -0.2962  0.0334  0.2041
 1835TIP3    H227065   4.211   5.327   8.944 -0.0335  0.1996 -1.1189
 1836TIP3   OH227066   0.072   4.935   0.644  0.1747 -0.7300  0.1840
 1836TIP3    H127067   0.163   4.958   0.623 -0.6272  2.2846 -0.5650
 1836TIP3    H227068   0.024   5.017   0.633 -2.6942 -2.2512  0.4099
 1837TIP3   OH227069   4.055   0.671   2.732  0.4928  0.0007 -0.0372
 1837TIP3    H127070   4.083   0.677   2.641  2.0029 -0.0065  0.3858
 1837TIP3    H227071   3.965   0.640   2.728  0.4329  0.2794 -1.5243
 1838TIP3   OH227072   6.057   5.354   8.283  0.4535  0.3637  0.0020
 1838TIP3    H127073   6.086   5.265   8.260 -1.9336 -0.3336 -0.6146
 1838TIP3    H227074   6.035   5.395   8.200  1.0507  1.3711  0.3274
 1839TIP3   OH227075   3.464   4.074   0.758  0.0642  0.7528  0.6572
 1839TIP3    H127076   3.429   4.060   0.846  1.1667 -0.8395  0.8943
 1839TIP3    H227077   3.392   4.053   0.699 -0.0618 -0.2363  1.1553
 1840TIP3   OH227078   4.847   6.418   8.718 -0.0884 -0.2270  0.4454
 1840TIP3    H127079   4.759   6.452   8.702 -0.2139 -0.5277  0.4940
 1840TIP3    H227080   4.901   6.496   8.729 -0.6732 -0.0412  2.2040
 1841TIP3   OH227081   0.474   5.104   0.765 -0.5399 -0.2495  0.3473
 1841TIP3    H127082   0.427   5.122   0.683 -0.2367 -0.5007  0.1158
 1841TIP3    H227083   0.459   5.010   0.780 -1.2397 -0.0513  0.9906
 1842TIP3   OH227084   2.163   1.348   1.311 -0.2974  0.1168 -0.1253
 1842TIP3    H127085   2.171   1.352   1.216 -1.2703 -1.1165 -0.2815
 1842TIP3    H227086   2.252   1.365   1.343 -0.2031  1.8671 -1.1802
 1843TIP3   OH227087   1.891   5.114   1.640 -0.7039 -0.2382 -0.0374
 1843TIP3    H127088   1.942   5.163   1.704  1.0664 -2.3230  0.2843
 1843TIP3    H227089   1.836   5.056   1.692 -1.0489 -0.2467 -0.4060
 1844TIP3   OH227090   6.138   2.521   1.170  0.4828 -0.4961 -0.3825
 1844TIP3    H127091   6.050   2.485   1.175  0.1449 -0.3592 -3.3106
 1844TIP3    H227092   6.182   2.490   1.249 -2.1442 -0.5931  1.1379
 1845TIP3   OH227093   4.237   5.356   0.934 -0.2555 -0.2968  0.0421
 1845TIP3    H127094   4.331   5.353   0.949  0.0826  0.5495 -1.6861
 1845TIP3    H227095   4.226   5.412   0.857 -2.0961 -1.2053 -0.4223
 1846TIP3   OH227096   1.990   2.000   2.459 -0.0959  0.0986 -0.2130
 1846TIP3    H127097   2.015   1.971   2.371  0.8626 -0.6440  0.2839
 1846TIP3    H227098   2.071   1.993   2.510 -0.7782 -0.0497  0.8777
 1847TIP3   OH227099   0.678   5.281   2.941 -0.8357  0.0364 -0.5917
 1847TIP3    H127100   0.594   5.308   2.978 -0.3470  1.8434 -0.6948
 1847TIP3    H227101   0.740   5.292   3.013 -0.5169 -0.2871 -0.8134
 1848TIP3   OH227102   4.874   4.135   2.927 -0.1286 -0.5659  0.0070
 1848TIP3    H127103   4.911   4.084   2.999 -0.5659 -2.5320 -1.0723
 1848TIP3    H227104   4.779   4.131   2.942 -0.2050 -0.7108 -0.4972
 1849TIP3   OH227105   3.686   6.530   8.128 -0.2375 -0.4915 -0.1971
 1849TIP3    H127106   3.687   6.551   8.034  0.9687 -1.5906 -0.4572
 1849TIP3    H227107   3.654   6.440   8.132 -1.9914  0.1254  0.6157
 1850TIP3   OH227108   0.311   0.282   2.257  0.4371  0.1060  0.7594
 1850TIP3    H127109   0.370   0.208   2.270  2.4565  1.8958  2.6823
 1850TIP3    H227110   0.272   0.296   2.343 -2.0698 -0.3386 -0.2196
 1851TIP3   OH227111   2.433   5.597   0.365  0.4978  0.0166 -0.3342
 1851TIP3    H127112   2.513   5.628   0.323  0.3674 -0.4094 -0.9095
 1851TIP3    H227113   2.408   5.519   0.315  1.0739 -1.3276  1.3769
 1852TIP3   OH227114   1.362   2.970   8.817  0.7370 -0.2733  0.1880
 1852TIP3    H127115   1.413   2.995   8.741  1.7105  0.5459  1.0868
 1852TIP3    H227116   1.363   3.047   8.874 -2.3125  0.1323 -0.1457
 1853TIP3   OH227117   2.813   4.303   2.616 -0.2848  0.7714  0.0640
 1853TIP3    H127118   2.819   4.350   2.533  1.1770  0.2568 -0.1504
 1853TIP3    H227119   2.729   4.257   2.612  1.4760 -2.7164 -3.0899
 1854TIP3   OH227120   0.577   4.340   2.120 -0.8654  0.5450  0.1258
 1854TIP3    H127121   0.561   4.417   2.175 -3.8212  0.2633 -0.1284
 1854TIP3    H227122   0.493   4.326   2.075 -0.8558 -3.4796  1.0112
 1855TIP3   OH227123   1.804   2.372   1.621  0.2845  0.2186 -0.6267
 1855TIP3    H127124   1.853   2.371   1.704  0.3445  0.2926 -0.6609
 1855TIP3    H227125   1.872   2.378   1.554  0.1723  2.9908 -0.6185
 1856TIP3   OH227126   1.463   2.391   0.399  0.1993 -0.2883 -0.1636
 1856TIP3    H127127   1.382   2.408   0.448  1.3449 -0.2305  1.7907
 1856TIP3    H227128   1.445   2.311   0.350 -0.6729 -0.9251  1.1410
 1857TIP3   OH227129   6.007   0.283   8.684 -0.1079 -0.8678 -0.4464
 1857TIP3    H127130   6.027   0.315   8.596  0.6371  0.9421  0.3186
 1857TIP3    H227131   5.996   0.363   8.736 -0.4896 -1.8949  1.1207
 1858TIP3   OH227132   4.740   4.254   1.838 -0.1650 -0.7474  0.2187
 1858TIP3    H127133   4.783   4.251   1.923 -0.8821 -0.4353  0.5975
 1858TIP3    H227134   4.648   4.267   1.858  0.0030  2.5552 -0.6528
 1859TIP3   OH227135   3.311   2.707   2.389 -0.3179  0.2855 -0.4168
 1859TIP3    H127136   3.387   2.656   2.417 -1.1855 -0.0253  1.5188
 1859TIP3    H227137   3.343   2.797   2.382  0.2621  0.1334  0.2351
 1860TIP3   OH227138   2.002   4.767   1.490  0.1720 -0.4114  0.0573
 1860TIP3    H127139   1.988   4.749   1.397  2.7076 -0.1101 -0.4475
 1860TIP3    H227140   1.950   4.700   1.535  0.3130 -1.6964 -1.5985
 1861TIP3   OH227141   2.367   5.842   1.093 -0.5913 -0.1616  0.2518
 1861TIP3    H127142   2.326   5.912   1.042 -0.8227 -0.0056  0.6451
 1861TIP3    H227143   2.460   5.848   1.072 -0.8424 -1.0034 -1.2402
 1862TIP3   OH227144   5.172   3.944   0.718 -0.3021  0.2423 -0.2187
 1862TIP3    H127145   5.102   3.995   0.677 -1.7804 -1.0007  0.6969
 1862TIP3    H227146   5.191   3.875   0.655 -1.2957 -0.5765  0.3482
 1863TIP3   OH227147   5.391   1.007   1.881  0.2237 -0.1970  0.0117
 1863TIP3    H127148   5.468   0.997   1.938 -0.3196  1.1084  1.0166
 1863TIP3    H227149   5.419   1.069   1.814 -0.5893  2.1140  1.6955
 1864TIP3   OH227150   1.145   4.089   2.737  0.2598 -0.9887  0.2914
 1864TIP3    H127151   1.093   4.168   2.718  1.4035 -0.5019 -1.0476
 1864TIP3    H227152   1.217   4.120   2.792  1.5737 -0.7142 -1.4640
 1865TIP3   OH227153   2.688   1.268   1.290  0.6380 -0.5931 -0.3582
 1865TIP3    H127154   2.681   1.360   1.315  1.2216 -0.2563 -1.3576
 1865TIP3    H227155   2.781   1.248   1.299  0.3632 -1.4353  0.9454
 1866TIP3   OH227156   2.846   0.530   8.465  0.1956 -0.1796 -0.2699
 1866TIP3    H127157   2.864   0.623   8.447 -0.5659  0.1313  0.4655
 1866TIP3    H227158   2.928   0.496   8.502  0.3585  0.3113 -0.1686
 1867TIP3   OH227159   0.884   6.082   7.963  0.3502  0.1370  0.0473
 1867TIP3    H127160   0.974   6.114   7.968  1.1422 -1.8848 -0.3374
 1867TIP3    H227161   0.858   6.099   7.873 -0.0986  1.7698  0.4602
 1868TIP3   OH227162   0.480   3.103   0.546 -0.0546 -0.1997  0.1694
 1868TIP3    H127163   0.496   3.196   0.560 -0.7308  0.0355 -0.5591
 1868TIP3    H227164   0.449   3.097   0.455  1.0590 -1.2711 -0.1743
 1869TIP3   OH227165   0.069   4.940   1.401  0.5330  0.1126  0.0884
 1869TIP3    H127166   0.081   4.986   1.318 -0.3224  1.4111  0.6462
 1869TIP3    H227167   0.141   4.970   1.456  2.4511 -2.4418 -0.8013
 1870TIP3   OH227168   1.223   1.086   2.788  0.3834  0.4856  0.1683
 1870TIP3    H127169   1.178   1.143   2.850  0.0909  0.2218  0.2040
 1870TIP3    H227170   1.283   1.034   2.841  0.8966  0.9932  0.0922
 1871TIP3   OH227171   6.670   5.619   8.716 -0.1532  0.5252  0.1633
 1871TIP3    H127172   6.614   5.677   8.768 -0.1168 -0.1532  0.9661
 1871TIP3    H227173   6.645   5.531   8.743  0.0670  0.1650 -0.7674
 1872TIP3   OH227174   5.108   2.432   1.276  0.3933  0.1063 -0.1049
 1872TIP3    H127175   5.107   2.482   1.194 -0.1981 -0.0608 -0.2055
 1872TIP3    H227176   5.078   2.493   1.343  0.0326 -0.0005 -0.1650
 1873TIP3   OH227177   4.177   6.185   8.112  0.1104  0.1150 -0.0703
 1873TIP3    H127178   4.201   6.262   8.059  0.5925  0.8083  1.1058
 1873TIP3    H227179   4.244   6.183   8.181 -0.5136 -0.7462  0.5175
 1874TIP3   OH227180   0.937   2.830   8.884 -0.5401  0.2290 -0.2641
 1874TIP3    H127181   0.897   2.757   8.837 -1.4406  0.8950 -0.5623
 1874TIP3    H227182   0.866   2.867   8.937  0.6167 -1.0028  2.3282
 1875TIP3   OH227183   2.185   4.998   0.544 -0.1087  0.1787  0.1112
 1875TIP3    H127184   2.210   4.930   0.608  0.1353  1.8495  1.8804
 1875TIP3    H227185   2.242   5.072   0.565 -2.1194  1.8546 -0.0124
 1876TIP3   OH227186   5.170   0.446   2.274  0.2709  0.2817 -0.4183
 1876TIP3    H127187   5.129   0.524   2.312  1.4158  0.3445  0.7604
 1876TIP3    H227188   5.253   0.478   2.238  1.1282 -0.5126  0.8047
 1877TIP3   OH227189   2.976   1.129   0.251 -0.1276 -0.7199  0.5927
 1877TIP3    H127190   3.004   1.115   0.341  0.6756  0.5905  0.5684
 1877TIP3    H227191   2.897   1.076   0.242 -0.1499 -0.9579  2.0302
 1878TIP3   OH227192   3.309   4.706   1.782  0.5417  0.0645 -1.0223
 1878TIP3    H127193   3.393   4.696   1.826 -0.2579  1.8448  1.0993
 1878TIP3    H227194   3.298   4.801   1.773 -2.0115 -0.0050  0.4495
 1879TIP3   OH227195   4.856   4.245   2.110  0.1212  0.3772  0.0912
 1879TIP3    H127196   4.887   4.306   2.178 -0.7304 -0.0116  0.8418
 1879TIP3    H227197   4.782   4.200   2.150  0.8024 -1.2589 -0.4063
 1880TIP3   OH227198   5.843   0.604   2.502  0.8327 -0.4541  0.1736
 1880TIP3    H127199   5.883   0.530   2.547  0.4616  0.3508  1.8798
 1880TIP3    H227200   5.753   0.575   2.486  1.2728 -1.1886 -1.1728
 1881TIP3   OH227201   2.238   4.710   3.512 -0.0669 -0.5957 -0.9594
 1881TIP3    H127202   2.159   4.759   3.534 -0.5941 -1.7741 -0.1919
 1881TIP3    H227203   2.286   4.769   3.454 -1.5885  0.0655 -1.6097
 1882TIP3   OH227204   4.765   3.047   2.121 -0.0497  0.4227  0.3091
 1882TIP3    H127205   4.738   2.964   2.082  2.2127  0.4633 -1.5371
 1882TIP3    H227206   4.684   3.097   2.130 -1.5156 -1.9903  1.6983
 1883TIP3   OH227207   6.413   1.736   0.262  0.5240 -0.4565  0.2606
 1883TIP3    H127208   6.489   1.773   0.217  0.5563 -0.0792  0.6267
 1883TIP3    H227209   6.387   1.802   0.326  2.1996 -2.0910  2.8222
 1884TIP3   OH227210   5.739   2.029   0.458 -0.6389 -0.5603 -0.0991
 1884TIP3    H127211   5.784   2.055   0.539 -0.7805  0.4371 -0.3339
 1884TIP3    H227212   5.674   2.097   0.444 -0.5558 -0.6812 -1.1037
 1885TIP3   OH227213   3.048   2.966   1.452  0.0695 -0.0251  0.1418
 1885TIP3    H127214   3.084   2.913   1.524  0.8070  0.1916 -0.0676
 1885TIP3    H227215   2.973   3.012   1.492 -2.0950 -2.9430 -0.2106
 1886TIP3   OH227216   0.117   3.223   1.378  0.4274  0.2294 -0.5138
 1886TIP3    H127217   0.152   3.191   1.462  0.3457  0.3644 -0.4277
 1886TIP3    H227218   0.040   3.168   1.362 -1.6945  2.4115  1.2507
 1887TIP3   OH227219   3.797   4.257   2.479 -0.2677 -0.2393  0.0824
 1887TIP3    H127220   3.779   4.225   2.568 -0.5448 -2.2667 -0.6525
 1887TIP3    H227221   3.711   4.283   2.445 -0.1906  0.3416  0.3170
 1888TIP3   OH227222   4.074   4.638   1.619 -0.3604  0.3392  0.8167
 1888TIP3    H127223   4.154   4.689   1.611 -0.3833  0.3797  0.8458
 1888TIP3    H227224   4.006   4.695   1.582 -0.4915  0.5841  1.4272
 1889TIP3   OH227225   2.847   6.366   0.253 -0.2549 -0.4606  0.2177
 1889TIP3    H127226   2.913   6.350   0.185 -0.0462 -0.3243  0.3848
 1889TIP3    H227227   2.899   6.387   0.331 -0.4326 -2.0551  0.8202
 1890TIP3   OH227228   6.118   1.737   0.466  0.0152  0.0886 -0.1600
 1890TIP3    H127229   6.083   1.656   0.504 -0.2671  0.9315  1.4657
 1890TIP3    H227230   6.041   1.783   0.431  0.1428 -0.1971 -0.8426
 1891TIP3   OH227231   5.485   2.987   1.948 -0.0352  0.1772 -0.3912
 1891TIP3    H127232   5.491   3.001   2.042 -0.5935 -0.3311 -0.2736
 1891TIP3    H227233   5.571   3.011   1.914  1.0970 -2.1793  0.5800
 1892TIP3   OH227234   3.830   0.801   8.745 -0.3937  0.2428 -0.0831
 1892TIP3    H127235   3.915   0.769   8.775  0.2816  1.0895 -1.0124
 1892TIP3    H227236   3.803   0.865   8.812 -0.3189 -0.0547  0.2318
 1893TIP3   OH227237   4.587   0.363   0.999  0.2807 -0.0307 -0.5621
 1893TIP3    H127238   4.558   0.430   0.937 -1.2753 -0.0879  0.0777
 1893TIP3    H227239   4.547   0.282   0.968  2.0659 -0.7113 -1.2678
 1894TIP3   OH227240   2.472   3.403   2.938  0.1553  0.0701 -0.5377
 1894TIP3    H127241   2.420   3.332   2.901 -1.4608  0.8574  0.1528
 1894TIP3    H227242   2.463   3.392   3.033  0.7947  0.5596 -0.4122
 1895TIP3   OH227243   0.915   2.269   2.261 -0.5672  0.2178  0.4721
 1895TIP3    H127244   0.891   2.259   2.169  0.9144  0.9358 -0.0132
 1895TIP3    H227245   0.856   2.209   2.307 -2.7479  1.3277 -0.7093
 1896TIP3   OH227246   1.450   2.531   2.451 -0.5095  0.1325 -0.4182
 1896TIP3    H127247   1.508   2.589   2.500  1.3601 -2.1519  0.2315
 1896TIP3    H227248   1.363   2.550   2.486  0.1627  1.7625  0.4908
 1897TIP3   OH227249   0.511   2.116   8.479 -0.4550 -0.5373  0.6828
 1897TIP3    H127250   0.501   2.166   8.398 -0.5721 -1.3275  0.2041
 1897TIP3    H227251   0.449   2.043   8.470 -0.6574 -0.4892  1.5970
 1898TIP3   OH227252   4.179   5.846   3.126  0.2186 -0.3038 -0.0950
 1898TIP3    H127253   4.254   5.853   3.066  1.0605 -0.7087  0.8804
 1898TIP3    H227254   4.216   5.867   3.212 -1.3724  2.2094  0.0610
 1899TIP3   OH227255   5.326   0.600   7.633  0.0136  0.2353  0.0734
 1899TIP3    H127256   5.232   0.603   7.617  0.2246 -1.0842 -1.5640
 1899TIP3    H227257   5.348   0.690   7.658 -1.5064  0.7971 -0.4858
 1900TIP3   OH227258   0.931   4.752   1.752 -0.1677 -0.7885  0.4448
 1900TIP3    H127259   0.929   4.813   1.679  0.4979 -0.0017  1.0712
 1900TIP3    H227260   0.863   4.783   1.812 -1.1327 -1.7889 -0.1033
 1901TIP3   OH227261   2.801   1.673   0.304 -0.6770  0.0798  0.1074
 1901TIP3    H127262   2.835   1.754   0.267  1.0943 -0.7056 -0.0882
 1901TIP3    H227263   2.827   1.676   0.396 -1.2449  0.0469  0.2745
 1902TIP3   OH227264   2.650   1.729   2.661  0.0308 -0.4095 -0.1620
 1902TIP3    H127265   2.713   1.785   2.706  0.2574 -0.3510 -0.5450
 1902TIP3    H227266   2.704   1.673   2.605 -0.2139 -0.8019 -0.0090
 1903TIP3   OH227267   0.794   0.689   1.267  0.0844  0.1720  0.2717
 1903TIP3    H127268   0.889   0.698   1.255 -0.0589  0.8511 -0.4269
 1903TIP3    H227269   0.765   0.639   1.192 -0.0060 -0.7676  0.9189
 1904TIP3   OH227270   4.993   3.461   0.409 -0.1768 -0.0924  0.9869
 1904TIP3    H127271   5.024   3.552   0.411 -1.5465  0.3943  1.7890
 1904TIP3    H227272   4.898   3.468   0.397 -0.1882 -1.4670  0.0573
 1905TIP3   OH227273   5.215   5.326   2.188  1.0858 -0.3601 -0.1136
 1905TIP3    H127274   5.262   5.259   2.237 -0.3628 -1.5191 -0.2563
 1905TIP3    H227275   5.223   5.299   2.097 -1.3626 -1.6342 -0.0151
 1906TIP3   OH227276   2.469   4.258   8.011 -0.0962  0.1418 -0.5190
 1906TIP3    H127277   2.522   4.184   7.978 -1.7774 -1.1200 -0.5061
 1906TIP3    H227278   2.444   4.306   7.932  1.7392  1.3022 -0.4721
 1907TIP3   OH227279   4.246   5.203   2.804 -0.6338 -0.2363  0.0433
 1907TIP3    H127280   4.220   5.291   2.830  0.7721 -0.4084  2.2733
 1907TIP3    H227281   4.223   5.148   2.879  2.0719 -1.0630  0.3774
 1908TIP3   OH227282   5.916   3.983   1.521 -0.1240 -0.1627 -0.8291
 1908TIP3    H127283   5.880   3.967   1.609  0.4438 -1.8602 -0.8759
 1908TIP3    H227284   5.864   4.056   1.487 -1.1921 -0.3024  0.4331
 1909TIP3   OH227285   1.683   2.264   2.047  0.4454 -0.4551  0.1359
 1909TIP3    H127286   1.657   2.282   1.957 -1.2212 -0.0732  0.6563
 1909TIP3    H227287   1.642   2.334   2.098  1.3848 -0.6496  1.2033
 1910TIP3   OH227288   0.328   0.537   7.906 -0.0893  0.3333  0.3386
 1910TIP3    H127289   0.276   0.521   7.985 -0.3734  0.2211  0.1320
 1910TIP3    H227290   0.264   0.538   7.835 -0.0772  2.2548  0.3014
 1911TIP3   OH227291   0.203   0.151   8.382  0.3245 -1.0596  0.9694
 1911TIP3    H127292   0.173   0.119   8.467  2.0271 -1.2105  1.5469
 1911TIP3    H227293   0.197   0.074   8.325 -0.2957 -1.1027  1.0844
 1912TIP3   OH227294   0.009   2.835   2.528 -0.1812  0.0903  0.0672
 1912TIP3    H127295  -0.079   2.857   2.556  0.6032  2.2464  1.0175
 1912TIP3    H227296   0.007   2.841   2.432 -0.9793  0.4174  0.1011
 1913TIP3   OH227297   4.670   2.702   8.786 -0.0021  0.0978 -0.3806
 1913TIP3    H127298   4.702   2.676   8.699 -1.7332 -0.1035 -1.0022
 1913TIP3    H227299   4.595   2.645   8.802  0.4186  0.0049  1.3566
 1914TIP3   OH227300   2.153   4.709   8.649  0.3319 -0.2843 -0.6707
 1914TIP3    H127301   2.159   4.719   8.554 -1.2668 -0.1218 -0.7901
 1914TIP3    H227302   2.066   4.744   8.671 -0.0656 -1.9505  0.6067
 1915TIP3   OH227303   1.417   2.012   3.301  0.8129  0.1990 -0.2063
 1915TIP3    H127304   1.334   2.059   3.293  1.5505  1.4856 -0.5423
 1915TIP3    H227305   1.394   1.933   3.350 -1.1596 -0.9525 -2.7753
 1916TIP3   OH227306   2.095   6.612   0.704 -0.4697 -0.4402  0.6118
 1916TIP3    H127307   2.026   6.660   0.750  0.4997 -0.7910  2.5227
 1916TIP3    H227308   2.171   6.617   0.762  0.8333 -0.8842 -1.0006
 1917TIP3   OH227309   1.071   3.846   3.086  0.2153  0.0889 -0.3802
 1917TIP3    H127310   1.153   3.819   3.045  0.1515 -1.1037  0.2272
 1917TIP3    H227311   1.097   3.872   3.175 -0.0590 -0.3525 -0.1659
 1918TIP3   OH227312   5.337   2.601   8.312  0.1008  0.5950 -0.5414
 1918TIP3    H127313   5.356   2.608   8.219  0.2798  1.5239 -0.4423
 1918TIP3    H227314   5.305   2.688   8.337  1.7096  0.9071  0.6237
 1919TIP3   OH227315   4.240   1.851   3.226  0.1548  0.1553 -0.0853
 1919TIP3    H127316   4.271   1.903   3.300  0.1906  1.1827 -0.7965
 1919TIP3    H227317   4.145   1.849   3.236  0.2434 -0.9104  0.7447
 1920TIP3   OH227318   5.506   0.887   0.139 -0.0183 -0.5747 -0.0778
 1920TIP3    H127319   5.576   0.949   0.162 -0.2358 -0.1512 -0.5196
 1920TIP3    H227320   5.549   0.823   0.083  0.4139 -1.3632  1.1262
 1921TIP3   OH227321   0.165   1.393   0.585 -0.2623 -0.3972  0.2694
 1921TIP3    H127322   0.246   1.424   0.626 -0.7694 -0.6923  1.5713
 1921TIP3    H227323   0.101   1.461   0.603  0.0372  0.6291 -2.2004
 1922TIP3   OH227324   3.964   4.658   0.441  0.2345  0.0136 -0.2325
 1922TIP3    H127325   3.920   4.618   0.517 -0.4014 -0.5218 -0.8726
 1922TIP3    H227326   3.922   4.743   0.431 -1.8875 -1.1269 -1.8303
 1923TIP3   OH227327   0.884   3.509   3.311  0.2805 -0.4286 -0.4195
 1923TIP3    H127328   0.928   3.549   3.236  0.4189  1.5141  0.6164
 1923TIP3    H227329   0.955   3.486   3.371  0.0537  1.1594  0.5263
 1924TIP3   OH227330   0.012   5.079   7.766 -0.5621  0.0613  0.1806
 1924TIP3    H127331  -0.070   5.128   7.769 -1.3057 -1.0817 -0.6526
 1924TIP3    H227332  -0.015   4.990   7.745  0.9553 -0.1941 -0.7774
 1925TIP3   OH227333   3.648   5.158   0.506 -0.3248 -0.0711 -0.4337
 1925TIP3    H127334   3.657   5.131   0.598 -0.5637 -0.6572 -0.5757
 1925TIP3    H227335   3.737   5.157   0.472  0.0561  2.2426  0.3413
 1926TIP3   OH227336   5.634   5.807   3.604 -0.0825  0.2323 -0.0750
 1926TIP3    H127337   5.663   5.758   3.527 -2.0614 -0.7450 -0.2480
 1926TIP3    H227338   5.540   5.816   3.593 -0.2381  1.1210  1.6661
 1927TIP3   OH227339   2.052   0.918   7.574  0.0289  0.6417 -0.0826
 1927TIP3    H127340   1.962   0.951   7.578  0.5520  2.0245  1.1360
 1927TIP3    H227341   2.063   0.873   7.658  0.1896 -0.3742 -0.6320
 1928TIP3   OH227342   4.117   3.630   8.883 -0.2637 -0.6293 -0.4916
 1928TIP3    H127343   4.135   3.669   8.969  1.7517 -1.5768 -0.3964
 1928TIP3    H227344   4.051   3.563   8.901 -0.6740 -0.0712  0.1139
 1929TIP3   OH227345   1.742   1.356   8.178 -0.1948  0.4274  0.3644
 1929TIP3    H127346   1.745   1.433   8.235 -1.9479  0.7988 -0.0060
 1929TIP3    H227347   1.651   1.350   8.150  0.3340 -0.5717 -1.2747
 1930TIP3   OH227348   0.576   1.719   8.985  0.1138 -0.3513 -0.0057
 1930TIP3    H127349   0.659   1.767   8.984 -0.1303  0.1178  0.7239
 1930TIP3    H227350   0.563   1.697   9.078  1.3851 -3.9479 -0.5074
 1931TIP3   OH227351   2.981   1.997   7.910 -0.5191  0.3327  0.5271
 1931TIP3    H127352   3.014   1.908   7.898  0.3988  0.9229 -1.9377
 1931TIP3    H227353   2.913   2.006   7.843 -2.7688  0.5784  2.7097
 1932TIP3   OH227354   6.049   5.713   7.834  0.4304 -0.2613 -0.5771
 1932TIP3    H127355   5.995   5.634   7.838  1.6996 -1.2233 -1.7835
 1932TIP3    H227356   6.044   5.749   7.923  0.6564 -2.2628  0.3043
 1933TIP3   OH227357   6.107   6.723   0.976 -0.4904  0.3273  0.1246
 1933TIP3    H127358   6.056   6.674   0.912  1.7654 -1.7911 -0.2159
 1933TIP3    H227359   6.149   6.655   1.030  2.2894  1.8711  0.0703
 1934TIP3   OH227360   1.030   1.806   2.829  0.0159 -0.2515 -0.2789
 1934TIP3    H127361   0.948   1.778   2.869  0.1217  1.0101  0.9181
 1934TIP3    H227362   1.021   1.901   2.819  0.5405 -0.3546 -2.0472
 1935TIP3   OH227363   3.182   0.741   2.308  0.1146 -0.1181 -0.5485
 1935TIP3    H127364   3.093   0.744   2.272  0.3575 -0.4792 -1.1942
 1935TIP3    H227365   3.238   0.730   2.231  0.5865 -1.8412  0.0194
 1936TIP3   OH227366   5.030   4.314   2.322 -0.4212  0.1900  0.1929
 1936TIP3    H127367   5.081   4.323   2.402 -2.1705 -0.1299  1.4123
 1936TIP3    H227368   5.056   4.229   2.286 -1.1999 -0.7101  1.6530
 1937TIP3   OH227369   2.517   5.042   8.881  0.2354  0.0856 -0.4900
 1937TIP3    H127370   2.498   5.104   8.953  1.1633  0.1315 -0.2790
 1937TIP3    H227371   2.430   5.014   8.851 -0.1950 -1.0756  1.6306
 1938TIP3   OH227372   1.126   3.155   8.972 -0.3779  0.0181 -0.1584
 1938TIP3    H127373   1.216   3.185   8.974 -0.0356 -0.9425 -0.4653
 1938TIP3    H227374   1.125   3.076   9.026 -1.1271  0.2615  0.1997
 1939TIP3   OH227375   5.129   3.270   2.430  0.1019 -0.5403 -0.4973
 1939TIP3    H127376   5.135   3.339   2.495 -1.5308 -0.0874 -0.7819
 1939TIP3    H227377   5.160   3.192   2.476 -0.4638 -0.1171  0.6644
 1940TIP3   OH227378   3.842   1.048   1.484 -0.3593 -0.2748 -0.2190
 1940TIP3    H127379   3.925   1.045   1.531 -0.4900  0.1884  0.0427
 1940TIP3    H227380   3.849   0.977   1.419 -0.3227 -1.1510  0.7159
 1941TIP3   OH227381   1.162   4.485   8.967  0.1683 -0.1519 -0.0290
 1941TIP3    H127382   1.172   4.392   8.986  3.0487 -0.0795 -0.6893
 1941TIP3    H227383   1.156   4.489   8.871  0.4574  0.3537 -0.0301
 1942TIP3   OH227384   4.207   0.874   8.449 -0.8694  0.3750 -0.1216
 1942TIP3    H127385   4.174   0.841   8.366  0.6592 -0.8227 -0.2912
 1942TIP3    H227386   4.210   0.969   8.438  1.6371  0.1425 -2.3883
 1943TIP3   OH227387   5.789   5.507   8.930 -0.1138  0.0566 -0.2280
 1943TIP3    H127388   5.756   5.557   9.004 -1.3801  0.0105 -0.7334
 1943TIP3    H227389   5.729   5.433   8.923  1.1999 -1.0541 -0.0496
 1944TIP3   OH227390   0.846   3.531   1.438 -0.0835  0.4964 -0.0368
 1944TIP3    H127391   0.778   3.543   1.504  0.8788  0.5797  0.9712
 1944TIP3    H227392   0.828   3.597   1.372 -1.1962  0.2690  0.0140
 1945TIP3   OH227393   1.676   1.460   7.862 -0.4782  0.3967  0.1309
 1945TIP3    H127394   1.590   1.436   7.826 -0.7139 -1.4060  1.7620
 1945TIP3    H227395   1.739   1.411   7.808 -0.4577  1.3651 -0.7694
 1946TIP3   OH227396   1.325   6.273   2.196 -0.3527  0.1215 -0.3585
 1946TIP3    H127397   1.247   6.321   2.168 -1.7690 -1.2504  1.0088
 1946TIP3    H227398   1.340   6.208   2.127  0.6076  1.4196 -1.4193
 1947TIP3   OH227399   0.263   5.575   8.332  0.2301  0.0588  0.9676
 1947TIP3    H127400   0.319   5.650   8.351 -1.2395  1.0819  1.4927
 1947TIP3    H227401   0.218   5.557   8.415 -1.4161  0.3526  0.1889
 1948TIP3   OH227402   4.349   5.789   7.912 -0.3115 -0.5707  0.0716
 1948TIP3    H127403   4.388   5.735   7.843 -0.3454 -1.4080  0.7021
 1948TIP3    H227404   4.404   5.868   7.914  0.9446 -1.4282  0.4795
 1949TIP3   OH227405   4.204   2.794   0.042 -0.5625 -0.6597 -0.7898
 1949TIP3    H127406   4.116   2.822   0.065  0.0806  1.4046 -0.6048
 1949TIP3    H227407   4.233   2.743   0.118 -0.7476  0.7229  0.2529
 1950TIP3   OH227408   1.035   0.482   7.457  0.1081  0.2762  0.3514
 1950TIP3    H127409   1.079   0.567   7.454  0.4713  0.0999  0.5721
 1950TIP3    H227410   0.942   0.502   7.444  0.3325  0.5780 -0.9160
 1951TIP3   OH227411   4.565   6.607   1.133 -0.1544  0.8623  0.0687
 1951TIP3    H127412   4.648   6.560   1.134  0.3045  1.6735  0.5269
 1951TIP3    H227413   4.512   6.559   1.070  0.2520 -0.3492  0.6124
 1952TIP3   OH227414   0.797   1.483   7.842  0.2785  0.6122  0.2616
 1952TIP3    H127415   0.785   1.533   7.923  2.1819  1.2814  0.1807
 1952TIP3    H227416   0.768   1.543   7.773 -1.5135 -0.0239  0.4301
 1953TIP3   OH227417   0.413   1.396   1.887 -0.5289 -0.6857  0.3984
 1953TIP3    H127418   0.489   1.354   1.928  0.5551 -0.0818 -0.9246
 1953TIP3    H227419   0.415   1.364   1.796 -0.8165  0.7035 -0.1103
 1954TIP3   OH227420   3.935   3.649   0.221  0.4212  0.0926 -0.5292
 1954TIP3    H127421   3.863   3.707   0.246 -0.5415 -0.9221 -0.8188
 1954TIP3    H227422   3.961   3.678   0.134 -0.4429 -0.2297 -0.9152
 1955TIP3   OH227423   0.081   0.807   7.660 -0.4442  0.1878  0.0700
 1955TIP3    H127424   0.058   0.898   7.679 -4.1143 -0.9747  2.1165
 1955TIP3    H227425   0.108   0.808   7.568  0.9560  3.4635  0.3627
 1956TIP3   OH227426   4.926   2.874   0.497  0.1663 -0.2477 -0.0901
 1956TIP3    H127427   4.984   2.866   0.572 -0.4690 -0.4629  0.3919
 1956TIP3    H227428   4.872   2.795   0.500 -0.0617 -0.1207 -0.6065
 1957TIP3   OH227429   1.413   1.921   1.778 -0.3493 -0.1318 -0.1002
 1957TIP3    H127430   1.421   1.880   1.692 -0.9678 -2.4179  0.8531
 1957TIP3    H227431   1.492   1.896   1.825 -0.2803  0.6125  0.1979
 1958TIP3   OH227432   3.638   6.701   0.119  0.0148 -0.1120  0.1752
 1958TIP3    H127433   3.574   6.658   0.176  0.0584  1.0482  1.1360
 1958TIP3    H227434   3.698   6.631   0.093 -1.0536 -1.0125  0.0840
 1959TIP3   OH227435   1.559   0.294   1.978 -0.3848  0.5022  0.2989
 1959TIP3    H127436   1.585   0.339   1.898 -2.1972  0.8610 -0.1457
 1959TIP3    H227437   1.605   0.210   1.975 -0.4103  0.5135 -1.1279
 1960TIP3   OH227438   0.509   4.137   2.531 -0.1288 -0.2754 -0.2948
 1960TIP3    H127439   0.596   4.169   2.505  0.9082  0.1574  3.1446
 1960TIP3    H227440   0.466   4.213   2.570 -1.1717 -1.0190  0.0516
 1961TIP3   OH227441   6.164   5.028   1.516  0.6845  0.0934  0.2541
 1961TIP3    H127442   6.166   4.993   1.605 -0.5873  0.7925  0.5846
 1961TIP3    H227443   6.074   5.058   1.504  1.1049  0.9769 -0.8967
 1962TIP3   OH227444   4.262   0.055   1.687  0.5448  0.4953  0.2204
 1962TIP3    H127445   4.286   0.101   1.606  2.4665 -0.0523  0.4241
 1962TIP3    H227446   4.319  -0.023   1.688 -1.0346 -0.7163  0.9953
 1963TIP3   OH227447   2.143   1.563   1.931 -0.2200 -0.4749  0.2898
 1963TIP3    H127448   2.173   1.653   1.944  0.9136 -0.7731 -0.1202
 1963TIP3    H227449   2.121   1.532   2.019 -0.2610  0.0849  0.4789
 1964TIP3   OH227450   6.529   3.001   3.000 -0.4086 -0.2321 -0.9059
 1964TIP3    H127451   6.535   2.990   3.094 -0.4146  0.0674 -0.8684
 1964TIP3    H227452   6.477   2.926   2.970 -2.2004  0.7430 -0.4118
 1965TIP3   OH227453   0.571   5.479   8.018  0.0463  0.6052 -0.3323
 1965TIP3    H127454   0.639   5.498   7.954 -0.7813  0.1138 -1.3862
 1965TIP3    H227455   0.565   5.383   8.021 -0.0297  0.6215  0.3773
 1966TIP3   OH227456   1.377   4.386   8.522  0.3669  0.1890 -0.0273
 1966TIP3    H127457   1.361   4.455   8.586 -2.3213 -0.8703  0.5739
 1966TIP3    H227458   1.297   4.334   8.522  2.3373 -3.1179 -0.2638
 1967TIP3   OH227459   0.651   1.344   8.718  0.3564 -0.6162 -0.5044
 1967TIP3    H127460   0.697   1.422   8.749 -1.9022  0.6756 -0.2132
 1967TIP3    H227461   0.621   1.368   8.630 -0.7100 -0.9629 -0.2522
 1968TIP3   OH227462   2.619   6.658   0.916  0.0323  0.6604  0.5247
 1968TIP3    H127463   2.651   6.686   1.001 -1.1011  0.6164  0.9832
 1968TIP3    H227464   2.645   6.566   0.909  0.5595  0.8025  0.6024
 1969TIP3   OH227465   5.055   3.309   7.902  0.5397 -1.0337 -0.5862
 1969TIP3    H127466   5.019   3.258   7.829  1.7600  0.6436 -2.4696
 1969TIP3    H227467   5.129   3.256   7.934 -0.1263 -1.8767 -0.4126
 1970TIP3   OH227468   4.992   1.107   2.501 -0.3248  0.7579 -0.0450
 1970TIP3    H127469   5.073   1.144   2.538 -0.2401  1.0513 -0.5100
 1970TIP3    H227470   4.952   1.181   2.455 -1.1147  0.7460  0.5899
 1971TIP3   OH227471   4.068   4.173   8.760 -0.4349  0.0681  0.2479
 1971TIP3    H127472   4.111   4.199   8.679  0.2126 -0.0294  0.5588
 1971TIP3    H227473   4.022   4.092   8.738 -0.3330  0.0874 -0.0387
 1972TIP3   OH227474   4.037   3.117   0.596 -0.1577  0.2568  0.0723
 1972TIP3    H127475   4.076   3.122   0.684  0.3582 -0.4050 -0.1110
 1972TIP3    H227476   3.943   3.121   0.612 -0.0557  0.6700  0.6142
 1973TIP3   OH227477   2.396   6.572   2.787 -0.1450  0.2028 -0.3754
 1973TIP3    H127478   2.435   6.659   2.783  0.9358 -0.2442  0.1091
 1973TIP3    H227479   2.449   6.525   2.850 -0.2190 -1.0702 -1.2316
 1974TIP3   OH227480   2.096   5.831   0.374  0.0115 -0.6263 -0.0733
 1974TIP3    H127481   2.071   5.922   0.361 -0.9444 -0.9705 -0.7923
 1974TIP3    H227482   2.019   5.781   0.346  0.1868 -1.6296  1.1054
 1975TIP3   OH227483   0.906   5.631   8.197  0.1323  0.0489 -0.6124
 1975TIP3    H127484   0.952   5.575   8.134 -1.2497 -0.8108 -0.9240
 1975TIP3    H227485   0.967   5.702   8.216  1.8273 -1.3669 -0.4879
 1976TIP3   OH227486   6.105   6.330   0.738  0.1387 -0.1973  0.2178
 1976TIP3    H127487   6.112   6.236   0.757  0.1126 -0.2430  0.0066
 1976TIP3    H227488   6.074   6.334   0.648 -1.2646  0.0043  0.6790
 1977TIP3   OH227489   1.335   1.975   2.647  0.9626  0.0421  0.0353
 1977TIP3    H127490   1.269   1.916   2.684 -0.2473  1.7933  0.8180
 1977TIP3    H227491   1.312   1.982   2.554 -0.1171  0.8118  0.3473
 1978TIP3   OH227492   5.867   5.604   0.666  0.4966  0.5499  0.1432
 1978TIP3    H127493   5.806   5.564   0.729  0.8791  0.8482  0.7157
 1978TIP3    H227494   5.905   5.678   0.714  1.0913  0.5405 -0.3077
 1979TIP3   OH227495   5.383   3.874   2.270 -0.2973 -0.1425  0.2320
 1979TIP3    H127496   5.475   3.851   2.259 -0.2667 -1.2449  2.2570
 1979TIP3    H227497   5.348   3.805   2.327 -2.1651  0.7207  0.1998
 1980TIP3   OH227498   3.517   1.408   0.961  0.6187  0.3942 -0.2794
 1980TIP3    H127499   3.488   1.350   0.890  0.9697 -1.8945  1.3173
 1980TIP3    H227500   3.482   1.367   1.040  2.5489  1.3005  1.1183
 1981TIP3   OH227501   6.349   2.147   2.670 -0.0550  0.2472  0.7255
 1981TIP3    H127502   6.441   2.142   2.642 -0.4531  1.3950 -0.9660
 1981TIP3    H227503   6.351   2.203   2.747  0.6335  0.6667  0.4209
 1982TIP3   OH227504   6.306   3.964   0.176  0.5474 -0.8351  0.1835
 1982TIP3    H127505   6.303   3.929   0.086 -0.4572 -2.3847  0.7693
 1982TIP3    H227506   6.260   4.048   0.170 -1.9737 -2.1623 -0.2971
 1983TIP3   OH227507   2.554   0.222   0.473  0.4652  0.2236 -0.2543
 1983TIP3    H127508   2.534   0.315   0.472  0.4642  0.2214 -0.7315
 1983TIP3    H227509   2.469   0.179   0.486  0.3802  0.2689 -0.6579
 1984TIP3   OH227510   0.417   4.389   2.598  0.2890 -0.3432 -0.4424
 1984TIP3    H127511   0.500   4.432   2.580  0.5994 -0.1906  1.2478
 1984TIP3    H227512   0.367   4.453   2.649  0.1312 -1.3675  0.7254
 1985TIP3   OH227513   4.492   6.545   2.880  0.2062  0.0777  0.2928
 1985TIP3    H127514   4.530   6.621   2.836 -1.5762  1.1675  0.5134
 1985TIP3    H227515   4.567   6.492   2.905  1.4125  0.6276 -1.8650
 1986TIP3   OH227516   4.810   5.589   8.750 -0.2377 -0.5001 -0.7414
 1986TIP3    H127517   4.873   5.528   8.711 -0.9633 -2.3980  0.8791
 1986TIP3    H227518   4.786   5.648   8.678 -0.1650 -2.6761 -2.6817
 1987TIP3   OH227519   4.996   0.073   1.431  0.5140  0.1031  0.5867
 1987TIP3    H127520   5.035   0.145   1.481 -0.0806  0.3808  0.6604
 1987TIP3    H227521   5.000   0.103   1.340  3.2417 -1.1544  0.2072
 1988TIP3   OH227522   2.769   2.661   8.843  0.3552  0.2883  0.3174
 1988TIP3    H127523   2.795   2.746   8.806  0.6185 -0.5400 -1.5043
 1988TIP3    H227524   2.764   2.677   8.937  1.4446  2.0541  0.1330
 1989TIP3   OH227525   4.325   4.280   0.369 -0.8140 -0.2167  0.3574
 1989TIP3    H127526   4.320   4.376   0.373 -0.2008 -0.0852 -1.3818
 1989TIP3    H227527   4.410   4.259   0.410  0.5215  0.2674 -1.9826
 1990TIP3   OH227528   4.987   1.092   7.214  0.1235  0.2094 -0.0052
 1990TIP3    H127529   4.895   1.065   7.224 -0.2411  1.5637  0.4491
 1990TIP3    H227530   5.026   1.022   7.162 -1.4771  0.2199 -1.3083
 1991TIP3   OH227531   4.003   1.078   3.091 -0.7113  0.4650 -0.2114
 1991TIP3    H127532   3.927   1.136   3.091 -0.6414  0.5645 -0.7485
 1991TIP3    H227533   4.078   1.138   3.099 -0.7123  0.3222  0.9796
 1992TIP3   OH227534   0.886   3.020   8.286  0.3553 -0.4785 -0.8991
 1992TIP3    H127535   0.944   2.981   8.352 -0.0148  0.5662  0.0669
 1992TIP3    H227536   0.818   2.954   8.273 -0.6173  0.0260  1.1938
 1993TIP3   OH227537   1.852   4.792   3.044  0.0655 -0.3291  0.0172
 1993TIP3    H127538   1.934   4.805   3.090 -1.0208  1.8244  1.5596
 1993TIP3    H227539   1.865   4.833   2.958  0.4590  0.4325  0.4372
 1994TIP3   OH227540   3.716   2.876   2.484 -0.6287 -0.7176  0.0777
 1994TIP3    H127541   3.752   2.798   2.442 -0.3117 -0.2395 -0.5560
 1994TIP3    H227542   3.668   2.921   2.415 -1.1518 -0.5559  0.5393
 1995TIP3   OH227543   0.480   6.216   2.278  0.4857 -0.1100 -0.2244
 1995TIP3    H127544   0.576   6.212   2.273  0.4856 -0.2985 -0.0648
 1995TIP3    H227545   0.460   6.309   2.268  0.7015 -0.0297  0.0780
 1996TIP3   OH227546   1.241   0.517   1.341  0.0990  0.3745  0.2507
 1996TIP3    H127547   1.239   0.500   1.247  2.7332  0.8159  0.0618
 1996TIP3    H227548   1.165   0.574   1.357 -0.0819  0.7334 -1.6843
 1997TIP3   OH227549   6.179   2.298   2.048  0.0183 -0.1490 -0.1110
 1997TIP3    H127550   6.153   2.374   1.995 -0.9567 -0.0452  0.5034
 1997TIP3    H227551   6.258   2.265   2.004  0.1809  0.9209 -0.6691
 1998TIP3   OH227552   3.082   4.390   0.475  0.1938  0.1555  0.0584
 1998TIP3    H127553   2.987   4.385   0.481  0.1399  0.6025 -0.3822
 1998TIP3    H227554   3.111   4.394   0.567 -0.0191 -2.7449  0.3252
 1999TIP3   OH227555   5.107   3.703   0.109 -0.0769 -0.1391 -0.4154
 1999TIP3    H127556   5.061   3.626   0.074  0.4815 -1.1785  1.0584
 1999TIP3    H227557   5.075   3.776   0.055 -0.8685 -1.3346 -1.6406
 2000TIP3   OH227558   3.029   6.283   1.364 -0.4473  0.6947 -0.7673
 2000TIP3    H127559   3.066   6.319   1.444 -1.4226  1.2547 -0.5554
 2000TIP3    H227560   3.103   6.238   1.322 -0.0123  0.0601  0.6114
 2001TIP3   OH227561   6.081   0.545   8.554  0.1522  0.1622 -0.4974
 2001TIP3    H127562   6.004   0.519   8.503 -0.6081 -1.5125  1.3939
 2001TIP3    H227563   6.046   0.571   8.639  1.6453 -0.5406  0.3751
 2002TIP3   OH227564   5.212   4.739   1.383  1.2197 -0.0268 -0.0011
 2002TIP3    H127565   5.121   4.752   1.408  1.1176 -0.0496 -0.3675
 2002TIP3    H227566   5.231   4.648   1.404  0.3522 -0.8317 -2.4715
 2003TIP3   OH227567   0.879   6.028   8.220 -0.0218 -0.3894 -0.3661
 2003TIP3    H127568   0.877   6.033   8.125 -0.8450 -1.0385 -0.3920
 2003TIP3    H227569   0.790   6.004   8.245 -0.0199  0.5880  0.6243
 2004TIP3   OH227570   6.028   6.696   8.261  0.1467 -0.3353 -0.3412
 2004TIP3    H127571   6.114   6.659   8.281  0.1260 -0.9863 -1.3606
 2004TIP3    H227572   5.969   6.621   8.260 -0.6010  0.1958  1.0656
 2005TIP3   OH227573   4.691   0.892   2.019 -0.6419 -0.0304  0.6666
 2005TIP3    H127574   4.701   0.893   1.924  0.2456  2.0639  0.7447
 2005TIP3    H227575   4.751   0.823   2.049 -1.0475 -0.8153 -0.2699
 2006TIP3   OH227576   1.319   4.690   8.510 -0.2309  0.1803  0.2087
 2006TIP3    H127577   1.358   4.644   8.435 -0.6395 -1.7488  1.1079
 2006TIP3    H227578   1.393   4.735   8.551  0.6074 -1.2344  0.3473
 2007TIP3   OH227579   1.315   0.348   0.128  0.3177  0.2083 -0.1249
 2007TIP3    H127580   1.236   0.402   0.123 -0.3133 -0.5897  0.8174
 2007TIP3    H227581   1.359   0.363   0.044 -1.0793  0.3295 -0.8832
 2008TIP3   OH227582   5.296   4.006   1.605 -0.1092  0.0165  0.2460
 2008TIP3    H127583   5.360   3.936   1.613  1.1773  1.0968 -0.2379
 2008TIP3    H227584   5.256   4.012   1.692 -1.4083 -2.3353 -0.1137
 2009TIP3   OH227585   0.836   5.360   7.580  0.5901 -0.1714 -1.0179
 2009TIP3    H127586   0.799   5.306   7.511  0.6580  1.0113 -2.0075
 2009TIP3    H227587   0.902   5.413   7.537 -0.6570  1.9556 -0.4710
 2010TIP3   OH227588   3.686   5.893   0.229  0.4898  0.1024 -0.2599
 2010TIP3    H127589   3.623   5.951   0.273 -0.1642 -1.3608  0.8415
 2010TIP3    H227590   3.669   5.905   0.136 -1.6687 -0.4351 -0.0028
 2011TIP3   OH227591   4.460   4.486   2.191 -0.0283  0.1322  0.3287
 2011TIP3    H127592   4.536   4.430   2.181 -0.3965 -0.0716 -1.7204
 2011TIP3    H227593   4.487   4.570   2.155 -0.3165  0.4959  0.9476
 2012TIP3   OH227594   3.327   6.343   1.292 -0.4378 -0.2995  0.4597
 2012TIP3    H127595   3.363   6.428   1.318 -1.6174  0.7025 -0.9969
 2012TIP3    H227596   3.337   6.287   1.369 -1.9854  1.8966  2.3721
 2013TIP3   OH227597   3.026   5.990   1.165  0.3921 -0.7654  0.1216
 2013TIP3    H127598   3.020   5.949   1.251  1.3434  1.8388  1.5608
 2013TIP3    H227599   2.960   6.059   1.167  3.3091  2.3038  0.7098
 2014TIP3   OH227600   2.559   4.776   8.937 -0.3833  0.3299 -0.0836
 2014TIP3    H127601   2.562   4.726   8.856  2.8366  2.1101 -1.2398
 2014TIP3    H227602   2.533   4.864   8.911 -0.9962  0.5197  1.1069
 2015TIP3   OH227603   1.448   4.662   2.079  0.3137  0.2056 -0.3439
 2015TIP3    H127604   1.441   4.749   2.119  0.5115 -0.3943  1.0500
 2015TIP3    H227605   1.507   4.614   2.137 -2.4693 -1.9625  0.8985
 2016TIP3   OH227606   1.239   4.743   8.990  0.2277  0.0328  0.0017
 2016TIP3    H127607   1.212   4.652   8.981  0.0123  0.2299 -1.8916
 2016TIP3    H227608   1.172   4.784   9.043 -1.0455 -0.3844 -1.2284
 2017TIP3   OH227609   2.418   1.605   1.397  0.1605  0.1788 -0.0901
 2017TIP3    H127610   2.366   1.610   1.478 -0.7738  0.0894 -0.6690
 2017TIP3    H227611   2.465   1.522   1.404  0.3335  0.3212  0.5024
 2018TIP3   OH227612   3.289   1.038   2.556  0.3734 -0.3229 -0.1776
 2018TIP3    H127613   3.319   1.050   2.466 -1.3061  1.4212 -0.5764
 2018TIP3    H227614   3.246   1.121   2.579  1.8985 -0.1862  2.7253
 2019TIP3   OH227615   0.873   2.064   1.224 -0.4239  0.6239 -0.2736
 2019TIP3    H127616   0.851   2.088   1.134  0.9800  2.3981 -0.2003
 2019TIP3    H227617   0.789   2.042   1.265 -1.1341  0.2787 -1.8524
 2020TIP3   OH227618   6.092   5.432   0.583  0.7137  0.0722 -0.5761
 2020TIP3    H127619   6.116   5.352   0.536 -1.9732  0.1757 -2.3674
 2020TIP3    H227620   6.047   5.401   0.662 -0.9371 -0.2648 -1.6073
 2021TIP3   OH227621   3.130   2.749   8.705 -0.4489 -0.1034  0.0755
 2021TIP3    H127622   3.173   2.757   8.620  0.6226 -0.4085  0.5815
 2021TIP3    H227623   3.144   2.658   8.732  1.5675  0.6058  1.7642
 2022TIP3   OH227624   5.257   4.930   0.893  0.3633 -0.0809  0.2393
 2022TIP3    H127625   5.330   4.982   0.861  0.6801 -1.0140 -0.6277
 2022TIP3    H227626   5.275   4.841   0.860 -0.4666 -0.6042  1.1436
 2023TIP3   OH227627   5.706   0.426   2.857  0.0182  0.2656 -0.8994
 2023TIP3    H127628   5.791   0.446   2.819  0.1619 -0.3218 -0.8979
 2023TIP3    H227629   5.716   0.445   2.950  0.0213  0.5918 -0.9668
 2024TIP3   OH227630   5.710   3.200   2.446  0.4796 -0.2908 -0.3480
 2024TIP3    H127631   5.743   3.155   2.523  1.3341 -0.6541 -0.9053
 2024TIP3    H227632   5.743   3.290   2.455  3.1182 -1.0133 -1.6722
 2025TIP3   OH227633   4.394   3.117   1.944  0.1599 -0.4724  0.0734
 2025TIP3    H127634   4.375   3.206   1.975  1.0026 -1.2375  3.1465
 2025TIP3    H227635   4.310   3.084   1.912 -0.5401  0.8545  0.4717
 2026TIP3   OH227636   0.860   3.623   2.717 -0.2900 -0.1727  0.1942
 2026TIP3    H127637   0.910   3.692   2.760 -0.6926  1.1270 -1.3456
 2026TIP3    H227638   0.926   3.562   2.685  0.1111 -0.1518  0.9706
 2027TIP3   OH227639   0.134   2.216   2.506  0.5760 -0.1587 -0.5191
 2027TIP3    H127640   0.119   2.121   2.505  0.4995 -0.1506 -0.2289
 2027TIP3    H227641   0.049   2.253   2.529  0.8776 -0.0802  0.5100
 2028TIP3   OH227642   3.520   3.675   0.466  0.3616 -0.1998 -0.3603
 2028TIP3    H127643   3.461   3.600   0.472  0.4089 -0.1412  1.2522
 2028TIP3    H227644   3.595   3.652   0.521  0.1848  1.1623  0.5141
 2029TIP3   OH227645   4.547   3.420   0.882 -0.0249 -0.3200 -0.1654
 2029TIP3    H127646   4.473   3.446   0.826 -0.9497  0.1475  1.2241
 2029TIP3    H227647   4.605   3.496   0.881 -0.1602 -0.2157 -0.2895
 2030TIP3   OH227648   1.706   6.689   8.292 -0.2598 -0.5339 -0.0235
 2030TIP3    H127649   1.664   6.613   8.252  1.0584 -1.3782  0.1336
 2030TIP3    H227650   1.780   6.652   8.341 -1.0451  0.5743  2.1326
 2031TIP3   OH227651   1.199   5.636   7.329 -0.5043 -0.3170  0.1575
 2031TIP3    H127652   1.188   5.716   7.379 -2.0664 -0.8207  0.6518
 2031TIP3    H227653   1.284   5.647   7.286  0.2229  0.7351  1.7651
 2032TIP3   OH227654   3.830   0.354   8.242  0.7562  0.6417  0.0085
 2032TIP3    H127655   3.863   0.401   8.165 -3.2904  2.7375 -0.7187
 2032TIP3    H227656   3.814   0.265   8.210  1.5356  0.7667 -0.7884
 2033TIP3   OH227657   3.965   5.622   1.260  0.4129  0.6118 -0.2908
 2033TIP3    H127658   3.886   5.674   1.243  0.1338  0.5366  0.6675
 2033TIP3    H227659   3.962   5.607   1.355 -0.0166 -1.9722 -0.6478
 2034TIP3   OH227660   3.038   3.949   7.585  0.1745 -0.2993 -0.2390
 2034TIP3    H127661   2.962   3.988   7.629  0.0680 -1.0807  0.2785
 2034TIP3    H227662   3.002   3.880   7.530  0.2841  0.7952 -1.7498
 2035TIP3   OH227663   1.622   4.915   3.259  0.1536 -0.2657 -0.1128
 2035TIP3    H127664   1.643   5.007   3.245 -1.6394  0.1481 -0.4037
 2035TIP3    H227665   1.550   4.916   3.322 -0.6841 -1.3853 -1.0025
 2036TIP3   OH227666   2.350   5.550   8.055 -0.2433 -0.2384 -0.1125
 2036TIP3    H127667   2.310   5.584   7.975  0.8088 -1.5158 -1.2114
 2036TIP3    H227668   2.312   5.463   8.065  0.4147 -0.4973  0.1836
 2037TIP3   OH227669   1.180   5.480   1.045 -0.6169  0.0948 -0.3285
 2037TIP3    H127670   1.122   5.448   0.976 -0.1874  0.5687 -0.9265
 2037TIP3    H227671   1.242   5.537   0.999 -0.2697  0.3499  0.4415
 2038TIP3   OH227672   4.614   2.055   3.254 -0.3416  0.0428 -0.0217
 2038TIP3    H127673   4.547   2.035   3.320 -1.4989 -0.2371 -1.2291
 2038TIP3    H227674   4.690   2.003   3.280  0.1805  1.9081  2.5279
 2039TIP3   OH227675   5.273   4.576   0.213 -0.6408 -0.4391  0.0684
 2039TIP3    H127676   5.266   4.486   0.180 -0.6430 -0.8436  1.1380
 2039TIP3    H227677   5.183   4.602   0.231 -0.6854 -0.0363 -0.6877
 2040TIP3   OH227678   5.564   5.847   0.539  0.0452  0.2624 -0.0005
 2040TIP3    H127679   5.476   5.884   0.541 -0.3615 -0.6525 -0.7578
 2040TIP3    H227680   5.599   5.866   0.627 -0.3792  1.8393 -0.1320
 2041TIP3   OH227681   3.395   3.473   3.147 -0.0806  0.0694  0.6039
 2041TIP3    H127682   3.449   3.548   3.172 -1.6789  1.2391  0.7266
 2041TIP3    H227683   3.458   3.405   3.124  1.4378  0.9561  1.9010
 2042TIP3   OH227684   2.937   5.584   1.878 -0.1274  0.2126  0.1960
 2042TIP3    H127685   2.956   5.533   1.799 -2.0559 -0.1062 -0.0937
 2042TIP3    H227686   2.899   5.521   1.939 -1.7472  1.1021  0.1472
 2043TIP3   OH227687   4.142   5.586   8.329  0.2499  0.2049  0.2874
 2043TIP3    H127688   4.104   5.667   8.295 -1.6456 -1.4163 -1.8009
 2043TIP3    H227689   4.220   5.572   8.276 -1.1547 -0.8564 -1.6392
 2044TIP3   OH227690   5.134   0.971   2.010  0.0754  0.4742 -0.0098
 2044TIP3    H127691   5.146   0.890   2.059 -0.2210  0.7187  0.4722
 2044TIP3    H227692   5.211   0.976   1.953  0.8704  0.6352  1.0595
 2045TIP3   OH227693   0.800   1.187   1.285  0.3195  0.1179  0.2200
 2045TIP3    H127694   0.730   1.229   1.234 -0.1627  0.3279  1.0387
 2045TIP3    H227695   0.838   1.259   1.336  1.0460 -0.0234 -0.0993
 2046TIP3   OH227696   0.435   0.949   8.020  0.2662 -0.2059  0.3228
 2046TIP3    H127697   0.390   1.015   7.967  1.8186  2.1593  1.7539
 2046TIP3    H227698   0.504   0.915   7.962 -1.1872 -1.3993 -0.7651
 2047TIP3   OH227699   1.130   2.159   8.815  0.2979 -0.2551 -0.3954
 2047TIP3    H127700   1.050   2.195   8.855  0.8817 -0.8517  1.4127
 2047TIP3    H227701   1.099   2.088   8.759 -0.4310 -0.8421  0.7167
 2048TIP3   OH227702   2.758   4.228   0.042  0.3004  0.3815 -0.1292
 2048TIP3    H127703   2.766   4.306  -0.013 -1.6150  1.8158  1.4581
 2048TIP3    H227704   2.831   4.233   0.103  0.4098  0.7064 -0.2880
 2049TIP3   OH227705   0.910   0.027   3.170 -0.7814  0.0179  0.1211
 2049TIP3    H127706   0.952  -0.018   3.244 -0.4622 -0.8981 -0.6005
 2049TIP3    H227707   0.856   0.095   3.211  0.1608  0.1728  1.1384
 2050TIP3   OH227708   6.381   4.360   1.478 -0.0362  0.2589  0.5986
 2050TIP3    H127709   6.348   4.270   1.488  0.4043  0.2297  2.0331
 2050TIP3    H227710   6.403   4.367   1.386  0.4922 -1.3180  0.5732
 2051TIP3   OH227711   4.316   4.888   0.942  0.2730  0.9352 -0.2467
 2051TIP3    H127712   4.386   4.838   0.984  0.9827  2.1217  0.0176
 2051TIP3    H227713   4.254   4.905   1.012 -1.6690 -2.3061 -0.9670
 2052TIP3   OH227714   6.551   4.646   7.346  0.5687 -0.0695 -0.5905
 2052TIP3    H127715   6.471   4.686   7.310  0.8853  0.7651 -0.3905
 2052TIP3    H227716   6.521   4.563   7.383 -0.2471  0.3212 -0.3382
 2053TIP3   OH227717   0.381   2.883   1.195 -0.2236  0.2518  0.7112
 2053TIP3    H127718   0.454   2.861   1.253  0.2801 -0.1141 -0.0550
 2053TIP3    H227719   0.386   2.978   1.184 -0.0573  0.2669  0.9128
 2054TIP3   OH227720   6.105   1.647   0.884 -0.4457  0.3337 -0.1029
 2054TIP3    H127721   6.023   1.598   0.884 -0.8709  1.0166  1.0248
 2054TIP3    H227722   6.170   1.584   0.914 -0.4468 -0.3510 -1.4719
 2055TIP3   OH227723   6.452   3.003   2.571 -0.7231  0.2977  0.1341
 2055TIP3    H127724   6.418   2.930   2.519 -0.4253  0.1230  0.1836
 2055TIP3    H227725   6.374   3.041   2.613 -0.9730  0.4593 -0.4587
 2056TIP3   OH227726   0.641   0.019   8.848 -0.0009 -0.4649  0.2935
 2056TIP3    H127727   0.594  -0.036   8.911 -0.0577  0.6761  1.2759
 2056TIP3    H227728   0.648   0.104   8.891  1.2945 -0.0771 -0.6322
 2057TIP3   OH227729   2.022   4.354   3.534 -0.3134  0.2886 -0.5256
 2057TIP3    H127730   2.010   4.432   3.588 -1.3281 -0.5706  0.5472
 2057TIP3    H227731   1.937   4.311   3.535  0.1945 -0.7743 -1.2072
 2058TIP3   OH227732   4.798   6.176   2.362 -0.3458 -0.0552 -0.4060
 2058TIP3    H127733   4.815   6.241   2.294  0.3980  0.5962  0.3787
 2058TIP3    H227734   4.703   6.178   2.374 -0.4328  0.1787 -1.0641
 2059TIP3   OH227735   5.198   3.732   1.880  0.1623  0.3704  0.1985
 2059TIP3    H127736   5.222   3.642   1.901 -0.2054  0.5724  1.5402
 2059TIP3    H227737   5.281   3.776   1.860  0.3655 -0.1847 -0.2034
 2060TIP3   OH227738   3.146   5.514   2.650 -0.4433  0.1297 -0.0369
 2060TIP3    H127739   3.142   5.569   2.571 -2.7003  0.5654  0.3230
 2060TIP3    H227740   3.090   5.440   2.630 -0.4438 -0.1262  0.8934
 2061TIP3   OH227741   4.725   6.026   0.422  0.0436  0.2476  0.3188
 2061TIP3    H127742   4.806   5.983   0.448  1.3225  2.2887 -0.1273
 2061TIP3    H227743   4.728   6.028   0.327 -1.2039 -0.8011  0.2192
 2062TIP3   OH227744   4.755   2.734   1.094 -0.2002  0.1767 -0.0182
 2062TIP3    H127745   4.690   2.802   1.115  0.0135  0.2612  0.3749
 2062TIP3    H227746   4.727   2.658   1.145 -0.8239 -0.2569 -0.9642
 2063TIP3   OH227747   2.747   5.056   2.797 -0.3069 -0.0451  0.2657
 2063TIP3    H127748   2.838   5.085   2.791  0.1076 -1.1243  1.1403
 2063TIP3    H227749   2.704   5.124   2.849 -0.4545  1.4072 -1.6231
 2064TIP3   OH227750   2.163   2.538   1.097 -0.0556 -0.5468  0.7608
 2064TIP3    H127751   2.164   2.501   1.009  0.0436 -1.4876  1.1488
 2064TIP3    H227752   2.144   2.464   1.154  0.5801 -0.0834  1.5990
 2065TIP3   OH227753   4.948   2.869   1.309  0.3256 -0.3634 -0.0642
 2065TIP3    H127754   4.873   2.919   1.343  0.0982 -0.5691 -0.2616
 2065TIP3    H227755   4.908   2.796   1.262  0.6428 -1.6943  1.6014
 2066TIP3   OH227756   0.443   6.639   8.678  0.4985 -0.3692  0.3500
 2066TIP3    H127757   0.445   6.712   8.739  2.8042 -2.8291  3.5629
 2066TIP3    H227758   0.427   6.562   8.733 -1.9712 -2.4043 -2.8381
 2067TIP3   OH227759   6.616   4.955   1.618 -0.1661  0.2439  0.1173
 2067TIP3    H127760   6.677   4.938   1.547  0.0743  1.4829  0.0043
 2067TIP3    H227761   6.605   4.870   1.661  0.4324 -0.3175 -0.7962
 2068TIP3   OH227762   0.009   4.419   8.293  0.4940 -0.0680  0.6529
 2068TIP3    H127763  -0.074   4.451   8.330  0.0864  2.8328 -2.2740
 2068TIP3    H227764   0.058   4.388   8.369 -1.1354  3.2098  3.3684
 2069TIP3   OH227765   5.423   0.605   1.721  0.3850 -0.0012 -0.3114
 2069TIP3    H127766   5.424   0.529   1.778 -1.7761 -0.0521 -0.2878
 2069TIP3    H227767   5.509   0.646   1.735  1.7347 -2.5286 -0.5396
 2070TIP3   OH227768   6.616   0.746   0.317  0.1977 -0.1477 -0.2283
 2070TIP3    H127769   6.703   0.748   0.277  0.8891 -1.5213  1.1043
 2070TIP3    H227770   6.595   0.652   0.322 -1.0074  0.1332  0.1926
 2071TIP3   OH227771   5.334   4.811   7.745 -0.2823 -0.0530 -0.0786
 2071TIP3    H127772   5.340   4.863   7.665 -0.8953 -0.4780 -0.4027
 2071TIP3    H227773   5.274   4.860   7.801  1.3045  1.0397  0.7526
 2072TIP3   OH227774   4.403   0.451   0.582 -0.6755  0.3827  0.1441
 2072TIP3    H127775   4.378   0.379   0.524  1.7537 -1.0327  0.6823
 2072TIP3    H227776   4.423   0.524   0.523 -2.0340  0.2645 -0.4910
 2073TIP3   OH227777   3.135   6.252   2.193  0.0067  0.0489  0.2074
 2073TIP3    H127778   3.064   6.205   2.237 -0.1920  0.6840  0.5867
 2073TIP3    H227779   3.158   6.322   2.254  1.7131 -0.7960  0.6005
 2074TIP3   OH227780   2.605   1.074   0.462  0.0791 -0.6267 -0.5245
 2074TIP3    H127781   2.589   1.163   0.492 -0.0714  0.2076 -2.8593
 2074TIP3    H227782   2.531   1.023   0.497 -0.1530  0.2780  0.3402
 2075TIP3   OH227783   4.768   4.632   0.343 -0.0969 -0.1056  0.4003
 2075TIP3    H127784   4.764   4.536   0.346 -2.3300 -0.0792  0.2594
 2075TIP3    H227785   4.725   4.655   0.261 -0.2058  1.0281  0.7549
 2076TIP3   OH227786   6.345   4.636   8.920 -0.2802  0.1155 -0.3746
 2076TIP3    H127787   6.249   4.628   8.919 -0.4774  1.9382  0.1351
 2076TIP3    H227788   6.375   4.561   8.971 -1.5336  0.1491  0.4589
 2077TIP3   OH227789   5.883   5.182   8.800 -0.2477 -0.0346  0.2335
 2077TIP3    H127790   5.972   5.206   8.828 -0.3763 -0.9168  1.5105
 2077TIP3    H227791   5.895   5.106   8.743 -0.0773  0.9720 -1.1213
 2078TIP3   OH227792   5.165   0.110   0.538  0.0515 -0.6150 -0.2116
 2078TIP3    H127793   5.235   0.163   0.501  0.1420 -0.4053  0.2489
 2078TIP3    H227794   5.087   0.134   0.488 -0.1722  0.9016  0.7954
 2079TIP3   OH227795   3.391   4.036   2.233  0.0644  0.4205  0.0383
 2079TIP3    H127796   3.329   3.980   2.187 -0.1067 -1.1706  2.0593
 2079TIP3    H227797   3.476   3.996   2.218  0.6295  2.3147 -2.3114
 2080TIP3   OH227798   6.365   4.575   1.918 -0.0327 -0.4066  0.2807
 2080TIP3    H127799   6.453   4.538   1.926  0.3770 -0.1534 -2.1434
 2080TIP3    H227800   6.371   4.661   1.958  1.5788  0.6025 -1.9170
 2081TIP3   OH227801   1.685   1.521   8.428  0.7992  0.4060 -0.0059
 2081TIP3    H127802   1.637   1.479   8.499  0.4295  1.6530  0.5090
 2081TIP3    H227803   1.777   1.517   8.455  0.5653  1.8700  1.1213
 2082TIP3   OH227804   3.896   6.175   8.143  0.1470 -0.0447 -0.5945
 2082TIP3    H127805   3.941   6.237   8.201 -0.4054  0.9208 -1.1781
 2082TIP3    H227806   3.962   6.150   8.079  0.3932 -0.1264 -0.3155
 2083TIP3   OH227807   5.657   0.253   2.670 -0.2374 -0.6077  0.1775
 2083TIP3    H127808   5.743   0.256   2.627 -0.3301 -0.3109  0.0177
 2083TIP3    H227809   5.674   0.286   2.759 -0.2158 -0.4098  0.0997
 2084TIP3   OH227810   4.155   4.924   0.297 -0.4747  0.0077 -1.1679
 2084TIP3    H127811   4.189   4.839   0.269 -1.8493 -1.0038  0.0595
 2084TIP3    H227812   4.224   4.961   0.351  0.2077 -0.2446 -1.8459
 2085TIP3   OH227813   4.775   3.713   0.821 -0.0189 -0.8043  0.2088
 2085TIP3    H127814   4.764   3.723   0.916  0.7931  1.1346  0.1560
 2085TIP3    H227815   4.866   3.686   0.810 -0.5688 -2.6953  0.0223
 2086TIP3   OH227816   2.646   5.552   0.062 -0.2388 -0.6715  0.2640
 2086TIP3    H127817   2.669   5.530   0.152 -0.1429 -0.0228  0.4046
 2086TIP3    H227818   2.724   5.592   0.026 -0.6663  0.2006  0.2848
 2087TIP3   OH227819   1.122   6.298   2.701 -0.2390 -0.1836  0.2834
 2087TIP3    H127820   1.193   6.339   2.750 -0.2759 -1.5345  1.5252
 2087TIP3    H227821   1.058   6.368   2.687 -0.2039  0.2585  2.1446
 2088TIP3   OH227822   3.770   5.987   0.916  0.0038 -0.8036 -0.3531
 2088TIP3    H127823   3.744   5.978   1.008 -0.3012 -1.1254 -0.4676
 2088TIP3    H227824   3.803   5.901   0.892  2.8587  0.0273  0.2810
 2089TIP3   OH227825   3.361   3.502   8.768  0.2107 -0.5321 -0.3472
 2089TIP3    H127826   3.446   3.520   8.810  0.1423  2.3449 -1.2543
 2089TIP3    H227827   3.298   3.505   8.839  0.4235  1.6425 -0.1692
 2090TIP3   OH227828   0.507   2.338   1.121 -0.0823 -0.1074  0.4579
 2090TIP3    H127829   0.595   2.371   1.105  0.0648 -0.5909  0.2642
 2090TIP3    H227830   0.450   2.410   1.095  0.2639  0.3993  1.0708
 2091TIP3   OH227831   3.903   0.242   1.644 -0.3505  0.6527  0.3897
 2091TIP3    H127832   3.838   0.183   1.682  0.2910  0.2447  0.8701
 2091TIP3    H227833   3.986   0.195   1.652 -0.1712  0.5352 -1.5241
 2092TIP3   OH227834   0.165   4.457   1.435  0.5282  0.4859  0.2577
 2092TIP3    H127835   0.104   4.510   1.384  0.9315 -0.1892 -0.9828
 2092TIP3    H227836   0.206   4.519   1.496  1.9615  1.9496 -2.0290
 2093TIP3   OH227837   2.330   0.992   0.961  0.3137 -0.3197  0.1699
 2093TIP3    H127838   2.309   1.059   0.896  1.6325  0.6835  0.7502
 2093TIP3    H227839   2.376   0.924   0.911 -0.4228 -0.4997 -0.2869
 2094TIP3   OH227840   4.510   1.814   8.059  0.7545 -0.5552  0.6490
 2094TIP3    H127841   4.475   1.750   8.120 -0.5202 -0.6588 -0.1737
 2094TIP3    H227842   4.471   1.792   7.975 -0.6818  1.9690  0.5403
 2095TIP3   OH227843   0.785   5.943   0.952 -0.2832 -0.2606 -0.0457
 2095TIP3    H127844   0.832   6.003   1.009 -2.3575  1.4356  0.0167
 2095TIP3    H227845   0.851   5.910   0.891  1.7579 -1.2471  2.5313
 2096TIP3   OH227846   0.765   3.920   3.346  0.1351  0.1694  0.2752
 2096TIP3    H127847   0.834   3.917   3.280  0.8291  0.7407  0.9487
 2096TIP3    H227848   0.747   3.829   3.367 -0.0123 -0.0156 -0.6070
 2097TIP3   OH227849   5.047   1.312   1.378  0.3810  0.0603 -0.8198
 2097TIP3    H127850   5.003   1.283   1.298  1.5573  0.7498 -1.7604
 2097TIP3    H227851   4.978   1.354   1.430 -0.8099 -2.0988 -0.5564
 2098TIP3   OH227852   6.105   6.059   1.366  0.0422  0.3155 -0.2550
 2098TIP3    H127853   6.018   6.099   1.370  1.0589  2.6063  0.1484
 2098TIP3    H227854   6.149   6.087   1.446  1.2236 -0.6838 -0.5236
 2099TIP3   OH227855   0.657   0.874   8.909 -0.0494 -0.5978  0.2742
 2099TIP3    H127856   0.587   0.836   8.855 -0.7403  0.4493  0.4027
 2099TIP3    H227857   0.715   0.800   8.928 -2.3618 -2.0841  2.1558
 2100TIP3   OH227858   6.050   1.612   2.323  0.0374  0.3324 -0.1446
 2100TIP3    H127859   6.091   1.674   2.263 -0.8476 -1.1807 -2.4180
 2100TIP3    H227860   5.956   1.619   2.306 -0.5309  1.4994  2.7671
 2101TIP3   OH227861   1.324   5.009   8.351 -0.0718 -0.5187  0.4342
 2101TIP3    H127862   1.338   5.084   8.293 -2.1448  0.7667  1.4568
 2101TIP3    H227863   1.329   4.933   8.293 -1.1905  0.6479 -1.3257
 2102TIP3   OH227864   1.916   6.508   7.934 -0.0339  0.2484 -0.1804
 2102TIP3    H127865   1.917   6.450   7.858  0.2916 -1.4506  1.0634
 2102TIP3    H227866   1.851   6.574   7.913 -0.1386 -0.3265 -1.8206
 2103TIP3   OH227867   0.151   6.658   8.222  0.4089 -0.1286  0.4556
 2103TIP3    H127868   0.195   6.678   8.140  0.6971  0.5920  0.7712
 2103TIP3    H227869   0.058   6.672   8.205  0.4417 -0.2677  0.1728
 2104TIP3   OH227870   6.390   0.279   2.470 -0.2728 -0.1036  0.0442
 2104TIP3    H127871   6.327   0.219   2.430 -1.0223  0.2508  0.6641
 2104TIP3    H227872   6.455   0.221   2.510  0.8812 -0.4648 -2.1994
 2105TIP3   OH227873   3.111   3.416   7.988 -0.2969 -0.1605  0.1786
 2105TIP3    H127874   3.176   3.486   7.993 -0.2210 -0.1711 -0.5196
 2105TIP3    H227875   3.032   3.459   7.953 -0.1553 -0.4784 -0.5547
 2106TIP3   OH227876   3.549   0.189   8.611 -0.1193  0.1959  0.1124
 2106TIP3    H127877   3.544   0.131   8.536  2.2600 -0.7139  0.5516
 2106TIP3    H227878   3.481   0.255   8.596 -0.3443 -0.5111 -2.3263
 2107TIP3   OH227879   6.291   6.480   1.437  0.1687 -0.1284  0.7863
 2107TIP3    H127880   6.258   6.562   1.401 -1.3014 -1.2725 -0.6406
 2107TIP3    H227881   6.385   6.495   1.448 -0.0160  1.6294  0.2718
 2108TIP3   OH227882   1.670   2.619   2.070  0.1713  0.0448 -0.3458
 2108TIP3    H127883   1.612   2.551   2.104  1.4022 -0.5915  0.5796
 2108TIP3    H227884   1.660   2.692   2.132 -0.5463  0.4236 -0.8884
 2109TIP3   OH227885   3.319   4.348   2.655 -0.1262 -0.0227 -0.6181
 2109TIP3    H127886   3.315   4.430   2.605  1.1303  0.6947  0.3772
 2109TIP3    H227887   3.397   4.304   2.622  1.2577  0.8855  1.2179
 2110TIP3   OH227888   6.222   2.089   0.686 -0.5964 -0.3075  0.1004
 2110TIP3    H127889   6.252   2.161   0.741  1.1307 -0.0436 -1.0892
 2110TIP3    H227890   6.206   2.017   0.746 -0.2949  0.4356  1.0893
 2111TIP3   OH227891   3.217   3.698   1.680  0.5606 -0.0049 -0.5671
 2111TIP3    H127892   3.295   3.643   1.686  0.5554  0.0808  0.3927
 2111TIP3    H227893   3.163   3.655   1.613  0.5319 -1.2288  0.1950
 2112TIP3   OH227894   2.429   1.446   1.880  0.1907 -0.1646 -0.4223
 2112TIP3    H127895   2.465   1.442   1.969 -0.0381  1.8144 -0.2009
 2112TIP3    H227896   2.473   1.375   1.833  1.3091 -0.4059  0.9264
 2113TIP3   OH227897   6.615   2.663   0.930  0.7487  0.4791  0.1839
 2113TIP3    H127898   6.657   2.708   0.857 -0.0048 -0.3802 -0.7958
 2113TIP3    H227899   6.523   2.657   0.905  0.0704  1.8727  2.0515
 2114TIP3   OH227900   0.882   0.739   0.564  0.2680 -0.1765 -0.0348
 2114TIP3    H127901   0.977   0.729   0.569  0.3594  0.0975 -0.9903
 2114TIP3    H227902   0.849   0.696   0.643  1.0850 -1.6879 -0.4738
 2115TIP3   OH227903   1.452   4.800   0.841 -0.3520  0.4064  0.5077
 2115TIP3    H127904   1.381   4.773   0.899  1.4696 -2.3265  1.6314
 2115TIP3    H227905   1.515   4.844   0.898 -0.1987  0.9806 -0.0879
 2116TIP3   OH227906   6.516   4.940   2.245 -0.1180  0.2037 -0.2069
 2116TIP3    H127907   6.591   4.927   2.187 -0.9856  0.0600 -1.3309
 2116TIP3    H227908   6.554   4.945   2.333  1.4859  2.4645 -0.9176
 2117TIP3   OH227909   1.804   4.592   2.811 -0.3557  0.5856  0.5683
 2117TIP3    H127910   1.864   4.599   2.885  1.2416  0.2320 -0.6288
 2117TIP3    H227911   1.830   4.663   2.752 -0.8351  0.1717 -0.1641
 2118TIP3   OH227912   2.873   1.323   3.427 -0.3281 -0.0538 -0.1238
 2118TIP3    H127913   2.808   1.391   3.447  0.3124  0.8077 -0.8834
 2118TIP3    H227914   2.946   1.371   3.388 -0.0173 -1.2265 -1.0286
 2119TIP3   OH227915   3.858   1.878   0.498 -0.3876  0.4459  0.9029
 2119TIP3    H127916   3.780   1.823   0.492 -0.3126  0.5138 -1.5571
 2119TIP3    H227917   3.845   1.946   0.431  0.6706  1.9582  2.1448
 2120TIP3   OH227918   6.330   2.280   7.693 -0.6340 -0.6235 -0.6744
 2120TIP3    H127919   6.308   2.373   7.698 -0.9696 -0.7505  0.4277
 2120TIP3    H227920   6.425   2.279   7.684 -0.5920 -0.1819 -0.3218
 2121TIP3   OH227921   5.464   0.404   1.076  0.5594 -0.4219  0.0168
 2121TIP3    H127922   5.511   0.405   1.159  2.9046 -1.1123 -1.2185
 2121TIP3    H227923   5.517   0.349   1.018 -1.1031 -0.1643 -1.8815
 2122TIP3   OH227924   3.797   0.375   2.576  0.1601 -0.4145  0.2448
 2122TIP3    H127925   3.808   0.333   2.661 -0.8429 -1.2240  0.0037
 2122TIP3    H227926   3.727   0.438   2.589 -0.3783 -0.9306 -0.0983
 2123TIP3   OH227927   5.888   4.901   0.016  0.1026  0.3712  0.0032
 2123TIP3    H127928   5.888   4.845  -0.061  0.8554 -0.1002  0.3264
 2123TIP3    H227929   5.975   4.941   0.017  0.3308 -0.1134  0.9348
 2124TIP3   OH227930   2.922   5.958   0.024  0.3717  0.0669  0.5608
 2124TIP3    H127931   2.836   5.918   0.011  0.6018 -0.2942  0.1163
 2124TIP3    H227932   2.974   5.928  -0.051  0.9689  0.0588  0.9744
 2125TIP3   OH227933   3.225   3.722   0.386 -0.8645 -0.0938 -0.2379
 2125TIP3    H127934   3.216   3.761   0.473  0.9221  0.5250 -0.2808
 2125TIP3    H227935   3.259   3.793   0.332  2.5845 -1.6191 -0.3136
 2126TIP3   OH227936   1.400   5.563   3.419  0.2077 -0.0037 -0.0636
 2126TIP3    H127937   1.465   5.629   3.397  1.7124 -1.4347 -0.0940
 2126TIP3    H227938   1.403   5.500   3.347 -0.6289 -0.5263  0.3366
 2127TIP3   OH227939   3.335   0.992   2.286 -0.1905  0.5876  0.7781
 2127TIP3    H127940   3.335   0.924   2.219  2.9091  0.5320  0.6779
 2127TIP3    H227941   3.309   1.071   2.240  1.1403  0.3970 -0.3734
 2128TIP3   OH227942   2.923   1.071   0.530 -0.2246 -0.9281 -0.4289
 2128TIP3    H127943   2.904   1.132   0.601 -0.7652 -0.9266 -0.5685
 2128TIP3    H227944   2.858   1.002   0.540  0.3232 -1.4306 -0.3357
 2129TIP3   OH227945   6.504   3.905   7.784 -0.0803  0.0537 -0.0903
 2129TIP3    H127946   6.483   3.813   7.770  0.4559 -0.3861  1.7275
 2129TIP3    H227947   6.599   3.908   7.785 -0.0930  0.3601  1.3294
 2130TIP3   OH227948   6.527   6.524   8.390  0.1140 -0.1682 -0.5094
 2130TIP3    H127949   6.528   6.497   8.299 -2.2199  1.2737 -1.0650
 2130TIP3    H227950   6.562   6.450   8.438  3.8733 -0.0404 -2.6924
 2131TIP3   OH227951   4.982   3.361   8.277  0.5601 -0.1605 -0.2959
 2131TIP3    H127952   4.926   3.434   8.306  1.5567  0.7827 -0.6790
 2131TIP3    H227953   4.946   3.336   8.192  1.1992  1.0213 -0.9476
 2132TIP3   OH227954   1.085   3.179   2.411  0.3986 -0.2699  0.0349
 2132TIP3    H127955   1.077   3.271   2.383  0.7562 -0.3660 -0.3875
 2132TIP3    H227956   0.994   3.148   2.415  0.3252 -0.1872 -0.8132
 2133TIP3   OH227957   0.250   2.279   8.021  0.9921 -0.0935  0.1724
 2133TIP3    H127958   0.343   2.299   8.015  1.1794 -1.1524 -0.8237
 2133TIP3    H227959   0.228   2.240   7.936  0.1583 -1.8280  1.1143
 2134TIP3   OH227960   5.526   3.356   3.481  0.1928 -0.0262 -0.9560
 2134TIP3    H127961   5.561   3.308   3.556  0.4208  0.0614 -1.0069
 2134TIP3    H227962   5.513   3.289   3.414  2.4808  0.2536 -1.7704
 2135TIP3   OH227963   1.175   4.122   1.724 -0.1049 -0.4236 -0.0900
 2135TIP3    H127964   1.257   4.160   1.756 -0.2798 -1.4560  1.7200
 2135TIP3    H227965   1.201   4.070   1.648  0.8505 -0.3491  0.1657
 2136TIP3   OH227966   2.536   0.421   1.249 -0.2076  0.4610 -0.3699
 2136TIP3    H127967   2.525   0.482   1.322 -0.6850  0.8592 -0.7680
 2136TIP3    H227968   2.617   0.374   1.270  0.0077  1.0176  0.0913
 2137TIP3   OH227969   1.584   2.253   1.800 -0.0782  0.2931  0.2211
 2137TIP3    H127970   1.666   2.231   1.755 -0.8944 -1.9737 -0.2922
 2137TIP3    H227971   1.521   2.267   1.730 -0.1927  1.9439  0.6159
 2138TIP3   OH227972   2.960   1.201   1.287 -0.8103 -0.1806  0.4139
 2138TIP3    H127973   2.951   1.260   1.213 -0.5556  1.4508  1.6409
 2138TIP3    H227974   3.054   1.182   1.292 -0.9772 -1.3633 -0.4445
 2139TIP3   OH227975   3.071   4.592   8.657  0.0973 -0.2237  0.0334
 2139TIP3    H127976   3.045   4.653   8.726  0.0324  1.6282 -1.5593
 2139TIP3    H227977   3.058   4.506   8.696 -0.6995  0.7375  2.0499
 2140TIP3   OH227978   2.897   1.782   1.671 -0.0409  0.0513  0.4257
 2140TIP3    H127979   2.875   1.870   1.640  1.9643 -0.1971 -2.0823
 2140TIP3    H227980   2.993   1.780   1.672 -0.0243 -1.7687  1.5774
 2141TIP3   OH227981   1.206   2.640   1.410  0.0741 -0.2670  0.6392
 2141TIP3    H127982   1.249   2.667   1.491  0.1118  0.2298  0.4570
 2141TIP3    H227983   1.204   2.719   1.356 -0.9840 -0.3101  0.6074
 2142TIP3   OH227984   2.578   5.233   0.095 -0.2266  0.5101  0.0300
 2142TIP3    H127985   2.665   5.243   0.133  0.2275 -0.6430 -0.6358
 2142TIP3    H227986   2.587   5.268   0.006 -0.8047  1.5701  0.3717
 2143TIP3   OH227987   0.772   0.921   8.474 -0.1823 -0.8046  0.4278
 2143TIP3    H127988   0.767   0.834   8.513 -3.3058 -1.4074 -1.0400
 2143TIP3    H227989   0.708   0.973   8.523  0.3225  0.1764  0.0796
 2144TIP3   OH227990   3.345   5.749   3.204  0.3040 -0.3845 -0.3813
 2144TIP3    H127991   3.398   5.694   3.262 -0.6800 -0.1522  0.7943
 2144TIP3    H227992   3.350   5.836   3.243 -0.0255 -0.1260 -0.9037
 2145TIP3   OH227993   5.203   2.414   8.591  0.0319  0.1168  0.0097
 2145TIP3    H127994   5.274   2.385   8.533 -0.4404 -0.8988 -0.0790
 2145TIP3    H227995   5.135   2.444   8.532 -0.1677 -0.2446  0.0545
 2146TIP3   OH227996   0.950   1.733   8.615 -0.0709 -0.5048 -0.7403
 2146TIP3    H127997   0.911   1.651   8.646 -0.6309 -0.0018 -0.0924
 2146TIP3    H227998   0.877   1.795   8.615  0.4106  0.0655 -0.9713
 2147TIP3   OH227999   3.853   1.631   1.795  0.2103 -0.0882 -0.2171
 2147TIP3    H128000   3.863   1.562   1.730  1.7254 -0.0689 -0.0489
 2147TIP3    H228001   3.925   1.616   1.857  1.1451  2.1247 -0.6678
 2148TIP3   OH228002   2.596   5.246   2.957  0.3858  0.3759  0.0247
 2148TIP3    H128003   2.664   5.305   2.988  0.6629  0.2009 -0.2523
 2148TIP3    H228004   2.516   5.279   2.998  0.7425  0.1476  0.9339
 2149TIP3   OH228005   2.445   2.762   0.485  0.1832  0.6436 -0.1640
 2149TIP3    H128006   2.537   2.783   0.500  0.0294  1.5249 -0.4081
 2149TIP3    H228007   2.438   2.748   0.391 -0.0261  1.1132 -0.2248
 2150TIP3   OH228008   2.397   1.272   0.815  0.0302  0.0561 -0.0716
 2150TIP3    H128009   2.485   1.309   0.819 -0.4515  1.1752  0.6428
 2150TIP3    H228010   2.371   1.284   0.723  1.3668 -2.1758 -0.8148
 2151TIP3   OH228011   1.387   3.686   2.549  0.2863  0.2360  0.2280
 2151TIP3    H128012   1.407   3.733   2.629  0.5959 -0.2756  0.4536
 2151TIP3    H228013   1.429   3.737   2.480 -0.9441  1.3231  0.2365
 2152TIP3   OH228014   4.050   5.733   0.577  0.5061  0.3986 -0.6638
 2152TIP3    H128015   3.988   5.776   0.636 -0.7538 -0.3471 -1.4020
 2152TIP3    H228016   4.136   5.760   0.609 -0.1490  0.3635  1.2266
 2153TIP3   OH228017   5.118   5.863   8.127  0.5976  0.7432 -0.0047
 2153TIP3    H128018   5.208   5.880   8.156  0.7134  0.0029  0.0872
 2153TIP3    H228019   5.067   5.932   8.168  1.1191  1.1536 -0.0296
 2154TIP3   OH228020   0.593   2.559   8.966 -0.0774 -0.0490 -0.1927
 2154TIP3    H128021   0.590   2.464   8.980 -1.0233  0.1318  0.9639
 2154TIP3    H228022   0.507   2.580   8.928  0.1980  0.3257 -0.6142
 2155TIP3   OH228023   0.357   4.000   7.314  0.0899  0.0275 -0.4041
 2155TIP3    H128024   0.392   3.915   7.341  2.2486  1.5641  2.1981
 2155TIP3    H228025   0.286   4.017   7.376 -0.5990  0.0028 -1.1661
 2156TIP3   OH228026   6.566   4.388   0.085 -0.3064  0.2366 -0.3298
 2156TIP3    H128027   6.603   4.300   0.082  0.7021  0.6740 -1.3758
 2156TIP3    H228028   6.623   4.440   0.028 -1.3815  1.3824 -0.3927
 2157TIP3   OH228029   6.673   2.612   2.073 -0.7000 -0.1511 -0.6320
 2157TIP3    H128030   6.651   2.690   2.124 -0.3522  0.4392 -1.3691
 2157TIP3    H228031   6.653   2.539   2.132 -0.6335  0.4999  0.2185
 2158TIP3   OH228032   4.532   6.327   0.281  0.6391  0.3534 -0.4095
 2158TIP3    H128033   4.446   6.309   0.319  0.5546  1.0986 -0.2479
 2158TIP3    H228034   4.559   6.242   0.244  0.6041 -0.3223  1.0419
 2159TIP3   OH228035   2.463   4.492   3.569 -0.5457  0.3814 -0.0984
 2159TIP3    H128036   2.409   4.570   3.562 -1.5688 -0.2429  0.5400
 2159TIP3    H228037   2.404   4.425   3.604  0.5579 -0.4195  0.2925
 2160TIP3   OH228038   4.363   2.764   8.109 -0.3491 -0.0391 -0.1148
 2160TIP3    H128039   4.352   2.845   8.159 -0.2666 -0.3668  0.4482
 2160TIP3    H228040   4.285   2.712   8.130 -0.5963  0.0548 -0.7837
 2161TIP3   OH228041   5.253   1.967   2.986  0.1790  0.4841 -0.2271
 2161TIP3    H128042   5.185   1.955   3.052  1.0433 -1.3455  0.3926
 2161TIP3    H228043   5.290   2.053   3.005 -1.5815  1.2874 -0.2523
 2162TIP3   OH228044   3.902   1.004   2.815  0.0116  0.3941  0.5948
 2162TIP3    H128045   3.953   1.001   2.734 -2.2871  0.5056 -0.9586
 2162TIP3    H228046   3.862   1.091   2.815 -1.8627 -0.4164  0.5603
 2163TIP3   OH228047   1.123   5.113   1.266 -0.3298 -0.0246 -0.1200
 2163TIP3    H128048   1.060   5.161   1.212 -1.5162 -0.5579  0.7432
 2163TIP3    H228049   1.101   5.137   1.356  0.5887 -0.3638  0.2001
 2164TIP3   OH228050   3.448   6.015   0.293  0.6949 -0.3465  0.4272
 2164TIP3    H128051   3.395   6.056   0.225  0.6837 -0.2723  0.4804
 2164TIP3    H228052   3.431   6.068   0.371 -0.3221 -1.2135  0.8126
 2165TIP3   OH228053   0.356   0.214   3.255  0.1463  0.8244  0.2798
 2165TIP3    H128054   0.402   0.202   3.171 -1.2383  0.7647 -0.5025
 2165TIP3    H228055   0.263   0.218   3.231 -0.4154 -0.7251  1.9684
 2166TIP3   OH228056   2.604   1.417   8.486  0.2414 -0.0392 -0.5435
 2166TIP3    H128057   2.545   1.423   8.411 -2.3344 -1.1251  1.2433
 2166TIP3    H228058   2.645   1.331   8.478 -1.5803 -1.0390  0.2529
 2167TIP3   OH228059   4.208   2.029   0.095 -0.4991 -0.5876 -0.2728
 2167TIP3    H128060   4.243   1.965   0.033  1.1596 -0.8698  0.8943
 2167TIP3    H228061   4.175   1.976   0.168 -1.5891 -0.2152 -0.4728
 2168TIP3   OH228062   4.244   2.204   1.704 -0.3646 -0.6074 -0.1333
 2168TIP3    H128063   4.265   2.296   1.689 -0.2990 -0.2736  1.7631
 2168TIP3    H228064   4.299   2.178   1.778 -1.2340 -1.8284  0.1261
 2169TIP3   OH228065   3.933   1.703   0.677  0.0783 -0.5037  0.0118
 2169TIP3    H128066   3.928   1.779   0.619  0.0033 -0.9675 -0.5994
 2169TIP3    H228067   3.899   1.631   0.625  1.0541 -1.1530  0.2443
 2170TIP3   OH228068   5.861   6.683   2.279  0.0082 -0.1172 -0.0464
 2170TIP3    H128069   5.831   6.618   2.215 -4.0764  1.3863  0.0373
 2170TIP3    H228070   5.816   6.660   2.360  0.2480  1.4767  0.5807
 2171TIP3   OH228071   1.165   6.138   0.534  0.4019 -0.2742 -0.3149
 2171TIP3    H128072   1.083   6.141   0.485 -0.3034 -0.8051  0.7628
 2171TIP3    H228073   1.222   6.081   0.483 -0.7409 -1.8095  0.0479
 2172TIP3   OH228074   3.916   2.790   1.344 -0.4014  0.0480 -0.2642
 2172TIP3    H128075   3.856   2.716   1.334 -1.5067  1.0692 -1.7519
 2172TIP3    H228076   4.003   2.753   1.327 -0.9679 -0.8631 -1.2911
 2173TIP3   OH228077   1.485   3.406   8.621  0.2056  0.2470  0.1015
 2173TIP3    H128078   1.523   3.391   8.535 -1.0687 -0.9305 -0.2952
 2173TIP3    H228079   1.560   3.420   8.679  1.1838 -1.0086 -0.8248
 2174TIP3   OH228080   3.199   1.292   7.987  0.0760  0.6256 -0.1065
 2174TIP3    H128081   3.130   1.226   7.978  1.3290 -0.5547 -1.7884
 2174TIP3    H228082   3.170   1.365   7.932 -1.0975  1.3504  1.3968
 2175TIP3   OH228083   4.473   4.754   7.527  0.0700 -0.4977  0.0519
 2175TIP3    H128084   4.426   4.822   7.479 -1.0270 -1.7747 -0.7540
 2175TIP3    H228085   4.404   4.702   7.569  0.8374 -1.4603  0.1563
 2176TIP3   OH228086   2.886   3.276   2.025  0.1847 -0.0367  0.2107
 2176TIP3    H128087   2.815   3.335   2.001 -0.2292 -0.3695  0.6158
 2176TIP3    H228088   2.924   3.314   2.104  0.9646  0.5590 -0.4197
 2177TIP3   OH228089   2.923   1.862   0.118  0.5457 -0.2762 -0.0565
 2177TIP3    H128090   2.904   1.917   0.043  0.2308 -2.2359 -1.4777
 2177TIP3    H228091   2.993   1.804   0.089 -0.3479 -1.8412  0.7434
 2178TIP3   OH228092   2.305   6.650   3.120 -0.1082 -0.4678  0.4666
 2178TIP3    H128093   2.357   6.584   3.167  0.8948 -0.3365 -0.4177
 2178TIP3    H228094   2.367   6.719   3.099 -0.4464 -0.6267 -1.2505
 2179TIP3   OH228095   3.677   5.951   8.155 -0.2324  0.6757  0.1787
 2179TIP3    H128096   3.627   5.963   8.075 -0.1270  1.4956  0.2236
 2179TIP3    H228097   3.763   5.921   8.125 -0.0307  1.4638 -0.0624
 2180TIP3   OH228098   2.416   1.261   0.311  0.0208 -0.4398  0.1244
 2180TIP3    H128099   2.359   1.185   0.309  0.4541 -0.7864  0.7886
 2180TIP3    H228100   2.489   1.238   0.253 -0.3817 -0.0903 -0.5366
 2181TIP3   OH228101   3.304   6.507   2.137  0.1187 -0.3465 -0.0912
 2181TIP3    H128102   3.378   6.566   2.149 -1.7442  2.0842  0.3285
 2181TIP3    H228103   3.277   6.485   2.226 -0.7221  0.2642 -0.1820
 2182TIP3   OH228104   5.279   4.218   8.218  0.8929 -0.0636  0.1819
 2182TIP3    H128105   5.370   4.205   8.193  0.4124 -2.7206 -0.4550
 2182TIP3    H228106   5.232   4.231   8.136  0.6545  1.2936  0.5021
 2183TIP3   OH228107   3.168   5.202   1.750 -0.0813 -0.1281 -0.1629
 2183TIP3    H128108   3.130   5.286   1.724 -0.5186 -0.9066 -2.2093
 2183TIP3    H228109   3.246   5.226   1.800  0.6691  1.5513 -1.9735
 2184TIP3   OH228110   3.186   0.878   8.812 -0.0127  0.5607 -0.3020
 2184TIP3    H128111   3.196   0.847   8.902  0.2527  0.4109 -0.3805
 2184TIP3    H228112   3.142   0.807   8.766 -0.0134  0.5764 -0.3257
 2185TIP3   OH228113   5.561   5.557   0.634 -0.3015  0.6119 -0.0962
 2185TIP3    H128114   5.594   5.634   0.589 -0.8070  1.4331  0.8867
 2185TIP3    H228115   5.546   5.493   0.565  0.5517  1.2251 -0.8802
 2186TIP3   OH228116   1.215   5.685   1.536  0.4624 -0.3685 -0.1382
 2186TIP3    H128117   1.160   5.742   1.589 -0.5948 -0.4237 -1.1427
 2186TIP3    H228118   1.244   5.739   1.463  2.0527 -0.2424  0.5421
 2187TIP3   OH228119   3.137   4.254   9.003 -0.7818 -0.4620  0.4454
 2187TIP3    H128120   3.140   4.316   9.076 -1.3159 -0.6824  0.6614
 2187TIP3    H228121   3.133   4.168   9.045 -2.7958 -0.5326  0.2066
 2188TIP3   OH228122   1.308   0.902   7.852 -0.2317 -0.2479 -0.0169
 2188TIP3    H128123   1.235   0.963   7.862 -1.0747 -1.0910 -0.8319
 2188TIP3    H228124   1.327   0.902   7.759  0.5484 -0.3533  0.1341
 2189TIP3   OH228125   0.940   2.033   8.411  0.3012 -0.5028 -0.5459
 2189TIP3    H128126   0.863   1.986   8.379 -0.9238  1.9486 -1.4233
 2189TIP3    H228127   1.009   2.011   8.348 -0.2540 -1.0354 -0.9837
 2190TIP3   OH228128   1.611   5.746   2.813 -0.5507  0.4996 -0.3730
 2190TIP3    H128129   1.550   5.711   2.879 -0.3818  0.6106 -0.1573
 2190TIP3    H228130   1.567   5.823   2.778 -0.1881  1.0522  0.3600
 2191TIP3   OH228131   6.689   4.951   8.021 -0.1341  0.5516  0.5425
 2191TIP3    H128132   6.648   4.912   7.943 -0.6146  2.4233 -0.1820
 2191TIP3    H228133   6.763   5.001   7.987 -0.9745  2.2645  1.1385
 2192TIP3   OH228134   4.507   1.473   2.796 -0.4589 -0.5473 -0.3170
 2192TIP3    H128135   4.560   1.393   2.799 -1.2853 -1.0850  0.6342
 2192TIP3    H228136   4.488   1.485   2.703  1.8989  0.0813 -0.7922
 2193TIP3   OH228137   1.683   5.893   0.980 -0.3146  0.7615 -0.4465
 2193TIP3    H128138   1.775   5.911   0.963 -0.4375  0.0084 -2.0750
 2193TIP3    H228139   1.682   5.803   1.013 -0.4699  0.7237 -0.5515
 2194TIP3   OH228140   3.626   4.556   8.995  0.1298  0.5800 -0.3315
 2194TIP3    H128141   3.685   4.626   9.023  0.9477 -0.6807  1.3038
 2194TIP3    H228142   3.684   4.490   8.956 -0.3186 -0.1951  0.2974
 2195TIP3   OH228143   2.531   4.285   3.330  0.0829  0.0510  0.0806
 2195TIP3    H128144   2.535   4.205   3.381 -0.3311 -0.7153 -1.0478
 2195TIP3    H228145   2.563   4.261   3.243  2.2260  1.6730  0.3412
 2196TIP3   OH228146   6.654   0.538   2.489  0.1472  0.3494 -0.0320
 2196TIP3    H128147   6.576   0.528   2.434  0.3536  0.3799 -0.3274
 2196TIP3    H228148   6.683   0.628   2.474 -0.5371  0.7879  1.1025
 2197TIP3   OH228149   3.924   0.073   2.088  0.6755 -0.4369  0.0933
 2197TIP3    H128150   3.958   0.061   2.177 -0.1120  0.1506  0.4964
 2197TIP3    H228151   3.999   0.102   2.037  1.1367 -0.7720  0.5705
 2198TIP3   OH228152   3.992   3.892   1.039 -0.3287  1.2982  0.0730
 2198TIP3    H128153   4.081   3.903   1.006  1.2959 -0.5793  3.2705
 2198TIP3    H228154   3.969   3.977   1.076  1.6346  0.9763  2.2389
 2199TIP3   OH228155   5.622   2.907   8.165 -0.1647  0.3230 -0.0672
 2199TIP3    H128156   5.618   3.002   8.175  2.0572  0.3262  1.4473
 2199TIP3    H228157   5.671   2.893   8.084  0.0395  0.4810  0.0282
 2200TIP3   OH228158   4.670   2.994   8.744  0.7550 -0.5578 -0.3472
 2200TIP3    H128159   4.596   3.008   8.803  0.9638 -0.8542 -0.0055
 2200TIP3    H228160   4.667   2.900   8.724 -0.5929 -0.1147 -2.5582
 2201TIP3   OH228161   3.085   3.654   1.374 -0.6626  0.1015  0.0002
 2201TIP3    H128162   3.036   3.679   1.452  0.0648 -1.6670  1.0903
 2201TIP3    H228163   3.030   3.589   1.331 -0.0697 -0.6034  0.2885
 2202TIP3   OH228164   3.539   2.614   8.601 -0.4809 -0.1214 -0.1661
 2202TIP3    H128165   3.503   2.613   8.690 -2.5089  2.5822 -0.8095
 2202TIP3    H228166   3.489   2.548   8.553 -0.8867 -0.0757  0.1952
 2203TIP3   OH228167   2.983   1.421   2.312 -0.0222 -0.4224 -0.0965
 2203TIP3    H128168   3.042   1.459   2.377  0.0992  0.2693 -0.5921
 2203TIP3    H228169   3.037   1.415   2.232 -0.3254 -0.7441 -0.2808
 2204TIP3   OH228170   6.284   3.600   0.178 -0.0421  0.1756 -0.2819
 2204TIP3    H128171   6.239   3.567   0.256  0.7573  0.3436  0.2649
 2204TIP3    H228172   6.237   3.561   0.105 -0.6986 -0.1245  0.2895
 2205TIP3   OH228173   3.687   2.561   3.540 -0.4635  0.2273  0.1875
 2205TIP3    H128174   3.764   2.601   3.581 -0.8296  0.0835  1.0411
 2205TIP3    H228175   3.629   2.635   3.523  0.3056  0.4911 -1.5174
 2206TIP3   OH228176   2.521   6.434   2.984  0.1589 -0.6030  0.3259
 2206TIP3    H128177   2.497   6.463   3.072 -1.4721 -1.2658  0.1422
 2206TIP3    H228178   2.535   6.339   2.994 -0.2170 -0.7132 -0.1446
 2207TIP3   OH228179   1.268   2.182   1.651 -0.2282 -0.1700 -0.2752
 2207TIP3    H128180   1.308   2.126   1.717 -0.0105  1.1254  0.7223
 2207TIP3    H228181   1.196   2.129   1.615  1.1384 -1.7922 -0.7239
 2208TIP3   OH228182   2.935   3.281   0.695  0.2831 -0.4492  0.4037
 2208TIP3    H128183   2.940   3.193   0.731  0.2690 -0.1778  1.0799
 2208TIP3    H228184   2.947   3.339   0.770 -1.1786  0.1349  0.2211
 2209TIP3   OH228185   5.263   1.449   2.264 -0.2457  0.6698 -0.2909
 2209TIP3    H128186   5.319   1.395   2.320  0.6579  0.5085 -1.3050
 2209TIP3    H228187   5.174   1.418   2.280  0.1638 -0.4542 -0.1272
 2210TIP3   OH228188   1.471   5.006   0.406  0.4885  0.6239  0.1603
 2210TIP3    H128189   1.563   5.033   0.406  0.4727  0.7267 -0.9734
 2210TIP3    H228190   1.454   4.980   0.497  2.6343 -2.7460 -0.2124
 2211TIP3   OH228191   6.382   4.046   1.579  0.1810  0.2259 -0.6441
 2211TIP3    H128192   6.304   4.014   1.534 -0.7053 -0.0324  1.0061
 2211TIP3    H228193   6.445   3.974   1.572 -0.2776 -0.1756 -0.6393
 2212TIP3   OH228194   2.485   4.589   1.047 -0.5088  0.2969 -0.0029
 2212TIP3    H128195   2.497   4.541   0.965 -0.1912  2.0413 -1.0314
 2212TIP3    H228196   2.573   4.614   1.073 -0.7641  1.5558 -0.2858
 2213TIP3   OH228197   6.215   1.377   0.686  0.0877 -0.0240  0.5480
 2213TIP3    H128198   6.247   1.384   0.776  1.5284  0.7185  0.0093
 2213TIP3    H228199   6.290   1.345   0.636 -0.1764  1.1651 -0.6632
 2214TIP3   OH228200   1.502   2.669   1.198  0.1338  0.2084  0.1610
 2214TIP3    H128201   1.505   2.608   1.124 -1.7410  0.8253 -0.4921
 2214TIP3    H228202   1.505   2.614   1.276 -1.5133 -0.7548 -0.4176
 2215TIP3   OH228203   1.609   5.383   8.137 -0.1907 -0.6529  0.6416
 2215TIP3    H128204   1.605   5.291   8.109  1.4032 -1.0717  1.6889
 2215TIP3    H228205   1.630   5.379   8.230 -0.6331  0.7918  0.8268
 2216TIP3   OH228206   4.462   3.173   1.674 -0.6628  0.1377  0.3800
 2216TIP3    H128207   4.533   3.230   1.646  1.1174 -1.7074  0.8946
 2216TIP3    H228208   4.461   3.181   1.770  0.7091 -1.8311  0.6089
 2217TIP3   OH228209   5.664   4.050   2.277  0.0600  0.2317  0.2079
 2217TIP3    H128210   5.728   3.990   2.315 -0.0819  1.4653  2.5666
 2217TIP3    H228211   5.715   4.107   2.220  0.7235 -0.0595  0.5050
 2218TIP3   OH228212   3.629   3.985   1.383 -0.0608  1.5243  0.3838
 2218TIP3    H128213   3.659   4.051   1.321  1.7194 -0.2029 -0.7117
 2218TIP3    H228214   3.699   3.980   1.448  0.2545  0.1688 -0.0280
 2219TIP3   OH228215   5.400   2.994   0.244  0.1412 -0.2845  0.6201
 2219TIP3    H128216   5.380   2.901   0.234  2.5396 -0.8111  0.1511
 2219TIP3    H228217   5.488   3.003   0.209  0.1009  2.1173  1.0149
 2220TIP3   OH228218   4.048   0.298   2.271  0.6735 -0.4099 -0.6631
 2220TIP3    H128219   4.049   0.220   2.327  2.2238 -0.3069 -0.5161
 2220TIP3    H228220   4.004   0.269   2.191 -1.4832 -0.5863  0.4933
 2221TIP3   OH228221   5.525   6.106   0.193 -0.5534 -0.0387  0.7127
 2221TIP3    H128222   5.528   6.151   0.108 -0.1255 -0.7685  0.3243
 2221TIP3    H228223   5.432   6.090   0.208 -0.5312 -1.7435 -0.6506
 2222TIP3   OH228224   3.663   5.488   8.480  0.1024  0.2782  0.1662
 2222TIP3    H128225   3.689   5.407   8.525  1.6856  1.1096  0.7992
 2222TIP3    H228226   3.651   5.461   8.389  1.7148 -0.4679  0.1471
 2223TIP3   OH228227   4.172   5.069   1.751 -0.5306  0.2066 -0.1931
 2223TIP3    H128228   4.206   4.991   1.708  1.9218  1.2250 -0.2282
 2223TIP3    H228229   4.104   5.035   1.810 -0.3878 -1.7876 -1.0845
 2224TIP3   OH228230   1.559   5.137   0.748  0.3112  0.1626 -0.1732
 2224TIP3    H128231   1.609   5.056   0.742  2.3146  1.3421 -0.7432
 2224TIP3    H228232   1.468   5.110   0.744  0.8885 -2.0973  0.4831
 2225TIP3   OH228233   5.135   3.133   8.715  0.0428 -0.3429 -0.4829
 2225TIP3    H128234   5.110   3.059   8.659  0.0422 -0.0130 -0.9287
 2225TIP3    H228235   5.056   3.153   8.765 -0.0560 -0.4364 -0.6004
 2226TIP3   OH228236   5.409   0.630   1.297  0.4372 -0.5523  0.2251
 2226TIP3    H128237   5.430   0.552   1.247  0.6435 -1.6665  1.9507
 2226TIP3    H228238   5.493   0.659   1.333  0.1406 -0.4998  0.8974
 2227TIP3   OH228239   5.783   2.226   8.577  0.4443  0.2919  0.2448
 2227TIP3    H128240   5.688   2.223   8.588  0.5042  0.6644  0.8857
 2227TIP3    H228241   5.806   2.139   8.544  0.0708 -0.3434  1.6122
 2228TIP3   OH228242   0.368   3.123   0.225  0.1623  0.3780  0.4537
 2228TIP3    H128243   0.454   3.161   0.206  0.6799  0.4889  2.7346
 2228TIP3    H228244   0.310   3.162   0.160  1.7730  0.4561 -1.0229
 2229TIP3   OH228245   3.457   2.963   1.293  0.4658 -0.1838 -0.3939
 2229TIP3    H128246   3.430   3.044   1.337 -1.5062 -0.9134 -0.1301
 2229TIP3    H228247   3.430   2.975   1.202  1.5728  0.0392 -0.7047
 2230TIP3   OH228248   4.351   6.148   8.461  0.1430  0.3506  0.0797
 2230TIP3    H128249   4.367   6.199   8.540 -2.5100 -1.2317  1.8008
 2230TIP3    H228250   4.391   6.063   8.478  0.1326  0.2117 -0.5553
 2231TIP3   OH228251   2.877   2.653   1.390 -0.0137 -0.0482 -0.4197
 2231TIP3    H128252   2.891   2.699   1.473  0.6722 -0.5652 -0.2433
 2231TIP3    H228253   2.806   2.591   1.408 -0.0920  0.0711 -0.3132
 2232TIP3   OH228254   1.189   0.891   8.573  0.4614 -0.4455 -0.2307
 2232TIP3    H128255   1.252   0.824   8.544 -0.5097 -1.3755 -0.2497
 2232TIP3    H228256   1.166   0.866   8.662  1.5977  1.0335  0.5188
 2233TIP3   OH228257   5.504   3.928   8.265  0.0769  0.0351 -0.2915
 2233TIP3    H128258   5.503   3.912   8.360 -1.6034  0.2533 -0.2410
 2233TIP3    H228259   5.592   3.961   8.247  0.1488  0.8227  1.3430
 2234TIP3   OH228260   1.549   0.542   0.853 -0.1389  0.0307  0.1316
 2234TIP3    H128261   1.541   0.537   0.758  2.3821  0.2711 -0.1610
 2234TIP3    H228262   1.535   0.634   0.874  0.1589  0.1252 -0.0966
 2235TIP3   OH228263   6.536   5.615   8.307 -0.0603 -0.0459 -0.5784
 2235TIP3    H128264   6.459   5.636   8.254  0.0092 -0.3517 -0.8091
 2235TIP3    H228265   6.501   5.571   8.384 -0.2139  1.0271 -0.0292
 2236TIP3   OH228266   4.019   0.030   8.332 -0.0971 -0.4096 -0.1738
 2236TIP3    H128267   3.992   0.088   8.261 -0.5007  0.3642  0.5960
 2236TIP3    H228268   4.058   0.089   8.397 -0.9221 -0.9353  0.8208
 2237TIP3   OH228269   3.563   3.610   1.689  0.1189  0.2303  0.3076
 2237TIP3    H128270   3.645   3.560   1.686  1.5371  2.3975  0.8664
 2237TIP3    H228271   3.575   3.680   1.625 -0.8540  1.2259  1.1782
 2238TIP3   OH228272   2.220   1.638   8.037 -0.2550  0.1421  0.3085
 2238TIP3    H128273   2.149   1.581   8.067 -1.3289  0.5908 -1.2429
 2238TIP3    H228274   2.196   1.725   8.068 -0.3833  0.2911 -0.2035
 2239TIP3   OH228275   1.975   6.313   2.576  0.3276 -0.0608 -0.7681
 2239TIP3    H128276   2.055   6.340   2.620  0.6189 -0.2912 -1.1548
 2239TIP3    H228277   2.004   6.251   2.509 -0.4279 -2.3640  0.9069
 2240TIP3   OH228278   5.598   5.890   1.782 -0.3535 -0.2985  0.1970
 2240TIP3    H128279   5.680   5.888   1.832  0.5742 -0.0240 -1.2785
 2240TIP3    H228280   5.530   5.904   1.849  0.6335 -1.9144  1.6129
 2241TIP3   OH228281   1.432   3.327   1.486 -0.0060 -0.3402 -0.1137
 2241TIP3    H128282   1.527   3.329   1.500  0.2078  2.6948 -1.2658
 2241TIP3    H228283   1.422   3.299   1.395 -0.3383 -2.0355  0.4190
 2242TIP3   OH228284   3.391   5.308   8.178 -0.0781  0.2073 -0.5875
 2242TIP3    H128285   3.336   5.265   8.243  1.1179 -0.5987 -0.0626
 2242TIP3    H228286   3.478   5.268   8.190  1.1073  2.7577 -0.0707
 2243TIP3   OH228287   4.768   3.481   8.454 -0.3974 -0.5710  0.2691
 2243TIP3    H128288   4.687   3.431   8.460 -0.3000 -0.5896  1.9123
 2243TIP3    H228289   4.831   3.431   8.506  0.4202 -0.0675 -0.2066
 2244TIP3   OH228290   4.438   6.541   2.220 -0.1012 -0.2098 -0.2867
 2244TIP3    H128291   4.471   6.520   2.132  0.9260 -0.7192  0.1909
 2244TIP3    H228292   4.346   6.516   2.218 -0.0277 -0.4438 -1.1547
 2245TIP3   OH228293   5.492   2.574   8.859  0.4844 -0.1580  0.4139
 2245TIP3    H128294   5.538   2.569   8.775  0.6747  1.5195  0.3806
 2245TIP3    H228295   5.484   2.483   8.888  1.8747 -0.6467 -0.6366
 2246TIP3   OH228296   2.323   6.300   8.794 -0.0939  0.0038 -0.5218
 2246TIP3    H128297   2.319   6.237   8.721 -0.9417  0.0499 -0.5218
 2246TIP3    H228298   2.392   6.266   8.851 -1.3648 -1.6300  0.1074
 2247TIP3   OH228299   3.679   6.559   7.858 -0.0653 -0.5598  0.5483
 2247TIP3    H128300   3.641   6.518   7.781  0.0282 -1.2058  0.8378
 2247TIP3    H228301   3.737   6.627   7.823 -0.9883  0.0214  0.0903
 2248TIP3   OH228302   3.647   1.952   0.167  0.0612  0.2941  0.2871
 2248TIP3    H128303   3.656   1.861   0.138  1.7482  0.0126  1.5200
 2248TIP3    H228304   3.577   1.988   0.113  2.2433 -0.4374 -3.3983
 2249TIP3   OH228305   0.264   3.579   1.837  0.1086 -0.6183 -0.7653
 2249TIP3    H128306   0.217   3.634   1.775  0.8658  2.5339  1.2069
 2249TIP3    H228307   0.271   3.494   1.794 -0.9545  0.8441 -4.1436
 2250TIP3   OH228308   0.746   3.269   8.203 -0.3194 -0.2788 -0.7199
 2250TIP3    H128309   0.742   3.265   8.107 -1.8763  1.7395 -0.8004
 2250TIP3    H228310   0.787   3.186   8.228 -0.9226 -1.3920 -3.0675
 2251TIP3   OH228311   3.262   4.264   0.298  0.1020  0.8246 -0.3536
 2251TIP3    H128312   3.323   4.316   0.247 -1.0791  0.3626 -2.3710
 2251TIP3    H228313   3.207   4.328   0.343 -0.7592  1.3677 -2.0886
 2252TIP3   OH228314   3.007   0.453   0.318 -0.9957 -0.1719  0.3521
 2252TIP3    H128315   2.968   0.540   0.311 -2.1426 -0.6419  0.5842
 2252TIP3    H228316   3.000   0.416   0.231  1.5831  0.7760 -0.3339
 2253TIP3   OH228317   5.525   5.316   8.682  0.0213 -0.5637 -0.1011
 2253TIP3    H128318   5.570   5.313   8.766  0.1366 -3.0023 -0.2077
 2253TIP3    H228319   5.592   5.342   8.619  0.1665  0.2635  0.3747
 2254TIP3   OH228320   4.089   3.619   1.642 -0.3959  0.5623 -0.4947
 2254TIP3    H128321   4.079   3.705   1.600 -0.0391  1.6052  1.4314
 2254TIP3    H228322   4.029   3.622   1.717 -0.4858 -0.9442 -0.4677
 2255TIP3   OH228323   1.310   4.006   1.540  0.2791 -0.2418 -0.1394
 2255TIP3    H128324   1.398   4.042   1.543  0.2006 -0.0921  0.5041
 2255TIP3    H228325   1.319   3.925   1.489  0.7796 -0.2131 -0.1011
 2256TIP3   OH228326   2.406   6.570   8.891  0.0536 -0.1475  0.9823
 2256TIP3    H128327   2.420   6.497   8.952  0.9179 -1.4352 -0.6446
 2256TIP3    H228328   2.363   6.529   8.816 -0.4261  1.2673  0.4588
 2257TIP3   OH228329   2.004   1.426   1.519  0.0397  0.2731  0.6387
 2257TIP3    H128330   1.921   1.441   1.474 -0.0216  3.6468  1.6035
 2257TIP3    H228331   2.071   1.445   1.453  0.0387 -0.2007  0.4960
 2258TIP3   OH228332   2.999   1.952   0.878  0.0958 -0.2479  0.0427
 2258TIP3    H128333   2.906   1.977   0.877  0.0713 -0.3401  0.0077
 2258TIP3    H228334   3.000   1.867   0.923  0.2384  0.0591  0.6272
 2259TIP3   OH228335   5.874   0.077   1.748  0.4282 -0.9545  0.0673
 2259TIP3    H128336   5.934   0.048   1.680  0.0791 -0.1125 -0.6204
 2259TIP3    H228337   5.787   0.053   1.715  0.1058  0.9615 -0.6223
 2260TIP3   OH228338   5.562   0.731   2.722 -0.1052 -0.0610 -0.2648
 2260TIP3    H128339   5.626   0.786   2.767  0.8567 -1.6594  0.3803
 2260TIP3    H228340   5.589   0.733   2.630  0.9522 -0.7760  0.0116
 2261TIP3   OH228341   2.807   0.701   7.644 -0.3943  0.2038  0.5090
 2261TIP3    H128342   2.732   0.703   7.704  1.4998 -1.2730  3.1852
 2261TIP3    H228343   2.817   0.791   7.615 -0.4150  1.4600  3.9221
 2262TIP3   OH228344   4.409   1.669   0.599 -0.2469  0.0471 -0.6324
 2262TIP3    H128345   4.329   1.718   0.586  0.1746  0.7236 -0.7033
 2262TIP3    H228346   4.444   1.654   0.511 -0.7640 -1.0674 -0.6728
 2263TIP3   OH228347   1.402   6.086   2.008  0.1385  0.3128 -0.0174
 2263TIP3    H128348   1.426   6.111   1.919  1.2039  0.7148  0.3561
 2263TIP3    H228349   1.439   5.998   2.019  0.3610  0.4232  0.1458
 2264TIP3   OH228350   1.898   2.631   1.171  0.1243 -0.3682  0.2301
 2264TIP3    H128351   1.900   2.687   1.093 -3.3649  0.1687  0.3667
 2264TIP3    H228352   1.988   2.601   1.181  0.8026 -0.3318 -3.8966
 2265TIP3   OH228353   0.530   4.566   2.304 -0.2897 -0.7649 -0.1593
 2265TIP3    H128354   0.492   4.649   2.332 -0.0842 -0.6783 -0.1361
 2265TIP3    H228355   0.595   4.545   2.372  0.4760 -0.3685 -0.7666
 2266TIP3   OH228356   6.168   5.383   3.121  0.2844  0.2536  0.8874
 2266TIP3    H128357   6.165   5.476   3.100 -1.9883 -0.1435 -0.9623
 2266TIP3    H228358   6.155   5.380   3.216 -0.8388  1.7912  0.8218
 2267TIP3   OH228359   0.986   4.890   0.382  0.8188 -0.4708 -0.0316
 2267TIP3    H128360   0.911   4.914   0.437  1.3227 -0.6399  0.7301
 2267TIP3    H228361   0.950   4.828   0.319  0.6558 -1.8654  1.3844
 2268TIP3   OH228362   3.428   5.423   2.704  0.0105  0.5361 -0.2957
 2268TIP3    H128363   3.333   5.432   2.699  0.0651  0.7715 -1.2028
 2268TIP3    H228364   3.445   5.335   2.670  0.2403  1.2507 -2.1543
 2269TIP3   OH228365   6.557   0.034   8.898  0.1791 -0.1812 -0.1081
 2269TIP3    H128366   6.474   0.075   8.875 -0.4451 -2.0164 -1.4356
 2269TIP3    H228367   6.545   0.002   8.987 -1.3641 -2.1686 -0.9386
 2270TIP3   OH228368   2.113   4.792   2.500 -0.3400 -0.7387  0.1821
 2270TIP3    H128369   2.095   4.756   2.413  0.3949 -1.0412  0.1478
 2270TIP3    H228370   2.043   4.856   2.514 -2.1598 -2.6883  0.5723
 2271TIP3   OH228371   5.551   3.979   0.789 -0.3554  0.0359  0.4355
 2271TIP3    H128372   5.482   4.041   0.766 -1.3191 -1.4085 -0.7028
 2271TIP3    H228373   5.621   4.034   0.825 -0.7800  1.8871 -1.4103
 2272TIP3   OH228374   1.928   4.785   0.479  0.0057 -0.0837 -0.4630
 2272TIP3    H128375   1.990   4.723   0.518 -0.6990  0.0369  0.9284
 2272TIP3    H228376   1.981   4.862   0.459  0.1850  0.4112  1.6526
 2273TIP3   OH228377   5.728   4.369   2.358  0.1931 -0.8381  0.5644
 2273TIP3    H128378   5.731   4.451   2.408 -1.7322  0.3865 -1.1801
 2273TIP3    H228379   5.687   4.307   2.418 -0.5067  0.1186  1.1072
 2274TIP3   OH228380   4.149   3.296   8.505  0.0012 -0.3641 -0.0415
 2274TIP3    H128381   4.156   3.284   8.600 -0.0927 -0.6344 -0.0685
 2274TIP3    H228382   4.066   3.342   8.493 -0.8818 -1.9182 -0.1205
 2275TIP3   OH228383   2.760   0.685   0.975  0.4252  0.6609  0.8029
 2275TIP3    H128384   2.670   0.657   0.993  0.0353  0.3182 -1.3939
 2275TIP3    H228385   2.810   0.603   0.976  0.8651  0.9171  2.6191
 2276TIP3   OH228386   4.868   6.312   8.184  0.9158  0.3355  0.4454
 2276TIP3    H128387   4.801   6.289   8.119  1.4150  0.7830 -0.2412
 2276TIP3    H228388   4.827   6.293   8.268  0.7844 -1.7384 -0.0198
 2277TIP3   OH228389   4.493   4.518   0.313 -0.7004 -0.0656 -0.5641
 2277TIP3    H128390   4.487   4.611   0.335 -0.9374 -0.3505  0.6355
 2277TIP3    H228391   4.471   4.514   0.220  0.7388  1.2288 -0.9881
 2278TIP3   OH228392   0.361   2.132   8.894  0.0642 -0.0173  0.1933
 2278TIP3    H128393   0.284   2.187   8.882  0.8061  0.7111 -1.6922
 2278TIP3    H228394   0.329   2.043   8.881 -0.3182  0.3481 -1.6016
 2279TIP3   OH228395   6.244   5.396   2.755  0.0826 -0.2261  0.1841
 2279TIP3    H128396   6.214   5.309   2.729 -1.4718  0.2095  0.3779
 2279TIP3    H228397   6.191   5.456   2.702  1.6732  0.6146 -0.5123
 2280TIP3   OH228398   2.659   5.898   0.002 -0.1274  0.1467 -0.5258
 2280TIP3    H128399   2.644   5.854  -0.082 -1.2670 -1.7621  0.6141
 2280TIP3    H228400   2.595   5.859   0.061  3.3183 -1.6571  2.3458
 2281TIP3   OH228401   5.599   5.286   1.973 -0.4153 -0.5635 -0.7224
 2281TIP3    H128402   5.613   5.323   2.059  2.4105  1.2700 -1.8473
 2281TIP3    H228403   5.585   5.192   1.989 -1.5646 -0.0479  1.7485
 2282TIP3   OH228404   6.530   4.639   8.703 -0.0553  0.4088  0.3777
 2282TIP3    H128405   6.473   4.668   8.774 -0.2878  0.2881  0.2425
 2282TIP3    H228406   6.503   4.548   8.686  0.9664 -0.0383  1.0937
 2283TIP3   OH228407   2.404   6.180   1.023 -0.0531 -0.0389 -0.2324
 2283TIP3    H128408   2.486   6.157   0.979  0.6418 -0.3551  1.1749
 2283TIP3    H228409   2.336   6.152   0.962  0.8594  0.4050 -1.5261
 2284TIP3   OH228410   3.243   2.208   1.825  0.1872  0.3501 -0.3052
 2284TIP3    H128411   3.283   2.184   1.909  0.0195  1.1117 -0.0057
 2284TIP3    H228412   3.314   2.249   1.776  0.5267 -0.8933 -0.8959
 2285TIP3   OH228413   3.989   4.632   1.306 -0.2897 -0.0049 -0.5472
 2285TIP3    H128414   3.998   4.586   1.222  0.2134  1.1413 -1.1421
 2285TIP3    H228415   4.077   4.632   1.343 -0.2165  0.7433 -0.7042
 2286TIP3   OH228416   1.075   2.971   1.841  0.1037  0.2440  0.1693
 2286TIP3    H128417   1.015   2.897   1.845  0.1416  0.2479  3.1662
 2286TIP3    H228418   1.023   3.042   1.804 -0.1683 -0.9950 -1.9946
 2287TIP3   OH228419   0.369   5.394   0.809  0.0442 -0.0452  0.4309
 2287TIP3    H128420   0.403   5.316   0.766  1.0176 -0.0883  1.2389
 2287TIP3    H228421   0.413   5.396   0.893 -0.5637  0.9525  0.7439
 2288TIP3   OH228422   3.461   1.411   1.952 -0.9608 -0.2802 -0.0852
 2288TIP3    H128423   3.392   1.431   1.888 -0.9990 -1.0827 -0.3043
 2288TIP3    H228424   3.493   1.497   1.980 -0.5233  0.0901 -1.6354
 2289TIP3   OH228425   5.427   4.877   2.518 -0.2002  0.6093  0.1283
 2289TIP3    H128426   5.484   4.952   2.531  0.1594  0.0701  2.0431
 2289TIP3    H228427   5.395   4.856   2.606 -1.4308 -0.5973 -0.5623
 2290TIP3   OH228428   1.550   6.413   2.342  0.6213  0.5481 -0.0170
 2290TIP3    H128429   1.596   6.361   2.408  1.7896  1.5591 -0.0099
 2290TIP3    H228430   1.477   6.357   2.314 -0.2259  0.2815  2.4714
 2291TIP3   OH228431   2.226   0.170   0.049 -0.8857  0.4508 -0.4860
 2291TIP3    H128432   2.307   0.134   0.013 -0.1275  2.3660 -0.7932
 2291TIP3    H228433   2.208   0.117   0.126  1.4378  0.8482  0.3812
 2292TIP3   OH228434   2.424   0.667   6.837  0.0225 -0.0405  0.7328
 2292TIP3    H128435   2.352   0.690   6.779  0.0425 -1.2284  0.1915
 2292TIP3    H228436   2.403   0.708   6.920 -1.0076  0.0782  0.4246
 2293TIP3   OH228437   2.284   4.927   1.258 -0.3513 -0.4454  0.0098
 2293TIP3    H128438   2.291   4.831   1.264  2.8579 -0.2650  0.7991
 2293TIP3    H228439   2.222   4.951   1.327  0.5421 -1.8250  1.3512
 2294TIP3   OH228440   0.125   0.766   1.940  0.0332  0.7222 -0.1071
 2294TIP3    H128441   0.211   0.741   1.907 -0.3142 -1.5989  0.4963
 2294TIP3    H228442   0.063   0.719   1.883 -0.7707  1.1320  0.4072
 2295TIP3   OH228443   1.205   0.494   1.066 -0.1979 -0.4118  0.3011
 2295TIP3    H128444   1.246   0.411   1.042 -0.6928 -0.2362 -1.2258
 2295TIP3    H228445   1.166   0.526   0.985  0.8888  1.8364  0.5907
 2296TIP3   OH228446   5.952   6.576   0.817 -0.0680 -0.4055 -0.1754
 2296TIP3    H128447   5.857   6.571   0.826 -0.1800 -0.9167 -1.4378
 2296TIP3    H228448   5.980   6.485   0.811  0.4008 -0.2404 -0.5706
 2297TIP3   OH228449   0.994   4.896   8.541 -0.0605  0.0304 -0.2339
 2297TIP3    H128450   0.901   4.886   8.562 -0.4119 -0.5075 -1.8714
 2297TIP3    H228451   1.025   4.965   8.601 -1.6353  0.5947 -0.0137
 2298TIP3   OH228452   4.278   4.874   1.570  0.3261  0.1664  0.0362
 2298TIP3    H128453   4.350   4.863   1.632 -0.0465  0.8520  0.6007
 2298TIP3    H228454   4.294   4.959   1.529 -0.1338  0.3035  0.1339
 2299TIP3   OH228455   2.940   4.905   0.518  0.1539 -0.5946  0.2567
 2299TIP3    H128456   3.032   4.913   0.493 -0.0583  0.8774 -0.1192
 2299TIP3    H228457   2.910   4.825   0.475  0.9554 -0.4566 -0.5798
 2300TIP3   OH228458   0.453   0.679   0.112 -0.4446  0.2120  0.0787
 2300TIP3    H128459   0.493   0.766   0.120 -0.8688  0.2641  2.2925
 2300TIP3    H228460   0.463   0.657   0.020  2.2616  1.3723 -0.0059
 2301TIP3   OH228461   0.086   4.012   2.185 -0.1858 -0.0947  0.2296
 2301TIP3    H128462   0.117   4.058   2.263 -0.5100 -0.2631  0.4564
 2301TIP3    H228463   0.019   3.952   2.217  0.5328 -1.0366  0.0033
 2302TIP3   OH228464   5.668   3.907   1.708  0.3638 -0.3094  0.0922
 2302TIP3    H128465   5.683   3.863   1.624 -1.3768  1.3485 -1.1585
 2302TIP3    H228466   5.576   3.891   1.727 -0.0443  1.8319  0.1292
 2303TIP3   OH228467   1.904   5.102   0.153  0.7058 -0.4452  0.4789
 2303TIP3    H128468   1.927   5.145   0.236 -0.7477 -1.5039  1.4858
 2303TIP3    H228469   1.808   5.101   0.153  0.6766 -2.6997  0.0156
 2304TIP3   OH228470   2.628   2.631   2.242 -0.2961  0.3662  0.8614
 2304TIP3    H128471   2.643   2.726   2.249 -1.0871  0.5148  0.6308
 2304TIP3    H228472   2.714   2.595   2.222 -0.3790  1.3049 -1.5583
 2305TIP3   OH228473   6.251   4.332   8.872 -0.0173 -0.2685  0.2925
 2305TIP3    H128474   6.255   4.366   8.961 -1.3669  0.4002  0.1175
 2305TIP3    H228475   6.163   4.298   8.862  0.5177 -1.5190 -0.3893
 2306TIP3   OH228476   0.031   4.208   1.460  0.0248 -0.1527 -0.8134
 2306TIP3    H128477   0.079   4.285   1.431  0.4348 -0.0383  0.1210
 2306TIP3    H228478  -0.005   4.233   1.545  0.4331 -1.0818 -0.3468
 2307TIP3   OH228479   3.447   2.939   1.657 -0.4425  0.1770  0.1017
 2307TIP3    H128480   3.461   2.992   1.735 -0.0289  0.3645 -0.0933
 2307TIP3    H228481   3.474   2.851   1.682  1.5773  0.6042 -0.3776
 2308TIP3   OH228482   4.939   2.628   0.226  0.5401 -0.0171  0.0267
 2308TIP3    H128483   4.895   2.710   0.250  0.9059 -0.5673  3.0692
 2308TIP3    H228484   4.869   2.564   0.219  0.4189  0.1651 -0.4678
 2309TIP3   OH228485   5.815   3.991   0.572 -0.2550 -0.4442  0.3866
 2309TIP3    H128486   5.886   4.055   0.564 -1.6777  1.5029  2.4995
 2309TIP3    H228487   5.824   3.956   0.660 -2.0643  0.0565  0.8095
 2310TIP3   OH228488   1.758   1.450   1.914 -0.4484  0.1380  0.6199
 2310TIP3    H128489   1.783   1.366   1.952 -3.7151 -0.6497  1.3235
 2310TIP3    H228490   1.785   1.515   1.979  0.2267 -0.5309  1.0241
 2311TIP3   OH228491   1.157   4.556   8.684  0.3695 -0.5038  0.1818
 2311TIP3    H128492   1.212   4.592   8.614 -1.0936  2.6898  0.5068
 2311TIP3    H228493   1.072   4.540   8.642  0.1633 -0.7994  0.7077
 2312TIP3   OH228494   3.871   0.379   7.936  0.2248 -0.1336  0.3055
 2312TIP3    H128495   3.942   0.404   7.877 -0.2813 -1.5843 -0.9790
 2312TIP3    H228496   3.791   0.406   7.891 -0.0898  0.9361  1.4628
 2313TIP3   OH228497   1.563   2.713   0.740  0.3713  0.5851  0.2938
 2313TIP3    H128498   1.494   2.661   0.699 -0.0344  1.3832 -0.0560
 2313TIP3    H228499   1.638   2.654   0.746  0.1715  0.2025 -0.8387
 2314TIP3   OH228500   0.457   5.303   2.564 -0.2497 -0.3601 -0.3963
 2314TIP3    H128501   0.382   5.342   2.520  0.8292  1.0199 -1.0494
 2314TIP3    H228502   0.484   5.368   2.629 -0.0646 -1.1648  0.3607
 2315TIP3   OH228503   5.935   5.549   1.375 -0.4290 -0.1033  0.0725
 2315TIP3    H128504   6.008   5.601   1.409 -0.4682 -0.4913  0.7691
 2315TIP3    H228505   5.876   5.540   1.449 -0.9517 -0.2158 -0.3516
 2316TIP3   OH228506   4.377   5.328   2.329 -0.0428  0.2530  0.0575
 2316TIP3    H128507   4.329   5.345   2.248 -1.8961  0.1981  1.0776
 2316TIP3    H228508   4.466   5.358   2.312 -0.1477 -0.6004 -2.2859
 2317TIP3   OH228509   1.751   1.747   2.361  0.4006 -0.0034 -0.8052
 2317TIP3    H128510   1.694   1.700   2.422  1.4066 -1.8879 -1.2463
 2317TIP3    H228511   1.801   1.806   2.417  0.3302 -0.7043  0.0237
 2318TIP3   OH228512   5.489   3.647   1.988 -0.9035 -0.6311 -0.3885
 2318TIP3    H128513   5.504   3.669   2.080  0.7108  2.3323 -1.2124
 2318TIP3    H228514   5.548   3.574   1.971 -0.6900 -0.7404  0.7777
 2319TIP3   OH228515   4.677   5.222   8.548  0.3949  0.7269  0.0247
 2319TIP3    H128516   4.747   5.286   8.532 -0.4929  1.9805  0.9328
 2319TIP3    H228517   4.718   5.156   8.604  1.8487 -0.5554 -2.4070
 2320TIP3   OH228518   1.132   5.802   8.257 -0.2283 -0.2541  0.0055
 2320TIP3    H128519   1.205   5.742   8.270  0.4359  0.5537  0.1034
 2320TIP3    H228520   1.148   5.840   8.170 -0.3129  0.2239  0.1970
 2321TIP3   OH228521   1.343   4.580   1.849  0.2204  0.2484  0.2413
 2321TIP3    H128522   1.382   4.619   1.927  0.6368  0.5833 -0.1292
 2321TIP3    H228523   1.249   4.594   1.859  0.3057  0.6547  0.4818
 2322TIP3   OH228524   1.067   6.720   8.325 -0.0281 -0.4346 -0.4601
 2322TIP3    H128525   1.061   6.710   8.230  0.8202  1.4528 -0.7627
 2322TIP3    H228526   1.002   6.786   8.346 -0.1674 -0.7953  0.2801
 2323TIP3   OH228527   3.651   5.045   8.485  0.4747 -0.4214 -0.1137
 2323TIP3    H128528   3.606   4.994   8.553  1.1930 -1.4025 -0.3433
 2323TIP3    H228529   3.601   5.027   8.405  0.7029 -0.7450 -0.1866
 2324TIP3   OH228530   1.622   0.044   1.711  0.0402  0.5811  0.0693
 2324TIP3    H128531   1.603   0.058   1.618  1.2185 -0.4962 -0.3662
 2324TIP3    H228532   1.584  -0.041   1.731 -0.4541  0.9312  0.6586
 2325TIP3   OH228533   0.146   1.954   2.805  0.8777  0.0753  0.4160
 2325TIP3    H128534   0.185   2.042   2.799  0.7490  0.2625  1.8276
 2325TIP3    H228535   0.197   1.911   2.874  0.2154 -0.5570  0.5167
 2326TIP3   OH228536   5.683   5.806   2.703  0.2566 -0.1047 -0.5073
 2326TIP3    H128537   5.745   5.833   2.635  0.2867 -1.0042 -0.8466
 2326TIP3    H228538   5.731   5.820   2.785  0.7668 -0.4140 -0.7471
 2327TIP3   OH228539   2.825   2.214   8.729 -0.1547 -0.1196  0.1234
 2327TIP3    H128540   2.912   2.250   8.742 -1.4755  2.6691  2.2999
 2327TIP3    H228541   2.773   2.286   8.693 -1.7518 -1.4381 -0.3536
 2328TIP3   OH228542   5.324   4.431   0.979 -0.2464  0.9365 -0.3539
 2328TIP3    H128543   5.320   4.341   0.948  0.6514  0.8906 -0.3641
 2328TIP3    H228544   5.411   4.461   0.953 -0.5480  1.8126 -0.3668
 2329TIP3   OH228545   3.595   4.116   1.865 -0.3899  0.1326 -0.1550
 2329TIP3    H128546   3.646   4.157   1.935 -0.9317 -1.5004  1.2637
 2329TIP3    H228547   3.508   4.154   1.874 -0.5887 -0.4396  0.4012
 2330TIP3   OH228548   1.526   1.794   2.849  0.0755  0.2016 -0.1121
 2330TIP3    H128549   1.500   1.876   2.807 -1.0732  0.2424  0.6399
 2330TIP3    H228550   1.546   1.819   2.939 -0.5699 -0.3744  0.2018
 2331TIP3   OH228551   2.322   6.444   7.479  0.8755  0.6255 -0.5267
 2331TIP3    H128552   2.251   6.447   7.415  1.7793  3.9971 -1.5944
 2331TIP3    H228553   2.384   6.381   7.442  0.6432  1.3170 -2.2223
 2332TIP3   OH228554   4.402   1.648   3.021 -0.2194  0.2260 -0.0765
 2332TIP3    H128555   4.422   1.561   2.987  0.0534 -0.1581  1.0377
 2332TIP3    H228556   4.475   1.667   3.081  0.1358  1.5453 -0.8806
 2333TIP3   OH228557   5.464   3.599   7.912 -0.1057  0.3805 -0.4814
 2333TIP3    H128558   5.484   3.534   7.979 -0.6681 -2.3661 -2.7963
 2333TIP3    H228559   5.504   3.680   7.944  2.0466 -1.4599  1.8286
 2334TIP3   OH228560   2.153   5.662   8.586 -0.3709 -0.0573  0.3855
 2334TIP3    H128561   2.177   5.598   8.653  0.0580  0.6557  0.9310
 2334TIP3    H228562   2.098   5.613   8.525 -0.8518 -0.7084  1.3061
 2335TIP3   OH228563   6.071   2.685   0.881  0.0215  0.6547  0.6317
 2335TIP3    H128564   6.092   2.675   0.974 -0.0300 -0.8033  0.5096
 2335TIP3    H228565   6.064   2.596   0.848  1.0819  1.1414 -1.0249
 2336TIP3   OH228566   0.712   5.669   1.975 -0.1767  0.2923 -1.1246
 2336TIP3    H128567   0.741   5.754   1.945 -0.1185  0.7141  0.0559
 2336TIP3    H228568   0.779   5.641   2.038 -0.2532 -0.5774 -1.4061
 2337TIP3   OH228569   4.244   6.447   2.926 -0.2531 -0.2077 -0.1657
 2337TIP3    H128570   4.296   6.521   2.896 -1.5615  0.8162 -0.0416
 2337TIP3    H228571   4.300   6.370   2.913  0.5066  0.5934 -1.9332
 2338TIP3   OH228572   5.559   2.095   7.971 -0.2804  0.4135  0.0992
 2338TIP3    H128573   5.645   2.136   7.962  0.6746 -1.6135 -0.5016
 2338TIP3    H228574   5.531   2.118   8.060  2.0442 -0.9647  1.2888
 2339TIP3   OH228575   0.201   2.102   3.208 -0.1422 -0.1172  0.2104
 2339TIP3    H128576   0.262   2.029   3.198  0.2896  0.4618 -1.7064
 2339TIP3    H228577   0.257   2.179   3.215 -0.6009  0.1108  2.0485
 2340TIP3   OH228578   2.053   4.244   2.261  0.5644 -0.3102  0.8276
 2340TIP3    H128579   2.091   4.321   2.302  1.3322  0.6417 -1.4866
 2340TIP3    H228580   2.081   4.249   2.170 -1.8850 -1.6891 -0.1102
 2341TIP3   OH228581   0.325   2.735   7.017 -0.3026  0.2118  0.1952
 2341TIP3    H128582   0.359   2.748   7.105 -0.0092  1.8031 -0.1303
 2341TIP3    H228583   0.270   2.811   7.000 -1.0539 -0.4976 -0.6926
 2342TIP3   OH228584   3.870   5.945   1.622  0.2245 -0.2992  0.0219
 2342TIP3    H128585   3.846   5.991   1.702  1.0264 -0.5258  0.3968
 2342TIP3    H228586   3.964   5.960   1.612  0.7258 -2.6543  0.6824
 2343TIP3   OH228587   5.278   2.665   1.663 -0.2319 -0.3993  0.2239
 2343TIP3    H128588   5.373   2.662   1.674 -0.1968 -0.6357 -0.1086
 2343TIP3    H228589   5.264   2.726   1.591 -0.2130 -1.7081 -0.9224
 2344TIP3   OH228590   2.247   3.428   2.274  0.8313  0.1144  0.1562
 2344TIP3    H128591   2.155   3.407   2.257  0.7111  1.8300 -1.8256
 2344TIP3    H228592   2.282   3.352   2.319 -1.4541 -0.7577  0.5801
 2345TIP3   OH228593   3.162   1.816   1.662  0.1650  0.0338  0.0478
 2345TIP3    H128594   3.219   1.835   1.736 -0.7023  1.8170  0.3050
 2345TIP3    H228595   3.148   1.901   1.620 -1.1346 -0.6029 -0.8688
 2346TIP3   OH228596   1.605   0.386   7.871  0.7201  0.2858  0.0404
 2346TIP3    H128597   1.577   0.469   7.833 -0.0243  0.1684  0.3096
 2346TIP3    H228598   1.582   0.320   7.806  0.3403  0.1864  0.2703
 2347TIP3   OH228599   3.508   3.004   8.937  0.8476  0.1459 -0.0220
 2347TIP3    H128600   3.479   2.925   8.984 -0.7284  0.9337  0.4241
 2347TIP3    H228601   3.564   3.050   9.000  0.3798  0.2003  0.3688
 2348TIP3   OH228602   6.489   3.669   0.342 -0.4245 -0.3270  0.3277
 2348TIP3    H128603   6.411   3.633   0.299 -0.5640  0.8278 -0.4137
 2348TIP3    H228604   6.536   3.591   0.374 -1.8782 -1.0481  0.8310
 2349TIP3   OH228605   4.973   4.357   0.447  0.2827  0.2122 -0.0466
 2349TIP3    H128606   4.990   4.317   0.361  2.3036 -1.7729  1.1646
 2349TIP3    H228607   5.054   4.403   0.469  0.0466  0.1179  1.0776
 2350TIP3   OH228608   4.433   6.536   8.496 -0.3024 -0.1828 -0.3753
 2350TIP3    H128609   4.390   6.620   8.482  0.7706  0.4209 -0.0795
 2350TIP3    H228610   4.363   6.480   8.530 -0.8138  0.8361  0.3008
 2351TIP3   OH228611   6.113   3.825   0.390  0.2505  0.0496  0.0804
 2351TIP3    H128612   6.158   3.790   0.313  2.1661 -1.5486  1.8062
 2351TIP3    H228613   6.175   3.886   0.429 -0.4381  0.3588  0.7190
 2352TIP3   OH228614   0.454   5.390   2.297 -0.2705  0.3276  0.6540
 2352TIP3    H128615   0.486   5.313   2.344 -1.5609 -1.1271 -0.7348
 2352TIP3    H228616   0.493   5.383   2.210 -0.9756  0.8668  0.2857
 2353TIP3   OH228617   1.140   0.931   8.907  0.1912 -0.0352  0.5608
 2353TIP3    H128618   1.192   0.975   8.973  0.1953  1.7314 -0.5745
 2353TIP3    H228619   1.071   0.886   8.957  0.9043  0.2394  1.8246
 2354TIP3   OH228620   5.920   2.443   8.688 -0.0702  0.1660  1.0890
 2354TIP3    H128621   5.882   2.369   8.641  0.9484 -0.8168  1.7954
 2354TIP3    H228622   5.970   2.404   8.759  1.6344  1.4502  0.6640
 2355TIP3   OH228623   1.293   2.869   2.616  0.0546  0.2181  0.3865
 2355TIP3    H128624   1.279   2.961   2.639  1.4420  0.5231  0.0772
 2355TIP3    H228625   1.386   2.853   2.632 -0.1633 -1.1546  0.4746
 2356TIP3   OH228626   1.255   4.249   2.371 -0.5005 -0.3405 -0.2957
 2356TIP3    H128627   1.166   4.214   2.366 -1.3048  1.7040 -1.9155
 2356TIP3    H228628   1.268   4.265   2.465 -1.3842 -1.7055  0.0896
 2357TIP3   OH228629   0.832   2.376   0.350 -0.6726  0.2262  0.1939
 2357TIP3    H128630   0.877   2.307   0.300 -0.2380  0.5188  0.1707
 2357TIP3    H228631   0.808   2.334   0.433  0.2995  0.2567  0.5046
 2358TIP3   OH228632   3.309   0.164   8.326 -0.1085  0.1411  0.0642
 2358TIP3    H128633   3.228   0.133   8.367  0.2875 -0.2896  0.5268
 2358TIP3    H228634   3.335   0.240   8.378 -0.4823  0.5869 -0.3918
 2359TIP3   OH228635   1.144   2.105   0.748 -0.4160 -0.6527 -0.5924
 2359TIP3    H128636   1.099   2.039   0.801  1.5433 -0.3021  1.6757
 2359TIP3    H228637   1.134   2.186   0.798 -0.4097  0.2044 -1.9392
 2360TIP3   OH228638   1.768   4.124   8.542  0.3193 -0.1037 -0.4189
 2360TIP3    H128639   1.752   4.127   8.636  1.6927  2.5889 -0.1762
 2360TIP3    H228640   1.822   4.046   8.529 -0.0453 -0.6118  0.9624
 2361TIP3   OH228641   2.242   1.337   7.319  0.5812  0.6127 -0.0559
 2361TIP3    H128642   2.201   1.370   7.400  2.2878  0.5729  0.8640
 2361TIP3    H228643   2.247   1.242   7.332 -0.7381  0.3828 -1.0077
 2362TIP3   OH228644   3.217   4.891   0.471 -0.2222 -0.4711 -0.0306
 2362TIP3    H128645   3.229   4.955   0.402  0.9425 -1.0468 -0.3815
 2362TIP3    H228646   3.297   4.838   0.470 -0.8712 -1.5170  0.6722
 2363TIP3   OH228647   3.471   4.851   8.652 -0.1789  0.3553  0.1956
 2363TIP3    H128648   3.400   4.907   8.622  0.3888  2.1118  1.9589
 2363TIP3    H228649   3.445   4.824   8.740  0.1554 -1.1468 -0.1385
 2364TIP3   OH228650   3.878   1.227   0.283 -0.5049 -0.2191  0.1757
 2364TIP3    H128651   3.846   1.314   0.257 -0.0420  0.1009  0.6741
 2364TIP3    H228652   3.800   1.182   0.315 -0.6983  0.1019  0.1645
 2365TIP3   OH228653   3.889   4.041   0.114 -0.5846 -0.2087  0.0881
 2365TIP3    H128654   3.947   4.029   0.190  0.5201 -1.7674 -0.9459
 2365TIP3    H228655   3.865   3.953   0.088 -0.3621  0.2641 -1.8203
 2366TIP3   OH228656   1.718   3.142   7.663  0.4639  0.2891 -0.1949
 2366TIP3    H128657   1.680   3.211   7.609  0.3498 -1.8984 -3.1326
 2366TIP3    H228658   1.711   3.063   7.610 -0.2952 -2.2610  3.3206
 2367TIP3   OH228659   0.596   0.526   8.817 -0.5138 -0.1902  0.2854
 2367TIP3    H128660   0.652   0.503   8.742 -1.5047 -3.2372  0.3373
 2367TIP3    H228661   0.513   0.554   8.777  0.2797  2.3683  0.2554
 2368TIP3   OH228662   4.176   0.552   3.192 -0.5331 -0.0586 -0.2454
 2368TIP3    H128663   4.184   0.642   3.223  0.7552  0.3140 -1.5355
 2368TIP3    H228664   4.255   0.538   3.139 -0.0868 -2.3676  0.9313
 2369TIP3   OH228665   4.560   2.875   1.951 -0.0338 -0.1731  0.4486
 2369TIP3    H128666   4.635   2.883   1.891  0.5330 -1.5170  0.9191
 2369TIP3    H228667   4.499   2.942   1.923  1.1522  0.6466 -0.2607
 2370TIP3   OH228668   5.255   2.766   2.735  0.0096 -0.2566 -0.0337
 2370TIP3    H128669   5.295   2.851   2.755  0.4092 -0.6632  0.9378
 2370TIP3    H228670   5.162   2.785   2.721  0.2385  0.4550 -0.6856
 2371TIP3   OH228671   5.884   1.592   0.168 -0.6031  0.2724  0.1267
 2371TIP3    H128672   5.979   1.586   0.176 -0.5567  0.1284 -0.4864
 2371TIP3    H228673   5.854   1.618   0.256  0.0922  1.3703  0.0612
 2372TIP3   OH228674   4.114   6.179   0.539 -0.2124  0.1290  0.3561
 2372TIP3    H128675   4.045   6.196   0.476  0.6779 -1.2068 -1.0660
 2372TIP3    H228676   4.074   6.120   0.603 -0.9377  0.9891  0.7229
 2373TIP3   OH228677   4.689   0.859   1.318 -0.3857  0.3233 -0.6055
 2373TIP3    H128678   4.737   0.850   1.236 -1.5201 -0.8563 -1.1694
 2373TIP3    H228679   4.755   0.848   1.386  0.2121 -0.9117 -1.3633
 2374TIP3   OH228680   1.215   6.114   0.813  0.1875  0.0067 -0.4920
 2374TIP3    H128681   1.236   6.200   0.850 -3.2553  0.4528  0.7939
 2374TIP3    H228682   1.221   6.126   0.718 -1.2156  2.0247 -0.3776
 2375TIP3   OH228683   4.457   6.598   0.162 -0.3915 -0.5447 -0.2338
 2375TIP3    H128684   4.515   6.673   0.175 -2.0602  0.7696 -0.0580
 2375TIP3    H228685   4.512   6.521   0.178  0.3383  0.6600  4.4126
 2376TIP3   OH228686   2.476   1.013   8.951 -0.7269  0.5487 -0.0193
 2376TIP3    H128687   2.384   1.038   8.941 -1.2745 -1.3007  0.1700
 2376TIP3    H228688   2.517   1.045   8.870 -1.9387 -0.3061 -1.0175
 2377TIP3   OH228689   4.292   3.387   1.022 -0.5673 -0.4977 -1.0897
 2377TIP3    H128690   4.297   3.478   1.052 -1.1768 -0.2800 -1.6369
 2377TIP3    H228691   4.378   3.371   0.983  1.3210 -1.6505  3.0533
 2378TIP3   OH228692   2.826   3.715   3.015  0.5234  0.1199  0.1978
 2378TIP3    H128693   2.735   3.690   2.999  0.5598  0.0911  0.0370
 2378TIP3    H228694   2.828   3.810   2.998  0.8859 -0.1543 -1.4333
 2379TIP3   OH228695   3.416   4.269   2.942 -0.4392 -0.1351  0.6827
 2379TIP3    H128696   3.449   4.181   2.957  1.9157  0.7813  1.2262
 2379TIP3    H228697   3.392   4.301   3.030  0.3085  0.3476  0.7176
 2380TIP3   OH228698   1.333   3.289   2.323 -0.2989 -0.2804 -0.3065
 2380TIP3    H128699   1.276   3.254   2.254 -0.1755 -0.2153 -0.4411
 2380TIP3    H228700   1.282   3.277   2.403 -0.6196  0.0203 -0.4585
 2381TIP3   OH228701   4.666   6.510   8.371 -0.3916 -0.2964 -0.2453
 2381TIP3    H128702   4.592   6.523   8.431 -0.9502 -1.4802 -0.6533
 2381TIP3    H228703   4.645   6.430   8.324  1.4174 -0.9428 -0.0117
 2382TIP3   OH228704   1.795   3.160   2.381 -0.3204 -0.0452  0.0098
 2382TIP3    H128705   1.826   3.227   2.442  1.1053  1.5403 -2.3040
 2382TIP3    H228706   1.755   3.210   2.310  0.3552 -1.6766 -1.5627
 2383TIP3   OH228707   1.203   4.870   0.521 -0.8924  0.1238  0.0469
 2383TIP3    H128708   1.206   4.789   0.573 -1.4269  1.9778  3.1888
 2383TIP3    H228709   1.117   4.868   0.479 -2.0301  0.2012  2.2371
 2384TIP3   OH228710   5.076   5.204   0.463 -0.1770 -0.2563  0.4509
 2384TIP3    H128711   5.087   5.293   0.495 -1.6348  0.6475 -1.3618
 2384TIP3    H228712   5.155   5.186   0.413  0.6658 -0.4795  1.8158
 2385TIP3   OH228713   0.419   2.057   1.650 -0.9260 -0.0437  0.1939
 2385TIP3    H128714   0.508   2.092   1.643 -0.2403 -1.6456  0.5102
 2385TIP3    H228715   0.391   2.045   1.559 -0.9204  0.6667  0.0909
 2386TIP3   OH228716   0.374   5.308   1.663  0.9152 -0.1561 -0.1229
 2386TIP3    H128717   0.401   5.248   1.733  0.7220  0.8173  0.8212
 2386TIP3    H228718   0.283   5.284   1.645  0.6528  0.2070  0.6614
 2387TIP3   OH228719   0.535   5.820   1.331 -0.2476 -0.0813  0.7708
 2387TIP3    H128720   0.475   5.758   1.289 -0.9401  1.7567 -1.1356
 2387TIP3    H228721   0.484   5.860   1.401 -0.3934 -0.3614  0.8257
 2388TIP3   OH228722   5.446   5.881   2.519 -0.1682 -0.2678 -0.1231
 2388TIP3    H128723   5.518   5.861   2.578 -1.2554  1.5681  1.9725
 2388TIP3    H228724   5.488   5.903   2.436  1.5856 -0.4605  0.6735
 2389TIP3   OH228725   4.909   5.248   8.267 -0.1955 -0.3462  0.2687
 2389TIP3    H128726   4.820   5.280   8.283 -0.1396 -0.5405  0.9926
 2389TIP3    H228727   4.923   5.264   8.174 -0.2651  1.5180  0.5364
 2390TIP3   OH228728   4.249   1.379   8.264 -0.4775 -0.2124 -0.1128
 2390TIP3    H128729   4.158   1.404   8.247 -0.2189  0.7022 -0.1885
 2390TIP3    H228730   4.255   1.290   8.231 -1.4886 -0.4870  0.3871
 2391TIP3   OH228731   0.943   0.375   1.483  0.7693 -0.3399  0.0059
 2391TIP3    H128732   0.868   0.411   1.529  0.4600 -0.2195 -0.5894
 2391TIP3    H228733   1.013   0.439   1.496  0.2517  0.4424 -0.9594
 2392TIP3   OH228734   0.915   6.145   8.467 -0.5893 -0.1607 -0.1502
 2392TIP3    H128735   0.857   6.118   8.397  0.6418 -2.2530 -0.4547
 2392TIP3    H228736   0.962   6.065   8.492 -0.7750  0.5410  2.8768
 2393TIP3   OH228737   3.941   5.831   0.233  0.2321  0.9816  0.3089
 2393TIP3    H128738   3.957   5.922   0.209 -0.6938  0.8417 -0.9233
 2393TIP3    H228739   3.846   5.822   0.232  0.3332 -0.4125 -1.3231
 2394TIP3   OH228740   2.253   3.041   2.596 -0.2671 -0.2012 -0.2814
 2394TIP3    H128741   2.253   2.968   2.534 -0.2796  0.0659 -0.6025
 2394TIP3    H228742   2.175   3.028   2.649 -0.3273 -0.3635 -0.4101
 2395TIP3   OH228743   3.102   5.495   8.525  0.1246  0.1709 -0.2407
 2395TIP3    H128744   3.067   5.419   8.479 -2.5261 -0.2001  2.1092
 2395TIP3    H228745   3.195   5.476   8.536 -0.2266 -2.1373 -0.8349
 2396TIP3   OH228746   0.613   2.344   0.742 -0.1658  0.4457  0.3559
 2396TIP3    H128747   0.605   2.415   0.679  0.2205  1.3459  1.2954
 2396TIP3    H228748   0.523   2.322   0.765 -0.3049  0.2075 -0.3813
 2397TIP3   OH228749   1.762   6.582   8.604 -0.2681 -0.0705  0.0823
 2397TIP3    H128750   1.844   6.581   8.555  1.6896  0.8954  3.0822
 2397TIP3    H228751   1.756   6.494   8.640  0.1379  0.2157  0.8676
 2398TIP3   OH228752   5.547   6.605   8.697 -0.0506  0.1366  0.2072
 2398TIP3    H128753   5.613   6.650   8.749 -0.1391 -0.1279  0.5570
 2398TIP3    H228754   5.591   6.526   8.666  0.0202  0.3248 -0.1724
 2399TIP3   OH228755   3.134   2.084   1.612  0.3515  0.4929 -0.1216
 2399TIP3    H128756   3.143   2.116   1.702  0.1755 -0.1614  0.1321
 2399TIP3    H228757   3.039   2.082   1.597  0.2005 -2.1471  0.7055
 2400TIP3   OH228758   6.633   0.830   1.531  0.3108 -0.0895 -0.1448
 2400TIP3    H128759   6.662   0.795   1.447 -1.6820 -1.1813 -0.4560
 2400TIP3    H228760   6.630   0.925   1.517  1.4396 -0.1257 -0.7907
 2401TIP3   OH228761   2.460   5.953   2.634 -0.1436 -0.6175  0.0935
 2401TIP3    H128762   2.534   5.984   2.687  0.1624 -0.7298 -0.2721
 2401TIP3    H228763   2.481   5.979   2.545 -0.6394 -0.4772  0.0134
 2402TIP3   OH228764   6.148   3.191   1.501 -0.4004  0.7230 -0.2280
 2402TIP3    H128765   6.211   3.255   1.470 -1.0180  1.9888  1.0169
 2402TIP3    H228766   6.196   3.108   1.502  1.7155  1.8567  1.9544
 2403TIP3   OH228767   3.081   4.177   0.985 -0.3111 -0.3666 -0.3376
 2403TIP3    H128768   3.021   4.200   1.056  2.0743 -0.8454  1.9565
 2403TIP3    H228769   3.151   4.128   1.027  0.4827 -1.9925 -3.2931
 2404TIP3   OH228770   2.195   0.458   2.242  0.1863  0.0936 -0.6058
 2404TIP3    H128771   2.286   0.450   2.272 -0.5787 -0.8885  1.7219
 2404TIP3    H228772   2.193   0.538   2.190  1.9520  1.3417  1.1208
 2405TIP3   OH228773   3.071   6.650   8.108 -0.3704 -0.0054  0.3756
 2405TIP3    H128774   3.150   6.703   8.118 -0.5546 -0.0509  2.6242
 2405TIP3    H228775   3.037   6.673   8.022 -0.8950  4.1596  1.4997
 2406TIP3   OH228776   5.963   1.043   8.889 -0.0315  0.1478  0.3563
 2406TIP3    H128777   5.989   1.128   8.924  1.5437 -0.1525 -0.0475
 2406TIP3    H228778   5.872   1.056   8.860  0.8452  2.3324 -1.6707
 2407TIP3   OH228779   1.368   4.663   1.168  0.5797  0.4277 -0.1771
 2407TIP3    H128780   1.357   4.666   1.263  2.2040  0.5231  0.0322
 2407TIP3    H228781   1.289   4.619   1.136 -0.8711  2.0625  1.0221
 2408TIP3   OH228782   1.919   1.180   0.724 -0.7130 -0.0041 -0.6706
 2408TIP3    H128783   1.945   1.096   0.762  0.1810  0.3388 -0.4936
 2408TIP3    H228784   1.835   1.200   0.766 -0.2233 -0.1078  0.4059
 2409TIP3   OH228785   3.939   5.595   1.842 -0.2841 -0.4901 -0.3851
 2409TIP3    H128786   3.895   5.616   1.924 -0.1414  0.2135 -0.4855
 2409TIP3    H228787   3.868   5.584   1.779 -0.4124 -1.3205 -0.1153
 2410TIP3   OH228788   2.423   2.398   0.061  0.3936  0.1190 -0.4921
 2410TIP3    H128789   2.484   2.324   0.062 -0.4936 -0.6141  0.0553
 2410TIP3    H228790   2.478   2.473   0.083  0.9499 -0.6602  0.9201
 2411TIP3   OH228791   2.097   2.827   7.898 -0.2879 -0.2501 -0.6409
 2411TIP3    H128792   2.178   2.793   7.935 -1.7965 -1.6058  1.6283
 2411TIP3    H228793   2.111   2.922   7.892  1.5450 -0.4993 -0.5937
 2412TIP3   OH228794   4.231   0.338   2.009  0.1121 -0.0614 -0.1446
 2412TIP3    H128795   4.279   0.381   1.938  0.1710 -0.1065 -0.1327
 2412TIP3    H228796   4.258   0.385   2.088 -1.7272  1.5201 -0.4039
 2413TIP3   OH228797   6.153   3.807   2.705 -0.0840  0.9647  0.1064
 2413TIP3    H128798   6.180   3.896   2.681  0.8526  1.0930  1.5873
 2413TIP3    H228799   6.183   3.795   2.795  0.6822 -1.2145 -0.3721
 2414TIP3   OH228800   1.904   4.637   1.270 -0.0778 -0.2033  0.1150
 2414TIP3    H128801   1.827   4.586   1.295 -0.7840 -0.0076 -1.5407
 2414TIP3    H228802   1.903   4.638   1.175  1.0511  1.2069  0.0746
 2415TIP3   OH228803   5.339   4.985   7.983 -0.1268 -0.4108 -0.1913
 2415TIP3    H128804   5.293   5.066   8.005 -0.0762 -0.3074 -0.4517
 2415TIP3    H228805   5.297   4.918   8.036 -0.6165 -0.3258 -0.4636
 2416TIP3   OH228806   0.203   5.404   2.113  0.4361  0.7386  0.0983
 2416TIP3    H128807   0.277   5.390   2.054 -0.3862  0.7303 -0.9361
 2416TIP3    H228808   0.244   5.414   2.199  1.8804  3.5157 -0.7894
 2417TIP3   OH228809   1.955   6.218   0.888  0.0918  0.4039  0.4396
 2417TIP3    H128810   2.013   6.277   0.840  0.6281 -0.3569  0.1339
 2417TIP3    H228811   1.882   6.273   0.917  0.8446  1.3219  0.6200
 2418TIP3   OH228812   4.898   0.281   0.727 -0.4527 -0.3013 -0.2771
 2418TIP3    H128813   4.951   0.343   0.675  1.8471 -1.1716  0.8881
 2418TIP3    H228814   4.900   0.316   0.816  0.0444 -1.4898  0.2053
 2419TIP3   OH228815   4.200   2.286   7.451  0.2624  0.7069 -0.2135
 2419TIP3    H128816   4.116   2.248   7.473 -0.2841  1.2956 -1.1947
 2419TIP3    H228817   4.258   2.212   7.435 -0.6408  0.2510 -1.5803
 2420TIP3   OH228818   6.457   1.485   2.346 -0.3332  0.5272  0.5679
 2420TIP3    H128819   6.469   1.402   2.392  0.7380  0.4023  0.0970
 2420TIP3    H228820   6.539   1.498   2.299 -1.6521  0.2495 -1.9720
 2421TIP3   OH228821   0.916   0.918   1.749  0.4955  0.3944  0.5123
 2421TIP3    H128822   0.939   0.900   1.658  1.3097 -0.2168  0.8310
 2421TIP3    H228823   0.913   1.014   1.754  1.8124  0.4747  0.1642
 2422TIP3   OH228824   5.569   6.293   2.859 -0.0526 -0.4853  0.1186
 2422TIP3    H128825   5.577   6.384   2.889  1.8478 -0.2211 -1.0017
 2422TIP3    H228826   5.510   6.253   2.922 -0.3504  1.3423  1.0906
 2423TIP3   OH228827   0.006   4.793   2.672  0.0361 -0.3789  0.3509
 2423TIP3    H128828   0.019   4.872   2.724  0.8592  0.2835 -0.8006
 2423TIP3    H228829   0.083   4.738   2.692  1.4635  0.7674 -1.6403
 2424TIP3   OH228830   2.398   3.014   1.176 -0.1683 -0.4332  0.6369
 2424TIP3    H128831   2.360   3.079   1.235 -1.5472 -0.3688 -0.2858
 2424TIP3    H228832   2.418   2.939   1.233 -1.6322 -0.4435  1.1687
 2425TIP3   OH228833   3.928   4.950   1.890  0.4325  0.0090 -0.1041
 2425TIP3    H128834   3.929   4.992   1.976 -1.4710  0.2610 -0.1548
 2425TIP3    H228835   3.855   4.992   1.844  0.9130 -0.6923 -1.5477
 2426TIP3   OH228836   3.225   1.494   2.798 -0.3860  0.0588  0.5352
 2426TIP3    H128837   3.264   1.408   2.812 -0.5827 -0.2934 -0.9225
 2426TIP3    H228838   3.181   1.515   2.880 -0.2685 -1.1954  0.9292
 2427TIP3   OH228839   5.435   5.620   7.565 -0.1456 -0.7415  0.7827
 2427TIP3    H128840   5.367   5.615   7.632 -0.8070  0.6456  0.2491
 2427TIP3    H228841   5.516   5.638   7.614 -0.6321  0.3355  1.2036
 2428TIP3   OH228842   3.965   4.105   7.647 -0.6125  0.1750 -0.0104
 2428TIP3    H128843   4.017   4.066   7.717 -0.9757 -1.0283 -0.4020
 2428TIP3    H228844   3.970   4.042   7.575 -1.3853  0.7545 -0.5866
 2429TIP3   OH228845   1.008   6.294   8.706  0.0182  0.1910  0.0852
 2429TIP3    H128846   0.949   6.298   8.630  1.9019 -0.2244 -1.4635
 2429TIP3    H228847   1.049   6.208   8.700  0.6501  0.3975  1.2309
 2430TIP3   OH228848   1.678   5.359   8.439 -0.2037  0.1370 -0.3431
 2430TIP3    H128849   1.756   5.380   8.490 -0.1777 -0.3192 -0.1929
 2430TIP3    H228850   1.669   5.264   8.445 -0.5834  0.1480 -0.6317
 2431TIP3   OH228851   3.036   6.226   8.600 -0.0368  0.3345  0.3007
 2431TIP3    H128852   2.976   6.260   8.666  2.1276  1.2346  1.8924
 2431TIP3    H228853   3.056   6.137   8.629  0.0830  0.3349  0.2189
 2432TIP3   OH228854   2.100   5.503   1.707 -0.1056 -0.2452  0.5728
 2432TIP3    H128855   2.104   5.503   1.803  3.2608 -2.1349  0.6094
 2432TIP3    H228856   2.027   5.445   1.686  1.3208 -2.8050  2.1773
 2433TIP3   OH228857   5.322   3.223   0.928  0.5229  0.0404 -0.2192
 2433TIP3    H128858   5.311   3.221   0.833  0.0104  1.6940 -0.2300
 2433TIP3    H228859   5.374   3.146   0.948 -2.0054 -2.1250 -1.4599
 2434TIP3   OH228860   5.672   6.521   1.627  0.7606 -0.3523  0.8790
 2434TIP3    H128861   5.659   6.600   1.575  2.0932 -0.9256 -0.3796
 2434TIP3    H228862   5.688   6.452   1.563  1.4714 -1.2771  2.0106
 2435TIP3   OH228863   0.981   4.650   8.110  0.2650 -0.9979  0.3504
 2435TIP3    H128864   0.977   4.697   8.193 -0.3596 -0.8971  0.2713
 2435TIP3    H228865   1.070   4.664   8.078  0.2076 -0.1984  0.5157
 2436TIP3   OH228866   6.458   5.482   3.446  0.1042 -0.3178 -0.0936
 2436TIP3    H128867   6.522   5.546   3.477  2.2000 -1.7951 -1.1803
 2436TIP3    H228868   6.399   5.533   3.391  0.9081  0.9193  0.1366
 2437TIP3   OH228869   5.329   6.091   8.661  0.1371  0.1015  0.0904
 2437TIP3    H128870   5.279   6.015   8.690  1.4135 -1.3048 -1.2261
 2437TIP3    H228871   5.317   6.156   8.731 -1.5213 -1.0392  0.9280
 2438TIP3   OH228872   2.129   1.193   0.047 -0.0503 -0.0156 -0.3628
 2438TIP3    H128873   2.046   1.153   0.021 -1.0886  1.7991 -0.0332
 2438TIP3    H228874   2.143   1.263  -0.017  1.5935 -0.6992 -0.8035
 2439TIP3   OH228875   1.289   1.175   8.692  0.0787 -0.1099  0.1041
 2439TIP3    H128876   1.242   1.106   8.646 -2.5993  1.1576  0.7155
 2439TIP3    H228877   1.280   1.153   8.784 -0.2862  0.6843  0.2732
 2440TIP3   OH228878   3.336   3.687   1.258  0.1451 -0.0243  0.1993
 2440TIP3    H128879   3.310   3.687   1.166  1.1106 -0.6962 -0.0856
 2440TIP3    H228880   3.256   3.666   1.305  0.1561 -2.1938 -0.6547
 2441TIP3   OH228881   2.761   6.495   2.264 -0.1003  0.1885 -0.3899
 2441TIP3    H128882   2.812   6.494   2.344 -1.7166  0.9614  0.7056
 2441TIP3    H228883   2.670   6.485   2.293 -0.8001  1.3074 -2.0435
 2442TIP3   OH228884   1.780   5.801   7.958  0.1219 -0.6037  0.6304
 2442TIP3    H128885   1.723   5.771   8.029  1.1068 -0.8573  1.3378
 2442TIP3    H228886   1.869   5.791   7.992  0.5702  1.7780  0.3816
 2443TIP3   OH228887   5.082   1.373   8.106 -0.4266  0.3633 -0.0556
 2443TIP3    H128888   5.074   1.349   8.199  0.4637  0.0072 -0.0598
 2443TIP3    H228889   5.047   1.462   8.101  2.1250  1.5634  1.1914
 2444TIP3   OH228890   1.138   4.322   3.099  0.3494 -0.7573 -0.0153
 2444TIP3    H128891   1.207   4.256   3.108  1.4665  0.6130  2.6447
 2444TIP3    H228892   1.064   4.286   3.148  0.3516 -0.7802 -0.0292
 2445TIP3   OH228893   2.966   3.674   0.660 -0.1361 -0.4049  0.0939
 2445TIP3    H128894   2.912   3.697   0.736  0.5855  0.5624  0.3352
 2445TIP3    H228895   3.041   3.733   0.666  0.6222 -1.2749 -0.5974
 2446TIP3   OH228896   0.504   3.574   8.279  0.3448 -0.0566  0.0554
 2446TIP3    H128897   0.528   3.649   8.225  1.1476 -0.7565 -0.5862
 2446TIP3    H228898   0.446   3.610   8.346  1.3493  1.2846  0.2400
 2447TIP3   OH228899   2.003   2.425   7.632 -0.7746  0.3527  0.2975
 2447TIP3    H128900   2.097   2.417   7.617 -1.0024  0.6532 -1.5645
 2447TIP3    H228901   1.987   2.519   7.635 -1.1956  0.3472 -0.9795
 2448TIP3   OH228902   2.700   5.850   7.886 -0.2265  0.0065  0.0706
 2448TIP3    H128903   2.650   5.769   7.879  0.0030 -0.0950 -0.3742
 2448TIP3    H228904   2.783   5.823   7.925 -0.9958  0.3686  2.1490
 2449TIP3   OH228905   2.371   5.198   1.331 -0.5131  0.5679  0.3206
 2449TIP3    H128906   2.381   5.289   1.357  1.2633  0.4418  0.2112
 2449TIP3    H228907   2.281   5.176   1.352 -0.7303  2.1101  1.0958
 2450TIP3   OH228908   6.561   6.666   2.678 -0.3407 -0.2162 -0.3150
 2450TIP3    H128909   6.556   6.571   2.677 -1.0948 -0.1897 -1.7506
 2450TIP3    H228910   6.482   6.695   2.724  0.4937 -0.2686  1.2342
 2451TIP3   OH228911   1.543   6.656   8.770  0.0805 -0.8810 -0.5631
 2451TIP3    H128912   1.569   6.710   8.845 -0.5698 -0.9335 -0.2900
 2451TIP3    H228913   1.625   6.633   8.727  0.4016 -0.1857 -0.3257
 2452TIP3   OH228914   0.370   6.546   0.517  0.5987 -0.4898  0.5438
 2452TIP3    H128915   0.463   6.527   0.528  1.1336  1.1808 -0.5753
 2452TIP3    H228916   0.368   6.639   0.494 -1.2421 -0.7828 -0.6949
 2453TIP3   OH228917   2.523   3.038   8.756  0.0811 -0.1386 -0.0429
 2453TIP3    H128918   2.430   3.061   8.759  0.1879  0.5401 -1.4086
 2453TIP3    H228919   2.529   2.972   8.687  0.4804 -1.0020  0.7781
 2454TIP3   OH228920   1.199   0.524   2.609 -0.4474  0.3128  0.2584
 2454TIP3    H128921   1.281   0.563   2.577 -0.6072  0.3881 -0.0555
 2454TIP3    H228922   1.171   0.584   2.679 -0.8169  0.9067 -0.3800
 2455TIP3   OH228923   3.129   5.563   2.083  0.4634  0.4678  0.0334
 2455TIP3    H128924   3.068   5.494   2.109  0.9634  0.3829  0.9986
 2455TIP3    H228925   3.104   5.584   1.993  0.1562 -0.8094 -0.1966
 2456TIP3   OH228926   1.666   1.805   1.870 -0.0288  0.2717 -0.2417
 2456TIP3    H128927   1.703   1.767   1.791  0.2702 -0.3568  0.1905
 2456TIP3    H228928   1.741   1.845   1.915 -0.0683 -0.0183  0.0852
 2457TIP3   OH228929   5.961   2.062   7.860 -0.1095  0.1643 -0.9448
 2457TIP3    H128930   5.952   2.006   7.783 -1.3687 -2.5118  0.9699
 2457TIP3    H228931   6.049   2.098   7.854  0.6198 -1.6962 -2.5667
 2458TIP3   OH228932   2.300   1.522   1.630  0.4233 -0.2614  0.2865
 2458TIP3    H128933   2.357   1.542   1.704 -0.2816 -0.6621  0.9608
 2458TIP3    H228934   2.255   1.441   1.656  0.2744 -0.4967 -0.6496
 2459TIP3   OH228935   4.569   0.523   7.298  0.3393  0.0446 -0.2997
 2459TIP3    H128936   4.493   0.484   7.255 -0.0798  1.7372 -1.1980
 2459TIP3    H228937   4.536   0.550   7.384  0.4370 -0.8906  0.0366
 2460TIP3   OH228938   4.480   0.374   2.337 -0.0741  0.1592  0.9239
 2460TIP3    H128939   4.574   0.370   2.317 -0.5177  1.5705 -2.0816
 2460TIP3    H228940   4.440   0.312   2.277 -1.2741  1.8268 -0.0872
 2461TIP3   OH228941   1.859   2.032   0.352 -0.1799 -0.5790  0.1828
 2461TIP3    H128942   1.922   1.965   0.378 -0.1526 -1.2806 -1.5540
 2461TIP3    H228943   1.910   2.096   0.303 -0.6718 -0.7454 -0.5635
 2462TIP3   OH228944   6.258   2.400   8.831  0.0892  0.1669 -0.3452
 2462TIP3    H128945   6.257   2.415   8.925  0.5603 -1.2594 -0.0898
 2462TIP3    H228946   6.326   2.460   8.798 -0.3380  0.9422  0.1500
 2463TIP3   OH228947   3.784   1.998   8.251  0.4365 -0.0832 -0.2524
 2463TIP3    H128948   3.834   2.072   8.284 -1.3407  1.2571 -0.4018
 2463TIP3    H228949   3.703   2.037   8.218 -0.5660 -2.0968 -0.3113
 2464TIP3   OH228950   3.522   1.720   1.344 -0.2868 -0.1255 -0.4619
 2464TIP3    H128951   3.560   1.783   1.282 -0.1262 -0.5206 -0.7645
 2464TIP3    H228952   3.432   1.750   1.356  0.3857  1.4349  1.0540
 2465TIP3   OH228953   2.070   6.198   1.506  0.0540 -0.9174 -0.6208
 2465TIP3    H128954   1.977   6.196   1.527  0.3032  2.3602  1.4420
 2465TIP3    H228955   2.114   6.202   1.591  1.7205  2.5686 -1.4639
 2466TIP3   OH228956   0.390   6.719   0.028  0.3348 -0.2090  0.2178
 2466TIP3    H128957   0.336   6.783  -0.018 -0.9868 -0.7252  0.9828
 2466TIP3    H228958   0.384   6.640  -0.026 -1.2083 -0.8118  1.2042
 2467TIP3   OH228959   0.637   2.769   3.328 -0.5287 -0.2994 -0.2850
 2467TIP3    H128960   0.709   2.824   3.357 -1.7059  0.4731  1.3088
 2467TIP3    H228961   0.594   2.819   3.259 -3.3543  2.3533  3.0607
 2468TIP3   OH228962   6.071   2.179   1.342 -0.3439  0.1036  0.0483
 2468TIP3    H128963   6.111   2.092   1.340  0.4730  0.4232  1.3696
 2468TIP3    H228964   5.977   2.163   1.335 -0.2546 -0.9470  1.0702
 2469TIP3   OH228965   2.279   4.051   1.317 -0.3438 -0.1561  0.0961
 2469TIP3    H128966   2.242   3.963   1.314 -2.2928  0.5816  1.0751
 2469TIP3    H228967   2.274   4.077   1.409 -1.4024  1.6071 -0.4040
 2470TIP3   OH228968   5.855   4.589   2.811  0.5243  0.1541  0.0720
 2470TIP3    H128969   5.869   4.513   2.755  1.2153  1.0144 -0.9376
 2470TIP3    H228970   5.761   4.587   2.830  0.2452 -0.0694 -1.2336
 2471TIP3   OH228971   0.553   1.669   2.500  0.4485  0.3183 -0.0795
 2471TIP3    H128972   0.513   1.623   2.574 -0.2599 -2.9728 -2.3142
 2471TIP3    H228973   0.645   1.677   2.523  0.1337 -0.0480  1.3950
 2472TIP3   OH228974   2.833   5.273   0.143  0.0800 -0.3259 -0.7871
 2472TIP3    H128975   2.880   5.355   0.136  1.9241 -1.4203 -2.1013
 2472TIP3    H228976   2.894   5.214   0.189 -1.4012 -0.8470  0.6157
 2473TIP3   OH228977   6.351   0.484   8.481  0.2101  0.3304 -0.1770
 2473TIP3    H128978   6.368   0.433   8.560  2.4084  0.3476 -0.5612
 2473TIP3    H228979   6.256   0.488   8.474 -0.0338  0.1183  2.3150
 2474TIP3   OH228980   4.337   1.987   7.906 -0.2945 -0.5024 -0.2749
 2474TIP3    H128981   4.355   1.968   7.998 -0.2833 -1.4058 -0.4554
 2474TIP3    H228982   4.385   1.920   7.857  0.5056  0.5566 -0.9958
 2475TIP3   OH228983   0.099   2.932   1.977 -0.1362 -0.0522  0.9022
 2475TIP3    H128984   0.150   2.947   1.897  0.5053 -0.7252  1.1728
 2475TIP3    H228985   0.018   2.982   1.964 -0.3779 -0.7563 -0.4895
 2476TIP3   OH228986   1.541   6.673   2.417  0.0517  0.2730  0.5673
 2476TIP3    H128987   1.551   6.581   2.393  0.2182  0.4020  0.1388
 2476TIP3    H228988   1.499   6.671   2.503  1.6230 -0.2242  1.3422
 2477TIP3   OH228989   5.825   1.445   0.764 -0.0444  0.3075 -0.3425
 2477TIP3    H128990   5.735   1.426   0.739  0.0453 -1.0628  0.2998
 2477TIP3    H228991   5.826   1.434   0.859  0.7527  0.5071 -0.3212
 2478TIP3   OH228992   6.505   1.347   8.705 -0.2357  0.4294  0.8669
 2478TIP3    H128993   6.449   1.370   8.779 -0.1691 -1.6511  1.6195
 2478TIP3    H228994   6.516   1.252   8.711 -0.1345  0.1941 -1.7530
 2479TIP3   OH228995   4.327   1.079   0.238 -0.1105  0.4710  0.4619
 2479TIP3    H128996   4.324   1.141   0.165 -0.2234  0.9050  0.8298
 2479TIP3    H228997   4.347   0.995   0.197  2.6212  1.1449  0.1980
 2480TIP3   OH228998   5.445   6.097   1.632  0.2626 -0.6506 -0.4505
 2480TIP3    H128999   5.372   6.039   1.655 -0.0475  1.3270  5.0086
 2480TIP3    H229000   5.523   6.050   1.661  0.8137 -0.9537 -2.2752
 2481TIP3   OH229001   2.073   3.590   0.121  0.4521 -0.3306 -0.0021
 2481TIP3    H129002   1.996   3.613   0.173 -0.0669  1.5249 -1.5094
 2481TIP3    H229003   2.059   3.498   0.097  0.7554 -1.3170  3.0807
 2482TIP3   OH229004   2.100   3.847   1.222 -1.2387  0.3722 -0.5097
 2482TIP3    H129005   2.132   3.905   1.152 -0.6601 -0.2014 -0.7295
 2482TIP3    H229006   2.005   3.858   1.221 -1.2831 -0.0165 -1.7402
 2483TIP3   OH229007   5.947   2.834   0.263  0.4796 -0.1643 -0.4707
 2483TIP3    H129008   6.009   2.870   0.327  2.8119 -2.0602 -1.5086
 2483TIP3    H229009   5.887   2.781   0.316 -0.2638  1.6142  0.5501
 2484TIP3   OH229010   3.600   1.307   8.267  0.1413 -0.4543 -0.5039
 2484TIP3    H129011   3.570   1.276   8.353  0.6284 -1.2305 -0.6051
 2484TIP3    H229012   3.568   1.397   8.262  0.9966 -0.0314  0.9269
 2485TIP3   OH229013   3.528   0.163   1.862 -0.0345 -1.2433  0.5795
 2485TIP3    H129014   3.481   0.218   1.799  2.1916  0.9313  0.7082
 2485TIP3    H229015   3.505   0.073   1.836 -1.7104 -0.3604 -1.2775
 2486TIP3   OH229016   2.343   6.685   7.861 -0.7399 -0.6980 -0.1688
 2486TIP3    H129017   2.279   6.750   7.887  0.5445  1.0111 -1.0432
 2486TIP3    H229018   2.411   6.688   7.929  0.2608  0.3121 -1.1654
 2487TIP3   OH229019   4.431   3.961   9.004 -0.3736  0.0848 -0.0945
 2487TIP3    H129020   4.410   3.985   9.094 -2.5956 -1.9392  0.0158
 2487TIP3    H229021   4.348   3.934   8.966  1.2769 -4.5979 -0.9686
 2488TIP3   OH229022   5.910   0.680   8.802  0.2387  0.5751 -0.4537
 2488TIP3    H129023   5.893   0.755   8.859  2.7482 -0.4416  1.8913
 2488TIP3    H229024   5.972   0.626   8.852 -0.9221 -2.7529 -2.3017
 2489TIP3   OH229025   5.522   3.492   1.233  0.0070  0.1824  0.5044
 2489TIP3    H129026   5.540   3.490   1.139  0.0943  3.4598  0.3259
 2489TIP3    H229027   5.605   3.514   1.274 -0.0551 -1.1015  1.3890
 2490TIP3   OH229028   5.654   0.463   2.080  0.1025  0.4093  0.0339
 2490TIP3    H129029   5.734   0.478   2.130 -0.7431 -1.7511  2.2742
 2490TIP3    H229030   5.659   0.370   2.055 -0.4582  0.9333 -2.2706
 2491TIP3   OH229031   5.135   5.408   0.628  0.3292 -0.6023 -0.1550
 2491TIP3    H129032   5.200   5.464   0.670  1.2672 -0.9020 -1.1562
 2491TIP3    H229033   5.056   5.461   0.624  0.6059 -0.1021  0.7734
 2492TIP3   OH229034   3.904   4.346   8.030  0.4774 -0.3494 -0.0490
 2492TIP3    H129035   3.925   4.405   8.103  1.5699  1.4567 -1.7116
 2492TIP3    H229036   3.965   4.273   8.039 -0.4357 -0.9719  1.6596
 2493TIP3   OH229037   1.582   6.451   8.232  0.0742  0.0465  0.6080
 2493TIP3    H129038   1.534   6.455   8.315  0.7957 -0.8036  1.0870
 2493TIP3    H229039   1.621   6.363   8.232 -0.0636 -0.0341 -0.7177
 2494TIP3   OH229040   5.410   1.797   3.440 -0.4021 -0.1682  0.4453
 2494TIP3    H129041   5.372   1.742   3.371 -0.3737 -0.9340  1.0253
 2494TIP3    H229042   5.435   1.877   3.395  2.8705 -1.9169 -1.2242
 2495TIP3   OH229043   4.975   3.786   2.455 -0.5709 -0.1225 -0.0872
 2495TIP3    H129044   5.065   3.765   2.482 -0.2975  0.6413 -0.3675
 2495TIP3    H229045   4.942   3.705   2.416 -1.1310 -1.4448  2.8242
 2496TIP3   OH229046   4.542   4.734   2.088 -0.9841 -0.3377  0.1480
 2496TIP3    H129047   4.523   4.727   1.994 -1.4048 -0.6293  0.2561
 2496TIP3    H229048   4.638   4.738   2.092 -0.9630 -0.2969 -0.2946
 2497TIP3   OH229049   6.146   4.823   1.318  0.2215 -0.1428 -0.5455
 2497TIP3    H129050   6.067   4.869   1.346  0.6709 -0.3685  1.2070
 2497TIP3    H229051   6.215   4.858   1.375  0.8468 -1.9779 -0.1181
 2498TIP3   OH229052   5.441   2.524   1.963  0.1587 -0.0017  0.0927
 2498TIP3    H129053   5.405   2.612   1.945 -0.1726 -0.2695 -0.6159
 2498TIP3    H229054   5.489   2.502   1.884 -1.0074 -1.0638 -0.3578
 2499TIP3   OH229055   2.858   6.562   8.641  0.0434 -0.1563  0.1274
 2499TIP3    H129056   2.847   6.649   8.604  1.3098  0.3760  0.9273
 2499TIP3    H229057   2.836   6.502   8.570  0.9746  0.8236 -1.0187
 2500TIP3   OH229058   1.496   4.783   8.928  0.7023 -0.1192 -0.3782
 2500TIP3    H129059   1.534   4.822   9.007 -0.7225  0.4570  0.0630
 2500TIP3    H229060   1.407   4.758   8.954  0.1417  0.2318 -1.8325
 2501TIP3   OH229061   5.593   0.846   7.872 -0.1437  0.0004  0.4708
 2501TIP3    H129062   5.644   0.921   7.843  0.3984 -0.2074  0.8646
 2501TIP3    H229063   5.508   0.857   7.830 -0.3477  1.2709  1.1707
 2502TIP3   OH229064   4.742   1.474   7.921  0.2709 -0.1889  0.5782
 2502TIP3    H129065   4.687   1.527   7.862  1.1331  0.3746  0.2693
 2502TIP3    H229066   4.738   1.520   8.005  0.4988  0.0016  0.4828
 2503TIP3   OH229067   2.327   1.438   2.606 -0.4857  0.2348  0.0717
 2503TIP3    H129068   2.322   1.344   2.590 -0.1980  0.4931 -1.7712
 2503TIP3    H229069   2.401   1.448   2.665 -0.3359 -0.6731  0.0539
 2504TIP3   OH229070   5.164   0.211   3.026 -0.4614 -0.1408 -0.3480
 2504TIP3    H129071   5.214   0.217   2.944  1.6447 -0.8375  0.8025
 2504TIP3    H229072   5.205   0.277   3.083 -3.2755  1.8637 -0.4435
 2505TIP3   OH229073   5.431   1.792   2.068  0.0543  0.2313 -0.0100
 2505TIP3    H129074   5.364   1.782   2.135  0.0862  1.9378  0.3185
 2505TIP3    H229075   5.511   1.811   2.116  0.7244 -1.3722 -0.4245
 2506TIP3   OH229076   4.389   1.996   0.702 -0.1764  0.1319  0.1583
 2506TIP3    H129077   4.325   1.933   0.669  1.0825 -0.1447 -2.0073
 2506TIP3    H229078   4.401   2.057   0.629  2.1586  0.0018  0.3552
 2507TIP3   OH229079   3.697   6.338   1.892  0.0023 -0.0648 -0.1293
 2507TIP3    H129080   3.603   6.349   1.899 -0.6396 -3.4076 -1.4236
 2507TIP3    H229081   3.718   6.364   1.802 -0.1553 -1.3446 -0.5700
 2508TIP3   OH229082   0.487   6.404   2.545  0.3094  0.1220 -0.3602
 2508TIP3    H129083   0.498   6.490   2.504  0.4385 -0.2222 -1.0677
 2508TIP3    H229084   0.427   6.420   2.618  0.2059  0.7837 -0.5818
 2509TIP3   OH229085   3.525   3.982   0.186  0.3628  0.2364  0.8929
 2509TIP3    H129086   3.561   4.038   0.255 -0.0134  0.7607  0.6768
 2509TIP3    H229087   3.433   3.969   0.212 -0.1926  1.6232 -0.2084
 2510TIP3   OH229088   5.649   4.618   0.243 -0.6126 -0.2941 -0.1197
 2510TIP3    H129089   5.574   4.658   0.198  0.5901 -0.2264 -2.1335
 2510TIP3    H229090   5.698   4.693   0.277  0.2071 -0.1381 -1.5719
 2511TIP3   OH229091   3.967   3.831   8.677 -0.5164  0.1944 -0.4248
 2511TIP3    H129092   3.921   3.747   8.667 -0.2365 -0.3350  1.9633
 2511TIP3    H229093   4.060   3.808   8.668 -0.4227  0.1537  0.4934
 2512TIP3   OH229094   0.213   3.321   8.594 -0.1112  0.5343  0.4521
 2512TIP3    H129095   0.155   3.247   8.614  0.6391  0.3948  2.4197
 2512TIP3    H229096   0.206   3.333   8.500 -1.5482 -0.9597  0.3251
 2513TIP3   OH229097   3.758   4.269   7.679  0.2186 -0.3050 -0.0251
 2513TIP3    H129098   3.845   4.229   7.682 -0.4137 -1.7209  0.0799
 2513TIP3    H229099   3.774   4.356   7.642  1.7957 -0.1816  0.8258
 2514TIP3   OH229100   2.235   1.361   8.878  0.0447  0.1149 -0.5563
 2514TIP3    H129101   2.245   1.340   8.785  0.7984  0.1279 -0.4824
 2514TIP3    H229102   2.320   1.397   8.904 -0.8452  2.3443 -0.4381
 2515TIP3   OH229103   2.817   1.407   0.181  0.1045  0.7221 -0.0782
 2515TIP3    H129104   2.855   1.443   0.261  0.9592  1.3977 -0.7660
 2515TIP3    H229105   2.772   1.480   0.139  1.3436  0.8979 -1.1823
 2516TIP3   OH229106   6.040   2.000   1.886 -0.2416  0.7502  0.1256
 2516TIP3    H129107   6.135   1.994   1.879 -0.0758 -0.6166  2.4886
 2516TIP3    H229108   6.011   2.029   1.800  2.3156  1.3507 -0.6057
 2517TIP3   OH229109   0.482   0.537   1.523  0.0745  0.5953  0.3585
 2517TIP3    H129110   0.570   0.562   1.549  0.5035 -1.3124  0.8678
 2517TIP3    H229111   0.428   0.558   1.599  0.2854  0.7077  0.4790
 2518TIP3   OH229112   1.269   3.959   8.713 -0.0703 -0.0215  0.2587
 2518TIP3    H129113   1.287   4.020   8.642  1.9335 -0.3875  0.3895
 2518TIP3    H229114   1.355   3.921   8.734 -0.9173 -1.2737  1.6301
 2519TIP3   OH229115   3.093   2.709   0.167 -0.4633  0.0122 -0.4891
 2519TIP3    H129116   3.137   2.701   0.251  0.1334 -0.1713 -0.8132
 2519TIP3    H229117   3.121   2.632   0.117 -2.0724 -0.7552 -0.2969
 2520TIP3   OH229118   1.967   6.611   8.419 -0.5285  0.0174 -0.2009
 2520TIP3    H129119   2.025   6.536   8.407 -1.6085 -1.3871  2.4480
 2520TIP3    H229120   2.010   6.683   8.372  1.6255 -1.7353 -1.0767
 2521TIP3   OH229121   3.178   6.322   7.907 -0.0877  0.3343 -0.3424
 2521TIP3    H129122   3.179   6.239   7.955 -0.4970  1.2380  1.2735
 2521TIP3    H229123   3.270   6.347   7.902 -0.0009 -0.0004 -0.4729
 2522TIP3   OH229124   4.434   4.225   8.504 -0.0080 -0.0820  0.3646
 2522TIP3    H129125   4.441   4.276   8.585  0.4251 -0.4357  0.5585
 2522TIP3    H229126   4.340   4.224   8.485 -0.2783 -1.0994  1.5986
 2523TIP3   OH229127   4.689   2.943   2.991  0.7344 -0.5743  0.7800
 2523TIP3    H129128   4.623   2.969   3.055  2.0005  2.6554  0.9903
 2523TIP3    H229129   4.758   2.902   3.043  0.9179  0.3078  1.2544
 2524TIP3   OH229130   2.681   0.262   1.031  0.3942  0.0186  0.2955
 2524TIP3    H129131   2.743   0.335   1.044 -0.1845  0.3622  1.2271
 2524TIP3    H229132   2.677   0.251   0.936  2.3650 -0.4413  0.2222
 2525TIP3   OH229133   6.572   0.097   1.884 -0.0392 -0.1824  0.3780
 2525TIP3    H129134   6.477   0.102   1.878  0.0395  0.5055 -0.4474
 2525TIP3    H229135   6.595   0.015   1.841 -0.0639  1.1007 -2.3216
 2526TIP3   OH229136   1.495   6.638   0.042 -0.1797  0.5004 -0.1136
 2526TIP3    H129137   1.575   6.587   0.029 -0.8249 -0.1161 -1.8773
 2526TIP3    H229138   1.520   6.705   0.107  2.6161  2.1674 -2.6542
 2527TIP3   OH229139   0.460   5.012   2.632 -0.3819 -0.1533  0.2632
 2527TIP3    H129140   0.386   5.058   2.672 -1.1487 -1.0143 -0.1476
 2527TIP3    H229141   0.499   5.078   2.574  0.6992  1.0928  2.2596
 2528TIP3   OH229142   3.093   3.345   8.472  0.1730  0.6868  0.3210
 2528TIP3    H129143   3.041   3.277   8.429  3.6952 -0.6146 -2.4305
 2528TIP3    H229144   3.089   3.323   8.565  0.3691 -2.8345 -0.3598
 2529TIP3   OH229145   1.440   3.102   8.571  0.1452 -0.6086 -0.2548
 2529TIP3    H129146   1.442   3.193   8.543 -0.3882 -0.4380  0.2558
 2529TIP3    H229147   1.483   3.054   8.500  3.1097  0.3512  0.7209
 2530TIP3   OH229148   2.000   3.332   1.010  0.2038  0.6550 -0.1663
 2530TIP3    H129149   2.037   3.265   0.953  1.2541 -0.0685  1.2948
 2530TIP3    H229150   2.053   3.410   0.993  2.3824 -0.2984  1.7129
 2531TIP3   OH229151   1.823   3.913   2.499  0.4611 -0.3496  0.2857
 2531TIP3    H129152   1.900   3.966   2.520  0.1753 -0.1069  0.7448
 2531TIP3    H229153   1.853   3.823   2.507  1.4013 -0.3138 -2.1130
 2532TIP3   OH229154   0.110   0.050   2.139  0.2200 -0.2167 -0.6217
 2532TIP3    H129155   0.051   0.124   2.151  1.4535  0.8734 -1.1226
 2532TIP3    H229156   0.123   0.016   2.228 -0.4105  0.1174 -0.3953
 2533TIP3   OH229157   4.232   6.174   3.205  0.3642 -0.4125 -0.2473
 2533TIP3    H129158   4.254   6.256   3.249 -0.5632 -0.2178 -0.1265
 2533TIP3    H229159   4.311   6.121   3.213  0.7959  0.2671  0.1396
 2534TIP3   OH229160   4.663   4.354   0.442  0.0354 -0.1650  0.1009
 2534TIP3    H129161   4.683   4.390   0.529 -3.0218 -1.6725  1.5740
 2534TIP3    H229162   4.600   4.415   0.404  3.0303  1.7568 -2.2374
 2535TIP3   OH229163   0.481   6.400   0.171 -0.0678 -0.2563 -0.2802
 2535TIP3    H129164   0.470   6.472   0.108 -0.6679  0.5810  0.7457
 2535TIP3    H229165   0.550   6.430   0.230 -0.3290 -0.5130  0.1621
 2536TIP3   OH229166   0.717   1.503   0.372 -0.2991  0.1492 -0.0494
 2536TIP3    H129167   0.764   1.551   0.304 -1.6956 -0.1889 -1.2980
 2536TIP3    H229168   0.783   1.444   0.409  0.8508  1.3603 -0.0720
 2537TIP3   OH229169   5.641   3.707   7.711  0.0512 -0.0143 -0.4484
 2537TIP3    H129170   5.584   3.686   7.785  1.1185  0.0172  0.3966
 2537TIP3    H229171   5.620   3.641   7.645  0.3416 -1.1445  0.5610
 2538TIP3   OH229172   1.986   5.635   1.398 -0.0412  0.5606  0.5370
 2538TIP3    H129173   1.897   5.663   1.421 -0.8816  1.5567 -3.2002
 2538TIP3    H229174   2.043   5.684   1.457 -1.9210  1.1690  1.9436
 2539TIP3   OH229175   5.714   6.438   0.893 -0.4991  0.1243 -0.0258
 2539TIP3    H129176   5.693   6.358   0.844  2.8585 -0.7652 -0.3110
 2539TIP3    H229177   5.720   6.408   0.984  0.7662 -0.0077 -0.1337
 2540TIP3   OH229178   5.119   6.122   1.707  0.3845 -0.3739 -1.4623
 2540TIP3    H129179   5.176   6.194   1.679 -0.2201  1.2760  1.1228
 2540TIP3    H229180   5.179   6.052   1.733  1.0879  0.0125 -2.0102
 2541TIP3   OH229181   1.045   5.619   0.129 -0.1903  0.1113 -0.3016
 2541TIP3    H129182   0.997   5.546   0.167  1.0250 -0.3592  0.3977
 2541TIP3    H229183   0.981   5.690   0.125 -0.4146  0.2246  2.7627
 2542TIP3   OH229184   3.069   1.726   7.866  0.5747 -0.8039  0.5083
 2542TIP3    H129185   3.130   1.706   7.794  1.6838 -0.0061  1.1910
 2542TIP3    H229186   3.005   1.655   7.864 -0.6204  0.2049 -2.5108
 2543TIP3   OH229187   2.567   5.987   3.346 -0.0398 -0.1243 -0.4519
 2543TIP3    H129188   2.534   5.904   3.382 -0.3148  0.3677  0.4702
 2543TIP3    H229189   2.638   5.961   3.288 -0.0783 -1.0058 -0.1318
 2544TIP3   OH229190   2.238   0.404   1.811  0.0033  0.0382  0.7195
 2544TIP3    H129191   2.236   0.382   1.718  0.1729  0.7406  0.5430
 2544TIP3    H229192   2.312   0.464   1.820  0.4302 -0.5743  1.4368
 2545TIP3   OH229193   5.215   3.058   2.618 -0.0172  0.5307 -0.1707
 2545TIP3    H129194   5.219   2.965   2.595 -0.1317  0.1632  1.2297
 2545TIP3    H229195   5.291   3.073   2.674 -1.0557  0.7979  1.2164
 2546TIP3   OH229196   1.525   1.716   2.535 -0.1130  0.1720 -0.2563
 2546TIP3    H129197   1.458   1.665   2.490  1.5600 -0.3109 -2.4183
 2546TIP3    H229198   1.531   1.676   2.622 -2.0950 -0.1938 -0.2429
 2547TIP3   OH229199   2.679   1.324   0.590  0.0289 -0.0222 -0.0506
 2547TIP3    H129200   2.619   1.396   0.607 -1.7398 -1.5001  0.1964
 2547TIP3    H229201   2.758   1.367   0.556 -0.1672  2.1863  1.9937
 2548TIP3   OH229202   0.757   1.895   2.868  0.0326  0.1200 -0.4081
 2548TIP3    H129203   0.694   1.829   2.897  3.1695 -2.0910  2.2751
 2548TIP3    H229204   0.766   1.954   2.943  0.7240  0.7207 -0.9521
 2549TIP3   OH229205   5.037   6.110   8.977 -0.2848  0.3584  0.1995
 2549TIP3    H129206   5.013   6.161   9.055  0.1869  1.3938 -0.3282
 2549TIP3    H229207   5.112   6.156   8.940 -1.1442  0.4912 -1.4584
 2550TIP3   OH229208   1.226   3.423   2.957  0.3624 -0.3023  0.1651
 2550TIP3    H129209   1.176   3.426   2.876  0.1390  2.2724  0.3124
 2550TIP3    H229210   1.244   3.330   2.971 -0.8510 -0.9351 -2.0324
 2551TIP3   OH229211   1.367   0.891   0.668  0.0087 -0.1885  0.1345
 2551TIP3    H129212   1.403   0.917   0.583 -1.3909  1.7885  0.0779
 2551TIP3    H229213   1.305   0.961   0.691 -1.0742 -1.6166  1.8967
 2552TIP3   OH229214   6.271   1.300   1.813  0.2370  0.6812 -0.2961
 2552TIP3    H129215   6.283   1.238   1.742 -2.1035 -0.4611  0.2166
 2552TIP3    H229216   6.303   1.255   1.891 -2.2204 -0.3408  0.2193
 2553TIP3   OH229217   0.593   1.227   8.322  0.5360  0.3423 -0.3347
 2553TIP3    H129218   0.549   1.153   8.362  0.3007  1.1045  0.8789
 2553TIP3    H229219   0.585   1.297   8.387  0.2563  1.5961 -1.6806
 2554TIP3   OH229220   5.165   2.834   1.494 -0.0879  0.8975 -0.1231
 2554TIP3    H129221   5.092   2.852   1.434 -0.7160  1.0701  0.6649
 2554TIP3    H229222   5.207   2.919   1.506  0.6345  0.6849 -1.0554
 2555TIP3   OH229223   6.239   5.160   1.231  0.5011  0.1443  0.0841
 2555TIP3    H129224   6.297   5.173   1.156  0.2357 -1.6677 -0.4859
 2555TIP3    H229225   6.295   5.124   1.300  0.0754 -1.9973 -0.5978
 2556TIP3   OH229226   1.291   1.458   0.010  0.4938  0.0932 -0.6358
 2556TIP3    H129227   1.275   1.514  -0.066 -1.4479 -0.7528 -0.8871
 2556TIP3    H229228   1.305   1.371  -0.027 -0.8701 -0.4012 -0.0141
 2557TIP3   OH229229   1.675   4.908   1.310 -0.3272  0.8690 -0.2340
 2557TIP3    H129230   1.697   4.815   1.314  0.6476  1.0311 -1.3309
 2557TIP3    H229231   1.608   4.920   1.378  2.2187  0.1338  2.6380
 2558TIP3   OH229232   4.832   0.903   8.104  0.0590  0.2733  0.4782
 2558TIP3    H129233   4.836   0.970   8.173  1.0553  1.0302 -0.2768
 2558TIP3    H229234   4.815   0.821   8.150 -0.7757  0.9761  1.4698
 2559TIP3   OH229235   5.083   1.894   1.354  0.4054 -0.0812  0.2593
 2559TIP3    H129236   5.033   1.812   1.350 -1.0095  0.7648  0.1183
 2559TIP3    H229237   5.160   1.872   1.407  0.3395 -1.6363 -0.2173
 2560TIP3   OH229238   5.175   2.766   2.172  0.2357  0.1164 -0.8853
 2560TIP3    H129239   5.155   2.677   2.199  2.4173 -0.5640 -1.2653
 2560TIP3    H229240   5.095   2.815   2.188 -0.6734 -1.6681  0.3880
 2561TIP3   OH229241   6.298   2.275   8.373  0.1263  0.4282 -0.1220
 2561TIP3    H129242   6.203   2.285   8.381 -0.0189  0.6902 -1.8233
 2561TIP3    H229243   6.319   2.313   8.287  1.6596 -0.3113 -0.1040
 2562TIP3   OH229244   3.991   5.272   2.287  0.1552 -0.3216  0.1657
 2562TIP3    H129245   4.077   5.311   2.272 -1.0745  2.2516 -0.8255
 2562TIP3    H229246   3.986   5.260   2.382  0.7028  1.8811  0.5267
 2563TIP3   OH229247   3.386   5.466   8.609 -0.4798 -0.1996 -0.1440
 2563TIP3    H129248   3.477   5.496   8.605 -1.0527  1.5642 -0.7884
 2563TIP3    H229249   3.386   5.398   8.676  1.3464 -0.3777 -0.2692
 2564TIP3   OH229250   6.046   5.335   0.959 -0.0859 -0.5357  0.0678
 2564TIP3    H129251   5.963   5.305   0.996 -0.8788  1.0974 -0.2696
 2564TIP3    H229252   6.086   5.387   1.029 -0.4964  0.6372 -0.5403
 2565TIP3   OH229253   0.518   2.742   2.152 -0.0764 -0.4083 -0.0137
 2565TIP3    H129254   0.491   2.650   2.163 -1.3751  0.1213  1.6355
 2565TIP3    H229255   0.601   2.737   2.104  0.0996 -2.4651  0.4045
 2566TIP3   OH229256   1.035   3.822   0.814 -0.0616  0.1659  0.0262
 2566TIP3    H129257   1.054   3.880   0.888 -0.3095 -0.0885  0.2898
 2566TIP3    H229258   1.113   3.827   0.759  0.6865 -0.6866  0.9688
 2567TIP3   OH229259   1.039   1.201   2.606  0.1518  0.1915 -0.1847
 2567TIP3    H129260   1.084   1.133   2.656  1.1977  0.7068 -0.4104
 2567TIP3    H229261   1.103   1.271   2.597 -0.9729  1.2987  0.1983
 2568TIP3   OH229262   6.349   2.553   7.704  0.4901 -0.4242  0.2253
 2568TIP3    H129263   6.301   2.636   7.698  0.7995 -0.1974  0.7981
 2568TIP3    H229264   6.440   2.579   7.712  0.7273 -0.8580 -0.9230
 2569TIP3   OH229265   6.059   1.340   2.363 -0.0004 -0.4298  0.0016
 2569TIP3    H129266   6.076   1.435   2.368 -0.2726 -0.3210 -1.0842
 2569TIP3    H229267   6.016   1.320   2.446 -1.4005  0.6995 -0.4130
 2570TIP3   OH229268   3.760   0.307   1.900  0.5659  0.3961  0.2639
 2570TIP3    H129269   3.700   0.249   1.853  1.0027 -0.2274  0.4600
 2570TIP3    H229270   3.820   0.248   1.946  0.5166  0.9929  1.1289
 2571TIP3   OH229271   3.714   0.094   0.879  0.6380  0.3988 -0.2429
 2571TIP3    H129272   3.795   0.052   0.852  0.8443  0.0906  0.7920
 2571TIP3    H229273   3.677   0.034   0.944 -0.4329  0.5245 -0.7184
 2572TIP3   OH229274   0.835   5.876   2.784  0.0779 -0.0739 -0.1166
 2572TIP3    H129275   0.909   5.935   2.802  0.0779  0.1220 -0.7520
 2572TIP3    H229276   0.810   5.895   2.694 -1.6823  0.8928  0.5193
 2573TIP3   OH229277   0.783   4.325   1.956  0.4572 -0.4341 -0.4736
 2573TIP3    H129278   0.849   4.314   2.024  0.3093 -0.2909 -0.3058
 2573TIP3    H229279   0.704   4.351   2.004  0.8793  1.7783 -0.8831
 2574TIP3   OH229280   4.811   6.555   0.528  0.1046  0.8533  0.4024
 2574TIP3    H129281   4.841   6.540   0.618  0.2337  2.1441  0.5936
 2574TIP3    H229282   4.716   6.565   0.536  0.1940  1.6720  0.5062
 2575TIP3   OH229283   0.868   2.988   2.400 -0.2175 -0.2398  0.1631
 2575TIP3    H129284   0.823   2.910   2.367  1.7533  0.0258 -3.7057
 2575TIP3    H229285   0.822   3.010   2.481 -2.9749 -3.4381 -0.3199
 2576TIP3   OH229286   3.006   1.852   0.420 -0.2193  0.4044 -0.0265
 2576TIP3    H129287   3.081   1.822   0.367 -0.5513 -0.0072 -0.2686
 2576TIP3    H229288   3.039   1.929   0.466  1.3315 -1.4853  2.2490
 2577TIP3   OH229289   4.258   1.918   8.859  0.8482 -0.6298  0.1585
 2577TIP3    H129290   4.171   1.941   8.824  1.0008  0.2670  0.3299
 2577TIP3    H229291   4.261   1.823   8.856  0.2998 -0.6223 -0.9162
 2578TIP3   OH229292   5.056   4.521   2.049 -0.3081  0.3016  0.1865
 2578TIP3    H129293   5.058   4.428   2.024 -1.5432  0.5467 -0.9251
 2578TIP3    H229294   5.096   4.566   1.976  3.1139  0.4830  1.9877
 2579TIP3   OH229295   1.065   6.399   2.418 -0.8835 -0.2821 -0.2027
 2579TIP3    H129296   1.018   6.453   2.482 -0.7747 -0.6612  0.2075
 2579TIP3    H229297   1.086   6.319   2.466 -0.3908 -0.3821 -0.5784
 2580TIP3   OH229298   5.963   4.566   2.290  0.5702 -0.4601  0.3324
 2580TIP3    H129299   6.056   4.588   2.285  0.2092  1.7899  1.8535
 2580TIP3    H229300   5.932   4.609   2.370 -2.2436  0.7204 -1.2185
 2581TIP3   OH229301   0.468   1.790   8.186  0.2283  0.4792 -0.1444
 2581TIP3    H129302   0.413   1.721   8.148  1.9373 -0.6850 -0.6357
 2581TIP3    H229303   0.408   1.863   8.202 -1.6563 -1.1036  0.3925
 2582TIP3   OH229304   2.197   5.950   7.234  0.4433  0.5878  0.1557
 2582TIP3    H129305   2.122   5.988   7.188  0.5356  0.7991  0.1813
 2582TIP3    H229306   2.181   5.970   7.326  0.3407  0.3046  0.2012
 2583TIP3   OH229307   3.390   1.301   0.169 -0.1571  0.1828  0.4297
 2583TIP3    H129308   3.302   1.335   0.151 -0.2674  0.2288  1.0498
 2583TIP3    H229309   3.405   1.237   0.099 -0.0250  1.3467 -0.6447
 2584TIP3   OH229310   4.217   5.633   0.075 -0.0090 -0.4421  0.0770
 2584TIP3    H129311   4.308   5.625   0.104  0.1016  1.7597  0.5403
 2584TIP3    H229312   4.223   5.681  -0.008 -0.7402  0.0932  0.3241
 2585TIP3   OH229313   2.302   5.804   1.369 -0.3285  0.3124 -0.3377
 2585TIP3    H129314   2.274   5.834   1.282 -3.3145 -2.2619 -0.4464
 2585TIP3    H229315   2.241   5.846   1.429  2.3067  2.8326  0.7823
 2586TIP3   OH229316   4.677   1.424   3.156  0.4121  0.0220 -0.8298
 2586TIP3    H129317   4.663   1.464   3.242  1.0546 -1.0252 -0.2164
 2586TIP3    H229318   4.687   1.498   3.097 -3.1357  0.8680 -0.6187
 2587TIP3   OH229319   3.241   5.314   7.924  0.1324  0.1796  0.4562
 2587TIP3    H129320   3.276   5.264   7.851  0.6716  1.6244 -0.3289
 2587TIP3    H229321   3.310   5.312   7.990  1.6716  2.6667 -0.9219
 2588TIP3   OH229322   2.664   0.010   6.956  0.0411  0.1952 -0.2286
 2588TIP3    H129323   2.630  -0.044   7.028  1.4088 -0.4099 -0.0130
 2588TIP3    H229324   2.640   0.099   6.980 -2.3425 -0.2673 -0.6339
 2589TIP3   OH229325   4.000   6.593   1.398 -0.2397 -0.1515  0.0971
 2589TIP3    H129326   4.056   6.519   1.373 -1.2157 -0.3238 -1.6716
 2589TIP3    H229327   4.038   6.668   1.353 -0.5244  0.0205  0.1430
 2590TIP3   OH229328   1.633   0.951   1.558 -0.3163  0.4374 -0.1130
 2590TIP3    H129329   1.650   0.986   1.471 -1.6222  0.4609 -0.3671
 2590TIP3    H229330   1.541   0.971   1.576  0.1380  1.1790  1.6176
 2591TIP3   OH229331   2.404   0.921   0.587  0.1356  0.2105 -0.1602
 2591TIP3    H129332   2.406   0.886   0.676 -2.1445  0.3368 -0.0187
 2591TIP3    H229333   2.311   0.928   0.565  0.6180  1.3643 -2.0960
 2592TIP3   OH229334   2.249   4.687   1.376  0.5324 -0.1184  0.1810
 2592TIP3    H129335   2.165   4.696   1.420  0.4679  2.0287 -0.2729
 2592TIP3    H229336   2.244   4.602   1.332 -0.7268 -0.7642  1.4923
 2593TIP3   OH229337   2.550   6.312   7.329 -0.5472  0.0789 -0.2244
 2593TIP3    H129338   2.552   6.290   7.423 -1.9827 -2.1643 -0.6171
 2593TIP3    H229339   2.548   6.226   7.286 -1.3332  1.0651 -2.2366
 2594TIP3   OH229340   0.054   6.263   8.501 -0.2076  0.2279  0.4237
 2594TIP3    H129341  -0.039   6.253   8.482  0.0151  0.6455 -1.0451
 2594TIP3    H229342   0.068   6.215   8.582 -1.2719 -1.7869 -0.5232
 2595TIP3   OH229343   6.344   1.530   2.071 -0.3652 -0.2260 -0.1875
 2595TIP3    H129344   6.261   1.486   2.051 -1.3498  0.7127  1.6302
 2595TIP3    H229345   6.378   1.485   2.148 -1.2101  1.8237  1.4908
 2596TIP3   OH229346   2.080   3.755   2.028  0.3378 -0.8142  0.2314
 2596TIP3    H129347   2.143   3.741   2.098 -0.4949 -1.5467  0.8643
 2596TIP3    H229348   2.089   3.678   1.971  3.0539  1.0618 -2.1941
 2597TIP3   OH229349   4.507   4.103   0.530  0.1673 -0.0752 -0.3963
 2597TIP3    H129350   4.569   4.173   0.511 -1.4647  1.5705  0.0769
 2597TIP3    H229351   4.494   4.108   0.625 -0.5533 -0.5097 -0.4658
 2598TIP3   OH229352   3.243   2.726   1.127 -0.4244  0.6974  0.6388
 2598TIP3    H129353   3.187   2.803   1.123  0.5064  1.4973  2.0632
 2598TIP3    H229354   3.261   2.713   1.220  0.9198 -0.1329  0.3058
 2599TIP3   OH229355   0.397   4.410   7.996  0.2383  0.0100  0.4275
 2599TIP3    H129356   0.462   4.410   8.065 -0.5453  2.4535  1.2734
 2599TIP3    H229357   0.394   4.501   7.965 -2.3910 -0.0857  0.1155
 2600TIP3   OH229358   5.310   5.961   0.309  0.4210 -0.4175  0.1541
 2600TIP3    H129359   5.232   5.914   0.281  0.1919  0.0881 -0.0734
 2600TIP3    H229360   5.312   5.951   0.404 -1.2467  1.5428  0.4458
 2601TIP3   OH229361   3.719   4.490   3.240  0.1885 -0.1844  0.5892
 2601TIP3    H129362   3.765   4.543   3.305  1.4315  0.8195 -1.0421
 2601TIP3    H229363   3.702   4.407   3.284  1.2919  0.3438  2.0707
 2602TIP3   OH229364   1.872   3.335   0.166  0.1243  0.3415  0.2582
 2602TIP3    H129365   1.840   3.317   0.254  0.2420  2.5868  0.8133
 2602TIP3    H229366   1.960   3.298   0.164  0.2266  0.5126  1.1742
 2603TIP3   OH229367   0.324   1.161   7.837  0.3920  0.1513  0.1337
 2603TIP3    H129368   0.235   1.133   7.820 -0.5602  1.4854  2.4018
 2603TIP3    H229369   0.315   1.233   7.900  3.0719  0.2603  0.5311
 2604TIP3   OH229370   0.055   0.776   2.549  0.0435  0.1632  0.1493
 2604TIP3    H129371   0.048   0.855   2.602 -0.0514 -0.9904  1.9317
 2604TIP3    H229372   0.142   0.781   2.509 -0.1770  1.4105 -0.1932
 2605TIP3   OH229373   1.579   5.200   3.250  0.0946 -0.4520 -0.3374
 2605TIP3    H129374   1.617   5.251   3.321 -1.0979  0.8616 -0.5872
 2605TIP3    H229375   1.551   5.266   3.186  0.0834 -1.5302 -1.4791
 2606TIP3   OH229376   4.898   1.656   1.353  0.0517  0.1441  0.4420
 2606TIP3    H129377   4.844   1.598   1.299 -0.2130 -0.0530  0.9180
 2606TIP3    H229378   4.837   1.723   1.385  0.2199  0.2953  0.4488
 2607TIP3   OH229379   4.440   4.799   0.414  0.6330  0.1364 -0.0800
 2607TIP3    H129380   4.478   4.883   0.388  1.8974 -0.4980 -0.3676
 2607TIP3    H229381   4.382   4.820   0.487 -1.5248  1.7059 -2.0964
 2608TIP3   OH229382   3.289   2.144   8.556 -0.2457 -0.2151 -0.4589
 2608TIP3    H129383   3.261   2.229   8.590  2.4487  0.0027  1.5729
 2608TIP3    H229384   3.289   2.155   8.461 -1.5640  1.4745 -0.3221
 2609TIP3   OH229385   2.745   1.943   0.945 -0.3579  0.0905  0.3356
 2609TIP3    H129386   2.710   1.911   0.862 -0.4934 -0.8973  0.7542
 2609TIP3    H229387   2.669   1.971   0.995 -0.4413 -0.7734  0.7149
 2610TIP3   OH229388   2.009   6.079   0.295 -0.1280 -0.3744  0.2304
 2610TIP3    H129389   1.996   6.160   0.247  0.0183 -1.1862 -1.2437
 2610TIP3    H229390   2.052   6.106   0.376 -0.3194  1.0330 -0.1068
 2611TIP3   OH229391   2.485   1.572   7.564  0.2607  0.3308  0.3292
 2611TIP3    H129392   2.569   1.553   7.606  0.8990  0.9011 -0.6390
 2611TIP3    H229393   2.423   1.582   7.636  1.1547  0.4841  1.0935
 2612TIP3   OH229394   2.438   6.440   3.253 -0.1181 -0.1675 -0.1020
 2612TIP3    H129395   2.413   6.348   3.246  0.9998 -0.4555 -0.5125
 2612TIP3    H229396   2.478   6.447   3.340 -1.0011  0.1441  0.2894
 2613TIP3   OH229397   1.552   5.299   0.293 -0.0146 -0.4074 -0.0610
 2613TIP3    H129398   1.609   5.309   0.216  0.2400 -2.0703 -0.1394
 2613TIP3    H229399   1.612   5.305   0.368  0.1843 -1.4328 -0.1181
 2614TIP3   OH229400   4.302   5.461   2.637 -0.3260 -0.0130 -0.3003
 2614TIP3    H129401   4.381   5.412   2.660 -0.0757  0.6835  0.3575
 2614TIP3    H229402   4.231   5.398   2.650  0.0722 -0.4885 -0.3891
 2615TIP3   OH229403   1.627   1.086   0.524 -0.0604 -0.1955 -0.4468
 2615TIP3    H129404   1.703   1.065   0.470 -0.5771 -3.1330 -0.1586
 2615TIP3    H229405   1.558   1.027   0.493 -1.4137  0.5030  1.1039
 2616TIP3   OH229406   3.385   5.011   0.713  0.9162  0.2190 -0.5390
 2616TIP3    H129407   3.316   5.024   0.648  1.4261  0.7529 -0.9859
 2616TIP3    H229408   3.426   5.097   0.721  1.8357 -0.2050 -0.6341
 2617TIP3   OH229409   6.000   5.449   8.017 -0.1322 -0.0365  0.2195
 2617TIP3    H129410   5.946   5.477   8.091 -0.2607 -0.3108  0.2286
 2617TIP3    H229411   5.950   5.477   7.939 -0.1088  0.0398  0.2312
 2618TIP3   OH229412   1.737   5.661   8.695 -0.0394 -0.4127 -0.0810
 2618TIP3    H129413   1.806   5.725   8.712  0.2582 -0.3482 -1.4452
 2618TIP3    H229414   1.768   5.611   8.620 -1.1649 -0.8461 -0.2774
 2619TIP3   OH229415   1.385   5.571   2.874 -0.0311 -0.1390  0.5902
 2619TIP3    H129416   1.444   5.497   2.884 -1.2336 -1.3646 -0.8073
 2619TIP3    H229417   1.302   5.532   2.844 -0.1927  1.8728 -2.0139
 2620TIP3   OH229418   0.619   4.548   0.065  0.0849 -0.1563 -0.1302
 2620TIP3    H129419   0.658   4.634   0.055  2.5633 -1.0194  1.2344
 2620TIP3    H229420   0.599   4.519  -0.025 -0.3921  1.6048 -0.6235
 2621TIP3   OH229421   0.108   2.563   2.687 -0.0096 -0.3125  0.1462
 2621TIP3    H129422   0.085   2.506   2.614 -0.8418 -0.3389  0.4180
 2621TIP3    H229423   0.029   2.615   2.702  0.6213  0.6666  0.1288
 2622TIP3   OH229424   2.154   0.567   7.904  0.9802 -0.0817  0.3598
 2622TIP3    H129425   2.205   0.534   7.830 -0.5766  0.0877 -0.8547
 2622TIP3    H229426   2.219   0.597   7.967  2.4048 -2.0212 -0.0867
 2623TIP3   OH229427   2.235   4.000   1.630 -0.3549  0.0713 -0.1569
 2623TIP3    H129428   2.218   3.912   1.665  0.7146 -0.8598 -1.8464
 2623TIP3    H229429   2.325   3.996   1.599 -0.0908  1.9826  0.2577
 2624TIP3   OH229430   0.771   0.275   0.130 -0.4234 -0.4795 -0.2195
 2624TIP3    H129431   0.835   0.219   0.087 -1.9915 -1.8537 -0.8484
 2624TIP3    H229432   0.690   0.262   0.080 -1.5142  0.2672  1.2739
 2625TIP3   OH229433   0.294   2.989   8.695  0.5011 -0.2752  0.2616
 2625TIP3    H129434   0.215   3.043   8.693  0.5774 -0.1750 -0.7768
 2625TIP3    H229435   0.279   2.923   8.627  0.8378 -0.9399  0.8315
 2626TIP3   OH229436   1.970   5.993   2.242  0.0314  0.0972  0.2106
 2626TIP3    H129437   2.057   5.997   2.201  0.5303  0.9736  1.3257
 2626TIP3    H229438   1.941   6.084   2.248 -0.6554 -0.1325  0.5075
 2627TIP3   OH229439   1.279   4.630   1.447  0.5320  0.4868  0.2493
 2627TIP3    H129440   1.316   4.579   1.519 -0.9363  0.5107  1.0444
 2627TIP3    H229441   1.240   4.707   1.489  2.1608  2.0139 -0.8655
 2628TIP3   OH229442   3.648   3.941   8.926 -0.3721 -0.0254 -0.1353
 2628TIP3    H129443   3.642   4.032   8.956 -0.2774  0.0605 -0.3754
 2628TIP3    H229444   3.586   3.894   8.981 -2.3356  0.6201 -1.6523
 2629TIP3   OH229445   0.189   3.267   1.135 -0.3450  0.2738  0.6874
 2629TIP3    H129446   0.194   3.253   1.230  1.5786 -1.2892  0.4157
 2629TIP3    H229447   0.101   3.236   1.111  0.0734 -1.8297  1.6411
 2630TIP3   OH229448   1.980   3.756   2.973 -0.3402 -0.9828 -0.2132
 2630TIP3    H129449   1.988   3.831   3.032 -0.1079 -1.2517  0.1016
 2630TIP3    H229450   2.070   3.731   2.954 -0.4117 -0.7202 -0.9156
 2631TIP3   OH229451   4.479   5.227   0.544 -0.4391 -0.4190  0.5518
 2631TIP3    H129452   4.516   5.229   0.456 -0.4382 -1.3638  0.5229
 2631TIP3    H229453   4.535   5.286   0.595  1.2545 -1.9512  0.5532
 2632TIP3   OH229454   4.750   4.586   0.947  0.1324 -0.3232 -0.1375
 2632TIP3    H129455   4.730   4.557   0.858 -1.4685 -0.3764  0.2072
 2632TIP3    H229456   4.813   4.656   0.935  0.3802 -0.7095 -1.2811
 2633TIP3   OH229457   6.378   5.238   1.958  0.2053  0.2307  0.6508
 2633TIP3    H129458   6.298   5.187   1.974  0.1373  0.2908  0.5019
 2633TIP3    H229459   6.411   5.258   2.046 -1.3128  2.3598  0.8116
 2634TIP3   OH229460   2.380   2.588   8.184 -0.8548  0.1843 -0.3268
 2634TIP3    H129461   2.318   2.627   8.245 -0.0336  0.3415  0.4420
 2634TIP3    H229462   2.458   2.571   8.238 -0.2718 -0.0921 -1.2377
 2635TIP3   OH229463   1.898   1.630   7.891 -0.2300  0.3915  0.1302
 2635TIP3    H129464   1.924   1.573   7.963  1.1001  0.3926 -0.3131
 2635TIP3    H229465   1.809   1.604   7.869 -0.8278  0.7097  2.0701
 2636TIP3   OH229466   0.279   0.637   1.369 -0.6114  0.4447  0.0208
 2636TIP3    H129467   0.319   0.708   1.318 -0.8751  0.4211 -0.2240
 2636TIP3    H229468   0.353   0.590   1.407 -0.4178  0.5896 -0.1731
 2637TIP3   OH229469   3.657   0.538   0.792 -0.0370 -0.2674  0.1588
 2637TIP3    H129470   3.586   0.574   0.738  0.9188  0.9316 -0.3582
 2637TIP3    H229471   3.687   0.461   0.745 -0.6351 -0.4797  0.1134
 2638TIP3   OH229472   5.381   5.974   1.965  0.2784  0.0124 -0.5798
 2638TIP3    H129473   5.334   5.897   1.996 -1.0245 -0.3478 -3.1700
 2638TIP3    H229474   5.394   6.028   2.043 -2.6136 -0.8312  0.5922
 2639TIP3   OH229475   1.836   4.836   3.435  0.1695 -0.1471 -0.2331
 2639TIP3    H129476   1.756   4.861   3.388 -0.9957  0.0623  1.7248
 2639TIP3    H229477   1.863   4.917   3.479  1.6295 -0.1622 -1.0511
 2640TIP3   OH229478   0.836   1.166   1.877 -0.9317 -0.2652 -0.2700
 2640TIP3    H129479   0.768   1.182   1.942 -1.0823 -0.6699 -0.3289
 2640TIP3    H229480   0.913   1.142   1.928 -0.2263  2.1676 -0.0672
 2641TIP3   OH229481   3.365   2.677   0.700  0.6114 -0.1658 -0.2090
 2641TIP3    H129482   3.320   2.749   0.743 -0.7204 -0.1318 -1.5974
 2641TIP3    H229483   3.350   2.601   0.756  0.9083  0.3495  0.5767
 2642TIP3   OH229484   0.083   4.233   3.020 -0.1450 -0.0427 -0.2114
 2642TIP3    H129485   0.125   4.161   2.974 -0.5867 -1.2979  1.2434
 2642TIP3    H229486   0.154   4.276   3.069 -0.1479 -0.6369  0.3298
 2643TIP3   OH229487   0.064   4.685   3.031  0.3572 -0.6049  0.0464
 2643TIP3    H129488   0.004   4.758   3.045  1.3300 -0.0921  1.8922
 2643TIP3    H229489   0.061   4.634   3.112  1.0117 -1.6284 -0.5381
 2644TIP3   OH229490   0.978   1.534   2.717 -0.1535 -0.2067 -0.1626
 2644TIP3    H129491   0.941   1.620   2.733  0.7415 -0.1686  2.2379
 2644TIP3    H229492   0.971   1.489   2.802 -1.2099 -2.7682 -1.4945
 2645TIP3   OH229493   3.470   1.866   0.801 -0.4241 -0.2547 -0.1333
 2645TIP3    H129494   3.523   1.864   0.721 -0.2571 -2.5588 -0.0285
 2645TIP3    H229495   3.501   1.944   0.847  1.9469 -0.7554 -0.7110
 2646TIP3   OH229496   3.748   4.302   0.027  0.3944 -0.5786 -0.2734
 2646TIP3    H129497   3.807   4.230   0.050  2.0167 -0.1325 -2.7065
 2646TIP3    H229498   3.764   4.369   0.094  3.3184 -0.1656 -1.2546
 2647TIP3   OH229499   2.705   1.051   7.624 -0.1333 -0.1225 -0.5251
 2647TIP3    H129500   2.709   1.013   7.712 -1.0919 -1.3061 -0.9747
 2647TIP3    H229501   2.658   1.134   7.636  1.1435  0.5231  0.3043
 2648TIP3   OH229502   4.796   3.705   8.217  0.1596 -0.2166 -0.4568
 2648TIP3    H129503   4.886   3.673   8.208  0.2839  0.3247 -1.1481
 2648TIP3    H229504   4.804   3.787   8.265 -0.0858 -0.7619  0.5505
 2649TIP3   OH229505   0.589   4.047   2.802 -0.2438 -0.6251  0.4916
 2649TIP3    H129506   0.582   3.952   2.791  0.3602 -0.6226 -0.0064
 2649TIP3    H229507   0.553   4.083   2.721  2.2500 -0.5347 -0.6684
 2650TIP3   OH229508   0.182   1.217   2.232  0.0652  0.0335 -0.4081
 2650TIP3    H129509   0.184   1.310   2.210 -0.6961 -0.1415 -1.3227
 2650TIP3    H229510   0.211   1.173   2.152  1.9434 -0.4836  0.4959
 2651TIP3   OH229511   3.574   2.806   7.408 -0.7149  0.4132 -0.0842
 2651TIP3    H129512   3.611   2.877   7.356  3.7135 -0.9694  0.7099
 2651TIP3    H229513   3.611   2.726   7.369 -1.1868 -1.0119  2.1936
 2652TIP3   OH229514   1.072   3.832   1.138 -0.1342 -0.2667 -0.4925
 2652TIP3    H129515   1.031   3.879   1.211  1.6905  2.7277 -1.2181
 2652TIP3    H229516   1.082   3.742   1.170 -3.3864 -0.1917  1.1939
 2653TIP3   OH229517   4.250   4.511   0.838 -0.5509  0.3861  0.3042
 2653TIP3    H129518   4.329   4.549   0.878  0.6024 -0.0626 -1.3964
 2653TIP3    H229519   4.191   4.585   0.828  0.3761  1.1155 -0.0028
 2654TIP3   OH229520   2.541   6.281   2.737 -0.3889 -0.3829  0.0762
 2654TIP3    H129521   2.616   6.228   2.710  0.5393  0.7186  0.4106
 2654TIP3    H229522   2.513   6.244   2.821  0.5778 -0.0338  0.5596
 2655TIP3   OH229523   4.244   6.339   0.744 -0.6584  0.2239  0.2344
 2655TIP3    H129524   4.309   6.400   0.709 -1.1256  1.4761  1.4320
 2655TIP3    H229525   4.195   6.308   0.668  0.4573  0.3031 -0.5340
 2656TIP3   OH229526   2.494   6.361   3.532 -0.4139  0.2437 -0.3959
 2656TIP3    H129527   2.449   6.279   3.553 -1.4569  0.3249 -2.0863
 2656TIP3    H229528   2.587   6.339   3.538 -0.6814 -0.7830  0.2055
 2657TIP3   OH229529   0.605   4.290   8.176 -0.0618  0.0610  0.2066
 2657TIP3    H129530   0.565   4.337   8.250 -1.6709  1.5412 -1.5135
 2657TIP3    H229531   0.699   4.297   8.192 -0.3509  0.6361  1.9342
 2658TIP3   OH229532   0.006   5.283   8.424 -0.6365 -0.5310  0.7732
 2658TIP3    H129533  -0.014   5.198   8.462 -0.3162 -1.1240 -0.3439
 2658TIP3    H229534  -0.003   5.270   8.330 -0.1874  0.5673  0.5626
 2659TIP3   OH229535   3.856   2.824   1.683  0.0259  0.2279 -0.3753
 2659TIP3    H129536   3.822   2.901   1.637 -2.5838  0.4336  1.6683
 2659TIP3    H229537   3.807   2.751   1.646  0.3776 -0.0718 -0.2567
 2660TIP3   OH229538   6.277   4.075   2.318  0.1020  0.6567 -0.5285
 2660TIP3    H129539   6.278   4.088   2.223 -1.2019  2.4012 -0.3440
 2660TIP3    H229540   6.209   4.009   2.332  1.2131 -0.5980 -0.8756
 2661TIP3   OH229541   3.586   6.090   8.616  0.0535 -0.2104 -0.1137
 2661TIP3    H129542   3.611   6.088   8.523 -0.2490  0.3876 -0.2179
 2661TIP3    H229543   3.494   6.118   8.615  0.0039 -0.3469  0.3588
 2662TIP3   OH229544   1.532   0.699   1.463  0.2011 -0.2703 -0.3917
 2662TIP3    H129545   1.559   0.608   1.451  0.0712 -0.5543  1.3012
 2662TIP3    H229546   1.473   0.697   1.538 -0.1317  1.1647 -0.5835
 2663TIP3   OH229547   2.608   5.774   8.572  0.3110 -0.0189  0.2854
 2663TIP3    H129548   2.676   5.716   8.537  0.5459 -0.2031  1.0272
 2663TIP3    H229549   2.532   5.758   8.516  0.8726  0.2152 -0.5829
 2664TIP3   OH229550   1.074   4.385   7.554  0.2284  0.2839  0.4745
 2664TIP3    H129551   1.134   4.313   7.574  1.2233  0.3830 -1.8857
 2664TIP3    H229552   1.000   4.343   7.511  0.6151  0.5922 -0.5149
 2665TIP3   OH229553   0.484   2.543   0.245 -0.8943  0.1718 -0.5176
 2665TIP3    H129554   0.478   2.468   0.185  2.2230 -0.4606 -0.2033
 2665TIP3    H229555   0.459   2.618   0.191 -0.1523 -0.6199 -2.0368
 2666TIP3   OH229556   2.558   5.285   7.843 -0.0883 -0.1022  0.2327
 2666TIP3    H129557   2.545   5.312   7.752 -1.2383 -0.6903  0.2076
 2666TIP3    H229558   2.470   5.282   7.880  0.2775 -0.9364  1.0677
 2667TIP3   OH229559   1.772   4.232   3.608  0.0435  0.7225 -0.2293
 2667TIP3    H129560   1.695   4.211   3.555  1.5260 -0.5929 -2.0224
 2667TIP3    H229561   1.801   4.147   3.642  0.8649  1.1492  0.1679
 2668TIP3   OH229562   5.484   1.910   2.730 -0.6709 -0.4440  0.7248
 2668TIP3    H129563   5.537   1.968   2.786  0.2953 -0.5488 -0.0620
 2668TIP3    H229564   5.393   1.931   2.753 -0.3080  0.4671  1.3707
 2669TIP3   OH229565   2.722   4.371   7.927  0.0302 -0.4694 -0.9960
 2669TIP3    H129566   2.664   4.306   7.887 -0.0894 -1.3007  0.4776
 2669TIP3    H229567   2.669   4.450   7.932 -0.2379 -0.5989 -1.6610
 2670TIP3   OH229568   3.474   3.717   8.240 -0.4668 -0.9209 -0.0012
 2670TIP3    H129569   3.385   3.727   8.272 -0.0431  1.2818  0.6300
 2670TIP3    H229570   3.526   3.778   8.293  1.3437 -1.8108 -0.6580
 2671TIP3   OH229571   0.339   5.130   0.532 -0.0238 -0.3820 -0.1732
 2671TIP3    H129572   0.259   5.170   0.500 -1.5126 -2.7283  0.4288
 2671TIP3    H229573   0.386   5.102   0.454 -0.0725  0.4024 -0.4947
 2672TIP3   OH229574   5.764   3.928   7.660  0.7052 -0.5438  0.1708
 2672TIP3    H129575   5.855   3.906   7.643  1.4166  0.5794  2.2293
 2672TIP3    H229576   5.720   3.844   7.672  1.8313 -1.0492  0.8428
 2673TIP3   OH229577   2.924   2.098   2.417 -0.0714 -0.0871  0.4716
 2673TIP3    H129578   2.881   2.013   2.420  0.2345 -0.2544  0.1587
 2673TIP3    H229579   2.852   2.161   2.426 -0.2696 -0.3778  0.9702
 2674TIP3   OH229580   2.852   6.668   6.762 -0.0319 -0.6419  0.3625
 2674TIP3    H129581   2.798   6.696   6.836  0.2240  1.5174 -0.2158
 2674TIP3    H229582   2.926   6.728   6.762 -0.8919  0.6075 -2.6624
 2675TIP3   OH229583   4.155   2.520   8.470  0.1333 -0.1093  0.1292
 2675TIP3    H129584   4.108   2.519   8.554  0.9952  0.5410  0.6436
 2675TIP3    H229585   4.197   2.606   8.468  1.1924 -0.6290 -0.3701
 2676TIP3   OH229586   0.513   6.369   1.917  0.3875  0.4540 -0.2010
 2676TIP3    H129587   0.440   6.422   1.884 -0.0659 -0.0613 -0.0409
 2676TIP3    H229588   0.519   6.392   2.009  0.8432  0.9692 -0.3582
 2677TIP3   OH229589   5.034   4.691   0.263  0.0240  0.1085  0.0420
 2677TIP3    H129590   4.940   4.701   0.279  0.0257  1.5574 -0.6922
 2677TIP3    H229591   5.052   4.748   0.188  1.2798 -1.0712 -0.5984
 2678TIP3   OH229592   1.639   1.734   0.369  0.1519  0.5175 -0.3022
 2678TIP3    H129593   1.634   1.768   0.280  0.6461  0.2628 -0.4305
 2678TIP3    H229594   1.720   1.684   0.371 -1.1126 -1.6792 -0.4745
 2679TIP3   OH229595   4.168   4.812   8.207  0.4354 -0.2202 -0.0473
 2679TIP3    H129596   4.170   4.718   8.220  3.4486 -0.2744 -0.1835
 2679TIP3    H229597   4.134   4.848   8.289 -2.6250 -1.3907 -0.6689
 2680TIP3   OH229598   2.837   5.370   3.052 -0.1098 -0.2920  0.2039
 2680TIP3    H129599   2.793   5.446   3.090  0.2037  0.1985 -0.3913
 2680TIP3    H229600   2.907   5.350   3.115  1.3688  1.4475 -0.7509
 2681TIP3   OH229601   2.826   5.318   1.199  0.1532 -0.1089 -0.1955
 2681TIP3    H129602   2.741   5.341   1.161 -0.5786 -3.3018 -0.8025
 2681TIP3    H229603   2.846   5.232   1.161  1.7745 -1.2308  2.8781
 2682TIP3   OH229604   6.571   6.544   8.091 -0.0352  0.0479 -0.2346
 2682TIP3    H129605   6.517   6.568   8.016  1.0982 -1.2211 -1.4975
 2682TIP3    H229606   6.592   6.628   8.133  0.1856  0.9003 -1.9611
 2683TIP3   OH229607   6.460   2.050   8.358  0.1196 -0.2962 -0.1066
 2683TIP3    H129608   6.410   2.131   8.348  1.9161  0.8677 -0.0709
 2683TIP3    H229609   6.505   2.060   8.442 -0.7611 -2.0138  0.6272
 2684TIP3   OH229610   4.092   2.169   2.072 -0.1759  0.6825 -0.2898
 2684TIP3    H129611   4.023   2.198   2.132  0.3014  1.7703 -0.2514
 2684TIP3    H229612   4.119   2.083   2.106  0.7773  1.7030  1.6680
 2685TIP3   OH229613   6.368   1.214   2.067 -0.4281  0.3025  0.4250
 2685TIP3    H129614   6.456   1.213   2.105 -1.3258  2.6567  2.8704
 2685TIP3    H229615   6.337   1.124   2.076  1.1087 -0.1892  1.0742
 2686TIP3   OH229616   5.727   1.173   2.401  0.3056  0.3591  0.0881
 2686TIP3    H129617   5.757   1.102   2.344 -3.1590 -1.2236 -0.0195
 2686TIP3    H229618   5.739   1.138   2.490  2.3385  1.3836  0.2848
 2687TIP3   OH229619   3.086   6.490   1.569 -0.4650  0.1733 -0.0863
 2687TIP3    H129620   3.173   6.521   1.544 -1.2279  1.9562 -0.6800
 2687TIP3    H229621   3.065   6.541   1.648 -1.6618  1.0865 -0.9571
 2688TIP3   OH229622   1.697   4.975   1.805  0.2565 -0.0712  0.2780
 2688TIP3    H129623   1.711   5.050   1.863 -2.1952  0.6074  0.0919
 2688TIP3    H229624   1.746   4.904   1.846  1.9501  1.3871  0.9247
 2689TIP3   OH229625   0.636   5.246   8.265  0.3356  0.2968 -0.0954
 2689TIP3    H129626   0.671   5.272   8.350  0.3700 -1.5489  0.4992
 2689TIP3    H229627   0.551   5.290   8.259  1.8681  3.4426 -0.8001
 2690TIP3   OH229628   6.719   1.430   1.305  0.4081 -0.0197  0.3915
 2690TIP3    H129629   6.775   1.477   1.366  0.8147 -0.2601  0.2096
 2690TIP3    H229630   6.780   1.395   1.239  0.1141 -0.7771  0.5127
 2691TIP3   OH229631   2.768   6.634   1.753  0.1158 -0.5065 -0.6024
 2691TIP3    H129632   2.785   6.604   1.842  1.6425  0.1449 -0.6453
 2691TIP3    H229633   2.782   6.729   1.756 -2.7542  0.0213 -0.8948
 2692TIP3   OH229634   5.747   1.164   0.473  0.0919 -0.0264 -0.0825
 2692TIP3    H129635   5.835   1.188   0.444  1.0375 -2.7358  0.1995
 2692TIP3    H229636   5.708   1.246   0.503  2.5192  1.2622 -0.2019
 2693TIP3   OH229637   6.452   6.266   7.857 -0.6548 -0.0036 -0.2879
 2693TIP3    H129638   6.518   6.335   7.857  0.0193 -0.6050  1.3212
 2693TIP3    H229639   6.371   6.310   7.833  0.2674  0.7803 -2.1486
 2694TIP3   OH229640   3.566   0.748   0.485 -0.1555 -0.2038 -0.3382
 2694TIP3    H129641   3.650   0.719   0.521 -0.2254  1.4372  1.2706
 2694TIP3    H229642   3.583   0.761   0.392  1.2712 -0.2185 -0.1007
 2695TIP3   OH229643   2.656   4.240   1.544 -0.2834  0.4551  0.0056
 2695TIP3    H129644   2.657   4.247   1.449  3.3629 -0.5963 -0.2090
 2695TIP3    H229645   2.645   4.330   1.575 -1.6636  0.7870 -1.3749
 2696TIP3   OH229646   2.040   0.846   1.488  0.4964  0.4314  0.2463
 2696TIP3    H129647   2.041   0.942   1.487  0.0347  0.4376  0.3202
 2696TIP3    H229648   1.966   0.822   1.434  0.7151  0.1082  0.0863
 2697TIP3   OH229649   1.843   0.603   0.340 -0.1891  0.4028 -0.0149
 2697TIP3    H129650   1.765   0.615   0.285 -0.2581 -0.8400 -0.2142
 2697TIP3    H229651   1.917   0.623   0.281 -0.2965 -0.0834 -0.3186
 2698TIP3   OH229652   4.129   2.370   0.673  0.2151  0.4323  0.0395
 2698TIP3    H129653   4.062   2.428   0.710 -1.3085 -0.9811 -0.3564
 2698TIP3    H229654   4.134   2.297   0.734  0.5534 -0.0225 -0.5167
 2699TIP3   OH229655   1.236   0.777   0.356 -0.1238  0.6684 -0.0039
 2699TIP3    H129656   1.254   0.702   0.412  1.1611  0.2797 -0.8792
 2699TIP3    H229657   1.145   0.767   0.330  0.4523 -1.5427 -1.4230
 2700TIP3   OH229658   6.538   1.456   0.414  0.1533 -0.1046  0.0233
 2700TIP3    H129659   6.540   1.514   0.490  0.3178  0.7881 -0.6451
 2700TIP3    H229660   6.460   1.483   0.366  1.0451  0.6319 -1.0829
 2701TIP3   OH229661   2.906   3.639   0.392 -0.1309 -0.5539 -0.0756
 2701TIP3    H129662   2.922   3.640   0.486 -0.8408 -0.7563  0.0463
 2701TIP3    H229663   2.926   3.550   0.365 -0.2087 -0.5733 -0.0688
 2702TIP3   OH229664   4.345   1.266   1.383  0.0939 -0.0640  0.4557
 2702TIP3    H129665   4.316   1.183   1.345  2.0342 -0.3867 -0.4289
 2702TIP3    H229666   4.321   1.332   1.318 -0.2704 -0.0976  0.5561
 2703TIP3   OH229667   6.619   5.847   7.462 -0.4169 -0.0865 -0.1548
 2703TIP3    H129668   6.686   5.780   7.446 -1.8194 -1.6462  0.2177
 2703TIP3    H229669   6.605   5.845   7.557 -1.5622 -0.3840 -0.3162
 2704TIP3   OH229670   2.619   1.890   8.883 -0.1097 -0.4110  0.1754
 2704TIP3    H129671   2.693   1.858   8.935 -2.1509 -4.9575  0.7053
 2704TIP3    H229672   2.628   1.845   8.799 -2.7620 -2.0328  0.6558
 2705TIP3   OH229673   3.674   1.025   3.045  0.0244  0.2150  0.5730
 2705TIP3    H129674   3.673   1.119   3.065  1.4267  0.6258 -1.0146
 2705TIP3    H229675   3.592   0.991   3.081 -0.2805  1.9457  1.6139
 2706TIP3   OH229676   1.262   3.325   0.738  0.1500  0.0763  0.3154
 2706TIP3    H129677   1.190   3.264   0.722  0.4789 -0.8968  2.2978
 2706TIP3    H229678   1.221   3.412   0.729 -0.6304 -0.3927 -1.1563
 2707TIP3   OH229679   4.004   0.430   0.316 -0.3516  0.1289 -0.0134
 2707TIP3    H129680   3.989   0.379   0.237 -1.0477 -0.6425  0.6033
 2707TIP3    H229681   4.078   0.386   0.359 -0.9520 -0.3734  0.5182
 2708TIP3   OH229682   0.655   2.840   9.007  0.0051  0.6336  0.1568
 2708TIP3    H129683   0.624   2.868   8.921  0.1320  1.7543  0.4587
 2708TIP3    H229684   0.642   2.745   9.007 -0.2347  0.6467 -0.9961
 2709TIP3   OH229685   0.801   2.804   1.565 -0.1751 -0.8075 -0.5497
 2709TIP3    H129686   0.752   2.860   1.625 -0.2343 -0.3865 -0.9800
 2709TIP3    H229687   0.740   2.734   1.542 -0.8078  0.0319 -1.5406
 2710TIP3   OH229688   2.384   4.320   7.743 -0.1315  0.4868  0.2799
 2710TIP3    H129689   2.299   4.363   7.732 -0.4883 -0.2277  0.1896
 2710TIP3    H229690   2.363   4.226   7.745  0.6470  0.3109  0.3329
 2711TIP3   OH229691   5.043   4.314   1.028  0.5523  0.4369 -0.3480
 2711TIP3    H129692   5.118   4.271   0.987 -0.3757 -0.3270 -1.2737
 2711TIP3    H229693   4.969   4.294   0.972  0.0833  3.5152 -1.0247
 2712TIP3   OH229694   0.603   3.754   1.529 -0.0626  0.2681 -0.3927
 2712TIP3    H129695   0.610   3.662   1.553  2.3627  0.3640 -0.4511
 2712TIP3    H229696   0.611   3.802   1.611 -1.7826  0.4774 -0.3005
 2713TIP3   OH229697   6.592   0.261   0.480  0.5808 -0.3637  0.0558
 2713TIP3    H129698   6.677   0.237   0.444  0.6808 -3.3580  1.9271
 2713TIP3    H229699   6.595   0.230   0.571 -2.4444 -0.4623  0.2170
 2714TIP3   OH229700   4.959   6.038   1.301  0.7097 -0.3186 -0.8617
 2714TIP3    H129701   4.983   5.967   1.360  1.4590  0.3878 -0.2815
 2714TIP3    H229702   4.884   6.080   1.344  0.4181 -0.6105 -1.0839
 2715TIP3   OH229703   2.207   3.757   0.870  1.0765 -0.2271 -0.5147
 2715TIP3    H129704   2.189   3.663   0.864 -0.0751  0.0794 -2.7032
 2715TIP3    H229705   2.301   3.762   0.888  1.1965 -1.7866 -0.5671
 2716TIP3   OH229706   3.636   5.787   2.493  0.1447  0.4294  0.2673
 2716TIP3    H129707   3.583   5.800   2.572  0.7927  0.2038  0.7475
 2716TIP3    H229708   3.698   5.860   2.494 -1.2860  1.7460 -1.2589
 2717TIP3   OH229709   1.146   4.772   2.151  0.4550  0.6705  0.4939
 2717TIP3    H129710   1.193   4.743   2.073  0.2197 -1.6561  1.1198
 2717TIP3    H229711   1.053   4.757   2.129  0.1770  2.4893  0.3095
 2718TIP3   OH229712   3.208   2.560   3.198 -0.1056 -0.1933  0.5680
 2718TIP3    H129713   3.255   2.478   3.210  0.0709 -0.5644 -2.0097
 2718TIP3    H229714   3.117   2.538   3.216  0.1303 -0.5537  1.3661
 2719TIP3   OH229715   4.192   0.604   0.179 -0.2780  0.0388  0.2436
 2719TIP3    H129716   4.246   0.537   0.136 -0.1238 -0.3272  0.9926
 2719TIP3    H229717   4.116   0.556   0.211 -0.1437  0.2078  0.8299
 2720TIP3   OH229718   3.679   1.089   0.988 -0.0389 -0.5103 -0.4250
 2720TIP3    H129719   3.745   1.142   0.943  0.7926 -1.4521 -0.3615
 2720TIP3    H229720   3.656   1.021   0.924  1.0368 -1.7707  0.4681
 2721TIP3   OH229721   4.379   1.843   1.694 -0.2947  0.4720  0.0211
 2721TIP3    H129722   4.311   1.889   1.645 -1.0769  0.0276  0.6629
 2721TIP3    H229723   4.345   1.753   1.701 -0.1482  0.5065  1.2795
 2722TIP3   OH229724   6.000   4.210   8.688  0.6722 -0.2720 -0.4948
 2722TIP3    H129725   5.936   4.145   8.659 -1.2685  1.1034  0.4756
 2722TIP3    H229726   5.969   4.238   8.774  2.5110  0.5876 -0.0604
 2723TIP3   OH229727   5.019   1.312   8.387  0.1275  0.4014 -0.3116
 2723TIP3    H129728   4.984   1.385   8.438 -1.8110 -0.5194 -0.2450
 2723TIP3    H229729   5.043   1.246   8.453 -0.2401  0.1116 -0.4623
 2724TIP3   OH229730   4.135   1.794   0.910  0.0185 -0.8365 -0.0197
 2724TIP3    H129731   4.135   1.847   0.830  0.0972 -1.5220 -0.4911
 2724TIP3    H229732   4.180   1.713   0.884  0.6141 -0.8178  0.8957
 2725TIP3   OH229733   0.847   5.537   8.479  0.6972 -0.1033 -0.4305
 2725TIP3    H129734   0.790   5.548   8.403 -1.4178  0.9198  1.1789
 2725TIP3    H229735   0.860   5.442   8.485  0.9178 -0.2013 -2.0266
 2726TIP3   OH229736   0.171   5.586   1.274 -0.2430 -0.3015  0.2128
 2726TIP3    H129737   0.247   5.608   1.220 -0.2069  0.8044  0.7080
 2726TIP3    H229738   0.141   5.669   1.310 -0.4226 -0.9819  1.7068
 2727TIP3   OH229739   1.738   2.892   0.498 -0.6039  0.2450  0.2359
 2727TIP3    H129740   1.715   2.917   0.588  0.4962  0.0776  0.5709
 2727TIP3    H229741   1.661   2.917   0.447 -1.0819  0.7324  1.1573
 2728TIP3   OH229742   5.608   0.869   8.821 -0.5176 -0.2834 -1.0056
 2728TIP3    H129743   5.603   0.862   8.726  0.8887  0.4228 -1.1641
 2728TIP3    H229744   5.629   0.961   8.837 -3.2115  0.2220  0.1516
 2729TIP3   OH229745   5.314   4.622   2.041  0.3712 -0.0022  0.1811
 2729TIP3    H129746   5.295   4.701   1.991  0.0464  0.1280  0.5120
 2729TIP3    H229747   5.243   4.615   2.105  2.4206  1.6679  2.8844
 2730TIP3   OH229748   2.263   1.323   1.045 -0.0908 -0.2232 -0.0020
 2730TIP3    H129749   2.325   1.383   1.086 -1.9104  2.4595 -0.8779
 2730TIP3    H229750   2.312   1.283   0.973  1.5263 -0.7879  1.3717
 2731TIP3   OH229751   3.436   5.658   1.625 -0.4175  0.2690 -0.0797
 2731TIP3    H129752   3.381   5.585   1.652  0.5935 -0.0381  1.2940
 2731TIP3    H229753   3.401   5.685   1.540 -1.1530 -1.4449 -0.3608
 2732TIP3   OH229754   0.483   0.487   2.154  0.3412 -0.0879 -0.8149
 2732TIP3    H129755   0.405   0.542   2.161  0.7561  0.4691 -0.4598
 2732TIP3    H229756   0.451   0.397   2.161 -0.2642  0.1365 -0.6826
 2733TIP3   OH229757   2.581   3.652   2.919  0.4429 -0.0486 -0.4007
 2733TIP3    H129758   2.516   3.584   2.936  0.8768 -0.7227 -1.3499
 2733TIP3    H229759   2.543   3.705   2.849  0.2920  0.4448  0.0450
 2734TIP3   OH229760   2.956   2.951   8.803 -0.3143 -0.0955  0.0182
 2734TIP3    H129761   2.916   2.978   8.720  0.1023  1.2908  0.2356
 2734TIP3    H229762   3.029   2.895   8.776 -0.2550  0.2393 -0.5551
 2735TIP3   OH229763   3.243   4.263   0.741 -0.4432  0.4351 -0.0455
 2735TIP3    H129764   3.174   4.256   0.807  0.7502  2.4625  1.5606
 2735TIP3    H229765   3.271   4.355   0.746  0.3174  0.4318 -2.7960
 2736TIP3   OH229766   6.694   4.685   1.414  0.4577 -0.3421 -0.6736
 2736TIP3    H129767   6.737   4.769   1.397  1.4560 -0.8486 -0.7464
 2736TIP3    H229768   6.656   4.695   1.502 -0.5988  0.6341 -1.2158
 2737TIP3   OH229769   2.090   5.441   2.291  0.1300 -0.8191 -0.3466
 2737TIP3    H129770   2.048   5.526   2.277 -2.2653 -1.5693  1.6625
 2737TIP3    H229771   2.126   5.446   2.379 -0.8312 -2.1836  0.1468
 2738TIP3   OH229772   5.081   5.577   8.639 -1.0641  0.3472  0.3056
 2738TIP3    H129773   5.166   5.532   8.641 -1.7488 -0.9827  0.9061
 2738TIP3    H229774   5.098   5.662   8.680  0.1539  0.4531 -0.3650
 2739TIP3   OH229775   3.094   5.881   2.070  0.2553 -0.1191 -0.6514
 2739TIP3    H129776   3.030   5.880   2.141 -0.5205  0.4737 -1.3371
 2739TIP3    H229777   3.141   5.798   2.080 -0.1873 -0.2789  0.2382
 2740TIP3   OH229778   0.455   3.535   1.301  0.2158  0.4727 -0.1804
 2740TIP3    H129779   0.396   3.570   1.368  1.4800  1.3009  0.5388
 2740TIP3    H229780   0.517   3.482   1.350 -0.9310 -1.8654 -1.1254
 2741TIP3   OH229781   6.606   1.149   2.080 -0.5563 -0.3939 -0.4743
 2741TIP3    H129782   6.684   1.122   2.033 -0.6267 -1.4274 -0.0206
 2741TIP3    H229783   6.621   1.122   2.170 -0.7270  0.9234 -0.0221
 2742TIP3   OH229784   4.823   3.284   8.065  0.0944 -0.4980  0.0634
 2742TIP3    H129785   4.887   3.314   8.001 -1.2296 -0.2588 -1.2098
 2742TIP3    H229786   4.791   3.201   8.030 -0.1054 -0.7442  0.8136
 2743TIP3   OH229787   2.359   2.146   8.517  0.3517 -0.1473  0.3482
 2743TIP3    H129788   2.364   2.113   8.428  1.5243 -0.8580  0.6536
 2743TIP3    H229789   2.336   2.069   8.570  0.3376  0.1185  0.7314
 2744TIP3   OH229790   1.680   1.801   8.502  0.0785 -0.1908  0.7887
 2744TIP3    H129791   1.728   1.825   8.582 -2.1604 -0.9826  2.4794
 2744TIP3    H229792   1.686   1.705   8.499 -0.5243 -0.2256  0.4907
 2745TIP3   OH229793   6.693   6.697   1.147 -0.2121  0.3177 -0.4051
 2745TIP3    H129794   6.613   6.644   1.151  1.5440 -2.4656  0.7889
 2745TIP3    H229795   6.734   6.672   1.064  0.4176  0.1290 -0.0433
 2746TIP3   OH229796   3.685   3.467   0.202  0.1792 -0.7674 -0.2696
 2746TIP3    H129797   3.758   3.524   0.225 -0.0504 -0.3454 -0.5691
 2746TIP3    H229798   3.639   3.514   0.133 -1.9683  0.3081  1.7205
 2747TIP3   OH229799   5.318   0.129   1.538 -0.0478  0.1796 -0.0005
 2747TIP3    H129800   5.250   0.197   1.537  0.5876  0.8198 -0.7495
 2747TIP3    H229801   5.398   0.176   1.562  0.0918 -0.6205  1.1682
 2748TIP3   OH229802   0.318   4.622   1.857  0.4048 -0.1350 -0.1668
 2748TIP3    H129803   0.289   4.540   1.897 -1.4460  0.4809 -0.1590
 2748TIP3    H229804   0.408   4.633   1.887 -0.7982  0.2932  3.9599
 2749TIP3   OH229805   2.707   3.148   2.989  0.7460  0.2772 -0.3606
 2749TIP3    H129806   2.743   3.119   3.073  0.4201  2.2672  0.5300
 2749TIP3    H229807   2.613   3.134   2.997  0.7631  0.0355 -0.5784
 2750TIP3   OH229808   3.473   3.622   0.810 -0.7207  0.1669 -0.5107
 2750TIP3    H129809   3.480   3.704   0.860 -1.7989 -0.2119  0.2969
 2750TIP3    H229810   3.553   3.619   0.758  0.8120  0.2518  1.6814
 2751TIP3   OH229811   2.649   4.711   2.349  0.1587 -0.0111 -0.3799
 2751TIP3    H129812   2.580   4.765   2.387  1.5658  1.5623  0.0315
 2751TIP3    H229813   2.622   4.698   2.258 -1.6537 -1.1535  0.2507
 2752TIP3   OH229814   0.060   5.078   0.219 -0.0666  0.3936  0.6984
 2752TIP3    H129815   0.132   5.134   0.251  0.5239  0.7382 -1.1198
 2752TIP3    H229816  -0.018   5.115   0.259  0.3226  2.5179 -0.3502
 2753TIP3   OH229817   1.971   3.497   2.799  0.8466 -0.2405  0.0773
 2753TIP3    H129818   2.066   3.490   2.792  0.7876 -0.5020 -0.4961
 2753TIP3    H229819   1.947   3.563   2.733  0.5566 -0.7376 -0.3231
 2754TIP3   OH229820   0.202   6.006   8.258 -0.4663  0.2022  0.9266
 2754TIP3    H129821   0.240   6.085   8.295  1.3460  0.2675 -0.8813
 2754TIP3    H229822   0.185   6.028   8.166  1.4440 -1.8597 -0.0115
 2755TIP3   OH229823   0.859   1.056   9.002  0.8200 -0.1674 -0.1755
 2755TIP3    H129824   0.829   0.966   9.002  0.3652 -0.0232 -0.6951
 2755TIP3    H229825   0.779   1.109   9.000  0.9623  0.3276  2.6075
 2756TIP3   OH229826   3.478   5.928   1.670 -0.1367  0.1556 -0.0216
 2756TIP3    H129827   3.436   5.842   1.668  0.2951 -0.1115  1.2725
 2756TIP3    H229828   3.549   5.918   1.734  0.8559  1.0620 -0.9514
 2757TIP3   OH229829   4.965   2.538   0.647  0.3693 -0.0651  0.2843
 2757TIP3    H129830   4.899   2.470   0.633  0.4413  0.1389 -1.2310
 2757TIP3    H229831   4.917   2.609   0.691  0.3682 -1.1615  2.1680
 2758TIP3   OH229832   6.714   4.745   3.650 -0.0754  0.3332  0.0806
 2758TIP3    H129833   6.693   4.796   3.728  4.4215  3.8100 -0.5493
 2758TIP3    H229834   6.683   4.800   3.577  1.3996  0.3550 -0.5702
 2759TIP3   OH229835   0.082   1.157   8.826 -0.3682  0.0719 -0.2141
 2759TIP3    H129836   0.064   1.079   8.877 -0.6488  0.7601  0.7598
 2759TIP3    H229837   0.114   1.124   8.742  0.1866 -1.0733  0.4286
 2760TIP3   OH229838   0.083   0.006   8.586 -0.1427  0.1285  0.2179
 2760TIP3    H129839   0.085  -0.043   8.668  0.5738  0.4247  0.3807
 2760TIP3    H229840  -0.011   0.013   8.565 -0.2712 -1.0449  0.3313
 2761TIP3   OH229841   5.150   2.208   8.794 -0.3496 -0.0085  0.1156
 2761TIP3    H129842   5.092   2.274   8.755  0.3555  0.2725 -0.4671
 2761TIP3    H229843   5.226   2.206   8.737  0.8106  0.5690  1.5902
 2762TIP3   OH229844   0.968   6.071   0.329 -0.0594  0.0014 -0.4893
 2762TIP3    H129845   1.001   6.076   0.239 -0.9475  1.6748 -0.7677
 2762TIP3    H229846   0.983   5.980   0.355 -2.1478 -1.2752 -3.2618
 2763TIP3   OH229847   5.322   5.629   0.733  0.2985 -0.4421 -0.0594
 2763TIP3    H129848   5.304   5.712   0.690  1.1462  0.5286  1.3698
 2763TIP3    H229849   5.414   5.611   0.713 -0.2232 -1.7307 -1.4382
 2764TIP3   OH229850   0.013   2.661   1.809  0.4593 -0.1851 -0.4654
 2764TIP3    H129851   0.096   2.700   1.781  0.1302 -0.1745 -1.4613
 2764TIP3    H229852   0.028   2.637   1.901  1.3305  0.4422 -0.4257
 2765TIP3   OH229853   2.357   5.260   2.460  0.0834  0.1946  0.3317
 2765TIP3    H129854   2.354   5.164   2.470  0.0643  0.3197  1.7240
 2765TIP3    H229855   2.308   5.293   2.535  1.5276  1.3340  0.8174
 2766TIP3   OH229856   1.541   2.064   1.460  0.1593  0.0990 -0.3107
 2766TIP3    H129857   1.529   2.147   1.413 -0.1965  0.3466  0.1982
 2766TIP3    H229858   1.619   2.078   1.514  0.4212 -0.0951 -0.6381
 2767TIP3   OH229859   0.118   5.785   2.429  0.1732 -0.3158 -0.1603
 2767TIP3    H129860   0.117   5.807   2.523 -3.0209 -0.4900 -0.0417
 2767TIP3    H229861   0.207   5.754   2.413  0.8877 -0.1023  2.7645
 2768TIP3   OH229862   3.615   1.329   8.817  0.2446  0.4824  0.6322
 2768TIP3    H129863   3.677   1.261   8.843 -0.0986  0.5548  1.6895
 2768TIP3    H229864   3.531   1.300   8.853 -0.0855  1.0018  0.2919
 2769TIP3   OH229865   1.003   3.572   7.525  0.1290 -0.0637 -0.1472
 2769TIP3    H129866   1.009   3.548   7.433  3.4407 -0.3758  0.0276
 2769TIP3    H229867   0.991   3.490   7.571  1.7805 -0.3580 -0.1658
 2770TIP3   OH229868   2.146   2.746   8.311 -0.1060  0.1438 -0.7334
 2770TIP3    H129869   2.071   2.782   8.264 -1.5122 -2.1239 -0.3813
 2770TIP3    H229870   2.108   2.699   8.386  1.6982 -0.6745 -0.2577
 2771TIP3   OH229871   3.466   1.520   8.502  0.3004  0.0652 -0.4437
 2771TIP3    H129872   3.377   1.499   8.528 -0.0634  0.9593 -0.9291
 2771TIP3    H229873   3.464   1.522   8.406 -0.0549  3.5996 -0.4759
 2772TIP3   OH229874   6.128   1.143   0.468 -0.7428 -0.3722 -0.6241
 2772TIP3    H129875   6.188   1.208   0.507 -0.2514 -2.1504  1.8442
 2772TIP3    H229876   6.185   1.086   0.417 -0.7467 -0.4383 -0.5552
 2773TIP3   OH229877   4.508   6.330   1.385  0.1468  0.4092  0.3009
 2773TIP3    H129878   4.442   6.278   1.432 -1.0451  0.7979 -0.8682
 2773TIP3    H229879   4.483   6.421   1.403  0.8937  0.5677  0.5473
 2774TIP3   OH229880   5.249   3.354   8.612 -0.4384 -0.1218  0.8581
 2774TIP3    H129881   5.287   3.314   8.534 -0.9361  0.6071  0.2237
 2774TIP3    H229882   5.196   3.285   8.652 -1.9213  0.0722 -0.6497
 2775TIP3   OH229883   4.916   3.559   2.349 -0.2592 -0.0970  0.4306
 2775TIP3    H129884   4.856   3.487   2.366 -0.2888 -0.3888 -0.8398
 2775TIP3    H229885   4.954   3.539   2.264  1.3042  0.3209  1.0032
 2776TIP3   OH229886   6.478   1.333   8.395 -0.2135 -0.7480  0.0412
 2776TIP3    H129887   6.532   1.277   8.450  0.3309  0.6251  0.9785
 2776TIP3    H229888   6.503   1.422   8.421 -1.9311 -0.0702 -0.5059
 2777TIP3   OH229889   6.486   3.809   3.179 -0.0473  0.0197 -0.0279
 2777TIP3    H129890   6.404   3.857   3.183  0.1025  0.4715 -1.5813
 2777TIP3    H229891   6.488   3.756   3.259 -1.4319  0.6487  0.4383
 2778TIP3   OH229892   1.197   0.020   1.027  0.2638 -0.5516  0.7497
 2778TIP3    H129893   1.222  -0.028   1.106 -1.7999 -1.9311  0.6517
 2778TIP3    H229894   1.106   0.047   1.043 -0.1604 -0.7348 -1.0752
 2779TIP3   OH229895   2.011   5.330   1.371 -0.2883 -0.5472  0.6870
 2779TIP3    H129896   2.008   5.423   1.347  0.3637 -0.9032 -0.9283
 2779TIP3    H229897   1.920   5.301   1.368 -0.3846 -0.2063  0.0799
 2780TIP3   OH229898   6.037   0.406   2.883  0.7533 -0.0250  0.3416
 2780TIP3    H129899   6.051   0.354   2.962  0.1215  1.6796  1.6236
 2780TIP3    H229900   6.077   0.491   2.902  1.0912  0.2492 -1.4023
 2781TIP3   OH229901   4.261   0.063   0.255 -0.1497  0.0528 -0.6123
 2781TIP3    H129902   4.333   0.003   0.235  0.4580 -0.0708  1.6082
 2781TIP3    H229903   4.183   0.020   0.220  0.6895 -0.3332 -2.1069
 2782TIP3   OH229904   5.505   1.701   0.283 -0.6932  0.3564 -0.3303
 2782TIP3    H129905   5.461   1.778   0.318  1.4689  1.0671  1.0007
 2782TIP3    H229906   5.559   1.669   0.355  1.0407 -0.3767 -1.8806
 2783TIP3   OH229907   5.842   2.957   0.012 -0.0339  0.3284  0.3779
 2783TIP3    H129908   5.749   2.958   0.038 -0.7967 -0.2219 -2.1046
 2783TIP3    H229909   5.879   2.883   0.061 -1.1696 -0.1358  0.5806
 2784TIP3   OH229910   3.934   6.697   7.837  0.0417  0.6781 -0.7531
 2784TIP3    H129911   3.988   6.738   7.904  0.0336 -0.4569 -0.0126
 2784TIP3    H229912   3.996   6.655   7.778  0.0453 -1.3696  0.5790
 2785TIP3   OH229913   3.910   5.162   0.433  0.2457  0.4530  0.6443
 2785TIP3    H129914   3.994   5.193   0.401  0.2442  0.2719  0.4638
 2785TIP3    H229915   3.892   5.083   0.382 -1.3071  1.9300 -1.2673
 2786TIP3   OH229916   1.052   4.660   1.093 -0.0199 -0.0765  0.4382
 2786TIP3    H129917   1.073   4.585   1.148  0.3873  0.5520  1.1705
 2786TIP3    H229918   1.010   4.722   1.152 -0.2039  0.3398 -0.1170
 2787TIP3   OH229919   2.243   3.741   0.450  0.2013 -0.0096  0.5403
 2787TIP3    H129920   2.259   3.722   0.542  0.4802 -0.0014  0.4942
 2787TIP3    H229921   2.291   3.673   0.403  0.7977  0.5179  0.3824
 2788TIP3   OH229922   6.613   2.006   0.703  0.1390 -0.2188 -0.5020
 2788TIP3    H129923   6.561   1.953   0.764  0.8508  0.0392  0.3595
 2788TIP3    H229924   6.561   2.085   0.689  0.3826  0.1307  0.5158
 2789TIP3   OH229925   4.726   3.929   8.359  0.1386  0.0929  0.4608
 2789TIP3    H129926   4.651   3.989   8.357  0.2953  0.2814  0.1865
 2789TIP3    H229927   4.696   3.856   8.414 -0.9151 -0.6837 -1.0437
 2790TIP3   OH229928   6.379   1.227   2.465  0.0448 -0.8418  0.9237
 2790TIP3    H129929   6.287   1.230   2.488 -0.8015 -0.1439 -2.1111
 2790TIP3    H229930   6.384   1.160   2.396  1.2104  1.0615 -0.9612
 2791TIP3   OH229931   3.725   1.174   0.686 -0.6822 -0.3377 -0.0245
 2791TIP3    H129932   3.651   1.231   0.665 -1.4775 -1.1538  0.5024
 2791TIP3    H229933   3.778   1.225   0.747 -0.8572  0.2168 -0.3279
 2792TIP3   OH229934   6.013   5.691   0.163  0.0250 -0.0339  0.2049
 2792TIP3    H129935   6.107   5.698   0.182  0.4742 -0.8458 -1.5372
 2792TIP3    H229936   5.973   5.673   0.248  1.5245 -0.3775  0.8748
 2793TIP3   OH229937   5.540   2.071   3.616 -0.1200 -0.4901  0.5588
 2793TIP3    H129938   5.489   1.992   3.638  1.4567 -1.2941  1.4900
 2793TIP3    H229939   5.631   2.044   3.627  0.6067  0.6288 -1.9433
 2794TIP3   OH229940   5.683   5.218   1.396 -0.4287  0.2346  0.0870
 2794TIP3    H129941   5.642   5.298   1.430 -0.0934  0.1603  0.6797
 2794TIP3    H229942   5.612   5.155   1.390 -0.2069 -0.2986  2.3267
 2795TIP3   OH229943   5.361   4.176   0.513 -0.0878  0.0157  0.5637
 2795TIP3    H129944   5.324   4.242   0.572 -0.6363  1.2125 -1.0195
 2795TIP3    H229945   5.286   4.122   0.489  0.4366 -1.5063  2.1744
 2796TIP3   OH229946   6.591   0.209   2.708 -0.2250 -0.2119 -0.0361
 2796TIP3    H129947   6.589   0.115   2.691 -1.1142 -0.1298 -0.4443
 2796TIP3    H229948   6.499   0.236   2.705  0.1622  1.0303 -1.9921
 2797TIP3   OH229949   6.562   0.754   3.430 -0.1976  0.2094  0.2961
 2797TIP3    H129950   6.656   0.742   3.441 -0.6006 -1.8782  1.8625
 2797TIP3    H229951   6.548   0.847   3.450  1.6699  0.9790 -1.5349
 2798TIP3   OH229952   0.721   1.954   1.427 -0.2696  0.3742 -0.1317
 2798TIP3    H129953   0.706   2.037   1.471 -1.1938  0.1326  0.0308
 2798TIP3    H229954   0.768   1.901   1.491 -1.2539  0.1620  0.4320
 2799TIP3   OH229955   0.421   0.654   0.734 -0.3858  0.4364 -0.1546
 2799TIP3    H129956   0.418   0.571   0.685 -1.6153  0.1429  0.3826
 2799TIP3    H229957   0.347   0.704   0.701  0.3508  1.3534 -0.4809
 2800TIP3   OH229958   5.952   6.579   0.260 -0.2799  0.0849  0.6041
 2800TIP3    H129959   5.876   6.559   0.314 -1.2383  0.9332 -0.3702
 2800TIP3    H229960   6.027   6.554   0.313 -1.2437 -1.3027  1.3833
 2801TIP3   OH229961   6.621   2.262   2.948  0.2037 -0.3883  0.2028
 2801TIP3    H129962   6.660   2.309   3.021  1.3923 -2.2758  0.8784
 2801TIP3    H229963   6.529   2.286   2.949  0.4795  0.6873  1.4525
 2802TIP3   OH229964   3.247   5.213   2.841 -0.2653 -0.1151 -0.1369
 2802TIP3    H129965   3.252   5.167   2.925  1.6460  1.3367  0.5967
 2802TIP3    H229966   3.302   5.161   2.782  1.4511  0.8921  0.5444
 2803TIP3   OH229967   5.927   0.829   1.383  0.0195 -0.2598  0.3366
 2803TIP3    H129968   5.973   0.758   1.337  1.0246  0.6978 -0.1703
 2803TIP3    H229969   5.974   0.908   1.357 -0.9595  0.5722  1.0673
 2804TIP3   OH229970   1.997   4.026   2.872 -0.0628 -0.1290  0.3026
 2804TIP3    H129971   2.016   4.120   2.870  0.5602 -0.2670 -0.9393
 2804TIP3    H229972   1.906   4.021   2.903  0.1993  0.8195  1.2847
 2805TIP3   OH229973   1.271   0.964   2.555 -0.0799 -0.2561  0.1513
 2805TIP3    H129974   1.246   1.011   2.634  0.1147  0.4459 -0.2017
 2805TIP3    H229975   1.190   0.923   2.525  0.0683 -1.4897  1.3418
 2806TIP3   OH229976   5.530   1.314   2.050 -0.3844  1.2477  0.2117
 2806TIP3    H129977   5.499   1.273   1.969  0.2220  0.8639  0.1652
 2806TIP3    H229978   5.523   1.408   2.033 -1.4238  1.1749  0.1741
 2807TIP3   OH229979   3.688   5.428   8.202  0.2094 -0.1096 -0.6736
 2807TIP3    H129980   3.659   5.355   8.147 -1.4176  0.0308 -0.0537
 2807TIP3    H229981   3.748   5.478   8.147 -0.4333 -0.6458 -1.8944
 2808TIP3   OH229982   2.920   5.140   1.897 -0.0771  0.1169 -0.2150
 2808TIP3    H129983   3.004   5.141   1.851 -1.0030  0.3356 -1.9929
 2808TIP3    H229984   2.919   5.220   1.949  0.9954 -0.1305  0.2145
 2809TIP3   OH229985   0.369   6.140   0.471  0.0932 -0.2749 -0.3717
 2809TIP3    H129986   0.431   6.084   0.425  0.1289  0.4121 -1.1995
 2809TIP3    H229987   0.347   6.092   0.550  1.0984 -0.8703 -0.4336
 2810TIP3   OH229988   2.229   5.254   1.649  0.0839  1.0964  0.1757
 2810TIP3    H129989   2.232   5.347   1.627 -0.0240  0.5175 -2.6453
 2810TIP3    H229990   2.184   5.213   1.575 -1.9521 -0.9623  2.3795
 2811TIP3   OH229991   2.855   0.463   1.112  0.0373  0.2982  0.5812
 2811TIP3    H129992   2.867   0.394   1.178  1.6590 -0.8130 -0.7771
 2811TIP3    H229993   2.880   0.544   1.156  1.2776 -0.4460  1.3119
 2812TIP3   OH229994   6.597   2.646   3.155  0.4466  0.2199 -0.2817
 2812TIP3    H129995   6.525   2.651   3.092  0.0552  1.4722  0.2426
 2812TIP3    H229996   6.637   2.560   3.139 -1.0966 -0.4599 -0.6437
 2813TIP3   OH229997   0.759   1.905   2.584  0.0389 -0.1753 -0.7772
 2813TIP3    H129998   0.732   1.913   2.676  1.4641 -1.2677 -0.2299
 2813TIP3    H229999   0.806   1.822   2.580 -1.2724 -0.8873 -2.8417
 2814TIP3   OH230000   1.587   4.464   0.578  0.2940 -0.4416  0.2027
 2814TIP3    H130001   1.593   4.427   0.666  0.5018 -2.5694 -0.6547
 2814TIP3    H230002   1.496   4.450   0.552 -0.4824  2.4966  0.9664
 2815TIP3   OH230003   3.712   2.135   1.677 -0.0183 -0.1615  0.0270
 2815TIP3    H130004   3.720   2.050   1.634 -0.6336  0.2147 -0.8638
 2815TIP3    H230005   3.801   2.161   1.698  0.2211 -0.7254 -0.2915
 2816TIP3   OH230006   2.321   5.251   8.031  0.0279  0.1298  0.3058
 2816TIP3    H130007   2.260   5.179   8.012 -0.6008  1.0456 -1.4313
 2816TIP3    H230008   2.388   5.212   8.087 -0.0704 -1.9193 -0.8975
 2817TIP3   OH230009   6.123   1.351   2.098  0.2261  0.2111  0.3407
 2817TIP3    H130010   6.193   1.286   2.095  0.4654  0.4592  0.4528
 2817TIP3    H230011   6.088   1.345   2.187 -1.3518 -1.4131 -0.3210
 2818TIP3   OH230012   2.397   2.197   0.327 -0.6882  0.1554 -0.6149
 2818TIP3    H130013   2.401   2.291   0.309  0.1596  0.4568  0.9921
 2818TIP3    H230014   2.310   2.171   0.296  0.1861  0.7847 -3.9519
 2819TIP3   OH230015   2.183   2.995   8.778  0.0528  0.2283  0.5652
 2819TIP3    H130016   2.093   3.018   8.755  0.2115  0.1746 -0.1206
 2819TIP3    H230017   2.174   2.912   8.826 -0.2088 -0.1953 -0.1869
 2820TIP3   OH230018   4.894   0.233   1.886 -0.0876 -0.1772 -0.5316
 2820TIP3    H130019   4.867   0.159   1.940  1.2524 -0.4507 -0.1944
 2820TIP3    H230020   4.918   0.301   1.949 -0.6330  0.2993 -0.8283
 2821TIP3   OH230021   1.714   0.834   2.222  0.4902 -0.4098 -0.4278
 2821TIP3    H130022   1.786   0.895   2.233  0.9775 -1.0121 -0.2522
 2821TIP3    H230023   1.642   0.872   2.273  0.4931  0.4838 -1.0631
 2822TIP3   OH230024   2.537   4.126   0.960 -0.0725  0.0963  0.3236
 2822TIP3    H130025   2.609   4.188   0.972  0.5047 -0.7604  1.4534
 2822TIP3    H230026   2.503   4.146   0.873 -0.0082  2.0839  0.6989
 2823TIP3   OH230027   5.786   5.886   8.650  0.4911  0.5042 -0.4442
 2823TIP3    H130028   5.814   5.839   8.728  0.9434  0.8908 -0.3672
 2823TIP3    H230029   5.710   5.838   8.618 -0.2657  0.8876  0.7571
 2824TIP3   OH230030   5.855   5.450   2.509 -0.0768  0.2581  0.6121
 2824TIP3    H130031   5.841   5.437   2.415  0.8340 -0.8446  0.6109
 2824TIP3    H230032   5.949   5.465   2.517 -0.2120  0.7318  1.3104
 2825TIP3   OH230033   4.237   1.512   1.270  0.1498  0.5286  0.1852
 2825TIP3    H130034   4.213   1.581   1.333 -0.6117 -0.1584  0.6593
 2825TIP3    H230035   4.155   1.488   1.228  0.6302  0.8963 -1.0286
 2826TIP3   OH230036   3.403   4.028   1.027 -0.2034  0.6140 -0.4248
 2826TIP3    H130037   3.487   4.066   1.054 -0.7129  1.6548 -0.2352
 2826TIP3    H230038   3.339   4.066   1.088 -0.8770  0.2058 -0.8664
 2827TIP3   OH230039   4.632   1.878   8.287  0.1456  0.1520  0.6923
 2827TIP3    H130040   4.596   1.839   8.207  1.8663 -1.3671  0.5786
 2827TIP3    H230041   4.609   1.971   8.281  1.1346  0.3058 -2.1216
 2828TIP3   OH230042   2.072   6.092   1.886  0.2364  0.2397  0.6044
 2828TIP3    H130043   1.990   6.135   1.861  0.7826  0.2173 -1.3959
 2828TIP3    H230044   2.052   5.998   1.880  0.5456  0.2313 -0.4643
 2829TIP3   OH230045   2.115   1.334   1.736 -0.7298 -0.4489 -0.4512
 2829TIP3    H130046   2.078   1.372   1.656 -0.4496 -0.5262 -0.6202
 2829TIP3    H230047   2.098   1.399   1.804 -0.5362 -0.1615 -0.6749
 2830TIP3   OH230048   3.822   1.796   8.061 -0.1090 -0.2766 -0.3291
 2830TIP3    H130049   3.912   1.768   8.080  1.5070  2.8438 -2.3967
 2830TIP3    H230050   3.797   1.850   8.135 -0.3461 -1.1759  0.2656
 2831TIP3   OH230051   0.956   4.886   1.247  0.4894 -0.0708 -0.1176
 2831TIP3    H130052   1.016   4.956   1.271 -0.9795  1.7549 -1.4699
 2831TIP3    H230053   0.869   4.923   1.260 -0.3415 -1.4846 -1.2920
 2832TIP3   OH230054   0.576   3.976   1.354 -0.0784 -0.5307 -0.0752
 2832TIP3    H130055   0.589   3.882   1.360  2.6087 -0.1353  1.8201
 2832TIP3    H230056   0.657   4.014   1.388 -1.4932  2.4701  0.2550
 2833TIP3   OH230057   3.217   5.806   1.013 -0.2270 -0.1793 -0.1356
 2833TIP3    H130058   3.289   5.859   1.048  0.0644  0.3306 -1.4478
 2833TIP3    H230059   3.139   5.841   1.055  0.3771 -2.0770  2.9397
 2834TIP3   OH230060   2.279   0.724   7.565  0.0391  0.1831  0.6454
 2834TIP3    H130061   2.318   0.807   7.592  1.4905 -0.5445  0.8807
 2834TIP3    H230062   2.351   0.675   7.526 -0.7557 -1.0195  0.6232
 2835TIP3   OH230063   6.447   0.812   0.684  0.5042  0.0471 -0.0628
 2835TIP3    H130064   6.437   0.872   0.611  2.8888  0.3703 -0.1767
 2835TIP3    H230065   6.506   0.856   0.745  1.5155 -1.7340  0.3316
 2836TIP3   OH230066   2.720   4.906   0.727  0.0718  0.5080  0.0867
 2836TIP3    H130067   2.653   4.927   0.663 -1.0042 -0.9663  0.6538
 2836TIP3    H230068   2.803   4.915   0.679 -0.5686  1.5142 -0.8753
 2837TIP3   OH230069   3.539   4.312   2.316 -0.2653  0.0688 -0.2014
 2837TIP3    H130070   3.559   4.236   2.261  0.2637 -1.8115  2.3953
 2837TIP3    H230071   3.444   4.314   2.321 -0.2658 -1.0344  0.4521
 2838TIP3   OH230072   6.656   2.980   8.422 -0.3183  0.6625  0.3387
 2838TIP3    H130073   6.650   2.910   8.487 -0.2511  1.6342  1.4355
 2838TIP3    H230074   6.656   2.935   8.337 -1.3875 -0.5862  0.9712
 2839TIP3   OH230075   0.384   3.813   1.960 -0.2247  0.1326  0.3141
 2839TIP3    H130076   0.329   3.734   1.962 -1.6225  1.0915  1.5943
 2839TIP3    H230077   0.392   3.833   1.866 -1.4600 -0.4559  0.0601
 2840TIP3   OH230078   1.232   5.495   8.714  0.2002  0.2919 -0.8703
 2840TIP3    H130079   1.325   5.476   8.728  0.1693  0.9926  0.3674
 2840TIP3    H230080   1.233   5.562   8.645  0.6323  0.5843 -0.5872
 2841TIP3   OH230081   5.030   1.247   3.708 -0.7686  0.0661  0.3990
 2841TIP3    H130082   4.967   1.176   3.721  0.9137 -1.1640  2.6271
 2841TIP3    H230083   5.091   1.213   3.643 -1.8269  0.9132 -1.1038
 2842TIP3   OH230084   1.397   5.026   1.451  0.2034  0.1152 -0.0013
 2842TIP3    H130085   1.315   4.978   1.438 -0.6185  1.1524  1.1294
 2842TIP3    H230086   1.408   5.077   1.371 -0.8488  0.7767  0.2535
 2843TIP3   OH230087   6.306   4.195   1.178 -0.3212  0.4138 -0.2904
 2843TIP3    H130088   6.290   4.286   1.155 -1.7341  0.2333 -0.0638
 2843TIP3    H230089   6.402   4.187   1.178 -0.1820  1.2278 -2.8937
 2844TIP3   OH230090   4.770   1.633   8.180 -0.2325  0.1682 -0.3618
 2844TIP3    H130091   4.744   1.720   8.213  1.4193  0.5496  0.0034
 2844TIP3    H230092   4.820   1.594   8.252 -1.3597 -1.3239 -0.3313
 2845TIP3   OH230093   4.836   2.294   1.457  0.0961  0.3309 -0.3282
 2845TIP3    H130094   4.748   2.298   1.494  0.0822  1.2005 -0.4375
 2845TIP3    H230095   4.891   2.267   1.530 -0.1801  0.3216 -0.1198
 2846TIP3   OH230096   2.518   2.041   7.787 -0.1866 -0.1424  0.2990
 2846TIP3    H130097   2.509   2.042   7.882 -0.3733 -1.5504  0.3289
 2846TIP3    H230098   2.431   2.067   7.754 -0.3824 -0.5024  0.5246
 2847TIP3   OH230099   1.190   4.047   2.072  0.0348  0.4046 -0.1848
 2847TIP3    H130100   1.253   4.000   2.125 -0.1125 -0.3014 -0.6251
 2847TIP3    H230101   1.207   4.018   1.983 -0.7685  0.3709 -0.3330
 2848TIP3   OH230102   4.835   6.121   0.862 -0.1021 -0.1959  0.2285
 2848TIP3    H130103   4.826   6.121   0.958  0.1986  1.1412  0.2646
 2848TIP3    H230104   4.928   6.134   0.846  0.0305 -1.5689 -0.2596
 2849TIP3   OH230105   0.747   2.192   0.563  0.2350 -0.6156  0.0001
 2849TIP3    H130106   0.711   2.238   0.638  2.4305  1.5732 -0.1716
 2849TIP3    H230107   0.805   2.126   0.600 -1.5020 -2.0906  0.2148
 2850TIP3   OH230108   2.377   5.380   8.778  0.3392  0.2587  0.6049
 2850TIP3    H130109   2.340   5.311   8.723 -0.9576  0.3717  1.2908
 2850TIP3    H230110   2.314   5.389   8.850  1.2288  1.1561  1.2949
 2851TIP3   OH230111   0.222   1.194   8.410 -0.8475  0.0401 -0.0564
 2851TIP3    H130112   0.301   1.146   8.434 -1.2550 -0.4778  0.2719
 2851TIP3    H230113   0.215   1.182   8.315  0.5070  1.7057 -0.4325
 2852TIP3   OH230114   2.049   6.471   0.147  0.4172 -0.2921  0.2789
 2852TIP3    H130115   2.090   6.413   0.083 -2.2680 -2.4880  0.3683
 2852TIP3    H230116   2.040   6.555   0.101  1.3380 -0.9131 -1.0866
 2853TIP3   OH230117   3.284   0.744   2.021  0.2516  0.0316  0.0415
 2853TIP3    H130118   3.216   0.723   1.957  0.3508 -0.1687  0.0010
 2853TIP3    H230119   3.307   0.835   2.002  1.4639 -0.5155 -1.3241
 2854TIP3   OH230120   2.928   3.352   1.542  0.4829  0.2270  0.1032
 2854TIP3    H130121   2.877   3.431   1.523 -0.9804 -0.6924  0.0346
 2854TIP3    H230122   2.924   3.301   1.461  2.5374  0.6495 -0.2978
 2855TIP3   OH230123   2.916   4.807   2.679 -0.4634 -0.6272 -0.0838
 2855TIP3    H130124   2.949   4.718   2.675 -2.0232 -1.1970 -1.1187
 2855TIP3    H230125   2.893   4.829   2.589  1.2122  1.3731 -0.1101
 2856TIP3   OH230126   2.935   4.562   1.669  0.1005  0.0489 -0.2980
 2856TIP3    H130127   3.017   4.542   1.714  0.4614  0.3589 -0.8078
 2856TIP3    H230128   2.869   4.512   1.717  0.5897 -0.2265  0.1023
 2857TIP3   OH230129   4.594   6.000   8.777  0.4910 -0.2830 -0.3510
 2857TIP3    H130130   4.673   6.009   8.830  0.6374  1.8875 -0.8651
 2857TIP3    H230131   4.542   5.935   8.824  1.5536 -0.0307  1.2759
 2858TIP3   OH230132   0.012   4.521   8.898  0.1557 -0.3027 -0.2110
 2858TIP3    H130133   0.020   4.595   8.838 -0.2432  0.3214  0.4892
 2858TIP3    H230134  -0.057   4.466   8.859 -1.1434  0.8347  0.4041
 2859TIP3   OH230135   3.639   2.687   0.888 -0.4009 -0.0875  0.1660
 2859TIP3    H130136   3.693   2.736   0.950  1.3777  0.2337 -1.5330
 2859TIP3    H230137   3.611   2.753   0.824 -0.7094 -0.7172 -0.3568
 2860TIP3   OH230138   1.738   4.554   3.151  0.2300 -0.4397  0.2849
 2860TIP3    H130139   1.747   4.459   3.143 -0.3780 -0.4391 -0.6102
 2860TIP3    H230140   1.820   4.583   3.192 -0.6382 -1.6158  3.0836
 2861TIP3   OH230141   0.160   0.933   8.692  0.1086 -0.5479  0.7157
 2861TIP3    H130142   0.108   0.854   8.709  0.5517 -1.6067 -2.2626
 2861TIP3    H230143   0.162   0.940   8.597  0.3055  2.9826  0.8515
 2862TIP3   OH230144   1.699   1.747   1.593 -0.0589 -1.0533  0.2291
 2862TIP3    H130145   1.752   1.733   1.514 -0.1271 -0.0133 -0.0135
 2862TIP3    H230146   1.618   1.786   1.560 -0.7841 -2.1429  0.6492
 2863TIP3   OH230147   4.425   4.496   7.880 -0.2989  0.9272  0.2671
 2863TIP3    H130148   4.432   4.585   7.845 -1.2554  0.6936 -0.5621
 2863TIP3    H230149   4.345   4.461   7.841  0.6514 -0.6962 -0.3268
 2864TIP3   OH230150   5.502   4.463   8.031 -0.0269 -0.6731  0.0439
 2864TIP3    H130151   5.438   4.494   7.967 -0.8812 -0.6205  0.9104
 2864TIP3    H230152   5.481   4.509   8.112 -0.0183 -1.9607  0.8156
 2865TIP3   OH230153   2.410   1.846   1.219 -0.1422  1.1579  0.3699
 2865TIP3    H130154   2.461   1.816   1.143  0.6013  0.3589  1.1634
 2865TIP3    H230155   2.384   1.765   1.263  0.1821  1.6335  1.4475
 2866TIP3   OH230156   4.191   2.753   3.149 -0.4121  0.6684  0.5385
 2866TIP3    H130157   4.120   2.717   3.202  0.1422 -0.2005  0.7080
 2866TIP3    H230158   4.266   2.758   3.209 -0.2197  1.2245  0.2638
 2867TIP3   OH230159   2.979   3.742   7.823  0.2012  0.5704  0.3192
 2867TIP3    H130160   2.954   3.685   7.750  0.0830  0.8697  0.1206
 2867TIP3    H230161   2.930   3.823   7.807 -1.6370 -0.1371  1.9906
 2868TIP3   OH230162   2.970   1.810   8.269  0.6240  0.5139  0.8562
 2868TIP3    H130163   3.027   1.872   8.315  0.9712  0.3587  0.6430
 2868TIP3    H230164   2.988   1.726   8.311 -0.3764  0.6641  1.6353
 2869TIP3   OH230165   4.982   0.849   1.804 -0.1607 -0.3662 -0.5788
 2869TIP3    H130166   5.016   0.886   1.886 -1.1269 -0.4888 -0.1127
 2869TIP3    H230167   4.963   0.926   1.750  1.2751 -0.3009 -1.0470
 2870TIP3   OH230168   1.891   2.755   1.721 -0.2580 -0.5820  0.3566
 2870TIP3    H130169   1.978   2.790   1.703 -0.2946 -0.6643  0.0178
 2870TIP3    H230170   1.869   2.705   1.643 -0.9186  0.0438  0.1321
 2871TIP3   OH230171   6.079   5.789   8.170  0.6607 -0.2282  0.3793
 2871TIP3    H130172   6.155   5.788   8.227  0.3104  1.0166  0.8973
 2871TIP3    H230173   6.004   5.788   8.229  0.2533 -1.5829 -0.1241
 2872TIP3   OH230174   2.231   2.118   8.957 -0.3697  0.1086 -0.1476
 2872TIP3    H130175   2.320   2.149   8.972 -0.5704  0.2700  0.7478
 2872TIP3    H230176   2.186   2.194   8.920 -0.9555  1.0871  2.3699
 2873TIP3   OH230177   0.027   5.902   1.967 -0.1862 -0.1023 -0.0915
 2873TIP3    H130178  -0.028   5.938   2.036  0.5368  0.6648  0.1124
 2873TIP3    H230179   0.009   5.808   1.968 -0.0126 -0.1517  1.3157
 2874TIP3   OH230180   0.422   2.244   2.461 -0.0758  0.4347 -0.1972
 2874TIP3    H130181   0.421   2.149   2.466  0.3150  0.5000  1.3525
 2874TIP3    H230182   0.329   2.269   2.460 -0.2601  0.1318  2.4109
 2875TIP3   OH230183   0.031   1.930   7.602 -0.6303  0.2975  0.0798
 2875TIP3    H130184   0.002   1.869   7.534 -1.8469  2.2152 -1.1843
 2875TIP3    H230185   0.105   1.976   7.563 -0.4972  0.5031  0.5634
 2876TIP3   OH230186   2.523   5.201   1.673  0.1050 -0.2119  0.3521
 2876TIP3    H130187   2.550   5.129   1.729 -1.0482 -0.5599  0.4924
 2876TIP3    H230188   2.427   5.200   1.676  0.0515  1.7737  0.9212
 2877TIP3   OH230189   4.674   4.430   1.181 -0.4127 -0.5617 -0.5379
 2877TIP3    H130190   4.698   4.499   1.118 -1.3663  0.9838  0.7189
 2877TIP3    H230191   4.723   4.452   1.260 -3.1793  0.6916  0.9579
 2878TIP3   OH230192   2.699   3.251   1.649 -0.2692 -0.3125 -0.2437
 2878TIP3    H130193   2.619   3.297   1.623 -1.2039 -1.0302  1.2264
 2878TIP3    H230194   2.768   3.316   1.638 -1.3505  1.0114  0.4589
 2879TIP3   OH230195   6.007   4.811   1.746 -0.4210  0.1623  0.3394
 2879TIP3    H130196   5.974   4.767   1.668  1.6391  0.0849 -0.5528
 2879TIP3    H230197   6.039   4.740   1.802  1.3528  0.3624 -0.3578
 2880TIP3   OH230198   5.182   0.282   2.498  0.4477 -0.4210 -0.0883
 2880TIP3    H130199   5.110   0.316   2.551  0.5854  0.0272 -0.1847
 2880TIP3    H230200   5.169   0.320   2.412  1.3516  0.4763  0.1403
 2881TIP3   OH230201   6.356   3.246   2.373 -0.0268 -0.0832  0.2901
 2881TIP3    H130202   6.317   3.188   2.439 -0.6458  0.6799  0.6094
 2881TIP3    H230203   6.402   3.187   2.314 -0.5003 -0.8931  0.7084
 2882TIP3   OH230204   4.845   3.370   1.248 -0.7903 -0.5753  0.4213
 2882TIP3    H130205   4.937   3.347   1.237 -0.5350  0.7373 -0.3494
 2882TIP3    H230206   4.797   3.298   1.207 -0.1012 -1.0062  0.3610
 2883TIP3   OH230207   1.382   0.667   1.727 -0.1713  0.2253 -0.0218
 2883TIP3    H130208   1.309   0.711   1.771  0.1431 -0.0739  0.8066
 2883TIP3    H230209   1.434   0.630   1.797  0.4542 -0.0919 -0.6399
 2884TIP3   OH230210   3.678   5.082   1.076 -0.0122 -0.3418  0.4181
 2884TIP3    H130211   3.605   5.031   1.040 -0.0801 -0.5717  0.8737
 2884TIP3    H230212   3.739   5.016   1.109 -1.1652 -0.1596  3.1609
 2885TIP3   OH230213   4.615   0.341   1.297 -0.1547  0.1603  0.4385
 2885TIP3    H130214   4.587   0.432   1.308 -2.2590 -0.4905  0.8334
 2885TIP3    H230215   4.577   0.314   1.213 -2.3121 -1.2553  1.7696
 2886TIP3   OH230216   4.828   5.007   2.738 -0.0415  0.4223  0.0042
 2886TIP3    H130217   4.785   5.054   2.809 -0.9269 -2.8356  1.8499
 2886TIP3    H230218   4.758   4.981   2.679 -0.1482 -1.5292  0.9217
 2887TIP3   OH230219   0.953   5.690   1.243 -0.6525 -0.2671  0.1976
 2887TIP3    H130220   0.935   5.650   1.158  0.2352  0.9324 -0.5960
 2887TIP3    H230221   1.020   5.756   1.224  0.1167 -0.4910  1.9675
 2888TIP3   OH230222   1.019   1.897   0.862  0.1288 -0.0089 -0.6247
 2888TIP3    H130223   0.949   1.899   0.928 -1.0587 -0.4019 -1.8388
 2888TIP3    H230224   1.033   1.804   0.845  1.8022  0.0147  0.4563
 2889TIP3   OH230225   0.032   2.764   8.271  0.4349 -0.0922  0.0985
 2889TIP3    H130226   0.063   2.678   8.243 -0.4362 -0.7580  1.1136
 2889TIP3    H230227   0.094   2.792   8.338  0.4804 -0.1260  0.0702
 2890TIP3   OH230228   2.262   2.261   7.855 -0.2094  0.9850  0.5161
 2890TIP3    H130229   2.176   2.223   7.835 -0.9035  2.3733  0.7533
 2890TIP3    H230230   2.297   2.288   7.770  0.6453 -0.8070  0.2385
 2891TIP3   OH230231   2.451   4.422   0.248 -0.3099 -0.2573  0.1138
 2891TIP3    H130232   2.440   4.389   0.159 -1.3314  0.9137 -0.2222
 2891TIP3    H230233   2.546   4.434   0.257 -0.2918  1.0354 -1.3738
 2892TIP3   OH230234   3.234   0.448   0.956 -0.2946  0.0991 -0.2098
 2892TIP3    H130235   3.295   0.472   1.026  0.0833 -0.9196 -0.1786
 2892TIP3    H230236   3.192   0.531   0.932 -0.3165  0.4902  1.1078
 2893TIP3   OH230237   2.856   4.492   1.403 -0.0383  0.5713  0.4841
 2893TIP3    H130238   2.768   4.475   1.368 -0.8144  1.3914  1.9619
 2893TIP3    H230239   2.843   4.561   1.468  1.5591 -0.0044  1.4561
 2894TIP3   OH230240   2.699   0.795   1.697 -0.4905 -0.4010  0.3182
 2894TIP3    H130241   2.660   0.762   1.616 -1.4152 -1.3483  1.1328
 2894TIP3    H230242   2.668   0.736   1.765  1.2988 -0.3922  1.2106
 2895TIP3   OH230243   6.369   0.682   7.269  0.2628 -0.1669 -0.2673
 2895TIP3    H130244   6.298   0.703   7.209  0.6451 -0.0659 -0.6836
 2895TIP3    H230245   6.328   0.625   7.335 -0.7996  1.8371  0.9023
 2896TIP3   OH230246   5.952   0.920   0.140 -0.2554  0.7388 -0.0314
 2896TIP3    H130247   5.981   0.976   0.068  0.7956  2.2867  1.5182
 2896TIP3    H230248   6.030   0.907   0.193 -0.9576 -0.5685  0.7381
 2897TIP3   OH230249   2.757   4.354   2.886 -0.2396 -0.3283  0.0724
 2897TIP3    H130250   2.824   4.292   2.914  1.0820  0.0085 -2.1332
 2897TIP3    H230251   2.791   4.392   2.805 -2.9831  0.0594 -1.0197
 2898TIP3   OH230252   1.919   3.646   2.384  0.5752 -0.1026  0.7070
 2898TIP3    H130253   1.921   3.683   2.295  1.6485  0.9357  1.1398
 2898TIP3    H230254   1.986   3.695   2.432  0.0564 -0.6937  2.0835
 2899TIP3   OH230255   6.087   0.195   0.527  0.0848 -0.4216  0.0122
 2899TIP3    H130256   6.165   0.234   0.565  0.5340 -0.3901 -0.8975
 2899TIP3    H230257   6.021   0.264   0.529 -0.1155 -0.6348  1.3296
 2900TIP3   OH230258   1.479   3.561   8.212  0.2875 -0.1687  0.1302
 2900TIP3    H130259   1.416   3.625   8.243  0.2346 -1.2062  2.4361
 2900TIP3    H230260   1.506   3.514   8.292  1.3582 -2.0571 -1.2617
 2901TIP3   OH230261   2.807   5.195   7.792  0.3842  0.3950 -0.3587
 2901TIP3    H130262   2.783   5.107   7.822  2.1702 -0.0054  0.0045
 2901TIP3    H230263   2.723   5.241   7.785 -0.6006 -1.3048 -0.5241
 2902TIP3   OH230264   2.173   3.379   3.841  0.2752  0.2789 -0.0725
 2902TIP3    H130265   2.134   3.361   3.756 -0.3536 -0.2540  0.3151
 2902TIP3    H230266   2.242   3.313   3.850 -0.6590 -0.6606  0.4602
 2903TIP3   OH230267   6.066   3.750   0.659  0.0841 -0.5950  0.3049
 2903TIP3    H130268   6.087   3.788   0.574  1.5734 -2.9634 -0.5136
 2903TIP3    H230269   6.151   3.733   0.700 -0.4733 -2.3106  0.8760
 2904TIP3   OH230270   4.543   4.652   3.290 -0.0575  0.3938  0.3254
 2904TIP3    H130271   4.535   4.585   3.222 -0.7459 -0.2594  1.0234
 2904TIP3    H230272   4.626   4.695   3.272  0.6419 -0.9838  0.1335
 2905TIP3   OH230273   5.185   3.696   0.980  0.4951 -0.4334  0.0058
 2905TIP3    H130274   5.208   3.603   0.978  1.2765 -0.2348 -1.8857
 2905TIP3    H230275   5.257   3.740   0.935  0.8088  1.2848  2.0463
 2906TIP3   OH230276   6.606   0.084   2.437  0.2719 -0.1733 -0.5447
 2906TIP3    H130277   6.695   0.117   2.446  0.1896 -0.3220  0.9275
 2906TIP3    H230278   6.587   0.041   2.520 -1.0956 -0.3427 -0.9201
 2907TIP3   OH230279   5.253   5.931   2.263  0.4579  0.3291 -0.5873
 2907TIP3    H130280   5.281   5.853   2.312 -1.6120 -0.3752 -0.4440
 2907TIP3    H230281   5.248   6.000   2.328  3.1856  0.9008 -0.8640
 2908TIP3   OH230282   4.016   4.501   1.043  0.0532  0.0630 -0.1129
 2908TIP3    H130283   4.082   4.436   1.020 -0.4988 -0.5665  0.0717
 2908TIP3    H230284   4.010   4.557   0.965  0.4034 -0.2060 -0.3385
 2909TIP3   OH230285   0.122   1.686   1.215  0.6671  0.0303  0.4602
 2909TIP3    H130286   0.043   1.737   1.195  1.9897  1.6682 -0.9759
 2909TIP3    H230287   0.143   1.642   1.132  0.1298 -2.1028  1.4062
 2910TIP3   OH230288   2.709   5.351   8.898  0.8386 -0.2790  0.8461
 2910TIP3    H130289   2.667   5.374   8.815 -0.6761 -0.8141  1.4276
 2910TIP3    H230290   2.696   5.427   8.954 -0.3316 -0.8502  1.3730
 2911TIP3   OH230291   5.752   2.791   0.578  0.2897 -0.8486  0.5408
 2911TIP3    H130292   5.814   2.860   0.602  0.4643 -0.3141 -1.3255
 2911TIP3    H230293   5.727   2.752   0.662  0.2107  1.4327  1.6769
 2912TIP3   OH230294   5.807   1.259   2.024  0.9933 -0.1521 -0.1384
 2912TIP3    H130295   5.818   1.209   2.105  2.7647  1.6350  0.7919
 2912TIP3    H230296   5.731   1.315   2.040  1.1716 -0.0011  0.1794
 2913TIP3   OH230297   4.704   3.956   2.657  0.1124  0.0467  0.3052
 2913TIP3    H130298   4.639   4.016   2.694 -1.1133 -0.6408 -0.6692
 2913TIP3    H230299   4.722   3.991   2.569  3.6346  2.1647  1.6399
 2914TIP3   OH230300   6.158   6.697   2.579  0.7294  0.3480 -0.0340
 2914TIP3    H130301   6.221   6.693   2.507  0.4239 -0.6719 -0.2616
 2914TIP3    H230302   6.105   6.617   2.570 -0.7919  1.3107 -0.0189
 2915TIP3   OH230303   4.013   4.892   0.616  0.1639  0.2579  0.2843
 2915TIP3    H130304   4.039   4.941   0.695 -0.5306  2.2873 -0.6907
 2915TIP3    H230305   4.070   4.925   0.547 -1.2483  0.7107 -0.7025
 2916TIP3   OH230306   3.946   6.500   0.939  0.5975 -0.2263 -0.6524
 2916TIP3    H130307   3.939   6.412   0.976 -0.1878 -0.3986 -1.1833
 2916TIP3    H230308   4.040   6.516   0.933  0.7437 -0.8849 -0.2058
 2917TIP3   OH230309   4.029   2.396   2.382 -0.1675  0.1640  0.6544
 2917TIP3    H130310   4.016   2.428   2.292  0.6698  2.1496  1.1757
 2917TIP3    H230311   4.121   2.370   2.385 -0.0888  0.4796  1.0382
 2918TIP3   OH230312   3.984   6.321   8.512  0.0549 -0.0657 -0.2718
 2918TIP3    H130313   3.990   6.357   8.424 -1.1257 -1.9480 -1.1620
 2918TIP3    H230314   3.893   6.336   8.538  0.3931  0.4769  0.6570
 2919TIP3   OH230315   2.232   5.870   3.569 -0.2688 -0.6596  0.5411
 2919TIP3    H130316   2.268   5.783   3.556  2.0262  0.5144 -1.9084
 2919TIP3    H230317   2.191   5.892   3.486  1.7187  1.5951  0.0473
 2920TIP3   OH230318   5.780   0.280   8.454  0.5191 -0.0078  0.0228
 2920TIP3    H130319   5.809   0.351   8.398  1.8410 -0.0110  0.6491
 2920TIP3    H230320   5.828   0.293   8.536  0.3483 -1.2732  0.3535
 2921TIP3   OH230321   1.342   0.313   8.442 -0.1931  0.1312  0.0627
 2921TIP3    H130322   1.323   0.308   8.348 -0.9328 -0.2884  0.2319
 2921TIP3    H230323   1.257   0.323   8.483  0.1780  1.0514  0.6543
 2922TIP3   OH230324   5.026   6.494   1.874 -0.6542  0.3134 -0.3217
 2922TIP3    H130325   5.067   6.553   1.810 -0.8107 -1.1063 -1.8121
 2922TIP3    H230326   4.942   6.471   1.835 -0.4558 -1.1331  0.0243
 2923TIP3   OH230327   5.430   1.014   1.556 -0.3293  0.1384  0.5812
 2923TIP3    H130328   5.362   1.072   1.520 -0.1765 -0.8794 -1.4458
 2923TIP3    H230329   5.381   0.939   1.591 -0.2808 -0.9042 -1.4642
 2924TIP3   OH230330   2.722   2.943   3.204  0.1465  0.1355 -0.3956
 2924TIP3    H130331   2.692   2.852   3.204 -1.2643  0.5549 -1.8693
 2924TIP3    H230332   2.665   2.987   3.267  0.7103  0.0609  0.1816
 2925TIP3   OH230333   3.187   2.382   8.633 -0.1620 -0.3603 -0.0298
 2925TIP3    H130334   3.133   2.427   8.698  0.2660  0.2127 -0.0631
 2925TIP3    H230335   3.214   2.452   8.573 -1.2972 -1.0078 -1.3642
 2926TIP3   OH230336   4.166   5.306   0.364  0.3366 -0.3164  0.1530
 2926TIP3    H130337   4.222   5.302   0.442  0.9301  0.6743 -0.1971
 2926TIP3    H230338   4.140   5.397   0.358  0.3920 -0.3532 -0.8665
 2927TIP3   OH230339   2.857   0.189   8.217 -0.1719 -0.3699  0.1184
 2927TIP3    H130340   2.953   0.187   8.213 -0.1809 -2.0970  0.1103
 2927TIP3    H230341   2.830   0.099   8.197 -1.7791 -0.0434  0.6666
 2928TIP3   OH230342   0.738   6.377   8.446  0.1885 -0.0071 -0.2676
 2928TIP3    H130343   0.808   6.311   8.450  0.5705  0.3943 -0.2832
 2928TIP3    H230344   0.712   6.379   8.354  1.2728  0.9892 -0.5736
 2929TIP3   OH230345   1.199   4.298   0.563  0.0794 -0.6197 -0.0692
 2929TIP3    H130346   1.229   4.374   0.514  0.5403 -0.6982  0.0909
 2929TIP3    H230347   1.187   4.230   0.496 -1.7606 -0.0016 -0.4316
 2930TIP3   OH230348   0.641   0.393   2.441  0.0841 -0.5329  0.2004
 2930TIP3    H130349   0.669   0.336   2.513  0.6224  1.6279  1.8104
 2930TIP3    H230350   0.550   0.414   2.461  0.7505  1.4799  1.2821
 2931TIP3   OH230351   2.094   2.650   2.560 -0.4537 -0.2346  0.3853
 2931TIP3    H130352   2.155   2.601   2.615 -0.2456 -2.5654 -1.7548
 2931TIP3    H230353   2.149   2.709   2.509 -0.2383 -0.5795  0.2139
 2932TIP3   OH230354   4.486   6.415   0.630 -0.6704 -0.5279 -0.4757
 2932TIP3    H130355   4.559   6.357   0.607  0.9241  1.3670 -0.4175
 2932TIP3    H230356   4.522   6.503   0.623 -2.6911  0.4496  0.5738
 2933TIP3   OH230357   3.584   1.004   8.258  0.1427  0.0236  0.0869
 2933TIP3    H130358   3.578   1.088   8.214  1.0649  0.4415  0.7248
 2933TIP3    H230359   3.669   1.006   8.303 -0.9409 -0.1546  2.2924
 2934TIP3   OH230360   1.361   2.734   8.568 -0.0690  0.0047  0.2422
 2934TIP3    H130361   1.404   2.701   8.489 -1.1003  1.7563 -1.1414
 2934TIP3    H230362   1.269   2.743   8.543 -0.8546 -1.3807  2.3568
 2935TIP3   OH230363   1.393   0.078   2.630  1.2341 -0.7973  0.2194
 2935TIP3    H130364   1.380   0.171   2.650  0.1520 -0.7674 -0.5696
 2935TIP3    H230365   1.404   0.036   2.715 -4.3300 -0.8583  1.2875
 2936TIP3   OH230366   0.726   3.093   1.920 -0.2417  0.7319  0.2272
 2936TIP3    H130367   0.780   3.150   1.974 -0.5548  0.7617  0.5110
 2936TIP3    H230368   0.739   3.006   1.956 -0.0242  0.6705  0.0039
 2937TIP3   OH230369   5.411   0.331   7.669  0.5556  0.0838 -0.5057
 2937TIP3    H130370   5.398   0.422   7.697  1.4122  0.4595 -1.2530
 2937TIP3    H230371   5.496   0.333   7.624  1.7648 -1.5668  1.5349
 2938TIP3   OH230372   1.901   2.381   0.982 -0.2191  0.0038 -0.7475
 2938TIP3    H130373   1.951   2.424   0.913  1.1992 -0.2200  0.0883
 2938TIP3    H230374   1.810   2.388   0.955  0.3296 -0.6744 -2.9810
 2939TIP3   OH230375   1.694   0.446   1.789 -0.2204  0.1884  0.0839
 2939TIP3    H130376   1.690   0.540   1.807 -0.1689  0.2439 -0.1998
 2939TIP3    H230377   1.787   0.427   1.785 -0.2158  0.4096 -1.3418
 2940TIP3   OH230378   1.354   4.152   8.061 -0.0939  0.5122 -0.6811
 2940TIP3    H130379   1.335   4.208   7.986 -0.7931  1.1912 -0.0146
 2940TIP3    H230380   1.344   4.209   8.137 -0.9528 -0.5390  0.0203
 2941TIP3   OH230381   4.797   1.553   2.229  0.5886  0.4639 -0.2390
 2941TIP3    H130382   4.841   1.504   2.160 -1.2133  0.8523 -1.7453
 2941TIP3    H230383   4.822   1.644   2.212  0.8942  0.4673  0.2190
 2942TIP3   OH230384   5.201   5.734   1.411 -0.1088 -0.5803 -0.2478
 2942TIP3    H130385   5.130   5.673   1.429 -0.4614 -0.1698 -0.2415
 2942TIP3    H230386   5.271   5.679   1.375  0.7097 -1.4989  2.4678
 2943TIP3   OH230387   4.092   4.538   3.588  0.1062  0.2119 -0.4107
 2943TIP3    H130388   4.186   4.533   3.605  0.2753  1.8838 -0.6268
 2943TIP3    H230389   4.074   4.467   3.527  1.4714  0.6000 -1.3074
 2944TIP3   OH230390   2.658   0.940   3.117  0.0219  0.1515 -0.3115
 2944TIP3    H130391   2.570   0.968   3.092 -0.6398  0.1552  1.8040
 2944TIP3    H230392   2.686   1.004   3.182  1.0629 -0.5915  0.0057
 2945TIP3   OH230393   0.899   6.433   0.450  0.1362 -0.1899 -0.2507
 2945TIP3    H130394   0.829   6.370   0.468 -1.0633  1.4171  0.9832
 2945TIP3    H230395   0.921   6.470   0.535  1.2551  0.6154 -0.8572
 2946TIP3   OH230396   6.642   1.838   0.479 -0.2877 -0.1273  0.1658
 2946TIP3    H130397   6.641   1.882   0.564 -0.7052  1.8490 -0.8010
 2946TIP3    H230398   6.619   1.907   0.416  0.3598 -1.4438 -1.5925
 2947TIP3   OH230399   5.698   2.359   0.776 -0.4917  0.0747 -0.1378
 2947TIP3    H130400   5.612   2.384   0.811 -0.6578  0.4501 -0.8051
 2947TIP3    H230401   5.718   2.276   0.819  0.0092  1.2477  2.0255
 2948TIP3   OH230402   2.168   6.115   0.542  0.0267 -0.1749 -0.2294
 2948TIP3    H130403   2.256   6.113   0.505 -0.9934  0.2195 -2.9026
 2948TIP3    H230404   2.144   6.208   0.540 -0.1963 -0.1680  1.2812
 2949TIP3   OH230405   3.323   1.547   1.288 -0.0877 -0.3177  0.5426
 2949TIP3    H130406   3.329   1.526   1.195 -1.1548 -1.3956  0.6807
 2949TIP3    H230407   3.401   1.598   1.307 -0.1004  0.3491 -1.0471
 2950TIP3   OH230408   5.640   0.704   1.847  0.1342 -0.0444 -0.1581
 2950TIP3    H130409   5.728   0.697   1.883 -0.7070 -0.9949  1.9270
 2950TIP3    H230410   5.652   0.742   1.760  2.2738  3.2370  1.3831
 2951TIP3   OH230411   1.952   1.967   8.970 -0.3525  0.0937  0.3658
 2951TIP3    H130412   2.041   1.992   8.994  0.4765 -0.4340 -1.9622
 2951TIP3    H230413   1.959   1.874   8.948 -1.6139 -0.0893  0.6631
 2952TIP3   OH230414   5.425   6.693   8.911  0.1666  0.2031  0.0933
 2952TIP3    H130415   5.464   6.649   8.836 -0.3960  0.8778 -0.6161
 2952TIP3    H230416   5.343   6.645   8.927 -0.2059  0.6716 -0.3707
 2953TIP3   OH230417   4.010   5.345   8.645  0.3144 -0.0787 -0.1685
 2953TIP3    H130418   3.980   5.435   8.633  1.0077  0.1214 -0.4125
 2953TIP3    H230419   4.062   5.347   8.725 -1.3713 -0.6953  0.9990
 2954TIP3   OH230420   3.377   0.443   7.911  0.4146 -0.5178 -0.1685
 2954TIP3    H130421   3.332   0.413   7.832  1.4925  1.2560 -1.5228
 2954TIP3    H230422   3.351   0.534   7.921  0.3122 -0.6957  1.5599
 2955TIP3   OH230423   3.227   1.754   8.611 -0.0232 -0.3293 -0.4951
 2955TIP3    H130424   3.166   1.682   8.596 -0.5277  0.0804 -0.4278
 2955TIP3    H230425   3.258   1.778   8.524  2.5981 -2.6876 -0.3592
 2956TIP3   OH230426   2.975   1.901   1.940 -0.6964  0.1378  0.4734
 2956TIP3    H130427   3.068   1.922   1.935 -0.5074 -0.8068 -0.1214
 2956TIP3    H230428   2.931   1.983   1.918  0.0146  0.2041 -0.8142
 2957TIP3   OH230429   4.017   4.612   8.859 -0.2513 -0.5432 -0.7036
 2957TIP3    H130430   4.104   4.650   8.867 -0.3463 -0.5313  0.4762
 2957TIP3    H230431   4.031   4.517   8.860 -0.2084 -0.5414 -1.0995
 2958TIP3   OH230432   3.852   2.048   7.893 -0.1002 -0.1857 -0.0999
 2958TIP3    H130433   3.886   2.082   7.976  0.6503 -0.7745 -0.1489
 2958TIP3    H230434   3.834   1.956   7.911  1.9340 -0.8357 -1.0817
 2959TIP3   OH230435   0.593   1.590   2.151 -0.4177 -0.2929 -0.1476
 2959TIP3    H130436   0.676   1.564   2.190 -0.0948  0.2450 -0.4528
 2959TIP3    H230437   0.528   1.532   2.190  0.0393 -0.4237  0.4271
 2960TIP3   OH230438   5.821   1.770   1.430  0.3683  0.2992 -0.1763
 2960TIP3    H130439   5.834   1.682   1.465  0.1591 -1.0158 -3.0900
 2960TIP3    H230440   5.798   1.823   1.506  3.1186 -1.5129  2.1098
 2961TIP3   OH230441   3.393   2.644   8.242 -0.5870  0.1023 -0.2299
 2961TIP3    H130442   3.448   2.567   8.254 -0.7444 -0.0314 -0.3531
 2961TIP3    H230443   3.434   2.712   8.295 -0.4360 -0.0614 -0.1372
 2962TIP3   OH230444   3.270   6.070   2.799  0.1153  0.5541  0.2644
 2962TIP3    H130445   3.236   6.124   2.871  0.8509  1.5989 -0.1418
 2962TIP3    H230446   3.220   5.989   2.805  0.8095  0.2002  2.5624
 2963TIP3   OH230447   0.572   3.222   8.787 -0.2287 -0.2873  0.2817
 2963TIP3    H130448   0.487   3.265   8.777 -0.7189 -1.2675  0.0457
 2963TIP3    H230449   0.618   3.273   8.854  0.6518  2.7203 -2.4071
 2964TIP3   OH230450   2.383   0.764   7.979  0.0214  0.2479 -0.1691
 2964TIP3    H130451   2.376   0.748   8.073 -0.9329  1.4466 -0.0159
 2964TIP3    H230452   2.441   0.840   7.972  0.7336 -0.3168 -0.6146
 2965TIP3   OH230453   0.504   5.558   7.762 -0.2857  0.0510  0.2815
 2965TIP3    H130454   0.499   5.514   7.847  2.0960 -0.4268  0.2516
 2965TIP3    H230455   0.586   5.607   7.765 -0.6081  0.7741 -1.4125
 2966TIP3   OH230456   1.362   2.137   1.994  0.4965  0.4044 -0.3643
 2966TIP3    H130457   1.414   2.184   1.929 -0.1470  0.2005 -1.0300
 2966TIP3    H230458   1.427   2.086   2.043  1.0073  0.6898 -0.7236
 2967TIP3   OH230459   5.872   1.454   1.041  0.2814 -0.1926 -0.4190
 2967TIP3    H130460   5.887   1.547   1.053 -1.5213  0.0798  0.0576
 2967TIP3    H230461   5.809   1.430   1.109  1.8857 -2.1293  0.4959
 2968TIP3   OH230462   1.566   1.955   3.070 -0.1688  0.3060  0.1231
 2968TIP3    H130463   1.630   2.021   3.096 -1.2861  0.1234  3.8390
 2968TIP3    H230464   1.492   1.968   3.129 -2.4190 -1.3496 -2.0914
 2969TIP3   OH230465   3.090   2.587   2.509  0.1058  0.1709  0.3853
 2969TIP3    H130466   3.091   2.628   2.596  0.8699  0.1804  0.3800
 2969TIP3    H230467   3.171   2.617   2.468  0.3415 -0.8032  0.1184
 2970TIP3   OH230468   5.743   3.116   2.709  0.4339  0.2962 -0.2169
 2970TIP3    H130469   5.751   3.122   2.804  0.4556  0.1101 -0.2057
 2970TIP3    H230470   5.703   3.030   2.694 -0.3928  0.6905 -0.3312
 2971TIP3   OH230471   3.296   5.918   2.465  0.1870  0.4304 -0.2551
 2971TIP3    H130472   3.294   5.963   2.381  0.9089 -1.5232 -1.3993
 2971TIP3    H230473   3.383   5.878   2.469 -0.2263 -0.4263  0.8972
 2972TIP3   OH230474   1.489   3.472   0.157 -0.0828  0.2234  0.3383
 2972TIP3    H130475   1.535   3.453   0.075  1.4102  0.7560  1.0272
 2972TIP3    H230476   1.469   3.565   0.151  1.3210  0.6014  1.1790
 2973TIP3   OH230477   0.358   0.331   0.656 -0.0666 -0.0484 -0.0237
 2973TIP3    H130478   0.410   0.304   0.580  0.0855 -0.6502  0.2928
 2973TIP3    H230479   0.272   0.350   0.620  0.5494  1.6678 -0.6707
 2974TIP3   OH230480   3.188   2.817   0.848  0.1886 -0.0897  0.1015
 2974TIP3    H130481   3.140   2.900   0.854 -0.1193 -0.1948 -0.7726
 2974TIP3    H230482   3.122   2.753   0.821  0.5694 -0.4883  0.0975
 2975TIP3   OH230483   0.593   0.495   8.292  0.2717  0.3513  0.2627
 2975TIP3    H130484   0.517   0.554   8.287 -0.4293 -0.6108 -3.6873
 2975TIP3    H230485   0.566   0.428   8.355 -2.2564  0.0567 -0.9847
 2976TIP3   OH230486   1.604   5.632   0.629  0.2095  0.3316 -0.3589
 2976TIP3    H130487   1.698   5.613   0.636 -0.2046 -1.6208  0.4012
 2976TIP3    H230488   1.561   5.552   0.659 -1.7111  1.5894  0.4064
 2977TIP3   OH230489   2.943   3.537   2.579 -0.5642  0.3984 -0.3162
 2977TIP3    H130490   2.977   3.473   2.642  0.3340  1.3610  0.2083
 2977TIP3    H230491   2.879   3.488   2.528 -1.6591 -0.3184  1.6385
 2978TIP3   OH230492   1.542   4.454   3.443  0.2998  0.1433  0.3055
 2978TIP3    H130493   1.552   4.487   3.354 -0.6678  0.5552  0.3315
 2978TIP3    H230494   1.538   4.533   3.497 -0.5416 -0.0566  0.5450
 2979TIP3   OH230495   1.168   1.141   1.481  0.6941  0.7315  0.1517
 2979TIP3    H130496   1.250   1.098   1.506  1.1066  1.0709 -0.5800
 2979TIP3    H230497   1.195   1.227   1.449  0.3980 -0.1555 -2.8384
 2980TIP3   OH230498   0.610   2.350   2.652 -0.3173  0.0342 -0.2903
 2980TIP3    H130499   0.570   2.308   2.576 -0.2229  0.8021 -0.7746
 2980TIP3    H230500   0.555   2.426   2.670 -0.4951 -0.2907  0.5890
 2981TIP3   OH230501   3.617   2.569   7.580  0.3096 -0.0855  0.1456
 2981TIP3    H130502   3.682   2.535   7.518  0.4139  0.9123 -0.3173
 2981TIP3    H230503   3.640   2.661   7.589 -0.5548  0.0874  0.6127
 2982TIP3   OH230504   1.941   5.974   1.007 -0.0070 -0.0105  0.3694
 2982TIP3    H130505   1.967   5.995   1.097 -0.1556 -0.1714  0.4490
 2982TIP3    H230506   1.916   6.059   0.969 -0.9794 -0.0845  0.8140
 2983TIP3   OH230507   4.806   1.547   1.792  0.0933 -0.1848  0.2627
 2983TIP3    H130508   4.780   1.515   1.879 -0.5796 -0.5370 -0.0646
 2983TIP3    H230509   4.893   1.583   1.806 -0.9453  2.0882  1.6671
 2984TIP3   OH230510   3.307   2.135   2.105  0.1979  0.0520  0.2516
 2984TIP3    H130511   3.255   2.167   2.178 -0.4762 -1.0094  0.2630
 2984TIP3    H230512   3.397   2.135   2.137 -0.1479 -0.8579  1.2552
 2985TIP3   OH230513   0.368   1.475   3.032  0.1654  0.6222 -0.6111
 2985TIP3    H130514   0.340   1.473   2.941 -0.5644  1.7695 -0.4267
 2985TIP3    H230515   0.298   1.430   3.080  0.4520  0.1970 -0.5831
 2986TIP3   OH230516   6.212   2.167   7.914 -0.0524 -0.2129 -0.1270
 2986TIP3    H130517   6.250   2.220   7.985  1.2648 -0.8025 -0.3780
 2986TIP3    H230518   6.237   2.213   7.834 -1.9544  0.7248 -0.2509
 2987TIP3   OH230519   5.299   2.714   3.017 -0.1201  0.7392  0.2673
 2987TIP3    H130520   5.261   2.800   3.037  0.5017  1.2898 -0.8408
 2987TIP3    H230521   5.290   2.705   2.922 -1.0032 -0.8391  0.4671
 2988TIP3   OH230522   5.848   0.353   0.146 -0.0927 -0.1826 -0.2482
 2988TIP3    H130523   5.866   0.443   0.172  0.9528  0.0592 -1.6540
 2988TIP3    H230524   5.897   0.300   0.208  1.9701  0.3567 -1.3103
 2989TIP3   OH230525   5.771   1.685   8.642 -0.2675 -0.0589 -0.5443
 2989TIP3    H130526   5.784   1.779   8.654  1.7343 -0.3628 -0.0074
 2989TIP3    H230527   5.817   1.645   8.716 -3.2932 -1.4388  0.7933
 2990TIP3   OH230528   4.043   4.312   0.510  0.0956  0.3090 -0.4639
 2990TIP3    H130529   4.060   4.239   0.450 -0.0512  0.4107 -0.6287
 2990TIP3    H230530   4.106   4.379   0.485  1.2758 -0.3400  0.6878
 2991TIP3   OH230531   2.584   6.219   2.104  0.1850 -0.5692 -0.3979
 2991TIP3    H130532   2.554   6.258   2.186 -1.2386 -0.1426 -1.0858
 2991TIP3    H230533   2.675   6.194   2.121  0.1422  0.1631  1.0693
 2992TIP3   OH230534   0.482   4.306   3.308 -0.2680 -0.8760 -0.8414
 2992TIP3    H130535   0.447   4.232   3.259 -0.9004 -2.6272  2.0674
 2992TIP3    H230536   0.551   4.269   3.363  0.1075  0.8898 -0.0406
 2993TIP3   OH230537   3.532   2.406   8.257 -0.4193  0.1345  0.6191
 2993TIP3    H130538   3.602   2.374   8.314  0.2418  2.6104  1.3268
 2993TIP3    H230539   3.571   2.410   8.170 -0.0476  0.3160  0.7902
 2994TIP3   OH230540   2.452   0.672   3.032  0.0035 -0.2506  0.6557
 2994TIP3    H130541   2.427   0.593   2.984  0.2094 -0.3526  0.7146
 2994TIP3    H230542   2.371   0.699   3.077 -0.9011  1.2905 -1.7084
 2995TIP3   OH230543   1.797   0.279   0.702  0.0053  0.2573  0.2313
 2995TIP3    H130544   1.812   0.187   0.683 -0.4806 -0.1788  1.7683
 2995TIP3    H230545   1.878   0.323   0.677  1.3557 -1.0291  2.1032
 2996TIP3   OH230546   4.412   2.680   1.249  0.2986 -0.4701 -0.6469
 2996TIP3    H130547   4.462   2.598   1.255  0.6482 -0.3905 -2.0688
 2996TIP3    H230548   4.322   2.656   1.270  0.5976 -0.9947  0.0510
 2997TIP3   OH230549   5.111   1.736   7.583 -0.3506  0.1732 -0.2103
 2997TIP3    H130550   5.050   1.804   7.556  0.2509  0.8602  0.1349
 2997TIP3    H230551   5.126   1.684   7.504  1.4327  2.1826 -1.2968
 2998TIP3   OH230552   2.706   1.686   2.184  0.5237 -0.5938  0.4946
 2998TIP3    H130553   2.720   1.655   2.095  0.1706 -1.9424  0.8762
 2998TIP3    H230554   2.793   1.705   2.217  0.6571 -0.1191 -0.1294
 2999TIP3   OH230555   0.438   4.890   2.055 -0.8266  0.6031  0.6191
 2999TIP3    H130556   0.355   4.844   2.061 -0.1889 -0.4690  1.3778
 2999TIP3    H230557   0.442   4.943   2.135 -0.2768 -0.2343  1.1639
 3000TIP3   OH230558   3.290   1.175   3.418  0.4134 -0.2814  0.0442
 3000TIP3    H130559   3.210   1.143   3.460  0.3033 -0.5625 -0.3758
 3000TIP3    H230560   3.261   1.252   3.369  0.7321  0.6801  1.2997
 3001TIP3   OH230561   6.300   5.192   8.644 -0.1189 -0.2426  0.3194
 3001TIP3    H130562   6.242   5.269   8.644 -0.9759 -0.8614  1.4008
 3001TIP3    H230563   6.251   5.125   8.596  0.9728  0.0851 -1.3520
 3002TIP3   OH230564   6.064   6.094   2.977  0.0689  0.2163 -0.1124
 3002TIP3    H130565   6.152   6.079   3.010  0.3335  0.9049 -0.4981
 3002TIP3    H230566   6.043   6.014   2.929 -0.4077 -0.9076  1.8493
 3003TIP3   OH230567   0.459   3.150   1.153 -0.6224 -0.1941 -0.6738
 3003TIP3    H130568   0.485   3.191   1.236  2.6703 -1.9181 -0.6934
 3003TIP3    H230569   0.373   3.187   1.134  0.6932  4.2511  0.8299
 3004TIP3   OH230570   0.481   0.285   8.598 -0.2108 -0.5865  0.1133
 3004TIP3    H130571   0.562   0.253   8.558  0.4519  0.5626  0.4909
 3004TIP3    H230572   0.431   0.322   8.525  0.7273  0.9467  0.1940
 3005TIP3   OH230573   2.222   5.020   3.612 -0.1704  0.5375 -0.7477
 3005TIP3    H130574   2.268   5.037   3.531 -1.0157  0.7896 -1.1843
 3005TIP3    H230575   2.283   5.048   3.681 -0.0754  1.8602 -1.3355
 3006TIP3   OH230576   4.259   3.551   8.646  0.1656 -0.3859 -0.0988
 3006TIP3    H130577   4.217   3.594   8.720  1.3424 -0.3697  0.5862
 3006TIP3    H230578   4.206   3.576   8.570 -0.1111  0.9450  0.5027
 3007TIP3   OH230579   1.074   3.752   8.575  0.2000 -0.1137 -0.1425
 3007TIP3    H130580   1.073   3.770   8.481 -1.6413  0.4270 -0.0535
 3007TIP3    H230581   1.129   3.822   8.612  1.8778 -0.9761 -0.8825
 3008TIP3   OH230582   6.598   4.176   1.203 -0.5548 -0.1766 -0.2534
 3008TIP3    H130583   6.630   4.264   1.186  1.5590 -1.1396 -1.6272
 3008TIP3    H230584   6.652   4.145   1.275 -1.5855 -0.2489  0.5209
 3009TIP3   OH230585   3.123   6.557   1.263  0.0635  0.0282  0.5186
 3009TIP3    H130586   3.033   6.580   1.239 -0.4156 -1.5967  0.6649
 3009TIP3    H230587   3.114   6.504   1.342  1.2218  0.5166  1.0046
 3010TIP3   OH230588   3.696   1.832   7.740  0.5287  0.5400 -0.2135
 3010TIP3    H130589   3.618   1.828   7.795 -0.1913  0.2729 -1.2364
 3010TIP3    H230590   3.695   1.920   7.702  0.8305  0.6030 -0.0792
 3011TIP3   OH230591   3.788   5.686   8.299  0.4424  0.9831  0.4171
 3011TIP3    H130592   3.762   5.741   8.225  0.5217  0.5851  0.0899
 3011TIP3    H230593   3.862   5.636   8.267 -0.2358 -0.0337  0.3863
 3012TIP3   OH230594   0.285   4.709   0.455  0.5246  0.0140 -0.4010
 3012TIP3    H130595   0.300   4.671   0.368 -0.3022 -0.8525 -0.1730
 3012TIP3    H230596   0.215   4.656   0.493  0.3789  0.8414  0.5181
 3013TIP3   OH230597   4.035   0.501   1.089  0.3147  0.4061 -0.0026
 3013TIP3    H130598   4.011   0.485   0.997  1.7204 -3.3165  0.0931
 3013TIP3    H230599   4.121   0.543   1.084 -0.0014  1.0293 -0.3639
 3014TIP3   OH230600   5.791   2.646   8.986  0.1090 -0.6881 -0.0471
 3014TIP3    H130601   5.855   2.643   8.915  1.0394  1.5705  0.6301
 3014TIP3    H230602   5.711   2.680   8.946 -0.0864 -1.5717 -0.4475
 3015TIP3   OH230603   5.610   2.280   3.368  0.5261  0.5115 -0.0392
 3015TIP3    H130604   5.681   2.252   3.311 -0.3078 -4.8733  1.0454
 3015TIP3    H230605   5.651   2.294   3.453  0.6557  0.2534 -0.0593
 3016TIP3   OH230606   6.580   1.885   3.517 -0.4823  0.1166 -0.1628
 3016TIP3    H130607   6.546   1.958   3.569  1.7260  0.4198  0.9631
 3016TIP3    H230608   6.606   1.924   3.434 -1.3421  0.1667 -0.4221
 3017TIP3   OH230609   2.147   5.006   1.025  0.6769 -0.6427 -0.3669
 3017TIP3    H130610   2.158   4.931   0.966  1.9074 -0.6826 -0.0946
 3017TIP3    H230611   2.187   4.978   1.107  1.9328  0.6255 -0.5191
 3018TIP3   OH230612   0.062   4.583   2.429 -0.7018  0.5368  0.6983
 3018TIP3    H130613   0.077   4.510   2.490  1.6355  0.7097  0.4122
 3018TIP3    H230614   0.027   4.653   2.484 -1.8469 -0.3853  1.1941
 3019TIP3   OH230615   1.315   2.257   8.269  0.0135  0.3463 -0.3240
 3019TIP3    H130616   1.264   2.319   8.321 -1.3950 -2.0239  1.3660
 3019TIP3    H230617   1.401   2.254   8.311 -0.4376  0.0165  0.6056
 3020TIP3   OH230618   1.627   2.186   3.344 -0.1054  0.2933  0.0660
 3020TIP3    H130619   1.610   2.253   3.410  0.5369  0.1189  0.4183
 3020TIP3    H230620   1.548   2.131   3.345 -0.9288  1.4380 -0.7277
 3021TIP3   OH230621   4.706   0.520   1.923 -0.1078 -0.1730 -0.5003
 3021TIP3    H130622   4.658   0.510   1.841 -2.3200  1.2719  0.5131
 3021TIP3    H230623   4.689   0.611   1.949  1.2445 -0.3478  1.1429
 3022TIP3   OH230624   3.671   3.539   8.257  0.1325  0.2234  0.0860
 3022TIP3    H130625   3.716   3.599   8.318 -0.1552  1.7444 -1.1445
 3022TIP3    H230626   3.583   3.575   8.249  0.0668 -0.1483 -0.9720
 3023TIP3   OH230627   4.000   1.459   1.152  0.2668  0.1009  0.4324
 3023TIP3    H130628   3.905   1.448   1.156 -0.0798  2.5074  0.3627
 3023TIP3    H230629   4.017   1.491   1.063  0.9010  1.3285  0.9740
 3024TIP3   OH230630   1.691   1.728   7.497  0.0769 -0.1435 -0.0479
 3024TIP3    H130631   1.622   1.720   7.563  1.2751  1.0175  1.4047
 3024TIP3    H230632   1.644   1.727   7.414 -1.4188 -2.4999  0.7253
 3025TIP3   OH230633   2.407   2.014   2.178  0.0070 -0.1228 -0.4414
 3025TIP3    H130634   2.377   2.047   2.263  2.5955  0.9287  0.1526
 3025TIP3    H230635   2.365   2.071   2.114 -2.0767 -0.9979  0.0463
 3026TIP3   OH230636   2.430   3.847   1.140 -0.0700  0.4942 -0.0565
 3026TIP3    H130637   2.466   3.924   1.184 -0.4673 -0.7612  2.6432
 3026TIP3    H230638   2.506   3.806   1.098  0.6233  0.9276  0.7413
 3027TIP3   OH230639   5.746   0.003   3.365 -0.1693 -0.0032 -0.3601
 3027TIP3    H130640   5.684  -0.029   3.300  0.1816 -1.3651 -0.0507
 3027TIP3    H230641   5.704  -0.016   3.449  1.5078 -2.9627 -0.0588
 3028TIP3   OH230642   1.027   5.106   2.420  0.0018 -0.9046  0.8981
 3028TIP3    H130643   0.967   5.033   2.404 -0.2389 -0.3351 -1.0929
 3028TIP3    H230644   1.097   5.094   2.356  0.5237  0.0198  1.2700
 3029TIP3   OH230645   0.800   4.252   8.521 -0.2817 -0.3969 -0.3035
 3029TIP3    H130646   0.709   4.261   8.549 -0.3353 -1.5693 -0.0406
 3029TIP3    H230647   0.828   4.168   8.557  0.4369 -0.7779 -1.6663
 3030TIP3   OH230648   3.896   1.746   1.346 -0.0557  0.4435 -0.5961
 3030TIP3    H130649   3.851   1.683   1.290 -0.4387 -0.8434  1.0650
 3030TIP3    H230650   3.945   1.802   1.286 -1.5877  0.0611 -2.2767
 3031TIP3   OH230651   5.014   1.260   3.331 -0.3749  0.2304  0.5304
 3031TIP3    H130652   5.049   1.227   3.414  0.9730  0.0593 -0.0836
 3031TIP3    H230653   4.951   1.194   3.303  1.4818 -1.3410 -0.1391
 3032TIP3   OH230654   4.948   1.809   2.211  0.3083  0.2201 -0.4363
 3032TIP3    H130655   4.958   1.819   2.306 -0.9955  0.8167 -0.3409
 3032TIP3    H230656   4.930   1.898   2.179 -1.5541 -0.2917 -0.9252
 3033TIP3   OH230657   4.635   0.064   2.394 -0.5652 -0.9219  0.1638
 3033TIP3    H130658   4.677   0.142   2.431 -0.6182 -0.6121 -0.4137
 3033TIP3    H230659   4.692   0.038   2.322  0.0346 -2.0744  1.0350
 3034TIP3   OH230660   3.430   3.407   0.487 -0.6931  0.3615  0.0965
 3034TIP3    H130661   3.508   3.383   0.537 -0.5727 -1.8267 -1.0099
 3034TIP3    H230662   3.356   3.386   0.544 -0.5162  0.6439  0.4305
 3035TIP3   OH230663   4.860   0.030   1.130 -0.4425  0.0097 -0.4915
 3035TIP3    H130664   4.869  -0.065   1.138 -0.7279 -0.2392 -2.6714
 3035TIP3    H230665   4.858   0.046   1.036 -2.4019  1.9977 -0.1765
 3036TIP3   OH230666   5.065   2.523   2.230 -0.5449  0.2284 -0.4441
 3036TIP3    H130667   5.090   2.462   2.161 -1.0131 -0.8433  0.3158
 3036TIP3    H230668   4.977   2.551   2.206 -0.3284  0.6136 -0.7955
 3037TIP3   OH230669   5.243   3.087   0.035 -0.5725  0.6596  0.3530
 3037TIP3    H130670   5.298   3.162   0.012  1.2500 -0.2712  1.3769
 3037TIP3    H230671   5.279   3.056   0.118  0.9433 -3.2405 -1.4948
 3038TIP3   OH230672   5.084   0.210   8.348 -0.2543 -0.6804  0.0644
 3038TIP3    H130673   5.062   0.200   8.440  0.7001  0.5075  0.4570
 3038TIP3    H230674   5.176   0.185   8.342 -0.2486 -0.5358 -0.5197
 3039TIP3   OH230675   5.036   1.516   0.081 -0.9368 -0.0515  0.0281
 3039TIP3    H130676   4.980   1.570   0.026 -1.3310 -0.4211  0.0644
 3039TIP3    H230677   5.073   1.452   0.020 -2.3875 -1.2883  0.3923
 3040TIP3   OH230678   4.777   0.596   8.667  0.6984  0.2040  1.0658
 3040TIP3    H130679   4.793   0.557   8.581  2.3831  0.5029  1.2225
 3040TIP3    H230680   4.697   0.648   8.655 -0.3969 -1.5771  0.3100
 3041TIP3   OH230681   3.048   0.665   8.685  0.3272  0.0533 -0.8608
 3041TIP3    H130682   2.956   0.640   8.682  0.2940  0.2263 -2.2813
 3041TIP3    H230683   3.096   0.583   8.679  0.3003 -0.1280  0.9824
 3042TIP3   OH230684   0.285   0.924   2.330  0.2795 -0.2037  0.6939
 3042TIP3    H130685   0.297   0.964   2.244  1.7134 -2.2834 -0.1456
 3042TIP3    H230686   0.328   0.984   2.391  0.1024  0.8029 -0.1520
 3043TIP3   OH230687   3.994   3.976   1.937 -0.7325 -0.0930  0.0895
 3043TIP3    H130688   4.040   4.045   1.889 -1.2549  0.0523 -0.2014
 3043TIP3    H230689   4.047   3.963   2.016 -1.6050  1.9299  1.0690
 3044TIP3   OH230690   5.114   6.197   0.874  0.5990 -0.5013 -0.3541
 3044TIP3    H130691   5.158   6.281   0.883  2.4183 -1.4604  0.2246
 3044TIP3    H230692   5.131   6.151   0.956 -1.1864 -1.0969 -0.2612
 3045TIP3   OH230693   2.784   1.876   3.122 -0.7733  0.1148  0.4088
 3045TIP3    H130694   2.857   1.900   3.180 -0.6269  0.8580 -0.0739
 3045TIP3    H230695   2.782   1.781   3.126  1.2068 -0.0341 -0.7277
 3046TIP3   OH230696   5.113   2.669   0.447 -0.9105  0.2601  0.3893
 3046TIP3    H130697   5.079   2.620   0.372 -1.0784  1.6733 -0.5106
 3046TIP3    H230698   5.052   2.649   0.518 -1.7952  0.2732 -0.3415
 3047TIP3   OH230699   1.259   6.567   2.305 -0.3664  0.1074  0.4568
 3047TIP3    H130700   1.351   6.583   2.326 -0.7284  3.1816  0.2194
 3047TIP3    H230701   1.228   6.507   2.372  1.9330 -1.4833  0.1724
 3048TIP3   OH230702   2.381   1.534   0.227  0.2787  0.0436  0.3198
 3048TIP3    H130703   2.398   1.457   0.282 -0.1444  0.2515  0.7467
 3048TIP3    H230704   2.416   1.608   0.277  1.8413  0.0072 -0.6531
 3049TIP3   OH230705   0.735   6.046   2.314 -0.0743  0.4648 -0.2149
 3049TIP3    H130706   0.705   6.078   2.399  0.8074 -0.4915  0.4826
 3049TIP3    H230707   0.744   5.952   2.326 -0.9894  0.1463 -1.7133
 3050TIP3   OH230708   5.550   4.328   7.720  0.6978 -0.4812 -0.2065
 3050TIP3    H130709   5.643   4.346   7.737  0.2345  1.4035  0.5156
 3050TIP3    H230710   5.505   4.409   7.744 -1.1238 -1.2852 -0.7715
 3051TIP3   OH230711   1.833   1.977   3.371  0.3556  0.0022  0.0503
 3051TIP3    H130712   1.779   2.056   3.361 -0.4504 -0.4461  0.7425
 3051TIP3    H230713   1.770   1.905   3.372  0.4529 -0.3080  4.7477
 3052TIP3   OH230714   5.532   0.275   1.611  0.3167 -0.1419 -0.0342
 3052TIP3    H130715   5.610   0.326   1.588  1.1443 -1.0043  0.7889
 3052TIP3    H230716   5.514   0.299   1.702  1.8606 -2.6816  1.0237
 3053TIP3   OH230717   2.828   6.186   1.186  0.2588  0.1317  0.1179
 3053TIP3    H130718   2.892   6.214   1.252 -0.6564  0.8696  0.7137
 3053TIP3    H230719   2.743   6.197   1.229 -0.3233  0.0940 -0.9935
 3054TIP3   OH230720   4.067   6.614   0.220 -0.8865  0.5191  0.0990
 3054TIP3    H130721   4.032   6.600   0.308  0.6495 -1.5237  0.4574
 3054TIP3    H230722   4.010   6.562   0.163  0.6005 -1.6386  0.4955
 3055TIP3   OH230723   1.927   4.217   2.529  0.4255 -0.0195  0.6014
 3055TIP3    H130724   1.996   4.245   2.589  0.3619  1.1353  0.1508
 3055TIP3    H230725   1.969   4.211   2.444  0.0208  0.4928  0.3609
 3056TIP3   OH230726   4.901   2.339   8.765 -0.3430 -0.1560 -0.2161
 3056TIP3    H130727   4.854   2.270   8.811 -1.4370  0.7581  0.0857
 3056TIP3    H230728   4.832   2.394   8.727  0.1901  3.1620  2.9832
 3057TIP3   OH230729   4.662   4.055   8.887  0.9775  1.3475 -0.1585
 3057TIP3    H130730   4.588   3.995   8.898  2.2639  0.0974  2.8132
 3057TIP3    H230731   4.695   4.037   8.799 -0.5859 -0.0266 -0.5173
 3058TIP3   OH230732   3.496   0.655   1.286  0.3329 -0.0549 -0.0768
 3058TIP3    H130733   3.537   0.728   1.333 -1.8975  3.4690 -3.0941
 3058TIP3    H230734   3.540   0.654   1.201  0.2821 -2.3491 -0.1253
 3059TIP3   OH230735   5.027   0.895   2.965  0.0437 -0.1069 -0.0744
 3059TIP3    H130736   5.075   0.944   2.898  3.2367 -2.7522 -0.0106
 3059TIP3    H230737   5.068   0.920   3.047  0.8983 -1.8597  0.0760
 3060TIP3   OH230738   5.098   5.044   0.055  0.5400  0.0983 -0.3069
 3060TIP3    H130739   5.040   4.974   0.024  0.9076  1.2052 -3.9483
 3060TIP3    H230740   5.171   5.044  -0.007  0.7501  3.3691 -0.2430
 3061TIP3   OH230741   5.503   5.137   1.633 -0.2886 -0.1226 -0.1099
 3061TIP3    H130742   5.441   5.127   1.560 -0.5392 -1.1145  0.2293
 3061TIP3    H230743   5.562   5.063   1.624 -2.1410 -2.0630  2.4394
 3062TIP3   OH230744   5.310   0.738   2.867 -0.7518 -0.2205 -0.2088
 3062TIP3    H130745   5.365   0.787   2.806  1.7780  0.1633  2.1583
 3062TIP3    H230746   5.327   0.646   2.846 -1.1219 -0.1044 -1.0476
 3063TIP3   OH230747   1.779   2.931   2.519  0.1232  0.0193 -0.0293
 3063TIP3    H130748   1.802   3.002   2.458  0.3832 -1.9960 -2.4755
 3063TIP3    H230749   1.715   2.970   2.578 -0.7546  1.9687 -2.0890
 3064TIP3   OH230750   5.772   4.093   8.528  0.1658 -0.2370  0.2505
 3064TIP3    H130751   5.739   4.009   8.497 -0.0633 -0.1132  0.1582
 3064TIP3    H230752   5.709   4.121   8.595  0.2217 -0.1208  0.2547
 3065TIP3   OH230753   1.874   1.135   1.686 -0.3765 -0.4026 -0.0452
 3065TIP3    H130754   1.831   1.220   1.679  0.1606 -0.1442 -0.3531
 3065TIP3    H230755   1.805   1.071   1.670 -0.4277  0.0314 -1.7289
 3066TIP3   OH230756   4.595   3.564   1.440 -0.3398 -0.3381 -0.1994
 3066TIP3    H130757   4.643   3.637   1.479  0.9178 -1.8149  1.1570
 3066TIP3    H230758   4.504   3.581   1.462 -0.0435  0.6653  0.3384
 3067TIP3   OH230759   3.226   2.682   0.438  0.0232  0.6687  0.6592
 3067TIP3    H130760   3.262   2.634   0.512  1.1907  0.0225 -0.2982
 3067TIP3    H230761   3.194   2.764   0.475  1.7316  0.9110  1.6922
 3068TIP3   OH230762   3.977   1.248   8.488 -0.0927 -0.2275  0.4490
 3068TIP3    H130763   3.935   1.328   8.455 -0.7756 -0.3215  1.0621
 3068TIP3    H230764   4.062   1.278   8.522 -0.0226  0.1106 -0.0149
 3069TIP3   OH230765   5.421   5.059   0.716 -0.4083 -0.6138 -0.0275
 3069TIP3    H130766   5.389   5.149   0.708 -0.0931 -0.6061 -1.3653
 3069TIP3    H230767   5.487   5.050   0.648 -0.3280 -1.8251  0.1794
 3070TIP3   OH230768   5.385   0.678   8.945 -0.1978 -0.1371  0.0070
 3070TIP3    H130769   5.480   0.691   8.952 -0.2881  0.1227  0.7434
 3070TIP3    H230770   5.347   0.763   8.966 -0.6051 -0.2625 -0.2066
 3071TIP3   OH230771   2.820   4.338   0.562 -0.0957 -0.2531 -0.2934
 3071TIP3    H130772   2.731   4.366   0.583  0.5443  3.5447 -1.9172
 3071TIP3    H230773   2.814   4.242   0.555 -3.6559 -0.2732  1.1143
 3072TIP3   OH230774   5.250   5.651   2.630  0.3027  0.4007  0.5990
 3072TIP3    H130775   5.298   5.579   2.670  0.9102 -0.1266 -1.0150
 3072TIP3    H230776   5.308   5.685   2.562 -1.3715  0.0265 -1.1244
 3073TIP3   OH230777   4.159   4.557   8.331 -0.4781  0.6215 -0.3541
 3073TIP3    H130778   4.074   4.534   8.293 -0.6229  1.9795 -0.9050
 3073TIP3    H230779   4.138   4.592   8.418 -0.3771 -0.0428 -0.0568
 3074TIP3   OH230780   6.624   0.076   8.190  0.5257  0.2015  0.1019
 3074TIP3    H130781   6.589   0.117   8.270 -0.4112  0.5544 -0.4700
 3074TIP3    H230782   6.598   0.135   8.119  1.0114 -0.3047 -0.5144
 3075TIP3   OH230783   1.070   4.342   1.839 -0.2233  0.1209 -0.8298
 3075TIP3    H130784   1.040   4.398   1.767  1.1632  0.0238 -1.5140
 3075TIP3    H230785   1.052   4.253   1.810 -1.7424  0.1417 -0.0579
 3076TIP3   OH230786   1.241   1.048   3.178 -0.0751 -0.1077 -0.1322
 3076TIP3    H130787   1.181   1.106   3.132 -1.1644 -0.5781  0.6718
 3076TIP3    H230788   1.312   1.105   3.208 -0.7489  0.6706 -0.0146
 3077TIP3   OH230789   6.311   0.542   1.178  0.5716 -0.3267 -0.1863
 3077TIP3    H130790   6.365   0.619   1.198 -0.8591  0.5440  0.5292
 3077TIP3    H230791   6.259   0.568   1.102 -0.9335  0.0006  0.8972
 3078TIP3   OH230792   2.676   2.894   2.204  0.5561 -0.4845  0.2368
 3078TIP3    H130793   2.763   2.934   2.208  0.3008 -0.0052  1.5826
 3078TIP3    H230794   2.618   2.960   2.243 -0.0549 -1.6809  1.4352
 3079TIP3   OH230795   2.034   6.718   8.083 -0.5876  0.1147  0.0904
 3079TIP3    H130796   2.080   6.761   8.012 -1.4558  1.3430  0.2501
 3079TIP3    H230797   1.991   6.643   8.042  1.3485 -0.9750 -0.0888
 3080TIP3   OH230798   4.725   1.826   1.456 -0.3325 -0.3708  0.5322
 3080TIP3    H130799   4.714   1.921   1.467  0.6606 -0.0197 -1.1927
 3080TIP3    H230800   4.637   1.795   1.433 -0.5276  0.2539  0.3993
 3081TIP3   OH230801   3.042   5.242   8.314  0.5539 -0.4093 -0.2488
 3081TIP3    H130802   3.009   5.158   8.347 -0.5731  0.5511  1.2091
 3081TIP3    H230803   3.017   5.242   8.221 -0.3424 -1.2617 -0.0281
 3082TIP3   OH230804   5.515   3.756   0.952 -0.6741  0.4949 -0.1428
 3082TIP3    H130805   5.572   3.680   0.952 -1.1565  0.1313  0.1497
 3082TIP3    H230806   5.572   3.828   0.925 -0.1314  0.1004 -0.0690
 3083TIP3   OH230807   0.424   5.565   1.490 -1.3113 -0.1717 -0.4481
 3083TIP3    H130808   0.477   5.626   1.542 -2.0946  0.5225 -0.4341
 3083TIP3    H230809   0.356   5.537   1.551 -0.7021 -1.4287 -0.3211
 3084TIP3   OH230810   0.642   4.201   0.187 -0.5142  0.3913 -0.2046
 3084TIP3    H130811   0.723   4.219   0.141 -0.4401  0.5599 -0.0098
 3084TIP3    H230812   0.658   4.120   0.235 -0.4018  0.5170 -0.0284
 3085TIP3   OH230813   2.523   1.423   2.149 -0.1590 -0.1023  0.3821
 3085TIP3    H130814   2.598   1.418   2.208 -1.5289 -1.0225  2.1505
 3085TIP3    H230815   2.464   1.486   2.190 -0.4200  0.5794 -0.9576
 3086TIP3   OH230816   3.471   6.359   1.635 -1.1199  0.0317  0.3754
 3086TIP3    H130817   3.564   6.344   1.622 -1.4047 -1.3421 -0.2508
 3086TIP3    H230818   3.464   6.391   1.725 -0.1949 -1.6112  1.0718
 3087TIP3   OH230819   4.312   3.548   1.498  0.4999 -0.2730 -0.2435
 3087TIP3    H130820   4.304   3.453   1.504  1.6099 -0.3317  0.4995
 3087TIP3    H230821   4.234   3.582   1.543 -0.0632 -0.8165 -0.7917
 3088TIP3   OH230822   3.849   3.323   7.950  0.2504  0.4095  0.7332
 3088TIP3    H130823   3.895   3.342   7.868  0.4768  0.1623  0.8017
 3088TIP3    H230824   3.765   3.287   7.922  1.2941 -2.0903  0.5707
 3089TIP3   OH230825   3.549   4.272   7.883 -0.0066 -0.1431 -0.0530
 3089TIP3    H130826   3.616   4.271   7.814  0.3721  2.1829  0.1981
 3089TIP3    H230827   3.499   4.352   7.867 -0.6473 -0.1567  1.6867
 3090TIP3   OH230828   3.641   6.267   8.093 -0.1222  0.1259  0.1317
 3090TIP3    H130829   3.616   6.204   8.026  2.1369 -0.4126 -0.2893
 3090TIP3    H230830   3.732   6.245   8.115  0.1943  2.1751  1.1942
 3091TIP3   OH230831   0.044   2.510   2.339  0.3349  0.2483  0.5939
 3091TIP3    H130832   0.012   2.599   2.347  0.7851  0.6595 -1.5592
 3091TIP3    H230833   0.002   2.462   2.411 -3.3807  1.2184 -0.7319
 3092TIP3   OH230834   3.218   3.182   8.047  0.0404 -0.1236 -0.4122
 3092TIP3    H130835   3.283   3.170   7.978  0.6814 -0.3417  0.2118
 3092TIP3    H230836   3.176   3.265   8.028  0.5886  0.0726 -0.7618
 3093TIP3   OH230837   5.214   6.663   1.715 -0.2857  0.0378  0.2663
 3093TIP3    H130838   5.308   6.648   1.713 -0.0392  1.5611 -1.2977
 3093TIP3    H230839   5.201   6.746   1.669 -2.3183  0.3304  1.2332
 3094TIP3   OH230840   5.035   5.148   0.731 -0.5548  0.5114  0.1465
 3094TIP3    H130841   5.090   5.215   0.770  3.8608 -1.1090 -2.6382
 3094TIP3    H230842   5.028   5.172   0.639 -1.2876 -1.3724 -0.3494
 3095TIP3   OH230843   2.172   5.961   7.525  0.2913  0.1944  0.5073
 3095TIP3    H130844   2.153   5.884   7.579 -0.4878  0.6157  0.8512
 3095TIP3    H230845   2.232   6.013   7.578 -0.0229  0.3323  0.7309
 3096TIP3   OH230846   3.302   1.778   3.112 -0.4880  0.2420 -0.1084
 3096TIP3    H130847   3.251   1.697   3.115 -1.1196  0.6361 -0.0268
 3096TIP3    H230848   3.254   1.834   3.051  0.5688  0.1402 -1.0527
 3097TIP3   OH230849   6.285   0.391   1.456  0.2061  0.3893  0.1911
 3097TIP3    H130850   6.292   0.320   1.393  1.9683 -0.6374  1.4524
 3097TIP3    H230851   6.376   0.416   1.474 -0.3311  2.0280  0.8108
 3098TIP3   OH230852   3.511   2.273   1.803 -0.4709  0.1515  0.0970
 3098TIP3    H130853   3.566   2.314   1.870 -0.9802  2.0481 -0.5752
 3098TIP3    H230854   3.571   2.218   1.754  0.8267  1.9019 -0.4070
 3099TIP3   OH230855   1.931   3.904   0.216  0.0807 -0.5158  0.3609
 3099TIP3    H130856   1.953   3.937   0.303 -1.1716 -1.6978  1.1610
 3099TIP3    H230857   1.935   3.809   0.224 -1.4099 -0.6791 -0.4671
 3100TIP3   OH230858   1.077   0.762   1.316 -0.0319  0.0727  0.2255
 3100TIP3    H130859   1.019   0.818   1.366  0.2489  1.1133 -0.5825
 3100TIP3    H230860   1.161   0.808   1.315  0.8383 -1.3923  1.3636
 3101TIP3   OH230861   0.657   2.501   3.292 -0.5998 -0.0587  0.0672
 3101TIP3    H130862   0.615   2.468   3.371  0.5313 -1.3062  0.1862
 3101TIP3    H230863   0.644   2.595   3.295  1.1338  0.2138  2.8201
 3102TIP3   OH230864   1.850   3.727   0.583  0.6219 -0.7964  0.0951
 3102TIP3    H130865   1.902   3.804   0.561  0.8228 -0.5014  1.5492
 3102TIP3    H230866   1.759   3.755   0.573  0.7013 -0.6042 -0.0946
 3103TIP3   OH230867   4.974   0.104   2.483 -0.5756 -0.0598  0.3448
 3103TIP3    H130868   4.925   0.069   2.409  1.3485  0.5812 -1.3515
 3103TIP3    H230869   5.066   0.099   2.455  0.1379  1.3123  2.2183
 3104TIP3   OH230870   2.162   4.435   0.286 -0.3635 -0.6181 -0.4959
 3104TIP3    H130871   2.148   4.491   0.210 -1.8285  1.4630  1.1797
 3104TIP3    H230872   2.257   4.437   0.300 -0.1981 -0.0971 -1.5924
 3105TIP3   OH230873   4.127   0.806   1.303  0.6291 -0.3655 -0.0135
 3105TIP3    H130874   4.082   0.780   1.383 -1.2404 -0.1727 -0.9508
 3105TIP3    H230875   4.067   0.783   1.232  2.9022 -2.0098 -1.5368
 3106TIP3   OH230876   5.656   5.275   8.924  0.5309  0.2345  0.2270
 3106TIP3    H130877   5.740   5.255   8.881 -0.2651 -2.0177 -0.4148
 3106TIP3    H230878   5.624   5.191   8.955 -2.6032  0.5964 -1.5900
 3107TIP3   OH230879   3.006   4.865   1.487  0.0382  0.6440 -0.1612
 3107TIP3    H130880   2.920   4.823   1.480  0.6318 -0.4631 -1.2008
 3107TIP3    H230881   3.004   4.934   1.421  0.9653 -1.3354 -2.3995
 3108TIP3   OH230882   2.122   1.863   8.109  0.2944  0.5052 -0.1628
 3108TIP3    H130883   2.027   1.870   8.098  0.3402 -0.2869 -1.1873
 3108TIP3    H230884   2.134   1.850   8.203 -0.6682 -0.1533 -0.1143
 3109TIP3   OH230885   3.459   1.860   1.798  0.7828  0.5243 -0.4722
 3109TIP3    H130886   3.497   1.913   1.727  2.5066  1.0811  0.8022
 3109TIP3    H230887   3.532   1.842   1.857 -0.0316 -2.2132 -0.1553
 3110TIP3   OH230888   0.477   0.924   2.112 -0.0474  0.3649 -0.5591
 3110TIP3    H130889   0.411   0.926   2.042  0.3327  3.2880 -0.9617
 3110TIP3    H230890   0.560   0.909   2.066  0.1599  1.9362 -0.7338
 3111TIP3   OH230891   5.433   4.630   8.232  0.1293  0.4667 -0.4928
 3111TIP3    H130892   5.373   4.688   8.186  2.5877  1.2276 -3.0481
 3111TIP3    H230893   5.467   4.683   8.304 -1.1381  0.5026  0.1057
 3112TIP3   OH230894   2.120   4.309   2.726 -0.5055  0.8298 -0.2249
 3112TIP3    H130895   2.198   4.347   2.767 -0.8677  0.9862  0.3207
 3112TIP3    H230896   2.060   4.292   2.798 -0.2002 -1.2116 -0.3887
 3113TIP3   OH230897   5.288   5.883   1.633 -0.0028  0.0124 -0.8811
 3113TIP3    H130898   5.349   5.820   1.671 -0.5598  0.4132  0.7493
 3113TIP3    H230899   5.260   5.843   1.551 -0.4280 -1.9175  0.1547
 3114TIP3   OH230900   3.198   0.079   7.817 -0.0277 -0.0464 -0.2721
 3114TIP3    H130901   3.248   0.015   7.867  0.6788  0.5338 -0.2137
 3114TIP3    H230902   3.215   0.162   7.861 -1.2782  0.1368 -0.0813
 3115TIP3   OH230903   0.303   5.760   2.126 -0.2867 -0.8973 -0.2901
 3115TIP3    H130904   0.354   5.703   2.069  1.0150 -0.3085  0.2477
 3115TIP3    H230905   0.253   5.699   2.182  1.6815 -1.5696  0.8275
 3116TIP3   OH230906   2.875   2.442   1.861 -0.3710  0.7990 -0.4073
 3116TIP3    H130907   2.889   2.443   1.766 -1.4763 -0.6882 -0.6289
 3116TIP3    H230908   2.886   2.351   1.886  1.6226  1.4163  1.2214
 3117TIP3   OH230909   4.159   4.626   8.619 -0.0417 -0.9947  0.0418
 3117TIP3    H130910   4.066   4.626   8.642  0.0009 -3.1854  0.4127
 3117TIP3    H230911   4.198   4.692   8.676 -1.4483  0.4910 -0.6306
 3118TIP3   OH230912   2.577   0.601   7.814 -0.0540  0.2631  0.3538
 3118TIP3    H130913   2.647   0.565   7.868  0.8194  0.7307 -0.4153
 3118TIP3    H230914   2.517   0.642   7.876  0.0148 -0.7059  1.0779
 3119TIP3   OH230915   4.161   6.554   7.678  0.6057 -0.1686  0.1200
 3119TIP3    H130916   4.145   6.481   7.617  0.9888 -0.1676  0.0148
 3119TIP3    H230917   4.194   6.625   7.623  1.4317 -0.3316  0.3891
 3120TIP3   OH230918   6.605   2.625   7.815 -0.5534 -0.0308 -0.1841
 3120TIP3    H130919   6.550   2.647   7.891  0.8684  0.6693  0.6810
 3120TIP3    H230920   6.646   2.542   7.839  1.3459  1.1018  0.6800
 3121TIP3   OH230921   3.143   4.484   1.832  0.5196  0.0535 -0.3921
 3121TIP3    H130922   3.090   4.504   1.909  2.2341 -0.3532  0.9495
 3121TIP3    H230923   3.215   4.547   1.835  1.6625 -1.2053 -0.5371
 3122TIP3   OH230924   0.598   2.366   7.559 -0.4192  0.1642 -0.3656
 3122TIP3    H130925   0.523   2.309   7.575 -0.0334  0.0211  1.0524
 3122TIP3    H230926   0.569   2.453   7.586  0.3612 -0.1450  1.5760
 3123TIP3   OH230927   6.103   1.535   7.448 -0.1049  0.5623  0.0332
 3123TIP3    H130928   6.121   1.447   7.483 -0.3867  0.3643 -0.3163
 3123TIP3    H230929   6.167   1.591   7.491  0.0594  0.1894  0.2820
 3124TIP3   OH230930   1.482   0.490   0.308 -0.1996  0.0760 -0.8076
 3124TIP3    H130931   1.415   0.455   0.249 -1.0671  1.2993 -0.5921
 3124TIP3    H230932   1.535   0.547   0.252 -1.9585  2.4707 -0.1966
 3125TIP3   OH230933   1.356   4.911   3.441  0.5269 -0.3391  0.3823
 3125TIP3    H130934   1.392   4.976   3.501  4.1999 -0.4661 -1.3844
 3125TIP3    H230935   1.273   4.948   3.412  0.3734  1.3976  2.7596
 3126TIP3   OH230936   5.633   6.221   0.741 -0.0471 -0.6160  0.2681
 3126TIP3    H130937   5.569   6.159   0.777 -1.3897  0.1835 -0.6892
 3126TIP3    H230938   5.668   6.176   0.663 -1.2803 -0.0621 -0.6312
 3127TIP3   OH230939   2.996   6.489   7.790 -0.2017  0.1172 -0.2172
 3127TIP3    H130940   3.035   6.469   7.705 -0.6113 -1.5427 -0.0485
 3127TIP3    H230941   3.044   6.434   7.852 -1.1333 -0.0955  0.3380
 3128TIP3   OH230942   2.478   6.356   0.064 -0.1545 -0.4974  0.3717
 3128TIP3    H130943   2.459   6.309   0.145  2.4032  0.5414  1.6787
 3128TIP3    H230944   2.568   6.332   0.043 -0.7134 -0.6646 -2.1797
 3129TIP3   OH230945   3.251   0.869   7.499 -0.4718 -0.0553 -0.2565
 3129TIP3    H130946   3.274   0.945   7.553 -3.3500  1.5831 -1.1011
 3129TIP3    H230947   3.260   0.899   7.409  1.1839 -1.7282 -0.6940
 3130TIP3   OH230948   6.482   0.965   0.460  0.1176  0.0335  0.3419
 3130TIP3    H130949   6.538   0.893   0.429 -0.1146 -0.0980  0.2274
 3130TIP3    H230950   6.420   0.980   0.388  1.4751  1.7744 -0.5547
 3131TIP3   OH230951   4.680   0.213   1.693 -0.0871 -0.6452 -0.1356
 3131TIP3    H130952   4.741   0.239   1.761 -0.1866 -0.5008 -0.1017
 3131TIP3    H230953   4.714   0.129   1.661  1.3812  0.4172 -1.6017
 3132TIP3   OH230954   3.252   1.828   1.337  0.2567  0.5215  0.3814
 3132TIP3    H130955   3.184   1.895   1.330  0.7736  1.0876  0.6240
 3132TIP3    H230956   3.231   1.765   1.269  0.1210  1.2578 -0.2691
 3133TIP3   OH230957   2.262   5.296   2.048 -0.0886  0.7928 -0.0782
 3133TIP3    H130958   2.243   5.390   2.053 -1.6061  0.6766 -2.4049
 3133TIP3    H230959   2.189   5.260   1.998  2.7374 -0.8669 -3.4151
 3134TIP3   OH230960   2.081   1.242   2.468  0.3116 -0.2959 -0.1775
 3134TIP3    H130961   2.119   1.227   2.555 -1.9314 -2.4091  0.5638
 3134TIP3    H230962   2.142   1.200   2.407  2.0379  1.4253  0.2906
 3135TIP3   OH230963   5.475   2.726   0.268  0.9741 -0.1610 -0.0918
 3135TIP3    H130964   5.569   2.715   0.283  1.2576  1.0171 -0.8564
 3135TIP3    H230965   5.435   2.707   0.352  1.9906  0.3065  0.5180
 3136TIP3   OH230966   2.074   2.488   0.805 -0.8151  0.0087 -0.0623
 3136TIP3    H130967   2.059   2.436   0.726 -1.7016 -0.0210  0.1081
 3136TIP3    H230968   2.105   2.572   0.772  0.2076 -0.4762 -0.3616
 3137TIP3   OH230969   2.761   4.733   7.802  0.2537 -0.1868 -0.4572
 3137TIP3    H130970   2.816   4.737   7.724 -0.6322 -1.8517 -1.2209
 3137TIP3    H230971   2.676   4.701   7.770  0.2225 -2.1389  1.3351
 3138TIP3   OH230972   6.109   4.393   2.869 -0.1948  0.4531 -0.3711
 3138TIP3    H130973   6.196   4.428   2.886 -0.7869  1.6685  0.2824
 3138TIP3    H230974   6.084   4.431   2.785  0.7033 -1.5418 -1.5977
 3139TIP3   OH230975   4.786   5.537   1.302 -0.0212 -0.1559  0.0744
 3139TIP3    H130976   4.790   5.609   1.240  2.2401 -0.4025 -0.1397
 3139TIP3    H230977   4.815   5.575   1.385  1.3604 -0.7913 -0.0797
 3140TIP3   OH230978   0.914   2.391   2.692  0.6616  0.1793 -0.0274
 3140TIP3    H130979   1.004   2.361   2.706  0.5720  0.4508  1.1535
 3140TIP3    H230980   0.874   2.321   2.639  1.8449  0.5496 -1.4771
 3141TIP3   OH230981   5.932   6.322   0.065 -0.4983  0.4005 -0.0785
 3141TIP3    H130982   5.920   6.400   0.119 -1.1626 -0.7464  1.5258
 3141TIP3    H230983   5.884   6.253   0.111  1.2176 -1.2958 -0.6642
 3142TIP3   OH230984   5.081   1.466   3.845 -0.0568  0.4747 -0.8842
 3142TIP3    H130985   5.036   1.389   3.809  0.0543  0.7311 -1.5872
 3142TIP3    H230986   5.036   1.483   3.928 -1.8812  1.2298 -1.9435
 3143TIP3   OH230987   6.048   1.163   1.598 -0.0274 -0.1597  0.1182
 3143TIP3    H130988   6.012   1.182   1.685 -0.0169 -1.3679  0.4136
 3143TIP3    H230989   6.062   1.068   1.599  0.0312 -0.1806 -1.1837
 3144TIP3   OH230990   0.201   0.499   8.988 -0.0554 -0.0411  0.1362
 3144TIP3    H130991   0.244   0.478   9.071  0.3330 -1.6439 -0.4322
 3144TIP3    H230992   0.176   0.414   8.952 -2.5589  0.7513 -0.1918
 3145TIP3   OH230993   2.842   6.463   0.677  0.4653  0.3337  0.0414
 3145TIP3    H130994   2.868   6.496   0.591 -0.3173  0.1247 -0.2786
 3145TIP3    H230995   2.863   6.534   0.737 -0.7205  1.2405 -0.5719
 3146TIP3   OH230996   0.249   2.574   0.395  0.1284 -0.2162  0.0060
 3146TIP3    H130997   0.337   2.549   0.365 -0.4376 -1.5377 -0.5957
 3146TIP3    H230998   0.224   2.506   0.457 -0.6734 -0.1210 -0.2006
 3147TIP3   OH230999   5.198   2.369   0.311  0.1386 -0.1061 -0.1809
 3147TIP3    H131000   5.187   2.392   0.218 -0.0439  1.0817  0.1147
 3147TIP3    H231001   5.293   2.364   0.323  0.1578 -0.6654 -0.5137
 3148TIP3   OH231002   2.716   0.537   1.864  0.4770 -0.2416 -0.0899
 3148TIP3    H131003   2.801   0.505   1.833 -0.0397 -1.1955 -0.5762
 3148TIP3    H231004   2.703   0.494   1.949  0.4621 -0.1333 -0.0372
 3149TIP3   OH231005   3.885   1.401   2.622  0.0788 -0.2899  0.9366
 3149TIP3    H131006   3.852   1.368   2.538 -0.4140  2.0944  0.1137
 3149TIP3    H231007   3.858   1.335   2.686  1.2321 -2.6536 -0.8308
 3150TIP3   OH231008   3.179   5.317   3.082 -0.3444 -0.0709 -0.2073
 3150TIP3    H131009   3.160   5.330   2.989  1.2647  0.5943 -0.4751
 3150TIP3    H231010   3.240   5.387   3.104 -0.0057 -0.7557  1.1297
 3151TIP3   OH231011   0.457   2.135   3.046  0.2272  1.1093  0.2642
 3151TIP3    H131012   0.424   2.147   2.958 -1.6225  0.6295  0.8473
 3151TIP3    H231013   0.437   2.043   3.067 -1.2805  1.7515  1.8880
 3152TIP3   OH231014   2.205   5.779   0.642 -0.0500 -0.0469  0.6717
 3152TIP3    H131015   2.175   5.792   0.552 -1.5121  0.8475  1.2469
 3152TIP3    H231016   2.272   5.846   0.655 -1.6574  1.5596  1.0122
 3153TIP3   OH231017   5.412   1.257   1.794  0.2169 -0.2018  0.0440
 3153TIP3    H131018   5.323   1.225   1.781  0.2739 -0.1164 -0.6079
 3153TIP3    H231019   5.404   1.352   1.796  0.1522 -0.2222  1.1474
 3154TIP3   OH231020   4.308   1.120   8.210  0.4940 -0.2873 -0.0604
 3154TIP3    H131021   4.392   1.111   8.256  2.2300 -0.3979 -2.9938
 3154TIP3    H231022   4.330   1.110   8.118 -2.2070  3.2858 -1.3223
 3155TIP3   OH231023   3.814   0.704   1.802 -0.4190  0.8014 -0.1655
 3155TIP3    H131024   3.746   0.770   1.791 -0.2099  0.9652 -0.4510
 3155TIP3    H231025   3.794   0.638   1.735  0.5251  1.5302 -1.1893
 3156TIP3   OH231026   0.983   6.702   0.369 -0.5752 -0.0041  0.0053
 3156TIP3    H131027   1.072   6.715   0.335  0.2275  0.7442  2.1660
 3156TIP3    H231028   0.956   6.617   0.335  0.5604  0.1878 -1.4995
 3157TIP3   OH231029   5.235   5.168   2.577 -0.1395 -0.0781  0.3784
 3157TIP3    H131030   5.316   5.131   2.543 -0.6903 -0.9345 -0.0404
 3157TIP3    H231031   5.218   5.119   2.658  0.3574  0.9023  1.1077
 3158TIP3   OH231032   0.633   6.291   0.453  0.1967 -0.3186 -0.2836
 3158TIP3    H131033   0.546   6.256   0.471 -0.4940  1.9590  1.4034
 3158TIP3    H231034   0.630   6.320   0.362 -1.5796  1.5003  0.2737
 3159TIP3   OH231035   2.218   6.078   2.143  0.3124 -0.8445 -0.5593
 3159TIP3    H131036   2.300   6.031   2.129  0.7799  0.0752 -1.0685
 3159TIP3    H231037   2.206   6.128   2.062 -0.6589 -0.8301 -0.4137
 3160TIP3   OH231038   0.419   3.892   1.707 -0.1343 -0.2199 -0.1819
 3160TIP3    H131039   0.400   3.843   1.627 -1.3560 -0.6869  0.3659
 3160TIP3    H231040   0.423   3.984   1.678 -4.1745  0.1056 -0.3603
 3161TIP3   OH231041   4.335   2.419   8.233  0.4079 -0.4444 -0.0407
 3161TIP3    H131042   4.298   2.332   8.238  2.1542 -1.3160 -1.2679
 3161TIP3    H231043   4.393   2.426   8.310  0.7727 -0.6328 -0.2948
 3162TIP3   OH231044   1.856   5.814   7.599 -0.7503  0.4086  1.0611
 3162TIP3    H131045   1.944   5.786   7.626  0.4202  3.6708  1.1273
 3162TIP3    H231046   1.857   5.804   7.504  1.1556  3.6319  0.5924
 3163TIP3   OH231047   0.252   3.067   0.722 -0.1277  0.3410  0.8149
 3163TIP3    H131048   0.319   3.119   0.766 -0.9215  1.6477  0.5104
 3163TIP3    H231049   0.291   3.046   0.636 -0.2481  1.4395  0.4771
 3164TIP3   OH231050   4.725   3.027   1.413 -0.2058  0.0871 -0.1655
 3164TIP3    H131051   4.709   2.968   1.487  1.4968  0.7596  0.8119
 3164TIP3    H231052   4.683   3.109   1.438  1.0836  0.5788  0.5025
 3165TIP3   OH231053   5.564   4.658   2.856 -0.0813  0.2414 -0.4771
 3165TIP3    H131054   5.470   4.654   2.835 -0.2547  4.9691 -1.6847
 3165TIP3    H231055   5.568   4.708   2.938  1.2940  3.0289 -2.0989
 3166TIP3   OH231056   0.433   5.609   1.930  0.0239  0.1084  0.3768
 3166TIP3    H131057   0.449   5.515   1.936  1.0642  0.2878  0.7396
 3166TIP3    H231058   0.521   5.647   1.923 -0.2351  1.2038  2.4091
 3167TIP3   OH231059   3.644   6.449   8.970  0.2208 -0.5108 -0.2961
 3167TIP3    H131060   3.580   6.383   8.997  0.4699 -1.6775 -2.3460
 3167TIP3    H231061   3.633   6.457   8.875  2.7634 -0.4116 -0.6723
 3168TIP3   OH231062   2.522   5.330   7.583  0.0331 -0.0309 -0.4305
 3168TIP3    H131063   2.541   5.417   7.548 -1.2660  0.2182 -0.5880
 3168TIP3    H231064   2.479   5.284   7.511 -0.9230 -0.1721  0.2040
 3169TIP3   OH231065   2.572   2.612   0.185 -0.3562 -0.4495  0.2076
 3169TIP3    H131066   2.665   2.623   0.166 -0.3010 -1.2596 -0.0290
 3169TIP3    H231067   2.537   2.701   0.187  0.4168 -0.1411  0.2743
 3170TIP3   OH231068   4.767   0.685   8.950  0.1086 -0.3445  0.4082
 3170TIP3    H131069   4.796   0.632   8.875  0.0258 -0.0109  0.1387
 3170TIP3    H231070   4.841   0.742   8.970  0.7899 -1.6162  1.6877
 3171TIP3   OH231071   1.667   5.251   8.781  0.3382  0.0270  0.1625
 3171TIP3    H131072   1.734   5.229   8.717  0.8823 -0.3091  0.8304
 3171TIP3    H231073   1.600   5.183   8.771  1.5054 -1.4052  1.4856
 3172TIP3   OH231074   1.073   1.664   0.520 -0.2952  0.1450 -0.3003
 3172TIP3    H131075   1.013   1.590   0.515  0.3352 -0.4269  0.4851
 3172TIP3    H231076   1.160   1.626   0.514  0.1323  0.5744  2.0407
 3173TIP3   OH231077   4.979   0.563   1.855  0.0250 -0.7155 -0.3549
 3173TIP3    H131078   4.989   0.658   1.856  3.3767 -0.9373  1.1159
 3173TIP3    H231079   4.887   0.548   1.877 -0.2547  2.1459  0.9021
 3174TIP3   OH231080   5.111   2.407   2.668 -0.4353 -0.0796  0.3310
 3174TIP3    H131081   5.150   2.409   2.755  0.0293  1.4135  0.1244
 3174TIP3    H231082   5.175   2.362   2.613 -0.8264 -1.2168  0.7790
 3175TIP3   OH231083   0.860   2.961   0.516 -0.5597 -0.1036  0.2721
 3175TIP3    H131084   0.820   2.936   0.433 -0.5007 -1.1311  0.5409
 3175TIP3    H231085   0.838   2.890   0.576 -0.5076  0.5690  1.1125
 3176TIP3   OH231086   0.431   4.324   2.931  0.1888  0.0619 -0.1780
 3176TIP3    H131087   0.376   4.381   2.985  0.5996  1.3011 -1.0286
 3176TIP3    H231088   0.401   4.236   2.951 -2.3947  0.7002 -0.8716
 3177TIP3   OH231089   6.429   2.195   1.964 -0.6096 -0.2269 -0.5217
 3177TIP3    H131090   6.466   2.278   1.935  0.3775 -0.5087 -0.1011
 3177TIP3    H231091   6.501   2.151   2.010 -1.0394 -1.4086 -0.9313
 3178TIP3   OH231092   5.437   0.747   8.300 -0.1606  0.5441  0.2494
 3178TIP3    H131093   5.519   0.700   8.308 -0.8996 -0.8789 -0.2453
 3178TIP3    H231094   5.371   0.690   8.340 -0.8559  1.8788  1.1073
 3179TIP3   OH231095   3.765   4.227   2.103  0.3677  0.1299  0.3890
 3179TIP3    H131096   3.859   4.230   2.085  0.5902  0.7226  1.5565
 3179TIP3    H231097   3.744   4.313   2.138 -0.7033  0.1328 -0.2175
 3180TIP3   OH231098   5.807   5.876   8.236  0.8783  0.0805 -0.1045
 3180TIP3    H131099   5.725   5.912   8.268  1.7190  1.0798  1.0521
 3180TIP3    H231100   5.788   5.846   8.148 -0.7114  0.3137  0.1371
 3181TIP3   OH231101   0.890   5.665   8.740  0.0579  0.6428  0.0085
 3181TIP3    H131102   0.827   5.627   8.679 -1.1457 -0.4957  1.8667
 3181TIP3    H231103   0.950   5.593   8.761 -0.1827  0.7161  0.9681
 3182TIP3   OH231104   0.988   2.937   2.141 -0.9746 -0.2882  0.1862
 3182TIP3    H131105   1.084   2.938   2.149 -0.8241 -3.4089 -0.2315
 3182TIP3    H231106   0.957   2.967   2.226  0.2759  2.0433 -0.0714
 3183TIP3   OH231107   1.483   5.514   7.470  0.4410 -0.2089  0.0277
 3183TIP3    H131108   1.455   5.565   7.547  1.6255 -1.6841  1.5139
 3183TIP3    H231109   1.402   5.495   7.423 -0.3545  0.5060  1.0498
 3184TIP3   OH231110   4.781   2.387   8.208 -0.0601 -0.3044  0.4799
 3184TIP3    H131111   4.736   2.466   8.177  0.9414  0.0966  0.0027
 3184TIP3    H231112   4.829   2.355   8.131  1.3397 -0.0937  1.2258
 3185TIP3   OH231113   2.436   6.047   8.492 -0.3637 -0.3236  0.5670
 3185TIP3    H131114   2.453   5.960   8.456 -0.4199  1.1490 -3.5398
 3185TIP3    H231115   2.520   6.093   8.488 -0.8642  0.5918  0.1459
 3186TIP3   OH231116   1.680   6.245   0.973 -0.3774  0.0698  0.6493
 3186TIP3    H131117   1.627   6.177   1.014 -1.1278  1.3906  1.9904
 3186TIP3    H231118   1.646   6.252   0.884 -1.5427 -0.0579  1.0655
 3187TIP3   OH231119   2.615   3.461   8.764 -0.4528 -0.0312 -0.2188
 3187TIP3    H131120   2.521   3.472   8.752 -0.7467  0.4442  2.0207
 3187TIP3    H231121   2.649   3.550   8.776  0.5147 -0.0884 -2.2034
 3188TIP3   OH231122   2.535   5.323   2.020  0.1004 -0.0457 -0.1392
 3188TIP3    H131123   2.536   5.320   2.116 -1.0829 -0.7764 -0.1400
 3188TIP3    H231124   2.457   5.275   1.995  1.4865 -1.7225 -1.5434
 3189TIP3   OH231125   3.852   1.520   2.318 -0.0265  0.8194  0.2231
 3189TIP3    H131126   3.895   1.440   2.349 -0.6392  1.1905  2.1458
 3189TIP3    H231127   3.879   1.528   2.226 -0.1841 -1.7285 -0.1013
 3190TIP3   OH231128   6.261   0.129   0.102  0.1496  0.3904  0.3249
 3190TIP3    H131129   6.172   0.128   0.137 -0.1180 -1.0813 -0.3191
 3190TIP3    H231130   6.316   0.103   0.176 -0.1306 -0.2198  0.3212
 3191TIP3   OH231131   2.747   1.885   0.694 -0.5205 -0.0559 -0.3116
 3191TIP3    H131132   2.700   1.940   0.631 -0.2522 -0.3130 -0.7438
 3191TIP3    H231133   2.816   1.844   0.642 -0.5625 -0.6056  0.0620
 3192TIP3   OH231134   0.573   2.905   3.069 -0.7311  0.0897 -0.3295
 3192TIP3    H131135   0.660   2.939   3.087 -0.8420  0.1554  0.0950
 3192TIP3    H231136   0.529   2.974   3.021 -0.0078 -0.5827 -2.0311
 3193TIP3   OH231137   6.279   4.071   7.754 -0.0204  0.3052  0.2206
 3193TIP3    H131138   6.237   4.086   7.669 -0.2970 -1.8424 -0.0943
 3193TIP3    H231139   6.365   4.035   7.732  0.4139  0.9250  0.8691
 3194TIP3   OH231140   2.739   1.892   2.403  0.1573 -0.4555 -0.7767
 3194TIP3    H131141   2.676   1.956   2.369  1.2621  0.2522 -1.6009
 3194TIP3    H231142   2.714   1.809   2.362 -1.5912 -0.6984  0.6833
 3195TIP3   OH231143   5.844   0.801   2.803 -0.1003 -0.5108  0.1065
 3195TIP3    H131144   5.880   0.863   2.866  0.9317 -0.7616 -0.2188
 3195TIP3    H231145   5.919   0.747   2.777 -0.4491 -0.2550 -1.5282
 3196TIP3   OH231146   3.875   1.229   2.363  0.1783 -0.3828 -0.1496
 3196TIP3    H131147   3.809   1.162   2.380  1.0818 -0.9705  1.1872
 3196TIP3    H231148   3.881   1.233   2.268 -3.0582  0.9716 -0.4564
 3197TIP3   OH231149   2.449   4.537   2.610 -0.1805  0.4726  0.2729
 3197TIP3    H131150   2.414   4.605   2.668 -0.3062 -0.3524  1.1908
 3197TIP3    H231151   2.487   4.586   2.536  2.0594  1.7390  2.0943
 3198TIP3   OH231152   1.318   4.498   0.420 -0.3153  0.2443  0.7592
 3198TIP3    H131153   1.391   4.546   0.381  1.2920  0.7013  4.0418
 3198TIP3    H231154   1.244   4.514   0.360  1.5884  1.9101 -1.3043
 3199TIP3   OH231155   4.764   6.709   2.016 -0.2643 -0.5017 -0.3407
 3199TIP3    H131156   4.680   6.753   2.004  0.1160  0.1269 -0.8086
 3199TIP3    H231157   4.754   6.626   1.970 -0.6352 -0.4399 -0.3771
 3200TIP3   OH231158   2.658   4.928   8.670  0.1702 -0.1809  0.1038
 3200TIP3    H131159   2.750   4.928   8.695 -0.0981 -3.2158  1.6438
 3200TIP3    H231160   2.614   4.971   8.743  0.3423  1.7030 -0.8531
 3201TIP3   OH231161   3.934   2.067   0.104  0.5680 -0.1726  0.5327
 3201TIP3    H131162   3.890   2.077   0.188  1.8170 -0.4487  1.2366
 3201TIP3    H231163   4.021   2.103   0.118  0.3800  0.9690 -1.0263
 3202TIP3   OH231164   3.905   5.711   9.008 -0.4561  0.6398 -0.4906
 3202TIP3    H131165   3.989   5.741   8.973 -0.6532 -0.3813 -1.9685
 3202TIP3    H231166   3.906   5.736   9.100  0.9575  1.7007 -0.7657
 3203TIP3   OH231167   5.120   2.341   2.032 -0.1217 -0.2467 -0.3611
 3203TIP3    H131168   5.191   2.279   2.022  0.6109  0.5358 -0.1163
 3203TIP3    H231169   5.131   2.402   1.959  1.2026  1.5369  1.2119
 3204TIP3   OH231170   0.281   3.938   1.269  0.2394  0.6738 -0.0288
 3204TIP3    H131171   0.304   4.030   1.283 -2.5520  1.5949 -0.9059
 3204TIP3    H231172   0.197   3.928   1.314  0.7258 -1.6372  0.4799
 3205TIP3   OH231173   2.280   4.764   0.023  0.4132 -0.1370  0.0781
 3205TIP3    H131174   2.369   4.772  -0.012 -0.4005 -1.0934 -2.4013
 3205TIP3    H231175   2.285   4.803   0.110  3.5844 -1.4139  0.5868
 3206TIP3   OH231176   1.262   5.344   2.041 -0.1977 -0.0300  0.1147
 3206TIP3    H131177   1.211   5.414   1.999  2.8551  1.3377 -1.6052
 3206TIP3    H231178   1.269   5.371   2.132  0.3919  1.6631 -0.3914
 3207TIP3   OH231179   3.426   0.661   0.718  0.2594  0.3742 -0.7117
 3207TIP3    H131180   3.340   0.624   0.701 -0.1802  1.0357 -0.0092
 3207TIP3    H231181   3.444   0.716   0.643  0.8075 -1.0215 -1.6452
 3208TIP3   OH231182   6.625   6.479   2.137 -0.0035  0.1508  0.0441
 3208TIP3    H131183   6.682   6.449   2.208 -1.5812  2.0810  2.3118
 3208TIP3    H231184   6.680   6.537   2.085  0.2516  1.8849  2.1124
 3209TIP3   OH231185   4.952   1.058   7.679  0.6767  0.2622 -0.2176
 3209TIP3    H131186   5.040   1.021   7.683  0.4229 -0.2877  0.4957
 3209TIP3    H231187   4.915   1.024   7.597  0.7876 -0.3020 -0.0377
 3210TIP3   OH231188   5.948   2.285   8.916 -0.2486 -0.3443 -0.1932
 3210TIP3    H131189   5.963   2.312   9.007 -0.2800 -1.7708  0.2591
 3210TIP3    H231190   5.858   2.252   8.916 -0.2452 -0.3608 -0.7489
 3211TIP3   OH231191   3.746   6.408   1.604 -0.1364  0.2966 -0.4642
 3211TIP3    H131192   3.725   6.467   1.531 -0.7214  0.9676  0.2372
 3211TIP3    H231193   3.840   6.390   1.594 -0.3734 -0.2869 -1.8603
 3212TIP3   OH231194   1.538   2.016   8.979 -0.2046 -0.3103  0.1339
 3212TIP3    H131195   1.572   2.049   8.897 -0.6551 -1.2207 -0.4377
 3212TIP3    H231196   1.442   2.021   8.969 -0.2710  0.9450  1.1772
 3213TIP3   OH231197   3.675   5.524   2.455 -0.3236  0.0264 -0.7978
 3213TIP3    H131198   3.673   5.610   2.497 -0.8095 -0.0567 -0.6516
 3213TIP3    H231199   3.718   5.540   2.371  0.8698  0.1536 -0.1933
 3214TIP3   OH231200   5.705   6.078   1.115 -0.3037  0.4189  0.2549
 3214TIP3    H131201   5.630   6.043   1.163 -0.7163 -1.2635 -1.4584
 3214TIP3    H231202   5.668   6.146   1.058 -0.3427  0.3904  0.2457
 3215TIP3   OH231203   6.166   0.441   8.249 -0.2569 -0.4368  0.4253
 3215TIP3    H131204   6.239   0.503   8.250  1.7599 -2.6547  1.2538
 3215TIP3    H231205   6.134   0.442   8.159  1.9757 -0.6054 -0.4275
 3216TIP3   OH231206   1.920   1.822   1.096  0.0515  0.3507  0.1621
 3216TIP3    H131207   1.857   1.888   1.070  0.9126  0.6933 -1.1544
 3216TIP3    H231208   1.926   1.762   1.021 -0.0320 -0.7065  0.9655
 3217TIP3   OH231209   3.080   0.663   7.522  0.1111 -0.0909  0.3126
 3217TIP3    H131210   3.152   0.726   7.514  0.6524 -0.8943 -1.6446
 3217TIP3    H231211   3.001   0.715   7.505  0.3337  0.5028  1.0356
 3218TIP3   OH231212   0.552   4.922   2.875  0.0167  0.3728  0.2522
 3218TIP3    H131213   0.551   4.989   2.806 -1.5362 -1.9741 -2.2203
 3218TIP3    H231214   0.638   4.881   2.868 -0.5085 -0.5683 -1.1482
 3219TIP3   OH231215   1.504   5.779   8.770  0.4754 -0.8910  0.2866
 3219TIP3    H131216   1.589   5.741   8.746  0.5035 -0.5073 -0.2646
 3219TIP3    H231217   1.487   5.842   8.700  0.0887 -0.4255  0.7955
 3220TIP3   OH231218   6.555   6.197   1.933  0.4451  0.0772  0.0022
 3220TIP3    H131219   6.514   6.112   1.915 -0.5985  0.6777 -0.5853
 3220TIP3    H231220   6.502   6.234   2.003  1.1147  0.1023  0.4993
 3221TIP3   OH231221   5.303   3.814   0.272  0.1111 -0.3933 -0.0024
 3221TIP3    H131222   5.237   3.782   0.209  0.4045 -0.7081 -0.1575
 3221TIP3    H231223   5.382   3.765   0.249  0.6177  0.5821 -0.3474
 3222TIP3   OH231224   2.093   1.203   0.519  0.6481  0.1340 -0.5141
 3222TIP3    H131225   2.100   1.107   0.520 -1.4352 -0.0690  0.1011
 3222TIP3    H231226   2.028   1.223   0.586  0.4891  1.9310 -1.1471
 3223TIP3   OH231227   1.970   2.972   2.215  1.2098  0.2027 -0.0135
 3223TIP3    H131228   1.919   3.042   2.254 -1.0212 -1.0294 -0.5831
 3223TIP3    H231229   2.020   3.015   2.145 -1.2443  1.0609 -1.3606
 3224TIP3   OH231230   4.729   2.430   8.566  0.0878 -0.2123  0.3878
 3224TIP3    H131231   4.746   2.505   8.508 -1.0412  0.8079  1.3418
 3224TIP3    H231232   4.644   2.397   8.538  2.0589 -3.5523 -2.4967
 3225TIP3   OH231233   0.064   0.101   1.697  0.7567  0.1732 -0.2313
 3225TIP3    H131234   0.069   0.168   1.629  2.0678  1.1328  0.7827
 3225TIP3    H231235  -0.012   0.126   1.750  1.0614  0.6826 -0.0346
 3226TIP3   OH231236   0.759   2.381   8.639  0.5250 -0.4233  0.1197
 3226TIP3    H131237   0.700   2.312   8.671  0.2200  0.1035  0.6996
 3226TIP3    H231238   0.751   2.376   8.544  1.3694 -1.9414  0.0944
 3227TIP3   OH231239   2.379   3.000   1.620  0.2046  0.6102 -0.1393
 3227TIP3    H131240   2.335   2.999   1.535 -0.5654 -1.2615  0.2287
 3227TIP3    H231241   2.436   2.923   1.618  0.4001  0.7079  0.9291
 3228TIP3   OH231242   6.583   3.734   1.882 -0.1729 -0.2269  0.0293
 3228TIP3    H131243   6.640   3.688   1.944 -1.8175 -0.7267  1.2671
 3228TIP3    H231244   6.609   3.826   1.889  0.5479 -0.4551  0.4765
 3229TIP3   OH231245   1.629   2.703   1.817 -0.1081 -0.1185 -0.1520
 3229TIP3    H131246   1.632   2.683   1.911 -1.0374  1.3068  0.2237
 3229TIP3    H231247   1.720   2.695   1.788  0.6201  1.5504  1.3927
 3230TIP3   OH231248   1.750   3.883   0.833  0.8760  0.0335  0.4675
 3230TIP3    H131249   1.715   3.809   0.784  1.4817 -1.2363  1.8788
 3230TIP3    H231250   1.844   3.883   0.814  0.6730  1.4447 -0.7517
 3231TIP3   OH231251   0.374   2.198   0.728  0.2941  0.3609 -0.1358
 3231TIP3    H131252   0.283   2.209   0.699 -0.6107 -0.6171  2.0666
 3231TIP3    H231253   0.403   2.117   0.685  0.0562  0.5398 -0.6449
 3232TIP3   OH231254   0.887   1.571   1.960 -0.3047  0.1981 -0.3324
 3232TIP3    H131255   0.801   1.578   1.918 -0.5588  0.3649  0.2075
 3232TIP3    H231256   0.868   1.544   2.049  0.1365  1.1795  0.0731
 3233TIP3   OH231257   3.362   2.417   1.618  0.2270 -0.3320 -0.7771
 3233TIP3    H131258   3.440   2.374   1.655 -0.1947 -1.0907 -0.7611
 3233TIP3    H231259   3.363   2.393   1.525 -0.0811 -0.4857 -0.7415
 3234TIP3   OH231260   5.538   0.183   8.785 -0.6038 -0.4007 -0.1467
 3234TIP3    H131261   5.503   0.121   8.848  1.5494  0.4042  2.0003
 3234TIP3    H231262   5.619   0.216   8.825  0.2023  1.1660 -2.7511
 3235TIP3   OH231263   0.195   3.301   0.033  0.7835  0.7527  0.0539
 3235TIP3    H131264   0.107   3.291  -0.003  0.9806  1.0016 -0.4988
 3235TIP3    H231265   0.189   3.376   0.093  0.7549  1.1352 -0.4239
 3236TIP3   OH231266   4.698   6.119   8.485 -0.4521 -0.3718 -0.4833
 3236TIP3    H131267   4.749   6.191   8.450 -0.7482 -0.0896 -0.3419
 3236TIP3    H231268   4.740   6.098   8.569  0.9388 -1.7852 -1.4874
 3237TIP3   OH231269   0.627   6.501   7.080 -0.2081  0.4366 -0.1252
 3237TIP3    H131270   0.681   6.563   7.030 -0.4317  0.3584 -0.4673
 3237TIP3    H231271   0.595   6.553   7.154 -1.5936  1.1754 -1.1901
 3238TIP3   OH231272   1.519   0.269   0.922  0.3451  0.1917 -0.3134
 3238TIP3    H131273   1.494   0.234   0.837 -1.7095 -0.6073  0.5281
 3238TIP3    H231274   1.534   0.362   0.908 -1.6201  0.4106 -1.2839
 3239TIP3   OH231275   2.651   5.887   1.984 -0.2498 -0.0907  0.1083
 3239TIP3    H131276   2.649   5.848   2.071 -1.1830  1.0957  0.6355
 3239TIP3    H231277   2.630   5.814   1.924  0.3374 -0.8949  0.8531
 3240TIP3   OH231278   3.382   1.104   8.045  0.3236 -0.2237  0.5102
 3240TIP3    H131279   3.331   1.173   8.003 -0.5081 -0.1365  1.6092
 3240TIP3    H231280   3.324   1.070   8.114 -0.1837 -3.5268 -1.3188
 3241TIP3   OH231281   4.800   3.698   1.125 -0.0785 -0.5507  0.8260
 3241TIP3    H131282   4.746   3.619   1.118 -1.2636  0.3470 -0.7493
 3241TIP3    H231283   4.876   3.670   1.177  0.4029 -3.1877 -1.0919
 3242TIP3   OH231284   5.134   4.067   2.251 -0.2333 -0.0522 -0.5656
 3242TIP3    H131285   5.224   4.049   2.224 -0.4300 -1.4121 -0.3724
 3242TIP3    H231286   5.141   4.094   2.342  0.0733  1.0032 -0.8815
 3243TIP3   OH231287   4.498   5.862   0.300  0.2885 -0.5534  0.5279
 3243TIP3    H131288   4.406   5.888   0.306  0.5753  0.4720  0.6013
 3243TIP3    H231289   4.495   5.766   0.298 -0.7131 -0.5642  1.6303
 3244TIP3   OH231290   6.391   4.770   0.781 -0.2426 -0.3893  0.2733
 3244TIP3    H131291   6.469   4.754   0.728  1.0766 -0.0197  2.0434
 3244TIP3    H231292   6.396   4.862   0.805 -1.3652 -0.3039  0.2374
 3245TIP3   OH231293   5.859   4.674   1.497  0.0687 -0.3383 -0.3425
 3245TIP3    H131294   5.930   4.639   1.444  0.5382  0.6712 -0.3986
 3245TIP3    H231295   5.807   4.726   1.436 -0.1408 -0.2440 -0.0869
 3246TIP3   OH231296   3.364   6.000   3.303 -0.2580  1.0816  0.2084
 3246TIP3    H131297   3.270   6.019   3.295 -0.2948  0.8523  0.1030
 3246TIP3    H231298   3.399   6.075   3.351 -0.6778  0.6717  1.1851
 3247TIP3   OH231299   1.601   4.599   7.765 -0.1510 -0.3089  0.3481
 3247TIP3    H131300   1.637   4.535   7.826 -0.7789 -0.9091  0.1011
 3247TIP3    H231301   1.508   4.601   7.785 -0.4480 -0.8744 -0.9161
 3248TIP3   OH231302   3.359   6.610   0.803  0.2971 -0.2768  0.6322
 3248TIP3    H131303   3.328   6.651   0.884 -0.2561  0.2400  0.1700
 3248TIP3    H231304   3.303   6.534   0.791  0.1907 -0.1935  0.5935
 3249TIP3   OH231305   3.313   3.077   2.116  0.2054  0.1666  0.0468
 3249TIP3    H131306   3.344   2.995   2.155 -0.8149 -0.8598 -1.2159
 3249TIP3    H231307   3.221   3.061   2.095  0.1826  1.3711 -0.8988
 3250TIP3   OH231308   6.356   2.459   0.526 -0.2331  0.0580  0.5337
 3250TIP3    H131309   6.441   2.452   0.482 -0.4375 -0.3296  0.1952
 3250TIP3    H231310   6.297   2.495   0.459 -0.5246 -0.4537  0.5073
 3251TIP3   OH231311   0.305   4.380   0.387  0.1229 -0.3957  0.0729
 3251TIP3    H131312   0.355   4.321   0.444  1.7365 -0.4764 -1.3597
 3251TIP3    H231313   0.371   4.431   0.340 -1.2118  1.7597  0.3868
 3252TIP3   OH231314   5.890   4.931   8.638  0.3590 -0.1297  0.2244
 3252TIP3    H131315   5.899   4.927   8.543  1.8801  0.5201  0.3245
 3252TIP3    H231316   5.882   4.839   8.665  0.0010 -0.3232 -0.4996
 3253TIP3   OH231317   4.524   2.424   2.501 -0.4673 -0.5909 -0.3723
 3253TIP3    H131318   4.588   2.366   2.460 -0.0209 -0.0549 -0.4490
 3253TIP3    H231319   4.561   2.444   2.587  0.2029  0.8731 -0.9634
 3254TIP3   OH231320   5.354   5.635   8.894 -0.4115  0.3081  0.5869
 3254TIP3    H131321   5.362   5.590   8.810  0.7581 -0.0138  0.8466
 3254TIP3    H231322   5.355   5.565   8.959 -2.8672  0.4317  0.8505
 3255TIP3   OH231323   0.609   0.573   0.501 -0.2207  0.4703 -0.6541
 3255TIP3    H131324   0.643   0.491   0.538 -2.0618 -0.4207 -0.8164
 3255TIP3    H231325   0.653   0.582   0.417  0.7785  0.2002 -0.1670
 3256TIP3   OH231326   5.196   5.231   1.932 -0.0669 -0.0206  0.2618
 3256TIP3    H131327   5.242   5.148   1.917 -0.7555 -0.2985 -0.3832
 3256TIP3    H231328   5.176   5.263   1.844 -1.6717 -0.2298  0.5259
 3257TIP3   OH231329   6.582   0.462   0.308  0.9316  0.6021 -0.2957
 3257TIP3    H131330   6.561   0.397   0.375  0.7581  0.4150 -0.5311
 3257TIP3    H231331   6.533   0.435   0.231  1.0017  0.9098 -0.4525
 3258TIP3   OH231332   2.470   2.040   0.800 -0.2399  0.2839  0.0295
 3258TIP3    H131333   2.416   2.119   0.799  0.5695  0.8786  1.6231
 3258TIP3    H231334   2.512   2.039   0.714 -1.3029  0.8312 -0.5224
 3259TIP3   OH231335   6.557   1.843   1.758 -0.7292  0.2030 -0.5800
 3259TIP3    H131336   6.637   1.799   1.729  0.0962  1.0687  0.3093
 3259TIP3    H231337   6.514   1.779   1.814  0.2464  0.3191  0.3525
 3260TIP3   OH231338   5.923   2.171   2.107  0.2359  0.4414  0.2692
 3260TIP3    H131339   5.956   2.128   2.028  1.9564  0.8561  0.7144
 3260TIP3    H231340   6.000   2.214   2.144 -0.3785 -0.2728  2.5157
 3261TIP3   OH231341   0.340   0.336   8.154  1.2750 -0.2142  0.3286
 3261TIP3    H131342   0.320   0.426   8.177  0.3724 -0.2981 -0.0826
 3261TIP3    H231343   0.329   0.287   8.236  2.1063  0.1002  0.6259
 3262TIP3   OH231344   4.753   3.386   0.557  0.0153 -0.0269 -0.3934
 3262TIP3    H131345   4.703   3.457   0.518  1.4746  0.3252 -1.7479
 3262TIP3    H231346   4.687   3.322   0.584 -1.2910  1.5554  0.3342
 3263TIP3   OH231347   3.456   2.065   8.973  0.4898 -0.4706  0.0879
 3263TIP3    H131348   3.433   2.013   8.896  2.4671 -0.2393 -0.7153
 3263TIP3    H231349   3.419   2.151   8.955  0.2398 -0.6332 -0.2046
 3264TIP3   OH231350   4.410   5.757   1.347 -0.1955 -0.5603  0.0127
 3264TIP3    H131351   4.358   5.806   1.411 -1.3881 -0.2957 -1.1107
 3264TIP3    H231352   4.391   5.665   1.366 -2.4569 -0.4631 -1.3955
 3265TIP3   OH231353   1.743   5.975   2.423  0.4119  0.3770 -0.0801
 3265TIP3    H131354   1.657   5.956   2.386  0.0243  2.4488 -0.3673
 3265TIP3    H231355   1.798   5.996   2.347  0.6371  0.9465  0.2327
 3266TIP3   OH231356   5.197   2.409   0.655 -0.7928 -0.0567 -0.2265
 3266TIP3    H131357   5.114   2.457   0.652 -0.5604  0.3437 -0.3450
 3266TIP3    H231358   5.264   2.477   0.658 -0.4727 -0.3791  0.0843
 3267TIP3   OH231359   1.625   0.706   0.184 -0.4337  0.8306  0.1879
 3267TIP3    H131360   1.675   0.787   0.185 -0.3975  0.8098  1.1462
 3267TIP3    H231361   1.540   0.730   0.147  0.0297  1.0110 -0.7939
 3268TIP3   OH231362   4.790   1.554   0.420 -0.1142  0.0048 -0.0888
 3268TIP3    H131363   4.821   1.538   0.509 -0.3687 -1.1978 -0.2048
 3268TIP3    H231364   4.772   1.648   0.418  1.5620  0.3718  0.5877
 3269TIP3   OH231365   1.583   3.295   8.365 -0.4867  0.1966 -0.3623
 3269TIP3    H131366   1.673   3.262   8.358 -1.0337 -2.0851  1.8502
 3269TIP3    H231367   1.540   3.264   8.286  0.0615 -0.9722 -0.2237
 3270TIP3   OH231368   3.230   4.819   2.718 -0.0074  0.6089 -0.3205
 3270TIP3    H131369   3.261   4.762   2.789  1.1722 -0.3828 -1.5701
 3270TIP3    H231370   3.280   4.900   2.729  0.3956  0.3463 -0.2142
 3271TIP3   OH231371   6.245   4.563   8.001 -0.4908  0.4209  0.4907
 3271TIP3    H131372   6.308   4.623   7.962  0.3857 -0.7487  0.0206
 3271TIP3    H231373   6.296   4.515   8.067 -1.0499 -0.0840  0.5648
 3272TIP3   OH231374   4.134   1.524   7.342 -0.4632 -0.1843  0.3417
 3272TIP3    H131375   4.170   1.484   7.421 -1.1678  1.4702  1.5698
 3272TIP3    H231376   4.200   1.509   7.274  0.8077 -0.4129  1.5895
 3273TIP3   OH231377   0.750   4.995   0.488  0.3338  0.3446 -0.3375
 3273TIP3    H131378   0.709   4.912   0.511  1.0561  0.0889  0.0659
 3273TIP3    H231379   0.678   5.058   0.490 -0.2592 -0.3053 -0.8695
 3274TIP3   OH231380   3.538   2.297   0.698  0.0121 -0.0794  0.1532
 3274TIP3    H131381   3.526   2.254   0.782  1.6127 -0.7835  0.0544
 3274TIP3    H231382   3.602   2.243   0.652  0.4330  1.2141 -0.8438
 3275TIP3   OH231383   6.123   0.742   7.145  0.2562  0.5804  0.8198
 3275TIP3    H131384   6.055   0.777   7.203 -0.5084 -1.7066  1.4184
 3275TIP3    H231385   6.108   0.784   7.061 -2.0073  0.0690  0.9103
 3276TIP3   OH231386   0.276   0.642   2.221 -0.1922  0.0318  0.1857
 3276TIP3    H131387   0.187   0.645   2.186  0.1377  1.7280 -0.6026
 3276TIP3    H231388   0.306   0.733   2.219  1.9193 -0.6260 -0.5169
 3277TIP3   OH231389   2.250   4.108   1.046  0.0045  0.0125 -0.4957
 3277TIP3    H131390   2.336   4.073   1.023  0.1278  0.0326 -0.0783
 3277TIP3    H231391   2.246   4.101   1.142 -0.2496  0.4790 -0.4676
 3278TIP3   OH231392   6.483   6.089   0.627  0.3961  0.1285 -0.3935
 3278TIP3    H131393   6.529   6.032   0.565 -1.1859 -0.8137 -0.7562
 3278TIP3    H231394   6.471   6.171   0.581  1.0284  0.1302 -0.5671
 3279TIP3   OH231395   3.157   5.963   0.369  0.4357 -0.0085 -0.1552
 3279TIP3    H131396   3.172   6.006   0.285 -0.5026  0.6183 -0.0190
 3279TIP3    H231397   3.208   6.015   0.431  1.0838 -0.4381 -0.3141
 3280TIP3   OH231398   4.575   5.361   1.554  0.0044 -1.0465 -1.0823
 3280TIP3    H131399   4.588   5.267   1.541 -0.4252 -1.0984 -1.1594
 3280TIP3    H231400   4.515   5.387   1.483  0.2634 -0.6784 -1.1726
 3281TIP3   OH231401   6.489   4.423   8.405 -0.5205 -0.3231  0.8481
 3281TIP3    H131402   6.505   4.344   8.457  0.2671 -0.0501  1.0352
 3281TIP3    H231403   6.415   4.466   8.449 -0.1179 -0.3002  1.5136
 3282TIP3   OH231404   3.694   5.264   2.566 -0.4661  0.2073 -0.5663
 3282TIP3    H131405   3.695   5.344   2.512  1.1204 -0.1091 -1.0820
 3282TIP3    H231406   3.753   5.284   2.639 -0.5501 -0.2805 -0.3598
 3283TIP3   OH231407   4.885   0.142   3.053  0.0828 -0.1136  0.4154
 3283TIP3    H131408   4.967   0.169   3.012 -0.4533  0.6254 -0.2002
 3283TIP3    H231409   4.851   0.221   3.094  0.0637 -0.6011  1.3648
 3284TIP3   OH231410   1.245   5.039   0.251  0.1576  0.0947  0.3754
 3284TIP3    H131411   1.233   4.972   0.318 -0.8053 -0.9469 -0.8028
 3284TIP3    H231412   1.339   5.057   0.253  0.2475 -0.3704  1.5532
 3285TIP3   OH231413   6.551   2.537   0.239  0.3341 -0.3227 -0.6550
 3285TIP3    H131414   6.511   2.614   0.280 -1.5177 -0.0488 -2.7622
 3285TIP3    H231415   6.599   2.494   0.310  0.1482  1.9335  0.9336
 3286TIP3   OH231416   6.537   6.629   0.813  0.1254  0.2329  0.3121
 3286TIP3    H131417   6.601   6.577   0.862 -0.5879  0.5467  1.6106
 3286TIP3    H231418   6.456   6.579   0.818 -0.2463  0.8401  0.4602
 3287TIP3   OH231419   1.616   4.421   1.427 -0.2767 -0.0095  0.3271
 3287TIP3    H131420   1.627   4.452   1.517 -0.7808 -1.5364  0.9371
 3287TIP3    H231421   1.521   4.411   1.416 -0.3653  1.7784 -0.9701
 3288TIP3   OH231422   4.834   3.980   0.400  0.3872  0.3876  0.3717
 3288TIP3    H131423   4.761   3.932   0.441 -0.4142  2.2820  1.2992
 3288TIP3    H231424   4.792   4.042   0.341  1.3368  0.5797 -0.1217
 3289TIP3   OH231425   2.729   1.350   2.332  0.0137  0.0435 -0.3529
 3289TIP3    H131426   2.723   1.371   2.425 -0.2730 -0.8611 -0.1584
 3289TIP3    H231427   2.821   1.367   2.309  0.4410 -1.1138  0.4430
 3290TIP3   OH231428   6.389   0.471   2.822  0.1003 -0.0270 -0.1065
 3290TIP3    H131429   6.358   0.384   2.799 -1.1437  0.5808 -0.8732
 3290TIP3    H231430   6.328   0.530   2.778  1.0308  1.2332  0.2358
 3291TIP3   OH231431   2.258   4.463   1.218 -0.5033 -0.2113 -0.3093
 3291TIP3    H131432   2.201   4.400   1.174 -1.5175 -0.6930  1.5839
 3291TIP3    H231433   2.305   4.506   1.147 -2.8494 -0.1652 -1.9538
 3292TIP3   OH231434   2.264   3.028   2.102 -0.1492  0.8345 -0.1675
 3292TIP3    H131435   2.253   3.114   2.061  0.6123 -0.4537 -3.4495
 3292TIP3    H231436   2.347   2.996   2.067  0.1686 -0.8126  1.9000
 3293TIP3   OH231437   3.864   6.603   9.005  0.3377  0.4895  0.5130
 3293TIP3    H131438   3.787   6.556   8.975 -0.7071  1.4376  1.5978
 3293TIP3    H231439   3.886   6.662   8.934  2.3782 -2.2684 -1.3884
 3294TIP3   OH231440   0.875   1.641   3.009 -0.5125 -0.0425 -0.5342
 3294TIP3    H131441   0.863   1.642   3.103 -0.7658 -1.1724 -0.5406
 3294TIP3    H231442   0.893   1.549   2.988  3.3402  0.6559 -1.1071
 3295TIP3   OH231443   5.633   3.938   0.372 -0.1652  0.6208 -0.0811
 3295TIP3    H131444   5.573   3.874   0.410  1.0016 -1.6603 -1.8394
 3295TIP3    H231445   5.693   3.960   0.443  1.3844 -2.7976 -0.1546
 3296TIP3   OH231446   2.974   0.816   1.654  0.3111  0.1784  0.2099
 3296TIP3    H131447   2.889   0.786   1.683  0.1927 -0.5642 -0.8490
 3296TIP3    H231448   2.955   0.871   1.577  0.8975 -2.4084 -1.9373
 3297TIP3   OH231449   2.027   1.130   1.996 -0.1563  0.4356  0.2108
 3297TIP3    H131450   2.103   1.177   2.031  0.5118 -0.2827 -0.2468
 3297TIP3    H231451   1.951   1.177   2.032  0.4938  1.3533  0.4207
 3298TIP3   OH231452   6.486   6.284   8.550  0.6547 -0.0620 -0.1837
 3298TIP3    H131453   6.461   6.332   8.629  1.1464 -1.6180  0.9471
 3298TIP3    H231454   6.420   6.216   8.540  1.0033 -0.3406 -0.6926
 3299TIP3   OH231455   0.498   1.621   1.389 -0.7894  0.7739 -0.3721
 3299TIP3    H131456   0.467   1.535   1.361  2.1738 -0.2493 -0.8803
 3299TIP3    H231457   0.527   1.608   1.479 -0.5343  1.3102 -0.3744
 3300TIP3   OH231458   4.638   3.149   0.238  0.6212  0.6526  0.6450
 3300TIP3    H131459   4.635   3.114   0.327 -0.3230  0.6098  0.6014
 3300TIP3    H231460   4.559   3.201   0.230  1.1642  1.4245  0.1336
 3301TIP3   OH231461   4.355   0.974   1.867 -0.4350  0.5659  0.0792
 3301TIP3    H131462   4.309   0.955   1.785 -1.4835  1.4603  0.4402
 3301TIP3    H231463   4.372   0.887   1.905 -1.3703  0.1957 -0.3186
 3302TIP3   OH231464   5.475   1.256   2.320 -0.5736  0.2958  0.5970
 3302TIP3    H131465   5.502   1.265   2.229 -0.6885  1.7012  0.6706
 3302TIP3    H231466   5.555   1.233   2.368 -0.1444  1.2698  0.3694
 3303TIP3   OH231467   1.596   6.093   3.169  0.3361  0.3571 -0.1433
 3303TIP3    H131468   1.548   6.100   3.086 -0.6011  1.0780  0.4599
 3303TIP3    H231469   1.653   6.016   3.156 -1.8829 -1.3418 -0.4110
 3304TIP3   OH231470   3.154   3.034   1.811  0.1945  0.4693  0.0894
 3304TIP3    H131471   3.196   3.098   1.754  0.6436  0.9289  0.9236
 3304TIP3    H231472   3.062   3.034   1.784  0.7184 -0.7744 -1.9812
 3305TIP3   OH231473   2.374   3.239   8.537  0.1678 -0.3332  0.3624
 3305TIP3    H131474   2.445   3.254   8.475  1.1591 -1.7511  1.0858
 3305TIP3    H231475   2.326   3.165   8.501  0.8917 -1.3207  1.3564
 3306TIP3   OH231476   5.214   4.440   0.606 -0.4392  0.0188 -0.7954
 3306TIP3    H131477   5.268   4.419   0.683 -1.1783  1.3096  0.1185
 3306TIP3    H231478   5.257   4.515   0.566  1.0542 -1.8035 -2.8727
 3307TIP3   OH231479   3.095   6.166   0.943  0.4555  0.6146  0.0971
 3307TIP3    H131480   3.083   6.113   1.021 -0.4595  1.1648  0.3424
 3307TIP3    H231481   3.007   6.191   0.916  0.6797 -0.2453 -1.6001
 3308TIP3   OH231482   4.203   4.023   2.574  0.4631  0.3520  0.5021
 3308TIP3    H131483   4.249   3.992   2.652  0.9353 -0.2660 -0.0068
 3308TIP3    H231484   4.196   4.117   2.586 -1.8448  0.0036  2.5401
 3309TIP3   OH231485   2.349   2.819   7.994 -0.1621  0.1341 -0.8313
 3309TIP3    H131486   2.333   2.765   8.072 -0.7005  0.7064 -0.5345
 3309TIP3    H231487   2.370   2.905   8.029  0.7190  0.1172 -1.3060
 3310TIP3   OH231488   1.157   0.545   0.092 -0.0203  0.1945 -0.5413
 3310TIP3    H131489   1.097   0.589   0.153  0.8161  2.3189 -1.1688
 3310TIP3    H231490   1.108   0.541   0.009 -0.9603 -2.2333  0.0280
 3311TIP3   OH231491   1.237   6.602   0.042 -0.0789  0.2306  0.1268
 3311TIP3    H131492   1.331   6.587   0.055 -0.3981 -2.2568  0.0673
 3311TIP3    H231493   1.232   6.680  -0.012  2.1932 -1.7451 -3.3222
 3312TIP3   OH231494   2.068   5.161   2.262  0.1669  0.4724 -0.3254
 3312TIP3    H131495   2.088   5.241   2.310  0.7323  0.0998  0.0777
 3312TIP3    H231496   2.076   5.185   2.170  0.8389  0.7512 -0.1961
 3313TIP3   OH231497   1.592   2.028   2.133 -0.2100 -0.0980 -0.1926
 3313TIP3    H131498   1.643   1.954   2.099 -0.6626 -0.6307  0.2724
 3313TIP3    H231499   1.641   2.105   2.104  1.4398 -0.5935  1.0760
 3314TIP3   OH231500   3.443   1.863   2.574 -1.2408  0.3212  0.2864
 3314TIP3    H131501   3.355   1.848   2.609 -0.4850  0.9842  2.6209
 3314TIP3    H231502   3.490   1.908   2.644  1.1361 -0.4524 -0.6954
 3315TIP3   OH231503   0.415   2.067   1.131 -0.4468  0.2028  0.2535
 3315TIP3    H131504   0.451   2.155   1.115 -1.0617  0.7794  1.8050
 3315TIP3    H231505   0.486   2.007   1.106  0.0845  1.1430 -0.5722
 3316TIP3   OH231506   6.468   1.751   8.710 -0.0980 -0.1725 -0.3952
 3316TIP3    H131507   6.535   1.685   8.728 -1.2168 -1.4730 -0.8305
 3316TIP3    H231508   6.517   1.832   8.699  1.3361 -0.9476 -0.0006
 3317TIP3   OH231509   1.049   2.659   7.643  0.0429 -0.0350  0.3962
 3317TIP3    H131510   1.029   2.752   7.656 -0.2454 -0.0873  0.3300
 3317TIP3    H231511   1.034   2.644   7.549 -0.7543 -0.3513  0.5675
 3318TIP3   OH231512   5.004   2.820   2.614 -0.2395  0.3628 -0.2587
 3318TIP3    H131513   5.040   2.751   2.558  0.3465  1.1312 -0.8297
 3318TIP3    H231514   4.913   2.793   2.628 -0.3348  0.0374 -1.3870
 3319TIP3   OH231515   2.303   6.686   1.182 -0.3321 -0.2457 -0.0851
 3319TIP3    H131516   2.255   6.693   1.099 -0.6953 -0.7738  0.0733
 3319TIP3    H231517   2.372   6.751   1.175 -0.3034 -0.3453 -0.8418
 3320TIP3   OH231518   3.751   2.727   0.337  0.7019  0.3828 -0.3206
 3320TIP3    H131519   3.807   2.668   0.287  1.6740  2.0115 -1.2305
 3320TIP3    H231520   3.663   2.688   0.329  1.4151 -1.3410 -0.2032
 3321TIP3   OH231521   0.825   1.544   0.073  0.3648  0.5687  0.0872
 3321TIP3    H131522   0.861   1.464   0.111  2.0412  0.8592 -0.7869
 3321TIP3    H231523   0.875   1.615   0.113  1.0643  0.9685 -1.4315
 3322TIP3   OH231524   3.800   2.097   0.333  0.0302 -0.1290 -0.3946
 3322TIP3    H131525   3.731   2.050   0.285 -0.6739 -0.0208  0.4838
 3322TIP3    H231526   3.760   2.180   0.357  0.2410 -0.3199  0.6735
 3323TIP3   OH231527   0.177   6.372   0.419 -0.2409  0.0538 -0.6471
 3323TIP3    H131528   0.244   6.434   0.448 -1.3643  1.1469 -0.3219
 3323TIP3    H231529   0.215   6.286   0.438  0.3600  0.6625  1.1954
 3324TIP3   OH231530   2.011   5.122   8.486 -0.2702  0.6067 -0.3217
 3324TIP3    H131531   2.072   5.121   8.413 -0.3227 -0.5164 -0.3749
 3324TIP3    H231532   1.975   5.210   8.487  0.6618  1.0036 -0.8620
 3325TIP3   OH231533   1.112   4.397   1.234  0.1993 -0.1971  0.2272
 3325TIP3    H131534   1.128   4.312   1.193 -3.0742 -1.5477  1.4293
 3325TIP3    H231535   1.114   4.380   1.328 -1.1092  0.8696  0.4913
 3326TIP3   OH231536   4.698   2.229   2.362 -0.5649  0.3377 -0.1471
 3326TIP3    H131537   4.629   2.163   2.365  0.4273 -0.6779  2.1962
 3326TIP3    H231538   4.766   2.196   2.419  1.4469  1.8371 -1.5226
 3327TIP3   OH231539   0.939   0.780   8.719 -0.8646  0.4720  0.1963
 3327TIP3    H131540   0.922   0.861   8.768 -2.6281 -0.2273  0.8166
 3327TIP3    H231541   0.982   0.722   8.782 -1.8809  0.0587  0.5228
 3328TIP3   OH231542   1.202   5.044   2.228  0.0730 -0.3060  0.3531
 3328TIP3    H131543   1.184   5.070   2.137 -0.8196  0.2755  0.6876
 3328TIP3    H231544   1.195   4.948   2.227 -1.2824 -0.2136  0.0816
 3329TIP3   OH231545   0.206   6.372   1.603  0.4274 -0.1618  0.4650
 3329TIP3    H131546   0.210   6.284   1.565 -1.9587 -0.2179  0.1690
 3329TIP3    H231547   0.166   6.359   1.689  0.4475  0.5941  0.5896
 3330TIP3   OH231548   3.064   5.195   8.649 -0.6128  0.6555  0.1284
 3330TIP3    H131549   3.054   5.243   8.732 -0.0275 -0.4723  0.8830
 3330TIP3    H231550   2.991   5.225   8.595 -1.2372  1.1324  1.2028
 3331TIP3   OH231551   5.882   4.897   2.933 -0.0864 -0.0563  0.2654
 3331TIP3    H131552   5.829   4.922   3.008 -0.1451  0.0839  0.1771
 3331TIP3    H231553   5.895   4.978   2.884 -1.6405 -0.4646 -0.8999
 3332TIP3   OH231554   5.322   3.145   8.167  0.0018 -0.4725  0.0818
 3332TIP3    H131555   5.327   3.179   8.078 -0.0705 -1.0135 -0.1321
 3332TIP3    H231556   5.263   3.069   8.161 -1.1603  0.3300  0.8550
 3333TIP3   OH231557   1.641   4.582   1.181  0.5925  0.3135 -0.1970
 3333TIP3    H131558   1.557   4.607   1.142  0.2241  2.9064  1.9438
 3333TIP3    H231559   1.618   4.533   1.260  0.9401  2.1740  1.1316
 3334TIP3   OH231560   1.296   3.615   1.066 -0.0828  0.2483  0.3190
 3334TIP3    H131561   1.362   3.548   1.053 -0.5153  0.0058 -0.7302
 3334TIP3    H231562   1.245   3.615   0.985 -0.3012  1.6064  0.4341
 3335TIP3   OH231563   2.493   4.972   0.525 -0.2059 -0.7333 -0.0396
 3335TIP3    H131564   2.443   4.890   0.531  0.6834 -1.2558  0.3921
 3335TIP3    H231565   2.458   5.026   0.597 -2.2063  0.0971 -1.5411
 3336TIP3   OH231566   1.197   2.381   0.508 -0.6671 -0.0140  0.2337
 3336TIP3    H131567   1.193   2.289   0.481  1.9163 -0.1856  0.1802
 3336TIP3    H231568   1.155   2.382   0.595  0.7758 -1.6164  1.0034
 3337TIP3   OH231569   0.295   6.405   0.840  0.4401 -0.1777  0.4998
 3337TIP3    H131570   0.368   6.420   0.900 -0.5184  0.9856  1.4159
 3337TIP3    H231571   0.332   6.417   0.753  0.9853  2.1748  0.9993
 3338TIP3   OH231572   3.135   0.121   8.711  0.0855  0.4736 -1.3909
 3338TIP3    H131573   3.153   0.035   8.673  0.8906  0.3620 -0.7817
 3338TIP3    H231574   3.049   0.112   8.753  0.8632 -0.5326  0.0752
 3339TIP3   OH231575   2.356   0.094   7.059 -0.4356  0.1786  0.0429
 3339TIP3    H131576   2.430   0.144   7.095 -0.2263 -0.8370  1.0948
 3339TIP3    H231577   2.397   0.019   7.016 -0.7729  0.5878 -1.0001
 3340TIP3   OH231578   3.403   3.868   8.619  0.0361 -0.1002  0.1475
 3340TIP3    H131579   3.389   3.777   8.592  0.2621 -0.2219  0.4297
 3340TIP3    H231580   3.341   3.882   8.690  0.2113 -0.1332  0.3107
 3341TIP3   OH231581   4.356   1.733   2.410  0.0276  0.2222  0.0133
 3341TIP3    H131582   4.446   1.720   2.379 -0.3470  0.5052 -1.2888
 3341TIP3    H231583   4.357   1.818   2.454  0.4117  0.2033  0.0379
 3342TIP3   OH231584   4.847   6.665   0.094  0.0076  0.1303  0.1718
 3342TIP3    H131585   4.939   6.679   0.115 -0.2620  1.7896  0.4491
 3342TIP3    H231586   4.826   6.579   0.128  1.9309 -1.1444 -1.6188
 3343TIP3   OH231587   1.024   2.946   0.114  0.4884  0.4154  0.1972
 3343TIP3    H131588   1.005   2.918   0.024  1.0008  0.5223  0.0480
 3343TIP3    H231589   0.939   2.957   0.155  0.1984 -2.5461  0.6481
 3344TIP3   OH231590   0.401   6.191   8.376 -0.0059 -0.1925 -0.0702
 3344TIP3    H131591   0.442   6.225   8.297 -0.1430 -1.3444 -0.6549
 3344TIP3    H231592   0.364   6.268   8.419 -0.1844  0.4133 -1.2748
 3345TIP3   OH231593   1.490   1.391   0.835 -0.4361 -0.7833  0.3736
 3345TIP3    H131594   1.434   1.429   0.902 -0.2518 -0.9543  0.6237
 3345TIP3    H231595   1.547   1.463   0.808 -1.4209 -0.3360 -0.5796
 3346TIP3   OH231596   3.489   2.558   2.548  0.1821  0.2841 -0.1362
 3346TIP3    H131597   3.454   2.470   2.559  0.1819  0.5804  4.2590
 3346TIP3    H231598   3.577   2.554   2.587  0.7370  1.9246 -1.1203
 3347TIP3   OH231599   1.317   5.615   8.238  0.0713  0.1610  0.0282
 3347TIP3    H131600   1.307   5.591   8.146 -0.0031 -2.0649  0.5457
 3347TIP3    H231601   1.362   5.539   8.277 -0.2045  0.9041  1.8871
 3348TIP3   OH231602   4.291   2.356   2.386  0.6481 -0.1838 -0.1135
 3348TIP3    H131603   4.360   2.385   2.445  0.6529 -0.3787 -0.0228
 3348TIP3    H231604   4.312   2.398   2.302  0.8506 -0.2034 -0.0732
 3349TIP3   OH231605   1.733   4.911   8.891 -0.3306  0.0456  0.0245
 3349TIP3    H131606   1.719   4.987   8.947 -1.9442 -0.3586  0.2170
 3349TIP3    H231607   1.645   4.879   8.871  0.3075 -2.8416  1.3758
 3350TIP3   OH231608   3.074   4.019   1.436 -0.0822 -0.0726 -0.0047
 3350TIP3    H131609   3.169   4.010   1.448  0.1562  2.3461  0.3270
 3350TIP3    H231610   3.058   4.113   1.444 -2.5099 -0.4300 -0.1802
 3351TIP3   OH231611   5.127   0.018   2.093  0.6404 -0.0166 -0.1789
 3351TIP3    H131612   5.101  -0.062   2.047  0.1599  0.8658 -1.5226
 3351TIP3    H231613   5.153  -0.012   2.180  0.2722 -1.6020 -0.5695
 3352TIP3   OH231614   2.643   2.324   8.281 -0.3776  0.2404 -0.4590
 3352TIP3    H131615   2.716   2.386   8.273 -0.7485  0.3816 -4.9301
 3352TIP3    H231616   2.685   2.238   8.289  0.1618  0.6178  1.1580
 3353TIP3   OH231617   6.655   5.265   2.355  0.0603  0.1648  0.6005
 3353TIP3    H131618   6.706   5.191   2.387  1.5519  1.3158  1.0172
 3353TIP3    H231619   6.664   5.261   2.259 -2.5443 -1.9745  0.3182
 3354TIP3   OH231620   0.822   0.298   2.952 -0.5895  0.0138  0.0783
 3354TIP3    H131621   0.765   0.364   2.991 -1.5638 -0.5136 -0.4254
 3354TIP3    H231622   0.805   0.218   3.002 -0.8464 -0.3275 -0.5400
 3355TIP3   OH231623   5.277   1.037   8.113  0.2311 -0.3584  0.0193
 3355TIP3    H131624   5.301   0.953   8.075  0.2402  0.0455 -0.9129
 3355TIP3    H231625   5.347   1.056   8.175 -0.2222 -1.4304  0.8845
 3356TIP3   OH231626   0.168   2.405   0.633 -0.3231 -0.2935  0.1558
 3356TIP3    H131627   0.210   2.419   0.717 -0.2573  0.7052 -0.0337
 3356TIP3    H231628   0.120   2.486   0.616  1.1481  0.2956 -1.6109
 3357TIP3   OH231629   4.955   3.834   1.844  0.3522  0.1787 -0.5385
 3357TIP3    H131630   4.900   3.820   1.921  0.6105  0.3215 -0.3239
 3357TIP3    H231631   5.037   3.788   1.865  0.5641  0.5402 -0.5693
 3358TIP3   OH231632   0.896   6.434   0.180  0.0862  0.1767 -0.5500
 3358TIP3    H131633   0.977   6.406   0.221 -0.3476  0.7442  0.7311
 3358TIP3    H231634   0.840   6.356   0.181  0.3494 -0.0171 -0.7830
 3359TIP3   OH231635   4.697   4.158   0.243  0.2161  0.4936  0.3410
 3359TIP3    H131636   4.642   4.173   0.166 -0.3207 -1.6166  0.2385
 3359TIP3    H231637   4.685   4.236   0.297 -0.2356  1.5455 -1.2092
 3360TIP3   OH231638   0.392   2.574   2.672  0.5030  0.1298 -0.4375
 3360TIP3    H131639   0.296   2.568   2.677  0.3584  0.7181 -1.8615
 3360TIP3    H231640   0.410   2.576   2.578  1.8376  1.0903 -0.1860
 3361TIP3   OH231641   3.541   1.810   2.331 -0.4856  0.6191  0.3115
 3361TIP3    H131642   3.494   1.826   2.413  0.2549 -0.6295  1.0174
 3361TIP3    H231643   3.631   1.793   2.358 -0.4500 -0.9333 -0.6186
 3362TIP3   OH231644   5.471   4.487   0.668  0.4110  0.5806  0.2978
 3362TIP3    H131645   5.489   4.476   0.575  0.8356 -1.6775  0.5896
 3362TIP3    H231646   5.548   4.450   0.712  0.2880  1.7332  1.5736
 3363TIP3   OH231647   1.630   4.706   8.441  0.3391 -0.5301  0.5309
 3363TIP3    H131648   1.605   4.657   8.520 -1.0040  1.3795  1.3808
 3363TIP3    H231649   1.705   4.759   8.470 -0.3954  0.4568  0.6737
 3364TIP3   OH231650   5.781   5.367   8.560  0.2891 -0.3483  0.2789
 3364TIP3    H131651   5.835   5.302   8.605  2.7932  0.4904 -1.2668
 3364TIP3    H231652   5.821   5.451   8.583 -0.5556  0.3486 -0.6874
 3365TIP3   OH231653   3.731   6.096   2.963  0.1668  1.3203  0.0702
 3365TIP3    H131654   3.797   6.132   3.022  0.3018 -1.0133  1.4327
 3365TIP3    H231655   3.650   6.097   3.013  0.2922 -0.7416  0.3923
 3366TIP3   OH231656   0.223   5.505   8.867 -0.0167 -0.2454 -0.4118
 3366TIP3    H131657   0.199   5.588   8.909 -2.0119 -0.8859 -0.1955
 3366TIP3    H231658   0.174   5.505   8.785 -1.1028 -1.7811  0.2094
 3367TIP3   OH231659   5.032   5.095   8.671 -0.0222 -0.4688  0.3350
 3367TIP3    H131660   4.946   5.053   8.663  0.1196 -0.9266  1.0710
 3367TIP3    H231661   5.056   5.119   8.582  0.2652 -2.7058 -0.2351
 3368TIP3   OH231662   3.824   6.569   7.475  0.6227  0.1944 -0.4488
 3368TIP3    H131663   3.886   6.500   7.453 -0.0066 -0.2325 -0.9181
 3368TIP3    H231664   3.879   6.645   7.496  1.3490 -0.6340  0.7882
 3369TIP3   OH231665   0.200   0.192   2.825 -0.3099  0.2609 -0.0624
 3369TIP3    H131666   0.154   0.112   2.852 -0.5272  0.6046  0.5974
 3369TIP3    H231667   0.293   0.168   2.827 -0.4340 -0.3364 -1.0692
 3370TIP3   OH231668   5.734   4.839   1.279 -0.0397  0.4795  0.7437
 3370TIP3    H131669   5.676   4.766   1.256  2.2148 -1.4635  0.9340
 3370TIP3    H231670   5.726   4.899   1.204 -1.6662 -0.0860  0.4044
 3371TIP3   OH231671   6.321   5.488   0.756  0.4001  0.3885  0.7672
 3371TIP3    H131672   6.328   5.397   0.785  1.2578  0.4542  0.8112
 3371TIP3    H231673   6.268   5.485   0.677  2.5271 -0.5045 -0.7113
 3372TIP3   OH231674   6.144   2.786   1.919 -0.1711 -0.1899  0.4807
 3372TIP3    H131675   6.135   2.691   1.918 -0.7648 -0.1540  1.3517
 3372TIP3    H231676   6.232   2.803   1.886  0.2887 -1.0907  1.2219
 3373TIP3   OH231677   6.082   5.066   1.810 -0.8617  0.2455 -0.0879
 3373TIP3    H131678   6.134   5.041   1.887  1.2562  1.3712 -1.0647
 3373TIP3    H231679   6.040   4.985   1.782 -1.6658 -0.1998  2.1956
 3374TIP3   OH231680   4.360   4.498   8.499 -0.3901 -0.4721  0.4385
 3374TIP3    H131681   4.318   4.559   8.560 -1.7605  0.7342 -1.6019
 3374TIP3    H231682   4.313   4.510   8.417  0.6155 -2.8909 -0.5806
 3375TIP3   OH231683   0.677   2.464   2.214  0.2341 -0.7209  0.1040
 3375TIP3    H131684   0.662   2.370   2.212 -0.1113 -0.6925  1.1704
 3375TIP3    H231685   0.764   2.475   2.176  0.7697 -1.5790  1.0459
 3376TIP3   OH231686   3.290   0.485   8.197 -0.1982  0.0619 -0.3563
 3376TIP3    H131687   3.304   0.445   8.283  1.4824 -1.0543 -1.0935
 3376TIP3    H231688   3.377   0.512   8.169 -0.8056  0.9667 -1.4701
 3377TIP3   OH231689   3.256   5.600   0.164 -0.3879 -0.0432  0.6759
 3377TIP3    H131690   3.308   5.663   0.215 -0.1520  0.1035  0.2559
 3377TIP3    H231691   3.291   5.515   0.189  0.9258  0.1076 -0.5342
 3378TIP3   OH231692   6.106   5.322   1.723 -0.4894  0.0758  0.5991
 3378TIP3    H131693   6.087   5.228   1.728 -0.7346  0.1537  1.1403
 3378TIP3    H231694   6.131   5.346   1.812 -0.5775  0.5561  0.4935
 3379TIP3   OH231695   3.551   0.369   1.665  0.1917  0.0459  0.2150
 3379TIP3    H131696   3.465   0.359   1.625 -0.3813 -2.0653  1.7831
 3379TIP3    H231697   3.537   0.430   1.737 -0.0032 -0.3249  0.4919
 3380TIP3   OH231698   0.216   3.592   0.466  0.0420  0.5716  0.4317
 3380TIP3    H131699   0.183   3.533   0.534  1.6764 -1.0113 -0.0894
 3380TIP3    H231700   0.311   3.589   0.475  0.2025  2.5455 -0.1381
 3381TIP3   OH231701   0.467   0.242   1.780 -0.0133  0.6980  0.3747
 3381TIP3    H131702   0.406   0.286   1.840  1.4552  1.8120  1.1322
 3381TIP3    H231703   0.420   0.237   1.697 -0.7178  2.6229  0.5981
 3382TIP3   OH231704   4.989   2.999   2.271 -0.2392  0.4059  1.0797
 3382TIP3    H131705   4.917   3.013   2.209 -1.1930 -2.6365  1.3119
 3382TIP3    H231706   4.946   2.962   2.349  1.5849 -3.3392  0.5320
 3383TIP3   OH231707   5.963   5.984   1.098  0.3681 -0.4319  0.2122
 3383TIP3    H131708   5.989   5.945   1.181  1.0270 -0.3490  0.0497
 3383TIP3    H231709   5.875   6.018   1.114  0.6292 -0.0946  0.9776
 3384TIP3   OH231710   2.484   0.203   8.636  0.0277  0.4968  0.0470
 3384TIP3    H131711   2.420   0.148   8.590 -0.0885 -0.4709  1.2847
 3384TIP3    H231712   2.511   0.269   8.572 -1.8093  0.6027 -0.6829
 3385TIP3   OH231713   3.762   0.758   3.166 -0.3228 -0.1307 -0.6617
 3385TIP3    H131714   3.822   0.694   3.205 -0.1055 -0.0336 -0.8348
 3385TIP3    H231715   3.675   0.719   3.177 -0.1310 -0.7971 -1.4226
 3386TIP3   OH231716   1.366   3.433   2.684  0.2744 -0.1807  0.5522
 3386TIP3    H131717   1.364   3.512   2.630 -0.3798 -0.5032  0.1009
 3386TIP3    H231718   1.378   3.465   2.773 -1.9628  0.5698  0.6362
 3387TIP3   OH231719   5.202   2.842   8.634  0.1267 -0.4505  1.0112
 3387TIP3    H131720   5.201   2.842   8.729 -2.1787  2.0924  1.0944
 3387TIP3    H231721   5.293   2.860   8.611  0.5673 -0.3184  2.7405
 3388TIP3   OH231722   3.501   2.130   0.948 -0.3491 -0.2673  0.3864
 3388TIP3    H131723   3.441   2.176   1.007  0.7108  0.0772  1.2338
 3388TIP3    H231724   3.588   2.149   0.983  0.2922 -0.3407 -1.1169
 3389TIP3   OH231725   1.522   4.205   0.457  0.5795 -0.0579 -0.7127
 3389TIP3    H131726   1.515   4.135   0.523  0.0583 -2.4004 -3.0981
 3389TIP3    H231727   1.585   4.266   0.495  0.5660 -1.4380  1.8025
 3390TIP3   OH231728   2.711   4.354   8.209  0.0172 -0.7313  0.0849
 3390TIP3    H131729   2.750   4.441   8.203  0.0662 -0.8229 -1.2273
 3390TIP3    H231730   2.710   4.322   8.119 -0.5521 -1.8497  0.4697
 3391TIP3   OH231731   0.858   6.323   1.253 -0.4052 -0.0139  0.3965
 3391TIP3    H131732   0.882   6.415   1.261  0.6065 -0.2727  0.5104
 3391TIP3    H231733   0.805   6.305   1.332  1.0794 -0.0191  1.4365
 3392TIP3   OH231734   1.897   4.607   3.572  0.2875  0.1066 -0.1383
 3392TIP3    H131735   1.839   4.581   3.644  1.4408 -0.2584  0.6992
 3392TIP3    H231736   1.850   4.677   3.527 -0.9650 -0.4405  0.2703
 3393TIP3   OH231737   6.313   0.164   8.577  0.3359  0.2478  0.2487
 3393TIP3    H131738   6.274   0.119   8.652 -0.2455  1.3845  0.6524
 3393TIP3    H231739   6.240   0.175   8.516  0.2347  1.4609  0.5632
 3394TIP3   OH231740   1.169   3.210   2.038  1.0163  0.2386 -0.5591
 3394TIP3    H131741   1.106   3.262   1.987  2.6863 -0.5519 -3.6664
 3394TIP3    H231742   1.137   3.120   2.029  1.1742  0.1104  0.1157
 3395TIP3   OH231743   1.711   2.433   8.615  0.2538 -0.0829  0.0422
 3395TIP3    H131744   1.619   2.449   8.639 -0.0742 -1.1605 -0.4388
 3395TIP3    H231745   1.714   2.450   8.521  0.2378 -1.3117 -0.1908
 3396TIP3   OH231746   2.550   2.148   0.005 -0.2742  0.0467  0.1854
 3396TIP3    H131747   2.543   2.117  -0.085  0.9867  0.3228 -0.0313
 3396TIP3    H231748   2.627   2.102   0.040 -0.4788  0.2860  0.9753
 3397TIP3   OH231749   4.250   1.047   1.256  0.0796  0.4207 -0.2808
 3397TIP3    H131750   4.219   1.055   1.165  0.9498  1.0813 -0.5296
 3397TIP3    H231751   4.216   0.963   1.285 -0.6433  0.4279 -1.0516
 3398TIP3   OH231752   0.953   2.914   7.636  0.5948 -0.4090  0.1991
 3398TIP3    H131753   0.878   2.932   7.694  0.5614  0.1030  0.0059
 3398TIP3    H231754   0.966   2.996   7.589  0.6216 -0.8230 -0.5225
 3399TIP3   OH231755   6.676   4.347   8.045  0.0517  0.5732  0.4944
 3399TIP3    H131756   6.749   4.294   8.014 -0.4246 -1.0851  2.0517
 3399TIP3    H231757   6.695   4.362   8.138 -1.4252  0.3528  0.8577
 3400TIP3   OH231758   1.729   1.334   3.169 -0.2490  0.2945  0.3443
 3400TIP3    H131759   1.737   1.247   3.207  0.9703  0.0686 -0.3449
 3400TIP3    H231760   1.655   1.374   3.214 -2.0535 -1.7538 -0.6281
 3401TIP3   OH231761   5.439   2.341   7.812 -0.2156  0.4241  0.5778
 3401TIP3    H131762   5.508   2.303   7.757  0.5835  1.7777  0.5943
 3401TIP3    H231763   5.358   2.325   7.763  0.1981 -0.4741  0.1621
 3402TIP3   OH231764   2.596   6.141   8.031 -0.2024  0.5811  0.2422
 3402TIP3    H131765   2.587   6.119   7.939  1.2028  0.0139  0.2180
 3402TIP3    H231766   2.569   6.062   8.078  2.0470 -0.2657  0.2169
 3403TIP3   OH231767   1.329   1.369   1.396 -0.0643 -0.5952  0.0435
 3403TIP3    H131768   1.417   1.335   1.411 -0.3123 -0.8160  1.0682
 3403TIP3    H231769   1.340   1.464   1.399  0.6310 -0.4877 -2.8521
 3404TIP3   OH231770   0.275   5.671   0.845  0.1813  0.5695 -0.2242
 3404TIP3    H131771   0.279   5.577   0.857  1.7818  0.5184 -0.8228
 3404TIP3    H231772   0.259   5.683   0.752  1.6793  0.8507 -0.4701
 3405TIP3   OH231773   6.430   4.383   8.141 -0.4034  0.1800  0.1605
 3405TIP3    H131774   6.516   4.376   8.100 -1.1889 -0.3411 -1.4767
 3405TIP3    H231775   6.448   4.393   8.235  1.3623 -2.9369  0.2511
 3406TIP3   OH231776   1.346   3.299   1.842 -0.5815  0.0324  0.4266
 3406TIP3    H131777   1.324   3.245   1.766 -0.1864  1.4611 -0.7365
 3406TIP3    H231778   1.288   3.266   1.911 -1.2358 -1.0387 -0.5745
 3407TIP3   OH231779   3.043   1.177   7.691  0.1230 -0.1357 -0.0939
 3407TIP3    H131780   2.950   1.199   7.699  0.0881  0.2063 -1.2515
 3407TIP3    H231781   3.088   1.261   7.705  0.0933  0.3183 -2.3352
 3408TIP3   OH231782   3.864   3.316   1.929  0.5303  0.1631  0.2931
 3408TIP3    H131783   3.813   3.303   2.009 -0.3175  0.6101 -0.1575
 3408TIP3    H231784   3.852   3.235   1.879 -0.5311  0.6200 -0.2270
 3409TIP3   OH231785   3.458   2.834   8.427 -0.5280  0.6597 -0.0391
 3409TIP3    H131786   3.388   2.898   8.413 -1.0118  0.0399 -0.4976
 3409TIP3    H231787   3.486   2.849   8.518 -0.1854  1.9495 -0.3328
 3410TIP3   OH231788   1.553   2.113   2.716 -0.3399 -0.0633  0.5869
 3410TIP3    H131789   1.495   2.046   2.681 -0.1420  1.0903 -2.2722
 3410TIP3    H231790   1.506   2.195   2.703  0.1710  0.5500  2.3198
 3411TIP3   OH231791   0.224   4.301   8.792  0.3620  0.1306  0.0017
 3411TIP3    H131792   0.259   4.263   8.872  0.2286 -0.5232 -0.2403
 3411TIP3    H231793   0.133   4.320   8.812 -0.2094 -1.7990 -0.5552
 3412TIP3   OH231794   1.498   2.735   0.268 -0.6524  0.0054  0.2422
 3412TIP3    H131795   1.500   2.813   0.323  0.1349 -0.7190  1.2753
 3412TIP3    H231796   1.553   2.672   0.314 -0.0529 -0.6628 -1.3385
 3413TIP3   OH231797   5.114   4.278   0.196 -0.2216  0.4192  0.6269
 3413TIP3    H131798   5.139   4.224   0.271 -1.4965  0.4134  1.0661
 3413TIP3    H231799   5.195   4.286   0.144  0.3961 -0.5028  1.4169
 3414TIP3   OH231800   3.509   0.205   0.216  0.0345 -0.0161  0.1734
 3414TIP3    H131801   3.545   0.131   0.166 -0.3311 -0.6798  0.8764
 3414TIP3    H231802   3.417   0.208   0.190 -0.0004  0.0587  0.3049
 3415TIP3   OH231803   6.497   2.332   8.542 -0.5421  0.3271 -0.7066
 3415TIP3    H131804   6.555   2.363   8.473  1.5294 -1.9497 -0.1540
 3415TIP3    H231805   6.425   2.289   8.496  0.8708 -1.2708 -1.5651
 3416TIP3   OH231806   2.642   0.568   0.410  0.5240 -0.2157 -1.0655
 3416TIP3    H131807   2.663   0.650   0.454  0.3611 -0.4470 -0.5508
 3416TIP3    H231808   2.563   0.588   0.359  0.4724 -0.0587 -0.9236
 3417TIP3   OH231809   3.175   1.607   0.479  0.1770  0.3976 -0.5816
 3417TIP3    H131810   3.208   1.608   0.569  0.1979 -1.9568 -0.5038
 3417TIP3    H231811   3.250   1.579   0.426 -0.6879 -1.6722 -0.8238
 3418TIP3   OH231812   5.514   5.658   2.876  0.6746 -0.4653  0.4263
 3418TIP3    H131813   5.585   5.708   2.835 -0.1884 -1.6016 -2.7626
 3418TIP3    H231814   5.491   5.592   2.811 -1.0574 -2.3286  2.7565
 3419TIP3   OH231815   6.090   5.076   2.801 -0.0253 -0.2494  0.2025
 3419TIP3    H131816   6.166   5.098   2.747 -0.4770  0.0189 -0.3290
 3419TIP3    H231817   6.084   4.981   2.797  0.3917 -0.2877  0.4030
 3420TIP3   OH231818   0.463   1.038   8.475  0.0551 -0.0571 -0.5023
 3420TIP3    H131819   0.457   0.943   8.466  0.9673 -0.1448 -0.2555
 3420TIP3    H231820   0.523   1.052   8.548  0.8589  0.7101 -1.2794
 3421TIP3   OH231821   3.517   4.855   0.155 -0.0640  0.0873  0.1626
 3421TIP3    H131822   3.498   4.849   0.249  0.2099 -1.0878  0.1487
 3421TIP3    H231823   3.522   4.950   0.138 -4.3755  0.5720  0.4612
 3422TIP3   OH231824   5.948   1.327   0.351  0.3954  0.1983 -0.0446
 3422TIP3    H131825   5.967   1.392   0.419  0.0033 -0.5525  0.7990
 3422TIP3    H231826   6.008   1.255   0.369 -0.7983 -0.6848  0.4906
 3423TIP3   OH231827   5.268   1.779   1.553  0.6954  0.3523 -0.3567
 3423TIP3    H131828   5.293   1.802   1.642  0.2835  0.6184 -0.3018
 3423TIP3    H231829   5.202   1.710   1.563 -0.6252  1.5526 -0.3601
 3424TIP3   OH231830   3.953   6.107   0.143  0.3095 -0.4299  0.0311
 3424TIP3    H131831   3.872   6.106   0.092  1.2239  1.7678 -1.6051
 3424TIP3    H231832   4.023   6.104   0.078  1.6009 -1.6068  1.3768
 3425TIP3   OH231833   5.792   0.106   1.188 -0.3612  0.2200 -0.8124
 3425TIP3    H131834   5.713   0.104   1.134  1.1886  0.7878 -3.2387
 3425TIP3    H231835   5.824   0.196   1.182  0.6855 -0.0850 -0.2069
 3426TIP3   OH231836   1.500   5.195   1.202 -0.3566  0.1732  0.0619
 3426TIP3    H131837   1.503   5.150   1.117  0.5037 -0.6394  0.5138
 3426TIP3    H231838   1.472   5.284   1.180  0.0768  0.0393 -1.1042
 3427TIP3   OH231839   3.037   2.622   0.718  0.1708  0.1489  0.1533
 3427TIP3    H131840   3.131   2.605   0.724  0.7117  2.9507  1.4353
 3427TIP3    H231841   3.000   2.582   0.796  0.3686 -0.5791 -0.1242
 3428TIP3   OH231842   5.186   1.849   2.747 -0.1989 -0.2279 -0.4084
 3428TIP3    H131843   5.132   1.918   2.709 -0.3754 -0.9808 -1.5867
 3428TIP3    H231844   5.199   1.875   2.839 -1.3268  0.6964 -0.5000
 3429TIP3   OH231845   6.219   4.446   1.153 -0.3582  0.2162 -0.0482
 3429TIP3    H131846   6.198   4.467   1.243  1.0742 -1.0485  0.6378
 3429TIP3    H231847   6.275   4.518   1.124 -1.1132  0.8063 -0.0678
 3430TIP3   OH231848   3.815   3.386   2.355  0.4710  0.3602  0.5907
 3430TIP3    H131849   3.873   3.348   2.420  0.5899 -1.0949 -0.3104
 3430TIP3    H231850   3.814   3.479   2.374 -0.9555 -0.2022  3.8136
 3431TIP3   OH231851   6.311   0.322   7.618 -0.4654  0.2100 -0.3516
 3431TIP3    H131852   6.265   0.241   7.598 -0.5516  0.2235 -0.2074
 3431TIP3    H231853   6.396   0.294   7.652  0.5663  0.1827 -2.7226
 3432TIP3   OH231854   6.662   6.685   0.246  0.4975 -0.0904  0.5488
 3432TIP3    H131855   6.672   6.690   0.341  1.7447  2.4991  0.3616
 3432TIP3    H231856   6.573   6.717   0.230  0.5482  0.1628  0.7789
 3433TIP3   OH231857   3.658   6.501   2.663 -0.0609 -0.0456 -0.0432
 3433TIP3    H131858   3.672   6.593   2.685  1.1107  0.2554 -1.8585
 3433TIP3    H231859   3.566   6.495   2.639 -0.2929  0.5042  0.6798
 3434TIP3   OH231860   3.630   3.225   1.620  0.3415 -0.0021 -0.5592
 3434TIP3    H131861   3.678   3.159   1.670  0.7394 -0.0487 -1.0006
 3434TIP3    H231862   3.578   3.271   1.686  0.5356 -0.3424 -0.1614
 3435TIP3   OH231863   3.264   0.866   1.053  0.2409  0.3578 -0.5068
 3435TIP3    H131864   3.287   0.810   1.127  1.2089  1.0993 -0.2336
 3435TIP3    H231865   3.178   0.834   1.026 -0.0915  0.0002  0.8697
 3436TIP3   OH231866   3.100   5.632   8.768  0.2766  0.0460  0.2271
 3436TIP3    H131867   3.195   5.631   8.773  0.4750  1.2035 -2.0428
 3436TIP3    H231868   3.080   5.575   8.694 -0.6630  1.1308 -0.3858
 3437TIP3   OH231869   5.548   4.440   0.427 -0.1124  0.0854  0.1336
 3437TIP3    H131870   5.562   4.522   0.380 -2.0037  0.6088  0.4293
 3437TIP3    H231871   5.558   4.372   0.360 -0.8660  0.7028 -0.6218
 3438TIP3   OH231872   5.428   6.266   1.937 -0.0673 -0.5648  0.2291
 3438TIP3    H131873   5.505   6.300   1.891  0.7909 -0.7096  1.4943
 3438TIP3    H231874   5.444   6.171   1.941  0.4492 -0.4434  1.7706
 3439TIP3   OH231875   2.219   6.386   2.711  0.2680  0.2468  0.0749
 3439TIP3    H131876   2.298   6.436   2.697 -0.5655  0.8863 -2.9065
 3439TIP3    H231877   2.196   6.402   2.803  1.8964  2.5181  0.1535
 3440TIP3   OH231878   6.239   6.363   7.695 -0.2577  0.2510  0.4054
 3440TIP3    H131879   6.214   6.306   7.622  0.4620 -0.5991  0.7995
 3440TIP3    H231880   6.198   6.447   7.675 -0.8249 -0.2274 -0.5111
 3441TIP3   OH231881   5.112   2.767   8.365  0.1618  0.3203  0.3198
 3441TIP3    H131882   5.111   2.791   8.457  0.3664  0.0234  0.4019
 3441TIP3    H231883   5.093   2.673   8.365  1.3268  0.0701  0.1391
 3442TIP3   OH231884   2.911   1.517   0.852  0.2284 -0.1221  0.4334
 3442TIP3    H131885   2.885   1.602   0.888 -0.9100  0.6308 -1.9747
 3442TIP3    H231886   3.003   1.528   0.828 -0.1218  0.7292 -0.5877
 3443TIP3   OH231887   3.779   4.069   8.620  0.3565  0.3074  0.5639
 3443TIP3    H131888   3.828   3.993   8.650  1.0066  0.4401 -0.1317
 3443TIP3    H231889   3.739   4.105   8.700 -0.1510 -0.8766  0.8688
 3444TIP3   OH231890   5.029   1.807   0.229 -0.1003 -0.6115 -0.2284
 3444TIP3    H131891   5.114   1.778   0.261 -0.6688 -1.4099  0.5871
 3444TIP3    H231892   4.966   1.753   0.275 -1.0984  0.5309 -0.2065
 3445TIP3   OH231893   3.713   4.179   2.755 -0.2164 -0.0491 -0.3170
 3445TIP3    H131894   3.630   4.136   2.736 -0.6910  0.4796  0.4844
 3445TIP3    H231895   3.764   4.114   2.803 -0.3536 -0.2237 -0.4093
 3446TIP3   OH231896   1.627   4.383   2.841  0.5941  0.4718 -0.0464
 3446TIP3    H131897   1.626   4.339   2.756  1.6165  0.2627  0.0457
 3446TIP3    H231898   1.705   4.438   2.839  1.1997 -0.3167  1.1479
 3447TIP3   OH231899   5.112   5.637   1.145 -0.6155 -0.4656  0.0513
 3447TIP3    H131900   5.149   5.722   1.168  1.3111 -1.6740  1.7287
 3447TIP3    H231901   5.099   5.592   1.229  0.0926 -2.4661 -0.8300
 3448TIP3   OH231902   3.256   6.665   1.047  0.6924  0.1324 -0.5081
 3448TIP3    H131903   3.215   6.752   1.041  2.4500  0.9503 -1.4208
 3448TIP3    H231904   3.210   6.622   1.118  0.4491  2.2183  0.6915
 3449TIP3   OH231905   3.201   6.216   2.568 -0.0954  0.4747 -0.1438
 3449TIP3    H131906   3.117   6.172   2.580  0.3197 -0.3237 -0.0956
 3449TIP3    H231907   3.257   6.180   2.637 -0.2618  2.4737  1.1232
 3450TIP3   OH231908   4.314   0.348   0.122  0.3397  0.0572 -0.8911
 3450TIP3    H131909   4.377   0.332   0.051  0.3560 -1.3219 -0.5832
 3450TIP3    H231910   4.305   0.264   0.166  1.7098  1.2765  1.9186
 3451TIP3   OH231911   0.480   1.423   2.317  0.0503  0.0315  0.1060
 3451TIP3    H131912   0.510   1.503   2.361 -0.8249  0.4852 -0.0913
 3451TIP3    H231913   0.499   1.353   2.379 -1.1539  0.6569  1.2282
 3452TIP3   OH231914   2.097   1.540   0.316 -0.2911 -0.0454  0.2065
 3452TIP3    H131915   2.192   1.531   0.305 -0.3923 -1.9084  0.6348
 3452TIP3    H231916   2.079   1.629   0.286  1.8421  1.0497  1.8397
 3453TIP3   OH231917   6.449   5.806   8.529  0.0084 -0.4008 -0.0608
 3453TIP3    H131918   6.524   5.749   8.549 -0.3015 -0.6713  0.3623
 3453TIP3    H231919   6.474   5.851   8.448  0.7025 -0.3531  0.1692
 3454TIP3   OH231920   1.072   1.824   8.990 -0.7216 -0.3477 -0.2804
 3454TIP3    H131921   1.057   1.768   9.066 -0.0009 -0.0466  0.0980
 3454TIP3    H231922   0.985   1.847   8.958 -1.0259 -0.5589  0.3972
 3455TIP3   OH231923   1.825   4.272   7.582 -0.0904  0.3846 -0.3266
 3455TIP3    H131924   1.752   4.247   7.639  0.6700 -0.1087  0.4433
 3455TIP3    H231925   1.886   4.198   7.587  0.8884  1.1781 -0.2306
 3456TIP3   OH231926   5.790   5.758   7.984 -0.4465 -0.2009 -0.0814
 3456TIP3    H131927   5.784   5.822   7.913  1.6903  0.4273  0.2384
 3456TIP3    H231928   5.797   5.673   7.940 -2.3759 -0.1877 -0.5186
 3457TIP3   OH231929   0.031   2.643   0.604 -0.6391  0.3438  0.5850
 3457TIP3    H131930   0.071   2.719   0.645 -2.3498  1.5157  0.1974
 3457TIP3    H231931  -0.030   2.680   0.540 -1.3153 -1.3606  0.1875
 3458TIP3   OH231932   3.259   6.169   1.572  0.1057 -0.2487  0.3851
 3458TIP3    H131933   3.324   6.100   1.558  0.0938 -0.5171  1.5536
 3458TIP3    H231934   3.301   6.230   1.633  0.3223  1.0996 -1.0466
 3459TIP3   OH231935   6.397   3.537   2.711  0.3655  0.0046  0.0557
 3459TIP3    H131936   6.396   3.442   2.711 -0.3473  0.0081  0.1630
 3459TIP3    H231937   6.408   3.561   2.803 -0.5559  0.0226  0.1730
 3460TIP3   OH231938   5.650   4.995   2.808 -0.5401  0.0025 -0.9734
 3460TIP3    H131939   5.555   5.004   2.821 -0.6716  0.2238 -1.9928
 3460TIP3    H231940   5.674   4.917   2.856 -0.9025  1.0014  0.9176
 3461TIP3   OH231941   1.225   3.110   1.649  0.0695  0.1448  0.2418
 3461TIP3    H131942   1.205   3.157   1.568 -1.5531  0.6949  0.9161
 3461TIP3    H231943   1.240   3.019   1.621 -0.5034  0.3195 -0.6793
 3462TIP3   OH231944   6.520   0.186   1.516  0.4687  0.1609  0.0254
 3462TIP3    H131945   6.534   0.276   1.487 -0.9389  0.4148  0.0927
 3462TIP3    H231946   6.460   0.193   1.590  1.3661 -0.7461  0.8709
 3463TIP3   OH231947   4.253   6.326   1.760  0.3402 -0.0024 -0.4438
 3463TIP3    H131948   4.206   6.401   1.798 -2.0751 -1.0386 -1.1959
 3463TIP3    H231949   4.293   6.361   1.681 -1.2351  0.4310 -1.0901
 3464TIP3   OH231950   1.495   0.080   1.401  0.8596 -0.1667 -0.0835
 3464TIP3    H131951   1.504   0.158   1.456 -0.3993 -0.1597  0.1593
 3464TIP3    H231952   1.477   0.115   1.313  2.0467 -0.1863 -0.3519
 3465TIP3   OH231953   0.094   6.539   0.950 -0.4369  0.2319  0.2831
 3465TIP3    H131954   0.065   6.452   0.977 -1.2404  1.2375  2.8937
 3465TIP3    H231955   0.164   6.522   0.887 -0.2276 -2.2941  1.0976
 3466TIP3   OH231956   6.064   3.444   0.737 -0.3809  0.4263 -0.1318
 3466TIP3    H131957   6.091   3.516   0.795 -1.8675 -1.0200  2.5039
 3466TIP3    H231958   6.121   3.371   0.761 -1.9339 -0.6053  0.6045
 3467TIP3   OH231959   1.273   6.064   2.539  0.3224 -0.2895 -0.1205
 3467TIP3    H131960   1.304   6.154   2.550  0.9573 -0.4835 -0.2615
 3467TIP3    H231961   1.251   6.058   2.446 -1.2228  0.1733  0.1934
 3468TIP3   OH231962   4.459   2.213   1.901  0.7205  0.9469  0.6289
 3468TIP3    H131963   4.489   2.296   1.939  1.3105  0.2858  1.6590
 3468TIP3    H231964   4.509   2.146   1.948  0.5110  0.0233 -0.4436
 3469TIP3   OH231965   4.287   0.703   2.476 -0.3872 -0.3247 -0.2238
 3469TIP3    H131966   4.363   0.698   2.417 -0.2560 -0.3104 -0.0577
 3469TIP3    H231967   4.324   0.734   2.559 -0.3878 -1.3920  0.1898
 3470TIP3   OH231968   1.800   0.467   1.255  0.7118 -0.8102  0.1971
 3470TIP3    H131969   1.705   0.476   1.255  0.7251 -0.2946 -1.5885
 3470TIP3    H231970   1.817   0.391   1.311 -0.9061 -2.1414 -1.0120
 3471TIP3   OH231971   3.975   4.363   2.811 -0.0781  0.2334 -0.3695
 3471TIP3    H131972   3.900   4.384   2.755 -0.2745  0.6344  0.0320
 3471TIP3    H231973   3.968   4.269   2.826 -2.1542  0.6330  1.9269
 3472TIP3   OH231974   6.356   1.930   2.400  0.2927  0.1550  0.3137
 3472TIP3    H131975   6.286   1.918   2.463 -1.0700  1.4720 -0.8741
 3472TIP3    H231976   6.337   1.868   2.329  1.0619 -0.3844  0.5680
 3473TIP3   OH231977   3.429   2.494   2.165 -0.0493 -0.7238  0.2481
 3473TIP3    H131978   3.443   2.427   2.232  1.5878 -1.3630 -0.6750
 3473TIP3    H231979   3.482   2.465   2.091 -0.4641  0.8517 -0.7114
 3474TIP3   OH231980   1.345   2.897   2.990 -0.0928 -0.7313 -0.3940
 3474TIP3    H131981   1.287   2.821   2.990  0.8201 -1.4610 -1.4567
 3474TIP3    H231982   1.373   2.906   3.081  2.5964 -3.9249 -0.7215
 3475TIP3   OH231983   0.649   6.612   2.418 -0.7545 -0.4351 -0.1512
 3475TIP3    H131984   0.685   6.581   2.335  0.5872  0.4863  0.0467
 3475TIP3    H231985   0.726   6.630   2.472 -1.5925 -0.4754  1.0964
 3476TIP3   OH231986   0.210   6.227   2.542  0.2007 -0.5885  0.6382
 3476TIP3    H131987   0.305   6.231   2.547  0.3527 -1.9326 -0.6117
 3476TIP3    H231988   0.181   6.236   2.633  1.5482 -0.9608  1.1285
 3477TIP3   OH231989   6.133   3.401   8.418  0.5184  0.3165  0.3843
 3477TIP3    H131990   6.062   3.392   8.481  0.4307  0.0138  0.2454
 3477TIP3    H231991   6.190   3.326   8.435 -0.1052 -0.4172 -0.6453
 3478TIP3   OH231992   5.982   1.386   1.445 -0.0858 -0.3097 -0.0932
 3478TIP3    H131993   5.966   1.461   1.503  1.7970  0.4496 -0.4691
 3478TIP3    H231994   6.018   1.319   1.503  1.4684  0.3259 -0.2892
 3479TIP3   OH231995   1.493   5.084   3.610  0.7470  0.5236  0.5354
 3479TIP3    H131996   1.587   5.079   3.626  0.5850 -0.0583  1.3676
 3479TIP3    H231997   1.463   5.159   3.662  0.9715  1.6708 -0.9280
 3480TIP3   OH231998   3.630   0.641   7.181 -0.2341  0.3858  0.0647
 3480TIP3    H131999   3.714   0.683   7.162  0.2688 -0.3068  0.7236
 3480TIP3    H232000   3.653   0.559   7.225 -1.2314 -0.1308 -0.3423
 3481TIP3   OH232001   0.079   3.493   0.234  0.0404 -0.4555 -0.6276
 3481TIP3    H132002   0.075   3.493   0.329 -0.4674  1.1191 -0.6130
 3481TIP3    H232003  -0.008   3.462   0.206 -0.5991  1.1602 -0.5357
 3482TIP3   OH232004   2.584   0.352   1.611  0.0655 -0.2509  0.6014
 3482TIP3    H132005   2.557   0.434   1.569  0.8703  0.3966  1.3113
 3482TIP3    H232006   2.651   0.316   1.552  1.5658  0.9160  1.5262
 3483TIP3   OH232007   0.185   0.876   8.432 -0.4912 -0.4267 -0.0268
 3483TIP3    H132008   0.193   0.787   8.397  1.3374  0.1184 -1.1286
 3483TIP3    H232009   0.143   0.926   8.362 -2.5520 -0.5998  1.0108
 3484TIP3   OH232010   6.439   5.847   8.029  0.8672 -0.5220  0.1365
 3484TIP3    H132011   6.382   5.845   7.952 -0.9352 -0.9523  1.4139
 3484TIP3    H232012   6.527   5.849   7.993  0.0809  1.7772 -1.9683
 3485TIP3   OH232013   5.667   2.312   8.882 -0.0667 -0.2504  0.3253
 3485TIP3    H132014   5.688   2.392   8.833 -0.1017 -0.6044 -0.2675
 3485TIP3    H232015   5.615   2.259   8.822  0.5207 -1.0132  0.4729
 3486TIP3   OH232016   2.213   2.421   8.481 -0.5641  0.2205  0.5372
 3486TIP3    H132017   2.147   2.488   8.500  1.6166  2.6695  0.0107
 3486TIP3    H232018   2.260   2.408   8.563  1.4309  2.2766 -0.1576
 3487TIP3   OH232019   0.559   6.108   8.726 -0.4570  0.1075  0.1179
 3487TIP3    H132020   0.605   6.042   8.674 -0.5443  0.4767 -0.4455
 3487TIP3    H232021   0.467   6.081   8.722 -0.5872  0.6142 -0.6794
 3488TIP3   OH232022   1.571   5.607   2.586  0.4794  0.6091  0.2028
 3488TIP3    H132023   1.572   5.638   2.677  1.5741  0.8377  0.1315
 3488TIP3    H232024   1.625   5.528   2.588  1.1410  1.0417 -0.3845
 3489TIP3   OH232025   0.777   4.108   1.081 -0.6688 -0.6037 -0.3134
 3489TIP3    H132026   0.825   4.070   1.153 -0.4270 -0.7900 -0.5728
 3489TIP3    H232027   0.732   4.184   1.119 -0.0599 -0.3435 -0.1002
 3490TIP3   OH232028   1.195   5.459   7.594 -0.1400 -0.4531  0.4437
 3490TIP3    H132029   1.143   5.508   7.657  0.2320  0.6500 -0.0810
 3490TIP3    H232030   1.144   5.462   7.513  1.3294  1.9620 -0.5211
 3491TIP3   OH232031   0.801   1.578   8.409 -0.1471  0.3519  0.0041
 3491TIP3    H132032   0.748   1.652   8.380 -0.8304 -0.3672 -0.6216
 3491TIP3    H232033   0.737   1.514   8.442  0.2345 -0.8060 -1.3848
 3492TIP3   OH232034   1.082   2.184   7.982 -0.3436  0.3826  0.3486
 3492TIP3    H132035   1.018   2.115   7.966  0.5511 -0.5401  0.6229
 3492TIP3    H232036   1.086   2.233   7.900  0.2254 -0.9414 -0.4586
 3493TIP3   OH232037   1.538   1.594   8.696 -0.2984  0.8591  0.6496
 3493TIP3    H132038   1.526   1.508   8.656  2.4484  1.1206 -0.9406
 3493TIP3    H232039   1.467   1.647   8.660 -1.4192 -0.4232  0.8692
 3494TIP3   OH232040   3.003   2.756   3.310  0.2897  0.3093  0.3519
 3494TIP3    H132041   3.072   2.755   3.376  0.2966  0.6708  0.3506
 3494TIP3    H232042   2.931   2.708   3.350  0.1314  0.9125  0.7987
 3495TIP3   OH232043   3.928   1.295   2.097 -0.0859 -0.1107  0.1506
 3495TIP3    H132044   3.956   1.370   2.045  2.8352  0.2624  2.0598
 3495TIP3    H232045   3.934   1.221   2.036 -1.1028  0.8438 -1.1914
 3496TIP3   OH232046   2.413   5.592   0.660  0.1852  0.6492  0.2582
 3496TIP3    H132047   2.483   5.653   0.685 -0.0927  0.4023  1.7224
 3496TIP3    H232048   2.334   5.647   0.654  0.2737  0.7295 -0.2562
 3497TIP3   OH232049   5.335   0.417   0.617 -0.0172  0.4759 -0.0630
 3497TIP3    H132050   5.337   0.406   0.522 -1.4051 -0.1405 -0.0429
 3497TIP3    H232051   5.243   0.409   0.640  0.4289 -0.8079  1.4847
 3498TIP3   OH232052   6.302   1.940   0.453  0.1154  0.2190 -0.5355
 3498TIP3    H132053   6.256   1.861   0.479 -0.1160  1.1363  2.2466
 3498TIP3    H232054   6.305   1.993   0.533  2.6414  1.8531 -1.5702
 3499TIP3   OH232055   2.762   4.789   1.733  0.0122  0.5020  0.0933
 3499TIP3    H132056   2.814   4.728   1.680 -1.2312  1.2709 -2.1248
 3499TIP3    H232057   2.806   4.789   1.818  2.0283 -0.9093 -0.8550
 3500TIP3   OH232058   5.085   2.894   0.745 -0.0268 -0.3781 -0.2649
 3500TIP3    H132059   5.077   2.946   0.825 -1.1056 -2.4211  1.0738
 3500TIP3    H232060   5.124   2.953   0.681 -0.9394  1.9538  1.1907
 3501TIP3   OH232061   3.304   0.160   0.715  0.2090 -0.4853 -0.3473
 3501TIP3    H132062   3.357   0.195   0.786  2.7181  0.6192 -2.5530
 3501TIP3    H232063   3.333   0.069   0.706  0.4364 -0.4076 -0.4090
 3502TIP3   OH232064   3.075   0.930   0.759  0.8148  0.2769 -0.2008
 3502TIP3    H132065   3.053   0.846   0.719  0.0487  0.7281 -0.7593
 3502TIP3    H232066   3.123   0.908   0.839 -3.2811 -0.8777  2.2007
 3503TIP3   OH232067   3.496   2.358   7.718 -0.0522 -0.2450  0.0003
 3503TIP3    H132068   3.512   2.390   7.806  0.3549 -1.2999  0.3261
 3503TIP3    H232069   3.555   2.410   7.662 -0.5712  0.6670  0.2962
 3504TIP3   OH232070   2.475   6.166   0.558 -0.2023  0.1287 -0.2576
 3504TIP3    H132071   2.516   6.227   0.620  0.1690 -0.2101 -0.1599
 3504TIP3    H232072   2.497   6.201   0.472  0.8784 -0.4034 -0.2197
 3505TIP3   OH232073   5.781   0.741   8.232 -0.1956  0.1984 -0.1665
 3505TIP3    H132074   5.818   0.726   8.145  2.3558 -0.8689  0.9910
 3505TIP3    H232075   5.818   0.824   8.260  0.0357 -0.0807  0.3712
 3506TIP3   OH232076   2.549   5.721   1.485  0.4637  0.1571 -0.1293
 3506TIP3    H132077   2.507   5.669   1.553  0.8469  1.3543  1.0798
 3506TIP3    H232078   2.477   5.768   1.442  0.2925 -0.0173 -0.0299
 3507TIP3   OH232079   1.069   4.406   8.333 -0.4857 -0.2322 -0.5868
 3507TIP3    H132080   1.038   4.482   8.383  0.2909  0.8093 -1.6268
 3507TIP3    H232081   0.998   4.387   8.273 -0.1700  0.5337 -1.2247
 3508TIP3   OH232082   2.834   0.764   2.815  0.2250 -0.1204 -0.2981
 3508TIP3    H132083   2.917   0.717   2.802  0.5140 -0.4646  2.2055
 3508TIP3    H232084   2.807   0.790   2.727  1.3351 -2.8040 -1.5554
 3509TIP3   OH232085   4.624   4.868   8.191 -0.8120 -0.4601 -0.2699
 3509TIP3    H132086   4.643   4.781   8.156  0.2426 -0.6940  0.8482
 3509TIP3    H232087   4.543   4.894   8.147 -0.2249 -1.2716 -1.9124
 3510TIP3   OH232088   2.489   2.561   1.667 -0.6054  0.3620 -0.1053
 3510TIP3    H132089   2.409   2.509   1.678 -0.9169  0.7512 -0.4988
 3510TIP3    H232090   2.532   2.556   1.753  0.4029 -2.2109 -0.6856
 3511TIP3   OH232091   0.855   4.052   8.293  0.8254 -0.7296 -0.3653
 3511TIP3    H132092   0.788   4.013   8.349 -0.7827  0.2987 -1.4958
 3511TIP3    H232093   0.930   4.066   8.352 -0.4239 -0.6322  1.2842
 3512TIP3   OH232094   6.686   2.092   7.823  0.1853  0.1023  0.8260
 3512TIP3    H132095   6.719   2.014   7.779 -2.5339 -0.8370  0.2787
 3512TIP3    H232096   6.761   2.152   7.825  1.9377 -1.9372 -0.0466
 3513TIP3   OH232097   6.555   5.173   8.728 -0.4720 -0.2961 -0.3666
 3513TIP3    H132098   6.467   5.203   8.705  0.1633 -0.5622 -3.5218
 3513TIP3    H232099   6.561   5.084   8.693  1.2675 -0.0268 -0.8484
 3514TIP3   OH232100   1.511   2.786   2.782 -0.6716 -0.4679  0.0141
 3514TIP3    H132101   1.455   2.846   2.832 -1.6802 -0.0880 -1.5066
 3514TIP3    H232102   1.598   2.825   2.785 -1.1931  0.7669 -0.4343
 3515TIP3   OH232103   3.326   4.273   1.884  0.0843 -0.0576  0.7968
 3515TIP3    H132104   3.249   4.330   1.889  0.6565  0.6632  1.6057
 3515TIP3    H232105   3.292   4.191   1.846 -0.5369  1.1348 -1.4036
 3516TIP3   OH232106   6.313   3.927   1.879 -0.3086 -0.3210  0.2391
 3516TIP3    H132107   6.263   4.007   1.864  2.9887  1.7055 -1.1735
 3516TIP3    H232108   6.301   3.908   1.972 -2.1189  1.0940  0.3547
 3517TIP3   OH232109   0.308   1.083   2.885  0.3848 -0.2378  0.3638
 3517TIP3    H132110   0.243   1.153   2.889  0.6201 -0.0335  0.7551
 3517TIP3    H232111   0.305   1.043   2.972  2.5726  1.4326  1.2802
 3518TIP3   OH232112   4.733   1.290   2.744  0.1560  0.0427 -0.2518
 3518TIP3    H132113   4.803   1.277   2.808  1.4308 -1.3380 -1.8327
 3518TIP3    H232114   4.765   1.360   2.687  0.4241 -0.7905 -1.1530
 3519TIP3   OH232115   1.158   6.052   8.694 -0.3368 -0.2614  0.0429
 3519TIP3    H132116   1.122   5.984   8.750 -1.4675 -0.5642 -1.0153
 3519TIP3    H232117   1.200   6.004   8.622  1.5631  0.1043  0.8512
 3520TIP3   OH232118   0.292   0.661   0.390  0.1354  1.0211 -0.3826
 3520TIP3    H132119   0.271   0.662   0.297 -0.0034 -0.3262 -0.3843
 3520TIP3    H232120   0.380   0.625   0.395 -0.7005 -1.1317  0.1036
 3521TIP3   OH232121   0.096   5.353   7.530  0.1810 -0.0514 -0.7122
 3521TIP3    H132122   0.180   5.398   7.525  0.0219  0.3224 -0.0892
 3521TIP3    H232123   0.114   5.274   7.582  0.0096  0.3657 -0.0093
 3522TIP3   OH232124   6.374   0.376   0.124  0.0569  0.1589  0.3213
 3522TIP3    H132125   6.329   0.293   0.105  1.1932 -0.2415 -0.7771
 3522TIP3    H232126   6.311   0.426   0.176 -0.2891 -1.7709  1.8731
 3523TIP3   OH232127   2.223   4.349   1.549  0.3000  0.5871  0.2099
 3523TIP3    H132128   2.257   4.362   1.461 -0.0182 -1.6046 -0.2903
 3523TIP3    H232129   2.128   4.341   1.538  0.3788 -1.3588  0.4491
 3524TIP3   OH232130   5.545   2.742   8.393 -0.0911 -0.4015  0.7184
 3524TIP3    H132131   5.512   2.652   8.385 -1.4480  0.1385  0.0156
 3524TIP3    H232132   5.577   2.764   8.306 -0.7350  0.1452  0.6089
 3525TIP3   OH232133   4.790   6.428   0.271  0.0068 -0.3688  0.0542
 3525TIP3    H132134   4.793   6.458   0.362 -1.3876 -2.0257  0.7024
 3525TIP3    H232135   4.704   6.386   0.262  1.0639 -2.4472 -1.2759
 3526TIP3   OH232136   0.746   3.282   3.181  0.3061  0.2014 -0.0162
 3526TIP3    H132137   0.662   3.308   3.219  0.0031  0.3139 -0.7319
 3526TIP3    H232138   0.804   3.356   3.198  0.0207  0.4821 -0.2381
 3527TIP3   OH232139   0.932   0.073   8.637 -0.0049 -0.1868 -0.3202
 3527TIP3    H132140   0.910   0.114   8.721 -0.6322  1.0139 -1.0418
 3527TIP3    H232141   0.852   0.027   8.611 -0.4185  0.9019 -1.0651
 3528TIP3   OH232142   5.874   2.447   1.193 -0.6451  0.1218 -0.5131
 3528TIP3    H132143   5.865   2.391   1.271 -1.0662  0.7570 -0.1059
 3528TIP3    H232144   5.851   2.389   1.120 -0.0078 -0.5537 -0.2036
 3529TIP3   OH232145   6.683   0.524   2.774 -0.2498 -0.2819  0.3359
 3529TIP3    H132146   6.614   0.458   2.784 -1.4241  1.0030  1.1266
 3529TIP3    H232147   6.698   0.529   2.679 -1.9819  0.1180  0.0540
 3530TIP3   OH232148   5.029   4.667   8.190 -0.2451 -0.3738 -0.7740
 3530TIP3    H132149   4.976   4.635   8.117 -0.4527 -1.3239 -0.2114
 3530TIP3    H232150   4.969   4.721   8.241 -0.3663 -0.5294 -0.7521
 3531TIP3   OH232151   3.330   6.424   8.756 -0.3306  0.1447 -0.5327
 3531TIP3    H132152   3.399   6.470   8.709  0.5607 -0.7849 -0.1800
 3531TIP3    H232153   3.249   6.456   8.716  0.0408  3.7030  1.1838
 3532TIP3   OH232154   2.625   3.070   0.784  0.5952  0.3243 -0.1675
 3532TIP3    H132155   2.603   3.144   0.841 -1.2827  0.8874 -1.5010
 3532TIP3    H232156   2.565   3.000   0.811 -1.0236  0.9200 -1.9936
 3533TIP3   OH232157   5.955   1.319   9.003 -0.1663 -1.1283  0.1111
 3533TIP3    H132158   6.032   1.281   9.044  1.4404  1.4787 -0.2834
 3533TIP3    H232159   5.887   1.314   9.071  0.8938 -1.6939  1.1708
 3534TIP3   OH232160   0.826   4.909   2.334  0.3274  0.0946  0.0806
 3534TIP3    H132161   0.804   4.820   2.361 -1.0641  0.4706  0.2373
 3534TIP3    H232162   0.771   4.965   2.389  0.4235  1.0173 -0.7396
 3535TIP3   OH232163   4.201   1.327   7.558  0.1259  0.2677  0.0297
 3535TIP3    H132164   4.152   1.331   7.640  1.0168  1.0306  0.5435
 3535TIP3    H232165   4.135   1.305   7.492 -0.4805 -1.0946  1.0393
 3536TIP3   OH232166   2.918   2.477   2.291 -0.1502  0.1975 -0.0249
 3536TIP3    H132167   2.970   2.441   2.219 -0.2407  1.1139 -0.5599
 3536TIP3    H232168   2.977   2.538   2.335 -0.1635 -0.2021  0.5667
 3537TIP3   OH232169   1.733   5.001   0.377 -0.3509  0.7149  0.0777
 3537TIP3    H132170   1.730   4.907   0.394 -2.2289  0.5795 -0.7103
 3537TIP3    H232171   1.820   5.029   0.407  0.2155 -1.2438  0.3668
 3538TIP3   OH232172   0.081   1.895   8.861  0.3444 -0.2993 -0.3899
 3538TIP3    H132173   0.163   1.846   8.872  0.2868 -0.4880 -0.7837
 3538TIP3    H232174   0.077   1.913   8.767 -0.5316 -1.0857 -0.5063
 3539TIP3   OH232175   5.900   5.002   1.463  0.0789  0.6223 -0.6396
 3539TIP3    H132176   5.825   4.944   1.450  0.0658  1.0359 -2.8206
 3539TIP3    H232177   5.862   5.090   1.464  0.1707  0.7168  2.0263
 3540TIP3   OH232178   1.674   5.223   0.034  0.4780  0.2569 -0.1866
 3540TIP3    H132179   1.666   5.213  -0.061 -0.5035 -0.1356 -0.0734
 3540TIP3    H232180   1.750   5.280   0.046  0.9240 -0.1109 -1.1843
 3541TIP3   OH232181   4.216   5.338   2.112 -0.1465 -0.3238 -0.2838
 3541TIP3    H132182   4.192   5.421   2.071  0.5819  1.2225  2.2329
 3541TIP3    H232183   4.230   5.278   2.038 -2.4056  1.2415 -2.1362
 3542TIP3   OH232184   0.753   0.393   1.958  0.2799  0.7304  0.0599
 3542TIP3    H132185   0.763   0.329   1.888  0.0948  1.8946 -1.0745
 3542TIP3    H232186   0.686   0.453   1.926 -0.3776  0.8522  1.5866
 3543TIP3   OH232187   1.370   6.070   8.047 -0.3920 -0.5314  0.2495
 3543TIP3    H132188   1.312   6.087   8.121 -0.0554  0.6895  0.2573
 3543TIP3    H232189   1.319   6.093   7.970 -0.5624 -1.2984  0.1267
 3544TIP3   OH232190   1.911   0.014   1.379 -0.2148 -0.0836  0.2177
 3544TIP3    H132191   1.930  -0.028   1.463 -0.8222 -0.6160  0.0918
 3544TIP3    H232192   1.921  -0.056   1.315 -1.1365 -0.0227 -0.0061
 3545TIP3   OH232193   0.487   4.182   0.921 -0.6133 -0.0503 -0.5858
 3545TIP3    H132194   0.518   4.101   0.881 -1.4581  0.2047 -1.7964
 3545TIP3    H232195   0.409   4.155   0.971 -0.6518 -0.0611 -0.6509
 3546TIP3   OH232196   6.519   2.165   1.340  0.3018 -0.4008  0.0689
 3546TIP3    H132197   6.468   2.093   1.376 -2.1359  1.5217  0.7013
 3546TIP3    H232198   6.575   2.193   1.412  1.6610 -1.8711 -0.3325
 3547TIP3   OH232199   4.078   4.239   1.843 -0.1090 -0.1609 -0.0771
 3547TIP3    H132200   4.077   4.226   1.938 -1.5489 -0.3814 -0.0940
 3547TIP3    H232201   4.042   4.326   1.830  0.8681  0.2095 -0.3990
 3548TIP3   OH232202   2.030   4.022   1.979 -0.8574 -1.0032  0.7287
 3548TIP3    H132203   2.045   3.929   1.996 -3.0144 -1.2545  1.5049
 3548TIP3    H232204   2.032   4.063   2.066  0.8566 -0.1390  0.3371
 3549TIP3   OH232205   2.386   2.053   2.967 -0.2498  0.3408 -0.0270
 3549TIP3    H132206   2.325   1.979   2.973 -1.0624  0.9484 -0.4940
 3549TIP3    H232207   2.383   2.093   3.054  0.9744 -0.7455  0.5493
 3550TIP3   OH232208   6.355   3.717   2.464  0.3205  1.1799  0.2167
 3550TIP3    H132209   6.327   3.698   2.554 -0.8645  0.8806 -0.1951
 3550TIP3    H232210   6.315   3.648   2.412  0.8440  1.4650 -0.5740
 3551TIP3   OH232211   3.411   2.292   2.595  0.2897 -0.2416  0.2529
 3551TIP3    H132212   3.463   2.234   2.651 -0.0266 -0.7990 -0.0283
 3551TIP3    H232213   3.339   2.237   2.564 -0.3593  0.4679  0.4772
 3552TIP3   OH232214   1.390   5.456   0.156  0.0901  0.5374  0.7259
 3552TIP3    H132215   1.472   5.429   0.198  1.5692  1.1326 -1.5918
 3552TIP3    H232216   1.391   5.412   0.071 -1.4569  1.4580  0.1814
 3553TIP3   OH232217   5.624   4.227   8.763  0.2707  0.0651 -0.1806
 3553TIP3    H132218   5.624   4.310   8.810 -0.0321 -0.4842  0.8459
 3553TIP3    H232219   5.694   4.176   8.805  1.5228  0.3538 -1.8528
 3554TIP3   OH232220   5.585   4.699   1.621 -0.3834  0.5335 -0.4237
 3554TIP3    H132221   5.558   4.666   1.707 -0.2605 -0.8195 -0.8805
 3554TIP3    H232222   5.641   4.630   1.585 -0.2515  1.1780 -1.5097
 3555TIP3   OH232223   2.714   4.547   3.169 -0.0235 -0.2867 -0.1376
 3555TIP3    H132224   2.784   4.526   3.107 -0.3821  0.3854 -0.7854
 3555TIP3    H232225   2.635   4.555   3.114 -0.1994  1.1278  0.2890
 3556TIP3   OH232226   6.647   3.199   1.020 -0.1870  0.1381  0.5495
 3556TIP3    H132227   6.613   3.112   1.000 -0.3989  0.4771 -0.6922
 3556TIP3    H232228   6.682   3.231   0.937  1.2828  0.6427  1.3314
 3557TIP3   OH232229   5.617   2.824   1.080  0.0087  0.2292  0.5564
 3557TIP3    H132230   5.674   2.797   1.152  0.4301 -0.6368 -0.0903
 3557TIP3    H232231   5.596   2.743   1.034 -3.0301  0.2588  1.6510
 3558TIP3   OH232232   1.298   2.846   8.234  0.0226  0.6666 -0.2116
 3558TIP3    H132233   1.257   2.862   8.319 -0.3480 -0.0979 -0.2344
 3558TIP3    H232234   1.385   2.812   8.256 -0.0575  0.5080 -0.1391
 3559TIP3   OH232235   1.954   5.234   8.812  0.3576  0.0676  0.3959
 3559TIP3    H132236   1.969   5.290   8.735 -2.0042 -1.1776 -1.0779
 3559TIP3    H232237   1.898   5.286   8.869  0.3538  0.2040  0.2693
 3560TIP3   OH232238   6.469   1.672   0.659  0.1243 -0.2163  0.3850
 3560TIP3    H132239   6.448   1.743   0.720 -1.0880  0.1722 -0.4560
 3560TIP3    H232240   6.496   1.717   0.579 -1.5581 -0.6662 -0.4704
 3561TIP3   OH232241   0.981   4.126   2.360 -0.0024 -0.6745 -0.3958
 3561TIP3    H132242   0.999   4.045   2.312 -1.9363 -1.0275 -0.5891
 3561TIP3    H232243   0.897   4.112   2.402 -1.5894  2.0325 -2.3138
 3562TIP3   OH232244   6.430   4.900   8.937  0.1031 -0.0896 -1.0191
 3562TIP3    H132245   6.379   4.822   8.961  1.2814 -0.1463  1.7265
 3562TIP3    H232246   6.518   4.882   8.972  0.8506  1.7669 -1.8268
 3563TIP3   OH232247   3.805   2.063   2.352  0.5738  0.4557  0.0266
 3563TIP3    H132248   3.800   1.992   2.288  1.3061 -0.5513  1.0454
 3563TIP3    H232249   3.883   2.043   2.403  1.4820  2.6668 -0.4050
 3564TIP3   OH232250   3.247   2.461   0.150 -0.0874  0.8514  0.3718
 3564TIP3    H132251   3.310   2.472   0.078 -2.1733 -1.6523 -2.1005
 3564TIP3    H232252   3.294   2.410   0.216  0.9095  0.1839 -0.8107
 3565TIP3   OH232253   4.086   2.874   8.125 -0.5957  0.2152 -0.3218
 3565TIP3    H132254   4.051   2.870   8.036  1.5610 -0.1465 -1.2082
 3565TIP3    H232255   4.094   2.783   8.153  1.4327  0.1599 -0.9309
 3566TIP3   OH232256   5.420   5.359   1.793 -0.7111  0.0399  0.7038
 3566TIP3    H132257   5.417   5.281   1.738  1.9278  0.8328 -0.7416
 3566TIP3    H232258   5.484   5.337   1.862 -0.1943  0.7839  0.4710
 3567TIP3   OH232259   6.169   1.463   2.702  0.3242  0.2971 -0.3020
 3567TIP3    H132260   6.176   1.416   2.785  1.1393  1.3324  0.2336
 3567TIP3    H232261   6.075   1.478   2.691  0.1198 -0.7527 -0.1031
 3568TIP3   OH232262   1.810   4.082   0.620 -0.2916 -0.1631  0.1185
 3568TIP3    H132263   1.838   4.090   0.711  1.1843 -1.1311 -0.2267
 3568TIP3    H232264   1.885   4.045   0.575 -0.9000  0.5736 -1.5623
 3569TIP3   OH232265   2.987   1.405   0.497  0.0307 -0.1080  0.1734
 3569TIP3    H132266   3.027   1.320   0.477 -1.7418 -1.3360  1.4957
 3569TIP3    H232267   3.060   1.467   0.494  1.6873 -1.9214  0.6700
 3570TIP3   OH232268   5.999   3.207   2.623  0.2056  0.0591 -0.1255
 3570TIP3    H132269   6.025   3.299   2.620 -1.5528  0.5683 -1.5547
 3570TIP3    H232270   5.929   3.204   2.688  2.6119 -1.0373  2.6455
 3571TIP3   OH232271   5.298   0.307   0.368  0.8800  0.9293 -0.3724
 3571TIP3    H132272   5.242   0.376   0.332 -0.6231 -0.6310 -1.1721
 3571TIP3    H232273   5.367   0.296   0.302  1.6237  2.2060  0.1586
 3572TIP3   OH232274   0.773   3.831   2.387  0.1852 -0.7781 -0.1494
 3572TIP3    H132275   0.740   3.800   2.302 -1.8012  1.0570 -0.1450
 3572TIP3    H232276   0.866   3.847   2.372 -0.1684 -0.2367 -2.0958
 3573TIP3   OH232277   3.690   5.183   1.437 -0.0151 -0.1815 -0.1171
 3573TIP3    H132278   3.639   5.213   1.362  0.7216  0.3032 -0.4375
 3573TIP3    H232279   3.663   5.092   1.450 -1.0662  0.1141 -0.1752
 3574TIP3   OH232280   3.512   0.935   8.530 -0.1416  0.5470 -0.1351
 3574TIP3    H132281   3.569   1.009   8.508  1.6602 -0.7549 -0.0287
 3574TIP3    H232282   3.507   0.884   8.449  1.7988 -1.2060  0.7723
 3575TIP3   OH232283   3.153   4.871   2.466 -0.4548 -0.1267  0.2926
 3575TIP3    H132284   3.176   4.858   2.558  0.3187  0.1021  0.1391
 3575TIP3    H232285   3.113   4.958   2.463  0.0802  0.1231  0.3193
 3576TIP3   OH232286   5.179   2.418   2.937  0.2214 -0.0803 -0.4994
 3576TIP3    H132287   5.221   2.356   2.997  0.3521  1.0942  0.7030
 3576TIP3    H232288   5.208   2.504   2.969 -1.1399  0.6599 -1.1723
 3577TIP3   OH232289   3.635   2.033   8.715  0.1083 -0.0377  0.3642
 3577TIP3    H132290   3.688   1.993   8.784  1.5210 -1.7610 -1.6068
 3577TIP3    H232291   3.563   1.972   8.701 -0.0066  0.1515  0.1045
 3578TIP3   OH232292   3.598   6.427   0.812 -0.5022  0.0588 -0.2923
 3578TIP3    H132293   3.533   6.425   0.883 -0.5417 -2.1369 -0.3302
 3578TIP3    H232294   3.571   6.502   0.758 -0.1487  2.1516  2.2381
 3579TIP3   OH232295   2.377   2.795   0.205  0.8397 -0.2531 -0.5704
 3579TIP3    H132296   2.308   2.741   0.165  1.7156 -1.6314 -0.3097
 3579TIP3    H232297   2.403   2.855   0.136 -0.9233  0.6159 -0.5303
 3580TIP3   OH232298   0.075   0.390   1.248 -0.3451  0.0295  0.1094
 3580TIP3    H132299   0.047   0.459   1.187  2.5734  0.8786 -0.4249
 3580TIP3    H232300   0.005   0.325   1.245 -1.9298  1.6964 -1.4490
 3581TIP3   OH232301   0.860   3.865   7.764  0.4856  0.0895  0.3290
 3581TIP3    H132302   0.877   3.952   7.799 -0.0861  0.0336  0.7604
 3581TIP3    H232303   0.815   3.881   7.681 -0.2833  0.2031  0.7604
 3582TIP3   OH232304   3.237   3.854   7.808 -0.0286  0.1581 -0.0423
 3582TIP3    H132305   3.174   3.810   7.865 -0.3614  1.7243  0.8458
 3582TIP3    H232306   3.186   3.883   7.732  0.0410 -0.2796 -0.2632
 3583TIP3   OH232307   3.717   2.347   0.377 -0.0655 -0.1841  0.0749
 3583TIP3    H132308   3.661   2.390   0.442  1.3255  0.7933  0.6911
 3583TIP3    H232309   3.805   2.377   0.400  0.4202  0.6816 -2.6229
 3584TIP3   OH232310   0.561   1.389   7.257  0.7732 -0.1204  0.2064
 3584TIP3    H132311   0.539   1.332   7.331 -0.2369  0.9195  0.7501
 3584TIP3    H232312   0.579   1.329   7.184  1.2201 -1.1508  1.1294
 3585TIP3   OH232313   2.213   3.651   8.267  0.7845  0.0329  0.4663
 3585TIP3    H132314   2.136   3.631   8.214 -0.5535  0.8037  2.0159
 3585TIP3    H232315   2.273   3.578   8.251 -0.5173 -0.9066 -0.3245
 3586TIP3   OH232316   4.948   5.234   2.360 -0.2483  0.0215 -0.0498
 3586TIP3    H132317   5.032   5.278   2.375 -0.4395  0.3047  0.1939
 3586TIP3    H232318   4.945   5.165   2.426 -0.1135 -0.1244 -0.1951
 3587TIP3   OH232319   1.651   3.030   3.045  0.0367 -0.1098  0.2027
 3587TIP3    H132320   1.723   2.969   3.060  0.1960  0.2074  0.7125
 3587TIP3    H232321   1.611   3.042   3.131 -0.8006 -0.4980 -0.1200
 3588TIP3   OH232322   1.262   1.620   1.503 -0.4823 -0.3328  0.2487
 3588TIP3    H132323   1.264   1.714   1.520 -1.6333 -0.3680  0.6968
 3588TIP3    H232324   1.177   1.605   1.461 -1.0630 -1.3747  1.6877
 3589TIP3   OH232325   5.373   2.741   0.522 -0.0398  0.3195 -0.3080
 3589TIP3    H132326   5.282   2.718   0.501  0.7393 -0.2148 -3.7727
 3589TIP3    H232327   5.374   2.837   0.519 -0.3835  0.3126 -0.8700
 3590TIP3   OH232328   0.394   0.856   1.065 -0.2524 -0.3973 -0.0418
 3590TIP3    H132329   0.486   0.854   1.036 -1.0384 -0.1705 -2.9337
 3590TIP3    H232330   0.351   0.787   1.014 -2.1004  1.0297 -0.5379
 3591TIP3   OH232331   2.900   5.833   2.271 -0.3284 -0.0790  0.0608
 3591TIP3    H132332   2.847   5.754   2.262  2.6497 -2.3408  0.9150
 3591TIP3    H232333   2.894   5.856   2.364  0.0900 -0.2737  0.1365
 3592TIP3   OH232334   3.955   3.671   1.862 -0.4895 -0.7461 -0.2572
 3592TIP3    H132335   3.959   3.767   1.854 -0.0738 -0.4733  2.3834
 3592TIP3    H232336   4.011   3.651   1.937 -1.2828 -2.9822 -0.1967
 3593TIP3   OH232337   2.506   5.046   8.193  0.7357  0.3275  0.3542
 3593TIP3    H132338   2.600   5.064   8.205  0.7467  0.2501  0.3872
 3593TIP3    H232339   2.503   4.954   8.166  0.7745  0.7279 -1.0937
 3594TIP3   OH232340   5.190   0.500   8.874 -0.3107  0.0855  0.0304
 3594TIP3    H132341   5.270   0.551   8.883  0.2981 -0.9002  0.4912
 3594TIP3    H232342   5.138   0.523   8.951  1.2777 -2.1481  1.9450
 3595TIP3   OH232343   5.591   2.335   2.099  0.0170  0.4059  0.0279
 3595TIP3    H132344   5.648   2.296   2.032  0.9014  0.9117  0.4693
 3595TIP3    H232345   5.554   2.412   2.057  1.3328  1.2768  0.4077
 3596TIP3   OH232346   0.416   3.547   2.523 -0.3914 -0.3992  0.0001
 3596TIP3    H132347   0.497   3.499   2.539  0.8651  1.5415 -0.0895
 3596TIP3    H232348   0.445   3.633   2.493 -2.5168  0.1727 -0.6252
 3597TIP3   OH232349   5.374   1.913   1.105  0.5436  0.0864  0.0636
 3597TIP3    H132350   5.394   1.885   1.194 -2.0988 -0.7531  0.4863
 3597TIP3    H232351   5.339   1.835   1.063 -2.2464  1.4149 -0.3289
 3598TIP3   OH232352   2.330   1.147   1.821 -0.0186 -0.3163  0.0869
 3598TIP3    H132353   2.382   1.081   1.869 -0.2263 -0.5576 -0.0172
 3598TIP3    H232354   2.384   1.169   1.745  0.5757  0.5004  0.7348
 3599TIP3   OH232355   4.644   4.941   0.679  0.2647  0.2885 -0.3691
 3599TIP3    H132356   4.656   4.981   0.592 -0.0995  2.4273  0.5071
 3599TIP3    H232357   4.730   4.946   0.719  0.3091 -0.2071 -0.3981
 3600TIP3   OH232358   5.650   0.404   1.289 -0.2225 -0.4075  0.3674
 3600TIP3    H132359   5.724   0.461   1.270 -1.4173  0.5916 -1.4976
 3600TIP3    H232360   5.674   0.362   1.372  3.2049 -1.4663 -0.9762
 3601TIP3   OH232361   5.686   3.488   8.489 -0.2988 -0.8124 -0.0697
 3601TIP3    H132362   5.622   3.493   8.417 -0.0833  1.7112 -0.1827
 3601TIP3    H232363   5.632   3.487   8.568 -0.5739  1.3580 -0.1618
 3602TIP3   OH232364   0.669   1.262   0.056  0.1197  0.1652  0.3940
 3602TIP3    H132365   0.749   1.263   0.109  0.8047  2.1196 -0.5875
 3602TIP3    H232366   0.655   1.354   0.032 -1.8999 -0.2654 -0.2557
 3603TIP3   OH232367   1.160   2.655   8.857 -0.0602 -0.4811  0.0401
 3603TIP3    H132368   1.129   2.569   8.828 -0.3907  0.3809 -2.4424
 3603TIP3    H232369   1.081   2.702   8.882  0.2587 -1.3481  2.9709
 3604TIP3   OH232370   5.917   3.673   2.671  0.4399 -0.7024  0.0171
 3604TIP3    H132371   5.997   3.725   2.675 -0.6041  1.1851 -1.8353
 3604TIP3    H232372   5.882   3.677   2.760 -0.2470  3.0281 -0.2492
 3605TIP3   OH232373   1.984   4.325   7.847 -0.4345 -0.0911 -0.1387
 3605TIP3    H132374   1.973   4.243   7.799  0.7654  0.1492 -0.8667
 3605TIP3    H232375   1.923   4.385   7.805 -0.2295 -0.2060 -0.6185
 3606TIP3   OH232376   5.909   1.710   1.173  0.3390 -0.1678 -0.2679
 3606TIP3    H132377   5.992   1.677   1.205  1.0226  0.1877 -1.5878
 3606TIP3    H232378   5.857   1.727   1.252  1.6609 -0.0030  0.5930
 3607TIP3   OH232379   1.000   2.339   0.121 -0.1422 -0.9717 -0.1177
 3607TIP3    H132380   0.968   2.427   0.142  1.2760 -0.1051 -1.4126
 3607TIP3    H232381   0.963   2.320   0.035 -0.2393 -1.5456  0.0499
 3608TIP3   OH232382   3.322   6.676   0.013 -0.2793  0.4083 -0.1238
 3608TIP3    H132383   3.386   6.673  -0.058 -0.2689  0.2217 -0.1063
 3608TIP3    H232384   3.309   6.769   0.030  0.4369  0.4434  0.2792
 3609TIP3   OH232385   1.233   3.528   7.742  0.3628 -0.6118 -0.7007
 3609TIP3    H132386   1.260   3.510   7.832 -2.0718  2.3077  0.8180
 3609TIP3    H232387   1.158   3.471   7.727 -1.9133  1.7394  0.8722
 3610TIP3   OH232388   6.604   6.178   1.626 -0.2802 -0.0251  0.0548
 3610TIP3    H132389   6.605   6.226   1.543 -1.6742  1.0688  0.6461
 3610TIP3    H232390   6.670   6.222   1.680 -0.6486  0.4156  0.1487
 3611TIP3   OH232391   1.239   4.016   8.288 -0.3597 -0.3015  0.1091
 3611TIP3    H132392   1.234   4.031   8.194  1.2571 -1.5010 -0.2321
 3611TIP3    H232393   1.189   3.935   8.302 -1.3977  0.3824  0.4582
 3612TIP3   OH232394   1.133   6.385   0.313 -0.5726  0.1243  0.3427
 3612TIP3    H132395   1.217   6.351   0.345  0.4899  1.4523 -0.8796
 3612TIP3    H232396   1.082   6.401   0.393  0.5760 -0.1104  1.1525
 3613TIP3   OH232397   0.399   2.117   2.780  0.6825 -0.0029  0.2806
 3613TIP3    H132398   0.338   2.189   2.764  0.7607  0.0063  0.0227
 3613TIP3    H232399   0.433   2.094   2.694 -1.1599 -1.9719  0.0081
 3614TIP3   OH232400   4.141   3.192   7.979  0.0703  0.4455 -0.3082
 3614TIP3    H132401   4.206   3.145   7.927  1.7314  2.2976 -0.0416
 3614TIP3    H232402   4.082   3.232   7.914 -0.2120 -0.4247 -0.5946
 3615TIP3   OH232403   3.395   5.548   8.960  0.8399  0.3808 -0.4267
 3615TIP3    H132404   3.387   5.588   9.046 -1.5130  2.0946 -1.3451
 3615TIP3    H232405   3.336   5.472   8.963  1.7780 -0.3639 -0.1570
 3616TIP3   OH232406   2.030   6.683   8.941  0.1545  0.1959 -0.1608
 3616TIP3    H132407   2.055   6.775   8.953 -0.4818  0.2115  1.1370
 3616TIP3    H232408   2.072   6.658   8.859  0.3637  1.6405 -0.5259
 3617TIP3   OH232409   3.641   2.372   1.512  0.2505  0.2775  0.2344
 3617TIP3    H132410   3.684   2.292   1.543  1.3928  0.2730 -1.2439
 3617TIP3    H232411   3.573   2.340   1.452 -0.9374  0.3475  1.4932
 3618TIP3   OH232412   1.479   5.755   0.062 -0.3592  0.4944 -0.5904
 3618TIP3    H132413   1.528   5.673   0.053 -1.0245  0.1170 -0.8250
 3618TIP3    H232414   1.510   5.809  -0.011 -0.3749  0.2166 -0.8034
 3619TIP3   OH232415   4.389   2.503   0.193  0.2506  0.2926  0.0536
 3619TIP3    H132416   4.450   2.566   0.230  0.5556  0.5822 -0.9195
 3619TIP3    H232417   4.422   2.486   0.105 -0.7693  0.0493 -0.2977
 3620TIP3   OH232418   5.190   0.793   7.355 -0.5701 -0.2519 -0.2556
 3620TIP3    H132419   5.180   0.793   7.450 -2.2828  0.4535 -0.3921
 3620TIP3    H232420   5.252   0.864   7.337 -0.2175 -0.4069  0.3310
 3621TIP3   OH232421   0.194   5.976   7.560  0.1378  0.0871  0.6404
 3621TIP3    H132422   0.128   5.924   7.606  0.7569 -0.2672  1.1490
 3621TIP3    H232423   0.266   5.915   7.546  1.0562  0.9117  1.6292
 3622TIP3   OH232424   6.015   3.826   1.308 -0.2722  0.6561  0.1547
 3622TIP3    H132425   5.959   3.873   1.369  0.4251 -0.2480  1.5291
 3622TIP3    H232426   5.955   3.785   1.246 -0.9961  1.4196  0.3342
 3623TIP3   OH232427   1.390   1.665   1.228  0.6148 -0.1463  0.8695
 3623TIP3    H132428   1.462   1.722   1.254  0.1964 -0.5499  3.1502
 3623TIP3    H232429   1.327   1.671   1.301 -1.1769 -0.6115 -0.5563
 3624TIP3   OH232430   6.337   1.722   1.618  0.3305  0.1108 -0.2607
 3624TIP3    H132431   6.344   1.667   1.696  1.5463  0.6824  0.0590
 3624TIP3    H232432   6.423   1.715   1.576 -0.1306  0.2535 -1.2581
 3625TIP3   OH232433   3.934   6.217   2.792  0.3755 -0.6163 -0.2299
 3625TIP3    H132434   3.986   6.155   2.844 -0.7872 -1.9372 -0.5801
 3625TIP3    H232435   3.847   6.213   2.831  0.0238  0.0093 -0.9385
 3626TIP3   OH232436   3.665   1.354   0.194 -0.6367  0.1896 -0.3541
 3626TIP3    H132437   3.575   1.324   0.182 -0.4604 -1.4027  1.7364
 3626TIP3    H232438   3.710   1.326   0.115 -1.7267  0.0956 -0.9712
 3627TIP3   OH232439   0.267   1.602   8.132  0.1064  0.2929  0.0065
 3627TIP3    H132440   0.267   1.584   8.226  1.2973 -1.6328 -0.3189
 3627TIP3    H232441   0.194   1.550   8.098 -1.3887  2.2654  0.0246
 3628TIP3   OH232442   4.566   1.158   0.359  0.4670 -0.4188  0.0184
 3628TIP3    H132443   4.486   1.126   0.319 -0.6873  2.2581 -0.0400
 3628TIP3    H232444   4.630   1.157   0.288 -0.6305  1.0779 -1.0441
 3629TIP3   OH232445   4.363   2.903   1.668  0.1633  0.0915  0.3325
 3629TIP3    H132446   4.438   2.853   1.637  0.9325  1.0402  0.6392
 3629TIP3    H232447   4.390   2.995   1.663 -0.5522  0.3948  1.5346
 3630TIP3   OH232448   2.242   5.332   3.439  0.4848 -0.4434 -0.2894
 3630TIP3    H132449   2.160   5.346   3.392  1.2553  0.7402 -1.3494
 3630TIP3    H232450   2.269   5.243   3.413  0.6684  0.0101 -1.7867
 3631TIP3   OH232451   3.140   5.166   2.186 -0.2970 -0.2606  0.4327
 3631TIP3    H132452   3.118   5.139   2.275 -0.3799  0.0443  0.5053
 3631TIP3    H232453   3.122   5.089   2.132  1.1539 -0.9516  0.8724
 3632TIP3   OH232454   4.665   1.192   1.884 -0.5118 -0.0709  0.8793
 3632TIP3    H132455   4.723   1.195   1.960 -0.2230 -0.6167  0.6879
 3632TIP3    H232456   4.698   1.119   1.831 -0.8514  0.1521  0.3440
 3633TIP3   OH232457   4.135   3.826   3.126 -0.0589 -0.1709 -0.3164
 3633TIP3    H132458   4.043   3.801   3.139  0.0285 -1.6708 -2.0967
 3633TIP3    H232459   4.171   3.833   3.214 -1.6333 -0.4912  0.3908
 3634TIP3   OH232460   1.697   6.588   0.620 -0.2426 -0.5523 -0.8336
 3634TIP3    H132461   1.608   6.620   0.634  0.5094  1.2047  0.1266
 3634TIP3    H232462   1.728   6.564   0.707  0.4789 -0.5006 -1.0728
 3635TIP3   OH232463   2.611   2.536   1.424  0.0117  0.3476  0.2724
 3635TIP3    H132464   2.538   2.535   1.485 -1.7342 -0.3947 -1.7430
 3635TIP3    H232465   2.586   2.477   1.353  2.3645  0.4151 -0.7297
 3636TIP3   OH232466   0.464   6.437   8.855 -0.3230 -0.1531 -0.6219
 3636TIP3    H132467   0.542   6.401   8.811  1.0144  2.2527 -0.4163
 3636TIP3    H232468   0.418   6.360   8.888  1.7272 -1.7143 -1.1353
 3637TIP3   OH232469   3.546   1.250   8.540  0.0159 -0.2753 -0.1375
 3637TIP3    H132470   3.614   1.242   8.607  0.9855  0.5685 -0.9882
 3637TIP3    H232471   3.514   1.340   8.549  2.0235  0.7685 -2.4804
 3638TIP3   OH232472   3.943   3.280   0.286  0.2154 -0.4591  0.8214
 3638TIP3    H132473   3.853   3.257   0.306  0.3869  0.9973  3.8704
 3638TIP3    H232474   3.974   3.326   0.364  3.0195  0.7809 -0.8481
 3639TIP3   OH232475   2.985   4.001   0.450 -0.6631  0.2930 -0.4573
 3639TIP3    H132476   2.919   3.974   0.514  0.7516 -1.7796  0.2261
 3639TIP3    H232477   2.983   3.932   0.383 -0.4349  1.1768 -1.4087
 3640TIP3   OH232478   6.103   0.380   7.783 -0.2959  0.0591 -0.0064
 3640TIP3    H132479   6.168   0.405   7.718 -0.0532  0.4811  0.3986
 3640TIP3    H232480   6.111   0.284   7.789  3.1198  0.3115  2.9186
 3641TIP3   OH232481   0.751   2.065   2.352 -0.0756  0.0153 -0.1582
 3641TIP3    H132482   0.775   1.981   2.315  0.2281  0.4388 -0.9561
 3641TIP3    H232483   0.750   2.051   2.447 -0.7431 -1.0553 -0.3208
 3642TIP3   OH232484   1.274   1.718   8.834 -0.1198  0.6501 -0.4522
 3642TIP3    H132485   1.321   1.795   8.801  1.8596  0.2811  1.2570
 3642TIP3    H232486   1.211   1.754   8.897  0.5965  0.9116  0.1295
 3643TIP3   OH232487   4.494   5.018   2.029 -0.2804  0.6356  0.5769
 3643TIP3    H132488   4.422   4.973   2.073  0.1136  1.9468  2.7294
 3643TIP3    H232489   4.569   5.006   2.088  0.4511  1.9044 -0.0624
 3644TIP3   OH232490   5.900   0.630   0.122 -0.4042  0.1019 -0.2142
 3644TIP3    H132491   5.922   0.723   0.126  2.7800 -0.5291 -0.1468
 3644TIP3    H232492   5.982   0.585   0.145 -2.0717 -2.7224  0.6775
 3645TIP3   OH232493   4.798   1.817   1.043 -0.1443 -0.0537  0.4388
 3645TIP3    H132494   4.719   1.848   1.087  1.4186  2.7480  1.5862
 3645TIP3    H232495   4.771   1.798   0.954 -2.1827  0.4127  0.9160
 3646TIP3   OH232496   6.096   5.131   2.360  0.3935 -0.3980  0.2271
 3646TIP3    H132497   6.192   5.127   2.355  0.3526  0.1235 -1.3794
 3646TIP3    H232498   6.073   5.213   2.316 -0.8455 -0.9686 -0.2129
 3647TIP3   OH232499   2.426   6.375   7.824 -0.1300 -0.0875 -0.1452
 3647TIP3    H132500   2.446   6.430   7.749 -1.4323 -0.8634 -1.0985
 3647TIP3    H232501   2.485   6.301   7.817 -1.2503 -0.9105 -1.2910
 3648TIP3   OH232502   4.917   1.109   8.990 -0.3832  0.4618 -0.7995
 3648TIP3    H132503   5.000   1.156   8.981 -0.4012  0.7021  0.2248
 3648TIP3    H232504   4.939   1.029   9.038 -0.2831 -0.8232 -2.8487
 3649TIP3   OH232505   5.670   5.638   1.914  0.1668 -0.0894 -0.1534
 3649TIP3    H132506   5.735   5.706   1.897  0.9096 -0.8524 -0.4135
 3649TIP3    H232507   5.588   5.675   1.882  0.1833  1.4316  1.3947
 3650TIP3   OH232508   5.360   6.093   2.661  0.3315 -0.2788 -0.4415
 3650TIP3    H132509   5.373   6.011   2.614  1.6459 -1.4770  1.8364
 3650TIP3    H232510   5.430   6.150   2.631  0.1655 -0.4176 -1.1097
 3651TIP3   OH232511   0.250   1.830   2.421  0.0723 -0.1389  0.3007
 3651TIP3    H132512   0.257   1.738   2.447 -1.4138  0.3042  2.5180
 3651TIP3    H232513   0.194   1.828   2.343  0.0938 -1.1115  0.2920
 3652TIP3   OH232514   1.407   0.734   2.632 -0.0592 -0.1416 -0.2300
 3652TIP3    H132515   1.366   0.811   2.593 -0.6123  0.5937  1.7080
 3652TIP3    H232516   1.479   0.769   2.684 -0.8951 -0.7926  1.4368
 3653TIP3   OH232517   0.300   2.072   2.192  0.1106  0.3979 -0.0326
 3653TIP3    H132518   0.358   2.147   2.192 -2.4754  2.5995  1.5142
 3653TIP3    H232519   0.319   2.027   2.274 -0.5399  1.3319  0.6563
 3654TIP3   OH232520   3.720   2.090   0.651  0.3533  0.5501  0.2019
 3654TIP3    H132521   3.763   2.015   0.608 -1.7666 -1.7544  1.8212
 3654TIP3    H232522   3.768   2.100   0.733 -0.7255 -0.6130  1.0215
 3655TIP3   OH232523   2.424   3.878   3.171 -0.4191  0.3729  0.3522
 3655TIP3    H132524   2.423   3.784   3.185 -1.4700  0.5422  1.6876
 3655TIP3    H232525   2.508   3.907   3.207 -0.6985  0.0959  1.2629
 3656TIP3   OH232526   1.281   6.534   8.137 -0.1399 -0.7098 -0.0740
 3656TIP3    H132527   1.226   6.460   8.112 -0.3758  0.1158 -2.1732
 3656TIP3    H232528   1.352   6.534   8.073  0.0912  0.6154  0.1590
 3657TIP3   OH232529   4.427   1.370   7.757 -0.2986 -0.6393  0.1383
 3657TIP3    H132530   4.483   1.448   7.752  1.0372 -1.5636  0.3104
 3657TIP3    H232531   4.420   1.340   7.667 -1.8238  0.3517 -0.0974
 3658TIP3   OH232532   5.341   1.007   2.623 -0.6458  0.2909 -0.6083
 3658TIP3    H132533   5.374   1.080   2.676 -1.3790  0.9143 -0.9877
 3658TIP3    H232534   5.391   1.012   2.541 -0.4218  0.1199 -0.4843
 3659TIP3   OH232535   6.576   0.809   7.423 -0.5575  0.1762  0.0717
 3659TIP3    H132536   6.660   0.765   7.408 -0.4617  0.4586 -0.2364
 3659TIP3    H232537   6.516   0.769   7.361  0.1572  2.2724 -2.1700
 3660TIP3   OH232538   0.826   3.087   1.300 -0.7910 -0.1694 -0.1381
 3660TIP3    H132539   0.867   3.064   1.216  0.4554  2.7701 -0.4287
 3660TIP3    H232540   0.899   3.087   1.363 -1.3623 -0.3352  0.5339
 3661TIP3   OH232541   0.582   5.324   0.513 -0.0356  0.6591 -0.3452
 3661TIP3    H132542   0.492   5.356   0.507  0.4289  2.3843  0.9493
 3661TIP3    H232543   0.618   5.335   0.425 -1.1807 -0.4343 -0.9773
 3662TIP3   OH232544   1.298   0.968   2.181  0.1085 -0.1756  0.0863
 3662TIP3    H132545   1.212   0.938   2.153 -0.5490  0.8157  0.9729
 3662TIP3    H232546   1.295   0.965   2.276  0.4638  1.3864  0.1864
 3663TIP3   OH232547   1.011   4.547   0.214 -0.1907  0.0449  0.5393
 3663TIP3    H132548   1.015   4.456   0.241 -0.8519 -0.9598 -2.4255
 3663TIP3    H232549   1.065   4.552   0.136 -1.3776  1.8106 -0.2410
 3664TIP3   OH232550   3.089   5.943   1.471  0.2773 -0.0827 -0.5507
 3664TIP3    H132551   3.073   5.853   1.443 -0.7890  0.5829 -2.2390
 3664TIP3    H232552   3.177   5.962   1.441 -0.6247  0.4248 -3.1902
 3665TIP3   OH232553   6.639   3.173   7.610 -0.0975  0.1460 -0.0684
 3665TIP3    H132554   6.594   3.140   7.688 -0.8438  0.4172 -0.3813
 3665TIP3    H232555   6.639   3.099   7.549 -0.0175  0.1107 -0.0256
 3666TIP3   OH232556   5.594   4.629   2.448  0.2985  0.0739  0.5047
 3666TIP3    H132557   5.591   4.719   2.482  3.5272  0.3147  0.4928
 3666TIP3    H232558   5.584   4.574   2.526 -2.1237  0.3402  0.4622
 3667TIP3   OH232559   1.320   3.640   8.630 -0.2049 -0.1401  0.6154
 3667TIP3    H132560   1.225   3.635   8.627 -0.2567  0.8739  0.1228
 3667TIP3    H232561   1.349   3.550   8.616 -1.0911 -0.7558  2.4543
 3668TIP3   OH232562   3.732   6.555   1.367  0.2484 -0.0394  0.0953
 3668TIP3    H132563   3.711   6.560   1.274 -1.5309 -0.1825  0.4661
 3668TIP3    H232564   3.827   6.570   1.371  0.3003  0.2680 -1.6986
 3669TIP3   OH232565   4.089   2.365   3.465 -0.0176 -0.6761  0.2844
 3669TIP3    H132566   4.095   2.461   3.458  0.3843 -0.6389  1.0259
 3669TIP3    H232567   4.001   2.349   3.500 -0.2627 -0.6079 -0.2905
 3670TIP3   OH232568   1.660   4.188   7.796  0.2351 -0.0347  0.3469
 3670TIP3    H132569   1.710   4.118   7.840  3.0838 -0.4355 -3.0916
 3670TIP3    H232570   1.577   4.146   7.772  1.0820 -1.6565  0.0956
 3671TIP3   OH232571   2.182   5.467   0.422 -0.1527 -0.3189  0.1888
 3671TIP3    H132572   2.272   5.446   0.445  0.8831  0.9312 -2.3900
 3671TIP3    H232573   2.185   5.557   0.390 -2.3212 -0.2539  0.0198
 3672TIP3   OH232574   0.075   5.150   1.208 -0.1617  0.0551 -0.6202
 3672TIP3    H132575   0.163   5.185   1.226 -0.0785 -0.0543 -0.8125
 3672TIP3    H232576   0.016   5.224   1.224 -0.0993 -0.0680  0.2126
 3673TIP3   OH232577   6.713   0.339   8.495  0.4332  0.0114 -0.0998
 3673TIP3    H132578   6.721   0.358   8.588 -1.0567 -0.6835  0.1879
 3673TIP3    H232579   6.693   0.245   8.491 -2.8258  0.6431 -0.9052
 3674TIP3   OH232580   2.104   0.325   0.679  0.2106 -0.8461 -0.1589
 3674TIP3    H132581   2.148   0.410   0.689 -1.3283  0.0374 -0.5702
 3674TIP3    H232582   2.156   0.265   0.732  0.9958  0.4728  0.6305
 3675TIP3   OH232583   0.476   4.869   8.180 -1.2981  0.7438  0.1736
 3675TIP3    H132584   0.439   4.909   8.258 -2.3894  1.6372 -0.7798
 3675TIP3    H232585   0.437   4.781   8.177 -2.0082  1.0593  0.1057
 3676TIP3   OH232586   5.252   1.870   8.196 -0.5610 -0.3368  0.0618
 3676TIP3    H132587   5.340   1.886   8.229 -1.1746  1.2336  1.0759
 3676TIP3    H232588   5.195   1.924   8.252 -2.0186 -0.2372 -1.4297
 3677TIP3   OH232589   4.093   1.925   8.207 -0.6566 -0.2370  0.4507
 3677TIP3    H132590   4.071   1.854   8.147 -1.3701  0.3609 -0.0238
 3677TIP3    H232591   4.099   1.884   8.293 -0.1272 -1.0203  0.0544
 3678TIP3   OH232592   0.133   1.787   7.326 -0.5212  0.1048 -0.0213
 3678TIP3    H132593   0.199   1.721   7.305 -0.5090 -0.4469  1.5557
 3678TIP3    H232594   0.154   1.861   7.270  0.7852 -0.4623 -0.3257
 3679TIP3   OH232595   3.597   5.261   0.200  0.4167  0.1602  0.2230
 3679TIP3    H132596   3.622   5.208   0.275  1.6547  0.9870  0.4271
 3679TIP3    H232597   3.671   5.320   0.187 -0.9984  2.0159  0.1675
 3680TIP3   OH232598   2.056   2.871   1.158 -0.2987  0.6641  0.6926
 3680TIP3    H132599   2.109   2.793   1.174  0.3521  1.0206  0.2985
 3680TIP3    H232600   1.988   2.868   1.225  0.0294  0.0360  1.0026
 3681TIP3   OH232601   1.939   5.346   0.562  0.6004 -0.2564 -0.3000
 3681TIP3    H132602   1.922   5.414   0.628  0.2784 -0.2299 -0.4047
 3681TIP3    H232603   2.027   5.365   0.530 -0.2162  1.3392 -1.7402
 3682TIP3   OH232604   1.098   1.980   8.201  0.1274 -0.2170 -0.0883
 3682TIP3    H132605   1.133   2.051   8.148  0.5650 -0.7032 -0.4569
 3682TIP3    H232606   1.169   1.958   8.262 -0.3423  0.2896  0.6683
 3683TIP3   OH232607   0.364   3.395   8.812 -0.1436  0.6704  0.4079
 3683TIP3    H132608   0.341   3.377   8.903  1.4764  1.0363  0.9294
 3683TIP3    H232609   0.282   3.388   8.764 -0.8662 -0.4544  1.7559
 3684TIP3   OH232610   0.421   5.792   8.804  0.3037  0.1685  0.4787
 3684TIP3    H132611   0.330   5.819   8.805  0.3938  0.4739  1.4375
 3684TIP3    H232612   0.421   5.708   8.760 -0.4362  0.1811  0.4491
 3685TIP3   OH232613   4.996   1.697   1.934 -0.4184 -0.1448 -0.2755
 3685TIP3    H132614   4.946   1.725   2.011 -1.9588 -3.4054  0.0882
 3685TIP3    H232615   5.084   1.681   1.967 -0.2973  1.1781  0.1187
 3686TIP3   OH232616   5.411   5.083   2.192 -0.4203 -0.0797 -0.7340
 3686TIP3    H132617   5.504   5.072   2.173 -0.2901  0.7477 -0.6098
 3686TIP3    H232618   5.388   5.007   2.245  0.0088 -0.6572 -1.3516
 3687TIP3   OH232619   1.264   1.857   2.431 -1.0123  0.2081  0.1278
 3687TIP3    H132620   1.193   1.802   2.460 -0.1487  0.1366  2.2542
 3687TIP3    H232621   1.340   1.828   2.481  0.5916  0.2180 -2.0998
 3688TIP3   OH232622   4.208   3.114   0.080  0.9503  0.3705 -0.0596
 3688TIP3    H132623   4.139   3.109   0.014 -1.8441  4.1318  2.1493
 3688TIP3    H232624   4.168   3.081   0.161  2.5756  0.4639  0.8434
 3689TIP3   OH232625   5.984   3.153   7.963 -0.0833 -0.0102  0.5897
 3689TIP3    H132626   6.075   3.179   7.975 -0.1746  0.6979 -0.1590
 3689TIP3    H232627   5.933   3.222   8.004 -0.3148  0.8149 -0.9914
 3690TIP3   OH232628   0.972   6.118   1.077 -0.0620  0.5156 -0.4682
 3690TIP3    H132629   1.065   6.116   1.099  0.0120  0.4387 -0.7794
 3690TIP3    H232630   0.936   6.189   1.130  0.1702  0.5307 -0.3307
 3691TIP3   OH232631   6.093   6.272   1.965 -0.6507  0.4302  0.1842
 3691TIP3    H132632   6.188   6.268   1.967 -0.6661 -2.2420  2.6139
 3691TIP3    H232633   6.071   6.333   2.035 -0.5773 -2.6281  3.1403
 3692TIP3   OH232634   4.650   3.465   8.771  0.0833  0.0134  0.5342
 3692TIP3    H132635   4.744   3.464   8.787  0.2505 -0.4229 -0.4052
 3692TIP3    H232636   4.610   3.461   8.858  0.9200  1.5151  1.0193
 3693TIP3   OH232637   6.514   4.106   8.400  0.0158 -0.4554  0.2737
 3693TIP3    H132638   6.437   4.112   8.457  1.1179  2.8335  1.6702
 3693TIP3    H232639   6.479   4.116   8.312 -1.2281  2.1662  0.9393
 3694TIP3   OH232640   0.553   1.470   8.202  0.5806 -0.0171 -0.1399
 3694TIP3    H132641   0.620   1.506   8.144  0.0931 -0.7972 -1.2180
 3694TIP3    H232642   0.584   1.382   8.222  0.6642  0.1883  0.6846
 3695TIP3   OH232643   1.861   4.014   2.246  0.1313 -0.6619  0.3542
 3695TIP3    H132644   1.839   4.001   2.338 -0.1874  0.0168  0.3859
 3695TIP3    H232645   1.920   4.090   2.246 -2.1517  1.2562 -0.2069
 3696TIP3   OH232646   5.099   5.748   3.588  0.1602  0.1600  0.1109
 3696TIP3    H132647   5.079   5.769   3.497  0.2924 -0.8204 -0.1499
 3696TIP3    H232648   5.013   5.728   3.627  0.2182 -0.5008 -0.0871
 3697TIP3   OH232649   4.697   4.887   0.346  0.3676 -1.0095  0.2220
 3697TIP3    H132650   4.789   4.896   0.370  0.8148 -3.0167 -0.4883
 3697TIP3    H232651   4.675   4.798   0.374 -1.2665 -0.6772  0.0593
 3698TIP3   OH232652   5.308   4.336   8.798 -0.5762  0.4242 -0.6452
 3698TIP3    H132653   5.221   4.327   8.758 -0.3621 -2.4540 -0.6620
 3698TIP3    H232654   5.369   4.317   8.727  0.0219  0.7040 -0.2163
 3699TIP3   OH232655   3.372   6.533   8.283 -0.3514  0.5096  0.3306
 3699TIP3    H132656   3.376   6.442   8.254  0.3187  0.4508  0.5925
 3699TIP3    H232657   3.280   6.547   8.305 -0.3355 -0.3059  0.9392
 3700TIP3   OH232658   6.330   5.278   1.549  0.1210  0.0344 -0.0429
 3700TIP3    H132659   6.302   5.192   1.518  1.1074 -1.6958  3.3851
 3700TIP3    H232660   6.253   5.315   1.592 -0.1815  0.7228 -1.1425
 3701TIP3   OH232661   2.097   0.544   1.253  0.4201 -0.3517  0.0797
 3701TIP3    H132662   2.074   0.592   1.333  1.2899  0.6589 -0.2584
 3701TIP3    H232663   2.182   0.578   1.228  1.2885 -2.3808  0.0502
 3702TIP3   OH232664   4.707   1.210   2.364  0.0282  0.3659 -0.1496
 3702TIP3    H132665   4.641   1.144   2.341 -0.3168  1.2122 -1.7148
 3702TIP3    H232666   4.658   1.280   2.407 -0.1020  0.9419 -1.2067
 3703TIP3   OH232667   3.813   3.876   0.507  0.3339 -0.1619  0.4860
 3703TIP3    H132668   3.784   3.882   0.416  0.7556  1.4102  0.4329
 3703TIP3    H232669   3.732   3.883   0.558  0.1958 -0.0013  0.2456
 3704TIP3   OH232670   4.744   0.698   7.873  0.1209 -0.2440 -0.3530
 3704TIP3    H132671   4.832   0.730   7.896  0.4508  0.1838 -2.0639
 3704TIP3    H232672   4.747   0.604   7.893  0.9210 -0.1989 -0.2161
 3705TIP3   OH232673   2.653   6.391   1.671  0.3238 -0.2727 -0.2193
 3705TIP3    H132674   2.688   6.364   1.586 -0.8213  0.1428 -0.8486
 3705TIP3    H232675   2.682   6.481   1.681  2.2642 -0.9725  0.8484
 3706TIP3   OH232676   2.225   4.717   8.355 -0.5509 -0.4197  0.3192
 3706TIP3    H132677   2.232   4.737   8.261  0.3185 -0.5880  0.3404
 3706TIP3    H232678   2.294   4.769   8.396 -1.6341  0.5121  1.0195
 3707TIP3   OH232679   3.017   1.859   7.610 -0.1939 -0.2782 -0.6409
 3707TIP3    H132680   3.019   1.857   7.514  2.5088 -1.4425 -0.6705
 3707TIP3    H232681   3.074   1.787   7.636  1.6745  1.8600  1.7470
 3708TIP3   OH232682   5.273   3.614   1.260 -0.4482  0.5387 -0.6721
 3708TIP3    H132683   5.257   3.604   1.166 -1.5011 -1.9046 -0.2842
 3708TIP3    H232684   5.334   3.544   1.282 -1.4828  0.0499  0.7607
 3709TIP3   OH232685   3.503   4.440   1.172  0.1342  0.0064 -0.2156
 3709TIP3    H132686   3.453   4.482   1.102 -0.5966 -1.8423 -0.8695
 3709TIP3    H232687   3.595   4.456   1.148  0.0425  3.7037  1.1690
 3710TIP3   OH232688   5.083   6.326   0.416 -0.3110  0.3952 -0.7763
 3710TIP3    H132689   5.070   6.421   0.419  0.5411  0.5186 -0.9005
 3710TIP3    H232690   5.139   6.307   0.491 -0.1009  0.0511 -1.0191
 3711TIP3   OH232691   0.066   4.320   1.842 -0.4798 -0.1028 -0.1518
 3711TIP3    H132692  -0.013   4.285   1.802  0.2236  0.5257 -2.2297
 3711TIP3    H232693   0.062   4.414   1.826 -0.0721  0.1644  1.1664
 3712TIP3   OH232694   2.507   4.781   1.603 -0.1665 -0.4434  0.0401
 3712TIP3    H132695   2.594   4.815   1.624  0.1456 -0.2729 -1.3972
 3712TIP3    H232696   2.475   4.840   1.535 -1.2971 -0.6818  0.3473
 3713TIP3   OH232697   3.712   2.486   2.355 -0.0125  0.3027 -0.3759
 3713TIP3    H132698   3.731   2.545   2.282  1.2768 -1.2159 -1.3399
 3713TIP3    H232699   3.786   2.496   2.414 -0.0549  0.0526 -0.2794
 3714TIP3   OH232700   5.732   0.090   0.582  0.2672  0.2888 -0.0301
 3714TIP3    H132701   5.716   0.106   0.489  0.1906  1.1922  0.1305
 3714TIP3    H232702   5.794   0.018   0.584 -0.3538 -0.2857 -0.7635
 3715TIP3   OH232703   2.228   3.987   2.704  0.2112  0.2149 -0.0786
 3715TIP3    H132704   2.186   3.982   2.790 -1.3794 -1.9950 -0.9134
 3715TIP3    H232705   2.177   4.051   2.655 -0.0736  0.0579  0.0123
 3716TIP3   OH232706   2.576   2.830   1.638  0.2769 -0.0548 -0.0169
 3716TIP3    H132707   2.656   2.805   1.684  1.0333 -0.8580 -1.7016
 3716TIP3    H232708   2.532   2.747   1.619 -0.4334  0.3159 -0.0473
 3717TIP3   OH232709   4.327   1.542   0.817 -0.3555  0.3687 -0.0731
 3717TIP3    H132710   4.388   1.549   0.890 -0.8440  1.2777  0.2585
 3717TIP3    H232711   4.380   1.558   0.740 -0.1883  1.2939  0.2212
 3718TIP3   OH232712   4.057   5.847   8.287  0.2286  0.5270 -0.0917
 3718TIP3    H132713   4.013   5.888   8.212  0.1066  1.0810  0.2702
 3718TIP3    H232714   4.063   5.918   8.352  1.8250  0.5241 -0.2008
 3719TIP3   OH232715   6.245   4.047   2.592 -0.2557  0.0868 -0.8222
 3719TIP3    H132716   6.322   4.036   2.537  0.4964 -0.0909  0.2283
 3719TIP3    H232717   6.212   4.134   2.570  2.0128  1.4615  0.7743
 3720TIP3   OH232718   6.494   3.886   1.046 -0.4469  0.2713  0.3438
 3720TIP3    H132719   6.577   3.854   1.010 -0.9498  0.4615 -1.0733
 3720TIP3    H232720   6.520   3.958   1.104  0.4164 -0.0061  0.3195
 3721TIP3   OH232721   1.648   1.118   8.519 -0.4153 -0.1225  0.0045
 3721TIP3    H132722   1.703   1.058   8.570 -1.0377 -0.2414  0.5507
 3721TIP3    H232723   1.634   1.192   8.577  0.0460  0.3942 -0.5347
 3722TIP3   OH232724   1.032   4.902   7.549 -0.5239 -0.2789 -0.0324
 3722TIP3    H132725   1.083   4.825   7.574 -1.2298 -0.2257  1.7325
 3722TIP3    H232726   1.085   4.945   7.482 -0.0933 -2.2522 -1.0161
 3723TIP3   OH232727   4.842   4.034   2.429 -0.1274  0.4741 -0.3640
 3723TIP3    H132728   4.882   3.948   2.419 -0.3382  0.3313  0.0048
 3723TIP3    H232729   4.916   4.092   2.451  0.1796  0.5976 -1.6604
 3724TIP3   OH232730   0.757   3.177   0.670  0.2384  0.4420 -0.2377
 3724TIP3    H132731   0.797   3.117   0.607  0.2416 -0.1211  0.2861
 3724TIP3    H232732   0.725   3.250   0.618  1.8635  0.8629 -0.6818
 3725TIP3   OH232733   1.813   6.122   1.774  0.1102  0.0012  0.3478
 3725TIP3    H132734   1.758   6.078   1.839 -0.6306  0.7436  0.2434
 3725TIP3    H232735   1.761   6.198   1.746  0.9165  0.3507 -0.2425
 3726TIP3   OH232736   6.624   5.331   0.956  0.6692  0.7976  0.9839
 3726TIP3    H132737   6.616   5.426   0.959  2.0248  1.0263 -0.8239
 3726TIP3    H232738   6.709   5.315   0.913  0.1354 -1.2094  0.5478
 3727TIP3   OH232739   5.694   1.870   1.034 -0.3935  0.2619  0.1954
 3727TIP3    H132740   5.782   1.866   1.073  0.3812 -1.0118 -1.5939
 3727TIP3    H232741   5.654   1.786   1.057  0.0440 -0.4726 -1.6189
 3728TIP3   OH232742   3.750   6.102   7.792 -0.7352  0.6485 -0.2553
 3728TIP3    H132743   3.669   6.061   7.822 -1.5589  1.4032 -1.3422
 3728TIP3    H232744   3.819   6.055   7.837 -1.7779 -0.0195  0.7086
 3729TIP3   OH232745   3.529   5.988   2.673  0.3329 -0.0568 -0.4173
 3729TIP3    H132746   3.448   6.039   2.664  0.1613 -0.5373 -1.7992
 3729TIP3    H232747   3.599   6.049   2.651  0.1539 -0.2830 -1.6869
 3730TIP3   OH232748   1.196   0.093   8.855 -0.2791 -0.0646  0.1836
 3730TIP3    H132749   1.264   0.160   8.860 -0.5799  0.2070  0.6544
 3730TIP3    H232750   1.207   0.054   8.768  0.3078  0.1561  0.1551
 3731TIP3   OH232751   5.006   0.795   7.875 -0.4275  0.1469 -0.0584
 3731TIP3    H132752   5.035   0.715   7.919 -0.1474  1.1963  1.7555
 3731TIP3    H232753   5.052   0.793   7.791  0.1816 -1.2035  0.2709
 3732TIP3   OH232754   4.554   3.355   1.892 -0.5852 -0.1767 -0.2784
 3732TIP3    H132755   4.476   3.398   1.857 -0.4634  0.4096  0.1498
 3732TIP3    H232756   4.620   3.425   1.896 -0.2279 -0.5200 -0.0497
 3733TIP3   OH232757   6.331   0.686   1.533 -0.0227 -0.0323 -0.3751
 3733TIP3    H132758   6.285   0.604   1.512 -0.7170  0.4089 -0.6154
 3733TIP3    H232759   6.396   0.695   1.463 -0.9439  0.3701 -1.2080
 3734TIP3   OH232760   6.301   1.102   8.911  0.1711 -0.1107  0.3219
 3734TIP3    H132761   6.232   1.068   8.853  0.5256  0.7233 -0.6125
 3734TIP3    H232762   6.381   1.098   8.858  1.0571 -1.9009  1.6791
 3735TIP3   OH232763   6.482   1.434   2.647  0.2675 -0.5103 -0.7631
 3735TIP3    H132764   6.414   1.491   2.682  1.1003 -0.4086  0.8118
 3735TIP3    H232765   6.438   1.352   2.627 -0.4844 -0.1268 -0.7020
 3736TIP3   OH232766   6.572   4.161   1.734 -0.2364 -0.2200 -0.6382
 3736TIP3    H132767   6.515   4.100   1.687  0.6144 -0.6107 -1.1803
 3736TIP3    H232768   6.526   4.176   1.817 -0.4271 -1.6681 -0.4528
 3737TIP3   OH232769   6.694   5.866   1.145 -0.2244 -0.3301  0.2333
 3737TIP3    H132770   6.772   5.921   1.157 -0.2231 -0.5167  1.1390
 3737TIP3    H232771   6.679   5.826   1.231 -2.5748  1.3457  0.6885
 3738TIP3   OH232772   5.867   0.907   3.093 -0.0511  0.4308  0.4137
 3738TIP3    H132773   5.960   0.894   3.075  0.1489 -0.3661  1.8680
 3738TIP3    H232774   5.861   0.909   3.189 -1.5797  0.0264  0.3518
 3739TIP3   OH232775   6.308   5.026   0.509  0.1422 -0.5290  0.1959
 3739TIP3    H132776   6.335   5.057   0.595 -1.3195  0.4970  0.3365
 3739TIP3    H232777   6.275   5.104   0.465 -0.5138 -1.3026 -0.7310
 3740TIP3   OH232778   1.566   1.060   3.073  0.0853  0.0759 -0.0126
 3740TIP3    H132779   1.520   1.098   3.147  0.0495  0.2619 -0.1320
 3740TIP3    H232780   1.656   1.048   3.105  0.2762  0.9304 -0.2105
 3741TIP3   OH232781   4.020   5.227   1.081  0.8302 -0.1882  0.1629
 3741TIP3    H132782   3.969   5.307   1.065  1.9912  0.8384  1.3012
 3741TIP3    H232783   4.063   5.209   0.997 -0.5519 -0.4692 -0.5051
 3742TIP3   OH232784   4.425   2.396   8.504 -0.5522  0.0633  0.8789
 3742TIP3    H132785   4.401   2.462   8.569 -1.2083  0.0324  0.6745
 3742TIP3    H232786   4.414   2.312   8.548  1.1242  0.0954  1.4199
 3743TIP3   OH232787   6.310   2.389   1.336  0.1907 -0.1735  0.7105
 3743TIP3    H132788   6.360   2.333   1.278 -0.8976  1.2399 -1.7678
 3743TIP3    H232789   6.239   2.333   1.369  0.0847 -0.6872 -0.3654
 3744TIP3   OH232790   5.901   2.385   1.540  0.1986  0.2104 -0.4052
 3744TIP3    H132791   5.990   2.404   1.568  0.3122 -0.7349 -0.0982
 3744TIP3    H232792   5.880   2.301   1.580 -1.4317  1.1767  0.9228
 3745TIP3   OH232793   2.410   1.306   1.417 -0.0426 -0.1634 -0.4838
 3745TIP3    H132794   2.488   1.272   1.374  0.3592  2.3069 -1.8841
 3745TIP3    H232795   2.436   1.319   1.508  0.5024 -1.2731 -0.4703
 3746TIP3   OH232796   0.486   3.465   1.034 -0.0428 -0.6773 -0.2156
 3746TIP3    H132797   0.462   3.479   1.126  0.4945 -0.2563 -0.1376
 3746TIP3    H232798   0.569   3.417   1.038  0.1237 -0.4152 -0.4788
 3747TIP3   OH232799   3.191   3.589   1.046  0.1377 -0.0917  0.2275
 3747TIP3    H132800   3.121   3.636   1.000 -0.3065  0.2446  1.2264
 3747TIP3    H232801   3.161   3.498   1.050 -0.2053  0.0426  0.6061
 3748TIP3   OH232802   5.075   6.664   3.155 -0.4980  0.4051  0.2243
 3748TIP3    H132803   5.052   6.720   3.081  0.3780 -0.7903 -0.9904
 3748TIP3    H232804   4.993   6.649   3.201 -1.1218  0.8359 -0.7414
 3749TIP3   OH232805   5.318   5.274   8.845 -0.2819  0.2509  0.0099
 3749TIP3    H132806   5.298   5.181   8.838  0.5907 -0.1220  1.9194
 3749TIP3    H232807   5.381   5.290   8.775  1.1158 -1.1001  0.9060
 3750TIP3   OH232808   2.596   3.317   1.319 -0.4097 -0.2132 -1.1026
 3750TIP3    H132809   2.657   3.386   1.294  0.2648 -0.9073 -1.3975
 3750TIP3    H232810   2.614   3.245   1.258 -1.1837 -0.6121 -0.8783
 3751TIP3   OH232811   0.187   3.931   8.625 -0.1033  0.1233  0.4384
 3751TIP3    H132812   0.198   3.884   8.708 -0.5275  1.7706  1.4724
 3751TIP3    H232813   0.258   3.994   8.623  0.4956 -0.5477 -0.9643
 3752TIP3   OH232814   1.892   0.451   8.612 -0.0306 -0.3547  0.3270
 3752TIP3    H132815   1.851   0.444   8.526  1.3832  0.2002 -0.4124
 3752TIP3    H232816   1.838   0.396   8.669 -0.9217 -0.8051 -0.9224
 3753TIP3   OH232817   4.980   0.384   0.986  0.2868 -0.0629  0.0100
 3753TIP3    H132818   5.064   0.342   1.006 -0.0520 -0.0745  1.5141
 3753TIP3    H232819   4.921   0.352   1.054 -0.7138  0.6499 -0.5067
 3754TIP3   OH232820   4.501   1.461   1.865 -0.6424 -0.0026  0.2749
 3754TIP3    H132821   4.587   1.441   1.828  0.7720  0.4295  3.0658
 3754TIP3    H232822   4.454   1.506   1.794  0.5418 -2.1688 -2.0539
 3755TIP3   OH232823   3.022   2.295   0.463 -0.5076 -0.5328 -0.1052
 3755TIP3    H132824   3.103   2.308   0.512 -1.7738 -1.4816  2.4836
 3755TIP3    H232825   3.049   2.261   0.378  1.8438  0.8687  0.0160
 3756TIP3   OH232826   6.691   1.745   2.766  0.1114  0.2123 -0.0531
 3756TIP3    H132827   6.646   1.784   2.691 -1.0243  2.8634  1.8163
 3756TIP3    H232828   6.756   1.811   2.791 -0.7024  0.2446  2.2361
 3757TIP3   OH232829   1.636   3.910   1.897  0.0138  0.5039  0.2315
 3757TIP3    H132830   1.690   3.962   1.956  1.1731 -0.3841 -0.0246
 3757TIP3    H232831   1.668   3.932   1.810 -2.5017  2.7610 -0.2810
 3758TIP3   OH232832   1.082   1.973   1.394 -0.2053 -0.1706  0.0272
 3758TIP3    H132833   1.147   2.029   1.352 -0.8148  2.1362  1.9207
 3758TIP3    H232834   0.998   2.006   1.362 -0.6088  0.6551  1.7951
 3759TIP3   OH232835   5.299   5.680   8.425  0.0114  0.3973 -0.2079
 3759TIP3    H132836   5.285   5.771   8.400  0.2822  0.0409 -1.7327
 3759TIP3    H232837   5.245   5.630   8.364  0.1377 -0.4937  0.3964
 3760TIP3   OH232838   4.289   3.516   7.629 -0.9979 -0.5046 -0.8100
 3760TIP3    H132839   4.265   3.430   7.666 -0.7872 -0.3063 -0.1871
 3760TIP3    H232840   4.237   3.579   7.679  0.2217 -0.1299  0.0669
 3761TIP3   OH232841   2.836   2.253   0.880  0.0656 -0.1043 -0.2865
 3761TIP3    H132842   2.767   2.313   0.852  1.4060  0.1537 -3.4370
 3761TIP3    H232843   2.850   2.195   0.805  3.0022 -0.3914  0.3441
 3762TIP3   OH232844   2.366   4.381   2.845  0.2836  0.2007 -0.1082
 3762TIP3    H132845   2.388   4.290   2.865  1.7749  0.8343  1.4330
 3762TIP3    H232846   2.403   4.397   2.758  0.8286 -0.4188  0.0047
 3763TIP3   OH232847   1.044   2.576   8.437 -0.3061  0.1220  0.5453
 3763TIP3    H132848   1.023   2.485   8.460  0.4470  0.3774  2.4290
 3763TIP3    H232849   1.073   2.571   8.346 -2.4783 -1.1344 -0.1424
 3764TIP3   OH232850   4.974   2.046   0.988  0.4991 -0.5774 -0.2171
 3764TIP3    H132851   4.935   2.098   1.059  0.7312  0.7457 -1.0289
 3764TIP3    H232852   4.933   1.960   0.997 -0.5179 -0.0331  0.6650
 3765TIP3   OH232853   2.458   0.590   1.790  0.2134 -0.4943 -0.2966
 3765TIP3    H132854   2.470   0.619   1.700 -0.8601 -1.2403 -0.7019
 3765TIP3    H232855   2.546   0.582   1.825  0.6446 -0.2969 -1.3152
 3766TIP3   OH232856   0.647   4.605   8.492  0.0370 -0.1531 -0.0114
 3766TIP3    H132857   0.570   4.612   8.549 -0.6111 -1.8160 -0.6328
 3766TIP3    H232858   0.631   4.527   8.438  1.9444 -0.2859 -0.4751
 3767TIP3   OH232859   6.029   6.062   8.973  0.1461 -0.1706 -0.0364
 3767TIP3    H132860   5.967   5.995   8.944  0.4327 -0.0904 -0.8607
 3767TIP3    H232861   6.019   6.064   9.068 -0.3335 -0.9228 -0.0594
 3768TIP3   OH232862   0.993   5.797   1.934  0.1679  0.3262 -0.2096
 3768TIP3    H132863   0.997   5.803   1.838  0.1094 -0.8994 -0.3063
 3768TIP3    H232864   1.024   5.882   1.965 -0.5572  1.0161 -1.3281
 3769TIP3   OH232865   3.074   5.553   7.876  0.2447  0.2260  0.0500
 3769TIP3    H132866   2.989   5.520   7.905  0.0334  0.8468  0.1390
 3769TIP3    H232867   3.132   5.477   7.883 -0.3783 -0.2984 -0.3711
 3770TIP3   OH232868   1.593   5.131   2.533  0.3996 -0.1574  0.0985
 3770TIP3    H132869   1.555   5.174   2.456 -0.3903  0.7301  0.9519
 3770TIP3    H232870   1.530   5.065   2.558 -0.5500  1.1734  1.3896
 3771TIP3   OH232871   4.399   5.336   1.768  0.5125 -0.0812  0.5732
 3771TIP3    H132872   4.445   5.379   1.840 -0.3492  3.1635 -0.6862
 3771TIP3    H232873   4.456   5.349   1.692 -0.8687  0.9907 -0.3110
 3772TIP3   OH232874   3.575   2.843   0.646  0.5446 -0.0874 -0.5630
 3772TIP3    H132875   3.646   2.812   0.589  0.8604 -0.3844 -0.0150
 3772TIP3    H232876   3.508   2.774   0.641  1.3272 -1.0028  0.8060
 3773TIP3   OH232877   5.445   5.389   7.397 -0.1451  0.6543  0.5265
 3773TIP3    H132878   5.426   5.455   7.464 -1.0467  1.6341 -0.6400
 3773TIP3    H232879   5.517   5.427   7.346 -0.2940  0.4861  0.1891
 3774TIP3   OH232880   0.554   0.990   2.398 -0.0665  0.2829  0.4844
 3774TIP3    H132881   0.500   0.958   2.326 -2.3835  1.5043  1.5947
 3774TIP3    H232882   0.517   0.950   2.477  2.4259 -1.0380  1.0904
 3775TIP3   OH232883   4.258   0.036   8.613  0.0253  0.4571  0.7168
 3775TIP3    H132884   4.345   0.075   8.622 -0.5293  2.1132 -0.6515
 3775TIP3    H232885   4.204   0.106   8.576 -1.9211 -0.5071  1.6038
 3776TIP3   OH232886   1.952   3.886   8.486 -0.4922  0.4832 -0.1978
 3776TIP3    H132887   2.034   3.889   8.438 -1.3526 -1.7677 -1.9984
 3776TIP3    H232888   1.978   3.893   8.578  1.9006 -1.5788 -0.5925
 3777TIP3   OH232889   5.818   4.049   8.880  0.2120 -0.1806 -0.1406
 3777TIP3    H132890   5.766   4.008   8.949  1.6836  0.6764  1.5866
 3777TIP3    H232891   5.864   3.976   8.838 -0.2256 -0.6667  0.2123
 3778TIP3   OH232892   3.713   1.896   1.561 -0.2132 -0.2670 -0.0965
 3778TIP3    H132893   3.788   1.844   1.531  0.1177  0.8809 -1.3540
 3778TIP3    H232894   3.640   1.866   1.507 -0.3881 -0.5288  0.2819
 3779TIP3   OH232895   3.217   1.351   8.247 -0.9201  0.2191  0.1561
 3779TIP3    H132896   3.164   1.300   8.309 -0.4083  1.4560  1.6755
 3779TIP3    H232897   3.209   1.304   8.165 -3.6948 -0.1365  0.5219
 3780TIP3   OH232898   6.526   3.477   8.671 -0.2880  0.2253  0.6845
 3780TIP3    H132899   6.525   3.462   8.577 -0.9070 -1.1334  0.8803
 3780TIP3    H232900   6.477   3.404   8.707  1.8458 -0.5166  2.2499
 3781TIP3   OH232901   3.902   5.746   0.842  0.1690 -0.1799 -0.2340
 3781TIP3    H132902   3.843   5.672   0.827 -0.5011  0.7395 -2.5195
 3781TIP3    H232903   3.971   5.711   0.898  0.2040 -2.7150 -1.7215
 3782TIP3   OH232904   0.851   2.611   8.758  0.2775 -0.0070  0.4804
 3782TIP3    H132905   0.877   2.541   8.699  0.6169  0.2093  0.3686
 3782TIP3    H232906   0.760   2.592   8.780  0.3435 -0.4317  0.3834
 3783TIP3   OH232907   6.030   5.261   1.391  0.3456  0.4817 -0.7478
 3783TIP3    H132908   6.100   5.229   1.335  1.7668  0.9234  0.7002
 3783TIP3    H232909   6.036   5.356   1.385 -0.9698  0.5474 -1.5609
 3784TIP3   OH232910   4.242   1.193   3.039  0.8505 -0.9229 -0.6758
 3784TIP3    H132911   4.225   1.283   3.011 -0.3201  0.1029  2.7250
 3784TIP3    H232912   4.334   1.178   3.021  1.2504  1.2603 -0.6675
 3785TIP3   OH232913   0.143   4.489   0.585 -0.6309  0.5701 -0.2211
 3785TIP3    H132914   0.068   4.430   0.590  0.1229 -0.3165  1.5566
 3785TIP3    H232915   0.199   4.450   0.517  0.7351 -1.9561  2.1766
 3786TIP3   OH232916   4.633   1.914   0.602  0.2435 -0.0059  0.0590
 3786TIP3    H132917   4.677   1.998   0.588  1.1339 -0.7063 -1.7627
 3786TIP3    H232918   4.542   1.937   0.619  0.6572  1.3617  0.5481
 3787TIP3   OH232919   1.809   4.285   3.226  0.3330 -0.0497  0.2121
 3787TIP3    H132920   1.866   4.213   3.252 -1.0121 -0.4197  2.3380
 3787TIP3    H232921   1.844   4.362   3.272  1.1291  0.4723 -1.2089
 3788TIP3   OH232922   4.015   6.658   1.656 -0.2170 -0.5577  0.5196
 3788TIP3    H132923   4.015   6.653   1.561 -1.4938 -1.7201  0.5493
 3788TIP3    H232924   4.094   6.708   1.678 -0.3254  0.4135 -1.1624
 3789TIP3   OH232925   3.846   0.735   2.328 -0.1152  0.7632 -0.2706
 3789TIP3    H132926   3.923   0.784   2.357 -0.6503  0.7437  1.3263
 3789TIP3    H232927   3.872   0.695   2.246  2.6355 -1.6172  1.5505
 3790TIP3   OH232928   1.673   3.949   1.265 -0.3405  0.3844  0.3508
 3790TIP3    H132929   1.732   3.889   1.221  0.6803  1.5348  0.0796
 3790TIP3    H232930   1.586   3.924   1.236  0.1153 -0.5661 -0.2176
 3791TIP3   OH232931   0.581   1.280   1.142 -0.3746  0.0356  0.1627
 3791TIP3    H132932   0.504   1.236   1.179 -0.1620 -1.1042 -0.6626
 3791TIP3    H232933   0.545   1.351   1.089 -0.9780 -1.1867 -1.1511
 3792TIP3   OH232934   3.018   1.092   3.502  0.1718  0.7244  0.2381
 3792TIP3    H132935   2.955   1.164   3.500 -0.5215  0.1804  1.3456
 3792TIP3    H232936   2.973   1.019   3.459  0.6634  0.7710 -0.3819
 3793TIP3   OH232937   6.562   5.307   2.604 -0.0015 -0.3751  0.2488
 3793TIP3    H132938   6.642   5.314   2.656 -0.3571  2.5115  0.5576
 3793TIP3    H232939   6.593   5.297   2.514  0.7230  0.6872  0.3695
 3794TIP3   OH232940   4.374   4.857   0.678 -0.3707 -0.5566  0.1009
 3794TIP3    H132941   4.366   4.850   0.773 -1.0557 -0.6679  0.0378
 3794TIP3    H232942   4.469   4.858   0.662 -0.2451 -1.3974  0.7218
 3795TIP3   OH232943   2.153   0.866   1.748  0.2642  0.4409  0.0763
 3795TIP3    H132944   2.246   0.868   1.772  0.0707 -2.1587  1.3491
 3795TIP3    H232945   2.154   0.851   1.653  1.1488  0.7552  0.0216
 3796TIP3   OH232946   3.634   2.397   8.014 -0.2524  0.3909 -0.6955
 3796TIP3    H132947   3.713   2.372   7.966  1.6477  0.5002  2.1566
 3796TIP3    H232948   3.605   2.478   7.972  2.1812  1.2883 -0.8115
 3797TIP3   OH232949   4.441   5.865   2.701 -0.1603  0.2591  0.1663
 3797TIP3    H132950   4.426   5.786   2.752  1.5476  0.7319  1.5323
 3797TIP3    H232951   4.471   5.834   2.615 -2.1467 -0.5434 -0.2730
 3798TIP3   OH232952   1.006   4.631   2.467  0.1385 -0.2991  0.1077
 3798TIP3    H132953   0.962   4.565   2.414  0.8989 -1.1345  0.4802
 3798TIP3    H232954   0.955   4.636   2.548 -0.6584  0.5201 -0.4277
 3799TIP3   OH232955   4.281   1.580   1.723 -0.0396 -0.2769 -0.0971
 3799TIP3    H132956   4.214   1.612   1.783 -1.4918  2.1431 -2.8260
 3799TIP3    H232957   4.247   1.496   1.691  0.3516 -1.1632  1.6260
 3800TIP3   OH232958   4.258   6.174   1.386  0.2002  0.1599  0.1091
 3800TIP3    H132959   4.227   6.144   1.301  2.4435 -0.0043 -0.7184
 3800TIP3    H232960   4.178   6.197   1.434 -1.1068  1.0419 -2.2962
 3801TIP3   OH232961   3.667   5.346   7.899  0.0187 -0.1188 -0.2078
 3801TIP3    H132962   3.644   5.278   7.963  0.9048  1.5050  1.9688
 3801TIP3    H232963   3.609   5.330   7.825 -0.2131 -2.8544  0.4654
 3802TIP3   OH232964   2.437   2.356   0.578 -0.1462  0.0685 -0.1161
 3802TIP3    H132965   2.381   2.412   0.525 -0.2666  0.3219  0.2792
 3802TIP3    H232966   2.450   2.278   0.524 -1.7150 -0.4429  0.1920
 3803TIP3   OH232967   2.911   4.023   0.746 -0.3816 -0.1556  0.3992
 3803TIP3    H132968   2.998   4.054   0.773 -0.6907  0.6372  0.5086
 3803TIP3    H232969   2.900   3.940   0.793  0.1657 -0.0771  0.6779
 3804TIP3   OH232970   0.132   6.317   8.824  0.2425  0.3718 -0.1219
 3804TIP3    H132971   0.121   6.384   8.757 -1.6614  0.0351 -0.2077
 3804TIP3    H232972   0.082   6.242   8.791 -1.5544  0.5053  2.0574
 3805TIP3   OH232973   3.464   2.771   2.019  0.5116 -0.3166  0.7460
 3805TIP3    H132974   3.446   2.713   2.093 -0.9496  0.8406  1.3398
 3805TIP3    H232975   3.378   2.798   1.988  1.1047 -0.6930 -1.3446
 3806TIP3   OH232976   0.269   4.324   2.354  0.5629 -0.3091  0.1633
 3806TIP3    H132977   0.357   4.327   2.393  0.4978 -0.3031  0.3097
 3806TIP3    H232978   0.210   4.326   2.429  0.4625 -1.9214  0.1549
 3807TIP3   OH232979   2.443   0.224   7.614 -0.3102 -0.4905  0.1934
 3807TIP3    H132980   2.461   0.262   7.528 -0.6720  0.3409  0.4698
 3807TIP3    H232981   2.437   0.130   7.598  2.1037 -0.6095 -0.2631
 3808TIP3   OH232982   2.840   3.459   8.260  0.4747  0.6469 -0.1693
 3808TIP3    H132983   2.916   3.495   8.215  0.4703  0.5180 -0.2803
 3808TIP3    H232984   2.807   3.532   8.313  0.1468  0.9705 -0.8093
 3809TIP3   OH232985   2.462   3.022   2.311  0.3516  0.1567  0.2423
 3809TIP3    H132986   2.387   2.962   2.313  0.1663  0.3901  1.6433
 3809TIP3    H232987   2.440   3.090   2.376  1.8220  0.1544  0.7810
 3810TIP3   OH232988   1.244   1.274   1.126  0.3434 -0.7029  0.8954
 3810TIP3    H132989   1.271   1.300   1.214  2.4267  1.2058 -0.2006
 3810TIP3    H232990   1.310   1.209   1.099  0.3546 -0.4681  0.3545
 3811TIP3   OH232991   5.975   1.885   3.096  0.4092 -0.7410  0.2564
 3811TIP3    H132992   6.021   1.801   3.102  2.5143 -0.0747 -3.2981
 3811TIP3    H232993   6.030   1.947   3.143 -0.5899 -1.0900  1.9574
 3812TIP3   OH232994   0.108   6.665   2.877 -0.0378 -0.1555  0.1357
 3812TIP3    H132995   0.021   6.637   2.905 -0.2786 -1.4130 -1.6926
 3812TIP3    H232996   0.167   6.626   2.942 -0.8039  0.8554  1.4897
 3813TIP3   OH232997   1.183   0.493   1.596 -0.1232 -0.2677  0.0525
 3813TIP3    H132998   1.259   0.527   1.643 -1.2216  3.2178 -0.4137
 3813TIP3    H232999   1.207   0.498   1.503 -0.3124 -0.8475 -0.0336
 3814TIP3   OH233000   1.952   2.688   7.699  0.5101  0.6617 -0.1606
 3814TIP3    H133001   2.012   2.692   7.773  1.1218 -1.0247 -0.5261
 3814TIP3    H233002   1.946   2.778   7.668  2.8290  0.8999 -0.0851
 3815TIP3   OH233003   6.135   5.220   8.854 -0.4020 -0.7737  0.3635
 3815TIP3    H133004   6.171   5.185   8.936  0.2936 -0.4833  0.1926
 3815TIP3    H233005   6.203   5.202   8.790 -0.8898 -0.8765 -0.1272
 3816TIP3   OH233006   3.162   5.967   0.753 -0.0764 -0.1999 -0.2182
 3816TIP3    H133007   3.140   6.039   0.811  1.5337 -0.1541  0.4042
 3816TIP3    H233008   3.200   5.900   0.810 -1.6663 -1.6366 -0.7570
 3817TIP3   OH233009   5.865   0.640   1.958 -0.0469  0.1341  0.3503
 3817TIP3    H133010   5.838   0.604   2.042  3.0997 -0.7783  1.1238
 3817TIP3    H233011   5.856   0.566   1.897 -1.0207  0.3961  0.1604
 3818TIP3   OH233012   4.017   2.330   8.320 -0.7457 -0.6762  0.0811
 3818TIP3    H133013   4.056   2.247   8.346 -0.8275 -0.6590  0.2588
 3818TIP3    H233014   4.068   2.396   8.368 -0.3841 -0.5932 -0.4069
 3819TIP3   OH233015   0.711   1.931   8.656  0.0248 -0.5958 -0.4866
 3819TIP3    H133016   0.727   1.970   8.570 -3.2588  2.1365 -0.0429
 3819TIP3    H233017   0.644   1.864   8.640  2.0350 -2.7910 -0.4394
 3820TIP3   OH233018   2.217   3.490   0.923  0.1660  0.0292  0.1199
 3820TIP3    H133019   2.254   3.478   0.835  0.4581 -1.5064  0.4241
 3820TIP3    H233020   2.293   3.499   0.980 -0.0200  0.6182  0.2881
 3821TIP3   OH233021   4.922   3.894   2.176  0.3244 -0.4129 -0.4119
 3821TIP3    H133022   4.986   3.899   2.247 -1.1033 -0.1876  0.9003
 3821TIP3    H233023   4.943   3.969   2.120  0.9301 -0.0798  0.2441
 3822TIP3   OH233024   3.123   3.958   0.022  0.3238 -0.1710 -0.2162
 3822TIP3    H133025   3.029   3.966   0.005  0.6951  0.8227 -1.9487
 3822TIP3    H233026   3.160   3.928  -0.061  1.4520 -1.4893  0.7132
 3823TIP3   OH233027   3.522   6.379   0.287 -0.4579  0.6573 -0.8567
 3823TIP3    H133028   3.531   6.374   0.382  0.7665  1.3138 -0.9148
 3823TIP3    H233029   3.440   6.335   0.268 -1.4540  1.7625  0.6403
 3824TIP3   OH233030   1.959   4.581   3.316 -0.7342  0.1819  0.1823
 3824TIP3    H133031   1.939   4.588   3.409 -0.0792  0.8558  0.2755
 3824TIP3    H233032   1.946   4.669   3.281  1.2562  0.4902  0.1039
 3825TIP3   OH233033   5.098   1.362   0.479 -0.1320 -0.3859 -0.2893
 3825TIP3    H133034   5.171   1.300   0.489  1.1484  0.9564 -0.8484
 3825TIP3    H233035   5.140   1.444   0.452 -1.7251  0.8726  0.8725
 3826TIP3   OH233036   5.941   5.400   1.921  0.4741  0.1059 -0.1221
 3826TIP3    H133037   5.905   5.352   1.847  2.1789 -1.4423 -0.0048
 3826TIP3    H233038   5.875   5.391   1.990 -0.4648  0.3234 -0.9757
 3827TIP3   OH233039   0.054   5.839   8.393 -0.7148 -0.5377  0.0304
 3827TIP3    H133040  -0.028   5.841   8.344 -0.1316  0.6329 -0.9639
 3827TIP3    H233041   0.100   5.918   8.366  0.4236 -0.7853  1.1363
 3828TIP3   OH233042   6.101   6.037   2.156  0.0493 -0.3242  0.3795
 3828TIP3    H133043   6.012   6.064   2.179  0.0485  0.9338 -0.9455
 3828TIP3    H233044   6.156   6.107   2.188  0.5324 -0.8556  0.7356
 3829TIP3   OH233045   2.634   5.578   2.659 -0.0890 -0.0978 -0.0451
 3829TIP3    H133046   2.725   5.570   2.633 -0.3274 -0.3361 -0.8404
 3829TIP3    H233047   2.605   5.489   2.676  0.1907  0.0915  1.5392
 3830TIP3   OH233048   1.105   3.631   2.541  0.5220  0.5064  0.0032
 3830TIP3    H133049   1.186   3.680   2.528 -0.5687  2.5251  0.3847
 3830TIP3    H233050   1.037   3.698   2.544 -0.9519 -0.9642  1.6104
 3831TIP3   OH233051   3.778   0.835   0.845 -0.3473  0.1771  0.9659
 3831TIP3    H133052   3.754   0.751   0.805 -2.5485  0.7087  1.0449
 3831TIP3    H233053   3.821   0.884   0.775 -4.5430  1.2749 -1.1311
 3832TIP3   OH233054   3.562   0.538   2.696 -0.0629 -0.0772 -0.2407
 3832TIP3    H133055   3.611   0.537   2.778 -1.1121 -0.2709  0.3885
 3832TIP3    H233056   3.525   0.626   2.691 -0.6990 -0.3324 -0.0839
 3833TIP3   OH233057   3.099   2.364   2.700 -0.2077 -0.1809 -0.4563
 3833TIP3    H133058   3.043   2.433   2.736 -1.9927 -0.6238 -2.1978
 3833TIP3    H233059   3.140   2.404   2.624  0.8637 -0.2740  0.0527
 3834TIP3   OH233060   6.525   4.367   8.747  0.0217  0.3353  0.0810
 3834TIP3    H133061   6.577   4.289   8.728 -2.3779 -1.2796 -0.1920
 3834TIP3    H233062   6.449   4.335   8.795  0.5160  2.9648  2.9474
 3835TIP3   OH233063   3.314   0.967   2.978 -0.1978 -0.5613  0.0611
 3835TIP3    H133064   3.354   0.982   3.063 -0.2510 -0.7083  0.1131
 3835TIP3    H233065   3.355   0.886   2.946  0.1123 -0.2903 -0.2288
 3836TIP3   OH233066   0.419   0.784   8.768 -0.2895  0.4930 -0.3305
 3836TIP3    H133067   0.372   0.700   8.768  2.0454 -0.9224 -0.4758
 3836TIP3    H233068   0.449   0.794   8.678 -0.0326  1.1628 -0.1737
 3837TIP3   OH233069   4.879   1.301   0.646  0.3743  0.6607  0.2716
 3837TIP3    H133070   4.946   1.322   0.582  0.6186  0.0431  0.3185
 3837TIP3    H233071   4.822   1.238   0.603  0.4260  0.3909  0.5940
 3838TIP3   OH233072   4.403   0.201   1.502  0.9066  0.1700 -0.1304
 3838TIP3    H133073   4.458   0.125   1.483  0.2332 -0.6631  1.0743
 3838TIP3    H233074   4.464   0.268   1.532  1.4652 -0.0499 -0.7550
 3839TIP3   OH233075   2.873   3.864   2.353 -0.0480 -0.0465 -0.1785
 3839TIP3    H133076   2.934   3.847   2.425 -0.8691  1.0901  0.8374
 3839TIP3    H233077   2.921   3.922   2.294  0.2548 -0.0990  0.0145
 3840TIP3   OH233078   5.447   0.050   7.715 -0.0771 -0.0353 -0.1743
 3840TIP3    H133079   5.427  -0.010   7.644  0.8334 -0.1909 -0.3147
 3840TIP3    H233080   5.439   0.137   7.675 -0.3523 -0.0958 -0.2524
 3841TIP3   OH233081   2.009   1.184   8.681 -0.3921  0.3620  0.3488
 3841TIP3    H133082   2.078   1.169   8.746 -0.3827 -1.2015  0.0051
 3841TIP3    H233083   1.952   1.249   8.722  0.3764  0.4430  1.3331
 3842TIP3   OH233084   6.672   1.021   2.315  0.5781 -0.3103 -0.0112
 3842TIP3    H133085   6.739   1.089   2.321  1.0809 -0.7805 -0.2524
 3842TIP3    H233086   6.701   0.954   2.376 -0.4747  0.1542  1.0243
 3843TIP3   OH233087   4.884   3.168   8.819  0.3038  0.0011 -0.2168
 3843TIP3    H133088   4.797   3.143   8.787 -0.2665  0.3581  1.0008
 3843TIP3    H233089   4.872   3.182   8.913  1.7726 -0.3462  0.0437
 3844TIP3   OH233090   3.366   3.328   2.787 -0.1500  0.2118  0.1853
 3844TIP3    H133091   3.436   3.379   2.828 -1.5510  2.0067  0.4880
 3844TIP3    H233092   3.356   3.252   2.845  1.2193  0.1615  0.3875
 3845TIP3   OH233093   5.172   6.472   0.907  0.1917 -0.1107  0.7646
 3845TIP3    H133094   5.162   6.562   0.876  2.5646  0.4968  1.6082
 3845TIP3    H233095   5.244   6.475   0.969  0.8302 -2.7346  0.2767
 3846TIP3   OH233096   6.151   3.148   2.951 -0.6729  0.0825 -0.3605
 3846TIP3    H133097   6.103   3.097   3.017  0.5181 -1.9361 -0.9773
 3846TIP3    H233098   6.158   3.235   2.990 -0.9658 -0.7457  1.6930
 3847TIP3   OH233099   5.267   2.624   0.151 -0.1391  0.1781  0.2682
 3847TIP3    H133100   5.217   2.630   0.232  1.5290  0.0756  1.3454
 3847TIP3    H233101   5.355   2.651   0.174  0.1297  1.3019 -1.8014
 3848TIP3   OH233102   6.609   3.064   1.582 -0.1834  0.1816  0.7023
 3848TIP3    H133103   6.577   3.070   1.492  0.8876 -0.2580  0.2783
 3848TIP3    H233104   6.601   2.972   1.605  0.1514  0.1798  0.8208
 3849TIP3   OH233105   5.901   6.445   1.274 -0.0063  0.3995  0.0344
 3849TIP3    H133106   5.809   6.460   1.254  0.2717  0.1682 -1.5441
 3849TIP3    H233107   5.928   6.523   1.324 -0.4822  1.6083 -1.5128
 3850TIP3   OH233108   6.536   5.253   7.793 -0.3963 -0.4551  0.1866
 3850TIP3    H133109   6.574   5.335   7.761 -0.2842 -0.2551  0.8016
 3850TIP3    H233110   6.442   5.262   7.778 -0.4298 -0.0407  0.6031
 3851TIP3   OH233111   1.304   5.605   0.860  0.1163  0.0107  0.2501
 3851TIP3    H133112   1.346   5.679   0.905  0.7790  0.0051 -0.3472
 3851TIP3    H233113   1.368   5.577   0.795 -0.1419 -1.0785  0.4520
 3852TIP3   OH233114   4.047   6.481   2.720  0.0474 -0.1678  0.1324
 3852TIP3    H133115   3.981   6.411   2.729 -0.3067 -0.1789 -1.9332
 3852TIP3    H233116   4.105   6.469   2.795 -0.2914 -2.3724  0.1127
 3853TIP3   OH233117   2.507   6.468   2.014 -0.3282 -0.5874 -1.0392
 3853TIP3    H133118   2.562   6.392   1.992 -0.5201 -1.4737  1.2558
 3853TIP3    H233119   2.487   6.456   2.107 -0.9889  1.9104 -0.8061
 3854TIP3   OH233120   3.829   4.747   0.006  0.0285  0.0498 -0.8022
 3854TIP3    H133121   3.877   4.719  -0.072 -0.5917  0.8432 -1.4978
 3854TIP3    H233122   3.846   4.841   0.012 -0.0177  0.0179 -0.0325
 3855TIP3   OH233123   5.918   3.125   2.274  0.4556  0.2300  0.3936
 3855TIP3    H133124   5.832   3.095   2.303 -0.6078 -0.6137 -3.0992
 3855TIP3    H233125   5.921   3.217   2.300 -1.1396  0.0548  1.3227
 3856TIP3   OH233126   1.371   6.442   0.790 -0.0674  0.1140 -0.0999
 3856TIP3    H133127   1.436   6.376   0.768  0.5192  1.4701 -2.9618
 3856TIP3    H233128   1.310   6.442   0.716 -0.3048  2.3918 -0.0029
 3857TIP3   OH233129   3.212   6.068   0.090 -0.1771 -0.6877  0.0858
 3857TIP3    H133130   3.203   6.013   0.013 -0.3326 -1.3757  0.5805
 3857TIP3    H233131   3.139   6.131   0.084 -0.7607 -1.3498  0.1649
 3858TIP3   OH233132   5.467   2.654   7.689  0.3743  0.0155  0.0760
 3858TIP3    H133133   5.512   2.731   7.656 -0.5302  0.4478 -0.1785
 3858TIP3    H233134   5.445   2.604   7.610  0.7246 -0.3767  0.2221
 3859TIP3   OH233135   4.517   3.787   3.139  0.0036  0.4557  0.2649
 3859TIP3    H133136   4.509   3.693   3.126 -2.4333  0.8127 -1.6866
 3859TIP3    H233137   4.470   3.804   3.220 -0.4204  0.0595  0.1109
 3860TIP3   OH233138   5.265   2.663   0.783  0.0627 -0.1223 -0.0684
 3860TIP3    H133139   5.325   2.694   0.716 -0.8506  1.9728 -0.0091
 3860TIP3    H233140   5.196   2.730   0.786  0.1001 -0.0809  2.9902
 3861TIP3   OH233141   3.811   2.700   1.916 -0.2575  0.9418 -0.2101
 3861TIP3    H133142   3.874   2.745   1.973 -1.5613  2.1740  0.3076
 3861TIP3    H233143   3.835   2.728   1.828  0.7197  0.3579 -0.1459
 3862TIP3   OH233144   0.306   3.638   8.496 -0.6780  0.3393  0.2082
 3862TIP3    H133145   0.219   3.621   8.531 -0.6605 -0.0963  0.0442
 3862TIP3    H233146   0.305   3.731   8.475 -0.5075  0.7477  1.8538
 3863TIP3   OH233147   2.287   0.599   8.940  0.0102 -0.0577  0.2845
 3863TIP3    H133148   2.306   0.663   8.871 -0.5847  1.0526  1.1168
 3863TIP3    H233149   2.234   0.532   8.896 -0.0827  0.4583 -0.4152
 3864TIP3   OH233150   2.333   0.891   1.520  0.0831 -0.1412 -0.1433
 3864TIP3    H133151   2.410   0.836   1.502  0.3904 -0.4394  1.9011
 3864TIP3    H233152   2.261   0.845   1.476  0.9000 -0.3019 -1.3808
 3865TIP3   OH233153   5.687   2.200   2.561  0.3257  0.1956 -0.2105
 3865TIP3    H133154   5.673   2.153   2.479 -1.7828 -0.0588  0.2387
 3865TIP3    H233155   5.622   2.163   2.621  0.4554  1.7952  0.9772
 3866TIP3   OH233156   6.240   0.982   2.047  0.5131 -0.4323 -0.7044
 3866TIP3    H133157   6.166   0.975   1.987  0.4850 -2.6043 -0.4940
 3866TIP3    H233158   6.199   0.995   2.133  0.5263  1.5393 -0.9397
 3867TIP3   OH233159   4.553   2.957   2.499  0.2324  0.1489 -0.1205
 3867TIP3    H133160   4.633   3.004   2.521  0.7178  0.1929 -1.9133
 3867TIP3    H233161   4.582   2.868   2.478  0.2628  0.8834 -3.6250
 3868TIP3   OH233162   6.701   2.723   0.020  0.0704  0.0952 -0.0392
 3868TIP3    H133163   6.614   2.684   0.024  0.1294  0.0424  1.1223
 3868TIP3    H233164   6.761   2.648   0.021  0.1436  0.1534  0.3890
 3869TIP3   OH233165   3.424   5.430   0.979 -0.2869  0.3971  0.1920
 3869TIP3    H133166   3.400   5.337   0.970 -0.7846  0.4873  0.5604
 3869TIP3    H233167   3.354   5.477   0.936 -0.0209  0.6067 -0.0136
 3870TIP3   OH233168   6.487   4.537   2.643  0.8571  0.2776 -0.1583
 3870TIP3    H133169   6.485   4.632   2.655  2.7071  0.2684  0.5664
 3870TIP3    H233170   6.481   4.502   2.732  2.5381 -0.1757 -0.1863
 3871TIP3   OH233171   1.081   2.084   2.809  0.2058 -0.1202  0.3102
 3871TIP3    H133172   1.172   2.110   2.794  0.6177 -0.3378  2.2148
 3871TIP3    H233173   1.034   2.118   2.733  1.5988  1.4672  0.0933
 3872TIP3   OH233174   4.920   1.940   2.671 -0.3044  1.0473 -0.2054
 3872TIP3    H133175   4.898   1.939   2.765  0.3275  0.6614 -0.0534
 3872TIP3    H233176   4.906   2.030   2.644 -0.0809  1.2530  0.3623
 3873TIP3   OH233177   5.991   4.465   1.991 -0.0642  0.1656 -0.2407
 3873TIP3    H133178   5.951   4.453   1.905  0.3291 -0.2722 -0.3620
 3873TIP3    H233179   6.035   4.550   1.985  0.2930 -0.0429 -0.5987
 3874TIP3   OH233180   2.449   5.699   2.442 -0.1098  0.5351  0.1710
 3874TIP3    H133181   2.489   5.628   2.393  0.2738  1.3649 -0.7542
 3874TIP3    H233182   2.469   5.680   2.534 -0.6424 -0.9174  0.0109
 3875TIP3   OH233183   3.280   5.024   8.585  0.2497  0.6360  0.3785
 3875TIP3    H133184   3.214   5.071   8.637 -0.7781 -0.2356 -0.1039
 3875TIP3    H233185   3.248   5.029   8.495 -1.1290 -2.8172  0.5218
 3876TIP3   OH233186   1.503   5.467   8.721 -0.3581  0.1433 -0.3465
 3876TIP3    H133187   1.559   5.543   8.709  1.0385 -0.8166 -0.0588
 3876TIP3    H233188   1.562   5.396   8.747 -1.8122 -0.6398  1.0703
 3877TIP3   OH233189   0.356   5.527   0.398 -0.7822  0.8658  0.5086
 3877TIP3    H133190   0.358   5.553   0.305  1.2790 -0.0333  0.2439
 3877TIP3    H233191   0.393   5.603   0.444  0.8368  0.2784  0.2457
 3878TIP3   OH233192   6.535   3.938   0.300  0.3105 -0.4335 -0.1834
 3878TIP3    H133193   6.542   3.843   0.312 -0.8968 -0.5634 -0.4410
 3878TIP3    H233194   6.443   3.953   0.279  0.3240  0.8810  0.6013
 3879TIP3   OH233195   5.161   1.042   0.427 -0.4357  0.1464 -0.1616
 3879TIP3    H133196   5.193   1.018   0.514  0.1829  1.1840 -0.0875
 3879TIP3    H233197   5.228   1.101   0.392 -0.5391 -0.4711 -1.4608
 3880TIP3   OH233198   3.028   4.464   2.997 -0.1662  0.6652  1.0285
 3880TIP3    H133199   2.972   4.519   2.943 -1.6831 -1.8718 -0.1783
 3880TIP3    H233200   3.005   4.374   2.972  3.2603 -0.5607  1.7369
 3881TIP3   OH233201   5.882   1.521   2.989 -0.0135 -0.0063 -0.0243
 3881TIP3    H133202   5.813   1.587   2.987 -0.4740 -0.4684  0.1344
 3881TIP3    H233203   5.836   1.440   3.014  0.5730 -0.3362 -0.0009
 3882TIP3   OH233204   5.578   6.420   7.859  0.4612 -0.0459 -0.3362
 3882TIP3    H133205   5.587   6.337   7.907  0.7874  1.5476  2.5955
 3882TIP3    H233206   5.667   6.454   7.853  0.1258  1.0176  0.3709
 3883TIP3   OH233207   0.454   2.405   8.344  0.7227  0.2388 -0.1307
 3883TIP3    H133208   0.493   2.376   8.262  1.0751  1.1869 -0.3072
 3883TIP3    H233209   0.526   2.446   8.392  0.0638  1.6115 -0.2681
 3884TIP3   OH233210   5.310   6.271   2.273 -0.6368  0.2442  0.6133
 3884TIP3    H133211   5.273   6.321   2.199  0.3398 -0.0748 -0.1171
 3884TIP3    H233212   5.234   6.242   2.323 -1.3365  0.3311 -0.3655
 3885TIP3   OH233213   1.735   4.712   0.308  0.1307 -0.0254  0.1772
 3885TIP3    H133214   1.775   4.701   0.394  1.0069  3.3041  0.3276
 3885TIP3    H233215   1.808   4.734   0.250 -0.8785  2.0194 -0.4315
 3886TIP3   OH233216   6.487   4.966   0.287 -0.2871 -0.1916 -0.1056
 3886TIP3    H133217   6.407   4.978   0.337  0.8095  0.8982  1.4579
 3886TIP3    H233218   6.486   5.036   0.222  0.4662  1.3438  1.4423
 3887TIP3   OH233219   1.503   6.586   7.960 -0.4078  0.3074  0.2772
 3887TIP3    H133220   1.511   6.513   7.899 -1.4544 -0.2823  0.8256
 3887TIP3    H233221   1.557   6.561   8.035  1.0726  1.1381 -0.4654
 3888TIP3   OH233222   0.625   3.159   0.069 -0.6706 -0.0940  0.5458
 3888TIP3    H133223   0.706   3.149   0.018 -1.6070  1.1372 -1.2605
 3888TIP3    H233224   0.560   3.107   0.022 -2.0698  2.7140 -0.8057
 3889TIP3   OH233225   2.613   5.796   2.831  0.0159 -0.3725  0.2493
 3889TIP3    H133226   2.702   5.775   2.858 -0.3407  0.2537  2.0711
 3889TIP3    H233227   2.595   5.737   2.758  2.3445  0.3601 -1.0005
 3890TIP3   OH233228   0.929   1.083   0.386  0.3173  0.1967  0.2959
 3890TIP3    H133229   0.853   1.027   0.401 -0.4223  0.3410 -2.2764
 3890TIP3    H233230   1.000   1.041   0.435 -1.0281 -0.8976  1.3970
 3891TIP3   OH233231   2.534   2.630   2.837  0.6412 -0.0977 -0.1612
 3891TIP3    H133232   2.538   2.724   2.859 -1.1806 -0.2748  1.1186
 3891TIP3    H233233   2.471   2.625   2.765 -2.0615 -0.6020  2.0659
 3892TIP3   OH233234   3.917   3.104   1.124 -0.0938 -0.1194 -0.2386
 3892TIP3    H133235   3.825   3.096   1.150 -1.2960 -0.7058 -4.0792
 3892TIP3    H233236   3.925   3.193   1.090 -0.0342 -0.8575 -2.2973
 3893TIP3   OH233237   0.965   0.263   0.801  0.3298 -0.1025 -0.2337
 3893TIP3    H133238   0.977   0.244   0.894  2.7168  0.5432 -0.3421
 3893TIP3    H233239   1.046   0.307   0.775 -0.6471  0.5328 -2.4272
 3894TIP3   OH233240   6.186   3.469   1.740  0.5820  0.2259  0.3615
 3894TIP3    H133241   6.221   3.384   1.767 -0.4390 -0.0412  0.8492
 3894TIP3    H233242   6.091   3.458   1.743  0.4452  1.1312 -0.3822
 3895TIP3   OH233243   6.643   5.405   0.379 -0.0551 -0.0852  0.2928
 3895TIP3    H133244   6.555   5.437   0.397  0.0976 -0.5476  2.0802
 3895TIP3    H233245   6.663   5.435   0.291 -3.4977 -3.1986 -1.8231
 3896TIP3   OH233246   6.132   5.865   0.712  0.6959  0.9084  0.2858
 3896TIP3    H133247   6.157   5.815   0.635 -0.0249 -0.1757  0.7219
 3896TIP3    H233248   6.111   5.798   0.778 -0.2077  1.7850  0.9238
 3897TIP3   OH233249   6.365   6.331   2.079 -0.4194 -0.0047 -0.0651
 3897TIP3    H133250   6.431   6.385   2.123  1.5673 -1.8135 -0.6415
 3897TIP3    H233251   6.317   6.289   2.150  1.2562 -1.1433  0.4716
 3898TIP3   OH233252   2.013   0.534   1.947  0.2976  0.3273 -0.0601
 3898TIP3    H133253   2.089   0.501   1.900  0.1832 -0.4944  0.3231
 3898TIP3    H233254   1.979   0.604   1.891  0.2714 -0.5016 -1.1078
 3899TIP3   OH233255   4.460   0.753   8.901 -0.5303 -0.2679 -0.2362
 3899TIP3    H133256   4.435   0.763   8.809  0.7320  1.0052 -0.4577
 3899TIP3    H233257   4.542   0.704   8.898 -0.2895  0.1102  0.1946
 3900TIP3   OH233258   1.609   4.938   2.949  0.3244 -0.6515  0.2654
 3900TIP3    H133259   1.588   4.991   2.872 -1.3111 -0.6338  0.6886
 3900TIP3    H233260   1.701   4.957   2.967  0.3658  0.3536 -0.8943
 3901TIP3   OH233261   3.271   3.973   0.256 -0.3327  0.3965  0.3276
 3901TIP3    H133262   3.224   3.962   0.173 -1.9349  0.5913  1.1685
 3901TIP3    H233263   3.269   4.067   0.273 -0.9792  0.2577  1.1006
 3902TIP3   OH233264   5.013   5.932   8.553  0.5348 -0.2278  0.1525
 3902TIP3    H133265   5.082   5.895   8.607  1.0595 -0.2772 -0.5408
 3902TIP3    H233266   4.964   5.989   8.612  0.6269 -0.8717  0.8616
 3903TIP3   OH233267   4.217   0.257   0.447  0.2058 -0.0130 -0.4624
 3903TIP3    H133268   4.179   0.198   0.513  0.2621 -0.1534 -0.5538
 3903TIP3    H233269   4.247   0.198   0.377  1.7259 -0.0184  0.1554
 3904TIP3   OH233270   4.103   2.706   2.639 -0.5315 -0.0440  0.3990
 3904TIP3    H133271   4.147   2.791   2.634  0.5100 -0.4493  1.9976
 3904TIP3    H233272   4.055   2.700   2.557 -0.0733  1.7833 -0.0596
 3905TIP3   OH233273   4.953   4.965   0.429  0.2565 -0.7118  0.2353
 3905TIP3    H133274   4.990   5.052   0.444  0.6669 -0.5867 -1.4177
 3905TIP3    H233275   5.015   4.905   0.469  1.2649 -0.3831 -0.8015
 3906TIP3   OH233276   5.691   2.310   3.627  0.2713  0.2284 -0.3831
 3906TIP3    H133277   5.654   2.222   3.623 -0.5313  0.5781 -1.0701
 3906TIP3    H233278   5.780   2.298   3.658 -0.1477 -0.7298  0.4759
 3907TIP3   OH233279   6.338   1.396   8.941 -0.1371 -0.1732  0.2645
 3907TIP3    H133280   6.375   1.337   9.007 -2.0887 -0.9545  0.7177
 3907TIP3    H233281   6.364   1.484   8.971  1.7273 -0.6835  0.2703
 3908TIP3   OH233282   4.111   2.929   2.927 -0.1051  0.5380  0.1782
 3908TIP3    H133283   4.030   2.954   2.972 -0.8873  0.9146 -1.3798
 3908TIP3    H233284   4.162   2.884   2.994 -0.9458  1.6197  1.6180
 3909TIP3   OH233285   3.906   0.278   1.206 -0.5161  0.3218  0.2262
 3909TIP3    H133286   3.925   0.366   1.173 -1.5035 -0.0580 -1.4586
 3909TIP3    H233287   3.818   0.258   1.173 -0.4424 -1.1815  0.8490
 3910TIP3   OH233288   0.056   0.417   8.738  0.2934 -0.0309  0.0156
 3910TIP3    H133289   0.028   0.428   8.829  0.6393  2.1410 -0.0968
 3910TIP3    H233290   0.035   0.500   8.695 -0.3834 -1.1868 -2.0608
 3911TIP3   OH233291   0.336   1.581   7.273  0.2131 -0.4410 -0.2101
 3911TIP3    H133292   0.380   1.540   7.198 -1.6584 -3.4770  0.1900
 3911TIP3    H233293   0.385   1.550   7.349 -0.3516 -0.7627  0.0276
 3912TIP3   OH233294   1.067   2.918   0.783 -0.7034  0.3993 -0.3934
 3912TIP3    H133295   1.068   3.013   0.791  1.8102  0.3421  1.0830
 3912TIP3    H233296   1.096   2.887   0.869 -1.3039 -1.6951 -0.9022
 3913TIP3   OH233297   5.773   4.330   1.285 -0.1767 -0.2193 -0.5789
 3913TIP3    H133298   5.841   4.312   1.351 -0.5974 -4.0307 -0.9420
 3913TIP3    H233299   5.691   4.330   1.334 -0.2480  0.1927 -0.6935
 3914TIP3   OH233300   4.606   3.418   8.200  0.0072  0.6042  0.2081
 3914TIP3    H133301   4.655   3.339   8.178 -0.6641  1.0776 -3.6205
 3914TIP3    H233302   4.672   3.478   8.235  1.3914 -0.2031 -0.9071
 3915TIP3   OH233303   1.759   4.275   0.027 -0.0407  0.2789  0.3609
 3915TIP3    H133304   1.844   4.232   0.023  0.1104  0.6545 -0.9825
 3915TIP3    H233305   1.776   4.357   0.073  0.3156  0.3346  0.1330
 3916TIP3   OH233306   0.675   2.171   1.589 -0.1979 -0.2942 -0.1580
 3916TIP3    H133307   0.733   2.204   1.657  0.5099  0.9692 -1.3087
 3916TIP3    H233308   0.659   2.247   1.532 -2.0012 -0.9248 -0.5638
 3917TIP3   OH233309   5.056   0.640   7.606 -0.2120 -0.3331 -0.2135
 3917TIP3    H133310   4.968   0.631   7.568  0.3274 -1.4974 -1.2571
 3917TIP3    H233311   5.082   0.730   7.584 -0.4718 -0.5344 -1.4456
 3918TIP3   OH233312   2.678   6.379   8.117 -0.5140 -0.5003  0.1218
 3918TIP3    H133313   2.659   6.294   8.077 -2.4555  0.4325 -1.0960
 3918TIP3    H233314   2.596   6.406   8.157 -0.3894  1.4238 -0.7682
 3919TIP3   OH233315   4.062   1.646   8.126  0.1621  0.6426 -0.3510
 3919TIP3    H133316   4.023   1.560   8.139  0.5541  0.7116  1.6371
 3919TIP3    H233317   4.151   1.628   8.095  0.3542  0.2946  0.3712
 3920TIP3   OH233318   2.453   0.510   2.327 -0.3996 -0.1914  0.2428
 3920TIP3    H133319   2.440   0.530   2.420  0.5283 -0.1707  0.3745
 3920TIP3    H233320   2.534   0.459   2.325  0.3103  0.9163 -0.6732
 3921TIP3   OH233321   3.239   1.475   1.792 -0.3216 -0.6750  0.8955
 3921TIP3    H133322   3.210   1.521   1.714  0.3999  0.8056  1.4507
 3921TIP3    H233323   3.189   1.514   1.863  0.4228 -0.6084  1.4030
 3922TIP3   OH233324   5.219   1.716   2.235 -0.3552 -0.0746 -0.3068
 3922TIP3    H133325   5.250   1.635   2.276  0.9725  0.5383 -0.0708
 3922TIP3    H233326   5.123   1.709   2.241 -0.2526 -0.5273  1.9153
 3923TIP3   OH233327   6.476   6.555   1.128 -1.0048 -0.0681  0.0792
 3923TIP3    H133328   6.420   6.610   1.183  0.7130  2.2902 -0.3550
 3923TIP3    H233329   6.416   6.515   1.065 -2.4673  0.6203  0.9792
 3924TIP3   OH233330   5.650   2.848   2.782  0.3336  0.2306 -0.1709
 3924TIP3    H133331   5.591   2.872   2.711  3.5439  0.0324 -3.1664
 3924TIP3    H233332   5.650   2.752   2.782  0.5964  0.2308 -0.0849
 3925TIP3   OH233333   2.130   2.179   0.535 -0.0740 -0.1649 -0.2500
 3925TIP3    H133334   2.147   2.094   0.494  0.0287  0.2421 -1.0714
 3925TIP3    H233335   2.148   2.243   0.466  1.8545  0.6650  0.9298
 3926TIP3   OH233336   6.594   1.918   1.174  0.7801 -0.0630  1.0478
 3926TIP3    H133337   6.522   1.974   1.146 -0.0655 -1.4446  0.3484
 3926TIP3    H233338   6.642   1.971   1.238  1.1835  2.1813 -0.9693
 3927TIP3   OH233339   0.028   3.948   1.888 -0.2778  0.4683  0.9976
 3927TIP3    H133340   0.024   4.025   1.832 -0.9596  0.8838  1.5930
 3927TIP3    H233341   0.050   3.982   1.975  0.3841 -0.1184  1.0716
 3928TIP3   OH233342   5.039   4.584   8.961 -0.3015  0.3826  0.8126
 3928TIP3    H133343   5.131   4.603   8.944 -0.9209  2.3798 -0.6387
 3928TIP3    H233344   5.035   4.488   8.965  1.6703  0.2128 -0.1124
 3929TIP3   OH233345   5.099   2.840   1.828 -0.2702  0.0858  0.2847
 3929TIP3    H133346   5.134   2.926   1.805  0.0644  0.3867  1.8474
 3929TIP3    H233347   5.146   2.778   1.772  1.2052  0.6919  0.8269
 3930TIP3   OH233348   6.708   1.557   0.771  0.1630  0.1678 -0.3246
 3930TIP3    H133349   6.641   1.614   0.733 -0.5698 -0.0547  0.6073
 3930TIP3    H233350   6.665   1.473   0.783  0.7550 -0.1218 -0.1600
 3931TIP3   OH233351   3.817   2.830   1.061  0.6696 -0.2414 -0.3509
 3931TIP3    H133352   3.838   2.923   1.053 -0.7548  0.2049  0.7250
 3931TIP3    H233353   3.784   2.820   1.150  0.1831 -1.6474 -0.6610
 3932TIP3   OH233354   1.622   5.958   0.697  0.1737  0.2010  0.3100
 3932TIP3    H133355   1.644   5.940   0.789  1.1350  1.2016  0.3008
 3932TIP3    H233356   1.607   5.872   0.658 -1.1518 -0.1898  1.6143
 3933TIP3   OH233357   1.027   4.033   8.845 -0.0843  0.0741 -0.4052
 3933TIP3    H133358   0.955   4.012   8.786  1.2190 -3.2118 -1.0453
 3933TIP3    H233359   1.106   4.029   8.790  0.7799  2.3936  0.5131
 3934TIP3   OH233360   2.862   1.665   0.567  0.3834 -0.1255 -0.1361
 3934TIP3    H133361   2.950   1.698   0.554  0.7623 -1.1202 -0.1661
 3934TIP3    H233362   2.870   1.570   0.558 -0.8528 -0.1661 -1.1142
 3935TIP3   OH233363   0.804   5.135   8.942  0.2046 -0.4686  0.0255
 3935TIP3    H133364   0.808   5.070   9.012  2.0464 -0.3843  0.0549
 3935TIP3    H233365   0.781   5.217   8.986 -0.0159 -0.6828  0.3122
 3936TIP3   OH233366   3.717   3.891   1.908 -0.0041  0.8015 -0.2835
 3936TIP3    H133367   3.802   3.918   1.943  0.2195  1.3164 -1.1800
 3936TIP3    H233368   3.694   3.961   1.846 -0.2058 -0.2377 -1.4244
 3937TIP3   OH233369   5.369   0.669   2.418  0.0930  0.1344 -0.0273
 3937TIP3    H133370   5.402   0.758   2.434  1.2079  0.0075 -1.3724
 3937TIP3    H233371   5.276   0.673   2.441  0.5024  1.1639  1.6157
 3938TIP3   OH233372   2.354   3.257   2.456 -0.0546 -0.5866  0.2359
 3938TIP3    H133373   2.323   3.190   2.516 -2.0074  0.4364  0.4721
 3938TIP3    H233374   2.389   3.326   2.512 -0.9381 -0.0763  0.1825
 3939TIP3   OH233375   6.058   4.952   7.950  0.2847 -0.1367  0.1959
 3939TIP3    H133376   5.995   4.881   7.965  0.1628 -0.0004  0.3479
 3939TIP3    H233377   6.084   4.943   7.859 -0.0956 -0.0867  0.0806
 3940TIP3   OH233378   2.657   5.715   0.803  0.0390  0.9422 -0.7621
 3940TIP3    H133379   2.679   5.725   0.895 -1.3637  0.0701 -0.2969
 3940TIP3    H233380   2.714   5.777   0.757  1.6119  0.5428  0.5550
 3941TIP3   OH233381   0.961   0.609   1.710 -0.0905 -0.2374  0.4879
 3941TIP3    H133382   1.049   0.576   1.692 -0.2444 -1.2738  1.5802
 3941TIP3    H233383   0.975   0.687   1.764  0.1366 -0.7760  1.2073
 3942TIP3   OH233384   5.106   4.049   8.862  0.3189 -0.5985 -0.2374
 3942TIP3    H133385   5.070   3.961   8.873  0.4364 -0.9295 -2.1941
 3942TIP3    H233386   5.197   4.034   8.836  0.7822  0.1563  0.8614
 3943TIP3   OH233387   5.635   0.593   8.437  0.2522  0.0368  0.2401
 3943TIP3    H133388   5.691   0.603   8.360 -1.7496 -0.3232 -1.3266
 3943TIP3    H233389   5.681   0.528   8.491  2.4151  1.3583  0.1316
 3944TIP3   OH233390   2.911   6.105   8.158 -0.0041 -0.4084 -0.1297
 3944TIP3    H133391   2.912   6.017   8.195  1.4835 -0.2269  0.3110
 3944TIP3    H233392   2.824   6.113   8.118 -0.5038 -1.7220  0.6368
 3945TIP3   OH233393   6.604   6.358   1.443  0.0451 -0.4354 -0.2525
 3945TIP3    H133394   6.564   6.354   1.357 -0.1792  1.2381 -0.2541
 3945TIP3    H233395   6.685   6.408   1.430 -0.3076  0.3850  0.6071
 3946TIP3   OH233396   5.672   2.666   2.116 -0.4955 -0.0711 -0.2550
 3946TIP3    H133397   5.585   2.640   2.145 -0.0294 -0.1484  1.1217
 3946TIP3    H233398   5.730   2.595   2.143  0.3332  0.9918  0.8963
 3947TIP3   OH233399   2.674   6.145   0.101 -0.2437  0.6441  0.1155
 3947TIP3    H133400   2.659   6.051   0.108 -0.8512  0.6193 -1.1874
 3947TIP3    H233401   2.767   6.156   0.120 -0.4804 -0.0065  1.8356
 3948TIP3   OH233402   2.058   1.704   1.658  0.1448  0.4357 -0.0943
 3948TIP3    H133403   2.132   1.645   1.666 -1.2204 -1.1394  1.4961
 3948TIP3    H233404   1.990   1.667   1.714 -1.9811  1.6442 -1.6929
 3949TIP3   OH233405   0.593   2.623   1.521 -0.1365  0.2792  0.2776
 3949TIP3    H133406   0.567   2.573   1.599  0.0546 -0.2873 -0.0147
 3949TIP3    H233407   0.513   2.625   1.468 -0.3151  0.8146  0.5649
 3950TIP3   OH233408   1.191   6.525   1.963 -0.9635  0.2755  0.1047
 3950TIP3    H133409   1.140   6.463   2.015 -0.2457 -1.6161 -1.3389
 3950TIP3    H233410   1.162   6.511   1.873 -0.3100  1.5980 -0.3370
 3951TIP3   OH233411   5.782   4.746   1.984  0.2295 -0.1031 -0.3792
 3951TIP3    H133412   5.865   4.753   2.032 -1.2109 -0.4022  2.3709
 3951TIP3    H233413   5.778   4.824   1.930  1.6760  0.6330  0.5241
 3952TIP3   OH233414   1.141   5.062   1.919  0.2827 -0.0261 -0.0429
 3952TIP3    H133415   1.158   5.146   1.962 -1.1989  0.1062  0.3537
 3952TIP3    H233416   1.048   5.067   1.893  0.4741 -1.0966 -1.0334
 3953TIP3   OH233417   1.614   4.547   2.270 -0.2415  0.8168 -0.2091
 3953TIP3    H133418   1.525   4.549   2.306 -0.0240 -1.2321  0.5653
 3953TIP3    H233419   1.665   4.498   2.334  0.9150 -0.1123 -1.7703
 3954TIP3   OH233420   3.346   2.524   2.833 -0.2830  0.6789  0.1155
 3954TIP3    H133421   3.267   2.560   2.794  0.3072  0.2053 -1.6035
 3954TIP3    H233422   3.353   2.436   2.795  0.0733 -0.0099  1.6909
 3955TIP3   OH233423   1.835   3.343   1.710 -0.0601 -0.2513  0.0379
 3955TIP3    H133424   1.763   3.401   1.736 -1.2973 -0.8240 -1.8616
 3955TIP3    H233425   1.792   3.274   1.659  1.6997 -1.3777  0.0110
 3956TIP3   OH233426   5.417   3.836   1.190 -0.6736 -0.3403  0.0459
 3956TIP3    H133427   5.353   3.770   1.215  0.0889 -1.5022 -0.9649
 3956TIP3    H233428   5.457   3.802   1.110  1.1638  0.3701  0.6036
 3957TIP3   OH233429   6.633   4.237   2.386  0.5118 -0.0016  0.0727
 3957TIP3    H133430   6.615   4.170   2.452  0.9347  1.3822  1.6381
 3957TIP3    H233431   6.697   4.295   2.427  0.7094  0.9579 -1.5183
 3958TIP3   OH233432   4.988   0.418   2.650 -0.4674  0.0996 -0.0424
 3958TIP3    H133433   4.921   0.462   2.702  1.3854 -0.7816  3.4104
 3958TIP3    H233434   5.040   0.370   2.714  0.8536 -2.8020 -3.0086
 3959TIP3   OH233435   2.487   1.814   0.961 -0.2820 -0.2433  1.0058
 3959TIP3    H133436   2.417   1.748   0.953  0.9640 -1.5621  0.6653
 3959TIP3    H233437   2.485   1.860   0.878 -0.4509 -0.5828  0.8159
 3960TIP3   OH233438   3.944   0.515   8.600 -0.2193  0.3644 -0.2860
 3960TIP3    H133439   3.925   0.440   8.544 -1.2361  0.0546  0.4316
 3960TIP3    H233440   3.859   0.536   8.640  0.3212  1.0866  0.5060
 3961TIP3   OH233441   2.167   2.977   0.376  0.3399  0.6788  0.0188
 3961TIP3    H133442   2.221   2.940   0.307 -0.4686  0.4400 -0.5075
 3961TIP3    H233443   2.079   2.983   0.337  0.3581  2.8145  0.2052
 3962TIP3   OH233444   2.663   2.089   2.116 -0.0937  0.2642 -0.3204
 3962TIP3    H133445   2.614   2.008   2.127 -0.9828  0.5203 -2.0242
 3962TIP3    H233446   2.606   2.157   2.152  0.4641  0.1991  0.7132
 3963TIP3   OH233447   2.993   0.196   0.766  0.8686  0.0278 -0.1667
 3963TIP3    H133448   2.980   0.209   0.673 -0.0875  0.8830  0.0752
 3963TIP3    H233449   2.908   0.214   0.806  1.1117 -0.8796  0.8209
 3964TIP3   OH233450   1.814   4.835   0.717  0.8385  0.0538 -0.2551
 3964TIP3    H133451   1.863   4.815   0.637 -0.9432 -1.1335 -1.1344
 3964TIP3    H233452   1.722   4.826   0.691  0.1456  1.5734  1.4675
 3965TIP3   OH233453   3.848   4.719   2.797 -0.2833  0.0248 -0.2171
 3965TIP3    H133454   3.780   4.679   2.744  1.2100 -0.8908 -1.5008
 3965TIP3    H233455   3.827   4.692   2.887 -0.3616 -2.1569 -0.8329
 3966TIP3   OH233456   3.667   3.190   1.184 -0.0971  0.6296  0.6615
 3966TIP3    H133457   3.699   3.256   1.245  0.5055  2.2817 -1.2941
 3966TIP3    H233458   3.592   3.231   1.141 -0.1831 -0.2654 -0.0820
 3967TIP3   OH233459   2.182   3.081   1.387 -0.3386 -0.6634 -0.1006
 3967TIP3    H133460   2.101   3.036   1.364  0.7044 -1.2340 -3.2300
 3967TIP3    H233461   2.178   3.164   1.338  0.4643 -0.1925  0.6163
 3968TIP3   OH233462   5.768   2.701   1.250 -0.4986 -0.4106 -0.1685
 3968TIP3    H133463   5.805   2.625   1.204 -0.2829 -0.0961 -0.5271
 3968TIP3    H233464   5.764   2.675   1.342  2.0440  0.0674  0.1455
 3969TIP3   OH233465   4.764   4.425   8.222 -0.4572 -0.2169 -0.0946
 3969TIP3    H133466   4.849   4.466   8.206 -0.4623 -0.8002 -1.7358
 3969TIP3    H233467   4.738   4.458   8.308  1.2113  0.3254  0.2440
 3970TIP3   OH233468   6.384   1.702   2.813 -0.6553 -0.6791  0.8640
 3970TIP3    H133469   6.478   1.696   2.793 -0.6027  0.8432  0.5843
 3970TIP3    H233470   6.380   1.694   2.908 -0.0227  1.2067  1.0902
 3971TIP3   OH233471   3.033   4.182   2.435  0.3269  0.0245 -0.2329
 3971TIP3    H133472   2.949   4.198   2.392  0.2487  0.5751  0.1193
 3971TIP3    H233473   3.018   4.204   2.527  0.4891 -1.1470  0.0943
 3972TIP3   OH233474   5.930   2.771   2.342 -0.1849 -0.7649  0.4014
 3972TIP3    H133475   5.894   2.851   2.303  0.3156 -0.5585  0.3599
 3972TIP3    H233476   5.862   2.741   2.402 -0.9666 -1.0792 -0.6205
 3973TIP3   OH233477   5.531   0.993   8.213 -0.0028 -0.8536  0.6802
 3973TIP3    H133478   5.616   1.024   8.184 -0.5803  0.6175  0.4630
 3973TIP3    H233479   5.540   0.898   8.218  1.6556 -0.7122  0.7328
 3974TIP3   OH233480   5.123   4.625   1.806 -0.1309  0.2277  0.2440
 3974TIP3    H133481   5.168   4.696   1.759  1.3713  0.9818  2.6321
 3974TIP3    H233482   5.178   4.548   1.793  0.1337  0.3692  0.5125
 3975TIP3   OH233483   4.004   1.850   1.678  0.6153  0.1372 -0.4082
 3975TIP3    H133484   4.015   1.911   1.751  1.6102  0.8995 -1.1618
 3975TIP3    H233485   3.953   1.777   1.715  1.9785 -0.0020  1.3410
 3976TIP3   OH233486   3.702   1.091   0.408  0.0432 -0.2222 -0.5037
 3976TIP3    H133487   3.628   1.032   0.399 -1.5882  1.8484 -1.7073
 3976TIP3    H233488   3.717   1.097   0.503 -0.8346 -1.2667 -0.2882
 3977TIP3   OH233489   3.605   4.162   1.145 -0.1481  0.1733 -0.0026
 3977TIP3    H133490   3.568   4.237   1.190  0.5284  0.2529  0.4389
 3977TIP3    H233491   3.677   4.198   1.093 -0.7024  0.0300 -0.8796
 3978TIP3   OH233492   6.151   6.245   8.719  0.2731  0.1590  0.0825
 3978TIP3    H133493   6.058   6.261   8.737  0.1297 -1.7907  1.3411
 3978TIP3    H233494   6.151   6.193   8.638  0.0297 -2.0191  1.4036
 3979TIP3   OH233495   5.560   6.183   2.180 -0.2324  0.7369  0.3997
 3979TIP3    H133496   5.611   6.167   2.260  0.0396 -0.9024 -0.0606
 3979TIP3    H233497   5.473   6.206   2.211 -0.0942  0.2481  1.1825
 3980TIP3   OH233498   3.077   0.428   2.334 -0.8894  0.2297  0.7562
 3980TIP3    H133499   3.051   0.361   2.270  0.3606  0.9766 -0.5776
 3980TIP3    H233500   3.169   0.444   2.316 -1.1855  2.4264  0.9351
 3981TIP3   OH233501   5.653   3.474   0.941  0.1112  0.3603  0.4313
 3981TIP3    H133502   5.688   3.386   0.955  0.6312  0.2492 -1.3665
 3981TIP3    H233503   5.716   3.515   0.882 -1.4290  1.0588 -0.7957
 3982TIP3   OH233504   6.468   1.696   1.122  0.3986 -0.1329 -0.1341
 3982TIP3    H133505   6.539   1.755   1.150 -0.4180  0.8212 -0.0262
 3982TIP3    H233506   6.505   1.609   1.132  2.7691  0.3433 -3.2330
 3983TIP3   OH233507   1.155   0.284   2.427  0.4593 -0.1062  0.2821
 3983TIP3    H133508   1.065   0.250   2.422  1.1412 -1.9266 -0.3116
 3983TIP3    H233509   1.153   0.345   2.501 -1.8589  1.8549 -1.2513
 3984TIP3   OH233510   4.644   5.738   2.937 -0.6203 -0.4467  0.7388
 3984TIP3    H133511   4.595   5.660   2.961 -3.9889  0.7237 -1.7089
 3984TIP3    H233512   4.627   5.750   2.844  1.9935  1.7999  0.4133
 3985TIP3   OH233513   2.192   6.039   2.480  0.3022 -0.2300  0.3951
 3985TIP3    H133514   2.230   6.123   2.453 -1.1087  0.2570 -0.1876
 3985TIP3    H233515   2.257   5.974   2.454  1.1549  0.6223  0.3073
 3986TIP3   OH233516   1.238   6.367   1.020  0.2056 -0.2291 -0.3990
 3986TIP3    H133517   1.289   6.424   0.962 -1.5671  0.0271 -1.7886
 3986TIP3    H233518   1.151   6.406   1.021 -0.6733 -2.1075 -0.2361
 3987TIP3   OH233519   0.553   3.563   1.983  0.8456 -0.4821 -0.4048
 3987TIP3    H133520   0.559   3.479   1.938 -2.4276 -2.0125  1.6019
 3987TIP3    H233521   0.471   3.601   1.951  1.0353  0.7792  0.5397
 3988TIP3   OH233522   1.563   4.620   8.692  0.1558  0.2803 -0.0575
 3988TIP3    H133523   1.538   4.677   8.764 -0.4002 -0.4613  0.3510
 3988TIP3    H233524   1.549   4.531   8.725  0.3569 -0.0824 -0.9077
 3989TIP3   OH233525   1.326   6.273   8.624  0.2694 -0.8204 -0.0455
 3989TIP3    H133526   1.329   6.332   8.700 -0.3753  0.4247 -0.9372
 3989TIP3    H233527   1.282   6.194   8.657  1.3843 -0.9298  1.2497
 3990TIP3   OH233528   4.895   5.387   8.548 -0.3707 -0.8401  0.5085
 3990TIP3    H133529   4.977   5.406   8.594 -0.0992 -0.1213 -0.2485
 3990TIP3    H233530   4.922   5.370   8.458 -1.1229  0.1322  0.0887
 3991TIP3   OH233531   0.657   0.890   0.974  0.0424  0.0197  0.1646
 3991TIP3    H133532   0.690   0.840   0.899 -0.2662 -1.3900  0.9312
 3991TIP3    H233533   0.714   0.966   0.979  1.4468 -0.9733 -0.2027
 3992TIP3   OH233534   3.294   1.097   8.675 -0.3475 -0.1982 -0.4156
 3992TIP3    H133535   3.332   1.064   8.594  2.9198  0.6872  0.6009
 3992TIP3    H233536   3.246   1.022   8.711 -0.2738 -1.1716 -2.2144
 3993TIP3   OH233537   2.677   1.667   1.608 -0.3930  0.6070 -0.7608
 3993TIP3    H133538   2.752   1.721   1.583 -0.0573  0.0126 -1.0382
 3993TIP3    H233539   2.606   1.731   1.623  0.6782  1.3720  1.5851
 3994TIP3   OH233540   5.998   1.413   1.853  0.5898  0.1840 -0.0355
 3994TIP3    H133541   6.068   1.401   1.789  2.9831  0.6686  2.2968
 3994TIP3    H233542   6.019   1.352   1.924 -3.0903 -1.8381 -0.4455
 3995TIP3   OH233543   4.080   0.790   8.865 -0.3002 -0.5115 -0.4364
 3995TIP3    H133544   4.111   0.702   8.847 -0.5541 -1.4149  2.8201
 3995TIP3    H233545   4.123   0.845   8.800  1.9800 -2.6987 -0.9284
 3996TIP3   OH233546   6.202   4.943   1.015 -0.8856 -0.4682  0.1262
 3996TIP3    H133547   6.260   4.972   1.086  0.1790 -0.0924 -0.8660
 3996TIP3    H233548   6.160   4.865   1.050  0.6002 -1.0453  0.7077
 3997TIP3   OH233549   2.069   0.040   7.251  0.8299 -0.0790 -0.0969
 3997TIP3    H133550   1.976   0.064   7.261  1.2533  2.1053 -0.8426
 3997TIP3    H233551   2.089  -0.009   7.330 -0.2526  1.9425  1.5414
 3998TIP3   OH233552   1.668   2.950   0.102  0.1898  0.1003  0.0553
 3998TIP3    H133553   1.600   2.884   0.092  0.7177 -0.3087 -0.9752
 3998TIP3    H233554   1.621   3.029   0.130 -0.4395 -0.6984  1.3175
 3999TIP3   OH233555   4.982   1.328   2.308 -0.1164 -0.1733 -0.2145
 3999TIP3    H133556   4.928   1.400   2.339  0.0326 -0.7874  1.6009
 3999TIP3    H233557   4.924   1.274   2.255 -0.3802  0.9259 -1.0868
 4000TIP3   OH233558   1.979   1.337   3.410 -0.0944 -0.1522 -0.6731
 4000TIP3    H133559   2.043   1.284   3.458 -0.0786  0.8140  0.4069
 4000TIP3    H233560   2.027   1.416   3.386  0.3614 -1.1891 -3.6541
 4001TIP3   OH233561   1.834   0.815   2.799 -0.1422  0.0468 -0.2859
 4001TIP3    H133562   1.881   0.823   2.715 -0.1071 -0.2455 -0.2956
 4001TIP3    H233563   1.832   0.904   2.834 -1.4536  0.4409 -1.2851
 4002TIP3   OH233564   2.723   0.175   0.736  0.2661 -0.3216 -0.0200
 4002TIP3    H133565   2.681   0.199   0.653  1.0441  0.1359 -0.2858
 4002TIP3    H233566   2.679   0.093   0.761 -0.2823 -0.2368 -0.6561
 4003TIP3   OH233567   3.660   2.015   3.059 -0.4043  0.8173  0.0072
 4003TIP3    H133568   3.638   1.929   3.094  0.0577  0.6411 -0.1193
 4003TIP3    H233569   3.609   2.077   3.111  0.6060  0.6032  1.3192
 4004TIP3   OH233570   0.784   1.866   0.346 -0.2584  0.1752 -0.5949
 4004TIP3    H133571   0.828   1.927   0.288 -1.6759  2.2298  0.3735
 4004TIP3    H233572   0.828   1.876   0.430 -0.7158  0.1169 -0.3408
 4005TIP3   OH233573   0.563   1.709   2.975  0.1248  0.6274  0.0619
 4005TIP3    H133574   0.500   1.644   2.945  0.0029  0.5138  0.5634
 4005TIP3    H233575   0.509   1.782   3.005  0.2539  0.8382 -0.2157
 4006TIP3   OH233576   6.669   4.548   1.967 -0.4438  0.0511 -0.1462
 4006TIP3    H133577   6.666   4.456   1.990 -0.6930  0.1206  0.1103
 4006TIP3    H233578   6.741   4.584   2.018  1.1296 -0.4339 -1.8951
 4007TIP3   OH233579   3.886   5.515   2.257  0.2639 -0.5921 -0.3892
 4007TIP3    H133580   3.906   5.421   2.258  1.3506 -0.3833 -0.7713
 4007TIP3    H233581   3.949   5.554   2.318 -0.9653 -0.2367  0.6938
 4008TIP3   OH233582   3.838   0.180   0.157 -0.5533 -0.2080 -0.5498
 4008TIP3    H133583   3.907   0.121   0.128 -1.5571 -2.8335  1.8674
 4008TIP3    H233584   3.757   0.129   0.150 -1.5773  1.0373  1.0848
 4009TIP3   OH233585   0.986   4.054   8.049 -0.1070 -0.2702 -0.1510
 4009TIP3    H133586   0.934   4.073   8.127 -0.1580 -0.3945 -0.1541
 4009TIP3    H233587   1.014   4.140   8.017 -0.4660 -0.1901 -0.2534
 4010TIP3   OH233588   2.509   2.835   1.370 -0.1698 -0.3716  0.3697
 4010TIP3    H133589   2.529   2.741   1.373 -0.6168 -0.4440  1.8169
 4010TIP3    H233590   2.571   2.875   1.430  0.0312  0.2677 -0.2620
 4011TIP3   OH233591   6.494   4.992   1.856  0.3898  0.3326 -0.2979
 4011TIP3    H133592   6.452   5.073   1.887  0.0003 -0.2034  0.6323
 4011TIP3    H233593   6.513   5.008   1.764  0.6766  1.6364 -0.0314
 4012TIP3   OH233594   0.099   5.378   0.752 -0.1379 -0.7554  0.2896
 4012TIP3    H133595   0.078   5.449   0.691 -1.2668 -1.1718  0.1722
 4012TIP3    H233596   0.195   5.381   0.760 -0.1719  0.9158  0.4642
 4013TIP3   OH233597   1.000   1.113   2.306 -0.3331  0.1582 -0.6721
 4013TIP3    H133598   1.016   1.178   2.375  1.2143  0.6263 -1.4331
 4013TIP3    H233599   1.018   1.029   2.347 -1.0415  0.2873 -0.0610
 4014TIP3   OH233600   4.529   0.008   2.641 -0.0399  0.5780 -0.2150
 4014TIP3    H133601   4.590   0.060   2.692  1.2706 -0.7935 -0.3147
 4014TIP3    H233602   4.546   0.032   2.550  0.4796  0.1069 -0.2520
 4015TIP3   OH233603   3.691   3.448   0.866 -0.3458  0.5627  0.3987
 4015TIP3    H133604   3.759   3.515   0.877 -0.6752  0.9138  0.3201
 4015TIP3    H233605   3.633   3.459   0.942  0.2768 -0.4562  1.0560
 4016TIP3   OH233606   5.679   4.819   8.248  0.1476  0.1364  0.2444
 4016TIP3    H133607   5.679   4.730   8.282 -0.1348 -0.1502 -0.4855
 4016TIP3    H233608   5.610   4.864   8.296 -1.4834 -0.7514 -1.1517
 4017TIP3   OH233609   2.071   4.586   2.989 -0.0978  0.1456  0.6182
 4017TIP3    H133610   2.110   4.652   3.045  0.2857  0.4632 -0.0121
 4017TIP3    H233611   2.102   4.608   2.901  1.1230 -1.6368  0.5467
 4018TIP3   OH233612   2.302   1.664   8.661 -0.3641 -0.0588 -0.3486
 4018TIP3    H133613   2.330   1.626   8.577  1.3364 -2.7737  1.2562
 4018TIP3    H233614   2.372   1.639   8.722 -2.8400 -0.7027  2.4617
 4019TIP3   OH233615   3.782   6.447   0.231 -0.1541 -0.0107  0.0468
 4019TIP3    H133616   3.690   6.423   0.246 -0.4425  2.4063  2.8885
 4019TIP3    H233617   3.799   6.419   0.140 -3.0712 -2.2220  0.0238
 4020TIP3   OH233618   5.590   0.365   0.428 -0.4293 -0.3163  0.1570
 4020TIP3    H133619   5.562   0.423   0.357  1.4048 -0.1803 -0.5025
 4020TIP3    H233620   5.523   0.376   0.496 -1.5385  0.5274 -1.0209
 4021TIP3   OH233621   4.969   3.118   7.427 -0.0578 -0.7292 -0.4882
 4021TIP3    H133622   4.969   3.196   7.482  1.2045 -0.5898 -0.6692
 4021TIP3    H233623   4.991   3.046   7.487  1.3488 -0.5729 -0.7836
 4022TIP3   OH233624   0.807   0.581   8.141 -0.6216 -0.0840 -0.5778
 4022TIP3    H133625   0.850   0.522   8.202 -1.1983 -2.5284 -2.3856
 4022TIP3    H233626   0.718   0.590   8.175  0.0046  1.5072  0.8066
 4023TIP3   OH233627   1.415   2.713   0.014 -0.0525 -0.4139 -0.1824
 4023TIP3    H133628   1.453   2.752   0.093 -2.9224  0.6788  0.7964
 4023TIP3    H233629   1.366   2.638   0.046 -0.3228 -0.6446 -1.1185
 4024TIP3   OH233630   0.520   5.760   8.460 -0.2917 -0.4872 -0.0352
 4024TIP3    H133631   0.561   5.703   8.394  0.1088 -1.0273  0.6678
 4024TIP3    H233632   0.488   5.700   8.527 -0.8772  0.0441  0.1679
 4025TIP3   OH233633   2.159   1.645   2.722 -0.3011  0.2133 -0.1568
 4025TIP3    H133634   2.200   1.561   2.703 -0.1740  0.4950 -1.1993
 4025TIP3    H233635   2.077   1.644   2.672  0.7099  1.5454 -1.9352
 4026TIP3   OH233636   1.428   3.021   2.351  0.4352  0.0104 -0.5407
 4026TIP3    H133637   1.396   3.110   2.337 -0.4560 -0.0655  0.8064
 4026TIP3    H233638   1.521   3.031   2.369  0.6840  0.4960 -1.9264
 4027TIP3   OH233639   5.995   3.566   0.199  0.2940 -0.8087 -0.7134
 4027TIP3    H133640   5.953   3.639   0.153 -1.5505 -1.6395 -0.4330
 4027TIP3    H233641   5.997   3.594   0.291 -1.1059 -1.3777 -0.4873
 4028TIP3   OH233642   0.668   1.077   8.672  0.6029  0.0184 -0.0902
 4028TIP3    H133643   0.654   1.171   8.684 -1.1640 -0.0715 -1.0688
 4028TIP3    H233644   0.654   1.040   8.759 -1.2317  0.4380 -0.1583
 4029TIP3   OH233645   2.819   2.720   0.098  0.7017 -0.5906 -0.2552
 4029TIP3    H133646   2.903   2.711   0.143  0.6684 -1.6293 -0.3807
 4029TIP3    H233647   2.775   2.791   0.145  0.3857 -2.0676  1.8102
 4030TIP3   OH233648   1.839   1.505   0.439 -0.2646  0.1505  0.5886
 4030TIP3    H133649   1.935   1.498   0.432 -0.3950 -1.2195 -0.4423
 4030TIP3    H233650   1.807   1.422   0.402 -1.8615  0.7533  0.5557
 4031TIP3   OH233651   2.390   1.807   0.665  0.1915  0.2268  0.4237
 4031TIP3    H133652   2.372   1.889   0.710 -0.9901 -0.3355  1.0363
 4031TIP3    H233653   2.303   1.767   0.653  0.6191 -0.3566 -0.9698
 4032TIP3   OH233654   6.699   1.554   2.559  0.9224  0.1946 -0.4558
 4032TIP3    H133655   6.722   1.607   2.636  1.3793 -1.6222  0.7107
 4032TIP3    H233656   6.613   1.518   2.579  1.0988 -0.3910 -0.7270
 4033TIP3   OH233657   1.773   1.549   1.071  0.2533  1.0332 -0.0071
 4033TIP3    H133658   1.784   1.621   1.133 -2.2441  0.0717  1.7116
 4033TIP3    H233659   1.691   1.569   1.026  1.2430  0.9069 -1.9743
 4034TIP3   OH233660   0.692   5.837   8.919 -0.2064  0.7822 -0.2637
 4034TIP3    H133661   0.758   5.828   8.850 -0.4437 -0.5585 -0.3508
 4034TIP3    H233662   0.608   5.831   8.872 -0.3863 -1.3604  0.2116
 4035TIP3   OH233663   1.471   3.734   0.127 -0.2403  0.7582 -0.1685
 4035TIP3    H133664   1.402   3.729   0.061  0.4230  0.4014 -0.8420
 4035TIP3    H233665   1.552   3.741   0.077  0.1781  1.7950  0.6191
 4036TIP3   OH233666   1.536   0.581   0.583 -0.2068 -0.6812 -0.1324
 4036TIP3    H133667   1.531   0.567   0.489  1.4740 -1.9897 -0.0672
 4036TIP3    H233668   1.592   0.659   0.593 -0.9968 -0.0915 -0.2148
 4037TIP3   OH233669   4.571   1.447   2.467 -0.1949  0.1678 -0.6069
 4037TIP3    H133670   4.477   1.456   2.485  0.1015  0.9694  0.6655
 4037TIP3    H233671   4.592   1.523   2.414 -0.1678  0.2664 -0.4561
 4038TIP3   OH233672   0.537   1.576   1.668  0.4806  0.3452 -0.1654
 4038TIP3    H133673   0.594   1.499   1.659 -0.2607 -0.3823  0.9903
 4038TIP3    H233674   0.573   1.623   1.743 -0.3965 -0.1183  0.5704
 4039TIP3   OH233675   6.128   5.503   2.520 -0.6828  0.0081  0.1972
 4039TIP3    H133676   6.131   5.451   2.440 -2.5646  0.5363 -0.2701
 4039TIP3    H233677   6.206   5.558   2.515 -1.2123  0.6888 -1.7690
 4040TIP3   OH233678   2.772   0.954   7.892  0.3467 -0.5808 -0.0352
 4040TIP3    H133679   2.687   0.987   7.921  0.8921  0.8718  0.0087
 4040TIP3    H233680   2.775   0.864   7.924 -0.9281 -0.4710  0.4694
 4041TIP3   OH233681   2.556   4.082   1.223 -0.6454  0.9220  0.3263
 4041TIP3    H133682   2.497   4.139   1.272  0.0012  1.6701  0.2709
 4041TIP3    H233683   2.558   4.121   1.135  1.9591  2.5699  0.9834
 4042TIP3   OH233684   3.426   5.156   1.838 -0.7217  0.0149 -0.2916
 4042TIP3    H133685   3.424   5.113   1.924  0.0487  0.2911 -0.1305
 4042TIP3    H233686   3.470   5.092   1.781  0.5616  0.6243 -0.0183
 4043TIP3   OH233687   5.439   1.784   1.342  0.4343 -0.3974  0.1821
 4043TIP3    H133688   5.365   1.765   1.400  1.0906  0.5009  1.3782
 4043TIP3    H233689   5.512   1.803   1.402  1.0273  1.0573 -0.9328
 4044TIP3   OH233690   4.195   2.694   2.187  0.3607  0.6628  0.2227
 4044TIP3    H133691   4.283   2.723   2.211  0.4573 -0.4647  1.3121
 4044TIP3    H233692   4.208   2.609   2.145 -0.3102 -0.2738  1.8384
 4045TIP3   OH233693   0.888   6.639   8.058  0.2839  0.0576 -0.2898
 4045TIP3    H133694   0.874   6.560   8.110 -1.7667  0.9048  0.5431
 4045TIP3    H233695   0.812   6.643   7.999  0.9417  0.8024 -1.1162
 4046TIP3   OH233696   0.918   0.733   9.016 -0.0873 -0.2212  0.3221
 4046TIP3    H133697   0.920   0.639   9.000  0.3683 -0.0424 -0.7527
 4046TIP3    H233698   0.903   0.741   9.110  0.0347 -1.3623  0.4527
 4047TIP3   OH233699   2.012   5.706   8.067 -0.2350 -0.3169  0.0875
 4047TIP3    H133700   2.026   5.643   8.138  0.4947 -2.0580 -1.4936
 4047TIP3    H233701   2.006   5.651   7.988 -0.1330  1.5901 -1.3050
 4048TIP3   OH233702   0.991   3.014   1.502 -0.0482 -0.8994 -0.4998
 4048TIP3    H133703   0.955   2.926   1.509  0.5680 -1.0274  2.2310
 4048TIP3    H233704   0.953   3.061   1.577  0.4120  0.8837 -1.3315
 4049TIP3   OH233705   4.224   3.896   0.743 -0.1338 -0.3437  0.1158
 4049TIP3    H133706   4.320   3.889   0.745 -0.1959 -2.1880 -1.0694
 4049TIP3    H233707   4.203   3.911   0.651 -0.9657  0.9998  0.5013
 4050TIP3   OH233708   4.457   5.603   0.186 -0.0260 -0.7621 -1.1186
 4050TIP3    H133709   4.544   5.569   0.164  2.0026  1.9550  1.8834
 4050TIP3    H233710   4.437   5.565   0.272  0.1033  1.6788  0.0543
 4051TIP3   OH233711   0.468   1.814   0.695 -0.5838 -0.1124 -0.3878
 4051TIP3    H133712   0.378   1.825   0.724 -0.6449 -1.1858 -0.1145
 4051TIP3    H233713   0.462   1.804   0.600 -0.8051 -0.5580 -0.3313
 4052TIP3   OH233714   2.735   4.624   0.731  0.0220 -0.8065 -0.4651
 4052TIP3    H133715   2.813   4.607   0.678  0.3064 -0.8836 -0.0243
 4052TIP3    H233716   2.727   4.719   0.730 -1.1216 -0.8606 -2.2823
 4053TIP3   OH233717   5.248   4.165   0.898 -0.3910  0.1203 -0.2164
 4053TIP3    H133718   5.240   4.090   0.957  2.6902  0.7428  1.1832
 4053TIP3    H233719   5.217   4.132   0.814 -1.4286 -1.9413  0.8893
 4054TIP3   OH233720   0.630   2.749   0.905  0.3763  0.2515  0.1538
 4054TIP3    H133721   0.671   2.831   0.930  0.0990  0.0455  1.3321
 4054TIP3    H233722   0.618   2.756   0.810  1.2966  1.1298  0.0871
 4055TIP3   OH233723   1.858   5.069   2.883 -0.1410  0.1069 -0.4482
 4055TIP3    H133724   1.901   5.073   2.798 -0.2787  0.2411 -0.5108
 4055TIP3    H233725   1.842   5.161   2.906  2.7402  0.3341  1.1518
 4056TIP3   OH233726   5.759   2.185   8.200  0.4619  0.0641 -0.0885
 4056TIP3    H133727   5.834   2.178   8.141 -0.8479  2.4082 -2.2619
 4056TIP3    H233728   5.746   2.279   8.210 -1.4035 -0.2892  1.2761
 4057TIP3   OH233729   3.256   3.156   8.938 -0.0207  0.1887  0.7466
 4057TIP3    H133730   3.324   3.090   8.955 -0.2579 -0.3133 -0.1630
 4057TIP3    H233731   3.183   3.130   8.995 -0.0384 -0.2306  0.5424
 4058TIP3   OH233732   1.849   5.708   0.242  0.0370  0.1100 -0.3524
 4058TIP3    H133733   1.791   5.777   0.276  1.9268  0.7763  1.7720
 4058TIP3    H233734   1.818   5.628   0.282  0.2599  0.3901  0.3970
 4059TIP3   OH233735   2.431   0.680   0.298 -0.2716 -0.5398  0.3541
 4059TIP3    H133736   2.391   0.743   0.357 -1.1312 -0.4510 -0.3050
 4059TIP3    H233737   2.424   0.721   0.211  0.6463 -0.8221  0.1364
 4060TIP3   OH233738   1.377   6.312   3.230 -0.3746 -0.5182 -0.0965
 4060TIP3    H133739   1.354   6.399   3.198  0.1229  0.0140  0.9614
 4060TIP3    H233740   1.392   6.261   3.150 -0.2296  0.4815 -0.7306
 4061TIP3   OH233741   2.470   0.782   0.825 -0.3384 -0.1933 -0.2582
 4061TIP3    H133742   2.562   0.794   0.803 -0.6828  0.4359 -1.4790
 4061TIP3    H233743   2.471   0.740   0.910  1.0654  1.8811  0.8594
 4062TIP3   OH233744   2.414   2.398   2.048 -0.7926  0.4323  0.0639
 4062TIP3    H133745   2.501   2.421   2.014 -0.2845 -1.5749 -0.0722
 4062TIP3    H233746   2.370   2.483   2.057  0.9262  1.4496 -0.5046
 4063TIP3   OH233747   1.074   3.935   3.350  0.2459  0.3765  0.1776
 4063TIP3    H133748   1.019   3.999   3.306  0.2896  0.0010 -0.4416
 4063TIP3    H233749   1.130   3.987   3.407 -1.6440  0.6863  1.8774
 4064TIP3   OH233750   1.496   0.978   8.366 -0.2267  0.2049  0.0854
 4064TIP3    H133751   1.433   1.045   8.342 -0.4598 -0.2167 -0.4856
 4064TIP3    H233752   1.557   1.023   8.425 -0.0421  1.0682 -0.7442
 4065TIP3   OH233753   2.841   1.457   1.734 -0.7707 -0.1843  0.4499
 4065TIP3    H133754   2.824   1.541   1.692  0.9909  1.3087  2.5208
 4065TIP3    H233755   2.921   1.426   1.692  0.2211  0.6450  1.6629
 4066TIP3   OH233756   5.539   3.056   1.003 -0.1080  0.0758 -0.8554
 4066TIP3    H133757   5.546   3.039   0.909  0.1993  0.6081 -0.9315
 4066TIP3    H233758   5.551   2.970   1.043  1.2098  0.0555 -1.2400
 4067TIP3   OH233759   1.481   2.512   0.990  0.0514 -0.0304 -0.2436
 4067TIP3    H133760   1.389   2.486   0.982  0.2642 -1.0716  0.4682
 4067TIP3    H233761   1.525   2.466   0.918  0.2909 -1.0002  0.5023
 4068TIP3   OH233762   2.462   3.323   0.553  0.3710 -0.2083  0.5426
 4068TIP3    H133763   2.531   3.276   0.506  0.1553 -0.4447  0.4579
 4068TIP3    H233764   2.397   3.256   0.573  1.8698 -0.8229  4.0035
 4069TIP3   OH233765   3.172   2.336   7.411  0.1032 -0.2493 -0.3356
 4069TIP3    H133766   3.143   2.274   7.477  1.0092 -0.1016  0.2160
 4069TIP3    H233767   3.112   2.322   7.337 -0.7498 -0.6004  0.4000
 4070TIP3   OH233768   1.057   6.345   2.151  0.2344 -0.5885  0.2388
 4070TIP3    H133769   1.041   6.371   2.242 -0.3736 -0.8372  0.2121
 4070TIP3    H233770   0.974   6.305   2.124  1.5572 -3.9901  0.7597
 4071TIP3   OH233771   0.692   6.402   0.797 -0.1995  0.6588 -0.1590
 4071TIP3    H133772   0.766   6.341   0.792  0.5789  1.5794 -0.2990
 4071TIP3    H233773   0.632   6.363   0.860  0.8231  0.3067  0.6214
 4072TIP3   OH233774   5.699   4.573   8.390 -0.5012 -0.3211 -0.0004
 4072TIP3    H133775   5.724   4.499   8.446  0.0246  0.8216  1.3204
 4072TIP3    H233776   5.762   4.570   8.318  0.6587 -0.1410  0.9686
 4073TIP3   OH233777   1.597   4.114   1.621 -0.7569  0.4159  0.1421
 4073TIP3    H133778   1.676   4.166   1.634 -1.4424  1.2626  1.0457
 4073TIP3    H233779   1.529   4.161   1.669 -1.6448 -0.7168  0.0304
 4074TIP3   OH233780   0.883   6.060   1.528 -0.3661  0.3644  0.0089
 4074TIP3    H133781   0.864   5.978   1.482  0.2461  0.2986 -0.1276
 4074TIP3    H233782   0.796   6.098   1.544 -0.5823  0.8372 -1.9890
 4075TIP3   OH233783   4.743   2.598   1.494 -0.1507 -0.2048  0.3394
 4075TIP3    H133784   4.834   2.579   1.515  0.1297  1.1682  0.4007
 4075TIP3    H233785   4.727   2.549   1.413  0.5051 -0.7781  0.5419
 4076TIP3   OH233786   4.980   0.866   8.386  1.1057 -0.2436 -0.0424
 4076TIP3    H133787   4.958   0.920   8.310 -0.0570 -1.0345 -0.3036
 4076TIP3    H233788   4.941   0.780   8.366 -0.4520 -0.0977  2.0420
 4077TIP3   OH233789   0.981   3.844   2.833 -0.5448  0.2174 -0.1249
 4077TIP3    H133790   1.011   3.926   2.794 -0.7670  0.2397 -0.2496
 4077TIP3    H233791   1.014   3.847   2.923 -1.6772  1.0651  0.2950
 4078TIP3   OH233792   3.522   2.878   7.707  0.4156  0.3314 -0.5982
 4078TIP3    H133793   3.617   2.889   7.712  0.3975  0.6466 -0.9188
 4078TIP3    H233794   3.503   2.881   7.613  0.1619 -0.3489 -0.5747
 4079TIP3   OH233795   2.320   2.459   0.353  0.3360 -0.2515 -0.0591
 4079TIP3    H133796   2.349   2.499   0.271 -0.8176 -1.4611 -1.0928
 4079TIP3    H233797   2.247   2.514   0.381  0.7468  0.1774  0.1911
 4080TIP3   OH233798   3.853   6.130   1.811  0.1218  0.2422  0.8425
 4080TIP3    H133799   3.817   6.195   1.871  0.1053  0.6077  0.4449
 4080TIP3    H233800   3.888   6.061   1.868  0.5358  0.8075  1.2890
 4081TIP3   OH233801   1.449   5.155   2.780  0.2637 -0.3403  0.1778
 4081TIP3    H133802   1.527   5.174   2.728  0.6616  0.0515  0.8863
 4081TIP3    H233803   1.384   5.124   2.717  0.7163  0.1511 -0.5426
 4082TIP3   OH233804   2.423   4.318   8.978 -0.0817 -0.2348 -0.3988
 4082TIP3    H133805   2.470   4.262   8.916  0.1103  0.1025 -0.5623
 4082TIP3    H233806   2.405   4.398   8.929  1.6144  0.7533  0.4740
 4083TIP3   OH233807   2.067   1.413   0.839 -0.2362  0.2269  0.5265
 4083TIP3    H133808   2.143   1.384   0.889 -0.9466  1.6372  2.5555
 4083TIP3    H233809   2.030   1.333   0.802  2.3372 -0.4535 -0.7344
 4084TIP3   OH233810   3.575   4.609   2.380 -0.1655 -0.3616  0.5717
 4084TIP3    H133811   3.547   4.550   2.310 -0.4462 -0.4672  0.7704
 4084TIP3    H233812   3.619   4.681   2.335  1.0151 -1.1686  0.3757
 4085TIP3   OH233813   2.863   2.301   1.366 -0.0817 -0.8113 -0.0689
 4085TIP3    H133814   2.791   2.363   1.377  0.8841  0.6225 -1.4385
 4085TIP3    H233815   2.839   2.248   1.290  0.2084 -0.4558 -0.4127
 4086TIP3   OH233816   0.531   6.706   1.175  0.5203 -0.1762 -0.4462
 4086TIP3    H133817   0.597   6.680   1.111  0.7580 -1.0552  0.1349
 4086TIP3    H233818   0.466   6.636   1.174 -2.9095  2.6299 -4.1978
 4087TIP3   OH233819   0.830   6.565   1.552 -0.0048  0.1239 -0.1346
 4087TIP3    H133820   0.748   6.600   1.515  0.4517  1.0829 -0.2776
 4087TIP3    H233821   0.860   6.634   1.611  2.0058  0.9091 -1.9710
 4088TIP3   OH233822   3.451   5.014   2.747  0.1336  0.1596 -0.6052
 4088TIP3    H133823   3.494   4.985   2.827 -0.1376 -1.6203 -1.0661
 4088TIP3    H233824   3.510   4.986   2.677 -0.0491  0.9293 -1.0775
 4089TIP3   OH233825   5.068   6.431   1.332  0.0283  0.3131 -0.5102
 4089TIP3    H133826   5.143   6.483   1.359  0.7716 -0.1762 -1.5348
 4089TIP3    H233827   5.037   6.390   1.413  3.6828 -3.0985 -0.4662
 4090TIP3   OH233828   4.800   3.468   2.723 -0.1674  0.9295 -0.0769
 4090TIP3    H133829   4.803   3.554   2.765  0.6890  0.4555  0.8521
 4090TIP3    H233830   4.886   3.458   2.682  0.0578  0.1576  0.5601
 4091TIP3   OH233831   2.174   6.428   3.483  0.4486  0.0136  0.2854
 4091TIP3    H133832   2.267   6.405   3.488  0.5773  0.5651  0.4760
 4091TIP3    H233833   2.134   6.379   3.555  0.7289  0.3920  0.7076
 4092TIP3   OH233834   4.298   6.303   0.396 -0.1782  0.3168 -0.3515
 4092TIP3    H133835   4.361   6.290   0.466  0.0783  0.8292 -0.4885
 4092TIP3    H233836   4.217   6.262   0.429 -0.4007  1.5651  0.7285
 4093TIP3   OH233837   0.743   6.039   0.560  0.8308  0.0247  0.5453
 4093TIP3    H133838   0.798   5.988   0.500  0.6035  0.1668  0.2094
 4093TIP3    H233839   0.733   6.123   0.516  0.7228  0.1555  0.8234
 4094TIP3   OH233840   0.649   5.257   7.783 -0.1310  0.0241  0.2488
 4094TIP3    H133841   0.599   5.196   7.728  1.7108 -1.2002 -0.1499
 4094TIP3    H233842   0.721   5.286   7.728  1.8248 -1.2951  1.9746
 4095TIP3   OH233843   6.286   5.512   8.758 -0.8887 -0.2026 -0.3447
 4095TIP3    H133844   6.311   5.592   8.804  0.2625 -0.8442  0.1737
 4095TIP3    H233845   6.199   5.492   8.792 -0.9813  0.5570 -0.1154
 4096TIP3   OH233846   4.370   3.576   3.351  0.4511 -0.6030  0.6673
 4096TIP3    H133847   4.314   3.505   3.381  0.1986 -0.3232  0.8521
 4096TIP3    H233848   4.458   3.537   3.349  0.1432 -1.2906 -0.4365
 4097TIP3   OH233849   3.035   6.656   0.149  0.0839 -0.5509  0.2259
 4097TIP3    H133850   3.115   6.612   0.178  0.6227  0.2833  0.0510
 4097TIP3    H233851   3.049   6.670   0.055  0.8571  1.7985  0.6171
 4098TIP3   OH233852   1.929   0.366   2.265 -0.1150  0.1959 -0.0133
 4098TIP3    H133853   1.915   0.271   2.271  0.0584  0.1838  0.2060
 4098TIP3    H233854   2.023   0.376   2.251  0.2142  0.3974  1.9835
 4099TIP3   OH233855   3.643   6.000   1.159 -0.3157 -0.0654 -0.2607
 4099TIP3    H133856   3.548   5.991   1.155 -0.4687  1.0327  0.5862
 4099TIP3    H233857   3.661   6.024   1.250  0.7873 -0.3907 -0.3835
 4100TIP3   OH233858   0.427   5.903   0.047  0.3674 -0.2792  0.1034
 4100TIP3    H133859   0.333   5.906   0.027  0.4970  0.8469 -0.4169
 4100TIP3    H233860   0.464   5.978  -0.001  1.2770  0.2851  1.6169
 4101TIP3   OH233861   5.018   4.087   3.651  0.3808  0.1460  0.5512
 4101TIP3    H133862   5.043   3.994   3.660  0.6317  0.0923 -0.5690
 4101TIP3    H233863   5.088   4.134   3.697  1.0847 -0.1538 -0.1767
 4102TIP3   OH233864   4.915   2.199   1.226  0.2419  0.0425 -0.2721
 4102TIP3    H133865   4.977   2.258   1.269  0.3463 -1.2119  1.4081
 4102TIP3    H233866   4.838   2.200   1.283 -0.5033  0.0267 -1.2585
 4103TIP3   OH233867   0.361   5.165   2.821 -0.4382  0.1465 -0.3794
 4103TIP3    H133868   0.385   5.221   2.747 -3.4041  1.7411 -0.2721
 4103TIP3    H233869   0.369   5.222   2.897  2.2565 -1.3867  0.6363
 4104TIP3   OH233870   2.694   0.317   8.413  0.7329 -0.3603 -0.2355
 4104TIP3    H133871   2.732   0.294   8.328  2.4260  1.5403 -0.0451
 4104TIP3    H233872   2.748   0.389   8.446  0.2589 -1.1472  2.5596
 4105TIP3   OH233873   5.612   5.819   0.837 -0.2472  0.0723 -0.4122
 4105TIP3    H133874   5.701   5.785   0.850 -0.6510 -0.9793 -0.3256
 4105TIP3    H233875   5.580   5.836   0.926  0.1687  1.3033 -0.4742
 4106TIP3   OH233876   2.726   0.285   1.381 -0.3157 -0.4754  0.7811
 4106TIP3    H133877   2.685   0.206   1.417 -0.9262 -0.7898 -0.5565
 4106TIP3    H233878   2.792   0.252   1.321 -1.3186 -0.0077 -0.6253
 4107TIP3   OH233879   0.712   1.102   8.096 -0.5784 -0.0381  0.3206
 4107TIP3    H133880   0.635   1.063   8.054  0.3716 -0.1800 -1.3737
 4107TIP3    H233881   0.676   1.160   8.163 -2.2926  1.5239 -1.8023
 4108TIP3   OH233882   5.540   4.815   3.101  0.5587  0.1573  0.7253
 4108TIP3    H133883   5.505   4.770   3.178 -0.4413  1.9470  1.3923
 4108TIP3    H233884   5.620   4.857   3.132  0.3388  0.5981  0.6999
 4109TIP3   OH233885   6.138   3.507   3.066  0.1797 -0.6384  0.3427
 4109TIP3    H133886   6.158   3.598   3.046 -0.3824 -0.4182  0.7648
 4109TIP3    H233887   6.219   3.473   3.105  0.5077 -0.4252 -0.1419
 4110TIP3   OH233888   3.545   4.884   0.427  0.4362 -0.3966 -0.2339
 4110TIP3    H133889   3.559   4.850   0.515 -1.8099  0.3736  0.4977
 4110TIP3    H233890   3.602   4.961   0.421  2.5235 -1.8767 -0.4506
 4111TIP3   OH233891   1.397   5.374   8.363  0.1309 -0.8278 -0.2850
 4111TIP3    H133892   1.479   5.366   8.412 -0.1758  1.3504  0.7392
 4111TIP3    H233893   1.334   5.319   8.411  0.4850 -0.7971  0.2219
 4112TIP3   OH233894   0.965   5.424   1.238  0.4709 -0.0412 -0.2101
 4112TIP3    H133895   1.032   5.420   1.170 -0.1340 -0.7496 -0.7767
 4112TIP3    H233896   0.971   5.513   1.272  1.8639 -0.1666 -0.0690
 4113TIP3   OH233897   6.045   4.143   1.149 -0.2408 -0.2344 -0.4172
 4113TIP3    H133898   6.055   4.132   1.054  1.2701  0.3538 -0.3581
 4113TIP3    H233899   6.130   4.176   1.178 -0.7913 -0.0795  1.1021
 4114TIP3   OH233900   1.724   5.869   3.097 -0.1596  0.0421 -0.1283
 4114TIP3    H133901   1.806   5.835   3.133  0.0729  0.2601 -0.4482
 4114TIP3    H233902   1.736   5.864   3.002 -0.8406 -0.7061 -0.1834
 4115TIP3   OH233903   4.320   0.061   8.219  0.1708 -0.8014  0.2406
 4115TIP3    H133904   4.258   0.051   8.292  0.2456 -1.3792  0.2301
 4115TIP3    H233905   4.295  -0.008   8.157 -2.1170  1.7465 -1.9437
 4116TIP3   OH233906   0.986   3.206   0.829 -0.3947 -0.2070  0.1470
 4116TIP3    H133907   0.986   3.231   0.922 -2.5484 -1.7299  0.6467
 4116TIP3    H233908   0.902   3.163   0.816  0.0990 -0.5699 -2.4024
 4117TIP3   OH233909   3.387   4.211   1.454  0.3721 -0.0476  0.3833
 4117TIP3    H133910   3.353   4.254   1.533 -0.9998 -0.7907  0.2420
 4117TIP3    H233911   3.469   4.171   1.482  1.3495  2.0251  0.6915
 4118TIP3   OH233912   5.408   3.534   0.780 -0.0159 -0.7315  0.5426
 4118TIP3    H133913   5.449   3.514   0.864 -0.3438 -0.3000  0.8066
 4118TIP3    H233914   5.476   3.581   0.731  0.3765 -1.4936  0.3354
 4119TIP3   OH233915   2.261   3.481   0.669 -0.1821  0.2925  0.1620
 4119TIP3    H133916   2.192   3.453   0.609 -0.8829 -1.0572  1.5142
 4119TIP3    H233917   2.331   3.417   0.658 -0.2484  0.1290  0.6471
 4120TIP3   OH233918   4.520   3.510   3.056 -0.6161 -0.4940  0.1530
 4120TIP3    H133919   4.564   3.467   3.129 -0.6517 -3.0902 -1.2594
 4120TIP3    H233920   4.522   3.446   2.985 -1.0343  1.7328 -2.0000
 4121TIP3   OH233921   2.849   6.254   8.789 -0.0299 -0.1174 -0.2300
 4121TIP3    H133922   2.775   6.198   8.764 -1.3090  0.3141  2.2505
 4121TIP3    H233923   2.808   6.327   8.835  1.9012  0.6218  0.4010
 4122TIP3   OH233924   5.325   5.629   2.291 -0.1894  1.0864 -0.4310
 4122TIP3    H133925   5.382   5.552   2.293  1.5303  2.2791  2.2850
 4122TIP3    H233926   5.383   5.702   2.270 -1.1368  2.0671  0.2444
 4123TIP3   OH233927   0.732   4.519   0.901 -0.3049  0.0391  0.0979
 4123TIP3    H133928   0.781   4.601   0.895 -0.5720  0.2969  1.1257
 4123TIP3    H233929   0.763   4.467   0.828 -1.2715  1.6457 -1.5596
 4124TIP3   OH233930   3.532   0.071   8.858  0.1709  0.0461  0.3668
 4124TIP3    H133931   3.620   0.081   8.893 -0.9121  1.8628  2.8640
 4124TIP3    H233932   3.539   0.098   8.767  2.2487 -0.2732  0.3856
 4125TIP3   OH233933   2.695   0.338   2.274  0.4377 -0.2374 -0.3573
 4125TIP3    H133934   2.633   0.280   2.317 -1.9441  2.3949  0.0315
 4125TIP3    H233935   2.712   0.297   2.189 -1.5344 -1.2190 -0.3213
 4126TIP3   OH233936   2.411   2.365   8.659 -0.3409  0.5306  0.1061
 4126TIP3    H133937   2.502   2.385   8.684 -1.3344  3.2415  2.0401
 4126TIP3    H233938   2.418   2.287   8.604  3.1335  0.5527  0.2851
 4127TIP3   OH233939   1.742   2.828   8.537  0.0810  0.0291  0.1584
 4127TIP3    H133940   1.782   2.890   8.599  0.1287  0.5189 -0.3582
 4127TIP3    H233941   1.655   2.863   8.520  0.0653 -0.1085 -0.0489
 4128TIP3   OH233942   2.814   0.782   8.988  0.2894  0.2888 -0.3798
 4128TIP3    H133943   2.900   0.790   9.028  1.3122 -0.3151 -2.3122
 4128TIP3    H233944   2.765   0.726   9.048  1.3479  0.3418  0.5794
 4129TIP3   OH233945   6.238   1.060   3.135 -0.1214 -0.8809 -0.4034
 4129TIP3    H133946   6.187   0.989   3.096  0.0513 -0.4789 -1.3741
 4129TIP3    H233947   6.329   1.036   3.119  0.0454 -1.5932  1.3223
 4130TIP3   OH233948   6.401   0.944   2.337  0.0427 -0.5509  0.1988
 4130TIP3    H133949   6.319   0.927   2.291  0.1650 -1.4473  0.3023
 4130TIP3    H233950   6.470   0.922   2.274  0.2382  1.4661 -0.3610
 4131TIP3   OH233951   3.776   4.419   1.820 -0.2630 -0.6910 -0.0047
 4131TIP3    H133952   3.770   4.451   1.730 -0.6112  1.7648  0.8313
 4131TIP3    H233953   3.864   4.441   1.848 -1.1559  1.5748  1.2576
 4132TIP3   OH233954   4.242   4.667   0.189  0.4138 -0.2778  0.4375
 4132TIP3    H133955   4.313   4.637   0.132 -0.1201  1.5463 -1.3000
 4132TIP3    H233956   4.162   4.634   0.148  0.0649  0.3719  0.5792
 4133TIP3   OH233957   6.628   1.554   0.006 -0.6049  0.0014 -0.0727
 4133TIP3    H133958   6.647   1.596   0.090  1.9085  0.0652 -0.5999
 4133TIP3    H233959   6.540   1.584  -0.016  0.1220  3.1011  0.7326
 4134TIP3   OH233960   2.690   2.347   7.770 -0.5095 -0.0556 -0.0687
 4134TIP3    H133961   2.673   2.441   7.765 -1.7483 -0.2317  0.5214
 4134TIP3    H233962   2.651   2.312   7.690  0.3990 -0.0309 -0.5443
 4135TIP3   OH233963   0.998   1.533   1.704 -0.1940 -0.3100 -0.4795
 4135TIP3    H133964   0.962   1.531   1.793  0.8531 -0.3385 -0.0468
 4135TIP3    H233965   1.091   1.516   1.715 -0.1473 -0.8872 -1.6449
 4136TIP3   OH233966   0.761   2.408   1.149 -0.2959 -0.0429 -0.4532
 4136TIP3    H133967   0.787   2.461   1.073  1.0139 -0.3025 -0.2072
 4136TIP3    H233968   0.830   2.342   1.157 -0.8138 -0.4863  0.5197
 4137TIP3   OH233969   5.460   2.825   8.850 -0.1197 -0.4129  0.5652
 4137TIP3    H133970   5.458   2.730   8.841  0.3594 -0.6906  2.6713
 4137TIP3    H233971   5.532   2.853   8.794 -0.6997 -1.1824 -0.6161
 4138TIP3   OH233972   3.496   3.379   1.843 -0.2605 -0.0322 -0.2519
 4138TIP3    H133973   3.459   3.396   1.929 -2.0279  2.3254 -1.3572
 4138TIP3    H233974   3.499   3.465   1.801  0.7686 -1.0762 -2.4628
 4139TIP3   OH233975   2.855   4.936   8.373 -0.2722 -0.5051 -0.2631
 4139TIP3    H133976   2.841   4.951   8.467 -1.0641  0.7895 -0.5493
 4139TIP3    H233977   2.867   4.842   8.365 -0.2442 -0.6432  1.1317
 4140TIP3   OH233978   0.317   0.549   1.847 -0.5402 -0.4663 -0.2355
 4140TIP3    H133979   0.235   0.529   1.802  0.4219 -1.5139 -1.5839
 4140TIP3    H233980   0.319   0.487   1.921 -1.5707  0.4800  0.6250
 4141TIP3   OH233981   3.995   6.009   0.718  0.1914  0.5983 -0.8034
 4141TIP3    H133982   4.058   6.036   0.785 -1.2951  0.2540  0.8127
 4141TIP3    H233983   3.912   6.003   0.765 -0.8874  0.2069 -2.6772
 4142TIP3   OH233984   3.582   1.763   0.550 -0.2514  0.2865 -0.4536
 4142TIP3    H133985   3.573   1.695   0.616 -1.0019 -0.1992 -1.0409
 4142TIP3    H233986   3.547   1.724   0.470 -0.8198  1.4080 -0.7702
 4143TIP3   OH233987   3.850   2.198   1.258  0.2572 -0.5325 -0.2277
 4143TIP3    H133988   3.770   2.175   1.305  0.8403 -0.4234  0.8390
 4143TIP3    H233989   3.834   2.168   1.168 -0.8778 -0.7288  0.0216
 4144TIP3   OH233990   0.264   4.421   3.135  0.1042  0.3286 -0.3458
 4144TIP3    H133991   0.325   4.432   3.208  0.8833  0.1890 -0.9600
 4144TIP3    H233992   0.179   4.443   3.172  0.2951 -0.8908  0.9337
 4145TIP3   OH233993   5.063   2.364   7.889  0.4485  0.0303 -0.6519
 4145TIP3    H133994   4.977   2.324   7.894 -0.5161  2.0762  0.3615
 4145TIP3    H233995   5.107   2.319   7.817 -1.3920 -1.1679 -1.0834
 4146TIP3   OH233996   4.139   5.525   1.598  0.2928 -0.2157  0.2228
 4146TIP3    H133997   4.057   5.573   1.591 -0.1477 -1.1759 -1.8533
 4146TIP3    H233998   4.207   5.593   1.597 -0.4139  0.6739  3.0585
 4147TIP3   OH233999   1.172   5.375   2.801 -0.1905  0.7124 -0.2505
 4147TIP3    H134000   1.112   5.309   2.766 -0.2517  0.6255  0.0190
 4147TIP3    H234001   1.136   5.397   2.887  0.2287  0.5758 -0.0412
 4148TIP3   OH234002   5.008   1.753   2.486 -0.0258 -0.4211 -0.2895
 4148TIP3    H134003   4.977   1.829   2.536  0.4767 -1.5542  1.9002
 4148TIP3    H234004   5.079   1.718   2.539  0.4533 -1.8176 -1.7857
 4149TIP3   OH234005   4.984   5.643   7.999 -1.0053  0.2967 -0.1479
 4149TIP3    H134006   5.036   5.706   8.049 -1.9052  1.1127 -0.2086
 4149TIP3    H234007   5.047   5.577   7.970 -0.1176  0.9371  0.2843
 4150TIP3   OH234008   5.169   4.041   0.362  0.1124 -0.0781 -0.6024
 4150TIP3    H134009   5.210   3.960   0.332 -1.3831 -0.8618 -0.6306
 4150TIP3    H234010   5.075   4.025   0.355 -0.2324  1.4455 -0.0166
 4151TIP3   OH234011   6.694   2.308   1.150  0.2764  0.0992  0.0065
 4151TIP3    H134012   6.753   2.234   1.138  1.1871  0.7410  0.3742
 4151TIP3    H234013   6.617   2.271   1.193  0.1699 -0.8516 -0.9656
 4152TIP3   OH234014   2.142   2.343   1.272 -0.3123  0.1240  0.4807
 4152TIP3    H134015   2.152   2.258   1.230  1.2493  0.2811  0.4826
 4152TIP3    H234016   2.111   2.322   1.360  0.7761 -0.5090  0.7283
 4153TIP3   OH234017   0.704   3.017   7.770 -0.3701 -0.1443 -0.1740
 4153TIP3    H134018   0.637   3.031   7.704  0.5725 -3.8466 -2.2503
 4153TIP3    H234019   0.697   2.924   7.792  2.2755 -0.0461  1.6080
 4154TIP3   OH234020   3.827   5.391   0.148 -0.2508 -0.3674  0.2839
 4154TIP3    H134021   3.887   5.464   0.131  0.8726 -1.1660  0.7056
 4154TIP3    H234022   3.845   5.329   0.077 -1.4505 -0.1153 -0.2757
 4155TIP3   OH234023   1.486   1.493   0.278 -0.3369 -0.5231 -0.7469
 4155TIP3    H134024   1.511   1.401   0.262  1.9092  0.0415 -0.9089
 4155TIP3    H234025   1.555   1.526   0.336 -1.9774  0.6622  0.6185
 4156TIP3   OH234026   4.712   6.722   8.882 -0.0065 -0.6816 -0.3893
 4156TIP3    H134027   4.706   6.639   8.835  1.4520 -1.6428  1.0531
 4156TIP3    H234028   4.739   6.698   8.970 -0.7757  1.2414  0.4136
 4157TIP3   OH234029   2.787   3.056   9.002 -0.1729 -0.0483 -0.2327
 4157TIP3    H134030   2.817   3.013   8.922 -2.2824 -1.1016 -0.5459
 4157TIP3    H234031   2.783   3.149   8.980  0.0498 -0.2319 -1.0799
 4158TIP3   OH234032   0.774   6.365   1.870 -0.6878 -0.6481 -0.2400
 4158TIP3    H134033   0.679   6.358   1.879 -0.9643  1.8454 -0.5848
 4158TIP3    H234034   0.793   6.458   1.878  1.6142 -0.9335 -1.3483
 4159TIP3   OH234035   6.121   1.972   1.591  0.5088 -0.2852  0.2560
 4159TIP3    H134036   6.037   2.017   1.601  1.4372  1.1377  2.2059
 4159TIP3    H234037   6.129   1.958   1.497 -1.1649  1.0091 -0.1399
 4160TIP3   OH234038   4.515   5.164   8.198  0.0519 -0.3329 -0.2891
 4160TIP3    H134039   4.524   5.100   8.269  0.9804  0.0184 -0.0860
 4160TIP3    H234040   4.476   5.113   8.126  0.6705 -1.1016 -0.0938
 4161TIP3   OH234041   2.870   3.075   0.411 -0.3358  0.1860 -0.0901
 4161TIP3    H134042   2.962   3.071   0.383 -0.2398 -1.4496  0.3786
 4161TIP3    H234043   2.875   3.087   0.506 -0.5576 -1.4339  0.1525
 4162TIP3   OH234044   1.554   1.529   1.720  0.0177 -0.2016 -0.5443
 4162TIP3    H134045   1.617   1.502   1.788 -2.1184  0.6865  1.9443
 4162TIP3    H234046   1.602   1.594   1.668  1.2003  0.4640  1.2695
 4163TIP3   OH234047   2.026   5.701   2.173 -0.1133 -0.1799  0.1595
 4163TIP3    H134048   2.016   5.779   2.119 -0.2802  0.4889  1.1304
 4163TIP3    H234049   2.080   5.729   2.247  0.4367 -1.1725  0.1585
 4164TIP3   OH234050   5.041   0.855   0.009 -0.5170  0.8519  0.5389
 4164TIP3    H134051   5.113   0.891  -0.042 -1.2393  0.4400 -0.8059
 4164TIP3    H234052   5.062   0.879   0.100  1.9911 -0.3996  0.3850
 4165TIP3   OH234053   1.214   2.474   1.069  0.3087 -0.3163  0.5035
 4165TIP3    H134054   1.120   2.457   1.068  0.4730 -1.3469  1.0690
 4165TIP3    H234055   1.244   2.438   1.152  1.6280 -2.6094 -0.8400
 4166TIP3   OH234056   2.745   0.668   8.740  0.4703 -0.2619 -0.0312
 4166TIP3    H134057   2.683   0.599   8.765 -0.1748  0.4055  0.2417
 4166TIP3    H234058   2.775   0.704   8.823 -0.5381  0.9551 -0.1636
 4167TIP3   OH234059   0.583   4.241   8.711 -0.4821 -0.2827  0.4382
 4167TIP3    H134060   0.538   4.314   8.751 -0.4321  0.1160 -0.2120
 4167TIP3    H234061   0.574   4.169   8.773 -0.3533  0.3315  1.1739
 4168TIP3   OH234062   4.731   2.138   8.272 -0.0382 -0.4582 -0.4915
 4168TIP3    H134063   4.705   2.223   8.237  0.0072 -0.4171 -0.4258
 4168TIP3    H234064   4.800   2.158   8.335 -1.5236 -0.3165  1.1863
 4169TIP3   OH234065   5.440   2.031   3.305 -0.1831  0.4504 -0.5867
 4169TIP3    H134066   5.445   2.078   3.388 -4.5675  1.8394 -0.8727
 4169TIP3    H234067   5.527   2.045   3.265  1.3435  1.5341  2.7483
 4170TIP3   OH234068   4.370   4.500   0.002  0.0385 -0.4403 -0.3418
 4170TIP3    H134069   4.306   4.429   0.012 -1.4527  0.5795 -2.0489
 4170TIP3    H234070   4.455   4.455   0.002 -0.6183 -1.8491  1.8765
 4171TIP3   OH234071   4.467   2.829   7.875 -0.1700  0.1595  0.0510
 4171TIP3    H134072   4.408   2.898   7.845 -1.1469 -1.1778 -1.2697
 4171TIP3    H234073   4.425   2.794   7.954 -0.1578  0.4560  0.1897
 4172TIP3   OH234074   3.281   3.335   2.508 -0.0415  0.3432 -0.1548
 4172TIP3    H134075   3.336   3.323   2.585 -2.0469  0.3368  1.3662
 4172TIP3    H234076   3.203   3.281   2.525 -0.7688  0.7523 -1.9408
 4173TIP3   OH234077   0.522   2.499   1.757  0.4140 -0.7718  0.2243
 4173TIP3    H134078   0.437   2.468   1.726 -0.0245 -0.6787  1.2951
 4173TIP3    H234079   0.522   2.480   1.851  2.0435 -1.8249  0.0622
 4174TIP3   OH234080   2.844   4.501   2.398  0.0845 -0.1596  0.1680
 4174TIP3    H134081   2.919   4.558   2.384 -0.1648  0.7126  2.0198
 4174TIP3    H234082   2.769   4.561   2.402 -0.3777 -0.7582  0.7081
 4175TIP3   OH234083   3.729   5.758   1.210 -0.4806  0.2494 -0.0602
 4175TIP3    H134084   3.715   5.852   1.214 -0.5063  0.4072 -2.4969
 4175TIP3    H234085   3.664   5.727   1.146 -0.4284 -1.4092  0.6432
 4176TIP3   OH234086   2.381   3.906   8.641 -0.9547 -0.1742  0.3630
 4176TIP3    H134087   2.368   3.900   8.736 -0.5471  0.6298  0.4799
 4176TIP3    H234088   2.311   3.964   8.611  1.0882  2.7483  0.7528
 4177TIP3   OH234089   4.253   2.155   8.297  0.4246  0.1639 -0.0209
 4177TIP3    H134090   4.220   2.073   8.258 -0.5717 -0.8335  2.7011
 4177TIP3    H234091   4.312   2.126   8.367  1.6404  1.8557 -0.2879
 4178TIP3   OH234092   3.564   0.653   2.382  0.3889  0.0043 -0.4236
 4178TIP3    H134093   3.656   0.665   2.360  0.9355 -0.5493  1.3759
 4178TIP3    H234094   3.556   0.685   2.472 -1.2159  0.1376 -0.5706
 4179TIP3   OH234095   4.709   0.225   7.919  0.2476  0.0949 -0.3492
 4179TIP3    H134096   4.722   0.281   7.996  1.2679  1.6708 -1.5823
 4179TIP3    H234097   4.797   0.207   7.887 -0.0519 -2.4024  0.0658
 4180TIP3   OH234098   5.431   5.552   1.306 -0.2024  0.0703 -0.4200
 4180TIP3    H134099   5.505   5.492   1.308  0.2986  0.6796  1.2177
 4180TIP3    H234100   5.470   5.637   1.282 -0.3504  0.3694  0.3405
 4181TIP3   OH234101   1.899   4.463   8.820 -0.6670 -0.0289 -0.3788
 4181TIP3    H134102   1.922   4.384   8.868  1.3874  0.7306 -0.0067
 4181TIP3    H234103   1.903   4.438   8.728 -0.7881 -0.5362 -0.2478
 4182TIP3   OH234104   0.772   5.138   8.046 -0.0553 -0.0773  0.8644
 4182TIP3    H134105   0.721   5.177   8.117 -0.3084  1.2880 -0.0292
 4182TIP3    H234106   0.738   5.179   7.967  3.1969  1.8184  0.2735
 4183TIP3   OH234107   3.231   0.225   0.157 -0.1935  0.4160  0.2092
 4183TIP3    H134108   3.226   0.249   0.065 -0.5678 -1.7335 -0.3759
 4183TIP3    H234109   3.140   0.216   0.185 -0.0931  1.3559  0.9112
 4184TIP3   OH234110   4.013   0.167   8.059 -0.0622 -0.0063 -0.3563
 4184TIP3    H134111   3.963   0.230   8.007 -1.0484 -0.7092 -0.2770
 4184TIP3    H234112   4.082   0.219   8.099  0.6544  0.5855 -2.2473
 4185TIP3   OH234113   0.437   2.513   2.411  0.0621  0.2990  0.0901
 4185TIP3    H134114   0.370   2.517   2.343 -0.1819  0.7627  0.3482
 4185TIP3    H234115   0.468   2.423   2.409  0.7178  0.5330 -1.2572
 4186TIP3   OH234116   2.586   1.572   0.649 -0.3702 -0.2553 -0.5291
 4186TIP3    H134117   2.511   1.630   0.661  0.0022 -0.1091  1.4648
 4186TIP3    H234118   2.660   1.631   0.639 -0.0790 -0.3318  0.8970
 4187TIP3   OH234119   5.439   0.960   2.320  0.1038  0.2123 -0.1162
 4187TIP3    H134120   5.455   0.915   2.237  2.2328  0.4412  0.1214
 4187TIP3    H234121   5.427   1.052   2.296  1.2866  0.3743 -0.1652
 4188TIP3   OH234122   2.387   3.053   8.118 -0.1306 -0.5726 -0.0935
 4188TIP3    H134123   2.340   3.134   8.097 -0.2221 -0.4914  0.4042
 4188TIP3    H234124   2.394   3.054   8.213 -1.3413 -1.8165  0.0489
 4189TIP3   OH234125   3.160   0.745   8.429  0.1171  0.2844 -0.6559
 4189TIP3    H134126   3.196   0.656   8.423 -0.3064  0.1416 -1.0980
 4189TIP3    H234127   3.111   0.745   8.511 -0.2641 -0.0347 -0.8792
 4190TIP3   OH234128   1.544   3.166   0.195  0.2209  0.0486 -0.1123
 4190TIP3    H134129   1.450   3.155   0.198  0.0045  1.7251  0.7307
 4190TIP3    H234130   1.568   3.199   0.282  1.3785  0.8432 -0.6948
 4191TIP3   OH234131   5.199   2.033   0.172  0.2423  0.2902  0.2915
 4191TIP3    H134132   5.169   1.944   0.157  1.7938 -0.1588 -0.3241
 4191TIP3    H234133   5.127   2.088   0.139 -1.3048 -0.6691  1.8698
 4192TIP3   OH234134   1.639   3.480   0.390  0.3264 -0.6496 -0.4906
 4192TIP3    H134135   1.581   3.493   0.466  0.8287  2.2209 -0.4847
 4192TIP3    H234136   1.580   3.469   0.316 -0.1890 -0.8785 -0.0516
 4193TIP3   OH234137   3.780   2.243   2.067  0.2435 -0.1750 -0.1469
 4193TIP3    H134138   3.770   2.163   2.016 -0.2086 -0.0086 -0.3284
 4193TIP3    H234139   3.796   2.213   2.156 -1.6296 -0.5128  0.1273
 4194TIP3   OH234140   0.746   4.362   8.876 -0.4212 -0.1420 -0.3376
 4194TIP3    H134141   0.791   4.441   8.846  1.2915 -0.7844  0.4330
 4194TIP3    H234142   0.712   4.322   8.796  0.3099  0.4176 -0.9433
 4195TIP3   OH234143   3.959   3.939   2.715 -0.7589  0.5056 -0.3183
 4195TIP3    H134144   4.041   3.959   2.670 -0.5861 -0.4367 -0.4482
 4195TIP3    H234145   3.927   3.860   2.672 -1.6912  0.8065 -0.1982
 4196TIP3   OH234146   4.529   3.773   8.786  0.3382  0.1370 -0.2254
 4196TIP3    H134147   4.504   3.724   8.864  0.1214 -0.6424 -0.7705
 4196TIP3    H234148   4.462   3.751   8.721 -0.4920  2.1331 -0.1331
 4197TIP3   OH234149   0.437   5.945   2.301  0.0797 -0.0916 -0.0452
 4197TIP3    H134150   0.437   6.040   2.288  0.9928  0.0319  0.7019
 4197TIP3    H234151   0.426   5.908   2.214  0.3887  0.7014 -0.4303
 4198TIP3   OH234152   3.307   1.272   7.342  0.4350 -0.0578 -0.2479
 4198TIP3    H134153   3.249   1.260   7.417  1.0764 -1.0659  0.1079
 4198TIP3    H234154   3.327   1.366   7.342 -0.0599  0.0558  0.4721
 4199TIP3   OH234155   6.634   5.706   3.443 -0.2711  0.1805  0.4737
 4199TIP3    H134156   6.714   5.758   3.435  1.2204 -2.1455 -0.9536
 4199TIP3    H234157   6.569   5.754   3.393  0.3627  1.8245  1.1527
 4200TIP3   OH234158   0.086   6.562   1.944 -0.0996 -0.2127 -0.7211
 4200TIP3    H134159   0.128   6.634   1.993 -0.5221  0.2963 -1.0953
 4200TIP3    H234160   0.100   6.584   1.852  0.2901 -0.9315 -0.8389
 4201TIP3   OH234161   5.733   1.806   2.932  0.0152  0.2821 -0.0741
 4201TIP3    H134162   5.689   1.753   2.999 -1.7454  0.9424 -0.6531
 4201TIP3    H234163   5.811   1.841   2.976 -1.0323  0.6108  1.6157
 4202TIP3   OH234164   2.382   3.421   8.147  0.4572  0.2315 -0.0313
 4202TIP3    H134165   2.440   3.373   8.089 -0.5882 -0.0060 -0.9288
 4202TIP3    H234166   2.302   3.368   8.151  0.4894  0.2698  1.6092
 4203TIP3   OH234167   2.873   0.978   1.448 -0.2002  0.2799 -0.0333
 4203TIP3    H134168   2.938   1.022   1.394 -0.3126 -0.8711 -1.1659
 4203TIP3    H234169   2.855   0.896   1.401 -1.7021  0.1092  0.7875
 4204TIP3   OH234170   1.765   5.345   3.802  0.7295  0.0059  0.2221
 4204TIP3    H134171   1.788   5.378   3.715  0.9400  1.4171  0.7853
 4204TIP3    H234172   1.781   5.419   3.860  2.2321 -1.4072  1.7194
 4205TIP3   OH234173   0.693   5.452   0.819  0.7042 -0.8907 -0.1470
 4205TIP3    H134174   0.659   5.529   0.774  0.8331 -0.2974  0.7462
 4205TIP3    H234175   0.696   5.384   0.751  1.9530  0.2630 -1.3184
 4206TIP3   OH234176   0.681   0.448   7.414  0.2982 -0.7963 -0.2459
 4206TIP3    H134177   0.632   0.386   7.468  1.1199 -0.0392  1.4816
 4206TIP3    H234178   0.708   0.516   7.476  1.2737  0.1538 -1.6555
 4207TIP3   OH234179   4.026   3.615   7.788 -0.1991  0.6927 -0.1522
 4207TIP3    H134180   4.004   3.523   7.772 -0.2568  0.6053  0.3932
 4207TIP3    H234181   4.047   3.618   7.882 -2.2444  1.6288  0.3286
 4208TIP3   OH234182   6.632   2.380   2.539  0.4629 -0.2670 -0.5266
 4208TIP3    H134183   6.559   2.406   2.596  1.7036 -0.1874  1.1005
 4208TIP3    H234184   6.594   2.314   2.480 -1.3005  0.9444 -0.8456
 4209TIP3   OH234185   4.444   6.277   8.995 -0.2676 -0.5720 -0.4940
 4209TIP3    H134186   4.383   6.338   9.037  0.4152 -0.4445  0.3401
 4209TIP3    H234187   4.488   6.233   9.067  1.9412  0.6386 -1.0010
 4210TIP3   OH234188   0.289   5.700   2.849 -0.0158  0.3175  0.4438
 4210TIP3    H134189   0.303   5.674   2.940  0.4922  1.4223  0.6874
 4210TIP3    H234190   0.331   5.630   2.798 -0.6462 -0.5113  1.0336
 4211TIP3   OH234191   2.967   5.295   8.887 -0.5574 -0.0453 -0.6797
 4211TIP3    H134192   2.943   5.209   8.920  0.1256 -0.1633 -0.4654
 4211TIP3    H234193   2.884   5.341   8.875 -0.8739 -0.3251  0.3444
 4212TIP3   OH234194   5.250   3.451   1.036 -0.2845  0.6773 -0.0898
 4212TIP3    H134195   5.293   3.377   0.993  1.6669  1.4333  0.4416
 4212TIP3    H234196   5.196   3.411   1.103 -0.5362 -0.3346 -0.8632
 4213TIP3   OH234197   3.251   3.070   2.626  0.6566  0.3876  0.5222
 4213TIP3    H134198   3.262   3.094   2.718 -0.7562  0.7075  0.6375
 4213TIP3    H234199   3.270   2.976   2.623  0.2402  0.2734  1.2413
 4214TIP3   OH234200   0.979   1.716   0.215  0.2016  0.7924 -0.3981
 4214TIP3    H134201   1.021   1.700   0.299 -0.5884  0.3148 -0.0891
 4214TIP3    H234202   0.926   1.794   0.229 -0.2406  0.4820 -0.3373
 4215TIP3   OH234203   1.706   6.491   0.923 -0.1182 -0.3746 -0.1603
 4215TIP3    H134204   1.647   6.558   0.957 -1.0245 -1.1836 -0.0756
 4215TIP3    H234205   1.679   6.411   0.967  1.1873 -0.7435  0.0202
 4216TIP3   OH234206   6.604   5.974   0.901  0.6310 -0.8942 -0.2818
 4216TIP3    H134207   6.651   5.946   0.980  1.7994 -1.0051 -0.9993
 4216TIP3    H234208   6.543   5.902   0.883 -1.9209  0.4342  2.2355
 4217TIP3   OH234209   2.261   3.619   1.232  0.0524  0.0606 -0.2235
 4217TIP3    H134210   2.310   3.699   1.211  0.3646 -0.2009 -0.5071
 4217TIP3    H234211   2.170   3.646   1.233  0.1293  0.3468 -0.6851
 4218TIP3   OH234212   5.666   4.326   1.668 -0.6219  0.1957  0.1339
 4218TIP3    H134213   5.607   4.330   1.743 -2.9539  1.3304 -1.6186
 4218TIP3    H234214   5.613   4.288   1.598  1.6818 -1.4684 -0.8050
 4219TIP3   OH234215   1.024   3.327   1.095  0.3595  0.2637  0.0469
 4219TIP3    H134216   1.077   3.266   1.146 -0.2217 -1.4229 -1.2704
 4219TIP3    H234217   1.040   3.412   1.135  1.5332 -0.6779  1.6932
 4220TIP3   OH234218   1.538   0.497   1.240 -0.2915  0.2198 -0.1564
 4220TIP3    H134219   1.531   0.587   1.207  0.8041  1.3977  2.5024
 4220TIP3    H234220   1.450   0.476   1.271 -0.3436  0.7878  0.0982
 4221TIP3   OH234221   5.291   6.002   2.916 -0.1616 -0.5029 -0.2037
 4221TIP3    H134222   5.342   6.008   2.836 -0.9380  0.3036 -0.6586
 4221TIP3    H234223   5.343   6.047   2.982  0.4485 -1.1116 -0.2609
 4222TIP3   OH234224   4.642   2.563   3.705  0.5013 -0.3466  0.5189
 4222TIP3    H134225   4.724   2.552   3.754  0.6980  1.1438  0.5624
 4222TIP3    H234226   4.619   2.655   3.718 -0.5767 -0.4654 -0.4420
 4223TIP3   OH234227   0.080   2.862   0.808  0.0484  0.1817  0.0473
 4223TIP3    H134228   0.102   2.844   0.899 -0.2842 -0.0865  0.0749
 4223TIP3    H234229   0.142   2.930   0.782 -0.2087  0.6386  0.6295
 4224TIP3   OH234230   6.530   3.701   8.814  0.1155  0.1149 -0.1071
 4224TIP3    H134231   6.538   3.629   8.752  0.2974 -1.8465  2.0881
 4224TIP3    H234232   6.620   3.724   8.837  0.0504  0.8726 -0.5740
 4225TIP3   OH234233   1.433   0.864   8.884  0.3229  0.1165 -0.6102
 4225TIP3    H134234   1.351   0.907   8.859 -0.8905 -2.3551 -1.1918
 4225TIP3    H234235   1.418   0.833   8.973  0.7993  0.0866 -0.5404
 4226TIP3   OH234236   1.949   0.137   1.895 -0.0980  0.0438 -0.1897
 4226TIP3    H134237   2.016   0.174   1.954  0.2244 -1.4382  0.4238
 4226TIP3    H234238   1.936   0.205   1.829  1.6355  0.6019 -0.0315
 4227TIP3   OH234239   3.237   1.031   7.224  0.2753 -0.1538  0.5543
 4227TIP3    H134240   3.322   0.988   7.219 -0.2736 -1.1687 -1.1991
 4227TIP3    H234241   3.256   1.124   7.235  1.5725 -0.4690  1.0666
 4228TIP3   OH234242   5.273   3.477   1.938 -0.2154  0.0660  0.0281
 4228TIP3    H134243   5.301   3.448   2.024 -0.6680 -1.3965 -0.2899
 4228TIP3    H234244   5.312   3.413   1.878 -0.0128  0.9869 -0.8496
 4229TIP3   OH234245   5.124   2.353   1.745  0.5503  0.2252 -0.3105
 4229TIP3    H134246   5.072   2.289   1.696 -0.6649  1.4268 -0.6268
 4229TIP3    H234247   5.212   2.346   1.706  0.5288 -1.4421 -0.1260
 4230TIP3   OH234248   0.628   3.158   2.294 -0.0693 -0.4187 -0.0932
 4230TIP3    H134249   0.670   3.229   2.246 -1.3357 -0.8451 -1.9653
 4230TIP3    H234250   0.696   3.123   2.351  1.4398  0.3483 -1.3571
 4231TIP3   OH234251   1.452   0.023   8.379 -0.0761  0.2900  0.3341
 4231TIP3    H134252   1.543   0.033   8.351 -0.1148  0.0194  0.1110
 4231TIP3    H234253   1.412   0.108   8.359 -0.2300 -0.0676 -0.9287
 4232TIP3   OH234254   4.854   2.791   8.975 -0.0109 -0.1833 -0.3995
 4232TIP3    H134255   4.787   2.845   9.016 -0.6036 -0.9131 -0.4028
 4232TIP3    H234256   4.825   2.781   8.885  1.8581  2.3793 -1.4253
 4233TIP3   OH234257   6.157   1.849   8.621 -0.4023 -0.0073  0.4542
 4233TIP3    H134258   6.252   1.862   8.629 -0.1643  1.8796 -3.3644
 4233TIP3    H234259   6.148   1.758   8.596  0.4448 -0.0894  0.4005
 4234TIP3   OH234260   1.782   0.792   8.347 -0.3321 -0.0124 -0.5093
 4234TIP3    H134261   1.717   0.861   8.346  0.9508  1.4130  2.3776
 4234TIP3    H234262   1.864   0.835   8.372  1.1366 -2.1671 -1.2136
 4235TIP3   OH234263   5.883   4.569   8.183 -0.3621 -0.0807  0.3816
 4235TIP3    H134264   5.898   4.527   8.098  0.7417 -0.9092  0.9652
 4235TIP3    H234265   5.970   4.578   8.222 -0.7346  1.3595  0.9460
 4236TIP3   OH234266   1.295   5.477   2.308  0.0174  0.4772 -0.1650
 4236TIP3    H134267   1.247   5.487   2.391 -0.0173  1.3569 -0.2801
 4236TIP3    H234268   1.261   5.547   2.252  1.3786  1.0885 -0.2667
 4237TIP3   OH234269   3.736   2.291   8.346  0.0527 -0.5193  0.4621
 4237TIP3    H134270   3.760   2.212   8.395  0.8518 -1.9335 -2.0108
 4237TIP3    H234271   3.817   2.315   8.300 -0.9769 -0.0978 -1.1867
 4238TIP3   OH234272   4.443   2.109   2.328 -0.5092 -0.3777  0.2896
 4238TIP3    H134273   4.411   2.061   2.251  0.5947  1.1707 -1.2240
 4238TIP3    H234274   4.383   2.183   2.336  0.6411  0.6938 -0.5150
 4239TIP3   OH234275   4.963   3.227   2.036  0.1062  0.3439 -0.2115
 4239TIP3    H134276   4.935   3.257   1.949  0.5637  1.0878 -0.1136
 4239TIP3    H234277   4.898   3.162   2.061 -0.2875  0.4513 -0.9199
 4240TIP3   OH234278   1.753   1.340   2.624 -0.0594  0.0154 -0.6470
 4240TIP3    H134279   1.743   1.250   2.655  0.9858 -0.0402 -0.4390
 4240TIP3    H234280   1.766   1.392   2.703 -1.1195  0.4346 -0.7292
 4241TIP3   OH234281   3.196   3.845   2.008  0.2439 -0.2045 -0.3767
 4241TIP3    H134282   3.279   3.809   1.978  0.9151  0.3909  0.7381
 4241TIP3    H234283   3.136   3.830   1.934  0.7724 -2.5357 -0.4087
 4242TIP3   OH234284   1.486   0.618   8.788  0.5806  0.5011  0.2156
 4242TIP3    H134285   1.566   0.632   8.737  0.4185  2.9806  0.5492
 4242TIP3    H234286   1.450   0.705   8.802 -1.3402 -0.4167  1.4812
 4243TIP3   OH234287   6.552   2.163   3.558 -0.0992 -0.2097 -0.1874
 4243TIP3    H134288   6.585   2.174   3.469 -1.6645  1.6875 -0.6164
 4243TIP3    H234289   6.618   2.205   3.613 -0.2023  0.6461 -0.6957
 4244TIP3   OH234290   3.640   5.424   0.498 -0.2957 -0.1538 -0.3720
 4244TIP3    H134291   3.725   5.453   0.463  0.5086 -0.1393  1.4645
 4244TIP3    H234292   3.639   5.330   0.483  0.5499 -0.3233  0.5771
 4245TIP3   OH234293   1.011   3.478   0.682  0.3932  0.0385  0.2315
 4245TIP3    H134294   1.022   3.413   0.751  0.3534 -0.6351 -0.3916
 4245TIP3    H234295   0.923   3.513   0.697  0.9942  1.1054  1.5258
 4246TIP3   OH234296   0.516   2.283   0.075  0.4286 -0.0682  0.6917
 4246TIP3    H134297   0.498   2.224   0.148  1.1169 -0.9360  0.1841
 4246TIP3    H234298   0.461   2.250   0.003  0.6342  0.0553  0.4754
 4247TIP3   OH234299   1.466   3.504   0.603 -0.3222 -0.1180 -0.5483
 4247TIP3    H134300   1.486   3.413   0.625  0.2094  0.3247  0.9296
 4247TIP3    H234301   1.376   3.503   0.573 -0.8693 -0.9069  1.0320
 4248TIP3   OH234302   3.190   4.629   0.352  1.1874  0.0296  0.0493
 4248TIP3    H134303   3.140   4.552   0.376  1.5448 -0.1944  0.0884
 4248TIP3    H234304   3.169   4.693   0.420  0.8325 -0.0047 -0.0259
 4249TIP3   OH234305   5.265   4.484   1.480 -0.2051 -0.3731 -0.5946
 4249TIP3    H134306   5.320   4.468   1.556 -1.6238  1.3978  0.8867
 4249TIP3    H234307   5.179   4.448   1.503 -1.7681  3.4196  0.4025
 4250TIP3   OH234308   2.834   2.743   1.140  0.0529  0.6635  0.5997
 4250TIP3    H134309   2.853   2.692   1.218 -2.3129  0.0177  0.8231
 4250TIP3    H234310   2.910   2.800   1.130  2.0005 -1.6107  1.3658
 4251TIP3   OH234311   4.951   4.812   0.005 -0.5672  0.9785  0.3104
 4251TIP3    H134312   4.859   4.792   0.018 -0.3816  1.2088  2.4281
 4251TIP3    H234313   4.989   4.733  -0.033 -0.9498 -0.6108  3.0156
 4252TIP3   OH234314   2.153   1.946   3.680  0.0179  0.0445 -0.3117
 4252TIP3    H134315   2.061   1.922   3.689 -0.0690 -0.0419 -1.3585
 4252TIP3    H234316   2.197   1.866   3.651  0.2965  0.2804 -0.5489
 4253TIP3   OH234317   0.984   6.022   0.048 -0.2328 -0.2449 -0.3853
 4253TIP3    H134318   1.039   5.999  -0.026  0.7671  0.2484  0.1890
 4253TIP3    H234319   0.966   6.116   0.037 -2.9160 -0.8067 -1.8184
 4254TIP3   OH234320   6.630   5.655   1.653 -0.0275  0.3672  0.3594
 4254TIP3    H134321   6.536   5.670   1.661  0.1115  1.3778  0.3163
 4254TIP3    H234322   6.669   5.741   1.673  0.9796 -0.5134  2.4457
 4255TIP3   OH234323   5.862   0.199   3.040  0.2032 -0.1873 -0.0278
 4255TIP3    H134324   5.913   0.213   2.961  0.3475 -0.9886 -0.0776
 4255TIP3    H234325   5.782   0.156   3.009 -0.8797  1.7333 -0.0599
 4256TIP3   OH234326   6.519   6.643   1.425  0.0008  0.0748  0.0046
 4256TIP3    H134327   6.611   6.623   1.407 -0.0468 -0.8826  0.7156
 4256TIP3    H234328   6.522   6.729   1.467  0.7059 -0.3977  0.9963
 4257TIP3   OH234329   2.703   3.472   1.928 -0.3624  0.1011 -0.0032
 4257TIP3    H134330   2.707   3.527   2.006  0.2911 -1.0713  0.8356
 4257TIP3    H234331   2.786   3.489   1.883  0.6791 -1.4534  1.2012
 4258TIP3   OH234332   4.528   2.681   7.662  0.1871  0.0838 -0.1441
 4258TIP3    H134333   4.565   2.611   7.716  0.2934  0.6915  0.5818
 4258TIP3    H234334   4.487   2.741   7.725  2.1104  1.9010 -0.5298
 4259TIP3   OH234335   2.924   0.055   8.909  0.2157 -0.2444 -0.6622
 4259TIP3    H134336   2.857   0.011   8.962  1.5498 -1.9781 -0.3310
 4259TIP3    H234337   2.875   0.113   8.851 -1.3684  1.6659  2.3016
 4260TIP3   OH234338   4.632   4.460   0.752  0.8139  0.0338 -0.0633
 4260TIP3    H134339   4.553   4.484   0.704 -0.0756 -1.4546  0.5800
 4260TIP3    H234340   4.601   4.404   0.823  2.4777 -0.9857 -0.0737
 4261TIP3   OH234341   5.377   0.165   2.057 -0.0271 -0.5770 -0.0088
 4261TIP3    H134342   5.308   0.101   2.077 -0.7441  0.0155 -0.5347
 4261TIP3    H234343   5.446   0.146   2.121 -0.2231 -1.8644 -0.1477
 4262TIP3   OH234344   0.895   3.533   8.640 -0.4108  0.2827 -0.0667
 4262TIP3    H134345   0.955   3.599   8.606  0.8444 -2.2911 -3.3956
 4262TIP3    H234346   0.944   3.490   8.711  0.2753  0.4916 -0.4121
 4263TIP3   OH234347   4.319   0.419   1.775 -1.0640 -0.2082 -0.4222
 4263TIP3    H134348   4.367   0.497   1.750 -0.8571 -0.1173  0.2447
 4263TIP3    H234349   4.246   0.414   1.713 -1.2685  0.6956 -0.2570
 4264TIP3   OH234350   0.457   0.068   2.390  0.1407  0.1479 -0.0457
 4264TIP3    H134351   0.484   0.118   2.467 -1.5152  1.9209 -0.5331
 4264TIP3    H234352   0.528   0.006   2.376  1.4741  1.1838  1.6624
 4265TIP3   OH234353   5.682   1.473   1.760  0.1944 -0.1211  0.4098
 4265TIP3    H134354   5.644   1.550   1.717  1.7641 -0.6966 -2.2315
 4265TIP3    H234355   5.636   1.399   1.721 -0.7067 -0.6419  2.3184
 4266TIP3   OH234356   6.706   1.843   8.367  0.2107  0.0708 -0.4072
 4266TIP3    H134357   6.641   1.876   8.305  0.9268  1.2091 -0.5810
 4266TIP3    H234358   6.790   1.873   8.332  0.6145  0.8951  1.1888
 4267TIP3   OH234359   6.194   4.139   2.058  0.2897  0.1150 -0.1358
 4267TIP3    H134360   6.171   4.147   1.966 -1.1029 -1.3476  0.0121
 4267TIP3    H234361   6.109   4.126   2.102  0.9762  0.1329  1.2452
 4268TIP3   OH234362   1.914   2.832   0.858  0.0479 -0.0548 -0.1271
 4268TIP3    H134363   1.894   2.794   0.772  1.6721 -2.4937  0.4532
 4268TIP3    H234364   2.010   2.825   0.865 -0.0222  0.3638  1.7721
 4269TIP3   OH234365   3.546   1.064   1.768  0.2180  0.4329 -0.0884
 4269TIP3    H134366   3.570   1.099   1.682  1.4868  1.6671  0.7175
 4269TIP3    H234367   3.466   1.111   1.792 -1.6073 -1.6901 -1.5887
 4270TIP3   OH234368   4.661   0.882   0.353 -0.2419  0.3795 -1.0561
 4270TIP3    H134369   4.635   0.972   0.371 -0.8434  0.2699 -1.3200
 4270TIP3    H234370   4.592   0.829   0.394  1.0288 -0.0388  0.6679
 4271TIP3   OH234371   2.918   3.823   1.522  0.3888  0.7991  0.4171
 4271TIP3    H134372   2.836   3.831   1.474  1.1914 -1.5066 -1.5390
 4271TIP3    H234373   2.970   3.898   1.494 -0.3400  1.2191  0.1694
 4272TIP3   OH234374   3.126   2.515   1.395 -0.3329 -0.1371  0.2270
 4272TIP3    H134375   3.057   2.572   1.361  0.9216  0.1158 -2.1540
 4272TIP3    H234376   3.200   2.575   1.411  0.7293 -0.8885 -1.5184
 4273TIP3   OH234377   6.411   2.609   8.493 -0.7581 -0.1457 -0.9001
 4273TIP3    H134378   6.418   2.519   8.525  1.0246 -0.0958 -1.0621
 4273TIP3    H234379   6.464   2.610   8.413 -0.0387  1.2367 -0.4417
 4274TIP3   OH234380   3.383   6.111   2.191 -0.1625  0.2874 -0.2534
 4274TIP3    H134381   3.408   6.092   2.101  1.3407 -0.6480  0.3113
 4274TIP3    H234382   3.303   6.163   2.184  0.5470  1.2230 -2.1571
 4275TIP3   OH234383   5.495   3.253   3.080  0.1652 -0.3368  0.2088
 4275TIP3    H134384   5.408   3.270   3.117  0.0233  2.0715 -1.0777
 4275TIP3    H234385   5.520   3.335   3.039  1.1687 -2.2416 -3.3273
 4276TIP3   OH234386   5.756   3.233   0.998  0.7660  0.1984  0.5166
 4276TIP3    H134387   5.813   3.241   1.075  1.6040 -0.2222 -0.0405
 4276TIP3    H234388   5.694   3.164   1.021  0.4154  0.7227  1.1664
 4277TIP3   OH234389   4.889   5.757   3.086  0.0732 -0.0779 -0.9105
 4277TIP3    H134390   4.957   5.824   3.093 -2.0227  2.0213  1.0613
 4277TIP3    H234391   4.815   5.801   3.044 -1.2920 -1.1481  0.2329
 4278TIP3   OH234392   6.367   1.645   3.100  0.0524 -0.5040 -0.0277
 4278TIP3    H134393   6.385   1.557   3.132 -0.4712 -0.8462 -0.6687
 4278TIP3    H234394   6.278   1.664   3.129 -0.4259 -0.8130 -1.2482
 4279TIP3   OH234395   5.567   5.480   8.407  0.4374 -0.0258 -0.0354
 4279TIP3    H134396   5.516   5.472   8.326 -2.0651  0.7762  1.3193
 4279TIP3    H234397   5.642   5.422   8.395 -0.7107 -1.1708 -2.2824
 4280TIP3   OH234398   4.159   0.476   8.380 -0.3868  0.0691  0.4777
 4280TIP3    H134399   4.164   0.423   8.300 -1.3916 -0.5261  0.7899
 4280TIP3    H234400   4.066   0.498   8.388 -0.1573  0.8712  1.0113
 4281TIP3   OH234401   5.557   1.952   1.543  0.2603 -0.4292  0.0220
 4281TIP3    H134402   5.483   1.991   1.591  0.7587 -1.3120  1.5744
 4281TIP3    H234403   5.630   2.011   1.560  0.2736 -0.3409 -0.3188
 4282TIP3   OH234404   3.589   0.498   8.213  0.3741  0.0230 -0.7975
 4282TIP3    H134405   3.626   0.481   8.300 -2.4745 -1.5017  0.2160
 4282TIP3    H234406   3.652   0.458   8.152  1.5971 -0.3326  0.6500
 4283TIP3   OH234407   1.837   1.109   2.403 -0.7864 -0.4442  0.4830
 4283TIP3    H134408   1.912   1.162   2.432 -0.2314 -1.1566  0.3798
 4283TIP3    H234409   1.795   1.079   2.484  0.1290 -1.5465  0.5758
 4284TIP3   OH234410   0.533   2.885   2.566  0.1635 -0.0344 -0.3178
 4284TIP3    H134411   0.594   2.878   2.492  0.2604 -0.4152 -0.2038
 4284TIP3    H234412   0.450   2.853   2.531  0.4116 -1.0359 -0.0285
 4285TIP3   OH234413   1.179   3.903   2.528  0.1409 -0.1025  0.0935
 4285TIP3    H134414   1.257   3.941   2.488 -0.3432  0.2067 -0.5897
 4285TIP3    H234415   1.170   3.948   2.612 -0.6706  1.6510 -0.8863
 4286TIP3   OH234416   5.783   1.969   0.163 -0.1719 -0.5889 -0.2448
 4286TIP3    H134417   5.773   2.054   0.206 -0.0570 -1.5994  1.9087
 4286TIP3    H234418   5.712   1.915   0.197 -0.4733 -1.2828 -1.8606
 4287TIP3   OH234419   1.893   3.115   1.163 -0.3100 -0.3166 -0.0955
 4287TIP3    H134420   1.869   3.181   1.098 -0.9611  1.1256  1.5298
 4287TIP3    H234421   1.984   3.093   1.142 -0.8903 -0.9244 -2.2807
 4288TIP3   OH234422   3.997   1.298   7.780  0.0582 -0.1199  0.7629
 4288TIP3    H134423   4.016   1.306   7.874  0.3433 -2.0680  0.9130
 4288TIP3    H234424   3.903   1.312   7.774  0.3699  2.5936  0.9514
 4289TIP3   OH234425   2.767   3.194   1.092 -0.4018  0.2590  0.1508
 4289TIP3    H134426   2.821   3.262   1.134 -0.5876  0.7110 -0.3278
 4289TIP3    H234427   2.811   3.177   1.009 -0.5563  0.0514  0.1136
 4290TIP3   OH234428   5.039   1.149   8.609 -0.3290 -0.1814  0.2786
 4290TIP3    H134429   5.016   1.235   8.645  1.5289  0.1111  0.8954
 4290TIP3    H234430   4.969   1.091   8.636 -1.9766  1.2575 -0.7057
 4291TIP3   OH234431   2.767   4.448   8.687  0.4171 -0.2275 -0.3055
 4291TIP3    H134432   2.808   4.529   8.719  0.8202  0.4819 -2.4232
 4291TIP3    H234433   2.673   4.465   8.695  0.5022  0.0980  0.0695
 4292TIP3   OH234434   1.059   0.529   2.309  0.1674  0.3642  0.2622
 4292TIP3    H134435   1.117   0.464   2.349  0.5841  0.2965 -0.4408
 4292TIP3    H234436   0.976   0.519   2.355 -0.5168 -2.2967 -1.3726
 4293TIP3   OH234437   4.482   6.091   0.521 -0.0456 -0.0858  0.0482
 4293TIP3    H134438   4.419   6.019   0.520 -0.8029  0.5551 -0.2011
 4293TIP3    H234439   4.559   6.056   0.476 -1.0778 -0.1823 -1.7762
 4294TIP3   OH234440   3.165   3.444   0.597  0.3613  0.2584 -0.6608
 4294TIP3    H134441   3.091   3.384   0.610  1.4128 -0.6931  1.4755
 4294TIP3    H234442   3.129   3.530   0.616 -0.7815  0.1569 -2.1657
 4295TIP3   OH234443   3.601   1.440   1.474  0.1327 -0.3796 -0.5861
 4295TIP3    H134444   3.580   1.481   1.558 -1.8482 -0.4909 -0.9570
 4295TIP3    H234445   3.600   1.513   1.412  2.5658 -0.1378 -0.4397
 4296TIP3   OH234446   2.196   6.385   2.998 -0.1270 -0.1428 -0.6360
 4296TIP3    H134447   2.259   6.327   3.042  1.1085  0.0610 -2.0734
 4296TIP3    H234448   2.237   6.471   3.001 -0.2710 -0.0305 -1.7085
 4297TIP3   OH234449   0.004   1.511   2.225  0.8815  0.2614  0.2933
 4297TIP3    H134450   0.059   1.472   2.158 -0.1640  2.9047 -2.2904
 4297TIP3    H234451   0.066   1.553   2.286  1.8290 -2.0490  1.0478
 4298TIP3   OH234452   2.601   1.655   8.617 -0.3621  0.3811  0.0840
 4298TIP3    H134453   2.667   1.701   8.565  0.3963  1.4276  1.8900
 4298TIP3    H234454   2.609   1.563   8.591 -0.6860  0.9600 -2.2982
 4299TIP3   OH234455   2.534   6.564   1.318  0.1688  0.0960 -0.7163
 4299TIP3    H134456   2.514   6.591   1.229 -1.0245  0.0798 -0.4714
 4299TIP3    H234457   2.589   6.486   1.308 -0.4526 -0.2628 -1.4374
 4300TIP3   OH234458   5.911   4.645   8.705  0.2651  0.2358 -0.4503
 4300TIP3    H134459   5.940   4.588   8.634  0.1361  0.9034 -1.0460
 4300TIP3    H234460   5.991   4.671   8.750  0.2437 -1.2997  0.5252
 4301TIP3   OH234461   4.488   4.264   1.880 -0.0980  0.4794 -0.0395
 4301TIP3    H134462   4.420   4.240   1.817  1.2897 -1.2146 -0.9849
 4301TIP3    H234463   4.449   4.243   1.965 -0.9103 -0.0841 -0.5337
 4302TIP3   OH234464   1.066   4.051   7.276 -0.0120  0.0762  0.4642
 4302TIP3    H134465   1.148   4.000   7.272  0.1140  0.3299 -0.3257
 4302TIP3    H234466   1.083   4.128   7.222 -0.8911 -0.0330  0.0255
 4303TIP3   OH234467   5.866   1.408   2.588  0.4692  0.4419  0.5248
 4303TIP3    H134468   5.838   1.430   2.499  0.3832  0.7335  0.6223
 4303TIP3    H234469   5.804   1.453   2.645 -1.2411 -1.9917  0.7470
 4304TIP3   OH234470   1.849   5.122   1.370 -0.0938 -0.5660  0.0191
 4304TIP3    H134471   1.854   5.129   1.465  1.5323 -0.3854 -0.0548
 4304TIP3    H234472   1.809   5.037   1.353 -0.8064 -0.4092  0.8435
 4305TIP3   OH234473   4.851   4.436   8.650 -0.5118 -0.3992  0.1552
 4305TIP3    H134474   4.946   4.427   8.649 -0.3459  0.7448  2.0065
 4305TIP3    H234475   4.819   4.359   8.602  1.3231 -0.8943 -0.3216
 4306TIP3   OH234476   1.443   3.209   8.094 -0.3575  0.8955  0.2369
 4306TIP3    H134477   1.514   3.172   8.041  0.1809  2.4861 -0.2017
 4306TIP3    H234478   1.406   3.279   8.040 -1.8146  0.5587  0.7517
 4307TIP3   OH234479   2.417   5.947   0.691 -0.4122 -0.6817 -0.0759
 4307TIP3    H134480   2.492   5.945   0.750  0.2410 -1.8996 -0.8981
 4307TIP3    H234481   2.434   6.021   0.633 -1.3909  0.9574  1.5925
 4308TIP3   OH234482   2.937   5.272   2.788 -0.3106 -0.3075  0.4589
 4308TIP3    H134483   3.002   5.203   2.799  0.2585  0.2990  1.0109
 4308TIP3    H234484   2.939   5.320   2.871  0.5924  1.4299 -0.5093
 4309TIP3   OH234485   1.707   2.271   2.484 -0.3359 -0.1368 -0.2965
 4309TIP3    H134486   1.686   2.178   2.486 -0.6527 -0.1310 -1.8264
 4309TIP3    H234487   1.657   2.309   2.556 -1.1262 -0.9722 -0.3856
 4310TIP3   OH234488   0.527   2.916   8.006  1.0187  0.2260  0.0824
 4310TIP3    H134489   0.499   2.972   7.933 -2.1081  1.4428  2.0333
 4310TIP3    H234490   0.513   2.826   7.974 -0.2687  0.7350 -0.8585
 4311TIP3   OH234491   3.971   0.490   7.216  0.1137 -0.0637 -0.2174
 4311TIP3    H134492   4.050   0.516   7.170  0.3432 -0.5094 -0.0811
 4311TIP3    H234493   3.966   0.550   7.291  0.2996 -0.0063 -0.2513
 4312TIP3   OH234494   6.267   3.110   2.000 -0.6340  0.3775  0.0124
 4312TIP3    H134495   6.184   3.063   1.996  0.2224 -1.1268 -1.6102
 4312TIP3    H234496   6.315   3.081   1.922  1.3157  1.3952  0.7524
 4313TIP3   OH234497   6.495   1.234   0.111 -0.3270 -0.2621 -0.3173
 4313TIP3    H134498   6.458   1.279   0.187  0.7869  0.8086 -0.3859
 4313TIP3    H234499   6.505   1.143   0.141  0.4593  0.2170  0.9858
 4314TIP3   OH234500   2.871   0.703   3.084 -0.3906  0.4655 -0.6190
 4314TIP3    H134501   2.938   0.696   3.016 -1.8871 -0.3526 -2.1048
 4314TIP3    H234502   2.898   0.642   3.152  0.4919  0.3148 -1.0923
 4315TIP3   OH234503   1.870   2.284   8.824  0.6940  0.4624 -0.0583
 4315TIP3    H134504   1.846   2.344   8.754  1.9802 -0.3495 -1.2449
 4315TIP3    H234505   1.965   2.274   8.816  0.5631 -1.5241  0.2678
 4316TIP3   OH234506   5.524   3.451   8.714  0.0785  0.1529 -0.2897
 4316TIP3    H134507   5.510   3.356   8.712 -0.2985  0.1883  0.2829
 4316TIP3    H234508   5.440   3.488   8.687  0.1278  0.3274 -0.2046
 4317TIP3   OH234509   2.704   3.877   1.341  0.8581  0.2612 -0.6628
 4317TIP3    H134510   2.628   3.827   1.371  0.5799  0.4720 -1.0107
 4317TIP3    H234511   2.667   3.957   1.303  1.2525  0.3761 -0.8096
 4318TIP3   OH234512   0.975   0.235   7.320  0.0476  0.1713 -0.2961
 4318TIP3    H134513   0.974   0.185   7.402 -1.5891  0.9718  0.2235
 4318TIP3    H234514   1.021   0.316   7.341  0.7886 -0.1690 -0.5535
 4319TIP3   OH234515   6.144   3.529   1.475  0.1686  0.2684  0.0994
 4319TIP3    H134516   6.172   3.515   1.565  0.2595  0.6197  0.1274
 4319TIP3    H234517   6.049   3.527   1.478  0.1605 -1.4296 -0.0709
 4320TIP3   OH234518   4.602   2.160   0.958 -0.7092 -0.2723  0.2466
 4320TIP3    H134519   4.544   2.083   0.961 -0.5792 -0.6512 -3.1046
 4320TIP3    H234520   4.690   2.123   0.948 -0.5697  0.2845 -0.6795
 4321TIP3   OH234521   4.600   1.787   0.088  0.4400  0.0318 -0.4779
 4321TIP3    H134522   4.569   1.858   0.033  0.7241  1.6193  1.3280
 4321TIP3    H234523   4.522   1.760   0.138  0.4015 -0.7595 -0.9456
 4322TIP3   OH234524   0.746   3.400   1.066 -0.3974  0.2405 -0.2963
 4322TIP3    H134525   0.820   3.351   1.103  0.1760 -0.4449 -2.2347
 4322TIP3    H234526   0.786   3.456   0.999 -1.5267  0.5658 -0.7136
 4323TIP3   OH234527   5.011   0.264   2.126 -0.0606 -0.5210  0.5541
 4323TIP3    H134528   5.057   0.181   2.113  1.2240  0.0761  1.1437
 4323TIP3    H234529   5.073   0.318   2.174 -1.1081  0.5854  0.6882
 4324TIP3   OH234530   4.650   5.113   2.898 -0.1654 -0.8014  1.0202
 4324TIP3    H134531   4.618   5.179   2.959  0.5035  0.1413  0.3775
 4324TIP3    H234532   4.629   5.030   2.940 -1.0158 -0.1947  1.8537
 4325TIP3   OH234533   1.653   4.047   3.410  0.5141  0.5095 -0.0153
 4325TIP3    H134534   1.645   3.977   3.475 -0.0530 -0.6180 -1.2400
 4325TIP3    H234535   1.744   4.042   3.380  0.0627 -0.9014 -1.3140
 4326TIP3   OH234536   2.125   6.109   1.224 -0.0269 -0.5298  0.3016
 4326TIP3    H134537   2.097   6.110   1.315  0.6238  1.5621  0.5328
 4326TIP3    H234538   2.124   6.201   1.197 -2.2382 -1.2056 -2.4664
 4327TIP3   OH234539   2.889   4.710   8.869  0.6674 -0.8811 -0.1965
 4327TIP3    H134540   2.892   4.797   8.830 -0.6500 -0.5353  0.4325
 4327TIP3    H234541   2.898   4.726   8.964 -0.1395 -1.3791 -0.0334
 4328TIP3   OH234542   6.555   5.410   1.825 -0.6471  0.1769 -0.3063
 4328TIP3    H134543   6.507   5.487   1.794  1.1494  1.8678  0.8758
 4328TIP3    H234544   6.487   5.349   1.853 -2.1272  1.5890 -0.6646
 4329TIP3   OH234545   4.025   4.678   0.806 -0.4565 -0.1069  0.2162
 4329TIP3    H134546   4.023   4.753   0.747 -2.6850 -0.1424  0.1705
 4329TIP3    H234547   3.969   4.612   0.763  1.2548 -1.7403  0.3561
 4330TIP3   OH234548   6.538   3.022   7.808  0.4112  0.2556  0.0211
 4330TIP3    H134549   6.457   3.018   7.859  0.3525  0.4226 -0.0555
 4330TIP3    H234550   6.600   2.968   7.857  0.2084 -0.0002 -0.0029
 4331TIP3   OH234551   1.600   1.992   0.413 -0.1028  0.2549  0.5608
 4331TIP3    H134552   1.580   1.901   0.435 -0.4369  0.2780  0.3510
 4331TIP3    H234553   1.694   1.992   0.397 -0.1913 -0.1685  0.0145
 4332TIP3   OH234554   2.385   4.736   2.242 -0.8772  0.5097 -0.1027
 4332TIP3    H134555   2.300   4.693   2.253  0.3464 -1.8306  0.7469
 4332TIP3    H234556   2.363   4.827   2.222 -3.6004 -0.3547 -1.4981
 4333TIP3   OH234557   0.427   2.396   2.034  0.1299 -0.0010 -0.2761
 4333TIP3    H134558   0.383   2.455   2.095 -0.7065 -2.2454  1.4337
 4333TIP3    H234559   0.495   2.354   2.086  0.3579 -0.9370 -1.2995
 4334TIP3   OH234560   6.267   3.739   1.179  0.1633  0.8297 -0.2445
 4334TIP3    H134561   6.311   3.812   1.136  2.2118  0.8636  1.7026
 4334TIP3    H234562   6.192   3.779   1.223 -0.0130  1.3609 -1.0136
 4335TIP3   OH234563   5.816   5.541   8.183  0.2288  0.8584 -0.4822
 4335TIP3    H134564   5.773   5.620   8.149  0.9417  1.4724  0.0052
 4335TIP3    H234565   5.856   5.570   8.265 -1.2022 -0.4946  0.7569
 4336TIP3   OH234566   5.398   5.627   1.764  0.0480 -0.1300  0.4250
 4336TIP3    H134567   5.404   5.532   1.765 -1.2239 -0.2865 -1.7134
 4336TIP3    H234568   5.304   5.645   1.762  0.2869  1.1519 -0.0090
 4337TIP3   OH234569   3.929   4.605   2.269  0.4529 -0.0215  0.0852
 4337TIP3    H134570   3.844   4.643   2.289  0.0772 -0.6447 -0.2802
 4337TIP3    H234571   3.945   4.630   2.178  0.4635 -0.2601  0.0207
 4338TIP3   OH234572   3.587   1.143   2.310  0.4769 -0.1461  0.8654
 4338TIP3    H134573   3.573   1.238   2.316  0.5112 -0.0075 -0.8023
 4338TIP3    H234574   3.501   1.107   2.290  0.7540 -0.2763 -0.1400
 4339TIP3   OH234575   2.702   2.414   0.608  0.2258  0.0509  0.2717
 4339TIP3    H134576   2.737   2.486   0.660 -0.7663  0.0927  0.9177
 4339TIP3    H234577   2.607   2.417   0.624  0.0459 -0.7153 -0.5595
 4340TIP3   OH234578   5.321   3.517   2.396  0.1757  0.0508  0.4081
 4340TIP3    H134579   5.268   3.576   2.449 -0.3281 -1.3411  1.5552
 4340TIP3    H234580   5.410   3.554   2.399 -0.2747  1.1652  0.3892
 4341TIP3   OH234581   0.842   4.702   1.428  0.1397  0.2536  0.2961
 4341TIP3    H134582   0.798   4.636   1.374 -0.0458  0.0575  0.6816
 4341TIP3    H234583   0.902   4.747   1.368 -0.3262  0.2819 -0.1507
 4342TIP3   OH234584   0.271   3.603   1.483 -0.6233 -0.0907 -0.0023
 4342TIP3    H134585   0.203   3.633   1.543 -1.0375 -0.0715 -0.4730
 4342TIP3    H234586   0.294   3.515   1.513 -1.0349 -0.1949  0.0044
 4343TIP3   OH234587   2.537   2.343   1.195 -0.2941 -0.4028  0.6777
 4343TIP3    H134588   2.467   2.337   1.260 -0.0674 -0.4222  0.9235
 4343TIP3    H234589   2.531   2.262   1.145  0.7481 -1.2811  1.9219
 4344TIP3   OH234590   4.044   3.827   8.227  0.0939 -0.3897 -0.4466
 4344TIP3    H134591   4.092   3.859   8.151 -0.9863  1.0829 -0.5467
 4344TIP3    H234592   4.045   3.731   8.217  1.2217 -0.2956 -1.5122
 4345TIP3   OH234593   0.273   6.209   7.688  0.0768  0.4482 -0.4144
 4345TIP3    H134594   0.234   6.135   7.642  0.3836  0.1801 -0.2471
 4345TIP3    H234595   0.339   6.244   7.628  0.6674 -0.0695 -0.0841
 4346TIP3   OH234596   5.897   0.496   1.118 -0.4631  0.4951 -0.0297
 4346TIP3    H134597   5.903   0.409   1.078  0.3497 -0.0030  1.0897
 4346TIP3    H234598   5.872   0.554   1.047  1.2352 -0.2797 -1.3534
 4347TIP3   OH234599   2.887   1.088   2.127  0.3165 -0.0419  0.0390
 4347TIP3    H134600   2.890   0.993   2.117 -0.4370  0.0070 -0.7960
 4347TIP3    H234601   2.893   1.121   2.037 -2.3794  0.5812 -0.0001
 4348TIP3   OH234602   2.599   3.294   8.371  0.1515  0.2615 -0.2468
 4348TIP3    H134603   2.649   3.321   8.294 -0.2961 -0.6017 -0.8586
 4348TIP3    H234604   2.660   3.303   8.444  0.5566  1.1877 -0.6764
 4349TIP3   OH234605   0.293   4.245   1.698  0.1294  0.4097  0.4295
 4349TIP3    H134606   0.237   4.198   1.637 -0.3017  1.8733 -0.3460
 4349TIP3    H234607   0.233   4.289   1.758  0.4635  1.1583  0.2295
 4350TIP3   OH234608   2.245   4.327   8.141  0.0509 -0.5005  0.5447
 4350TIP3    H134609   2.328   4.290   8.113 -0.6965 -1.4619 -0.4689
 4350TIP3    H234610   2.185   4.312   8.068 -1.0029  0.2363  1.2207
 4351TIP3   OH234611   2.544   1.748   7.845  0.0194  0.0175  0.5466
 4351TIP3    H134612   2.616   1.770   7.785  0.0667 -0.2183  0.5132
 4351TIP3    H234613   2.473   1.807   7.820 -0.0309 -0.2216  0.1144
 4352TIP3   OH234614   0.988   2.831   8.500 -0.6029 -0.3431 -0.2903
 4352TIP3    H134615   0.911   2.832   8.557 -1.0108 -1.7389 -0.7685
 4352TIP3    H234616   1.008   2.738   8.489  0.5944 -0.0267 -0.9264
 4353TIP3   OH234617   0.265   0.873   1.571 -0.2355 -0.7106 -0.3900
 4353TIP3    H134618   0.283   0.945   1.511  0.9143 -1.7144 -1.2991
 4353TIP3    H234619   0.210   0.813   1.521  0.2626 -1.2880 -0.2497
 4354TIP3   OH234620   5.719   4.863   2.537  0.1900 -0.3116 -0.2460
 4354TIP3    H134621   5.710   4.907   2.622  1.6538 -3.0675  1.4948
 4354TIP3    H234622   5.760   4.928   2.480 -2.3747  2.2079  0.5261
 4355TIP3   OH234623   2.767   1.666   1.922  0.4334  0.5825 -0.3137
 4355TIP3    H134624   2.800   1.746   1.882  0.1020  0.9896  0.2287
 4355TIP3    H234625   2.780   1.599   1.854 -1.1475  1.4627 -1.5611
 4356TIP3   OH234626   3.842   0.223   8.510  0.3953  0.1223  0.5994
 4356TIP3    H134627   3.796   0.140   8.524  0.7103 -0.3210 -0.7748
 4356TIP3    H234628   3.811   0.253   8.424 -0.6273  2.0697  1.5839
 4357TIP3   OH234629   0.241   1.566   2.430  0.2182 -0.3042 -0.6998
 4357TIP3    H134630   0.288   1.484   2.445  0.7428  0.0968 -0.1307
 4357TIP3    H234631   0.181   1.574   2.504  1.0766  0.4529 -0.0593
 4358TIP3   OH234632   2.118   0.901   0.524  0.2757 -0.5041  0.0774
 4358TIP3    H134633   2.120   0.870   0.434  0.3807 -0.7504  0.1631
 4358TIP3    H234634   2.081   0.828   0.574 -1.3365  0.2047  0.0089
 4359TIP3   OH234635   2.781   4.181   8.730 -0.4190 -0.4346 -0.5409
 4359TIP3    H134636   2.782   4.268   8.690  2.4475 -0.2748 -0.3127
 4359TIP3    H234637   2.691   4.170   8.761 -0.7270  2.7447  0.0559
 4360TIP3   OH234638   2.938   0.728   0.354 -0.0025  0.1487  0.4872
 4360TIP3    H134639   2.945   0.762   0.443 -0.7520 -0.3414  0.7367
 4360TIP3    H234640   2.864   0.775   0.316  0.7125  0.8311 -0.1062
 4361TIP3   OH234641   1.489   3.924   0.323 -0.5107  0.0144 -0.0077
 4361TIP3    H134642   1.497   4.004   0.272 -2.0417  0.6635  0.7109
 4361TIP3    H234643   1.478   3.855   0.258 -1.9506  0.7621 -0.6022
 4362TIP3   OH234644   5.713   4.499   8.856 -0.6057 -0.3266 -0.0131
 4362TIP3    H134645   5.724   4.530   8.946 -1.3919  0.4258 -0.1712
 4362TIP3    H234646   5.787   4.536   8.808 -0.7727  0.1478  0.0979
 4363TIP3   OH234647   3.407   1.552   8.227  0.2946  0.3311  0.2957
 4363TIP3    H134648   3.358   1.470   8.222  0.5969  0.1896 -0.3604
 4363TIP3    H234649   3.340   1.620   8.221  0.2381  0.1506 -1.5396
 4364TIP3   OH234650   4.184   5.141   0.141  0.0838  0.2167  0.4142
 4364TIP3    H134651   4.132   5.063   0.162  0.7454 -0.0617  1.0905
 4364TIP3    H234652   4.159   5.205   0.207  0.9350 -0.0902  1.0704
 4365TIP3   OH234653   5.676   4.805   0.876 -0.1364  0.1541 -0.3572
 4365TIP3    H134654   5.769   4.805   0.857  0.0904  2.1237  0.4385
 4365TIP3    H234655   5.633   4.812   0.791  0.4759 -0.0022 -0.6787
 4366TIP3   OH234656   2.285   6.202   8.301  0.2245 -0.0903  0.4271
 4366TIP3    H134657   2.258   6.110   8.290 -0.4294  0.0842  0.5231
 4366TIP3    H234658   2.349   6.200   8.372  0.2544 -0.4820  0.3920
 4367TIP3   OH234659   5.527   5.676   0.326  0.2679 -0.3978  0.1619
 4367TIP3    H134660   5.533   5.738   0.399 -0.9757 -2.1557  1.8689
 4367TIP3    H234661   5.433   5.664   0.313  0.4631 -2.2471  0.2299
 4368TIP3   OH234662   4.690   6.148   1.806  0.2878 -0.1823  0.0580
 4368TIP3    H134663   4.770   6.128   1.855  1.2053  1.1432 -0.8357
 4368TIP3    H234664   4.696   6.242   1.787 -0.9993 -0.2612 -0.8967
 4369TIP3   OH234665   6.471   0.703   8.453  0.2742  0.1625  0.5523
 4369TIP3    H134666   6.419   0.625   8.471  0.5875  0.1009  1.1953
 4369TIP3    H234667   6.420   0.776   8.488  0.9369  0.0314  1.8623
 4370TIP3   OH234668   3.503   2.291   2.317  0.5287 -0.1219  0.5027
 4370TIP3    H134669   3.576   2.353   2.322  0.0404  0.3342  2.9513
 4370TIP3    H234670   3.491   2.260   2.407 -1.3829 -1.2825 -0.0889
 4371TIP3   OH234671   4.685   2.623   1.760  0.1777  0.7316 -0.0857
 4371TIP3    H134672   4.746   2.695   1.773 -0.2189  1.2651 -1.0833
 4371TIP3    H234673   4.661   2.628   1.667  1.6767 -1.8913 -0.7388
 4372TIP3   OH234674   2.857   3.098   2.221 -0.0721 -0.3947 -0.7357
 4372TIP3    H134675   2.829   3.150   2.146 -0.5039  0.7183  0.1699
 4372TIP3    H234676   2.923   3.152   2.265  0.8773 -1.4419 -0.8271
 4373TIP3   OH234677   1.300   3.729   8.920  0.0270  0.8768  0.2662
 4373TIP3    H134678   1.345   3.699   8.841 -1.0989  0.2966 -0.1765
 4373TIP3    H234679   1.247   3.803   8.891 -0.0531  0.9417  0.5737
 4374TIP3   OH234680   3.965   2.445   1.342 -0.0648 -0.2026 -0.3988
 4374TIP3    H134681   3.885   2.498   1.333 -0.0132 -0.1290 -0.4242
 4374TIP3    H234682   3.944   2.362   1.301  0.5556  0.5144 -2.2660
 4375TIP3   OH234683   4.638   4.270   1.481 -0.3309  0.0587 -0.6768
 4375TIP3    H134684   4.680   4.353   1.457  0.7971 -0.2524  0.1579
 4375TIP3    H234685   4.711   4.210   1.498 -1.1144 -0.5852  0.5212
 4376TIP3   OH234686   6.547   2.061   8.622 -0.3503 -0.0334  0.3050
 4376TIP3    H134687   6.508   2.051   8.709  0.0636  1.3517  0.6784
 4376TIP3    H234688   6.552   2.156   8.609 -0.5286 -0.2159 -1.2943
 4377TIP3   OH234689   0.597   5.749   0.776 -0.5466 -0.1307  0.4354
 4377TIP3    H134690   0.548   5.808   0.833 -1.5234  0.4371 -0.9228
 4377TIP3    H234691   0.559   5.763   0.689  0.4186 -1.4617 -0.2398
 4378TIP3   OH234692   1.268   3.858   0.638  0.0222 -0.1840 -0.0957
 4378TIP3    H134693   1.319   3.909   0.701 -0.3310 -0.8096  0.7127
 4378TIP3    H234694   1.215   3.923   0.592  1.2934  0.4427 -0.7347
 4379TIP3   OH234695   2.326   5.429   8.452  0.3845  0.3744 -0.2012
 4379TIP3    H134696   2.233   5.437   8.476  0.7815  0.2899  1.5326
 4379TIP3    H234697   2.332   5.345   8.407 -0.3469  0.2648 -0.1093
 4380TIP3   OH234698   2.853   6.527   1.982 -0.0877 -0.5188  0.5219
 4380TIP3    H134699   2.821   6.506   2.070 -1.3572 -3.7897 -0.5619
 4380TIP3    H234700   2.904   6.450   1.957  1.6546  1.0621 -1.0173
 4381TIP3   OH234701   5.214   1.606   0.385  0.4371 -0.7260 -0.2700
 4381TIP3    H134702   5.200   1.649   0.469  1.7997 -1.6475  0.4573
 4381TIP3    H234703   5.309   1.605   0.374  0.3146 -1.3267 -1.4462
 4382TIP3   OH234704   2.531   1.028   7.986  0.5455 -0.0567 -0.3138
 4382TIP3    H134705   2.446   1.049   7.946  0.5927 -0.8398 -0.8409
 4382TIP3    H234706   2.534   1.083   8.065 -0.2848  0.2624 -0.4894
 4383TIP3   OH234707   6.161   5.606   1.588 -0.1156  0.0285 -0.2837
 4383TIP3    H134708   6.093   5.557   1.634  1.2122  0.7671  2.6701
 4383TIP3    H234709   6.147   5.697   1.614  2.1862  0.1496  0.7774
 4384TIP3   OH234710   3.141   2.284   2.357  0.0116  0.9154 -0.2509
 4384TIP3    H134711   3.131   2.223   2.430 -1.0050  2.7920  1.2572
 4384TIP3    H234712   3.089   2.360   2.381  1.5405  2.5932 -1.8726
 4385TIP3   OH234713   2.850   6.120   2.181  0.0142 -0.0231  0.5345
 4385TIP3    H134714   2.832   6.027   2.193  0.2091 -0.1976 -0.3957
 4385TIP3    H234715   2.851   6.156   2.269  1.9978 -1.2927  1.1016
 4386TIP3   OH234716   3.331   4.582   2.522 -0.1339 -0.3443 -0.1611
 4386TIP3    H134717   3.328   4.659   2.578  2.7055 -0.6714  0.5850
 4386TIP3    H234718   3.399   4.602   2.458  0.1580 -1.9414 -0.3887
 4387TIP3   OH234719   3.329   2.724   1.393  0.4334 -0.4535  0.3761
 4387TIP3    H134720   3.307   2.746   1.483  2.3259  1.5077  0.4314
 4387TIP3    H234721   3.373   2.802   1.359  1.2782 -1.7547 -1.7063
 4388TIP3   OH234722   4.255   3.262   0.461 -0.1054  0.5153  0.0247
 4388TIP3    H134723   4.185   3.327   0.451 -0.8620  0.0797  1.9921
 4388TIP3    H234724   4.218   3.196   0.520  2.5979  1.2781  2.8330
 4389TIP3   OH234725   5.100   4.902   2.068  0.8239  0.0707 -0.3900
 4389TIP3    H134726   5.160   4.917   1.994  1.1670  1.4907  0.1301
 4389TIP3    H234727   5.154   4.912   2.146 -0.0326  1.2876  0.0927
 4390TIP3   OH234728   0.854   4.013   0.270  0.1290 -0.3529 -0.8729
 4390TIP3    H134729   0.804   3.933   0.253 -0.7979  0.4535 -2.0366
 4390TIP3    H234730   0.928   4.009   0.209  1.0961 -1.1387  0.2810
 4391TIP3   OH234731   2.976   5.788   1.706  0.0502 -0.1192  0.1886
 4391TIP3    H134732   2.954   5.718   1.768 -0.5915 -1.1321 -1.1226
 4391TIP3    H234733   2.995   5.742   1.624  1.0185  1.1706 -0.3426
 4392TIP3   OH234734   5.485   4.379   1.340 -0.0121  0.5319  0.3425
 4392TIP3    H134735   5.396   4.410   1.358 -0.0482 -0.0402  1.2279
 4392TIP3    H234736   5.493   4.298   1.391  0.8858  0.3689 -0.0342
 4393TIP3   OH234737   5.160   6.421   0.129  0.3097  0.6199 -0.2954
 4393TIP3    H134738   5.119   6.379   0.204 -0.4649  2.0146  0.0924
 4393TIP3    H234739   5.244   6.453   0.161  1.0059 -0.7733 -0.6516
 4394TIP3   OH234740   3.179   1.799   8.878 -0.0707  0.4842  0.2067
 4394TIP3    H134741   3.121   1.801   8.801 -0.2652  1.0982  0.3593
 4394TIP3    H234742   3.254   1.853   8.852 -0.0634  0.5612  0.3882
 4395TIP3   OH234743   5.311   4.588   2.769 -0.1351  0.0652 -0.3012
 4395TIP3    H134744   5.284   4.574   2.860  1.0102  0.9568  0.1922
 4395TIP3    H234745   5.326   4.500   2.735  0.0371 -0.2466  0.5630
 4396TIP3   OH234746   6.672   0.260   2.234 -0.1358 -0.5648  0.1120
 4396TIP3    H134747   6.624   0.202   2.293  1.6537 -0.8638  1.3488
 4396TIP3    H234748   6.640   0.348   2.257  0.7486 -0.6386  1.8277
 4397TIP3   OH234749   4.756   3.184   2.884 -0.3950  0.3165 -0.4773
 4397TIP3    H134750   4.848   3.184   2.855 -0.9172 -0.2322 -2.2313
 4397TIP3    H234751   4.736   3.092   2.899 -1.1615  0.2543 -1.8166
 4398TIP3   OH234752   4.013   2.562   1.598  0.0926 -0.0333 -0.2512
 4398TIP3    H134753   4.001   2.479   1.551  0.8544 -0.5313  0.4105
 4398TIP3    H234754   3.987   2.629   1.535  0.2933 -0.7336 -1.1014
 4399TIP3   OH234755   1.126   5.558   1.863 -0.6606 -0.0899  0.0681
 4399TIP3    H134756   1.214   5.590   1.849 -0.0019 -1.8762 -0.1424
 4399TIP3    H234757   1.075   5.635   1.888  0.9375  0.9684  0.1370
 4400TIP3   OH234758   0.419   4.990   8.418 -0.1156  0.4834 -0.0535
 4400TIP3    H134759   0.361   4.939   8.475 -0.1989  0.3620 -0.2427
 4400TIP3    H234760   0.377   5.076   8.412  0.6805  0.9981  1.2776
 4401TIP3   OH234761   1.096   5.126   2.677 -0.6072 -0.0363 -0.1135
 4401TIP3    H134762   1.114   5.032   2.685 -1.2002 -0.1744 -0.3767
 4401TIP3    H234763   1.047   5.135   2.596 -0.8848  0.4513  0.1009
 4402TIP3   OH234764   1.057   4.952   7.929 -0.1029  0.4871 -0.1201
 4402TIP3    H134765   1.111   4.884   7.970 -1.9251 -0.3372  1.0047
 4402TIP3    H234766   1.047   4.923   7.838 -0.3722 -0.4351  0.1982
 4403TIP3   OH234767   5.452   3.197   1.292  0.6267  0.6069 -0.0487
 4403TIP3    H134768   5.458   3.290   1.270  0.3524  0.1660 -2.1960
 4403TIP3    H234769   5.539   3.163   1.272  0.6798  0.3575  0.5882
 4404TIP3   OH234770   3.720   5.283   0.884  0.1540  0.3541  0.1178
 4404TIP3    H134771   3.763   5.216   0.830 -2.4206  0.2798 -2.0102
 4404TIP3    H234772   3.714   5.243   0.971  2.2972 -0.4778 -0.0552
 4405TIP3   OH234773   6.403   3.335   1.376  0.3638  0.1088 -0.2300
 4405TIP3    H134774   6.489   3.372   1.396  0.9712 -0.9686 -0.8090
 4405TIP3    H234775   6.385   3.363   1.286  0.7183 -0.7694 -0.5855
 4406TIP3   OH234776   1.229   3.594   2.251  0.5530  0.7571 -0.3036
 4406TIP3    H134777   1.299   3.615   2.313  0.2910 -0.5187  0.4710
 4406TIP3    H234778   1.274   3.582   2.167  1.1191  1.0195 -0.0458
 4407TIP3   OH234779   6.144   3.058   2.448  0.5939  0.3516 -0.6686
 4407TIP3    H134780   6.087   3.055   2.372 -0.6927 -0.7959  0.3030
 4407TIP3    H234781   6.096   3.110   2.513  0.5478 -0.7449  0.2108
 4408TIP3   OH234782   6.540   2.040   8.062 -0.6183 -0.3420  0.0384
 4408TIP3    H134783   6.599   2.041   7.987 -0.8623  1.4515 -0.1756
 4408TIP3    H234784   6.564   2.117   8.113 -0.0483 -1.8480  2.1705
 4409TIP3   OH234785   2.325   2.289   2.756 -0.0672 -0.6056 -0.5057
 4409TIP3    H134786   2.339   2.194   2.758 -0.2532 -0.6268 -0.2483
 4409TIP3    H234787   2.234   2.299   2.730  0.9485 -0.4435 -4.9173
 4410TIP3   OH234788   1.831   4.630   0.971 -0.3906 -0.3789  0.3299
 4410TIP3    H134789   1.808   4.699   0.910 -0.9953 -0.7021  0.1818
 4410TIP3    H234790   1.748   4.605   1.012 -0.0237 -0.2862  1.1588
 4411TIP3   OH234791   0.065   5.149   8.889  0.1747 -0.2607 -0.5395
 4411TIP3    H134792  -0.021   5.142   8.847  1.0553 -0.7425 -2.3830
 4411TIP3    H234793   0.087   5.059   8.911  0.4535 -0.2128 -0.6238
 4412TIP3   OH234794   2.595   5.666   1.848 -0.1645 -0.6665  0.0038
 4412TIP3    H134795   2.537   5.635   1.778  0.5142 -0.4250 -0.6840
 4412TIP3    H234796   2.667   5.604   1.849  0.9286  0.5168 -1.0151
 4413TIP3   OH234797   0.732   0.440   7.139 -0.0614  0.1015  0.7212
 4413TIP3    H134798   0.727   0.451   7.234  1.0083  2.2174  0.5898
 4413TIP3    H234799   0.748   0.528   7.105  1.0036 -0.8008 -1.3324
 4414TIP3   OH234800   2.383   6.145   1.413 -0.0812 -0.4759  0.5270
 4414TIP3    H134801   2.300   6.103   1.392  0.7214 -2.1673  0.5376
 4414TIP3    H234802   2.359   6.224   1.461 -1.6892 -0.5567 -0.1006
 4415TIP3   OH234803   5.594   2.068   2.937  0.3387 -0.2343 -0.6024
 4415TIP3    H134804   5.596   2.036   3.026 -0.6169  0.6377 -0.2403
 4415TIP3    H234805   5.680   2.108   2.923 -0.4198  2.1194  0.9285
 4416TIP3   OH234806   4.123   2.606   8.167 -0.1411 -0.9387 -0.2906
 4416TIP3    H134807   4.149   2.549   8.239  2.6939 -1.9166 -1.9245
 4416TIP3    H234808   4.053   2.558   8.122 -1.1987 -0.7875  1.1142
 4417TIP3   OH234809   3.093   6.522   8.337 -0.2571  0.0208  0.1766
 4417TIP3    H134810   3.079   6.547   8.245 -1.6432  1.7820  0.7912
 4417TIP3    H234811   3.068   6.430   8.341 -0.9728  0.1327 -1.0820
 4418TIP3   OH234812   2.256   1.263   2.070 -0.1558 -0.2994  0.3172
 4418TIP3    H134813   2.287   1.220   1.991 -2.2599 -0.4814 -0.4896
 4418TIP3    H234814   2.299   1.349   2.070  0.9057 -0.8158 -0.2780
 4419TIP3   OH234815   1.272   2.434   1.990  0.1751  0.6642 -0.6585
 4419TIP3    H134816   1.216   2.475   2.056 -0.2651  0.6136 -0.9938
 4419TIP3    H234817   1.291   2.347   2.025  0.4324  0.8528 -0.3257
 4420TIP3   OH234818   4.634   4.981   0.068  0.4112 -0.6418  0.8233
 4420TIP3    H134819   4.541   5.002   0.080  0.5407  0.8604 -0.5032
 4420TIP3    H234820   4.676   5.015   0.147 -0.0181 -0.2356  0.8869
 4421TIP3   OH234821   2.567   3.860   8.986 -0.2813  0.8345  0.0091
 4421TIP3    H134822   2.486   3.855   9.036 -0.0399 -0.7593  0.2705
 4421TIP3    H234823   2.594   3.769   8.973  1.0083  1.3026 -0.8290
 4422TIP3   OH234824   5.327   1.519   1.695  0.2778 -0.2339  0.4914
 4422TIP3    H134825   5.364   1.607   1.694 -0.1518 -0.0119  1.9278
 4422TIP3    H234826   5.237   1.530   1.665  0.4553 -0.3142 -0.0843
 4423TIP3   OH234827   5.166   1.269   8.990 -0.2818 -0.4020 -0.7068
 4423TIP3    H134828   5.215   1.286   9.071 -0.6984  0.2582 -0.5866
 4423TIP3    H234829   5.233   1.257   8.923  0.1025  2.4547 -0.9596
 4424TIP3   OH234830   4.412   5.196   7.949 -0.3152  0.3521 -0.4170
 4424TIP3    H134831   4.455   5.246   7.879  0.0728  1.7374  0.7457
 4424TIP3    H234832   4.319   5.198   7.926 -0.1682  0.6006 -1.0145
 4425TIP3   OH234833   1.352   4.226   2.852  0.1451  0.0468  0.0647
 4425TIP3    H134834   1.346   4.196   2.943 -1.1033  1.3267  0.4403
 4425TIP3    H234835   1.445   4.241   2.838  0.3022  0.2938  1.2907
 4426TIP3   OH234836   0.892   4.235   0.046  0.2494  0.2192 -0.2176
 4426TIP3    H134837   0.842   4.290  -0.015  0.2646  0.9736  0.4281
 4426TIP3    H234838   0.880   4.146   0.014 -2.7086  0.1683  0.7237
 4427TIP3   OH234839   3.441   2.950   2.992 -0.1949  0.1667 -0.1285
 4427TIP3    H134840   3.519   2.988   3.033 -0.4789  0.2425  0.3481
 4427TIP3    H234841   3.382   3.024   2.980  0.6634  0.5552 -2.6016
 4428TIP3   OH234842   1.843   4.385   0.639 -0.3501 -0.2679 -0.0053
 4428TIP3    H134843   1.755   4.424   0.637  0.2047  1.3185  2.4294
 4428TIP3    H234844   1.841   4.326   0.715  0.8020  0.1697  0.3874
 4429TIP3   OH234845   4.427   5.043   3.196 -1.1131  0.3464  0.1817
 4429TIP3    H134846   4.492   5.104   3.162 -0.2484 -1.0475 -0.7661
 4429TIP3    H234847   4.359   5.040   3.129 -0.0981 -1.3118 -0.8693
 4430TIP3   OH234848   2.135   6.389   0.546 -0.2874 -0.3262  0.1334
 4430TIP3    H134849   2.125   6.435   0.629  0.3836 -1.0187  0.6073
 4430TIP3    H234850   2.194   6.444   0.495  0.3665 -0.5560  0.6287
 4431TIP3   OH234851   6.344   2.816   0.234  0.2803  0.3894  0.0381
 4431TIP3    H134852   6.309   2.839   0.148 -0.6288 -0.3488  0.1921
 4431TIP3    H234853   6.432   2.855   0.236  0.5648 -0.1232 -1.4663
 4432TIP3   OH234854   2.511   0.885   2.842 -0.5856  1.2736  0.2890
 4432TIP3    H134855   2.460   0.861   2.765 -2.1222  0.0667  1.6030
 4432TIP3    H234856   2.450   0.936   2.896 -0.4224 -0.0701  1.8273
 4433TIP3   OH234857   6.069   5.337   8.576  0.3001 -0.2355 -0.0905
 4433TIP3    H134858   6.062   5.338   8.481  1.5407 -0.8204 -0.2028
 4433TIP3    H234859   6.070   5.429   8.601  0.5329 -0.0705 -0.6934
 4434TIP3   OH234860   2.720   2.937   0.233 -0.2223 -0.0813  0.0568
 4434TIP3    H134861   2.731   2.958   0.141  1.2466  0.4846  0.3336
 4434TIP3    H234862   2.789   2.986   0.278 -1.6233  0.6020  1.6024
 4435TIP3   OH234863   6.412   4.404   2.329 -0.1805  0.3602 -1.1387
 4435TIP3    H134864   6.461   4.477   2.291  0.7251  1.8947  2.5640
 4435TIP3    H234865   6.479   4.344   2.362 -0.8599 -0.1608 -0.6643
 4436TIP3   OH234866   5.543   3.015   8.433  0.3788 -0.6376 -0.5795
 4436TIP3    H134867   5.528   2.932   8.389 -0.2138  0.1702 -1.9531
 4436TIP3    H234868   5.586   3.070   8.367 -0.7218  0.6741 -0.2499
 4437TIP3   OH234869   4.071   4.900   8.449 -0.3944  0.1397  0.3500
 4437TIP3    H134870   4.105   4.986   8.473  0.2114 -0.1810  0.6543
 4437TIP3    H234871   4.067   4.852   8.532  2.9818 -1.4401 -0.2577
 4438TIP3   OH234872   5.860   5.157   0.750  0.0727  0.1484  0.2874
 4438TIP3    H134873   5.838   5.157   0.843 -2.5037 -0.9438 -0.2324
 4438TIP3    H234874   5.955   5.155   0.747  0.1974 -0.2009  2.8970
 4439TIP3   OH234875   6.343   0.164   1.738 -0.6305  0.0298  0.1359
 4439TIP3    H134876   6.333   0.252   1.774  0.3914 -0.1736  0.9635
 4439TIP3    H234877   6.264   0.118   1.767 -1.0386  0.5918 -0.0744
 4440TIP3   OH234878   4.378   6.225   2.912  0.1830 -0.4830 -0.8194
 4440TIP3    H134879   4.458   6.249   2.959  2.0222 -3.0154 -2.4402
 4440TIP3    H234880   4.336   6.160   2.968 -0.5961  0.5266 -0.1790
 4441TIP3   OH234881   0.077   3.621   8.752 -0.3553  0.0109 -0.6308
 4441TIP3    H134882   0.050   3.625   8.661 -0.3516 -0.9386 -0.6878
 4441TIP3    H234883   0.074   3.528   8.774 -0.4109  0.2287  0.3561
 4442TIP3   OH234884   6.164   4.567   1.737 -0.8396 -0.5088  0.5856
 4442TIP3    H134885   6.228   4.562   1.807 -2.2109 -0.2422  1.9034
 4442TIP3    H234886   6.150   4.476   1.710 -0.0831 -0.5834  0.4403
 4443TIP3   OH234887   5.041   6.594   0.352 -0.1489  0.1843 -0.3917
 4443TIP3    H134888   4.954   6.596   0.391  0.8974 -2.2676  2.4725
 4443TIP3    H234889   5.048   6.676   0.304 -4.5393 -0.1398 -2.1118
 4444TIP3   OH234890   0.646   3.816   0.191  0.1761 -0.1387 -0.3547
 4444TIP3    H134891   0.582   3.881   0.161  1.7200  1.9939  0.7313
 4444TIP3    H234892   0.621   3.798   0.281  1.4470  1.2414  0.3083
 4445TIP3   OH234893   3.991   3.394   0.522 -0.0370  0.1686 -0.6249
 4445TIP3    H134894   4.036   3.364   0.600  0.7527  0.7843 -0.8235
 4445TIP3    H234895   3.946   3.474   0.549 -1.2856 -0.5922 -0.3548
 4446TIP3   OH234896   1.854   5.543   0.734 -0.3685 -0.2821  0.4052
 4446TIP3    H134897   1.878   5.629   0.769  1.9673 -0.3254 -0.9227
 4446TIP3    H234898   1.849   5.486   0.811 -3.3722  1.2285  1.4947
 4447TIP3   OH234899   2.818   5.576   8.431 -0.3793 -0.1122 -0.3024
 4447TIP3    H134900   2.790   5.489   8.402  0.0392 -0.1358 -0.6545
 4447TIP3    H234901   2.903   5.561   8.473 -0.2803  0.1341 -0.4136
 4448TIP3   OH234902   4.406   5.209   8.534  0.0243  0.6745 -0.4225
 4448TIP3    H134903   4.502   5.210   8.542 -0.0346  0.0747  0.4600
 4448TIP3    H234904   4.388   5.131   8.480  0.0028  0.4576 -0.1035
 4449TIP3   OH234905   4.883   0.909   8.667  0.3720  0.4819  0.1367
 4449TIP3    H134906   4.899   0.823   8.706 -0.4273  0.6361  0.8359
 4449TIP3    H234907   4.921   0.903   8.579  0.2032 -0.6351  0.1220
 4450TIP3   OH234908   1.219   4.744   7.960 -0.5745 -0.0897 -0.2672
 4450TIP3    H134909   1.262   4.682   7.901 -0.3630  0.1506 -0.3682
 4450TIP3    H234910   1.288   4.770   8.022 -0.8441 -0.4961  0.2200
 4451TIP3   OH234911   1.059   6.457   0.826  0.7289  0.2901  0.2187
 4451TIP3    H134912   0.976   6.410   0.818  0.9011  0.1708 -1.1576
 4451TIP3    H234913   1.069   6.501   0.742  2.1346  0.1795  0.3112
 4452TIP3   OH234914   0.125   4.918   7.539 -0.1006  0.4581 -0.3610
 4452TIP3    H134915   0.193   4.924   7.606  0.0937  2.0245 -0.6511
 4452TIP3    H234916   0.058   4.980   7.567 -1.6826 -1.3881  0.1628
 4453TIP3   OH234917   2.339   5.661   8.823  0.3025 -0.3176 -0.0889
 4453TIP3    H134918   2.378   5.574   8.817  2.5700  0.5961  0.4406
 4453TIP3    H234919   2.275   5.653   8.894  1.5333 -1.2200  0.9740
 4454TIP3   OH234920   1.344   2.901   1.518 -0.0962  0.7557  0.5752
 4454TIP3    H134921   1.396   2.821   1.527 -1.3140 -0.1956 -0.2796
 4454TIP3    H234922   1.405   2.972   1.534  0.9045 -0.3568  1.9819
 4455TIP3   OH234923   4.386   5.755   1.085  0.6063 -0.1313  0.9031
 4455TIP3    H134924   4.298   5.724   1.062  0.5230  0.4192  0.4703
 4455TIP3    H234925   4.380   5.775   1.179 -0.1706  1.3396  0.5629
 4456TIP3   OH234926   4.281   5.069   0.526  0.3644  0.7646  0.3789
 4456TIP3    H134927   4.346   5.139   0.533  1.9559 -0.5641 -0.3974
 4456TIP3    H234928   4.306   5.006   0.594  0.7401 -0.3811 -0.7776
 4457TIP3   OH234929   5.304   4.382   1.733 -0.3099  0.0480 -0.1842
 4457TIP3    H134930   5.386   4.350   1.772  1.0537  2.0059 -1.2435
 4457TIP3    H234931   5.237   4.325   1.769  1.3947 -1.0360  1.5167
 4458TIP3   OH234932   5.217   3.592   1.548 -0.5212 -0.0989 -0.2095
 4458TIP3    H134933   5.228   3.614   1.456 -1.2698  2.4860  0.2347
 4458TIP3    H234934   5.183   3.502   1.548  1.2190 -0.8371 -2.3059
 4459TIP3   OH234935   3.438   2.661   1.748  0.1375 -0.7917 -0.1038
 4459TIP3    H134936   3.431   2.655   1.843 -2.5186  1.0129 -0.0930
 4459TIP3    H234937   3.408   2.576   1.716 -1.2520 -0.6145  0.6531
 4460TIP3   OH234938   4.520   3.308   2.849  0.2159  0.1844 -0.1764
 4460TIP3    H134939   4.614   3.314   2.831  0.0836  0.4345 -0.8032
 4460TIP3    H234940   4.498   3.217   2.830  0.6060 -0.2480  1.3548
 4461TIP3   OH234941   0.286   1.327   8.667 -0.5265 -0.0960  0.1145
 4461TIP3    H134942   0.250   1.270   8.598  0.1479 -0.8806  0.3982
 4461TIP3    H234943   0.234   1.307   8.744  1.7639 -2.8116  1.1068
 4462TIP3   OH234944   6.400   0.284   1.196 -0.3187  0.0368 -0.2540
 4462TIP3    H134945   6.482   0.286   1.147 -0.8095 -0.5951 -1.1321
 4462TIP3    H234946   6.376   0.376   1.205  1.5691  0.3933  1.9345
 4463TIP3   OH234947   0.711   1.649   7.617 -0.2971 -0.6344 -0.0900
 4463TIP3    H134948   0.763   1.726   7.638 -0.4013 -1.0683  1.8968
 4463TIP3    H234949   0.751   1.614   7.538  1.1724  0.1682  0.2692
 4464TIP3   OH234950   5.118   2.603   2.486  0.4048  0.1074  0.4290
 4464TIP3    H134951   5.075   2.576   2.404  1.0871  2.0549 -0.6298
 4464TIP3    H234952   5.100   2.531   2.547 -1.6790 -0.5674 -0.8797
 4465TIP3   OH234953   5.441   3.905   8.538  0.0955  0.3758  0.3198
 4465TIP3    H134954   5.388   3.962   8.593  1.0590  1.0793  0.5247
 4465TIP3    H234955   5.433   3.818   8.578 -2.0332  0.1529 -0.4589
 4466TIP3   OH234956   0.532   5.263   8.571 -0.5088 -0.8308 -0.4167
 4466TIP3    H134957   0.549   5.214   8.652 -0.7859 -0.8410 -0.3620
 4466TIP3    H234958   0.586   5.220   8.505 -0.3582 -0.8872 -0.2575
 4467TIP3   OH234959   5.086   0.634   2.468 -0.6557  0.2553 -0.3937
 4467TIP3    H134960   5.076   0.722   2.503  1.1612  0.1085  0.6040
 4467TIP3    H234961   5.055   0.577   2.539 -2.1754  0.0641 -1.1732
 4468TIP3   OH234962   5.532   4.714   2.204  0.0558 -0.1661  0.3883
 4468TIP3    H134963   5.548   4.676   2.291 -0.7221 -1.1769  0.1132
 4468TIP3    H234964   5.437   4.726   2.201  0.0361 -0.4919 -0.4636
 4469TIP3   OH234965   4.049   3.667   2.102  0.0561 -0.1730 -0.4590
 4469TIP3    H134966   4.031   3.662   2.196  2.3425 -0.6216  0.0323
 4469TIP3    H234967   4.132   3.714   2.097  0.2213 -0.6074 -2.2127
 4470TIP3   OH234968   4.896   6.659   8.440  0.4646  0.0167 -0.0364
 4470TIP3    H134969   4.979   6.612   8.451 -0.2234 -1.4039 -0.5657
 4470TIP3    H234970   4.831   6.590   8.425 -0.9602  1.0448  1.0987
 4471TIP3   OH234971   1.872   4.725   1.906  0.2522  0.1483  0.1932
 4471TIP3    H134972   1.941   4.773   1.952  0.6041 -0.4558  0.3116
 4471TIP3    H234973   1.847   4.656   1.968 -3.0262  2.4597  1.7426
 4472TIP3   OH234974   3.614   2.091   1.345  0.2179  0.3285  0.0521
 4472TIP3    H134975   3.555   2.066   1.417  0.2919  0.0545  0.0183
 4472TIP3    H234976   3.604   2.021   1.281 -0.3524  0.9137 -0.5078
 4473TIP3   OH234977   0.091   1.746   1.681  0.7835 -0.8148 -0.2490
 4473TIP3    H134978   0.158   1.704   1.734  0.5237  0.3662  1.0830
 4473TIP3    H234979   0.138   1.780   1.605  1.4124 -1.3518 -0.1070
 4474TIP3   OH234980   6.333   2.709   1.630  0.0182 -0.1960 -0.2816
 4474TIP3    H134981   6.390   2.633   1.629 -1.0174 -0.9861 -0.3078
 4474TIP3    H234982   6.388   2.781   1.598  1.3443 -0.6600  0.9013
 4475TIP3   OH234983   6.054   6.305   0.455 -0.3322  0.2435  0.0522
 4475TIP3    H134984   6.017   6.247   0.388 -1.4630  1.0980 -0.0934
 4475TIP3    H234985   6.146   6.314   0.431 -0.3486 -0.7716 -0.4339
 4476TIP3   OH234986   1.091   3.049   8.715  0.0723  0.1263 -0.0824
 4476TIP3    H134987   1.085   2.986   8.787  0.3211 -0.3025 -0.4381
 4476TIP3    H234988   1.163   3.108   8.742  0.5893 -0.4118 -0.2728
 4477TIP3   OH234989   6.389   2.108   1.053 -0.8323  0.1509 -0.6721
 4477TIP3    H134990   6.317   2.084   1.111 -0.7568  0.6999 -0.3427
 4477TIP3    H234991   6.372   2.199   1.029  0.7174  0.9271  0.9357
 4478TIP3   OH234992   4.932   6.083   1.922  0.3461 -0.4523 -0.5725
 4478TIP3    H134993   4.962   6.033   1.998  1.5923 -0.8002 -1.2718
 4478TIP3    H234994   5.012   6.107   1.876 -0.3145  1.0538 -0.9752
 4479TIP3   OH234995   5.117   6.181   2.427  0.1063 -0.2489 -0.5119
 4479TIP3    H134996   5.121   6.147   2.517 -0.8957 -0.4921 -0.5465
 4479TIP3    H234997   5.024   6.187   2.408  0.3058 -0.4683 -1.6418
 4480TIP3   OH234998   6.057   1.286   1.204  0.1931 -0.7613 -0.3458
 4480TIP3    H134999   6.057   1.321   1.293  0.3256 -0.6198 -0.4012
 4480TIP3    H235000   5.989   1.336   1.158  1.0097  0.0691 -0.6750
 4481TIP3   OH235001   5.912   1.937   2.731  0.3669 -0.1362 -0.6839
 4481TIP3    H135002   5.831   1.931   2.782  0.3101  1.8781 -0.4532
 4481TIP3    H235003   5.939   1.846   2.717 -2.0403 -0.8639 -0.9665
 4482TIP3   OH235004   1.419   1.180   8.983  0.3011 -0.0527  0.2588
 4482TIP3    H135005   1.475   1.170   8.906  2.1822  0.7233  1.4418
 4482TIP3    H235006   1.480   1.206   9.053 -1.0934 -2.1016  2.3633
 4483TIP3   OH235007   3.914   1.864   3.226  0.2404  0.0038  0.3826
 4483TIP3    H135008   3.904   1.957   3.243 -0.0046  0.3526 -1.4709
 4483TIP3    H235009   3.827   1.827   3.238 -0.1700  0.4341 -1.0715
 4484TIP3   OH235010   0.978   5.486   7.393 -0.3608 -0.3265 -0.0823
 4484TIP3    H135011   1.048   5.537   7.351 -0.0177 -0.5683  0.1812
 4484TIP3    H235012   0.902   5.500   7.338 -0.8939  2.2410  1.1381
 4485TIP3   OH235013   4.746   0.943   2.514  0.1703  0.4578  0.0364
 4485TIP3    H135014   4.744   0.951   2.609  0.9459 -0.4761  0.1537
 4485TIP3    H235015   4.793   1.021   2.484  0.1542  0.6264  0.4406
 4486TIP3   OH235016   2.307   0.147   0.795 -0.4088  0.3084 -0.4855
 4486TIP3    H135017   2.331   0.217   0.856  0.5163 -0.1000 -0.3556
 4486TIP3    H235018   2.288   0.072   0.852 -1.2435  0.4002 -0.6316
 4487TIP3   OH235019   0.169   4.758   7.837 -0.2379 -0.3396 -0.6015
 4487TIP3    H135020   0.215   4.815   7.775  0.2602  2.0060  1.7490
 4487TIP3    H235021   0.082   4.797   7.847  0.3515  0.6010  1.5906
 4488TIP3   OH235022   0.878   2.283   8.868  0.4639 -0.0926 -0.5845
 4488TIP3    H135023   0.843   2.329   8.792 -1.6792 -0.7341 -0.0605
 4488TIP3    H235024   0.819   2.209   8.881  2.9874 -2.2502 -0.5667
 4489TIP3   OH235025   1.171   1.882   2.167 -0.2630 -0.1945 -0.8465
 4489TIP3    H135026   1.213   1.881   2.253  1.1996 -2.8642 -1.4879
 4489TIP3    H235027   1.162   1.975   2.146 -0.1744  0.5433  1.9115
 4490TIP3   OH235028   4.332   0.835   0.144 -0.9325  0.2542  0.0038
 4490TIP3    H135029   4.297   0.753   0.179 -1.1232  0.0726 -0.5971
 4490TIP3    H235030   4.386   0.808   0.070 -0.7595  0.6494 -0.0164
 4491TIP3   OH235031   3.319   1.174   2.079  0.2668  0.4646 -0.0077
 4491TIP3    H135032   3.378   1.229   2.027 -1.0129 -1.1562 -3.5111
 4491TIP3    H235033   3.232   1.213   2.066  0.1087  1.3042  2.9396
 4492TIP3   OH235034   6.690   3.941   3.004 -0.0118  0.4623 -0.1051
 4492TIP3    H135035   6.621   3.900   3.057 -0.8256  0.4712 -1.1430
 4492TIP3    H235036   6.771   3.916   3.048 -0.6545  0.2403  0.9918
 4493TIP3   OH235037   6.614   3.782   2.713 -0.5188  0.7324 -0.9542
 4493TIP3    H135038   6.544   3.721   2.736  0.8948 -0.9728 -0.9762
 4493TIP3    H235039   6.653   3.806   2.797 -1.0239  1.6029 -0.9509
 4494TIP3   OH235040   6.583   2.223   7.598 -0.0349 -0.1025  0.0819
 4494TIP3    H135041   6.567   2.190   7.510 -3.1252  0.0376  0.4684
 4494TIP3    H235042   6.595   2.144   7.651  2.1856 -0.1788 -0.4329
 4495TIP3   OH235043   3.804   4.877   8.753  0.6683 -0.3564 -0.2117
 4495TIP3    H135044   3.816   4.830   8.670  0.0563  1.6642 -1.5293
 4495TIP3    H235045   3.882   4.932   8.760  0.8247 -0.6748  0.7070
 4496TIP3   OH235046   0.269   0.930   3.105 -0.7236  0.0722  0.2583
 4496TIP3    H135047   0.264   0.912   3.199  1.6961 -1.2197  0.2211
 4496TIP3    H235048   0.178   0.946   3.078 -1.6084 -0.6906  2.5711
 4497TIP3   OH235049   4.707   3.112   7.892  0.3439  0.2105  0.0780
 4497TIP3    H135050   4.629   3.127   7.840 -0.5545 -0.6361  1.1370
 4497TIP3    H235051   4.760   3.052   7.839  0.2091  0.6611 -0.5700
 4498TIP3   OH235052   4.705   1.192   0.137  0.1482  0.4330 -0.3051
 4498TIP3    H135053   4.762   1.144   0.077  1.1827  0.9543  0.2266
 4498TIP3    H235054   4.753   1.273   0.155 -1.4129  1.5550 -0.9532
 4499TIP3   OH235055   2.278   3.884   8.900  0.7501 -0.6150  0.1692
 4499TIP3    H135056   2.285   3.855   8.991 -0.7428  1.4205  1.0044
 4499TIP3    H235057   2.227   3.965   8.904 -1.8483 -1.9038 -2.7626
 4500TIP3   OH235058   5.913   2.156   0.654 -0.4863 -0.0012 -0.8881
 4500TIP3    H135059   5.884   2.201   0.733 -1.5935 -1.1843 -0.5829
 4500TIP3    H235060   5.991   2.107   0.681 -1.1192 -0.7513 -0.4071
 4501TIP3   OH235061   5.273   3.144   7.873  0.4580  1.0448  0.0125
 4501TIP3    H135062   5.205   3.118   7.811 -0.1958 -0.0758  1.1671
 4501TIP3    H235063   5.353   3.107   7.837  0.4029  1.9147 -1.0719
 4502TIP3   OH235064   2.888   4.869   2.406 -0.4089 -0.2366  0.0519
 4502TIP3    H135065   2.815   4.809   2.389 -0.5635  0.0040 -0.1399
 4502TIP3    H235066   2.924   4.888   2.320 -0.5808  0.2196  0.0798
 4503TIP3   OH235067   3.285   3.848   3.321 -0.4716 -0.1818  0.6779
 4503TIP3    H135068   3.280   3.914   3.390  1.3409  1.1219 -0.3701
 4503TIP3    H235069   3.372   3.810   3.330  0.6166  1.4033 -2.0309
 4504TIP3   OH235070   5.399   1.902   0.443  0.3880 -0.0083  0.1504
 4504TIP3    H135071   5.420   1.981   0.393  0.9450 -0.5297 -0.4458
 4504TIP3    H235072   5.366   1.936   0.527 -1.3640  0.8848 -0.8438
 4505TIP3   OH235073   4.470   0.855   1.553 -0.2846  0.6508 -0.2066
 4505TIP3    H135074   4.536   0.859   1.484 -1.6243  0.4096 -1.5489
 4505TIP3    H235075   4.388   0.883   1.510 -0.8654  2.0606  1.6721
 4506TIP3   OH235076   1.984   3.393   2.250  0.5798 -0.8368  0.4403
 4506TIP3    H135077   1.941   3.455   2.309  0.8194 -1.2256  1.0386
 4506TIP3    H235078   1.920   3.377   2.181 -0.1327 -1.2028  1.1770
 4507TIP3   OH235079   5.158   3.907   7.707  0.4338 -0.2574 -0.5623
 4507TIP3    H135080   5.245   3.921   7.669  0.0681 -2.1259 -2.2909
 4507TIP3    H235081   5.146   3.812   7.704 -1.1635 -0.1338  0.8581
 4508TIP3   OH235082   1.900   0.806   1.083  0.1676  0.6514 -0.2019
 4508TIP3    H135083   1.835   0.871   1.056 -0.9604  0.9334  2.8374
 4508TIP3    H235084   1.976   0.858   1.111 -0.9231  0.8259  2.7177
 4509TIP3   OH235085   0.606   4.136   3.473  0.7386  0.3179 -0.0902
 4509TIP3    H135086   0.518   4.101   3.490  0.8745  0.5918  1.2440
 4509TIP3    H235087   0.654   4.062   3.435 -0.1461  0.2658 -1.1905
 4510TIP3   OH235088   2.612   0.061   1.497  0.1018  0.2179  0.6262
 4510TIP3    H135089   2.599   0.029   1.586  4.2422 -0.7162  1.1018
 4510TIP3    H235090   2.598  -0.016   1.441 -1.2890  0.5146  0.5229
 4511TIP3   OH235091   1.017   6.239   1.810 -0.0839  0.3054  0.5162
 4511TIP3    H135092   1.047   6.287   1.733  0.1703 -0.9140 -0.1619
 4511TIP3    H235093   0.951   6.296   1.849  0.9691  1.6810  0.3476
 4512TIP3   OH235094   4.013   1.206   7.412  0.0800 -0.2577  0.2498
 4512TIP3    H135095   3.986   1.228   7.323 -1.3386 -0.5079  0.6013
 4512TIP3    H235096   4.008   1.111   7.416  1.5749 -0.3771  0.1871
 4513TIP3   OH235097   3.268   4.258   8.567 -0.3367 -0.2783  0.1357
 4513TIP3    H135098   3.357   4.288   8.588 -0.5900  1.8058 -1.4743
 4513TIP3    H235099   3.282   4.178   8.517  0.6891  0.3413 -0.6135
 4514TIP3   OH235100   0.543   3.367   0.223  0.2357  0.0929  0.2378
 4514TIP3    H135101   0.523   3.436   0.160  2.3621  0.1928 -0.4069
 4514TIP3    H235102   0.597   3.305   0.174  2.5697  0.5337  2.0796
 4515TIP3   OH235103   0.266   1.755   1.465  0.7203  0.1026 -0.6016
 4515TIP3    H135104   0.352   1.723   1.437  0.1838 -0.9860 -1.0589
 4515TIP3    H235105   0.208   1.734   1.392 -0.8120 -3.1466  1.3184
 4516TIP3   OH235106   6.060   4.333   0.937 -0.0711  0.2506  0.3275
 4516TIP3    H135107   6.127   4.347   0.870 -0.6097 -0.2172 -0.3307
 4516TIP3    H235108   6.102   4.359   1.019  0.4913  1.1687 -0.2302
 4517TIP3   OH235109   6.015   0.020   8.758  0.2014 -0.2743  0.3714
 4517TIP3    H135110   6.101   0.008   8.797  0.3162 -1.4492 -0.2038
 4517TIP3    H235111   6.020   0.105   8.714  0.4116  0.5588  1.9582
 4518TIP3   OH235112   6.388   5.445   8.444 -0.4451  0.0314  0.5892
 4518TIP3    H135113   6.395   5.448   8.539  0.3769 -0.7004  0.5684
 4518TIP3    H235114   6.424   5.359   8.420 -1.1331 -0.0109 -0.3410
 4519TIP3   OH235115   5.016   5.808   0.802  0.2009 -0.0043  0.2256
 4519TIP3    H135116   5.094   5.850   0.765  0.9634 -0.6467  1.0470
 4519TIP3    H235117   4.992   5.863   0.876 -1.3153  1.2707 -1.1315
 4520TIP3   OH235118   0.383   2.690   8.165  0.3758  0.1025 -0.1238
 4520TIP3    H135119   0.456   2.628   8.172 -0.4719 -0.9299 -0.1842
 4520TIP3    H235120   0.398   2.752   8.236 -0.8592 -2.4480  2.5504
 4521TIP3   OH235121   2.022   4.155   1.613  0.1883 -0.6844  0.3192
 4521TIP3    H135122   1.988   4.170   1.701  1.1773 -1.1618  0.8061
 4521TIP3    H235123   2.094   4.093   1.626 -0.0382 -1.2196 -0.9046
 4522TIP3   OH235124   2.975   1.075   8.654  0.4525 -0.0174 -0.1257
 4522TIP3    H135125   2.961   0.990   8.613 -0.6224  0.2557 -0.3859
 4522TIP3    H235126   2.980   1.057   8.748  1.4955 -0.4950 -0.2688
 4523TIP3   OH235127   0.924   3.451   0.322  0.5101  0.3761 -0.0810
 4523TIP3    H135128   0.970   3.397   0.258  1.7744  1.3776 -0.0522
 4523TIP3    H235129   0.982   3.453   0.398 -0.4458  0.1585  0.6906
 4524TIP3   OH235130   5.718   5.607   0.155  0.3032 -0.0221  0.1085
 4524TIP3    H135131   5.639   5.620   0.207 -0.5372 -1.0314 -0.8529
 4524TIP3    H235132   5.789   5.602   0.219 -0.5555 -0.1951  1.0688
 4525TIP3   OH235133   6.028   3.445   3.349  0.2265 -0.3517 -0.3760
 4525TIP3    H135134   6.039   3.476   3.259  0.8811 -0.9086 -0.4918
 4525TIP3    H235135   5.940   3.474   3.373 -0.4933 -1.3498 -1.6599
 4526TIP3   OH235136   5.981   3.406   2.311  0.4129  0.2590  0.5982
 4526TIP3    H135137   5.931   3.444   2.383 -0.3946 -0.1663  0.2722
 4526TIP3    H235138   5.924   3.415   2.234 -0.3840 -2.7061  0.7209
 4527TIP3   OH235139   0.260   3.510   2.307  0.3730 -0.6788  0.9836
 4527TIP3    H135140   0.317   3.530   2.381 -1.5230  3.0466  1.7198
 4527TIP3    H235141   0.226   3.596   2.280 -3.0344 -2.4133 -0.8776
 4528TIP3   OH235142   5.085   0.306   0.027 -0.2372 -0.3524 -0.3750
 4528TIP3    H135143   5.162   0.338  -0.020  0.2301 -0.5820  0.2222
 4528TIP3    H235144   5.018   0.371   0.009  0.5190  0.6394  0.2913
 4529TIP3   OH235145   3.568   2.104   7.738 -0.2862 -0.3811 -0.0837
 4529TIP3    H135146   3.628   2.088   7.665  0.1123 -1.4179  0.4323
 4529TIP3    H235147   3.551   2.198   7.736 -0.0646 -0.3498 -1.3317
 4530TIP3   OH235148   2.802   2.197   8.017  0.1079  0.0215  0.0413
 4530TIP3    H135149   2.853   2.121   7.989  0.1517  0.1342 -0.1914
 4530TIP3    H235150   2.868   2.259   8.049  0.0016 -0.3805  1.0547
 4531TIP3   OH235151   5.964   2.216   0.369  0.3442  0.2705  0.5136
 4531TIP3    H135152   6.031   2.158   0.333  2.3254  2.0508  1.1692
 4531TIP3    H235153   5.931   2.169   0.446 -0.3793 -1.3456 -0.7319
 4532TIP3   OH235154   5.854   6.227   1.690  0.5263 -0.8322 -0.6805
 4532TIP3    H135155   5.939   6.271   1.699 -1.0435  2.3856  0.0147
 4532TIP3    H235156   5.845   6.211   1.596  1.4719 -0.2398 -0.8837
 4533TIP3   OH235157   3.288   6.112   0.562 -0.2350  0.5648  0.3171
 4533TIP3    H135158   3.355   6.163   0.608  0.2773  0.4276 -0.2606
 4533TIP3    H235159   3.248   6.058   0.629 -2.5305  3.4406  1.5232
 4534TIP3   OH235160   2.744   2.926   8.402 -0.0718 -0.0213 -0.1509
 4534TIP3    H135161   2.758   2.964   8.489 -1.2725  2.0612 -0.7825
 4534TIP3    H235162   2.829   2.892   8.376  0.9864  1.7547  0.7638
 4535TIP3   OH235163   3.632   3.536   1.138  0.1192  0.5561  0.0296
 4535TIP3    H135164   3.682   3.535   1.220  0.5806 -1.8091 -0.1862
 4535TIP3    H235165   3.541   3.525   1.165  0.2106  0.3517  0.2618
 4536TIP3   OH235166   3.457   0.990   0.277  0.5911 -0.1032  0.3575
 4536TIP3    H135167   3.433   1.082   0.273  1.0315  0.0052  0.2130
 4536TIP3    H235168   3.389   0.950   0.332 -0.0368  0.1574 -0.2121
 4537TIP3   OH235169   0.569   6.703   1.751 -0.4305 -0.1298 -0.2191
 4537TIP3    H135170   0.601   6.713   1.661 -0.3883 -1.8023 -0.4131
 4537TIP3    H235171   0.587   6.788   1.792  0.5973  0.2782 -1.4490
 4538TIP3   OH235172   3.474   4.398   0.207  0.8222  0.5721  0.1571
 4538TIP3    H135173   3.480   4.445   0.290 -1.1832  2.8828 -0.8831
 4538TIP3    H235174   3.530   4.447   0.147  1.3738 -0.4164 -0.1609
 4539TIP3   OH235175   6.044   2.950   0.497  0.7467  0.4599 -0.0164
 4539TIP3    H135176   6.044   2.936   0.591  0.7312  0.2681 -0.0433
 4539TIP3    H235177   5.967   3.003   0.480  0.1108 -0.4419 -0.0517
 4540TIP3   OH235178   1.498   3.937   2.471 -0.5114  0.6404 -0.1036
 4540TIP3    H135179   1.500   4.019   2.422  1.5801  1.2335  0.9015
 4540TIP3    H235180   1.589   3.919   2.493 -1.1730 -0.6717  1.8229
 4541TIP3   OH235181   2.155   5.929   8.204 -0.6924  0.5956  0.4534
 4541TIP3    H135182   2.108   5.920   8.287 -2.0593  0.4773 -0.2989
 4541TIP3    H235183   2.154   5.842   8.165 -1.2193  0.9090 -0.2689
 4542TIP3   OH235184   0.345   1.352   0.190 -0.2719 -0.1349 -0.2029
 4542TIP3    H135185   0.270   1.346   0.130  0.4199 -1.7440 -0.9405
 4542TIP3    H235186   0.421   1.331   0.137  0.6767  0.9447  0.6690
 4543TIP3   OH235187   5.376   2.176   0.689 -0.2140 -0.0023 -0.0497
 4543TIP3    H135188   5.306   2.141   0.744 -0.0971 -0.0825  0.0476
 4543TIP3    H235189   5.346   2.160   0.599 -0.3742  0.0689 -0.0096
 4544TIP3   OH235190   4.335   3.908   2.823 -0.2653  0.0076 -0.3171
 4544TIP3    H135191   4.406   3.917   2.887 -1.5695  0.3565  1.1560
 4544TIP3    H235192   4.305   3.818   2.833 -0.2397 -0.0451 -0.7101
 4545TIP3   OH235193   2.173   2.605   1.469  0.2856  0.0295  0.1114
 4545TIP3    H135194   2.205   2.583   1.382 -3.6224 -1.8348 -1.1058
 4545TIP3    H235195   2.197   2.697   1.481  2.5702 -0.1703 -2.0529
 4546TIP3   OH235196   5.594   5.223   0.923  0.5784 -0.3523  0.0271
 4546TIP3    H135197   5.596   5.129   0.940 -0.7199 -0.5825 -0.9167
 4546TIP3    H235198   5.503   5.241   0.899  0.4849  1.3802  1.4532
 4547TIP3   OH235199   4.099   1.641   2.419 -0.4287 -1.0143 -0.0028
 4547TIP3    H135200   4.105   1.555   2.376  1.4774 -3.0167  3.7489
 4547TIP3    H235201   4.191   1.665   2.436 -1.0136 -0.4073  2.7498
 4548TIP3   OH235202   2.105   0.623   0.224  0.0883 -0.1650 -0.2914
 4548TIP3    H135203   2.146   0.611   0.310  0.1240  1.9837  0.0542
 4548TIP3    H235204   2.167   0.584   0.162  1.0446  0.0418  0.5095
 4549TIP3   OH235205   1.303   0.708   8.069  0.2995 -0.1784  0.0918
 4549TIP3    H135206   1.316   0.743   7.981 -1.0839  0.7167  0.2140
 4549TIP3    H235207   1.368   0.638   8.077  1.6298  0.8954 -0.9739
 4550TIP3   OH235208   2.755   2.070   8.315  0.1619  0.0059 -0.2882
 4550TIP3    H135209   2.812   2.016   8.370  0.2917  0.2878 -0.1496
 4550TIP3    H235210   2.673   2.020   8.309  0.4887 -0.4961 -0.6501
 4551TIP3   OH235211   3.566   1.963   2.086  0.3033  0.0221 -0.1196
 4551TIP3    H135212   3.560   1.922   2.172  0.6020  0.1641 -0.0293
 4551TIP3    H235213   3.654   2.000   2.083  0.7905 -1.1621 -1.0156
 4552TIP3   OH235214   2.753   0.488   0.646  0.4498  0.4472 -0.5150
 4552TIP3    H135215   2.814   0.415   0.651  0.1406  0.2085 -0.2187
 4552TIP3    H235216   2.748   0.508   0.552  1.1382  0.6076 -0.5245
 4553TIP3   OH235217   1.252   3.288   8.716  0.2765 -0.2457  0.6903
 4553TIP3    H135218   1.347   3.275   8.707  0.6602  2.3412  0.1963
 4553TIP3    H235219   1.220   3.287   8.626  0.1465  0.7893  0.7198
 4554TIP3   OH235220   2.872   5.644   8.913 -0.1215  0.4333  0.4515
 4554TIP3    H135221   2.909   5.606   8.993 -1.7953 -0.2048  0.9735
 4554TIP3    H235222   2.947   5.657   8.856  0.7336 -2.4401  0.7667
 4555TIP3   OH235223   2.134   0.291   8.676 -0.1168 -0.0036 -0.3592
 4555TIP3    H135224   2.046   0.306   8.643 -0.1395  1.1222  0.1740
 4555TIP3    H235225   2.129   0.313   8.769  1.2056  2.2153 -0.7554
 4556TIP3   OH235226   1.622   1.850   1.267 -0.2440 -0.6095 -0.1827
 4556TIP3    H135227   1.659   1.875   1.182  0.3303  0.5070  0.3656
 4556TIP3    H235228   1.598   1.933   1.308 -0.3695 -1.1162  0.8138
 4557TIP3   OH235229   4.164   6.390   7.884 -0.2350  0.0954  0.4694
 4557TIP3    H135230   4.070   6.375   7.889 -0.5303  1.6386  0.2352
 4557TIP3    H235231   4.174   6.459   7.818  1.0380  0.0418  0.5773
 4558TIP3   OH235232   2.537   4.125   0.174  0.7361  0.0354  0.3192
 4558TIP3    H135233   2.601   4.145   0.106  0.1631  0.4240 -0.1096
 4558TIP3    H235234   2.475   4.198   0.172  0.3926 -0.2293  0.8731
 4559TIP3   OH235235   6.298   5.152   2.644 -0.0241  0.0381  0.8356
 4559TIP3    H135236   6.274   5.107   2.563  0.4855 -0.4740  0.9629
 4559TIP3    H235237   6.388   5.181   2.630 -0.3849  1.1343  0.7130
 4560TIP3   OH235238   6.454   1.865   0.869 -0.6124 -0.0351 -0.5227
 4560TIP3    H135239   6.488   1.814   0.943 -2.5670 -1.4554 -0.5071
 4560TIP3    H235240   6.401   1.933   0.910  0.3669  0.7884 -0.5932
 4561TIP3   OH235241   2.520   5.859   8.789 -0.1527 -0.4762 -0.1935
 4561TIP3    H135242   2.539   5.843   8.697 -1.7273  1.5896 -0.9596
 4561TIP3    H235243   2.453   5.795   8.812  0.5496 -1.2741 -0.3439
 4562TIP3   OH235244   3.031   4.013   2.126 -0.3870 -0.0583 -0.3587
 4562TIP3    H135245   3.083   3.956   2.069  0.8021  0.0638  0.5857
 4562TIP3    H235246   3.038   4.100   2.086 -0.2027 -0.1185 -0.4556
 4563TIP3   OH235247   1.888   2.330   0.318 -0.2429  0.3055 -0.0375
 4563TIP3    H135248   1.816   2.391   0.337 -2.1865 -1.7750 -0.2939
 4563TIP3    H235249   1.856   2.279   0.243  0.5224 -2.1748  1.2361
 4564TIP3   OH235250   0.204   1.524   0.332 -0.0480  0.1980  0.4619
 4564TIP3    H135251   0.274   1.487   0.279  2.8034  2.8435  2.0289
 4564TIP3    H235252   0.189   1.460   0.401 -0.5511 -1.2076 -0.8834
 4565TIP3   OH235253   3.139   6.449   0.735 -0.1955 -0.5060  0.3052
 4565TIP3    H135254   3.073   6.380   0.730  0.8777 -1.5639  0.1740
 4565TIP3    H235255   3.095   6.522   0.779 -1.0675 -1.6216  1.3391
 4566TIP3   OH235256   0.769   4.945   0.116 -0.1671  0.8563  0.0035
 4566TIP3    H135257   0.677   4.969   0.118 -0.1437  0.9000  1.4016
 4566TIP3    H235258   0.773   4.858   0.156 -0.0954 -1.1365 -3.8829
 4567TIP3   OH235259   5.097   0.689   0.423  0.0513  0.3040  0.1953
 4567TIP3    H135260   5.012   0.703   0.380  0.0551  1.3370  0.5199
 4567TIP3    H235261   5.156   0.751   0.381  0.1339  1.1050  1.4555
 4568TIP3   OH235262   0.273   5.955   1.865  0.0083  0.6757  0.2712
 4568TIP3    H135263   0.180   5.950   1.886 -0.2236  0.4210 -0.7627
 4568TIP3    H235264   0.310   5.875   1.900 -0.6731 -0.5515 -1.6699
 4569TIP3   OH235265   5.369   4.297   2.779 -0.5060  0.0457 -0.7665
 4569TIP3    H135266   5.277   4.285   2.802 -0.4585 -1.2300 -1.1234
 4569TIP3    H235267   5.392   4.217   2.731  0.2399  1.2102 -2.4463
 4570TIP3   OH235268   5.903   6.426   8.257  0.0048 -0.3887 -0.1416
 4570TIP3    H135269   5.828   6.368   8.244 -1.0418  0.9697 -0.4481
 4570TIP3    H235270   5.896   6.454   8.348  1.1178 -1.5239  0.3211
 4571TIP3   OH235271   0.802   5.649   1.016  0.1022 -0.0625  0.7001
 4571TIP3    H135272   0.799   5.600   0.934 -0.9626  0.8279  0.1795
 4571TIP3    H235273   0.801   5.741   0.990  1.5736  0.2649  1.6708
 4572TIP3   OH235274   2.957   5.262   1.434 -0.1402  0.2962 -0.2324
 4572TIP3    H135275   2.992   5.186   1.388 -0.4596  0.6604 -1.0969
 4572TIP3    H235276   2.881   5.289   1.383  1.3299  2.6570 -1.3710
 4573TIP3   OH235277   5.987   6.703   1.315 -0.5833  0.3795 -0.2125
 4573TIP3    H135278   6.055   6.709   1.248 -1.0410  1.3502 -0.6111
 4573TIP3    H235279   5.912   6.750   1.278 -0.8641  0.8884  0.9505
 4574TIP3   OH235280   3.104   1.328   8.833 -0.3438 -0.2057 -0.2575
 4574TIP3    H135281   3.168   1.264   8.804  0.1535 -0.5420  1.4692
 4574TIP3    H235282   3.115   1.332   8.928 -1.5920  1.1252 -0.1281
 4575TIP3   OH235283   1.205   1.520   2.132  0.2263 -0.4018  0.1999
 4575TIP3    H135284   1.193   1.599   2.080 -2.6020 -0.3798  0.7196
 4575TIP3    H235285   1.232   1.453   2.069 -2.8327 -0.3177 -1.3967
 4576TIP3   OH235286   0.903   2.505   2.013 -0.3878  0.2635  0.0711
 4576TIP3    H135287   0.950   2.533   2.092  0.6291 -1.1104 -0.0242
 4576TIP3    H235288   0.928   2.570   1.947 -1.3344  1.4935  0.8709
 4577TIP3   OH235289   0.608   3.779   2.704  0.2794 -0.0030  0.1718
 4577TIP3    H135290   0.699   3.749   2.707  0.3801  0.2999  0.1934
 4577TIP3    H235291   0.578   3.753   2.617  0.2618 -0.4563  0.3104
 4578TIP3   OH235292   6.675   2.213   1.552 -0.1734  0.5988 -0.3109
 4578TIP3    H135293   6.660   2.308   1.552 -1.1619  0.4612  1.1113
 4578TIP3    H235294   6.761   2.203   1.593 -0.5039  0.8231  0.4422
 4579TIP3   OH235295   2.184   3.339   3.566 -0.3163  0.4662 -0.1046
 4579TIP3    H135296   2.208   3.392   3.490  0.4685  0.8480  0.4039
 4579TIP3    H235297   2.248   3.268   3.567 -0.5758  0.2326 -0.0308
 4580TIP3   OH235298   3.486   3.855   7.456  0.4819  0.0006  0.4714
 4580TIP3    H135299   3.428   3.932   7.453  0.4094 -0.0418  0.7648
 4580TIP3    H235300   3.574   3.892   7.456  0.5088  0.0438 -1.2949
 4581TIP3   OH235301   6.199   2.695   2.179  0.6199  0.1414 -0.1235
 4581TIP3    H135302   6.118   2.654   2.207 -0.1384  2.3146  1.0859
 4581TIP3    H235303   6.184   2.718   2.087 -0.7261  1.7703  0.4611
 4582TIP3   OH235304   6.221   6.182   7.487 -0.5157 -0.2950  0.0335
 4582TIP3    H135305   6.245   6.212   7.399  0.2453  2.4907  1.1092
 4582TIP3    H235306   6.126   6.173   7.484 -0.5808  0.5665 -0.8672
 4583TIP3   OH235307   2.177   5.684   0.010  0.3067  0.0374 -0.2516
 4583TIP3    H135308   2.167   5.596   0.047  2.7156 -0.5756 -0.8277
 4583TIP3    H235309   2.094   5.727   0.027 -0.3389 -1.7635  1.6323
 4584TIP3   OH235310   3.711   0.243   0.416  0.2599 -0.2119  0.0594
 4584TIP3    H135311   3.771   0.260   0.344  0.0521 -0.6546 -0.2231
 4584TIP3    H235312   3.632   0.210   0.374  0.2691 -0.8217  0.5125
 4585TIP3   OH235313   4.284   3.845   1.348 -0.4941 -0.0156  0.3266
 4585TIP3    H135314   4.279   3.776   1.413 -0.8515  0.3415  0.6893
 4585TIP3    H235315   4.375   3.845   1.319 -0.7011 -1.2849 -0.4093
 4586TIP3   OH235316   1.618   5.667   8.392 -0.3072  0.0092  0.0570
 4586TIP3    H135317   1.621   5.665   8.297  1.8136 -2.2336  0.0632
 4586TIP3    H235318   1.577   5.584   8.417  0.5937 -0.1576  1.0729
 4587TIP3   OH235319   2.825   1.210   8.242 -0.2818  0.0545  0.3768
 4587TIP3    H135320   2.876   1.235   8.165 -1.3100 -2.1249 -1.1065
 4587TIP3    H235321   2.734   1.218   8.215 -0.7392  1.1061  2.0480
 4588TIP3   OH235322   0.507   4.921   1.222 -0.1120 -0.5870  0.7840
 4588TIP3    H135323   0.599   4.938   1.241  1.0855 -4.0814 -1.0932
 4588TIP3    H235324   0.489   4.972   1.143  0.1848  0.0153  1.0932
 4589TIP3   OH235325   2.054   4.564   0.578 -0.5273 -0.1646 -0.2458
 4589TIP3    H135326   2.137   4.533   0.614 -0.3116  0.5686 -0.0947
 4589TIP3    H235327   1.994   4.490   0.591 -0.5929  0.2069  2.0880
 4590TIP3   OH235328   3.034   5.006   2.860 -0.2249  0.5318  0.0057
 4590TIP3    H135329   3.089   4.998   2.938  2.3194 -0.4296 -1.7310
 4590TIP3    H235330   2.995   4.919   2.849  0.6217  0.2120 -0.5726
 4591TIP3   OH235331   4.574   3.531   1.159 -0.0506 -0.3467  0.8651
 4591TIP3    H135332   4.611   3.443   1.159 -1.4399 -0.9700  1.0290
 4591TIP3    H235333   4.598   3.567   1.244  0.5940 -0.5337  0.7653
 4592TIP3   OH235334   2.113   3.350   0.328  0.1075  0.0221  0.0637
 4592TIP3    H135335   2.115   3.273   0.384 -1.2500  0.1608  0.3414
 4592TIP3    H235336   2.066   3.416   0.379 -2.7614 -0.3912 -1.8196
 4593TIP3   OH235337   3.864   5.258   2.049 -0.7024 -0.4061 -0.1481
 4593TIP3    H135338   3.777   5.242   2.086 -0.9295 -0.5092 -0.7145
 4593TIP3    H235339   3.920   5.273   2.125 -0.7354 -2.5938  0.3664
 4594TIP3   OH235340   5.031   5.899   0.229  0.0472 -0.3513 -0.5179
 4594TIP3    H135341   5.007   5.990   0.210  0.8382 -0.4485 -2.1155
 4594TIP3    H235342   5.048   5.860   0.144  1.9990 -1.3633  0.2782
 4595TIP3   OH235343   6.631   5.169   3.026  0.6942 -0.1992  0.3613
 4595TIP3    H135344   6.536   5.175   3.011  0.7257  0.2860  0.3171
 4595TIP3    H235345   6.640   5.151   3.119  0.5595 -0.0501  0.4037
 4596TIP3   OH235346   2.991   1.735   2.235  0.6563 -0.9136  0.1242
 4596TIP3    H135347   2.978   1.806   2.171  0.7123  0.0444  1.1372
 4596TIP3    H235348   3.086   1.720   2.235  0.6708 -0.8228  0.0718
 4597TIP3   OH235349   0.575   3.834   8.160  0.0671  0.2556 -0.0928
 4597TIP3    H135350   0.581   3.777   8.084  2.2366  0.7853 -0.3661
 4597TIP3    H235351   0.531   3.913   8.127 -1.0986 -0.4116 -0.1948
 4598TIP3   OH235352   5.911   3.173   8.883  0.3010  0.2547  0.2419
 4598TIP3    H135353   5.888   3.091   8.927 -1.4725  0.2844 -0.5355
 4598TIP3    H235354   5.871   3.241   8.937  0.3174  0.4847 -0.0342
 4599TIP3   OH235355   6.078   0.732   2.242 -0.3887  0.1712  0.0738
 4599TIP3    H135356   6.111   0.642   2.242 -1.8159 -0.4287  2.1321
 4599TIP3    H235357   6.067   0.754   2.149  1.7850 -1.0452 -0.5420
 4600TIP3   OH235358   4.720   1.324   8.514 -0.4195  0.4148 -0.1756
 4600TIP3    H135359   4.765   1.255   8.464  0.3189  1.0338 -0.3916
 4600TIP3    H235360   4.747   1.309   8.604  0.0467  0.6376 -0.2726
 4601TIP3   OH235361   3.778   1.554   8.821 -0.7784 -0.3039 -0.1452
 4601TIP3    H135362   3.710   1.490   8.845 -1.6389  0.5675 -0.2101
 4601TIP3    H235363   3.739   1.605   8.750 -0.2762  0.5663  0.1879
 4602TIP3   OH235364   5.564   5.413   1.535  0.1843 -0.8291  0.3886
 4602TIP3    H135365   5.506   5.487   1.518 -0.0861 -0.4559  2.6611
 4602TIP3    H235366   5.547   5.389   1.626  2.6838 -1.5156  0.7437
 4603TIP3   OH235367   2.050   5.199   8.209  0.6450 -0.2690 -0.2117
 4603TIP3    H135368   2.092   5.157   8.134  0.7857 -1.1143  0.3296
 4603TIP3    H235369   1.957   5.178   8.198  0.5766  0.1588 -0.4900
 4604TIP3   OH235370   3.703   5.744   0.474  0.3052 -0.1333  0.2644
 4604TIP3    H135371   3.743   5.658   0.470  0.9577  0.2045 -1.1952
 4604TIP3    H235372   3.747   5.795   0.406 -1.3658  0.7822 -0.2111
 4605TIP3   OH235373   4.627   5.898   1.267 -0.1523  0.3942 -0.2389
 4605TIP3    H135374   4.645   5.938   1.352 -0.8213 -0.8622  0.5252
 4605TIP3    H235375   4.548   5.845   1.282 -1.1674  1.3174 -2.0302
 4606TIP3   OH235376   3.954   2.339   0.908  0.3988  0.2018  0.2654
 4606TIP3    H135377   3.910   2.254   0.908  0.8419 -0.0857 -1.7246
 4606TIP3    H235378   3.889   2.400   0.942 -0.4190 -0.7182  0.4016
 4607TIP3   OH235379   6.654   5.173   8.180 -0.5316  0.1219 -0.1518
 4607TIP3    H135380   6.694   5.104   8.125 -1.8239  0.1512 -1.1697
 4607TIP3    H235381   6.563   5.145   8.192 -0.6710  0.8939  0.7224
 4608TIP3   OH235382   3.166   0.061   2.337 -0.3483 -0.3055 -0.3689
 4608TIP3    H135383   3.126   0.089   2.420 -0.0454  0.0942 -0.3548
 4608TIP3    H235384   3.142   0.129   2.275  0.4245  0.0087 -0.3262
 4609TIP3   OH235385   5.558   4.592   8.676  0.1005  0.4267 -0.8496
 4609TIP3    H135386   5.618   4.666   8.666 -0.6491  1.4737  1.5891
 4609TIP3    H235387   5.597   4.539   8.746 -1.2697  0.6005  0.0860
 4610TIP3   OH235388   1.080   0.296   8.522 -0.5249 -0.3136 -0.2312
 4610TIP3    H135389   1.107   0.321   8.610 -3.3249 -1.6196  1.1002
 4610TIP3    H235390   1.044   0.208   8.532 -1.7726 -0.1395 -2.5018
 4611TIP3   OH235391   2.446   5.749   0.104  0.0940  0.1468 -0.3586
 4611TIP3    H135392   2.368   5.750   0.047 -0.2924  0.3261  0.1670
 4611TIP3    H235393   2.485   5.663   0.089 -0.7124 -0.2999  0.0507
 4612TIP3   OH235394   4.551   1.555   8.448  0.3944 -0.0517 -0.0007
 4612TIP3    H135395   4.621   1.609   8.486 -0.8814  0.7843  1.2557
 4612TIP3    H235396   4.578   1.465   8.465  0.7646  0.2738  1.2373
 4613TIP3   OH235397   3.842   4.701   1.988  0.6833  0.3456  0.0398
 4613TIP3    H135398   3.864   4.790   1.961  2.3765 -0.2725 -0.7777
 4613TIP3    H235399   3.842   4.651   1.906 -2.5615 -0.0403  0.1425
 4614TIP3   OH235400   4.752   3.179   1.791  0.3918  0.2705 -0.5945
 4614TIP3    H135401   4.717   3.191   1.703 -1.2240 -1.0489 -0.1857
 4614TIP3    H235402   4.692   3.227   1.848 -1.3015 -2.4940  0.1745
 4615TIP3   OH235403   3.852   1.909   2.124 -0.3607  0.2235  0.0291
 4615TIP3    H135404   3.904   1.912   2.044  0.0600 -0.7240  0.2544
 4615TIP3    H235405   3.903   1.855   2.185 -1.1822  0.0148  0.5594
 4616TIP3   OH235406   3.121   5.740   8.402  0.1074 -0.0784  0.5778
 4616TIP3    H135407   3.160   5.803   8.463  0.0806 -0.6386  1.1765
 4616TIP3    H235408   3.116   5.658   8.451  0.8673 -0.7675 -0.4518
 4617TIP3   OH235409   5.418   1.840   3.708  0.1558  0.4347  0.3492
 4617TIP3    H135410   5.393   1.761   3.754  0.6763  0.1658  0.1822
 4617TIP3    H235411   5.386   1.827   3.618 -1.4247  1.2310  0.7558
 4618TIP3   OH235412   0.937   0.208   8.866  0.3914  0.2263 -0.0748
 4618TIP3    H135413   1.030   0.224   8.854  1.0050 -3.4825 -1.7278
 4618TIP3    H235414   0.932   0.140   8.933 -1.1699  0.6149  0.2479
 4619TIP3   OH235415   3.031   4.694   7.970 -0.1441  0.3032 -0.5300
 4619TIP3    H135416   3.114   4.683   7.923 -1.2725  1.3646 -2.9960
 4619TIP3    H235417   2.964   4.680   7.902 -1.8983  2.9789  0.4729
 4620TIP3   OH235418   3.224   0.624   1.209  0.3721 -0.3333 -0.1111
 4620TIP3    H135419   3.165   0.568   1.260  0.7991 -2.7960 -2.1360
 4620TIP3    H235420   3.311   0.605   1.244  0.4877 -0.7339 -0.6057
 4621TIP3   OH235421   0.281   2.421   0.899  0.1467  0.6644  0.2713
 4621TIP3    H135422   0.332   2.347   0.866 -0.5312  0.7887 -1.1101
 4621TIP3    H235423   0.239   2.388   0.979  0.7899 -0.0593  0.3232
 4622TIP3   OH235424   4.267   6.378   0.145  0.5319 -0.4878  0.2982
 4622TIP3    H135425   4.262   6.473   0.147  2.3059 -0.3499 -0.2877
 4622TIP3    H235426   4.261   6.351   0.237  0.4429  0.2092  0.4989
 4623TIP3   OH235427   3.050   3.749   3.192  0.5122 -0.1769  0.1782
 4623TIP3    H135428   3.118   3.787   3.247  0.3708  0.6501 -0.2078
 4623TIP3    H235429   3.038   3.812   3.122 -1.0732 -0.0097  0.5665
 4624TIP3   OH235430   3.298   4.058   8.386 -0.1648 -0.6041 -0.4554
 4624TIP3    H135431   3.382   4.096   8.359 -0.0888 -0.7142 -0.3794
 4624TIP3    H235432   3.284   3.986   8.324 -0.3537 -0.3979 -0.6560
 4625TIP3   OH235433   1.886   3.230   8.931  1.5698 -0.2035 -0.0605
 4625TIP3    H135434   1.857   3.243   9.021  0.4275 -2.1860 -0.0968
 4625TIP3    H235435   1.981   3.246   8.934  1.6144 -0.5930  1.5542
 4626TIP3   OH235436   4.206   2.791   0.390 -0.5403  0.3338  0.2367
 4626TIP3    H135437   4.164   2.874   0.367 -0.7985 -0.1980 -1.3090
 4626TIP3    H235438   4.217   2.796   0.485  0.5634  2.6370  0.0537
 4627TIP3   OH235439   6.021   0.140   0.230 -0.1780  0.0588 -0.1637
 4627TIP3    H135440   5.993   0.051   0.208  0.7829 -0.2565 -0.1958
 4627TIP3    H235441   5.986   0.155   0.318  1.5760 -1.2768  0.8367
 4628TIP3   OH235442   4.081   4.045   2.965  0.3298 -0.2175  0.0930
 4628TIP3    H135443   4.114   3.970   3.015  1.5145  0.4902  0.4116
 4628TIP3    H235444   4.029   4.007   2.894 -0.2951 -1.2841  1.0916
 4629TIP3   OH235445   0.736   5.526   1.732  0.3893 -0.2742  0.0921
 4629TIP3    H135446   0.691   5.523   1.816  0.1400 -0.1983 -0.0395
 4629TIP3    H235447   0.698   5.601   1.686 -0.6672 -1.2893 -0.7531
 4630TIP3   OH235448   5.321   3.222   0.409 -0.1592 -0.6203  0.7546
 4630TIP3    H135449   5.355   3.156   0.349  0.8205  0.9835 -0.5220
 4630TIP3    H235450   5.395   3.281   0.424 -1.5601  1.3742  0.1598
 4631TIP3   OH235451   6.477   5.774   0.710 -0.0807 -0.2380 -0.3964
 4631TIP3    H135452   6.396   5.826   0.704  0.1399  0.0768 -0.6745
 4631TIP3    H235453   6.446   5.685   0.725 -0.6725 -0.7140 -3.5836
 4632TIP3   OH235454   0.551   0.256   0.828 -0.5262 -0.0248  0.1855
 4632TIP3    H135455   0.474   0.273   0.773  0.8123  0.9456 -1.4837
 4632TIP3    H235456   0.526   0.287   0.915 -2.4640 -0.9314  0.0121
 4633TIP3   OH235457   3.225   2.613   8.467  0.0622  0.1917  0.2250
 4633TIP3    H135458   3.288   2.610   8.395 -1.3594 -1.6338 -1.0473
 4633TIP3    H235459   3.146   2.653   8.430 -0.7888 -1.0229  0.6398
 4634TIP3   OH235460   0.199   2.759   1.037  0.2759  0.0848  0.7277
 4634TIP3    H135461   0.251   2.803   1.104 -0.1146  1.7172  0.0087
 4634TIP3    H235462   0.134   2.708   1.086 -0.5916  1.9648  1.6111
 4635TIP3   OH235463   2.752   5.660   1.058  0.5658 -0.2655 -0.1022
 4635TIP3    H135464   2.736   5.574   1.020  0.0465  0.4858 -1.6656
 4635TIP3    H235465   2.737   5.648   1.152  0.6277 -1.8958 -0.2739
 4636TIP3   OH235466   1.494   0.585   2.022 -0.5859  0.1096 -0.2088
 4636TIP3    H135467   1.457   0.501   2.049 -0.7747  0.7303  1.5471
 4636TIP3    H235468   1.586   0.581   2.047 -0.3802  0.1097 -0.9269
 4637TIP3   OH235469   0.880   1.774   1.626  0.1190  0.2450 -0.0657
 4637TIP3    H135470   0.884   1.800   1.718  0.5627  0.0856 -0.0387
 4637TIP3    H235471   0.918   1.687   1.624  1.6648  0.9004 -0.6441
 4638TIP3   OH235472   5.761   5.285   8.264  0.1046  0.1481  1.4591
 4638TIP3    H135473   5.776   5.357   8.203  0.7425  1.1737  2.7448
 4638TIP3    H235474   5.849   5.261   8.295  0.0542 -2.2027  0.0053
 4639TIP3   OH235475   5.901   0.925   1.728  0.1996 -0.2646  0.4501
 4639TIP3    H135476   5.873   0.841   1.692 -1.3317 -0.6661  2.3890
 4639TIP3    H235477   5.831   0.986   1.703  0.8553  0.2527 -0.1689
 4640TIP3   OH235478   1.124   3.360   8.160  0.2138  0.1205 -0.1636
 4640TIP3    H135479   1.079   3.347   8.077 -1.6123  1.0271  0.6376
 4640TIP3    H235480   1.133   3.272   8.197 -2.5814  0.0169  0.4642
 4641TIP3   OH235481   0.354   3.244   1.939 -0.1699 -0.3164 -0.4901
 4641TIP3    H135482   0.330   3.253   2.032 -1.7966  0.7219 -0.9641
 4641TIP3    H235483   0.271   3.255   1.892  0.7483 -0.0042 -2.1149
 4642TIP3   OH235484   2.309   6.367   0.792  0.7895  0.3268  0.4845
 4642TIP3    H135485   2.298   6.278   0.825  0.3364 -0.4426 -1.5546
 4642TIP3    H235486   2.396   6.368   0.753  0.1103  0.1741 -1.1042
 4643TIP3   OH235487   2.513   2.612   0.725  0.0355 -0.2243 -0.5617
 4643TIP3    H135488   2.550   2.687   0.677  2.1678 -0.8238  0.0222
 4643TIP3    H235489   2.459   2.567   0.660  1.0232  0.2393 -1.7558
 4644TIP3   OH235490   1.497   4.079   2.054 -0.2277 -0.1075 -0.2633
 4644TIP3    H135491   1.529   4.007   2.000 -0.4184 -0.9718  0.7399
 4644TIP3    H235492   1.423   4.115   2.006  0.9545  0.6108 -1.6396
 4645TIP3   OH235493   2.021   6.399   3.260  0.3206 -0.2597  0.5581
 4645TIP3    H135494   1.942   6.451   3.277  1.0919  1.1011  0.0922
 4645TIP3    H235495   2.070   6.403   3.342  0.8449  0.5989  0.2117
 4646TIP3   OH235496   0.342   1.822   8.919  0.0869 -0.9508 -0.2305
 4646TIP3    H135497   0.428   1.812   8.960  0.0832  0.4764  0.1635
 4646TIP3    H235498   0.337   1.750   8.856  0.7425 -2.2416  1.1351
 4647TIP3   OH235499   2.315   0.007   1.486  0.2861 -0.3015  0.4863
 4647TIP3    H135500   2.384   0.047   1.433 -0.6696  0.0435 -0.5120
 4647TIP3    H235501   2.339   0.031   1.576  1.4357 -0.1480  0.1625
 4648TIP3   OH235502   4.548   1.056   0.609 -0.3697 -0.3935 -0.1573
 4648TIP3    H135503   4.545   1.102   0.526 -1.8095  0.9283  0.5649
 4648TIP3    H235504   4.509   0.970   0.591 -2.8545  0.7052 -0.4334
 4649TIP3   OH235505   3.422   1.667   8.835 -0.3116 -0.3400 -0.1556
 4649TIP3    H135506   3.462   1.678   8.749  0.3909 -0.9065  0.0894
 4649TIP3    H235507   3.328   1.672   8.818 -0.1579  1.5748 -0.6578
 4650TIP3   OH235508   5.221   1.456   1.233  0.2152 -0.4908 -0.9730
 4650TIP3    H135509   5.298   1.458   1.289 -0.9350  2.1902  0.7313
 4650TIP3    H235510   5.154   1.412   1.285 -0.5525  1.0528 -0.5776
 4651TIP3   OH235511   4.997   4.593   2.375 -0.7265  0.5106  0.4038
 4651TIP3    H135512   4.904   4.589   2.352 -0.7150 -0.2267  0.4528
 4651TIP3    H235513   5.033   4.510   2.343  0.0595  1.0702 -0.2105
 4652TIP3   OH235514   2.340   5.928   0.287 -0.0436  0.7084 -0.9090
 4652TIP3    H135515   2.390   5.865   0.235 -1.1104 -0.2503 -0.8177
 4652TIP3    H235516   2.273   5.875   0.330  0.4861  1.5609  1.0510
 4653TIP3   OH235517   3.356   5.946   8.435 -0.5164  0.2241 -0.1999
 4653TIP3    H135518   3.420   5.998   8.388 -0.1329 -1.6278 -1.8643
 4653TIP3    H235519   3.333   5.999   8.511  2.1808  1.4024 -0.0924
 4654TIP3   OH235520   6.157   6.491   1.169  0.0610  0.3668  0.2071
 4654TIP3    H135521   6.084   6.432   1.149  0.0633  0.3566  0.2275
 4654TIP3    H235522   6.220   6.435   1.216  0.1106  0.3593  0.1314
 4655TIP3   OH235523   4.225   1.646   8.890 -0.2881  0.3588 -0.0876
 4655TIP3    H135524   4.162   1.576   8.873  1.2274 -0.5313 -2.6354
 4655TIP3    H235525   4.282   1.612   8.960 -0.4433 -0.3456 -0.3021
 4656TIP3   OH235526   0.116   0.257   0.885  0.4057 -0.2979  0.1982
 4656TIP3    H135527   0.141   0.350   0.880  0.1580 -0.3051 -1.7282
 4656TIP3    H235528   0.193   0.214   0.921  0.3784  0.6843  1.5317
 4657TIP3   OH235529   2.062   2.148   7.658  0.3470 -0.1595 -0.5319
 4657TIP3    H135530   2.043   2.112   7.572 -0.0916 -0.5691 -0.2644
 4657TIP3    H235531   2.053   2.243   7.647  1.0410 -0.1510 -1.1177
 4658TIP3   OH235532   6.133   4.219   0.651 -0.2179  0.0754 -0.1629
 4658TIP3    H135533   6.183   4.279   0.705 -0.7651 -0.0127  0.4556
 4658TIP3    H235534   6.071   4.275   0.604  0.9617  0.2851 -1.5477
 4659TIP3   OH235535   1.778   6.541   2.136 -0.2558  0.4884 -0.1770
 4659TIP3    H135536   1.777   6.498   2.050  0.5490  1.9374 -0.9370
 4659TIP3    H235537   1.698   6.510   2.178 -0.2788 -0.8607 -1.1264
 4660TIP3   OH235538   2.710   5.171   2.357 -0.0391 -0.2919  0.0896
 4660TIP3    H135539   2.698   5.121   2.277 -1.0166  0.0986 -0.0267
 4660TIP3    H235540   2.683   5.112   2.427  1.5337 -0.8946  0.2151
 4661TIP3   OH235541   6.047   1.107   7.435  0.4171 -0.9016  0.2358
 4661TIP3    H135542   5.956   1.094   7.461 -0.0760 -0.8536 -1.3420
 4661TIP3    H235543   6.076   1.182   7.486 -0.8808 -0.0270 -0.2540
 4662TIP3   OH235544   6.230   3.992   1.356  0.2128 -0.3565 -0.4740
 4662TIP3    H135545   6.140   3.960   1.357  0.3779 -0.8310 -0.0676
 4662TIP3    H235546   6.234   4.053   1.283 -0.1924 -1.0557 -1.0854
 4663TIP3   OH235547   1.976   1.509   2.552 -0.3334  0.0752 -0.7309
 4663TIP3    H135548   2.026   1.439   2.510 -0.1762 -1.7866  2.2627
 4663TIP3    H235549   1.892   1.469   2.574 -0.1047  0.6194  1.3800
 4664TIP3   OH235550   0.839   2.543   0.908  0.3104 -0.1369 -0.8121
 4664TIP3    H135551   0.769   2.608   0.916 -0.6131 -1.2638  1.6269
 4664TIP3    H235552   0.888   2.569   0.831 -1.3145  2.1575 -1.1829
 4665TIP3   OH235553   6.536   4.169   0.639 -0.1855  0.0538 -0.0870
 4665TIP3    H135554   6.477   4.176   0.564 -0.0170 -1.0071 -0.3325
 4665TIP3    H235555   6.543   4.075   0.656 -0.5912  0.2789  1.5581
 4666TIP3   OH235556   0.348   5.691   1.104  0.0380  0.1288 -0.1459
 4666TIP3    H135557   0.319   5.682   1.013  0.5150 -0.6125 -0.2332
 4666TIP3    H235558   0.443   5.692   1.099  0.0680  0.0518  0.3462
 4667TIP3   OH235559   4.169   3.059   1.011 -0.6088 -0.0914 -0.1570
 4667TIP3    H135560   4.199   2.975   1.046  0.7556  0.8627  1.0677
 4667TIP3    H235561   4.074   3.057   1.022 -0.6231 -1.5391 -0.3522
 4668TIP3   OH235562   1.153   1.069   8.328 -0.2003 -0.5484 -0.2144
 4668TIP3    H135563   1.184   1.020   8.404 -1.1466  0.9807  1.2598
 4668TIP3    H235564   1.070   1.027   8.305  0.2221 -1.1871 -0.5799
 4669TIP3   OH235565   1.615   4.184   8.834  0.2546  0.0690 -0.3435
 4669TIP3    H135566   1.565   4.265   8.829  1.6682  0.9347 -1.2045
 4669TIP3    H235567   1.686   4.203   8.896  0.7658 -0.4124 -0.7652
 4670TIP3   OH235568   1.861   3.917   1.538  0.0257 -0.5152 -0.5360
 4670TIP3    H135569   1.804   3.950   1.469 -2.2311  0.9715  1.8263
 4670TIP3    H235570   1.928   3.984   1.549 -0.7553  0.1983 -0.0305
 4671TIP3   OH235571   0.015   6.051   8.741 -0.3836  0.3605  0.4562
 4671TIP3    H135572  -0.081   6.043   8.745 -0.4369  1.0279  0.6490
 4671TIP3    H235573   0.045   5.966   8.709 -1.1448  0.7002 -1.2510
 4672TIP3   OH235574   2.213   3.623   2.489  0.0289 -0.9757  0.4262
 4672TIP3    H135575   2.244   3.617   2.579  0.1059 -1.7262  0.3570
 4672TIP3    H235576   2.249   3.545   2.446 -1.4612 -1.5825  0.1970
 4673TIP3   OH235577   1.437   4.205   3.423 -0.4611 -0.3577 -0.0094
 4673TIP3    H135578   1.519   4.167   3.391 -0.3683  0.0378 -0.2494
 4673TIP3    H235579   1.456   4.299   3.432 -0.8405 -0.2880  0.0844
 4674TIP3   OH235580   0.952   5.030   1.642 -0.4294  0.3308 -0.1734
 4674TIP3    H135581   0.868   5.030   1.689 -0.5070 -0.9943 -0.2840
 4674TIP3    H235582   0.942   5.097   1.575 -1.3356  0.2979 -0.0780
 4675TIP3   OH235583   4.920   2.169   2.937 -0.6823 -0.1642  0.0214
 4675TIP3    H135584   4.928   2.102   3.004 -0.2475  0.6069  0.7615
 4675TIP3    H235585   4.998   2.224   2.947 -1.7810  1.3886  0.5040
 4676TIP3   OH235586   1.032   4.920   0.041  0.5946 -0.4582  0.3562
 4676TIP3    H135587   1.101   4.984   0.059  0.3031  0.5461 -1.7448
 4676TIP3    H235588   0.958   4.951   0.093  0.8716  0.1570  0.4017
 4677TIP3   OH235589   3.068   0.406   8.579  0.3055  0.5967  0.3315
 4677TIP3    H135590   3.029   0.328   8.620  0.0716  1.7015  2.3204
 4677TIP3    H235591   3.154   0.377   8.550 -0.1262 -0.6293  0.2164
 4678TIP3   OH235592   0.936   1.312   0.195 -0.0061  0.8667  0.7495
 4678TIP3    H135593   1.021   1.334   0.233 -0.0428 -1.0781  2.0882
 4678TIP3    H235594   0.905   1.237   0.246 -0.4896 -1.3588 -2.5007
 4679TIP3   OH235595   4.377   3.714   2.551  0.2921  0.2515 -0.4177
 4679TIP3    H135596   4.343   3.686   2.636  1.1856 -0.7292 -0.3671
 4679TIP3    H235597   4.472   3.705   2.559  0.3742 -0.0121 -1.5731
 4680TIP3   OH235598   2.379   0.397   7.272 -0.4802 -0.6135 -0.0947
 4680TIP3    H135599   2.460   0.372   7.316 -1.4442  0.8235  2.7464
 4680TIP3    H235600   2.405   0.470   7.214  0.2887 -0.1806  0.7681
 4681TIP3   OH235601   1.400   6.486   1.254 -0.1894  0.0754  0.6912
 4681TIP3    H135602   1.323   6.543   1.257 -0.4341 -0.0651 -1.2175
 4681TIP3    H235603   1.368   6.401   1.284 -1.0769 -0.2306 -0.9700
 4682TIP3   OH235604   1.473   5.015   8.726 -0.2138  0.1727  0.3327
 4682TIP3    H135605   1.392   5.060   8.750 -0.3078  0.7605 -1.0069
 4682TIP3    H235606   1.474   4.937   8.782 -1.3411  0.5158  0.8694
 4683TIP3   OH235607   2.860   6.066   1.900 -0.3696  0.1832  0.0752
 4683TIP3    H135608   2.881   6.098   1.988 -0.3539 -1.3351  0.6519
 4683TIP3    H235609   2.800   5.993   1.915  0.5281 -0.8450 -1.0849
 4684TIP3   OH235610   5.672   2.138   0.967 -0.5180  0.2092 -0.2145
 4684TIP3    H135611   5.605   2.159   1.032  1.1769 -0.9578  2.0963
 4684TIP3    H235612   5.671   2.043   0.961 -2.0862  0.3131 -3.7027
 4685TIP3   OH235613   5.300   4.617   8.856  0.6031 -0.0370  0.1458
 4685TIP3    H135614   5.337   4.530   8.842 -0.4170 -0.4450 -0.0930
 4685TIP3    H235615   5.316   4.664   8.774  0.5087 -0.2408  0.0109
 4686TIP3   OH235616   6.179   2.440   0.748  0.4129  0.0007  0.0807
 4686TIP3    H135617   6.089   2.444   0.715  0.4928 -0.6983 -0.2581
 4686TIP3    H235618   6.231   2.416   0.671  1.4003  3.5871 -0.5639
 4687TIP3   OH235619   4.503   3.890   0.760  0.3454 -0.3072 -0.5781
 4687TIP3    H135620   4.545   3.824   0.704 -0.5911 -1.0314 -0.4504
 4687TIP3    H235621   4.570   3.912   0.825  0.7574 -0.9455 -0.7732
 4688TIP3   OH235622   4.694   2.507   1.217 -0.0527  0.3855 -0.2000
 4688TIP3    H135623   4.769   2.477   1.165 -0.0068  1.2647 -0.6633
 4688TIP3    H235624   4.619   2.461   1.181  0.4664 -2.0345  1.5363
 4689TIP3   OH235625   2.303   6.204   0.232 -0.1753 -0.0435  0.0442
 4689TIP3    H135626   2.314   6.110   0.223  0.1558  0.0926 -1.1440
 4689TIP3    H235627   2.241   6.228   0.163 -0.0054  0.6575  0.1240
 4690TIP3   OH235628   2.220   6.450   8.031 -0.7737 -0.2349 -0.8424
 4690TIP3    H135629   2.180   6.508   7.966 -1.2376  1.7213  1.0727
 4690TIP3    H235630   2.304   6.424   7.993 -1.0701  0.7753 -2.2459
 4691TIP3   OH235631   4.032   5.225   2.555 -0.1265  0.2946  0.4912
 4691TIP3    H135632   4.121   5.214   2.587 -0.1296 -1.2016  0.0336
 4691TIP3    H235633   3.985   5.266   2.628  0.8330  0.7731  0.8630
 4692TIP3   OH235634   4.996   0.935   1.481 -0.1420 -0.6493  0.2059
 4692TIP3    H135635   5.081   0.913   1.519  1.0818  0.5084 -1.6631
 4692TIP3    H235636   4.957   0.997   1.542  0.8008 -0.4605  0.6317
 4693TIP3   OH235637   1.515   1.671   0.962 -0.1572 -0.2116 -0.2172
 4693TIP3    H135638   1.444   1.721   0.922  0.7923  0.4922 -1.0669
 4693TIP3    H235639   1.471   1.612   1.023 -1.3951  0.9123  0.0229
 4694TIP3   OH235640   0.414   1.834   8.535  0.1745  1.2477  0.2434
 4694TIP3    H135641   0.319   1.827   8.540 -0.0069  2.4657 -1.0167
 4694TIP3    H235642   0.446   1.748   8.562 -1.3112  0.5402 -0.1756
 4695TIP3   OH235643   2.949   4.696   8.392  0.0405  0.6804  0.4294
 4695TIP3    H135644   3.010   4.643   8.341 -0.1847 -0.8109  1.6455
 4695TIP3    H235645   2.968   4.673   8.483 -1.4551  1.1770  0.8857
 4696TIP3   OH235646   2.767   0.737   1.333 -0.4543 -0.3933  0.0370
 4696TIP3    H135647   2.685   0.701   1.367 -1.4086 -1.8010 -3.3666
 4696TIP3    H235648   2.740   0.788   1.256  1.7535  0.1342 -0.4426
 4697TIP3   OH235649   6.489   4.487   1.268 -0.2455  0.2142 -0.0322
 4697TIP3    H135650   6.556   4.488   1.200  0.0054 -0.8762  0.1639
 4697TIP3    H235651   6.534   4.522   1.346 -0.1327  0.2123 -0.0957
 4698TIP3   OH235652   2.813   6.498   2.539  0.4738 -0.1937  0.5434
 4698TIP3    H135653   2.766   6.582   2.537  0.8958  0.0385 -0.5025
 4698TIP3    H235654   2.903   6.522   2.561  0.7516 -0.2688 -0.4485
 4699TIP3   OH235655   6.621   2.334   8.130  0.0865 -0.1584 -0.0727
 4699TIP3    H135656   6.673   2.337   8.209 -0.3569 -4.3475  0.6102
 4699TIP3    H235657   6.684   2.314   8.060 -0.0693 -1.8623  0.2150
 4700TIP3   OH235658   3.220   3.810   0.656 -0.6421  0.3852 -0.2404
 4700TIP3    H135659   3.244   3.885   0.602 -1.4051  0.4494 -0.5026
 4700TIP3    H235660   3.303   3.775   0.687 -0.2929  1.7517  0.4509
 4701TIP3   OH235661   1.959   4.383   1.461  0.7907 -0.3377  0.2564
 4701TIP3    H135662   1.938   4.449   1.527 -0.4638  1.0861 -1.4965
 4701TIP3    H235663   1.937   4.300   1.503  2.3370  0.2737  2.4893
 4702TIP3   OH235664   1.948   5.995   7.387  0.5749 -0.6837 -0.3770
 4702TIP3    H135665   2.014   5.970   7.451  0.9971 -0.7448 -0.8340
 4702TIP3    H235666   1.894   6.061   7.432 -0.1110 -1.8671  0.5883
 4703TIP3   OH235667   3.263   0.511   8.748  0.4096  0.2704 -0.8676
 4703TIP3    H135668   3.323   0.498   8.822 -0.3654  1.0456 -0.0846
 4703TIP3    H235669   3.312   0.478   8.672  1.6102  0.3682 -0.1688
 4704TIP3   OH235670   2.871   1.036   8.912  0.3156 -0.0474  0.0214
 4704TIP3    H135671   2.810   0.965   8.893  1.0355 -0.4091 -0.9569
 4704TIP3    H235672   2.916   1.008   8.992  0.3586 -0.5370 -0.1702
 4705TIP3   OH235673   4.285   3.424   8.194  0.0799  0.6136  0.1783
 4705TIP3    H135674   4.380   3.421   8.180 -0.0632 -2.6750 -1.1990
 4705TIP3    H235675   4.273   3.386   8.281  0.0419 -1.3060 -0.5938
 4706TIP3   OH235676   4.146   5.544   2.423  1.0368  0.2697 -0.7200
 4706TIP3    H135677   4.197   5.561   2.344  1.9671 -0.1671 -0.2325
 4706TIP3    H235678   4.204   5.493   2.479  0.2542  0.2292  0.0900
 4707TIP3   OH235679   6.317   4.166   8.600 -0.6169  0.6280 -0.1639
 4707TIP3    H135680   6.293   4.226   8.670  0.1214 -1.0574  1.6057
 4707TIP3    H235681   6.243   4.106   8.592 -1.0233  1.2529 -1.3889
 4708TIP3   OH235682   1.519   5.325   2.976  0.9111  0.5204  0.0801
 4708TIP3    H135683   1.614   5.316   2.973  0.8675 -0.4761  0.8014
 4708TIP3    H235684   1.486   5.253   2.922  0.5673 -0.3493  1.3843
 4709TIP3   OH235685   3.537   3.745   1.445 -1.0277 -0.0138 -0.1397
 4709TIP3    H135686   3.544   3.839   1.424  0.5557  0.1445  0.8764
 4709TIP3    H235687   3.457   3.716   1.401 -1.6027  1.8328 -0.3976
 4710TIP3   OH235688   4.771   1.443   0.170  0.1426 -0.2673 -0.4696
 4710TIP3    H135689   4.801   1.516   0.116 -1.6730  0.0745 -1.0972
 4710TIP3    H235690   4.786   1.472   0.260 -0.9789  1.1266 -0.6928
 4711TIP3   OH235691   4.477   3.887   1.723 -0.6390 -0.0936  0.0797
 4711TIP3    H135692   4.402   3.939   1.693 -0.6538  0.2799  0.7389
 4711TIP3    H235693   4.552   3.945   1.710 -0.4304 -0.5314 -0.7446
 4712TIP3   OH235694   1.238   1.137   0.711  0.1386 -0.3467  0.3252
 4712TIP3    H135695   1.281   1.177   0.635 -0.4175  0.7956  0.5852
 4712TIP3    H235696   1.176   1.204   0.741 -1.4583 -1.7507  0.2721
 4713TIP3   OH235697   0.474   3.963   0.694  0.2352 -0.1099  0.1100
 4713TIP3    H135698   0.426   3.881   0.683  0.7073 -0.2902 -0.7228
 4713TIP3    H235699   0.540   3.944   0.761  1.8107 -1.1325 -1.6153
 4714TIP3   OH235700   2.703   1.073   1.673 -0.5078 -0.6280  0.1341
 4714TIP3    H135701   2.754   1.057   1.594 -0.4316  0.0084  0.0467
 4714TIP3    H235702   2.668   0.987   1.697 -0.8449 -0.7623 -0.8010
 4715TIP3   OH235703   0.540   4.810   0.473 -0.3829 -0.0499 -0.0236
 4715TIP3    H135704   0.571   4.724   0.503  1.4860  1.1792  1.7637
 4715TIP3    H235705   0.447   4.810   0.494  0.0154 -0.8558  1.9306
 4716TIP3   OH235706   0.033   5.596   3.722  0.2367 -0.3645  0.1693
 4716TIP3    H135707   0.118   5.582   3.680  0.7979  0.1647  1.0955
 4716TIP3    H235708  -0.024   5.628   3.652  0.5539 -1.5301 -0.6527
 4717TIP3   OH235709   2.093   2.156   0.221  0.1953 -0.0368  0.0911
 4717TIP3    H135710   2.083   2.177   0.128 -1.0627  1.5396  0.5311
 4717TIP3    H235711   2.057   2.233   0.267  0.6380 -0.8412  1.8847
 4718TIP3   OH235712   2.655   5.005   0.281 -0.2737 -0.0964 -0.5738
 4718TIP3    H135713   2.599   4.984   0.356 -0.7906  1.6636 -0.4298
 4718TIP3    H235714   2.594   5.029   0.211  0.1661 -2.4602 -1.8800
 4719TIP3   OH235715   1.790   1.034   0.305 -0.2270  0.7526  0.0804
 4719TIP3    H135716   1.817   0.951   0.266  0.8943  0.1449  2.0286
 4719TIP3    H235717   1.861   1.095   0.285  0.0345  0.6180  0.5860
 4720TIP3   OH235718   4.733   0.393   2.188 -0.2007 -0.0462  0.0739
 4720TIP3    H135719   4.810   0.340   2.167 -0.5476 -1.6932  2.4980
 4720TIP3    H235720   4.720   0.449   2.111 -0.0125 -3.7081 -2.9219
 4721TIP3   OH235721   6.350   3.299   0.855  0.4963  0.2579 -0.0967
 4721TIP3    H135722   6.435   3.263   0.830  0.3391 -0.3402  0.2194
 4721TIP3    H235723   6.362   3.326   0.946 -0.2846 -1.9408  0.7336
 4722TIP3   OH235724   3.460   0.882   7.284  0.0390  0.5647 -0.3835
 4722TIP3    H135725   3.532   0.821   7.272  0.2894  0.8568 -0.3737
 4722TIP3    H235726   3.502   0.967   7.298 -0.3087  1.0060 -1.7765
 4723TIP3   OH235727   0.904   6.672   1.959  0.5618  0.5189 -0.4617
 4723TIP3    H135728   0.953   6.723   2.024  0.0605 -0.2647  0.5499
 4723TIP3    H235729   0.812   6.689   1.978  0.3771 -0.9380  0.0542
 4724TIP3   OH235730   2.987   6.630   0.885 -0.5696  0.0805  0.0129
 4724TIP3    H135731   2.959   6.604   0.973  0.0607  1.9108  0.7805
 4724TIP3    H235732   3.025   6.717   0.896  0.0428  0.1074 -1.9879
 4725TIP3   OH235733   6.095   4.049   1.803 -0.0688  0.2896 -0.6208
 4725TIP3    H135734   6.099   3.960   1.766 -0.4469  0.4485 -1.0517
 4725TIP3    H235735   6.001   4.064   1.816  0.0895 -0.0188  1.0399
 4726TIP3   OH235736   0.811   5.394   0.017  0.0351  0.1423  0.6935
 4726TIP3    H135737   0.725   5.437   0.013 -0.3531 -0.4926 -3.8891
 4726TIP3    H235738   0.860   5.434  -0.055  1.2520 -3.7183 -0.8589
 4727TIP3   OH235739   1.391   4.269   0.204  0.0224 -0.3112 -0.4341
 4727TIP3    H135740   1.435   4.273   0.289 -1.6278  0.1378  0.4348
 4727TIP3    H235741   1.429   4.342   0.154  0.2814  0.0487  0.2756
 4728TIP3   OH235742   2.012   1.473   0.052 -0.2884  0.6453 -0.0969
 4728TIP3    H135743   2.078   1.417   0.011  0.5457  2.7494 -1.8525
 4728TIP3    H235744   2.052   1.500   0.135 -0.3862 -0.7011  0.4125
 4729TIP3   OH235745   2.147   3.372   8.948 -0.3032 -0.7618 -0.6001
 4729TIP3    H135746   2.216   3.312   8.975  0.9084  0.5943 -0.5848
 4729TIP3    H235747   2.173   3.401   8.861 -0.6734  0.0218 -0.4546
 4730TIP3   OH235748   0.305   4.499   0.809 -1.0336 -0.2550 -0.3163
 4730TIP3    H135749   0.252   4.490   0.730 -0.8630  1.1844 -0.6419
 4730TIP3    H235750   0.333   4.410   0.830 -0.1155 -0.5879 -2.5754
 4731TIP3   OH235751   4.907   5.965   1.610  0.2051 -0.1589 -0.4975
 4731TIP3    H135752   4.985   5.985   1.661  0.8492 -1.6135 -0.8497
 4731TIP3    H235753   4.840   6.024   1.643  1.8799  2.4366 -1.4284
 4732TIP3   OH235754   3.563   0.797   1.738 -0.4045  0.2887  0.0992
 4732TIP3    H135755   3.472   0.787   1.711  0.2471  1.6289 -3.0218
 4732TIP3    H235756   3.571   0.890   1.760  0.3991  0.3705 -0.5004
 4733TIP3   OH235757   6.185   5.544   1.154  0.1720  0.2479  0.7783
 4733TIP3    H135758   6.108   5.594   1.181  0.7319 -0.3789  3.9307
 4733TIP3    H235759   6.253   5.571   1.215  1.9993 -0.5050 -0.8202
 4734TIP3   OH235760   1.586   4.760   0.570  0.0860 -0.2967 -0.3481
 4734TIP3    H135761   1.601   4.675   0.529  1.3145 -0.3360  0.1254
 4734TIP3    H235762   1.572   4.739   0.663  2.5661  0.1067  0.1956
 4735TIP3   OH235763   6.141   4.846   8.776  0.3332  0.4922  0.1168
 4735TIP3    H135764   6.141   4.893   8.692  0.3825 -0.4948 -0.4564
 4735TIP3    H235765   6.212   4.887   8.826  0.2961  1.1021 -0.3174
 4736TIP3   OH235766   5.702   0.223   1.926  0.4487 -0.0942 -0.5222
 4736TIP3    H135767   5.737   0.165   1.859  0.0629  0.0643 -0.8660
 4736TIP3    H235768   5.657   0.165   1.987 -0.2720 -0.1359 -1.0729
 4737TIP3   OH235769   2.283   4.291   2.084 -0.1096  0.2070  0.3876
 4737TIP3    H135770   2.286   4.270   1.991 -1.9586  0.4341  0.2538
 4737TIP3    H235771   2.261   4.383   2.088 -0.3491  0.1301  1.0627
 4738TIP3   OH235772   0.368   2.307   1.386 -0.3282 -0.0370  0.4295
 4738TIP3    H135773   0.441   2.299   1.323 -0.9197 -1.0007 -0.1525
 4738TIP3    H235774   0.336   2.218   1.396 -2.0439  0.4983 -0.0549
 4739TIP3   OH235775   5.113   3.290   1.470  0.1121  0.0630 -0.4118
 4739TIP3    H135776   5.184   3.257   1.524 -0.3900 -0.2056  0.0890
 4739TIP3    H235777   5.040   3.304   1.531 -0.4760 -0.2889 -1.0208
 4740TIP3   OH235778   1.964   1.454   8.445 -0.0023  0.0779  0.1852
 4740TIP3    H135779   1.982   1.502   8.365 -1.5030  1.0191  0.3825
 4740TIP3    H235780   1.974   1.362   8.420  0.0018  0.3706 -0.9588
 4741TIP3   OH235781   5.075   4.138   2.555 -0.2751  0.1117  0.5421
 4741TIP3    H135782   5.136   4.181   2.614 -2.6433  1.7724  1.9235
 4741TIP3    H235783   5.029   4.074   2.609 -0.0005 -0.9237 -0.4013
 4742TIP3   OH235784   2.601   5.377   8.639  0.0603  0.2716 -0.3070
 4742TIP3    H135785   2.532   5.364   8.704  0.8159 -0.1935  0.4232
 4742TIP3    H235786   2.554   5.404   8.560 -0.9649 -0.1033  0.1454
 4743TIP3   OH235787   5.605   5.868   8.897 -0.3613 -0.6054 -0.4762
 4743TIP3    H135788   5.551   5.789   8.897 -1.9768  0.3972  1.1420
 4743TIP3    H235789   5.619   5.887   8.990 -1.0900  1.6448 -0.7526
 4744TIP3   OH235790   1.566   5.608   2.308  0.0408 -0.0834 -0.1972
 4744TIP3    H135791   1.488   5.552   2.304  0.4505 -0.7168  0.4678
 4744TIP3    H235792   1.574   5.632   2.400  0.3709  0.3633 -0.3365
 4745TIP3   OH235793   3.609   6.345   7.665  0.0405  0.3365  0.0585
 4745TIP3    H135794   3.570   6.329   7.580  0.2793  1.8459 -0.3556
 4745TIP3    H235795   3.699   6.314   7.657 -0.1600 -0.2452  0.0228
 4746TIP3   OH235796   2.390   1.734   7.355  0.2388  0.5346  0.1795
 4746TIP3    H135797   2.404   1.659   7.414 -0.8403  0.9101  0.9370
 4746TIP3    H235798   2.350   1.695   7.277  4.2379 -0.4120 -1.6250
 4747TIP3   OH235799   2.023   0.893   8.418  0.0939 -0.3339 -0.5462
 4747TIP3    H135800   2.050   0.874   8.328  0.4686 -0.6073 -0.3809
 4747TIP3    H235801   2.104   0.885   8.469  0.2684  1.6788 -0.4518
 4748TIP3   OH235802   6.332   1.211   1.226 -0.1188  0.2849 -0.2206
 4748TIP3    H135803   6.309   1.127   1.264  0.3876 -0.1455 -0.8568
 4748TIP3    H235804   6.247   1.250   1.202 -0.3708  0.1021  0.3536
 4749TIP3   OH235805   4.805   1.591   2.949  0.4881 -0.8349 -0.0567
 4749TIP3    H135806   4.895   1.620   2.964  1.0445 -1.8674 -1.2322
 4749TIP3    H235807   4.802   1.568   2.856 -1.4267  0.6091 -0.3988
 4750TIP3   OH235808   6.576   3.851   2.206 -0.2044 -0.0577  0.1461
 4750TIP3    H135809   6.485   3.860   2.178  0.7134  2.1671 -2.6536
 4750TIP3    H235810   6.613   3.785   2.147  0.8388  1.8849 -1.5098
 4751TIP3   OH235811   5.841   3.261   0.707 -0.5369  0.1073 -0.2310
 4751TIP3    H135812   5.892   3.341   0.694 -1.0467  0.5620  0.4582
 4751TIP3    H235813   5.834   3.253   0.803 -0.4408 -0.7923 -0.2946
 4752TIP3   OH235814   2.557   1.959   1.461 -0.2132 -0.9482 -0.2474
 4752TIP3    H135815   2.490   1.972   1.527 -0.7797 -3.0686 -0.3495
 4752TIP3    H235816   2.516   1.905   1.394  0.9887 -0.5892 -1.3319
 4753TIP3   OH235817   2.172   3.326   1.244 -0.2138  0.1213 -0.1712
 4753TIP3    H135818   2.143   3.393   1.307  2.6059  1.8543 -0.5487
 4753TIP3    H235819   2.123   3.346   1.164  0.1221  1.3522 -0.0920
 4754TIP3   OH235820   0.860   3.108   8.935  0.5174 -0.4183 -0.2418
 4754TIP3    H135821   0.954   3.129   8.934  0.9202 -2.0460 -1.2198
 4754TIP3    H235822   0.833   3.114   8.843  0.1047 -1.6550 -0.2230
 4755TIP3   OH235823   2.455   2.427   3.262 -0.2189  0.2198 -0.3996
 4755TIP3    H135824   2.543   2.392   3.277  0.7124  2.1221 -1.1121
 4755TIP3    H235825   2.397   2.370   3.313  1.6245  0.1175  1.6934
 4756TIP3   OH235826   1.986   1.666   0.823 -0.3615  0.1351 -0.0441
 4756TIP3    H135827   1.992   1.571   0.832 -2.4256 -0.0913 -0.6022
 4756TIP3    H235828   2.065   1.691   0.776 -0.7168 -1.5668 -1.6358
 4757TIP3   OH235829   5.860   0.891   3.371 -0.3623  0.1369 -0.3830
 4757TIP3    H135830   5.935   0.849   3.412 -0.8660  0.2170  0.6379
 4757TIP3    H235831   5.814   0.934   3.443 -1.0131  0.6624 -1.0987
 4758TIP3   OH235832   1.239   5.877   0.269 -0.5615 -0.3444 -0.2090
 4758TIP3    H135833   1.285   5.897   0.351 -0.5020 -0.4957 -0.2051
 4758TIP3    H235834   1.263   5.948   0.210  0.3743 -0.8747 -0.4847
 4759TIP3   OH235835   6.474   6.399   0.468 -0.4517 -0.4163 -0.5417
 4759TIP3    H135836   6.396   6.415   0.415 -0.3200 -0.1751 -0.6634
 4759TIP3    H235837   6.525   6.335   0.417 -1.2545 -1.7040  0.2161
 4760TIP3   OH235838   4.620   4.683   7.763 -0.1028  0.0457 -0.0857
 4760TIP3    H135839   4.562   4.712   7.693 -1.9169 -2.2843  0.3426
 4760TIP3    H235840   4.659   4.602   7.731 -0.0478 -0.4255  1.1052
 4761TIP3   OH235841   5.793   3.783   8.490  0.4140 -0.2161 -0.2909
 4761TIP3    H135842   5.760   3.693   8.490  0.0540 -0.1122  0.9551
 4761TIP3    H235843   5.828   3.795   8.578  0.3390  0.9011 -0.4009
 4762TIP3   OH235844   4.121   0.233   8.483  0.3187 -0.0479  0.0639
 4762TIP3    H135845   4.037   0.236   8.530 -0.2367  0.5667 -0.9378
 4762TIP3    H235846   4.147   0.325   8.476  0.8537 -0.2065 -0.0256
 4763TIP3   OH235847   5.020   4.883   7.568  0.2243 -0.0318  0.0077
 4763TIP3    H135848   4.976   4.875   7.484 -1.0578 -1.6331  0.7635
 4763TIP3    H235849   5.113   4.891   7.546 -0.0206 -1.0135 -1.5482
 4764TIP3   OH235850   2.408   4.611   3.281 -0.1981 -0.0082 -0.1375
 4764TIP3    H135851   2.440   4.606   3.192 -1.0230 -0.0119 -0.4473
 4764TIP3    H235852   2.369   4.699   3.288 -0.1846 -0.0248  0.2049
 4765TIP3   OH235853   0.695   5.130   2.453  0.3440 -0.2071 -0.4320
 4765TIP3    H135854   0.717   5.222   2.437  2.2643 -0.5456 -0.0148
 4765TIP3    H235855   0.713   5.117   2.546  0.5127 -1.1065 -0.5815
 4766TIP3   OH235856   4.375   5.426   8.181  0.0749  0.4227 -0.1938
 4766TIP3    H135857   4.414   5.355   8.130 -0.4835  0.6379 -0.9334
 4766TIP3    H235858   4.341   5.486   8.116 -0.0104  1.0697  0.4342
 4767TIP3   OH235859   4.438   1.151   7.523  0.1369 -0.4473  0.2069
 4767TIP3    H135860   4.431   1.056   7.530  1.6025 -0.6293 -0.5167
 4767TIP3    H235861   4.347   1.181   7.518 -0.3432 -1.8014  0.3830
 4768TIP3   OH235862   2.022   1.371   7.947  0.1403  0.5898 -0.8575
 4768TIP3    H135863   2.095   1.379   7.886 -1.0685 -0.2886 -2.4801
 4768TIP3    H235864   1.955   1.322   7.899 -0.1911 -1.8288  1.7784
 4769TIP3   OH235865   2.745   0.994   0.246  0.2838 -0.0019 -0.2944
 4769TIP3    H135866   2.691   1.045   0.306 -0.7060 -2.2087  0.7988
 4769TIP3    H235867   2.688   0.980   0.170 -0.6201 -1.9614  0.6779
 4770TIP3   OH235868   3.364   4.076   7.709 -0.3319  0.0277 -0.1440
 4770TIP3    H135869   3.342   3.992   7.750  1.7681  0.4429  2.0576
 4770TIP3    H235870   3.424   4.118   7.771 -0.7814  2.8828 -1.4964
 4771TIP3   OH235871   4.920   0.840   2.316  0.0263 -0.2259  0.2163
 4771TIP3    H135872   5.005   0.882   2.303 -1.5048  2.8581 -0.7231
 4771TIP3    H235873   4.887   0.876   2.398 -0.3865 -1.4240  0.5979
 4772TIP3   OH235874   6.017   0.472   8.030 -0.2707  0.2782 -0.2184
 4772TIP3    H135875   6.078   0.421   7.977 -1.9180 -2.5135  0.3132
 4772TIP3    H235876   6.005   0.554   7.983  2.9755  0.4929 -0.8724
 4773TIP3   OH235877   6.441   3.035   2.229 -0.4947  0.2618  0.4951
 4773TIP3    H135878   6.351   3.040   2.197 -0.1686  1.5923 -0.2889
 4773TIP3    H235879   6.494   3.026   2.150  0.0735 -0.3806  0.9445
 4774TIP3   OH235880   0.528   3.560   8.669 -0.3170  0.0468 -0.4286
 4774TIP3    H135881   0.469   3.584   8.597 -1.8263  1.1002  1.0932
 4774TIP3    H235882   0.471   3.517   8.733  0.8655 -0.2385  0.4676
 4775TIP3   OH235883   4.531   1.923   8.822  0.1360 -0.0022  0.1357
 4775TIP3    H135884   4.436   1.924   8.831  0.1456  0.3831  0.2103
 4775TIP3    H235885   4.553   1.831   8.811 -0.2395 -0.1001  0.1930
 4776TIP3   OH235886   3.490   4.748   0.726  0.0480  0.1228 -0.3464
 4776TIP3    H135887   3.576   4.746   0.683 -0.1084 -0.4786 -0.6468
 4776TIP3    H235888   3.464   4.840   0.723  1.0096  0.4297  0.4113
 4777TIP3   OH235889   2.134   2.664   0.165  0.0746  0.6074 -0.2126
 4777TIP3    H135890   2.059   2.710   0.203  0.2219  1.8587 -1.3839
 4777TIP3    H235891   2.095   2.591   0.116 -0.0755 -1.8014  3.1245
 4778TIP3   OH235892   6.348   3.623   1.928  0.4729  0.2721 -0.4378
 4778TIP3    H135893   6.312   3.585   1.848 -0.2047  2.2118 -1.0900
 4778TIP3    H235894   6.384   3.707   1.902 -0.2983  1.2321  1.3938
 4779TIP3   OH235895   2.278   4.245   1.793 -0.7434 -0.6999  0.0582
 4779TIP3    H135896   2.277   4.149   1.783  0.3308 -0.6879 -0.2970
 4779TIP3    H235897   2.270   4.278   1.704 -1.2474 -0.4435  0.1935
 4780TIP3   OH235898   4.279   6.705   2.480 -0.1769 -0.0907  0.1636
 4780TIP3    H135899   4.348   6.681   2.541  1.3890  0.1548 -1.4451
 4780TIP3    H235900   4.319   6.769   2.421 -1.2266 -1.2085 -1.8955
 4781TIP3   OH235901   1.479   6.375   7.794 -0.2149  0.1924 -0.2791
 4781TIP3    H135902   1.535   6.326   7.734  1.0943  0.9225  0.2899
 4781TIP3    H235903   1.395   6.329   7.793  0.0173 -0.2344 -2.0704
 4782TIP3   OH235904   4.509   1.488   0.291  0.2840  0.3633 -0.6780
 4782TIP3    H135905   4.593   1.445   0.307 -0.2596 -0.6817 -0.5824
 4782TIP3    H235906   4.446   1.439   0.344 -0.2846  1.5626 -0.2074
 4783TIP3   OH235907   0.035   2.161   0.081 -0.1199  0.0428  0.1927
 4783TIP3    H135908  -0.054   2.146   0.112 -0.4912 -0.0304 -0.8900
 4783TIP3    H235909   0.048   2.096   0.012  1.1728 -0.6934  1.0799
 4784TIP3   OH235910   2.005   0.911   8.135  0.2295 -0.2525 -0.1056
 4784TIP3    H135911   1.949   0.972   8.182  0.0003 -0.4154 -0.1632
 4784TIP3    H235912   1.953   0.831   8.128  0.2237 -0.2036 -0.7048
 4785TIP3   OH235913   0.661   5.283   1.616  0.1588  0.1242  0.6279
 4785TIP3    H135914   0.683   5.372   1.644  1.8710 -0.3721  0.9549
 4785TIP3    H235915   0.566   5.278   1.626 -0.0519  2.1146 -0.0153
 4786TIP3   OH235916   5.345   6.246   8.414  0.3114  0.3521  0.3727
 4786TIP3    H135917   5.270   6.240   8.355 -0.1169  0.6948  0.8739
 4786TIP3    H235918   5.327   6.181   8.482  0.1591  0.8511  0.8236
 4787TIP3   OH235919   3.025   5.711   1.346  0.1062  0.6964  0.2045
 4787TIP3    H135920   3.072   5.653   1.285 -0.1203 -2.9282  3.1001
 4787TIP3    H235921   2.940   5.667   1.359 -0.5986  2.3916  1.6402
 4788TIP3   OH235922   0.645   3.317   1.331  0.2843 -0.2032 -0.0251
 4788TIP3    H135923   0.686   3.348   1.251  1.5244 -2.1380 -0.2286
 4788TIP3    H235924   0.688   3.233   1.349 -1.6566 -0.9931  1.3434
 4789TIP3   OH235925   1.726   2.425   1.211 -0.0035  0.0926  0.3230
 4789TIP3    H135926   1.800   2.377   1.173 -0.9142  0.6281 -2.3114
 4789TIP3    H235927   1.753   2.517   1.207 -0.6869  0.2723 -0.4633
 4790TIP3   OH235928   1.620   1.487   8.967 -0.1524  0.1949 -0.5473
 4790TIP3    H135929   1.603   1.516   9.057 -0.0695 -0.2853 -0.3715
 4790TIP3    H235930   1.551   1.529   8.915  1.2412  2.5021 -0.6715
 4791TIP3   OH235931   5.455   1.511   2.599  0.3801 -0.6182  0.1530
 4791TIP3    H135932   5.476   1.427   2.640  0.3608 -1.1728 -0.9477
 4791TIP3    H235933   5.513   1.516   2.524  0.4647  0.4232  0.2680
 4792TIP3   OH235934   2.598   6.685   2.156  0.5534  0.0337 -0.0999
 4792TIP3    H135935   2.541   6.630   2.101 -0.5003  0.1438  0.8446
 4792TIP3    H235936   2.673   6.629   2.175  0.5056 -0.3191 -0.9126
 4793TIP3   OH235937   4.796   0.594   2.453 -0.0925 -0.1876 -0.1920
 4793TIP3    H135938   4.810   0.538   2.376  0.8371  0.1984 -0.3169
 4793TIP3    H235939   4.809   0.683   2.422 -0.0488 -0.0036  0.3312
 4794TIP3   OH235940   5.864   2.490   2.156 -0.1624  0.6011 -0.2185
 4794TIP3    H135941   5.797   2.428   2.183 -0.6919 -0.4634 -3.6373
 4794TIP3    H235942   5.944   2.459   2.199 -0.6294 -1.8414 -1.0228
 4795TIP3   OH235943   3.359   3.361   2.113  0.6492  0.0555  0.1263
 4795TIP3    H135944   3.401   3.421   2.174 -1.5930  0.8082  1.0318
 4795TIP3    H235945   3.345   3.280   2.163  0.2785  0.1061  0.1115
 4796TIP3   OH235946   3.682   5.989   1.422  0.1064  0.5102  0.4100
 4796TIP3    H135947   3.599   5.963   1.461  0.6348 -0.4969  0.9239
 4796TIP3    H235948   3.747   5.970   1.490  0.8823  0.1152 -0.4171
 4797TIP3   OH235949   3.117   2.290   0.921 -0.0237 -0.2420 -0.3867
 4797TIP3    H135950   3.119   2.242   1.003  1.9650  0.5690  0.1153
 4797TIP3    H235951   3.028   2.281   0.889 -0.7213 -0.9542  1.6331
 4798TIP3   OH235952   4.225   2.806   8.450  0.1976  0.0575 -0.0051
 4798TIP3    H135953   4.140   2.803   8.494 -0.7419 -1.5450 -1.7981
 4798TIP3    H235954   4.218   2.880   8.390  1.2146  1.7798  1.8648
 4799TIP3   OH235955   1.138   4.308   0.273  0.5262 -0.7497  1.1082
 4799TIP3    H135956   1.099   4.256   0.202  2.1414 -0.7617  0.1713
 4799TIP3    H235957   1.231   4.284   0.271  1.3975  2.2533  0.5093
 4800TIP3   OH235958   1.689   0.067   1.969 -0.2027  0.1105  0.2860
 4800TIP3    H135959   1.773   0.114   1.975  0.2824 -0.5422 -1.0550
 4800TIP3    H235960   1.675   0.054   1.875 -1.6002 -0.1895  0.5097
 4801TIP3   OH235961   3.112   0.712   2.800 -0.6969 -0.1755  0.3116
 4801TIP3    H135962   3.146   0.635   2.844 -1.4253  0.4021  1.9589
 4801TIP3    H235963   3.183   0.739   2.741  0.7304 -0.4111  1.8457
 4802TIP3   OH235964   5.879   5.774   0.910 -0.1594  0.4211 -0.4001
 4802TIP3    H135965   5.917   5.835   0.974 -1.4124  0.3816  0.4174
 4802TIP3    H235966   5.841   5.705   0.963  0.7470 -0.8109 -1.3032
 4803TIP3   OH235967   2.567   6.617   8.485  0.1062  0.1051  0.4213
 4803TIP3    H135968   2.625   6.678   8.532  2.2109 -1.1463 -0.3853
 4803TIP3    H235969   2.479   6.641   8.513  1.0502  1.5770  2.3897
 4804TIP3   OH235970   4.766   3.706   2.841 -0.8089  0.2953  0.2737
 4804TIP3    H135971   4.732   3.796   2.836  0.9961  1.0102 -0.3610
 4804TIP3    H235972   4.823   3.706   2.918  0.4402  0.2022 -0.6129
 4805TIP3   OH235973   1.667   3.335   7.443 -0.7673 -0.4986 -0.8084
 4805TIP3    H135974   1.758   3.312   7.424 -0.5163 -0.6701  0.5009
 4805TIP3    H235975   1.664   3.430   7.428  0.4274  0.0659  1.8697
 4806TIP3   OH235976   3.166   5.942   8.794  0.3857 -0.2507 -0.0616
 4806TIP3    H135977   3.239   5.890   8.828 -1.2699 -1.7784  1.3692
 4806TIP3    H235978   3.109   5.878   8.751 -0.2233  0.8798 -0.9884
 4807TIP3   OH235979   6.315   1.794   2.156  0.0096 -0.3879  0.3261
 4807TIP3    H135980   6.395   1.847   2.152 -0.5886  0.4534 -1.2723
 4807TIP3    H235981   6.344   1.704   2.142  0.6952 -0.1191  0.0119
 4808TIP3   OH235982   4.463   5.471   0.787  0.3776  0.6314 -0.0909
 4808TIP3    H135983   4.511   5.488   0.868  1.8528  0.0668 -0.7935
 4808TIP3    H235984   4.532   5.456   0.722 -0.6679 -3.4978 -0.5207
 4809TIP3   OH235985   5.277   4.815   2.297  0.4060 -0.5318 -0.1503
 4809TIP3    H135986   5.318   4.844   2.379  2.6464 -1.4012 -0.8861
 4809TIP3    H235987   5.213   4.749   2.325 -0.6999  0.9894  1.0646
 4810TIP3   OH235988   3.829   1.523   0.491 -0.3093 -0.1043 -0.0411
 4810TIP3    H135989   3.826   1.571   0.408  2.6379 -0.2563 -0.3596
 4810TIP3    H235990   3.800   1.434   0.468 -0.4638  0.1113 -0.6919
 4811TIP3   OH235991   0.789   3.765   8.373  0.5583  0.0811 -0.0007
 4811TIP3    H135992   0.844   3.689   8.355  0.9708  0.4360 -0.2601
 4811TIP3    H235993   0.751   3.787   8.288 -1.4019 -1.2320  0.4813
 4812TIP3   OH235994   5.105   4.307   8.577  0.0457 -0.2112 -0.2810
 4812TIP3    H135995   5.117   4.213   8.570 -0.2848 -0.1723 -1.6769
 4812TIP3    H235996   5.182   4.344   8.535  0.2679  0.1575  0.4302
 4813TIP3   OH235997   4.436   4.703   2.685  0.4564 -0.0813 -0.1281
 4813TIP3    H135998   4.434   4.685   2.779 -1.4542 -1.2221 -0.3367
 4813TIP3    H235999   4.409   4.794   2.677 -0.8791 -0.4241  0.3582
 4814TIP3   OH236000   6.370   5.728   8.901 -0.0310  0.4820  0.5152
 4814TIP3    H136001   6.337   5.817   8.897  0.4813  0.7354  1.5232
 4814TIP3    H236002   6.384   5.712   8.994 -0.5772 -0.8248  0.3871
 4815TIP3   OH236003   5.845   2.010   8.890 -0.0065  0.5294 -0.1554
 4815TIP3    H136004   5.861   2.012   8.984 -1.1390 -1.8879  0.1596
 4815TIP3    H236005   5.753   2.035   8.881  0.2847  1.4524 -0.7193
 4816TIP3   OH236006   3.253   4.603   8.933 -0.5022 -0.0343  0.0897
 4816TIP3    H136007   3.229   4.609   8.840  0.9708  0.1886 -0.3078
 4816TIP3    H236008   3.341   4.642   8.937  0.0574 -1.3359  1.3115
 4817TIP3   OH236009   5.830   5.079   2.430  0.5060  0.0473  0.8736
 4817TIP3    H136010   5.919   5.097   2.398  1.0568  0.1567  2.3786
 4817TIP3    H236011   5.775   5.143   2.386  0.8929 -1.0471 -1.3168
 4818TIP3   OH236012   4.079   4.959   8.738  0.4895 -0.0887 -0.4335
 4818TIP3    H136013   4.141   4.925   8.802  1.5160  0.0355 -1.3371
 4818TIP3    H236014   4.106   5.050   8.723 -1.8754  1.0797  1.5316
 4819TIP3   OH236015   1.335   2.284   2.946  0.7046  0.2122  0.6629
 4819TIP3    H136016   1.263   2.341   2.974 -0.3354  0.1942 -1.6594
 4819TIP3    H236017   1.331   2.209   3.006  1.4150  1.9932  3.0856
 4820TIP3   OH236018   3.555   1.168   2.730  0.3084 -0.2783 -0.2259
 4820TIP3    H136019   3.546   1.099   2.664 -0.8781  0.2722 -0.6710
 4820TIP3    H236020   3.470   1.169   2.774  0.9860 -0.4234  1.1198
 4821TIP3   OH236021   1.290   0.684   2.297  0.7426  0.3675  0.2949
 4821TIP3    H136022   1.200   0.653   2.306  1.0934 -0.7460  0.0986
 4821TIP3    H236023   1.284   0.759   2.238 -0.1283  0.6933  0.7818
 4822TIP3   OH236024   6.132   4.206   0.230  0.7891 -0.5037 -0.2391
 4822TIP3    H136025   6.174   4.280   0.187 -1.5061  0.4295 -1.0209
 4822TIP3    H236026   6.159   4.212   0.321 -0.2201  2.0529 -0.0222
 4823TIP3   OH236027   2.453   1.994   3.514  0.3584 -0.3209 -0.0565
 4823TIP3    H136028   2.446   2.089   3.528  2.2029 -0.4245  1.9991
 4823TIP3    H236029   2.485   1.986   3.424 -0.5615  0.9415 -0.5267
 4824TIP3   OH236030   3.903   3.425   8.445 -0.7322  0.2167  0.1452
 4824TIP3    H136031   3.810   3.404   8.456 -0.8787 -0.2351 -1.5387
 4824TIP3    H236032   3.925   3.389   8.359  1.3647 -0.9393  1.0741
 4825TIP3   OH236033   4.548   3.492   2.240  0.1770  0.0077  0.3212
 4825TIP3    H136034   4.549   3.485   2.335  0.4689 -0.6495  0.2748
 4825TIP3    H236035   4.618   3.554   2.220  0.6973 -0.5164  0.4909
 4826TIP3   OH236036   4.188   6.231   8.950 -0.1537 -0.0314 -0.9881
 4826TIP3    H136037   4.147   6.310   8.983 -2.2535 -0.4574 -2.3776
 4826TIP3    H236038   4.280   6.237   8.978 -0.0140  3.3165 -1.8404
 4827TIP3   OH236039   2.458   1.728   0.389 -0.1908  0.1862 -0.3990
 4827TIP3    H136040   2.514   1.780   0.333 -1.7767  2.8521  0.2919
 4827TIP3    H236041   2.479   1.757   0.478  0.0320 -1.6168  0.1773
 4828TIP3   OH236042   2.606   3.778   2.425 -0.0156  0.0768 -0.2799
 4828TIP3    H136043   2.550   3.805   2.352  0.7308  0.6191 -0.6548
 4828TIP3    H236044   2.693   3.770   2.388  0.4668  0.8105  0.6486
 4829TIP3   OH236045   0.070   0.806   0.815 -0.0800 -0.5757  0.3408
 4829TIP3    H136046   0.131   0.826   0.744  2.8750 -3.0277  1.9687
 4829TIP3    H236047   0.010   0.742   0.777  1.7683 -2.2344  0.0300
 4830TIP3   OH236048   3.719   6.638   7.183 -0.0778 -0.0112  0.0773
 4830TIP3    H136049   3.705   6.543   7.188  1.1231 -0.1790  0.8666
 4830TIP3    H236050   3.735   6.655   7.090  3.5825 -1.2639  0.3243
 4831TIP3   OH236051   5.158   2.984   1.209 -0.6073 -0.6591  0.2777
 4831TIP3    H136052   5.079   2.974   1.262  0.4304 -0.0739  2.0126
 4831TIP3    H236053   5.197   2.897   1.208 -0.4582 -0.6004  0.7728
 4832TIP3   OH236054   0.912   6.404   8.202 -0.0167 -0.1345  0.4592
 4832TIP3    H136055   0.869   6.318   8.200  1.7767 -1.2469  3.7202
 4832TIP3    H236056   1.001   6.387   8.171 -0.2493  1.0826 -1.0260
 4833TIP3   OH236057   3.728   2.603   1.301 -0.2937  0.2590  0.2142
 4833TIP3    H136058   3.658   2.592   1.237 -0.5689  1.4227  0.2940
 4833TIP3    H236059   3.687   2.579   1.385 -0.4164  0.3191  0.1725
 4834TIP3   OH236060   4.373   2.971   0.634 -0.1527 -0.6713  0.3616
 4834TIP3    H136061   4.379   3.066   0.625 -0.3532 -0.8075 -1.7518
 4834TIP3    H236062   4.279   2.952   0.629  0.0071 -1.1998 -3.3152
 4835TIP3   OH236063   2.136   5.083   1.453 -0.2073 -0.3424 -0.2132
 4835TIP3    H136064   2.045   5.102   1.429 -0.1976  0.0233  0.0269
 4835TIP3    H236065   2.131   5.003   1.504 -0.8295  1.3850  2.6541
 4836TIP3   OH236066   0.749   4.824   0.916  0.4728  0.1599  0.3086
 4836TIP3    H136067   0.735   4.919   0.911 -0.1660  0.0301 -0.7566
 4836TIP3    H236068   0.829   4.809   0.866 -0.1319  0.0203 -0.6610
 4837TIP3   OH236069   3.742   1.031   2.090 -0.2231  0.1434 -0.3519
 4837TIP3    H136070   3.672   1.067   2.145  1.0248 -1.1383  2.2502
 4837TIP3    H236071   3.776   0.957   2.140  1.8451 -0.3651 -2.3446
 4838TIP3   OH236072   4.471   0.620   7.850  0.3871 -0.1305  0.3052
 4838TIP3    H136073   4.545   0.679   7.839 -0.0570  0.5958  1.0519
 4838TIP3    H236074   4.494   0.542   7.800  1.0887  0.5889 -0.5171
 4839TIP3   OH236075   4.678   1.384   0.810 -0.1822 -0.0868 -0.2074
 4839TIP3    H136076   4.747   1.353   0.751  1.7585 -0.9961  2.3635
 4839TIP3    H236077   4.712   1.466   0.846  1.2291 -2.0380  3.4403
 4840TIP3   OH236078   1.871   5.414   0.315  0.0734 -0.2469 -0.0528
 4840TIP3    H136079   1.811   5.439   0.386  0.1117 -0.3864  0.0299
 4840TIP3    H236080   1.955   5.402   0.359 -0.3785 -2.5724  0.2815
 4841TIP3   OH236081   3.855   5.027   0.040 -0.2200  0.5714 -0.0461
 4841TIP3    H136082   3.874   5.116   0.012 -1.6669  0.4323 -1.6324
 4841TIP3    H236083   3.767   5.010   0.008  0.8744 -2.2703 -1.9098
 4842TIP3   OH236084   0.084   4.661   0.173  0.0110 -0.5999 -0.1689
 4842TIP3    H136085   0.174   4.691   0.190  0.1553 -1.5593  0.8784
 4842TIP3    H236086   0.087   4.630   0.083  0.3012  0.8401 -0.6936
 4843TIP3   OH236087   3.899   5.261   8.936  0.2007  0.1984  0.0050
 4843TIP3    H136088   3.981   5.304   8.910  0.9963 -1.2470  0.0511
 4843TIP3    H236089   3.832   5.308   8.887  1.1000  1.1122 -0.3988
 4844TIP3   OH236090   4.610   5.033   1.461 -0.3534  0.2272 -0.2145
 4844TIP3    H136091   4.570   4.984   1.390  0.9251  0.5273 -1.1836
 4844TIP3    H236092   4.557   5.012   1.538 -1.3369 -0.6639 -1.1063
 4845TIP3   OH236093   2.939   4.529   2.693 -0.1146  0.9146 -0.2128
 4845TIP3    H136094   2.960   4.436   2.686  0.4977  1.1330 -1.6869
 4845TIP3    H236095   2.884   4.547   2.617 -0.9971  1.5831  0.5567
 4846TIP3   OH236096   3.909   2.847   0.534  1.0999  0.0277 -0.1266
 4846TIP3    H136097   3.891   2.941   0.536  2.5163  0.3138  0.8615
 4846TIP3    H236098   3.866   2.816   0.455  1.5836  1.7389 -1.1151
 4847TIP3   OH236099   4.892   3.946   0.099 -0.5026  0.4218  0.1995
 4847TIP3    H136100   4.900   4.020   0.159 -0.3853  1.0801 -0.6136
 4847TIP3    H236101   4.815   3.966   0.046 -1.1061 -0.5664  0.6748
 4848TIP3   OH236102   2.066   4.471   2.024  0.3511 -0.5942  0.6541
 4848TIP3    H136103   2.087   4.507   1.938 -1.2914 -0.2689  0.3540
 4848TIP3    H236104   1.977   4.502   2.042  0.6336 -0.7157  2.4448
 4849TIP3   OH236105   4.471   4.498   2.534 -0.1997 -0.3201 -0.0855
 4849TIP3    H136106   4.380   4.476   2.514 -0.5637  1.3821 -0.3978
 4849TIP3    H236107   4.467   4.582   2.579  1.1627 -0.7137  0.8376
 4850TIP3   OH236108   0.629   2.563   8.171 -0.2665 -0.0089 -0.3715
 4850TIP3    H136109   0.599   2.475   8.151  0.6229 -0.5554  0.6096
 4850TIP3    H236110   0.695   2.582   8.105 -1.3681  0.4475 -1.3681
 4851TIP3   OH236111   2.134   6.235   8.985  0.0039  0.5132 -0.1612
 4851TIP3    H136112   2.164   6.147   8.960 -0.1750  0.5596 -0.5384
 4851TIP3    H236113   2.152   6.289   8.908  0.8523  0.9805  0.3450
 4852TIP3   OH236114   3.379   0.441   2.237  0.1129  0.0309 -0.4275
 4852TIP3    H136115   3.405   0.514   2.293 -1.3396  1.0306 -1.0025
 4852TIP3    H236116   3.461   0.410   2.197  0.7249  1.4813 -0.3353
 4853TIP3   OH236117   3.768   6.713   0.507 -0.8982  0.6128 -0.7217
 4853TIP3    H136118   3.766   6.806   0.489 -0.8684  0.8421  0.3643
 4853TIP3    H236119   3.676   6.688   0.518 -0.8497  0.7340 -0.0044
 4854TIP3   OH236120   5.417   3.647   8.995  0.3482 -0.3032  0.3487
 4854TIP3    H136121   5.438   3.722   8.941 -1.3659  1.3039  1.7641
 4854TIP3    H236122   5.360   3.593   8.940 -0.0718  0.4807 -0.0002
 4855TIP3   OH236123   0.951   1.408   0.502  0.4633 -0.7983 -0.2777
 4855TIP3    H136124   0.887   1.362   0.555 -0.9346  1.3866  0.0716
 4855TIP3    H236125   1.022   1.345   0.490 -1.3755 -3.0524 -0.0359
 4856TIP3   OH236126   5.456   2.560   2.244 -0.2082  0.2616  0.0764
 4856TIP3    H136127   5.432   2.467   2.240  1.2727 -0.1419  0.2112
 4856TIP3    H236128   5.410   2.593   2.321 -0.1331 -0.5478  0.4785
 4857TIP3   OH236129   0.286   4.631   1.589  0.2318  0.1379  0.2101
 4857TIP3    H136130   0.312   4.630   1.681 -1.2010  2.9595  0.7496
 4857TIP3    H236131   0.338   4.701   1.550 -0.3490  0.0483 -0.7480
 4858TIP3   OH236132   3.951   2.473   7.998 -0.5818 -0.3837  0.0602
 4858TIP3    H136133   3.923   2.520   7.920 -0.4729 -0.4927 -0.0458
 4858TIP3    H236134   3.929   2.381   7.979  1.7409 -0.8185 -0.9248
 4859TIP3   OH236135   3.760   0.145   7.323  0.2500 -0.2969  0.3380
 4859TIP3    H136136   3.737   0.063   7.282 -1.7668 -0.4300  1.6179
 4859TIP3    H236137   3.817   0.120   7.397 -1.0776 -0.6777  1.2657
 4860TIP3   OH236138   6.212   3.648   8.514 -0.5924 -0.3046  0.0748
 4860TIP3    H136139   6.216   3.555   8.493  2.7014 -0.5982  1.3221
 4860TIP3    H236140   6.127   3.660   8.556 -0.9611 -2.8204  0.1871
 4861TIP3   OH236141   6.011   1.489   0.553 -0.5920  0.1116  0.5361
 4861TIP3    H136142   5.945   1.459   0.615 -1.0297  2.2431  1.1743
 4861TIP3    H236143   6.094   1.461   0.591 -1.0104 -1.2616  0.4970
 4862TIP3   OH236144   5.015   3.364   1.729 -0.6707  0.3223  0.1084
 4862TIP3    H136145   4.945   3.402   1.675 -1.4958 -0.2980  0.7282
 4862TIP3    H236146   5.076   3.437   1.744 -0.0499  0.3629 -2.2064
 4863TIP3   OH236147   1.780   0.105   7.282 -0.1337 -0.0549 -0.0483
 4863TIP3    H136148   1.717   0.098   7.211 -1.3895 -0.1219  1.0357
 4863TIP3    H236149   1.740   0.165   7.344  0.7544 -0.3048  0.7976
 4864TIP3   OH236150   3.704   6.115   0.007 -0.1696  0.2964 -0.2092
 4864TIP3    H136151   3.612   6.108   0.031 -0.2764 -1.2525 -0.9807
 4864TIP3    H236152   3.704   6.161  -0.077 -0.0824  1.9125  0.6354
 4865TIP3   OH236153   6.153   2.953   0.883  0.5573  0.3277  0.7893
 4865TIP3    H136154   6.174   2.861   0.899  0.0061  0.1422  0.4985
 4865TIP3    H236155   6.136   2.989   0.970  2.7571  0.6799  1.1147
 4866TIP3   OH236156   5.424   2.187   2.376 -0.0197  0.0562 -0.0773
 4866TIP3    H136157   5.501   2.130   2.386 -0.1724  0.1915  2.9026
 4866TIP3    H236158   5.350   2.127   2.381 -0.1291  0.1876 -0.1429
 4867TIP3   OH236159   4.724   3.552   1.955 -0.5443 -0.1196  0.4287
 4867TIP3    H136160   4.692   3.606   2.028 -0.9865 -0.5623  0.5680
 4867TIP3    H236161   4.815   3.532   1.977  0.6933  3.0932 -1.0594
 4868TIP3   OH236162   3.399   3.088   0.338  0.1988 -0.2565 -0.6089
 4868TIP3    H136163   3.387   3.082   0.433 -1.0799  1.0952 -0.6611
 4868TIP3    H236164   3.459   3.162   0.326 -1.9060  1.5107 -0.9223
 4869TIP3   OH236165   0.758   3.664   7.557  0.2407  0.2504 -0.4882
 4869TIP3    H136166   0.853   3.653   7.546  0.1027 -1.4547 -0.1935
 4869TIP3    H236167   0.738   3.744   7.508  2.1190  1.7976  1.0445
 4870TIP3   OH236168   1.613   6.272   2.049 -0.0014  0.0750 -0.4960
 4870TIP3    H136169   1.577   6.184   2.041  1.7209 -0.7951  0.7041
 4870TIP3    H236170   1.547   6.320   2.100  0.1214 -1.2591  0.9965
 4871TIP3   OH236171   2.503   5.886   8.106 -0.5489 -0.1825  0.3480
 4871TIP3    H136172   2.537   5.818   8.164 -0.2028 -0.9931 -0.7691
 4871TIP3    H236173   2.532   5.860   8.019 -1.0612  1.0027 -0.2051
 4872TIP3   OH236174   5.505   4.523   3.124  0.6950 -0.0414  0.4762
 4872TIP3    H136175   5.489   4.557   3.212 -2.0163 -4.0760  1.8351
 4872TIP3    H236176   5.423   4.540   3.077  0.4981 -1.6163  0.2006
 4873TIP3   OH236177   4.975   3.496   2.090  0.0069 -0.1597 -0.2203
 4873TIP3    H136178   4.997   3.405   2.070 -0.0319 -0.3206  0.4229
 4873TIP3    H236179   5.050   3.547   2.059 -0.5243 -0.2590 -1.7590
 4874TIP3   OH236180   1.416   5.582   7.729  0.2482  0.2246  0.0151
 4874TIP3    H136181   1.378   5.618   7.809 -1.8802 -2.2689  0.2903
 4874TIP3    H236182   1.349   5.521   7.697  1.8895 -0.3739 -2.5653
 4875TIP3   OH236183   4.200   4.519   0.421 -0.6177 -0.3131  0.1050
 4875TIP3    H136184   4.126   4.579   0.413 -2.2055 -2.2692 -0.7705
 4875TIP3    H236185   4.271   4.562   0.373 -0.5630  2.3740  2.3068
 4876TIP3   OH236186   1.689   1.809   0.097 -0.2615  0.1160  0.5372
 4876TIP3    H136187   1.766   1.854   0.061 -0.7711  1.3121  0.8880
 4876TIP3    H236188   1.615   1.860   0.065 -0.8106  0.0481  1.6655
 4877TIP3   OH236189   2.846   0.698   8.044 -0.4620 -0.6512  0.1336
 4877TIP3    H136190   2.936   0.666   8.049 -0.6381 -1.5552 -1.7881
 4877TIP3    H236191   2.792   0.619   8.055 -1.0146 -0.2592  0.2904
 4878TIP3   OH236192   5.641   1.644   0.043  0.0841  0.2814 -0.0198
 4878TIP3    H136193   5.729   1.661   0.076 -0.2906  2.8575 -0.0851
 4878TIP3    H236194   5.585   1.645   0.121 -0.4202  3.5028 -0.2621
 4879TIP3   OH236195   2.472   4.358   8.327  0.3333 -0.0907  0.3900
 4879TIP3    H136196   2.407   4.321   8.267  0.8111 -0.3230  0.0093
 4879TIP3    H236197   2.557   4.331   8.291  0.6600  0.6066  0.6186
 4880TIP3   OH236198   0.404   5.898   1.580 -0.0641  0.4854 -0.2121
 4880TIP3    H136199   0.334   5.881   1.517 -0.9178 -0.4087  0.9112
 4880TIP3    H236200   0.358   5.932   1.657  0.9372  1.4832 -0.0267
 4881TIP3   OH236201   4.962   4.631   8.480 -0.6005  0.4496 -0.1729
 4881TIP3    H136202   5.013   4.579   8.417 -0.0846  2.6400 -1.6746
 4881TIP3    H236203   4.907   4.566   8.525  0.2738 -1.4327 -1.6375
 4882TIP3   OH236204   0.192   5.543   1.808  0.4004 -0.1371  1.1244
 4882TIP3    H136205   0.287   5.537   1.807  0.4111  0.0464  0.7960
 4882TIP3    H236206   0.173   5.608   1.875  0.5524  0.4616  0.6042
 4883TIP3   OH236207   5.686   4.450   2.051  0.0760 -0.3475  0.2797
 4883TIP3    H136208   5.710   4.536   2.016  2.5010 -1.2447 -0.3986
 4883TIP3    H236209   5.627   4.470   2.125 -1.0420  1.7698 -1.0835
 4884TIP3   OH236210   5.150   5.492   3.698 -0.1671  0.2503  0.8180
 4884TIP3    H136211   5.163   5.542   3.778  1.6708  2.3532 -0.6639
 4884TIP3    H236212   5.106   5.553   3.638 -2.3356 -1.5445  0.4160
 4885TIP3   OH236213   1.346   3.776   1.393 -0.1154 -0.2762  0.2359
 4885TIP3    H136214   1.294   3.706   1.434  0.7552  0.2343  2.3151
 4885TIP3    H236215   1.379   3.737   1.313  0.4153 -2.3251  1.3766
 4886TIP3   OH236216   2.216   6.100   0.841 -0.1822  0.5280  0.0540
 4886TIP3    H136217   2.131   6.070   0.873 -0.1452 -0.8611 -1.0293
 4886TIP3    H236218   2.222   6.064   0.752  2.1421 -0.6450  0.6005
 4887TIP3   OH236219   3.133   1.191   0.823  0.0002  0.0646  0.5074
 4887TIP3    H136220   3.100   1.106   0.794 -1.0879  1.3557 -2.4407
 4887TIP3    H236221   3.055   1.247   0.824  1.1208  1.7392 -0.6703
 4888TIP3   OH236222   3.336   1.261   2.895  0.3990 -0.6792 -0.1007
 4888TIP3    H136223   3.297   1.289   2.978  0.4549 -0.4961 -0.1379
 4888TIP3    H236224   3.330   1.165   2.898 -0.2693 -0.6470 -0.2113
 4889TIP3   OH236225   3.296   2.845   3.230  0.2201  0.1255  0.1787
 4889TIP3    H136226   3.217   2.804   3.197 -0.7958  0.9984  1.4203
 4889TIP3    H236227   3.339   2.881   3.153  0.0840 -1.4519 -0.6688
 4890TIP3   OH236228   1.963   0.610   1.682 -0.5773  0.3983 -0.5241
 4890TIP3    H136229   2.015   0.664   1.622  1.6596  0.8534  1.6417
 4890TIP3    H236230   1.894   0.669   1.713  0.7469  1.5215  0.4297
 4891TIP3   OH236231   3.554   4.313   8.452  0.6865 -0.1212  0.2103
 4891TIP3    H136232   3.520   4.296   8.365  0.8467  1.7161 -0.2635
 4891TIP3    H236233   3.649   4.303   8.444  0.8165  1.1644 -0.1613
 4892TIP3   OH236234   4.253   0.158   7.838 -0.6202  0.4221  0.1929
 4892TIP3    H136235   4.245   0.124   7.749 -0.4868  0.6574  0.0901
 4892TIP3    H236236   4.163   0.162   7.871 -0.8809  2.1960 -0.6318
 4893TIP3   OH236237   1.438   4.691   8.242  0.0836 -0.0992 -0.0083
 4893TIP3    H136238   1.431   4.763   8.179  0.0073 -0.1529 -0.0617
 4893TIP3    H236239   1.498   4.723   8.308  1.6420 -0.7378 -1.0624
 4894TIP3   OH236240   1.397   1.957   8.714  0.3367 -0.5603  0.0976
 4894TIP3    H136241   1.334   2.027   8.700 -0.2511 -1.0629  0.1886
 4894TIP3    H236242   1.459   1.965   8.641 -1.0369 -1.3564 -1.2190
 4895TIP3   OH236243   2.478   4.043   1.561 -0.0236 -0.1666  0.7963
 4895TIP3    H136244   2.516   4.119   1.605 -0.7051  0.5807  0.1247
 4895TIP3    H236245   2.553   3.999   1.519  0.1831  1.0542 -0.1744
 4896TIP3   OH236246   1.373   3.250   1.184 -0.4125  0.3419  0.2119
 4896TIP3    H136247   1.303   3.203   1.227  0.0964  0.0029  0.6778
 4896TIP3    H236248   1.366   3.225   1.092 -0.7786  0.1572  0.2910
 4897TIP3   OH236249   3.377   2.991   1.003 -0.1831  0.0849  0.2152
 4897TIP3    H136250   3.354   2.900   0.984 -0.4405  0.3069 -0.5900
 4897TIP3    H236251   3.323   3.042   0.942  0.4015  0.7427  0.2378
 4898TIP3   OH236252   1.742   6.169   8.353 -0.0104  0.0564  0.1137
 4898TIP3    H136253   1.677   6.124   8.300  0.4312  0.0526 -0.4424
 4898TIP3    H236254   1.798   6.213   8.289  0.4311  0.1971  0.5891
 4899TIP3   OH236255   1.188   1.861   3.589 -0.7004  0.1620  0.3435
 4899TIP3    H136256   1.197   1.819   3.675  0.9850  1.0072  0.6368
 4899TIP3    H236257   1.260   1.825   3.537 -0.8300  0.7220 -0.2423
 4900TIP3   OH236258   3.148   5.861   3.040  0.3162  0.3792 -0.0502
 4900TIP3    H136259   3.150   5.927   3.110  0.8277 -1.0963  1.3747
 4900TIP3    H236260   3.222   5.804   3.059 -0.7933 -1.2891 -0.5729
 4901TIP3   OH236261   0.099   6.399   2.355 -0.5487  0.2019  0.1779
 4901TIP3    H136262   0.151   6.338   2.407 -2.4391 -0.8123  0.9708
 4901TIP3    H236263   0.102   6.481   2.403 -0.5837 -0.1532  0.7910
 4902TIP3   OH236264   5.416   6.450   1.348 -0.5535  0.0539  0.3977
 4902TIP3    H136265   5.388   6.481   1.262 -0.4307 -0.2881  0.2335
 4902TIP3    H236266   5.361   6.499   1.410 -0.3158  0.6507  0.1503
 4903TIP3   OH236267   3.997   1.751   2.630  0.5765  0.2866 -0.3446
 4903TIP3    H136268   3.980   1.694   2.704  0.9108  0.5627 -0.0547
 4903TIP3    H236269   4.055   1.701   2.573  2.2374  0.9470  0.7039
 4904TIP3   OH236270   0.312   0.353   7.635 -0.1310  0.7321  0.7485
 4904TIP3    H136271   0.255   0.277   7.624  0.7952  0.0470  0.5598
 4904TIP3    H236272   0.255   0.421   7.671 -1.3340  0.4309 -0.4950
 4905TIP3   OH236273   3.737   5.539   0.767 -0.4499 -0.5370  0.4593
 4905TIP3    H136274   3.673   5.537   0.695  0.5225 -1.1420 -0.4040
 4905TIP3    H236275   3.744   5.448   0.795 -1.2749 -0.2349  1.7725
 4906TIP3   OH236276   4.981   4.116   0.612  0.2169 -0.0462  0.2285
 4906TIP3    H136277   4.962   4.203   0.578 -2.2996  0.2338  2.0655
 4906TIP3    H236278   4.931   4.057   0.556 -0.2871 -0.0184  0.6406
 4907TIP3   OH236279   3.269   3.454   8.303  0.4062 -0.0574 -0.1460
 4907TIP3    H136280   3.212   3.417   8.370 -1.7979  0.3874 -1.6666
 4907TIP3    H236281   3.247   3.407   8.223  0.9353  1.3116 -1.1400
 4908TIP3   OH236282   1.959   3.015   7.660 -0.7414  0.5077 -0.7702
 4908TIP3    H136283   1.885   3.076   7.659 -0.7646  0.4759 -0.9895
 4908TIP3    H236284   1.994   3.022   7.749 -1.0265  0.5013 -0.6560
 4909TIP3   OH236285   0.264   2.691   8.565 -0.2525 -0.1027 -0.5219
 4909TIP3    H136286   0.227   2.603   8.574  1.2092 -0.6494  0.5502
 4909TIP3    H236287   0.358   2.677   8.554  0.0964  1.3318  0.2695
 4910TIP3   OH236288   4.698   4.822   1.807  0.3456 -0.5105 -0.7205
 4910TIP3    H136289   4.661   4.746   1.762 -1.2525  0.1292 -0.5576
 4910TIP3    H236290   4.748   4.785   1.880 -2.8083 -1.4190  1.1610
 4911TIP3   OH236291   3.642   4.202   1.580 -0.4499 -0.5438 -0.0276
 4911TIP3    H136292   3.726   4.181   1.538 -0.6224  0.3758 -0.8821
 4911TIP3    H236293   3.656   4.182   1.673  0.5627 -0.8386 -0.2288
 4912TIP3   OH236294   2.253   3.672   2.952  0.1432 -0.5455 -0.1959
 4912TIP3    H136295   2.286   3.654   3.039  2.9568 -0.2759 -1.0859
 4912TIP3    H236296   2.296   3.755   2.927  1.0847 -1.6370 -2.5398
 4913TIP3   OH236297   5.259   0.938   8.893  0.1045  0.0921 -0.7346
 4913TIP3    H136298   5.246   0.946   8.799 -3.7968  0.0128 -0.3990
 4913TIP3    H236299   5.298   1.022   8.920 -0.3973  0.8351 -2.2358
 4914TIP3   OH236300   3.306   0.567   0.338 -0.2027 -0.1350  0.2301
 4914TIP3    H136301   3.215   0.548   0.360 -0.5467  2.6382  1.7370
 4914TIP3    H236302   3.357   0.524   0.406 -0.3192 -1.8842 -0.7456
 4915TIP3   OH236303   2.813   6.216   2.443 -0.5036 -0.4827 -0.2437
 4915TIP3    H136304   2.820   6.305   2.478  0.1485  0.3350 -2.2905
 4915TIP3    H236305   2.838   6.160   2.517  0.2969  1.0935  0.7592
 4916TIP3   OH236306   5.209   5.933   3.799  0.0386  0.1409  0.4402
 4916TIP3    H136307   5.205   5.872   3.726 -1.9308  0.6920  0.0402
 4916TIP3    H236308   5.255   6.010   3.764 -1.9749  0.9081 -0.6560
 4917TIP3   OH236309   4.494   4.187   2.661  0.2349  0.5403 -0.5693
 4917TIP3    H136310   4.441   4.175   2.740 -0.8775  0.3204 -1.3202
 4917TIP3    H236311   4.503   4.282   2.654  1.6716  0.5379  0.6404
 4918TIP3   OH236312   0.320   1.099   1.150 -0.0174 -0.6202 -0.0768
 4918TIP3    H136313   0.357   1.011   1.151 -0.8485 -0.9677  0.5412
 4918TIP3    H236314   0.301   1.118   1.242  0.9494  0.5488 -0.0911
 4919TIP3   OH236315   1.686   0.271   0.021  0.1228  0.1584 -0.2614
 4919TIP3    H136316   1.762   0.257   0.078  0.6330 -3.3096 -1.5944
 4919TIP3    H236317   1.611   0.253   0.077  0.3943  0.6902  0.2921
 4920TIP3   OH236318   6.394   4.206   0.408 -0.1027  0.3473  0.4660
 4920TIP3    H136319   6.441   4.288   0.423  0.2960 -0.2774  3.2529
 4920TIP3    H236320   6.428   4.173   0.324  1.0634  2.1198  0.2015
 4921TIP3   OH236321   5.097   4.241   2.831 -0.3764  0.7335 -0.7280
 4921TIP3    H136322   5.023   4.184   2.852  1.1779 -0.7380  1.0752
 4921TIP3    H236323   5.097   4.306   2.901 -0.0135  0.7882 -0.7773
 4922TIP3   OH236324   1.726   2.450   2.901 -0.2539  0.3244  0.1498
 4922TIP3    H136325   1.769   2.522   2.853 -1.2413 -0.1673 -1.5620
 4922TIP3    H236326   1.675   2.405   2.835 -1.0458 -0.9177  1.5565
 4923TIP3   OH236327   2.448   6.454   8.260 -0.0321 -0.0908 -0.4607
 4923TIP3    H136328   2.465   6.465   8.353  2.0017 -0.7058 -0.7223
 4923TIP3    H236329   2.356   6.425   8.256 -0.4025  0.7207  1.2657
 4924TIP3   OH236330   3.589   4.941   1.352  0.0221 -0.7380 -0.0982
 4924TIP3    H136331   3.648   4.868   1.332  1.1834  0.0250  0.3843
 4924TIP3    H236332   3.501   4.906   1.340  0.4043 -3.0363  2.6745
 4925TIP3   OH236333   3.096   6.696   2.040 -0.1920  0.0565 -0.1392
 4925TIP3    H136334   3.171   6.654   2.080 -0.4947  0.5710  0.9970
 4925TIP3    H236335   3.022   6.640   2.062 -0.1295 -0.5966 -1.4819
 4926TIP3   OH236336   6.531   3.995   2.474 -0.4276 -0.2893  0.4624
 4926TIP3    H136337   6.538   3.968   2.383 -1.5519  0.7195  0.0614
 4926TIP3    H236338   6.496   3.918   2.519  0.5529 -0.9448  0.1562
 4927TIP3   OH236339   5.230   3.874   8.248  0.3568  0.0980 -0.1973
 4927TIP3    H136340   5.217   3.899   8.156 -1.1469  0.8011  0.1749
 4927TIP3    H236341   5.324   3.884   8.262  0.9062 -1.6062 -2.0900
 4928TIP3   OH236342   0.361   3.049   8.978 -0.1421  0.5077 -0.2667
 4928TIP3    H136343   0.272   3.040   9.013  0.4628 -1.2906  0.9696
 4928TIP3    H236344   0.348   3.083   8.889 -2.3039 -1.9545 -1.0502
 4929TIP3   OH236345   4.526   0.578   2.633  0.1076 -0.5152  0.3701
 4929TIP3    H136346   4.485   0.663   2.648  0.4051 -0.1489 -0.7519
 4929TIP3    H236347   4.550   0.579   2.540  0.7886 -1.5314  0.5126
 4930TIP3   OH236348   2.609   4.539   1.555  0.2810  0.4789 -0.2050
 4930TIP3    H136349   2.578   4.629   1.555  0.1064  0.4399 -1.5562
 4930TIP3    H236350   2.604   4.512   1.646 -2.0996  1.0170 -0.1020
 4931TIP3   OH236351   6.589   3.880   0.612 -0.1349  0.3189  0.1650
 4931TIP3    H136352   6.674   3.840   0.592 -0.0975  0.2975  0.3694
 4931TIP3    H236353   6.537   3.866   0.533 -0.3730 -0.8060  0.5104
 4932TIP3   OH236354   5.133   2.949   8.163  0.2513  0.2043 -0.3818
 4932TIP3    H136355   5.063   2.936   8.099 -1.8814 -1.2247  2.0781
 4932TIP3    H236356   5.132   2.870   8.217  3.1636  0.5719  0.3707
 4933TIP3   OH236357   0.453   3.722   7.607 -0.0897 -0.7839  0.7092
 4933TIP3    H136358   0.507   3.786   7.655 -0.3260  0.9309 -1.1954
 4933TIP3    H236359   0.368   3.726   7.651 -0.0699  0.1324  0.6782
 4934TIP3   OH236360   2.707   5.683   8.203 -0.1175  0.3550 -0.1891
 4934TIP3    H136361   2.672   5.619   8.141  0.7193 -0.4620  0.1546
 4934TIP3    H236362   2.721   5.633   8.284 -2.9770  1.7671  1.3492
 4935TIP3   OH236363   1.107   4.771   8.316  0.5575 -0.3723  0.2268
 4935TIP3    H136364   1.197   4.742   8.332 -0.1240 -2.2382  0.9827
 4935TIP3    H236365   1.085   4.825   8.392  0.2327 -2.0198  1.3578
 4936TIP3   OH236366   1.580   1.025   1.307 -0.0797 -0.3395 -0.0271
 4936TIP3    H136367   1.498   0.989   1.273  0.8650 -1.6795 -0.9721
 4936TIP3    H236368   1.635   1.038   1.230  0.2256  1.6720  0.4572
 4937TIP3   OH236369   4.511   0.161   8.638  0.1738  0.1485 -0.2210
 4937TIP3    H136370   4.589   0.142   8.586 -0.4914  0.1212 -1.2453
 4937TIP3    H236371   4.534   0.238   8.689  1.3807 -0.7449  0.6343
 4938TIP3   OH236372   2.248   4.758   8.081 -0.3950  0.1205  0.0993
 4938TIP3    H136373   2.340   4.733   8.077 -0.3536  0.1895  0.5415
 4938TIP3    H236374   2.216   4.747   7.992 -0.2344 -0.9709  0.1594
 4939TIP3   OH236375   5.017   4.494   0.779  0.2166  0.0970  0.7093
 4939TIP3    H136376   4.946   4.549   0.746 -1.1182 -1.1070  1.4557
 4939TIP3    H236377   5.069   4.472   0.701  0.4418  1.8660  0.3128
 4940TIP3   OH236378   2.760   1.379   2.592 -0.6016  0.3687 -0.6251
 4940TIP3    H136379   2.806   1.407   2.671 -1.0992  1.0480 -0.5735
 4940TIP3    H236380   2.683   1.333   2.624 -0.0679 -0.6333 -0.7156
 4941TIP3   OH236381   5.832   4.785   7.964  0.9269 -0.3266  0.3736
 4941TIP3    H136382   5.742   4.758   7.942  1.1000 -0.0164 -0.7598
 4941TIP3    H236383   5.841   4.762   8.057 -0.2412 -0.5854  0.4465
 4942TIP3   OH236384   1.308   4.407   0.859  0.3899 -0.1372 -0.1946
 4942TIP3    H136385   1.217   4.380   0.846 -0.5964  2.3870  0.8004
 4942TIP3    H236386   1.341   4.349   0.927 -0.1773 -1.6145 -1.1301
 4943TIP3   OH236387   0.697   6.598   7.867 -0.1077  0.6813  0.0291
 4943TIP3    H136388   0.666   6.683   7.835 -1.5970 -0.1147 -0.7263
 4943TIP3    H236389   0.618   6.552   7.892  0.7975  0.0311  1.8108
 4944TIP3   OH236390   0.075   3.480   2.646  0.4390 -0.2279  0.4732
 4944TIP3    H136391   0.015   3.526   2.586  0.3378  0.1775  0.8775
 4944TIP3    H236392   0.123   3.550   2.691 -0.2154 -0.4763  1.6125
 4945TIP3   OH236393   4.605   5.786   1.734 -0.1205 -0.2720  0.4542
 4945TIP3    H136394   4.604   5.809   1.827 -2.6462  1.0022  0.1892
 4945TIP3    H236395   4.641   5.697   1.732 -0.0060 -0.3308  2.6347
 4946TIP3   OH236396   1.535   4.052   0.709 -0.0789  0.2088 -1.0392
 4946TIP3    H136397   1.598   4.117   0.739 -0.4577  1.4289 -2.7274
 4946TIP3    H236398   1.588   3.984   0.668  0.2460  0.0653 -0.3956
 4947TIP3   OH236399   4.097   4.949   1.121  0.5469  0.2181  0.0018
 4947TIP3    H136400   4.076   5.043   1.120 -0.1594  0.0591 -0.3823
 4947TIP3    H236401   4.012   4.905   1.116  0.9275 -0.4498 -0.7477
 4948TIP3   OH236402   3.797   3.595   0.601  0.2196  0.4468  0.7223
 4948TIP3    H136403   3.810   3.622   0.691 -0.2110  1.5257  0.4776
 4948TIP3    H236404   3.824   3.670   0.549  1.6282 -0.5810 -0.1213
 4949TIP3   OH236405   5.944   6.225   7.525  0.2710  0.0164  0.3097
 4949TIP3    H136406   5.858   6.196   7.557  0.5849 -0.1581  1.0040
 4949TIP3    H236407   5.924   6.275   7.446 -0.5149  0.4532  0.7749
 4950TIP3   OH236408   6.589   5.765   7.719  0.2587 -0.0421  0.3624
 4950TIP3    H136409   6.494   5.771   7.734  0.1086 -2.0313  0.5377
 4950TIP3    H236410   6.628   5.812   7.792 -0.5938 -0.4326  1.0875
 4951TIP3   OH236411   2.943   5.443   1.644  0.0645 -0.6691  0.1054
 4951TIP3    H136412   2.963   5.375   1.580 -1.0281  0.0788 -1.0846
 4951TIP3    H236413   2.853   5.424   1.672 -0.1700  0.1246 -0.0678
 4952TIP3   OH236414   2.008   5.219   2.665 -0.1700 -0.1122 -0.2555
 4952TIP3    H136415   1.981   5.291   2.722  0.5190 -0.2516  0.2556
 4952TIP3    H236416   2.103   5.226   2.661 -0.1820 -0.3432 -1.0763
 4953TIP3   OH236417   0.159   1.060   1.979 -0.2053  0.2044 -0.0060
 4953TIP3    H136418   0.173   0.968   1.957 -0.1899  0.3438 -0.5859
 4953TIP3    H236419   0.117   1.097   1.901  1.3535  1.0895 -0.4465
 4954TIP3   OH236420   1.376   2.270   1.241 -0.1210  0.2327 -0.1510
 4954TIP3    H136421   1.283   2.252   1.230 -0.0937 -1.5864  1.9986
 4954TIP3    H236422   1.383   2.312   1.327  1.2159 -1.8498  0.8372
 4955TIP3   OH236423   0.836   5.693   0.666 -0.2260  0.0644  0.0575
 4955TIP3    H136424   0.805   5.719   0.579 -0.7919 -1.8078 -0.3592
 4955TIP3    H236425   0.759   5.698   0.722  0.1089  1.1420  0.4391
 4956TIP3   OH236426   2.047   4.124   7.670  0.7014  0.4094 -0.3002
 4956TIP3    H136427   2.126   4.113   7.723 -0.3891  1.4905  1.6513
 4956TIP3    H236428   2.002   4.040   7.676  0.4943  0.5810  0.6780
 4957TIP3   OH236429   2.333   2.657   1.258  0.2896 -0.0279  0.2064
 4957TIP3    H136430   2.393   2.731   1.245  1.1778 -0.8377 -0.5113
 4957TIP3    H236431   2.306   2.633   1.169 -2.8815  1.6856  0.5951
 4958TIP3   OH236432   4.762   4.001   1.718 -0.7815 -0.0114  0.5739
 4958TIP3    H136433   4.768   4.096   1.725 -0.5178  0.3262 -2.7524
 4958TIP3    H236434   4.848   3.969   1.745  0.2309  0.9880 -1.3147
 4959TIP3   OH236435   4.940   5.736   2.384  0.1811  0.8646  0.4377
 4959TIP3    H136436   4.949   5.650   2.344  0.7029  1.2047 -0.1972
 4959TIP3    H236437   4.971   5.724   2.474  0.1925  0.3740  0.3701
 4960TIP3   OH236438   4.612   5.277   0.305 -1.0094 -0.2340 -0.4021
 4960TIP3    H136439   4.657   5.359   0.284 -0.1476 -0.6401 -0.1896
 4960TIP3    H236440   4.675   5.209   0.284 -2.5437 -1.0342 -2.9049
 4961TIP3   OH236441   5.649   3.362   1.550 -0.6786 -0.1097  0.0435
 4961TIP3    H136442   5.602   3.387   1.470 -1.3207 -0.5853  0.2668
 4961TIP3    H236443   5.690   3.278   1.528 -0.1852  0.1514 -0.0471
 4962TIP3   OH236444   5.589   5.749   8.497  0.1701  0.2811 -0.6024
 4962TIP3    H136445   5.612   5.658   8.476  0.2474  0.3717 -0.9164
 4962TIP3    H236446   5.493   5.749   8.501  0.1851 -0.6309  3.0760
 4963TIP3   OH236447   4.602   6.006   1.567 -0.0749  0.4006 -0.0805
 4963TIP3    H136448   4.580   5.926   1.614 -1.8350  0.5990 -0.4906
 4963TIP3    H236449   4.651   6.059   1.630 -1.0728  0.0385  1.0220
 4964TIP3   OH236450   6.118   1.061   2.275 -0.5729 -0.4377  0.1485
 4964TIP3    H136451   6.111   1.119   2.351  0.2405 -1.1122  0.7450
 4964TIP3    H236452   6.027   1.049   2.247 -1.0948 -1.6525  2.1536
 4965TIP3   OH236453   5.499   1.807   0.716  0.1149 -0.4344  0.0273
 4965TIP3    H136454   5.490   1.732   0.776  1.5682 -1.2954 -0.7495
 4965TIP3    H236455   5.525   1.879   0.773 -1.0040 -0.5715  0.7540
 4966TIP3   OH236456   0.141   0.666   3.284  0.3492 -0.0313 -0.3249
 4966TIP3    H136457   0.178   0.743   3.327  0.1224 -1.3802  2.5046
 4966TIP3    H236458   0.209   0.599   3.293 -0.3318 -0.7867 -0.7205
 4967TIP3   OH236459   6.444   6.573   0.109 -0.4879  0.4124  0.5037
 4967TIP3    H136460   6.353   6.564   0.137 -0.3645 -0.0747  0.7672
 4967TIP3    H236461   6.469   6.484   0.083 -0.4344  0.7518 -0.6632
 4968TIP3   OH236462   1.690   3.217   7.928 -0.5591 -0.1627 -0.0780
 4968TIP3    H136463   1.716   3.185   7.841 -2.0273 -0.6780 -0.3582
 4968TIP3    H236464   1.646   3.300   7.911 -1.1456 -0.4251  0.1146
 4969TIP3   OH236465   1.622   5.674   3.257  0.4406 -0.0075  0.5887
 4969TIP3    H136466   1.639   5.743   3.194 -1.6954  0.0100 -0.0530
 4969TIP3    H236467   1.708   5.651   3.291  1.3850  1.7179 -0.4795
 4970TIP3   OH236468   5.691   1.075   3.623 -0.7556 -0.4289 -0.3201
 4970TIP3    H136469   5.678   1.139   3.553 -0.0471 -0.2435 -0.2907
 4970TIP3    H236470   5.607   1.070   3.668 -0.5991  1.0993  0.1973
 4971TIP3   OH236471   2.479   0.450   0.089  0.1519 -0.2480 -0.1755
 4971TIP3    H136472   2.422   0.411   0.156 -0.0798  2.3740  1.3033
 4971TIP3    H236473   2.422   0.509   0.041  0.9949  0.1787 -0.6582
 4972TIP3   OH236474   5.869   5.778   8.903 -0.2410  0.3935 -0.4051
 4972TIP3    H136475   5.789   5.801   8.950 -0.2017  1.0695 -0.6633
 4972TIP3    H236476   5.916   5.721   8.964 -0.0866  1.4343  0.4974
 4973TIP3   OH236477   3.063   2.958   0.069  0.2590 -0.0402  0.0839
 4973TIP3    H136478   3.053   2.865   0.088 -1.1272  0.1397  0.2680
 4973TIP3    H236479   2.977   2.987   0.040  0.5951  1.2595  0.3067
 4974TIP3   OH236480   3.004   5.403   0.488  0.3625 -0.0419  0.7734
 4974TIP3    H136481   2.936   5.455   0.532 -0.1280 -0.3653  0.4138
 4974TIP3    H236482   2.958   5.324   0.459  0.5547  0.3907 -0.7881
 4975TIP3   OH236483   5.706   6.232   8.235  0.1281  0.0066 -0.1209
 4975TIP3    H136484   5.636   6.240   8.171 -1.4088 -0.5105  1.4293
 4975TIP3    H236485   5.678   6.160   8.292  1.6266  0.2002  0.9166
 4976TIP3   OH236486   3.474   1.722   0.262  0.2433  0.1334  0.0178
 4976TIP3    H136487   3.498   1.661   0.192 -0.8665  0.5570 -0.7534
 4976TIP3    H236488   3.401   1.773   0.226 -0.1411  0.5784  1.3677
 4977TIP3   OH236489   2.343   4.041   7.804  0.0726 -0.0947 -0.1923
 4977TIP3    H136490   2.422   3.992   7.780 -0.4989 -1.2540  0.1943
 4977TIP3    H236491   2.287   3.976   7.847 -1.0672  0.7234 -0.3921
 4978TIP3   OH236492   4.254   2.506   1.659  0.2737  0.2088 -0.8110
 4978TIP3    H136493   4.284   2.577   1.717  0.3827  0.4867 -1.2015
 4978TIP3    H236494   4.160   2.520   1.652  0.1812 -0.1354 -0.2892
 4979TIP3   OH236495   5.751   1.948   2.125 -0.6005  0.2370  0.8447
 4979TIP3    H136496   5.758   1.915   2.035  0.3464 -0.2993  1.0989
 4979TIP3    H236497   5.805   2.027   2.126  1.0583 -0.8318  1.4017
 4980TIP3   OH236498   1.637   4.837   3.796 -0.1806  0.2311  0.3635
 4980TIP3    H136499   1.657   4.822   3.888  1.0278  2.1346  0.4737
 4980TIP3    H236500   1.670   4.925   3.778 -1.8745  0.5785 -1.4763
 4981TIP3   OH236501   5.232   2.052   0.884  0.2235  0.3972  0.0389
 4981TIP3    H136502   5.268   1.989   0.946 -0.8791 -1.2017 -0.8688
 4981TIP3    H236503   5.142   2.067   0.914 -0.0115  0.3505 -0.6139
 4982TIP3   OH236504   2.773   3.359   2.402  0.5170  0.1070 -0.1637
 4982TIP3    H136505   2.688   3.343   2.361 -0.5386  1.4093  1.3817
 4982TIP3    H236506   2.822   3.409   2.338 -0.0805 -0.2252 -0.8922
 4983TIP3   OH236507   3.036   1.618   0.029  0.1297 -0.3168 -0.0866
 4983TIP3    H136508   3.080   1.663  -0.042  0.7051 -1.6531 -0.6228
 4983TIP3    H236509   3.104   1.566   0.071 -0.9066 -2.6967 -1.1470
 4984TIP3   OH236510   5.767   0.237   8.924  0.6515  0.4752  0.0913
 4984TIP3    H136511   5.801   0.261   9.009 -0.4628  2.3381  0.0528
 4984TIP3    H236512   5.839   0.254   8.863  0.9753  0.4704  0.4706
 4985TIP3   OH236513   0.182   6.025   8.967 -0.4679  0.3727  0.4903
 4985TIP3    H136514   0.151   6.036   8.877 -2.7326  2.8830  1.4389
 4985TIP3    H236515   0.220   6.110   8.990 -0.6463  0.0348  2.1410
 4986TIP3   OH236516   3.654   5.409   8.875  0.3220 -0.0684 -0.1766
 4986TIP3    H136517   3.631   5.339   8.814  1.0365 -0.8938  0.4801
 4986TIP3    H236518   3.570   5.438   8.910  0.1299 -2.4813  1.5942
 4987TIP3   OH236519   0.460   3.457   7.901 -0.1002  0.0044 -0.5515
 4987TIP3    H136520   0.389   3.396   7.881 -1.0168  0.2323  1.6949
 4987TIP3    H236521   0.510   3.414   7.970 -0.0772  1.2884  0.2643
 4988TIP3   OH236522   4.668   5.363   8.262 -0.2545 -0.1824 -0.1511
 4988TIP3    H136523   4.623   5.415   8.328  0.5546 -1.7086  1.7289
 4988TIP3    H236524   4.607   5.292   8.242  0.4983 -1.2328  1.0515
 4989TIP3   OH236525   4.021   0.420   8.950 -0.5469 -0.2139  0.2048
 4989TIP3    H136526   4.062   0.483   8.891 -0.7116  0.7860  1.1317
 4989TIP3    H236527   4.092   0.361   8.975 -0.3785 -0.3851 -0.6217
 4990TIP3   OH236528   4.046   2.507   8.707  0.2705 -0.1192  0.0541
 4990TIP3    H136529   3.961   2.500   8.751 -0.2385 -0.3596 -0.9348
 4990TIP3    H236530   4.106   2.539   8.774 -0.2705 -1.3683  1.1701
 4991TIP3   OH236531   4.881   1.347   1.592 -0.3375 -0.2141  0.8732
 4991TIP3    H136532   4.801   1.343   1.539 -0.6647  2.8594  0.9670
 4991TIP3    H236533   4.863   1.414   1.658  2.3659  0.7213  0.7819
 4992TIP3   OH236534   0.629   3.676   7.931 -0.6597  0.0369 -0.2503
 4992TIP3    H136535   0.609   3.743   7.866 -0.8247 -0.3927 -0.6460
 4992TIP3    H236536   0.592   3.596   7.895  1.0939 -0.6321 -0.6410
 4993TIP3   OH236537   6.230   3.122   0.666  0.5706  0.5298 -0.1220
 4993TIP3    H136538   6.271   3.191   0.719  0.8791 -0.1962  0.6033
 4993TIP3    H236539   6.203   3.056   0.729 -1.9119  1.0472 -0.5643
 4994TIP3   OH236540   6.031   3.890   7.598  0.5725 -0.3549 -0.5706
 4994TIP3    H136541   6.050   3.808   7.552  2.0404  0.2715 -1.1518
 4994TIP3    H236542   6.086   3.955   7.554 -0.0851  0.8211  0.2889
 4995TIP3   OH236543   5.844   2.917   7.948  0.1143  0.0085 -0.1170
 4995TIP3    H136544   5.871   3.008   7.940 -1.9504  0.7077  0.2585
 4995TIP3    H236545   5.854   2.881   7.860  1.4823  0.4035 -0.1526
 4996TIP3   OH236546   0.984   4.753   0.815  0.5462 -0.6019 -0.2296
 4996TIP3    H136547   1.022   4.742   0.902  1.6629  0.3783 -0.5545
 4996TIP3    H236548   1.055   4.729   0.755  0.8003  1.4585 -0.8548
 4997TIP3   OH236549   4.017   2.609   0.304  0.4024 -0.6461  0.3213
 4997TIP3    H136550   4.074   2.678   0.339  0.0567 -0.3619  0.3352
 4997TIP3    H236551   4.023   2.538   0.368 -0.3381 -0.0707  1.0453
 4998TIP3   OH236552   3.805   0.134   8.877 -0.0393  0.1709 -0.0866
 4998TIP3    H136553   3.785   0.225   8.897  2.3570  0.5278  1.0773
 4998TIP3    H236554   3.832   0.135   8.785 -0.2527  0.6029 -0.1453
 4999TIP3   OH236555   4.510   1.058   8.659  0.3275 -0.3202  0.0116
 4999TIP3    H136556   4.599   1.069   8.693  0.3446  0.3869 -0.2394
 4999TIP3    H236557   4.522   1.027   8.570  0.3470  0.4998 -0.2790
 5000TIP3   OH236558   5.061   3.605   8.063 -0.5347  0.3299  0.0512
 5000TIP3    H136559   5.025   3.692   8.042 -0.4821 -0.1428 -2.2244
 5000TIP3    H236560   5.140   3.598   8.010  0.5685 -0.3756  1.7039
 5001TIP3   OH236561   0.208   0.466   2.882 -0.0475  0.1442 -0.7213
 5001TIP3    H136562   0.231   0.386   2.835 -1.5217 -0.2355 -0.8171
 5001TIP3    H236563   0.124   0.493   2.846 -0.6107  0.5407  0.7962
 5002TIP3   OH236564   1.638   2.850   1.330  0.3997  0.0387 -0.1850
 5002TIP3    H136565   1.597   2.803   1.403 -1.9997  1.2552 -0.6557
 5002TIP3    H236566   1.585   2.828   1.254  1.0152  1.1478 -0.9655
 5003TIP3   OH236567   4.910   2.218   2.624  0.7429  0.2209 -0.3233
 5003TIP3    H136568   4.942   2.300   2.586 -1.1897  1.1855  0.0276
 5003TIP3    H236569   4.914   2.233   2.719  0.1507  0.0054 -0.2643
 5004TIP3   OH236570   2.785   4.273   0.838  0.2305 -0.4231  0.0152
 5004TIP3    H136571   2.812   4.184   0.815  1.4051  0.1462 -0.9188
 5004TIP3    H236572   2.852   4.329   0.799 -0.6697  0.8956  0.3096
 5005TIP3   OH236573   3.857   2.969   8.896 -0.2657 -0.1694 -0.5148
 5005TIP3    H136574   3.863   2.889   8.949  0.6434  0.0942 -0.2014
 5005TIP3    H236575   3.770   2.964   8.855  0.3789 -2.1052 -1.7768
 5006TIP3   OH236576   4.399   4.439   0.625  0.3868  0.3194  0.3594
 5006TIP3    H136577   4.327   4.489   0.585 -0.8692 -0.5405  1.4403
 5006TIP3    H236578   4.356   4.388   0.695  1.9754 -0.6232  0.6850
 5007TIP3   OH236579   1.624   0.156   0.444  0.2785  0.4282  0.2150
 5007TIP3    H136580   1.700   0.184   0.494  0.9451  2.0083 -1.5558
 5007TIP3    H236581   1.658   0.091   0.382 -0.1182  0.0634  0.3709
 5008TIP3   OH236582   1.886   5.293   0.868  0.0920  0.0767 -0.6727
 5008TIP3    H136583   1.862   5.209   0.907  0.8809  0.4634  0.6890
 5008TIP3    H236584   1.942   5.335   0.933  2.1109  0.4188 -2.5252
 5009TIP3   OH236585   0.583   0.262   8.944  0.0561  0.3925 -0.1567
 5009TIP3    H136586   0.603   0.342   8.895  1.8025 -0.4039 -0.8217
 5009TIP3    H236587   0.491   0.244   8.925 -0.0123  1.5374 -1.0014
 5010TIP3   OH236588   2.988   5.331   8.034  0.3212 -0.3269 -0.4752
 5010TIP3    H136589   3.072   5.323   7.989  0.2984  0.5067 -0.6790
 5010TIP3    H236590   2.931   5.269   7.989  1.4130 -2.6935  1.1593
 5011TIP3   OH236591   0.294   3.761   8.833  0.1954 -0.2500 -0.0280
 5011TIP3    H136592   0.260   3.821   8.899  1.8330  0.4791  0.1858
 5011TIP3    H236593   0.217   3.712   8.804 -1.6627  3.3447 -1.7417
 5012TIP3   OH236594   5.459   2.793   7.975 -0.5824  0.2678 -0.1053
 5012TIP3    H136595   5.480   2.862   7.913 -1.5100 -0.1971 -0.9682
 5012TIP3    H236596   5.445   2.839   8.058  0.6794  0.8949 -0.2146
 5013TIP3   OH236597   1.221   5.496   2.566 -0.5345  0.7989 -0.0893
 5013TIP3    H136598   1.276   5.572   2.584  1.6770 -0.7787  0.2183
 5013TIP3    H236599   1.203   5.458   2.652 -1.4045  0.8023 -0.2574
 5014TIP3   OH236600   5.506   0.512   0.216  0.0730  0.5572 -0.0579
 5014TIP3    H136601   5.549   0.581   0.166 -0.9052  0.2114 -1.4132
 5014TIP3    H236602   5.415   0.514   0.188  0.0441 -1.3817 -0.2531
 5015TIP3   OH236603   0.173   6.148   8.022  0.6476 -0.0695 -0.4024
 5015TIP3    H136604   0.140   6.236   8.036  0.8663  0.2404 -1.7022
 5015TIP3    H236605   0.186   6.142   7.927 -0.4098 -1.8771 -0.4757
 5016TIP3   OH236606   5.915   3.734   7.850 -0.2587  0.1378  0.2041
 5016TIP3    H136607   5.822   3.740   7.829  0.0326  0.1183 -1.2072
 5016TIP3    H236608   5.958   3.784   7.780  0.9775 -2.2883 -0.8830
 5017TIP3   OH236609   1.274   3.165   3.059 -0.4421 -0.1082 -0.0121
 5017TIP3    H136610   1.290   3.103   3.129 -1.0409  1.7604  1.8887
 5017TIP3    H236611   1.218   3.119   2.997  0.0236 -1.7728  0.7678
 5018TIP3   OH236612   2.938   1.407   1.116  1.2571  0.7483 -0.0085
 5018TIP3    H136613   2.886   1.471   1.165  1.5353  0.4414  0.6977
 5018TIP3    H236614   2.930   1.435   1.025  0.8822  1.4358  0.2261
 5019TIP3   OH236615   6.285   4.418   0.118  0.1324  0.5910 -0.0498
 5019TIP3    H136616   6.278   4.478   0.192  2.0748  0.0945  0.6129
 5019TIP3    H236617   6.374   4.382   0.125 -0.0199 -0.2997 -1.9975
 5020TIP3   OH236618   2.547   0.085   1.186  0.2453  0.0152 -0.0558
 5020TIP3    H136619   2.620   0.026   1.204  1.7900  1.5383 -1.0516
 5020TIP3    H236620   2.580   0.145   1.119 -2.4799 -0.2467 -1.7769
 5021TIP3   OH236621   4.441   0.015   0.779 -0.0756  0.2660  0.0744
 5021TIP3    H136622   4.482   0.093   0.740 -1.0689 -0.1034 -1.8395
 5021TIP3    H236623   4.513  -0.048   0.788  0.1389  0.2151 -1.6608
 5022TIP3   OH236624   4.113   6.632   8.800 -0.3263  0.4943  0.3176
 5022TIP3    H136625   4.161   6.554   8.827 -1.1784  0.7065  2.6365
 5022TIP3    H236626   4.166   6.669   8.729  2.4990  0.2652  2.1565
 5023TIP3   OH236627   6.531   3.559   0.054 -0.2373  0.0229 -0.3195
 5023TIP3    H136628   6.465   3.577   0.122 -1.4947 -0.2071 -1.4381
 5023TIP3    H236629   6.489   3.585  -0.028 -0.9124 -4.5053 -1.7067
 5024TIP3   OH236630   3.098   1.567   2.579 -0.1099 -0.2169  0.2152
 5024TIP3    H136631   3.128   1.585   2.668  1.5676  0.9281 -0.5461
 5024TIP3    H236632   3.080   1.653   2.541 -1.4696 -0.7292 -0.3590
 5025TIP3   OH236633   0.776   0.181   0.385  0.2909  0.5267 -0.2977
 5025TIP3    H136634   0.801   0.230   0.307 -0.5137  1.6195  0.1059
 5025TIP3    H236635   0.824   0.098   0.378  2.0602  1.5437 -0.7616
 5026TIP3   OH236636   6.531   2.565   8.259  0.7344  0.0561 -0.5344
 5026TIP3    H136637   6.540   2.621   8.181 -0.7822 -0.1347 -0.8855
 5026TIP3    H236638   6.575   2.484   8.235 -0.0592 -0.1441 -1.3688
 5027TIP3   OH236639   5.562   3.656   0.203 -0.1351 -0.2399 -0.6405
 5027TIP3    H136640   5.606   3.572   0.213 -0.0970 -0.1369  0.0388
 5027TIP3    H236641   5.493   3.639   0.138  0.4468 -0.5652 -1.1899
 5028TIP3   OH236642   3.647   3.734   8.752  0.6493  0.1862  0.2248
 5028TIP3    H136643   3.653   3.805   8.815  0.1943  1.8024 -1.4620
 5028TIP3    H236644   3.560   3.744   8.712  0.7477 -1.0500 -0.3775
 5029TIP3   OH236645   3.242   0.656   0.050 -0.4038  0.3251 -0.1244
 5029TIP3    H136646   3.207   0.738   0.084  0.0964  0.1223  0.9083
 5029TIP3    H236647   3.329   0.650   0.088 -0.6651 -0.9855  0.2871
 5030TIP3   OH236648   3.079   6.498   3.421  0.6322  0.1377  0.0079
 5030TIP3    H136649   3.096   6.434   3.352 -0.9555 -1.2183  0.7903
 5030TIP3    H236650   3.121   6.462   3.498 -1.2750 -0.6696  0.7439
 5031TIP3   OH236651   3.932   4.963   2.176 -0.4453 -0.1353  0.3347
 5031TIP3    H136652   4.024   4.987   2.180 -0.3825 -0.1758 -0.5080
 5031TIP3    H236653   3.890   5.014   2.245  0.3623 -0.9103  1.4315
 5032TIP3   OH236654   1.712   3.812   2.902  0.2947  0.4220  0.2262
 5032TIP3    H136655   1.797   3.788   2.938  0.0062 -1.1164 -0.0092
 5032TIP3    H236656   1.728   3.891   2.851  2.0405 -0.9144 -1.4527
 5033TIP3   OH236657   5.754   5.226   2.690  0.0694  0.2914  0.0335
 5033TIP3    H136658   5.767   5.133   2.705  0.5581  0.5650  1.4983
 5033TIP3    H236659   5.807   5.246   2.612  1.1261 -0.3905  0.5551
 5034TIP3   OH236660   2.190   2.769   0.578 -0.1547  0.2653 -0.1318
 5034TIP3    H136661   2.181   2.849   0.527 -0.6129  1.8283  2.2361
 5034TIP3    H236662   2.279   2.739   0.559  0.2668  1.6914 -0.5833
 5035TIP3   OH236663   2.126   5.172   0.002 -0.4439  0.1026 -0.2155
 5035TIP3    H136664   2.091   5.193  -0.085  0.1342 -0.3471 -0.5564
 5035TIP3    H236665   2.055   5.125   0.046 -2.2469  3.5720  0.9760
 5036TIP3   OH236666   2.274   1.577   8.397  0.4284  0.1319  0.1009
 5036TIP3    H136667   2.337   1.562   8.326  1.0320 -0.7161  0.8023
 5036TIP3    H236668   2.199   1.522   8.374  1.1541 -1.1732  0.7721
 5037TIP3   OH236669   6.486   5.059   0.789  0.1175 -0.2458  0.2422
 5037TIP3    H136670   6.549   5.093   0.726 -0.7483  1.4322  0.2057
 5037TIP3    H236671   6.531   5.063   0.873  0.0252  1.1437  0.2469
 5038TIP3   OH236672   2.334   0.023   0.558  0.4230 -0.7366 -0.1149
 5038TIP3    H136673   2.286  -0.056   0.580  2.1968 -1.9399 -0.3302
 5038TIP3    H236674   2.336   0.074   0.639  0.7094 -1.7351  0.5270
 5039TIP3   OH236675   1.673   6.536   1.298  0.3270  0.2461 -0.1104
 5039TIP3    H136676   1.679   6.628   1.272  0.8465  0.4009  0.5202
 5039TIP3    H236677   1.582   6.512   1.280  0.6682  0.3182 -2.0432
 5040TIP3   OH236678   1.383   2.455   1.603 -0.1898  0.2205 -0.2900
 5040TIP3    H136679   1.302   2.410   1.628 -0.9796  1.1337 -1.1191
 5040TIP3    H236680   1.430   2.392   1.549 -0.0414 -0.5478  0.7235
 5041TIP3   OH236681   4.408   4.975   8.393 -0.4748 -0.1647 -0.2121
 5041TIP3    H136682   4.378   4.929   8.315 -1.6469 -0.9119  0.6481
 5041TIP3    H236683   4.446   4.907   8.448  0.1922  0.3330 -0.0429
 5042TIP3   OH236684   6.561   5.262   1.265  0.6041 -0.6727 -0.5838
 5042TIP3    H136685   6.520   5.278   1.180 -1.2312 -0.9746  0.1808
 5042TIP3    H236686   6.510   5.190   1.302  0.9977 -0.1702  0.9893
 5043TIP3   OH236687   2.511   1.720   1.858 -0.4222 -0.4219 -0.1200
 5043TIP3    H136688   2.470   1.636   1.876  0.6427 -0.9897 -0.2784
 5043TIP3    H236689   2.605   1.704   1.864 -0.1816  0.6531 -0.5775
 5044TIP3   OH236690   3.758   0.324   0.671  0.4230  0.0553 -0.0729
 5044TIP3    H136691   3.748   0.327   0.576  2.1678  0.0485 -0.3032
 5044TIP3    H236692   3.781   0.233   0.690 -0.5829 -0.1027  0.4571
 5045TIP3   OH236693   3.741   1.351   1.772  0.3731 -0.1312 -0.4187
 5045TIP3    H136694   3.763   1.262   1.798 -0.2259  0.2392  1.5109
 5045TIP3    H236695   3.658   1.369   1.816  1.3592  1.9688  0.7167
 5046TIP3   OH236696   6.274   2.374   2.539 -0.2032  0.5787 -0.7261
 5046TIP3    H136697   6.221   2.388   2.461 -0.1449  1.9165 -0.5486
 5046TIP3    H236698   6.283   2.279   2.546 -0.9740  0.4160 -1.8237
 5047TIP3   OH236699   2.544   2.064   2.739  0.0854 -0.0538 -0.1462
 5047TIP3    H136700   2.515   1.993   2.682 -2.4889  0.6913  0.1479
 5047TIP3    H236701   2.499   2.048   2.822  0.9086  0.9252  0.5183
 5048TIP3   OH236702   0.946   5.865   8.489 -0.1077  0.3229 -0.0360
 5048TIP3    H136703   0.999   5.875   8.410  0.9967 -2.1537  0.2791
 5048TIP3    H236704   0.905   5.779   8.479 -0.7842  0.4208  1.6083
 5049TIP3   OH236705   1.529   6.057   1.165 -0.0811  0.5899 -0.1598
 5049TIP3    H136706   1.577   6.074   1.246 -2.4195  1.6020  1.1233
 5049TIP3    H236707   1.581   5.991   1.119  1.3129 -0.0175  2.1595
 5050TIP3   OH236708   1.212   6.713   8.581  0.4189  0.1158  0.0946
 5050TIP3    H136709   1.132   6.741   8.536  0.9497 -1.1407 -1.7351
 5050TIP3    H236710   1.185   6.638   8.634  0.2388  0.1423  0.0415
 5051TIP3   OH236711   0.036   3.509   0.950  0.2447 -0.2672 -0.4301
 5051TIP3    H136712  -0.032   3.573   0.971  0.0749 -0.2839 -0.9161
 5051TIP3    H236713   0.101   3.520   1.019 -0.2234 -0.2109  0.0086
 5052TIP3   OH236714   1.121   0.870   7.057 -0.4653  0.1178  0.2184
 5052TIP3    H136715   1.146   0.802   7.120  0.8069  0.8842  0.5708
 5052TIP3    H236716   1.096   0.945   7.110  0.5151  0.7375 -0.1645
 5053TIP3   OH236717   3.971   3.388   0.003  0.0967 -0.3494 -0.6709
 5053TIP3    H136718   3.972   3.364   0.096  3.2332  2.2371  0.1759
 5053TIP3    H236719   4.023   3.321  -0.041  2.0551  0.4877  0.2492
 5054TIP3   OH236720   5.646   1.060   2.656  0.1187  0.2548  0.0019
 5054TIP3    H136721   5.706   1.039   2.728  0.8375 -0.4667 -0.7852
 5054TIP3    H236722   5.587   1.126   2.692 -1.1424 -1.8726  2.0765
 5055TIP3   OH236723   5.702   5.597   3.397 -0.0093 -0.2962  0.7311
 5055TIP3    H136724   5.771   5.542   3.435 -1.8203 -1.4232  2.5809
 5055TIP3    H236725   5.624   5.542   3.396 -1.0610  1.1273 -0.7509
 5056TIP3   OH236726   4.659   3.941   1.974  0.5334  0.1724  0.0559
 5056TIP3    H136727   4.606   3.866   1.951 -0.2006  0.4589  0.7563
 5056TIP3    H236728   4.692   3.974   1.891 -0.7289  0.2351 -0.4384
 5057TIP3   OH236729   6.703   5.270   2.096 -0.0525  0.3053  0.0080
 5057TIP3    H136730   6.626   5.323   2.074 -0.3242 -0.2004 -0.2710
 5057TIP3    H236731   6.772   5.335   2.112 -0.3733  0.7434 -0.3482
 5058TIP3   OH236732   3.861   3.656   0.876 -0.2551  0.0976 -0.6454
 5058TIP3    H136733   3.824   3.736   0.915  0.8746  0.2056  0.2591
 5058TIP3    H236734   3.955   3.667   0.885 -0.0837 -1.7391  0.3312
 5059TIP3   OH236735   4.031   1.935   8.709 -0.5370 -0.2337 -0.3821
 5059TIP3    H136736   3.951   1.952   8.759 -1.3484 -1.6777 -1.1170
 5059TIP3    H236737   4.065   2.022   8.688 -0.4571  0.4410  2.1390
 5060TIP3   OH236738   3.893   5.890   8.637  0.3337 -0.0126 -0.3778
 5060TIP3    H136739   3.944   5.947   8.580 -0.5592  0.7196 -0.4685
 5060TIP3    H236740   3.869   5.945   8.711  1.9552 -1.1030  1.0319
 5061TIP3   OH236741   1.427   4.535   2.485 -0.0084  0.3545  0.3181
 5061TIP3    H136742   1.372   4.470   2.528 -0.9964  1.5952  1.0365
 5061TIP3    H236743   1.366   4.602   2.454  0.7692 -0.0246 -2.2658
 5062TIP3   OH236744   1.787   0.230   7.758 -0.4652 -0.0020 -0.1406
 5062TIP3    H136745   1.730   0.275   7.820  0.2634 -0.1317  0.6356
 5062TIP3    H236746   1.856   0.293   7.739 -1.9278  1.0103 -2.7527
 5063TIP3   OH236747   0.060   5.656   8.156  0.0596  0.0451  0.0178
 5063TIP3    H136748   0.121   5.665   8.229  0.8593  0.6994 -0.7157
 5063TIP3    H236749  -0.024   5.638   8.198  0.5523  0.1164  1.0839
 5064TIP3   OH236750   1.245   3.667   3.631 -0.7607  0.3436 -0.1862
 5064TIP3    H136751   1.337   3.673   3.603 -0.5091  0.0910  0.5543
 5064TIP3    H236752   1.219   3.758   3.646 -0.4435  0.3749  0.1820
 5065TIP3   OH236753   2.218   0.400   2.571  0.4485  0.7663 -0.6837
 5065TIP3    H136754   2.246   0.350   2.648 -0.0566  1.1996 -0.2103
 5065TIP3    H236755   2.294   0.452   2.547  0.1901  1.7030  0.4056
 5066TIP3   OH236756   5.008   3.654   1.286  0.0250  0.1983 -0.0176
 5066TIP3    H136757   5.090   3.605   1.291 -0.0421  0.1700  1.0471
 5066TIP3    H236758   5.031   3.742   1.314  0.1716  0.8554 -2.0498
 5067TIP3   OH236759   0.113   3.468   0.687 -0.0858 -0.1432  0.1181
 5067TIP3    H136760   0.052   3.521   0.737 -0.2799 -0.8844  0.6876
 5067TIP3    H236761   0.183   3.447   0.749  0.8216  0.7760 -0.5486
 5068TIP3   OH236762   6.252   3.086   8.561 -0.2198 -0.1236  0.1887
 5068TIP3    H136763   6.268   3.001   8.601  0.6288 -0.2650 -0.4171
 5068TIP3    H236764   6.330   3.103   8.509  0.0572  1.4539  1.0417
 5069TIP3   OH236765   4.997   4.290   8.955 -0.5158  0.7849  0.7179
 5069TIP3    H136766   5.029   4.206   8.922 -1.2606  0.9711 -0.5789
 5069TIP3    H236767   5.048   4.306   9.034  1.0903  0.0944 -0.1334
 5070TIP3   OH236768   2.272   1.536   7.158  0.5784  0.2444 -0.0938
 5070TIP3    H136769   2.241   1.457   7.203 -0.4309  0.0682 -1.0423
 5070TIP3    H236770   2.271   1.512   7.065  1.7408  0.8875 -0.2881
 5071TIP3   OH236771   1.595   4.978   0.114  0.4254  0.0621  0.4294
 5071TIP3    H136772   1.612   4.987   0.208  2.1976  0.9377  0.0708
 5071TIP3    H236773   1.573   5.067   0.085  0.2241 -0.1419 -0.0561
 5072TIP3   OH236774   4.592   0.257   0.639  0.2792 -0.4225  0.3184
 5072TIP3    H136775   4.535   0.334   0.627  0.4496 -0.3265  0.1215
 5072TIP3    H236776   4.679   0.288   0.616  0.9845  0.2803  3.5158
 5073TIP3   OH236777   6.625   0.711   1.774 -0.1881  0.6095 -0.1972
 5073TIP3    H136778   6.600   0.718   1.682  0.1009  1.9721 -0.1921
 5073TIP3    H236779   6.606   0.797   1.811  3.6305  1.6018 -0.0233
 5074TIP3   OH236780   5.549   0.863   2.072 -0.3566  0.9500 -0.0809
 5074TIP3    H136781   5.625   0.836   2.123 -0.8449  1.3756  0.9013
 5074TIP3    H236782   5.544   0.799   2.001 -0.7846 -0.9139  1.5055
 5075TIP3   OH236783   5.586   2.904   0.064 -0.6061 -0.0196 -0.0430
 5075TIP3    H136784   5.598   2.827   0.118 -1.3460  0.3204  0.6303
 5075TIP3    H236785   5.521   2.878  -0.002 -1.6823  0.3264  0.8473
 5076TIP3   OH236786   0.156   2.126   1.064  0.3798 -0.3770  0.0560
 5076TIP3    H136787   0.129   2.063   0.997 -0.7963  2.1863 -2.0730
 5076TIP3    H236788   0.246   2.101   1.084  0.2875 -2.1448 -1.3864
 5077TIP3   OH236789   0.771   0.573   1.030 -0.0362  0.4141 -0.5334
 5077TIP3    H136790   0.729   0.599   0.948  0.2594 -1.4578 -1.3292
 5077TIP3    H236791   0.858   0.613   1.026 -0.6744  1.9173 -0.2059
 5078TIP3   OH236792   0.468   4.487   8.826  0.6566 -0.5268 -0.1367
 5078TIP3    H136793   0.492   4.579   8.817 -0.0439 -0.2389  0.7627
 5078TIP3    H236794   0.379   4.481   8.790  0.5495 -0.7642  0.1586
 5079TIP3   OH236795   6.319   1.975   1.843  0.2042 -0.2865  0.4168
 5079TIP3    H136796   6.389   1.924   1.803 -0.9310  0.0147 -2.1639
 5079TIP3    H236797   6.362   2.052   1.880  1.1150  1.6237 -3.9814
 5080TIP3   OH236798   3.318   6.118   8.653  0.0039  0.2394  0.3700
 5080TIP3    H136799   3.285   6.207   8.667 -0.2497  0.2533 -0.2846
 5080TIP3    H236800   3.260   6.062   8.704 -2.2947  0.0559 -2.2303
 5081TIP3   OH236801   4.545   3.221   2.202 -0.4271 -0.2727 -0.2117
 5081TIP3    H136802   4.540   3.317   2.200 -0.8408 -0.2074  1.6870
 5081TIP3    H236803   4.472   3.195   2.259 -0.4702 -1.7424 -0.8938
 5082TIP3   OH236804   1.523   1.121   1.883  0.7992  0.2910 -0.4682
 5082TIP3    H136805   1.539   1.173   1.962  2.4889  1.7676 -1.6968
 5082TIP3    H236806   1.530   1.030   1.913  0.6288  0.7863  1.2039
 5083TIP3   OH236807   5.511   1.572   8.741 -0.7076 -0.4213  0.3440
 5083TIP3    H136808   5.546   1.483   8.731 -0.5514 -0.3120 -0.0989
 5083TIP3    H236809   5.586   1.629   8.723 -0.7326 -0.1986  0.9116
 5084TIP3   OH236810   2.873   0.269   2.732  0.4902  0.2782  0.1105
 5084TIP3    H136811   2.778   0.269   2.720  0.7769  1.2900 -3.6252
 5084TIP3    H236812   2.886   0.304   2.820 -2.5711  0.0656  0.7616
 5085TIP3   OH236813   3.631   5.865   2.229 -0.2356  0.3074  0.5649
 5085TIP3    H136814   3.630   5.819   2.313 -0.6017 -0.5431  0.1060
 5085TIP3    H236815   3.546   5.846   2.190  1.1074 -2.0602 -1.4453
 5086TIP3   OH236816   0.102   4.681   8.560 -0.1378  0.1336  0.0036
 5086TIP3    H136817   0.111   4.774   8.578 -1.2715  0.1712  0.4677
 5086TIP3    H236818   0.008   4.667   8.552  0.0740 -0.7910 -1.0775
 5087TIP3   OH236819   0.680   6.593   0.610 -0.1378 -0.0340 -0.6548
 5087TIP3    H136820   0.729   6.662   0.655 -0.6738 -0.2424  0.2778
 5087TIP3    H236821   0.684   6.519   0.670 -1.3991 -0.1206 -0.6701
 5088TIP3   OH236822   2.766   4.178   3.354 -0.5943 -0.3653 -0.0669
 5088TIP3    H136823   2.816   4.156   3.276 -1.8169  2.3487 -1.7414
 5088TIP3    H236824   2.795   4.265   3.379  1.4749 -1.9776  4.1018
 5089TIP3   OH236825   3.121   3.466   3.120  0.4120  0.0916 -0.1042
 5089TIP3    H136826   3.210   3.472   3.154  0.0287 -1.1969  1.2592
 5089TIP3    H236827   3.107   3.372   3.106 -1.1830  0.0940  1.1108
 5090TIP3   OH236828   5.221   3.368   0.681 -0.2290 -0.4928 -0.4047
 5090TIP3    H136829   5.289   3.434   0.691 -0.7909  0.5107 -2.6773
 5090TIP3    H236830   5.245   3.319   0.603 -0.2629 -2.4942  0.7798
 5091TIP3   OH236831   6.043   4.439   8.547 -0.0535  0.0414 -0.3646
 5091TIP3    H136832   6.055   4.360   8.599 -1.1343  0.4318  0.5371
 5091TIP3    H236833   5.995   4.410   8.470 -0.0442 -0.2550 -0.2596
 5092TIP3   OH236834   1.785   6.226   8.995 -0.6574  0.5673  0.3238
 5092TIP3    H136835   1.699   6.217   8.953  0.2958 -0.7305 -1.4536
 5092TIP3    H236836   1.816   6.137   9.007  0.1465  0.9944  1.6777
 5093TIP3   OH236837   4.471   0.554   0.324  0.1163 -0.2796 -0.0247
 5093TIP3    H136838   4.561   0.534   0.301  0.7180  0.1327  1.7721
 5093TIP3    H236839   4.419   0.524   0.249  1.7315 -0.4837 -1.1051
 5094TIP3   OH236840   0.862   1.449   2.196  0.2524  0.1206  0.0014
 5094TIP3    H136841   0.942   1.425   2.244  1.3032  0.6788 -1.3813
 5094TIP3    H236842   0.809   1.370   2.196  0.8708 -0.3143  0.8320
 5095TIP3   OH236843   1.185   2.623   2.522 -0.1391  0.9356  0.1010
 5095TIP3    H136844   1.184   2.718   2.536 -0.7920  0.7470  1.5052
 5095TIP3    H236845   1.218   2.587   2.604 -0.5375 -0.0868 -0.1731
 5096TIP3   OH236846   3.656   2.639   1.593 -0.0286 -0.0220 -0.1645
 5096TIP3    H136847   3.571   2.665   1.629 -1.7090 -0.2090 -3.6059
 5096TIP3    H236848   3.646   2.546   1.574  1.0242 -0.0943 -0.4198
 5097TIP3   OH236849   2.989   3.516   8.760  0.0534 -0.3411 -0.1094
 5097TIP3    H136850   3.032   3.430   8.765 -0.6762 -0.7279 -0.3991
 5097TIP3    H236851   3.054   3.572   8.717  0.8863 -0.5116  0.8762
 5098TIP3   OH236852   1.216   2.982   8.467  0.4808  0.4473 -0.1525
 5098TIP3    H136853   1.143   2.975   8.529  0.1869 -2.9248 -0.7192
 5098TIP3    H236854   1.293   2.996   8.523 -0.1711  0.6723  0.7167
 5099TIP3   OH236855   1.699   6.391   1.799 -0.2802 -0.0810 -0.1677
 5099TIP3    H136856   1.618   6.441   1.810 -0.6102 -0.9076  1.3579
 5099TIP3    H236857   1.731   6.376   1.888  1.3072 -0.1833 -0.7241
 5100TIP3   OH236858   6.410   5.420   7.532 -0.2316  0.4106  0.0286
 5100TIP3    H136859   6.476   5.459   7.588 -0.9752 -0.3543  1.5018
 5100TIP3    H236860   6.342   5.487   7.523 -0.3110  0.3873  0.4298
 5101TIP3   OH236861   4.635   4.060   8.052  0.2921  0.3377  0.5285
 5101TIP3    H136862   4.605   3.988   8.107  1.5205  0.3642  1.2736
 5101TIP3    H236863   4.670   4.017   7.974 -0.3138  0.2233  0.3165
 5102TIP3   OH236864   2.697   5.623   0.325 -0.6206 -0.0073  0.4353
 5102TIP3    H136865   2.706   5.610   0.419 -2.3480  1.3116  0.8456
 5102TIP3    H236866   2.783   5.651   0.296  0.5070 -2.4282  1.2034
 5103TIP3   OH236867   4.512   1.618   8.812  0.2169  0.4898 -0.5614
 5103TIP3    H136868   4.538   1.537   8.769  0.3826 -0.1390  0.6941
 5103TIP3    H236869   4.489   1.592   8.901 -3.1521  1.2539 -1.0774
 5104TIP3   OH236870   6.140   5.645   0.892 -0.7107  0.3140  0.3200
 5104TIP3    H136871   6.141   5.616   0.983  2.2328  3.2835  1.4577
 5104TIP3    H236872   6.207   5.592   0.850 -0.5146  0.4231  0.4896
 5105TIP3   OH236873   3.685   4.777   2.194 -0.1346  0.7263 -0.1230
 5105TIP3    H136874   3.669   4.870   2.179  0.2139  0.5847 -1.4562
 5105TIP3    H236875   3.729   4.746   2.115 -2.4393 -1.1062 -0.8299
 5106TIP3   OH236876   4.584   6.511   8.794  0.0651 -0.2501 -0.1555
 5106TIP3    H136877   4.568   6.417   8.792  2.7494 -0.7892 -0.2284
 5106TIP3    H236878   4.499   6.551   8.779 -0.7227 -2.6862 -2.8609
 5107TIP3   OH236879   5.664   3.608   2.211  0.7574 -0.2246 -0.0228
 5107TIP3    H136880   5.701   3.578   2.294  0.7473 -2.0150 -0.6197
 5107TIP3    H236881   5.720   3.569   2.144 -0.6841 -0.8934 -0.9008
 5108TIP3   OH236882   6.190   5.606   7.571 -0.0724 -0.4422 -0.0624
 5108TIP3    H136883   6.202   5.582   7.663  2.1088  3.1934  0.7927
 5108TIP3    H236884   6.117   5.669   7.572 -0.4260 -0.8239 -0.9202
 5109TIP3   OH236885   6.237   1.214   8.418 -0.2218  0.2088  0.2401
 5109TIP3    H136886   6.192   1.282   8.468 -0.5656  0.8191 -0.8653
 5109TIP3    H236887   6.323   1.250   8.399  0.5292 -0.6805  1.7548
 5110TIP3   OH236888   1.878   5.372   2.066  0.1324 -0.9982 -0.4810
 5110TIP3    H136889   1.971   5.394   2.070 -0.2462  1.0111 -1.4541
 5110TIP3    H236890   1.850   5.371   2.158  0.5413  1.2873 -0.2653
 5111TIP3   OH236891   3.649   0.381   7.756 -0.1608 -0.2144 -0.2338
 5111TIP3    H136892   3.560   0.363   7.786 -0.0202  1.1020  1.0833
 5111TIP3    H236893   3.686   0.295   7.735 -1.6989 -0.7809 -0.7260
 5112TIP3   OH236894   2.923   4.944   8.745  0.1021  0.1093 -0.0147
 5112TIP3    H136895   2.970   5.007   8.690 -0.2247  0.6744  0.3540
 5112TIP3    H236896   2.926   4.981   8.833  0.5147 -0.7330  0.3489
 5113TIP3   OH236897   0.161   4.109   0.462  0.7570 -0.2471 -0.1824
 5113TIP3    H136898   0.205   4.193   0.452 -3.9174  2.3120 -2.4579
 5113TIP3    H236899   0.148   4.099   0.556  0.8482  1.9302  0.1003
 5114TIP3   OH236900   3.731   3.929   7.449  0.7402  0.1816  0.0156
 5114TIP3    H136901   3.705   3.987   7.377  1.2107 -0.8482 -1.0359
 5114TIP3    H236902   3.825   3.916   7.436  0.6162 -0.9512  0.0777
 5115TIP3   OH236903   0.515   0.765   8.486  0.0511  0.3259  0.3750
 5115TIP3    H136904   0.599   0.719   8.492 -0.8487 -1.2801  1.0058
 5115TIP3    H236905   0.480   0.739   8.401 -0.0842  0.5204  0.3714
 5116TIP3   OH236906   3.836   1.038   8.381  0.3347 -0.2309  0.5154
 5116TIP3    H136907   3.872   1.056   8.294 -0.3357  0.2075  0.3221
 5116TIP3    H236908   3.857   1.116   8.432  0.7537 -0.5014  0.7593
 5117TIP3   OH236909   3.599   1.709   0.011  0.2165 -0.7455  0.6045
 5117TIP3    H136910   3.680   1.730  -0.034 -0.9202  1.8568 -0.4221
 5117TIP3    H236911   3.536   1.693  -0.059 -0.6965 -0.3546  1.3174
 5118TIP3   OH236912   6.176   4.234   1.640  0.2117  0.3416  0.0096
 5118TIP3    H136913   6.144   4.151   1.675  0.8563 -0.0629 -0.3515
 5118TIP3    H236914   6.271   4.230   1.651  0.2757  0.8855 -0.3139
 5119TIP3   OH236915   5.235   5.657   0.310  0.6181 -0.3099  0.4256
 5119TIP3    H136916   5.219   5.738   0.357 -0.5139 -0.1692 -0.1612
 5119TIP3    H236917   5.160   5.601   0.332  0.5212 -0.5609 -0.4747
 5120TIP3   OH236918   0.990   2.945   8.046 -0.2086  0.7045 -0.1895
 5120TIP3    H136919   0.916   2.983   8.093 -0.4805 -0.0381  0.0060
 5120TIP3    H236920   1.067   2.984   8.087 -0.4894  1.8040 -0.6766
 5121TIP3   OH236921   6.435   5.030   1.411  0.5165  0.3831  0.5788
 5121TIP3    H136922   6.515   4.978   1.421  0.3338 -0.1680 -0.6650
 5121TIP3    H236923   6.390   5.020   1.495  1.0881 -0.4483  0.8009
 5122TIP3   OH236924   1.404   6.435   8.830  0.4754  0.3174 -0.0209
 5122TIP3    H136925   1.322   6.484   8.844  0.2399 -0.4172  1.4587
 5122TIP3    H236926   1.471   6.503   8.822 -0.0099  0.9175  0.7860
 5123TIP3   OH236927   0.121   5.823   8.643 -0.3401 -0.5589 -0.2583
 5123TIP3    H136928   0.074   5.744   8.667 -0.5370  0.0002  1.3551
 5123TIP3    H236929   0.110   5.831   8.548 -2.8636 -0.8574 -0.0581
 5124TIP3   OH236930   6.213   1.945   1.319 -0.4977  0.0147 -0.0991
 5124TIP3    H136931   6.199   1.856   1.286  0.2212 -1.5310  3.2875
 5124TIP3    H236932   6.292   1.939   1.373 -0.8702  2.5338  0.8793
 5125TIP3   OH236933   0.440   0.004   0.299 -0.0401 -0.0954 -0.4342
 5125TIP3    H136934   0.411   0.006   0.207 -0.3066  1.2795 -0.3531
 5125TIP3    H236935   0.525  -0.040   0.296 -0.8348 -1.6648 -1.0780
 5126TIP3   OH236936   3.742   2.707   2.198 -0.5876  0.2146  0.1120
 5126TIP3    H136937   3.677   2.690   2.131  0.6564 -0.5137 -0.9659
 5126TIP3    H236938   3.815   2.748   2.151  0.0554  0.2726  1.1233
 5127TIP3   OH236939   1.370   1.033   1.653 -0.3388  0.2377  0.1635
 5127TIP3    H136940   1.395   1.115   1.694 -1.1474  0.7128 -0.2607
 5127TIP3    H236941   1.346   0.976   1.726 -0.3679  0.5864  0.4289
 5128TIP3   OH236942   0.815   1.889   8.925  0.5897 -0.4452 -0.5068
 5128TIP3    H136943   0.772   1.953   8.981 -0.9543 -2.2970  0.5222
 5128TIP3    H236944   0.795   1.918   8.836 -0.7900  0.0372 -0.0574
 5129TIP3   OH236945   1.324   6.088   0.112  0.0369  0.5438 -0.1179
 5129TIP3    H136946   1.408   6.097   0.067 -1.1781  0.4736 -2.5896
 5129TIP3    H236947   1.275   6.167   0.088 -1.1134 -0.0878  0.0696
 5130TIP3   OH236948   5.803   1.194   1.758  0.2993 -0.6367  0.0384
 5130TIP3    H136949   5.810   1.289   1.745 -3.4039  0.1202  2.1169
 5130TIP3    H236950   5.814   1.182   1.852 -3.1304 -1.5921  0.4454
 5131TIP3   OH236951   1.122   4.331   1.503  0.2069 -0.1754  0.1176
 5131TIP3    H136952   1.075   4.411   1.528  0.8435 -0.0559  0.9833
 5131TIP3    H236953   1.122   4.278   1.582  1.2795 -0.2873  0.0588
 5132TIP3   OH236954   2.058   3.512   1.896  0.1332  0.0366  0.0142
 5132TIP3    H136955   2.031   3.427   1.929 -0.9068  0.1469 -0.4921
 5132TIP3    H236956   2.065   3.500   1.801  0.7939  0.3068  0.0222
 5133TIP3   OH236957   5.593   5.999   8.386 -0.0994  0.3887 -0.2427
 5133TIP3    H136958   5.620   5.920   8.431  3.3489  1.7829  0.4378
 5133TIP3    H236959   5.597   6.068   8.452  1.5299  1.8800 -1.7765
 5134TIP3   OH236960   5.311   6.539   8.498 -0.3680 -0.0716 -0.1199
 5134TIP3    H136961   5.377   6.598   8.461 -1.2648  0.7326 -0.4792
 5134TIP3    H236962   5.358   6.458   8.516  1.2459  1.1815  1.7388
 5135TIP3   OH236963   4.040   3.177   8.876 -0.4702  0.5314  0.3537
 5135TIP3    H136964   4.074   3.178   8.787 -0.2913  2.1633  0.4184
 5135TIP3    H236965   3.977   3.104   8.877  2.0101 -1.7827 -0.1038
 5136TIP3   OH236966   4.882   0.731   2.691  0.4845  0.7931  0.1175
 5136TIP3    H136967   4.845   0.694   2.611  0.3308 -1.4621  1.1719
 5136TIP3    H236968   4.937   0.803   2.660  0.6682 -0.1896 -2.0347
 5137TIP3   OH236969   0.900   4.437   2.305 -0.3481  0.4083  0.5003
 5137TIP3    H136970   0.902   4.344   2.327 -0.2651  0.4726  0.7720
 5137TIP3    H236971   0.970   4.447   2.240  0.5885  0.5277  1.4868
 5138TIP3   OH236972   6.227   4.251   8.006  0.0054 -0.7022 -0.4036
 5138TIP3    H136973   6.295   4.286   8.064  1.2842 -3.8882  0.2322
 5138TIP3    H236974   6.273   4.236   7.923 -0.6032 -0.5660 -0.7733
 5139TIP3   OH236975   1.568   4.685   2.645  0.5129 -0.4276  0.4881
 5139TIP3    H136976   1.525   4.625   2.584  1.1872 -0.6057  0.1802
 5139TIP3    H236977   1.574   4.636   2.727 -0.2092 -0.2633  0.6437
 5140TIP3   OH236978   1.099   3.112   2.854 -0.4629  0.1919 -0.2187
 5140TIP3    H136979   1.016   3.160   2.852 -0.4787  0.1323 -1.3485
 5140TIP3    H236980   1.131   3.114   2.764  0.0593 -1.0189 -0.0806
 5141TIP3   OH236981   1.788   4.507   2.052  0.0102 -0.0792  0.1672
 5141TIP3    H136982   1.733   4.548   2.119  0.0787 -0.7359  0.6374
 5141TIP3    H236983   1.760   4.415   2.051  2.7525 -1.0731  2.2107
 5142TIP3   OH236984   3.034   1.704   2.919  0.2627 -0.1587  0.0552
 5142TIP3    H136985   3.043   1.797   2.941 -1.5170  0.0465  0.1201
 5142TIP3    H236986   3.082   1.658   2.988  1.4141  0.7035 -0.1374
 5143TIP3   OH236987   0.742   4.022   8.953  0.1433  0.0560  0.1540
 5143TIP3    H136988   0.769   3.940   8.912 -0.2146 -1.1544  2.2001
 5143TIP3    H236989   0.661   4.000   8.999  1.1281  0.9648  2.4689
 5144TIP3   OH236990   4.102   0.411   1.617  0.4424 -0.0122  0.1219
 5144TIP3    H136991   4.017   0.366   1.617 -0.0098  0.7955  1.3844
 5144TIP3    H236992   4.124   0.419   1.524 -0.3434 -1.1918 -0.1909
 5145TIP3   OH236993   3.667   6.319   7.204  0.1192 -0.1196 -0.1581
 5145TIP3    H136994   3.614   6.304   7.282  0.4165 -0.0687  0.0544
 5145TIP3    H236995   3.631   6.259   7.138  2.5883 -3.4463  1.2253
 5146TIP3   OH236996   1.492   2.185   0.207  0.0910 -0.1244 -0.0144
 5146TIP3    H136997   1.536   2.111   0.249 -0.6060 -0.8999 -0.6271
 5146TIP3    H236998   1.448   2.147   0.131 -1.3713  0.6766  0.3902
 5147TIP3   OH236999   3.155   0.969   1.865 -0.2506  0.1307 -0.0639
 5147TIP3    H137000   3.158   1.053   1.821 -2.0289 -0.2239 -0.9568
 5147TIP3    H237001   3.109   0.987   1.948 -3.1631 -0.3371 -1.4390
 5148TIP3   OH237002   6.293   4.411   0.779  0.9741  0.5532  0.3705
 5148TIP3    H137003   6.338   4.420   0.695  1.3819 -0.8151  0.4026
 5148TIP3    H237004   6.352   4.451   0.843  0.2651  2.3774 -0.0799
 5149TIP3   OH237005   6.126   4.663   8.241 -0.3853 -0.6423  0.2390
 5149TIP3    H137006   6.167   4.700   8.163 -1.5765 -2.7837 -1.5080
 5149TIP3    H237007   6.197   4.618   8.286 -0.2322 -2.0066 -1.2904
 5150TIP3   OH237008   0.107   2.510   0.138  0.0488  0.4503 -0.3496
 5150TIP3    H137009   0.180   2.560   0.172  0.7488 -0.6657 -0.1741
 5150TIP3    H237010   0.094   2.438   0.200  0.1125 -0.5134 -1.4079
 5151TIP3   OH237011   4.805   6.283   2.099  0.3081 -0.2439  0.2488
 5151TIP3    H137012   4.843   6.318   2.019 -0.2732  0.9866  0.4850
 5151TIP3    H237013   4.758   6.204   2.071  0.8602 -0.3287 -0.4589
 5152TIP3   OH237014   3.029   4.096   8.646  0.3142 -0.1307  0.5985
 5152TIP3    H137015   2.943   4.134   8.662  0.2423 -0.5616  1.2631
 5152TIP3    H237016   3.080   4.167   8.606 -0.4598  0.0109 -0.1688
 5153TIP3   OH237017   5.175   3.624   8.333 -0.4123  0.1601  0.1144
 5153TIP3    H137018   5.155   3.594   8.245  1.8083  0.0526 -0.4302
 5153TIP3    H237019   5.202   3.715   8.322  0.9221 -0.1590  0.4560
 5154TIP3   OH237020   6.227   5.485   7.819 -0.3688 -0.2799  0.2349
 5154TIP3    H137021   6.291   5.502   7.889 -1.9677  2.3788  1.1768
 5154TIP3    H237022   6.148   5.456   7.866  0.0413 -3.8309 -0.9274
 5155TIP3   OH237023   4.009   5.644   8.558 -0.6272  0.2816  0.2439
 5155TIP3    H137024   4.065   5.619   8.485 -1.5823 -1.0509 -0.0639
 5155TIP3    H237025   4.067   5.691   8.618  0.3579  0.6645 -0.9659
 5156TIP3   OH237026   3.319   0.735   7.928  0.6635  0.5289 -0.4940
 5156TIP3    H137027   3.240   0.775   7.891 -1.9035 -1.5467  2.2118
 5156TIP3    H237028   3.335   0.784   8.009 -0.6814 -1.7782  1.2738
 5157TIP3   OH237029   4.028   6.066   3.023 -0.9286 -0.1202  0.2311
 5157TIP3    H137030   4.091   6.131   3.055  0.1824 -0.7674 -0.5643
 5157TIP3    H237031   4.048   5.987   3.075 -1.8254 -0.0329  0.7296
 5158TIP3   OH237032   5.670   2.399   2.359  0.6720 -0.2058 -0.6533
 5158TIP3    H137033   5.682   2.326   2.419 -1.2743  0.3844  0.5557
 5158TIP3    H237034   5.620   2.362   2.286  0.7450 -0.3549 -0.6282
 5159TIP3   OH237035   5.406   5.002   2.950  0.3315  0.1111 -0.5260
 5159TIP3    H137036   5.450   4.929   2.992  0.9446  0.9595  0.3418
 5159TIP3    H237037   5.355   5.044   3.019 -3.8050 -2.1336 -1.8718
 5160TIP3   OH237038   1.121   5.698   0.681 -0.4568 -0.5777  0.0648
 5160TIP3    H137039   1.168   5.658   0.754  0.0934  0.3928  0.2605
 5160TIP3    H237040   1.033   5.660   0.685  0.2268 -2.2600 -0.1765
 5161TIP3   OH237041   1.269   1.711   1.940 -0.0249 -0.4705 -0.1705
 5161TIP3    H137042   1.329   1.781   1.915  1.3827 -0.8727  1.7834
 5161TIP3    H237043   1.238   1.674   1.857  0.4273  1.4171 -1.2225
 5162TIP3   OH237044   3.329   2.739   8.913  0.5566  0.3978 -0.5571
 5162TIP3    H137045   3.255   2.760   8.856  0.4087 -0.9638 -0.8992
 5162TIP3    H237046   3.306   2.777   8.997 -1.9284 -2.3689  0.1652
 5163TIP3   OH237047   5.456   3.140   2.285  0.1191  0.7417 -0.4867
 5163TIP3    H137048   5.438   3.048   2.303 -2.1458  0.9225 -1.5705
 5163TIP3    H237049   5.538   3.157   2.331 -0.2733 -1.3611  1.1569
 5164TIP3   OH237050   4.203   2.170   2.636 -0.1826 -0.4945 -0.4751
 5164TIP3    H137051   4.224   2.257   2.604 -0.8058 -0.4527 -0.7895
 5164TIP3    H237052   4.167   2.185   2.723  1.4794 -0.6062  0.2669
 5165TIP3   OH237053   5.702   0.031   1.489 -0.5127  0.3487 -0.5166
 5165TIP3    H137054   5.660   0.116   1.500 -2.5679 -0.6192 -0.4661
 5165TIP3    H237055   5.725   0.028   1.396  1.1319  1.5838 -0.2040
 5166TIP3   OH237056   0.359   4.681   0.177  0.5361 -0.1565 -0.5531
 5166TIP3    H137057   0.411   4.604   0.200 -0.7403 -0.1250  3.2024
 5166TIP3    H237058   0.417   4.755   0.194 -0.0972 -0.1781  2.3900
 5167TIP3   OH237059   3.331   1.881   7.706 -0.0833 -0.1115 -0.1353
 5167TIP3    H137060   3.363   1.930   7.631  0.1846 -1.5292 -0.9864
 5167TIP3    H237061   3.299   1.798   7.670 -0.1368 -0.7509  1.2766
 5168TIP3   OH237062   6.025   2.289   8.391  0.1526  0.0287  0.1273
 5168TIP3    H137063   6.038   2.351   8.319  0.4451  2.0236  1.7715
 5168TIP3    H237064   5.932   2.297   8.412  0.8330  3.2343  2.9443
 5169TIP3   OH237065   5.871   0.968   8.399  0.3993  0.2800 -0.1011
 5169TIP3    H137066   5.909   1.013   8.323 -0.5818  2.4723  0.6241
 5169TIP3    H237067   5.945   0.923   8.440  1.2761  0.5316 -1.3447
 5170TIP3   OH237068   6.062   0.018   1.559 -0.1455 -0.0201 -0.5673
 5170TIP3    H137069   6.155   0.011   1.538 -0.4672  0.9647 -2.6673
 5170TIP3    H237070   6.017  -0.014   1.480 -1.5791  0.2264  0.1072
 5171TIP3   OH237071   2.583   1.328   1.698 -0.1892 -0.4539 -0.4417
 5171TIP3    H137072   2.647   1.392   1.729  0.3375 -0.4151 -1.5768
 5171TIP3    H237073   2.632   1.247   1.688 -0.2802 -0.4011 -1.4121
 5172TIP3   OH237074   1.044   2.620   0.712 -0.2112  0.3288 -0.7090
 5172TIP3    H137075   0.996   2.623   0.629  0.0702  1.8111 -0.8523
 5172TIP3    H237076   1.079   2.709   0.722  0.6358 -0.1204  0.4859
 5173TIP3   OH237077   2.558   4.156   2.605  0.3674  0.0975  0.3648
 5173TIP3    H137078   2.522   4.113   2.527 -0.3396 -1.2562  1.3773
 5173TIP3    H237079   2.495   4.135   2.675  0.3922  2.2055  1.0874
 5174TIP3   OH237080   0.819   3.013   3.158  0.0456 -0.4730 -0.0616
 5174TIP3    H137081   0.811   3.104   3.187  0.8354 -0.2220 -0.5977
 5174TIP3    H237082   0.911   3.003   3.135 -0.4037 -0.8259 -1.8686
 5175TIP3   OH237083   2.445   4.589   7.899 -0.2290 -0.4184  0.2026
 5175TIP3    H137084   2.481   4.614   7.814 -0.1876  0.0764  0.3604
 5175TIP3    H237085   2.351   4.578   7.883  0.0145 -2.1111 -0.2987
 5176TIP3   OH237086   3.495   0.689   8.397  0.3262  0.0008 -0.1131
 5176TIP3    H137087   3.410   0.652   8.424  0.4917 -0.4326 -0.1728
 5176TIP3    H237088   3.536   0.619   8.346 -0.5084  1.2636 -2.6255
 5177TIP3   OH237089   2.749   4.493   8.967  0.0180  0.2388 -0.4307
 5177TIP3    H137090   2.803   4.571   8.956  0.2986  0.4404  1.9527
 5177TIP3    H237091   2.661   4.521   8.944 -0.0208  1.5077  1.0954
 5178TIP3   OH237092   1.514   2.039   2.393  0.1987 -0.3622  0.0547
 5178TIP3    H137093   1.514   2.068   2.301 -0.3847  0.6940  0.3725
 5178TIP3    H237094   1.558   1.954   2.391  1.8718  0.4602 -0.9594
 5179TIP3   OH237095   1.150   4.136   1.102 -0.0450 -0.5317  0.1229
 5179TIP3    H137096   1.133   4.045   1.125 -3.5929 -0.5751 -1.9761
 5179TIP3    H237097   1.174   4.134   1.010  1.9395  0.5669  0.5573
 5180TIP3   OH237098   0.822   5.211   8.441  0.1977  0.2843 -0.1586
 5180TIP3    H137099   0.889   5.211   8.372  0.4052  2.4685 -0.0348
 5180TIP3    H237100   0.784   5.124   8.438  1.1114 -0.0929 -2.1553
 5181TIP3   OH237101   5.001   1.270   0.228  0.3361  0.0175 -0.3352
 5181TIP3    H137102   5.040   1.311   0.305 -0.7641  1.8896 -0.7310
 5181TIP3    H237103   4.969   1.342   0.175  0.7433 -1.2460 -2.4174
 5182TIP3   OH237104   3.438   2.001   0.367 -0.7691  0.1332 -0.3535
 5182TIP3    H137105   3.501   1.987   0.296  0.5229  2.0534  0.3286
 5182TIP3    H237106   3.474   1.950   0.440  0.2097  1.4257  0.1118
 5183TIP3   OH237107   5.410   3.755   1.661  0.3459  0.4690  0.4484
 5183TIP3    H137108   5.449   3.676   1.699 -1.5789  0.0341  1.6952
 5183TIP3    H237109   5.321   3.729   1.637 -0.7569  2.4709  1.9591
 5184TIP3   OH237110   0.162   1.353   1.537 -0.2369  0.0784 -0.0875
 5184TIP3    H137111   0.233   1.299   1.571  0.0904 -0.5993 -1.7518
 5184TIP3    H237112   0.127   1.398   1.614  0.5880 -1.2122  1.0849
 5185TIP3   OH237113   4.485   3.087   8.490  0.0465  0.6903  0.3914
 5185TIP3    H137114   4.501   3.178   8.512  1.3820  0.0815  2.2676
 5185TIP3    H237115   4.452   3.048   8.572  1.2157 -0.8428  0.1930
 5186TIP3   OH237116   0.550   0.460   7.684 -0.1900  0.2950 -0.3185
 5186TIP3    H137117   0.477   0.401   7.665 -0.2447  0.5473 -0.9290
 5186TIP3    H237118   0.539   0.484   7.776 -1.4539  1.1173 -0.6525
 5187TIP3   OH237119   6.610   4.888   3.052 -0.6635  0.4512 -1.0044
 5187TIP3    H137120   6.622   4.944   3.129 -0.7972 -0.5431 -0.2407
 5187TIP3    H237121   6.528   4.841   3.069 -0.3935 -0.2084 -1.4742
 5188TIP3   OH237122   2.845   3.672   0.097 -0.9323  0.1841 -0.0470
 5188TIP3    H137123   2.930   3.700   0.131 -1.0538  1.4012 -0.6855
 5188TIP3    H237124   2.811   3.612   0.163  0.9819 -1.3332 -0.3761
 5189TIP3   OH237125   0.605   0.837   1.458  0.4363 -0.5358 -0.0050
 5189TIP3    H137126   0.641   0.868   1.375  2.3411  0.3692  1.0932
 5189TIP3    H237127   0.642   0.750   1.469 -0.0126 -0.7561 -0.1963
 5190TIP3   OH237128   3.200   0.091   1.378 -0.2710  0.0269  0.2295
 5190TIP3    H137129   3.220   0.003   1.348 -0.9752  0.2323 -0.9055
 5190TIP3    H237130   3.105   0.095   1.381 -0.2507  0.8185  0.0494
 5191TIP3   OH237131   1.332   1.956   0.604  0.4084  0.4016 -0.1823
 5191TIP3    H137132   1.326   1.958   0.508  1.7870  0.2851 -0.2886
 5191TIP3    H237133   1.295   2.040   0.631 -2.7389 -0.7190 -0.5822
 5192TIP3   OH237134   0.116   4.054   8.197 -0.0807 -0.0400  0.1560
 5192TIP3    H137135   0.185   4.058   8.263 -0.0939 -0.5426  0.2064
 5192TIP3    H237136   0.143   4.116   8.130  1.5939 -1.8277 -0.9295
 5193TIP3   OH237137   6.201   4.562   2.644  0.3637  0.2150 -0.2890
 5193TIP3    H137138   6.198   4.596   2.554  1.3580 -0.7015 -0.6877
 5193TIP3    H237139   6.292   4.574   2.671  0.1323  0.2404  0.5099
 5194TIP3   OH237140   5.269   4.012   2.809  0.0724  0.2460  1.2097
 5194TIP3    H137141   5.290   3.958   2.885  2.0638 -3.4035 -1.6000
 5194TIP3    H237142   5.177   3.993   2.790  0.3813 -1.1676  1.0529
 5195TIP3   OH237143   0.526   3.057   8.450  0.1707  0.5459 -0.2613
 5195TIP3    H137144   0.457   3.022   8.506 -0.0602  1.6051  0.1416
 5195TIP3    H237145   0.486   3.063   8.363  0.5857 -1.2661 -0.6133
 5196TIP3   OH237146   1.626   1.196   8.811 -0.2444 -0.0771  0.4025
 5196TIP3    H137147   1.647   1.216   8.903  0.7514 -0.2405  0.2220
 5196TIP3    H237148   1.685   1.251   8.760 -0.0523 -0.7484 -0.1265
 5197TIP3   OH237149   0.912   2.700   7.958 -0.0022 -0.2969  0.1661
 5197TIP3    H137150   0.846   2.682   7.891  1.7763 -2.0286 -1.2179
 5197TIP3    H237151   0.924   2.794   7.955 -0.7217 -0.2251 -1.2064
 5198TIP3   OH237152   4.695   4.644   8.044 -0.0555 -0.0505 -0.0082
 5198TIP3    H137153   4.667   4.666   7.955  0.1683  0.3437  0.0123
 5198TIP3    H237154   4.779   4.601   8.033  1.1438  2.0900  0.1105
 5199TIP3   OH237155   3.241   1.813   8.099 -0.3640 -0.5763 -0.1592
 5199TIP3    H137156   3.163   1.826   8.152 -0.4444  0.2184 -0.4559
 5199TIP3    H237157   3.209   1.777   8.016 -0.3132 -1.1406  0.0641
 5200TIP3   OH237158   4.454   6.468   0.937  0.3682 -0.1951 -0.3192
 5200TIP3    H137159   4.537   6.491   0.894 -0.6273  0.9201 -1.7494
 5200TIP3    H237160   4.410   6.412   0.873 -0.7198  0.6707 -0.3475
 5201TIP3   OH237161   6.201   5.683   0.523 -0.0708 -0.3684  0.0409
 5201TIP3    H137162   6.134   5.616   0.539 -0.2288 -0.2067  0.0615
 5201TIP3    H237163   6.194   5.703   0.430 -0.9977  0.6418  0.3010
 5202TIP3   OH237164   3.641   3.072   0.869 -0.1780  0.2023 -0.3478
 5202TIP3    H137165   3.669   3.144   0.924 -0.8086 -0.4707  0.8861
 5202TIP3    H237166   3.558   3.042   0.907 -0.6792 -0.2339 -1.7065
 5203TIP3   OH237167   1.787   2.077   1.591 -0.0254 -0.2308 -0.0327
 5203TIP3    H137168   1.830   2.162   1.599  0.0598 -0.2859  0.0780
 5203TIP3    H237169   1.856   2.017   1.564 -0.2875 -0.0544 -1.1810
 5204TIP3   OH237170   4.248   3.285   1.453  0.1784  0.2064  0.0331
 5204TIP3    H137171   4.313   3.222   1.483 -0.9711 -0.4853  1.1536
 5204TIP3    H237172   4.241   3.270   1.359  0.9440 -0.3366  0.0558
 5205TIP3   OH237173   4.165   1.225   7.010  0.0145 -0.4291 -0.1417
 5205TIP3    H137174   4.125   1.199   7.093 -0.5461 -1.6553 -0.7586
 5205TIP3    H237175   4.104   1.289   6.973  0.1569 -0.0447  0.2864
 5206TIP3   OH237176   4.302   5.231   3.409 -0.0440 -0.5093  0.3254
 5206TIP3    H137177   4.370   5.176   3.371  0.0194  0.0811 -0.4674
 5206TIP3    H237178   4.346   5.314   3.429 -0.4530 -0.2260  0.0869
 5207TIP3   OH237179   1.521   0.162   0.200 -0.5571  0.3061  0.3383
 5207TIP3    H137180   1.432   0.193   0.185 -1.0159 -0.8179  0.6352
 5207TIP3    H237181   1.545   0.196   0.287 -1.1858 -0.4412  0.8148
 5208TIP3   OH237182   3.413   6.275   3.313  0.0669  0.5307 -0.2564
 5208TIP3    H137183   3.341   6.332   3.286  0.2730  0.0284 -1.9371
 5208TIP3    H237184   3.485   6.335   3.332 -0.5809  0.9952  0.8794
 5209TIP3   OH237185   4.617   1.317   8.202 -0.1767  0.1766 -0.1094
 5209TIP3    H137186   4.566   1.277   8.132  1.9358  1.2529 -2.3807
 5209TIP3    H237187   4.582   1.406   8.209 -2.4871 -0.7560  2.5309
 5210TIP3   OH237188   5.925   4.198   7.862  0.0271  0.0737 -0.0924
 5210TIP3    H137189   5.919   4.203   7.766  0.2895  0.2941 -0.1007
 5210TIP3    H237190   6.007   4.152   7.878  0.8105  1.4664  0.0308
 5211TIP3   OH237191   4.467   3.861   2.303  0.0583 -0.0195 -0.2395
 5211TIP3    H137192   4.477   3.943   2.352  1.4395 -0.0643 -0.3954
 5211TIP3    H237193   4.467   3.793   2.370 -0.4812  0.0681 -0.1489
 5212TIP3   OH237194   0.276   0.242   1.132 -0.3012  0.4439 -0.0556
 5212TIP3    H137195   0.347   0.303   1.112  0.6422 -0.1496  1.3508
 5212TIP3    H237196   0.216   0.293   1.187 -1.4045  1.1777 -1.8516
 5213TIP3   OH237197   2.470   1.529   8.968  0.3682 -0.1054 -0.0309
 5213TIP3    H137198   2.563   1.504   8.967  0.7153  1.0572  0.9063
 5213TIP3    H237199   2.440   1.505   9.055  0.8668  3.0256  1.1421
 5214TIP3   OH237200   6.124   3.725   8.842 -0.0700 -0.3474  0.3882
 5214TIP3    H137201   6.144   3.640   8.881  0.2746 -1.1382 -1.4010
 5214TIP3    H237202   6.181   3.787   8.888  1.0199 -1.3857  0.4790
 5215TIP3   OH237203   3.308   4.880   8.012  0.5070 -0.1358  0.2708
 5215TIP3    H137204   3.302   4.803   7.955  0.0881  0.0793  0.0219
 5215TIP3    H237205   3.394   4.917   7.992  0.8002 -0.6599  0.5503
 5216TIP3   OH237206   5.672   2.320   0.469  0.4999  0.5271  0.3174
 5216TIP3    H137207   5.638   2.311   0.558  0.7075 -2.5947  0.1808
 5216TIP3    H237208   5.763   2.289   0.475  0.7265  0.9128 -0.8754
 5217TIP3   OH237209   1.081   3.483   3.499 -0.4020  0.5733 -0.3544
 5217TIP3    H137210   1.108   3.401   3.541 -1.6467  0.0936 -0.4515
 5217TIP3    H237211   1.118   3.552   3.556  0.6002 -0.0348 -0.2388
 5218TIP3   OH237212   5.822   3.437   2.094  0.3132  0.5469 -0.2117
 5218TIP3    H137213   5.807   3.353   2.049  2.2717 -0.5229  0.9874
 5218TIP3    H237214   5.898   3.475   2.050 -0.2978  1.5239 -0.4588
 5219TIP3   OH237215   2.197   2.187   2.115  0.2414  0.1194 -0.5633
 5219TIP3    H137216   2.108   2.222   2.113  0.4012  1.2454  3.2173
 5219TIP3    H237217   2.253   2.264   2.112  1.0906 -0.5258 -1.9534
 5220TIP3   OH237218   0.309   1.979   0.191 -0.4179 -0.3183 -0.2321
 5220TIP3    H137219   0.271   1.895   0.215 -0.1551 -0.9175 -1.7556
 5220TIP3    H237220   0.327   1.971   0.097 -0.9690  1.6774 -0.5490
 5221TIP3   OH237221   3.798   6.097   2.126  0.3696 -0.2390 -0.2238
 5221TIP3    H137222   3.765   6.169   2.180  0.5526  1.4272 -2.2204
 5221TIP3    H237223   3.747   6.021   2.155 -1.2281  1.0852  0.6427
 5222TIP3   OH237224   5.737   2.661   0.241 -0.8176 -0.0429  0.0786
 5222TIP3    H137225   5.801   2.601   0.280 -0.1173  0.6562  0.0268
 5222TIP3    H237226   5.761   2.663   0.148  1.0033  2.4607  0.4910
 5223TIP3   OH237227   2.513   4.187   0.667  0.3593  0.4960 -0.0530
 5223TIP3    H137228   2.553   4.127   0.604 -0.7575 -1.0371  0.5980
 5223TIP3    H237229   2.429   4.211   0.627  0.5719  1.2282 -0.0720
 5224TIP3   OH237230   3.861   2.170   3.195  0.4696  0.0997 -0.1602
 5224TIP3    H137231   3.820   2.232   3.256  0.8843 -0.2147  0.4456
 5224TIP3    H237232   3.836   2.203   3.108  0.3229  0.8686  0.1599
 5225TIP3   OH237233   2.174   4.848   0.311 -0.0444  0.2702  0.2537
 5225TIP3    H137234   2.163   4.901   0.390 -1.1999  0.1886  0.1743
 5225TIP3    H237235   2.243   4.786   0.333 -1.1722 -0.5620  1.6640
 5226TIP3   OH237236   5.796   5.615   1.145 -0.0020  0.0627 -0.2398
 5226TIP3    H137237   5.836   5.597   1.230  0.5622 -0.9382 -0.6999
 5226TIP3    H237238   5.808   5.534   1.096 -2.3263 -0.1710 -0.5110
 5227TIP3   OH237239   6.053   1.458   8.333  0.2398  0.2954 -0.6596
 5227TIP3    H137240   6.053   1.497   8.246 -2.9482 -1.0224 -1.3766
 5227TIP3    H237241   6.051   1.364   8.317 -2.4915  0.0391  0.6904
 5228TIP3   OH237242   4.489   1.873   0.975 -0.0924 -0.0092  0.9397
 5228TIP3    H137243   4.434   1.871   0.897  1.2818 -0.1822 -0.0786
 5228TIP3    H237244   4.477   1.788   1.016 -1.0511  0.1923  1.0842
 5229TIP3   OH237245   1.544   4.706   3.564  0.5147 -0.1626 -0.0802
 5229TIP3    H137246   1.489   4.779   3.535  0.0287  0.2212  1.6658
 5229TIP3    H237247   1.572   4.732   3.652  2.0671 -1.1563 -0.2612
 5230TIP3   OH237248   2.587   3.979   1.932 -0.1952  0.0100  0.1190
 5230TIP3    H137249   2.503   3.936   1.948 -1.1238  2.0222  1.0215
 5230TIP3    H237250   2.626   3.989   2.019 -0.2803  1.4212  0.0274
 5231TIP3   OH237251   2.986   5.119   1.047  0.0543 -0.9074  0.2678
 5231TIP3    H137252   2.899   5.095   1.017 -0.8471 -0.6833  2.5325
 5231TIP3    H237253   3.014   5.189   0.988 -1.2498 -1.0134 -0.5056
 5232TIP3   OH237254   6.194   5.124   0.819  0.0749 -0.1765 -0.3564
 5232TIP3    H137255   6.157   5.192   0.875  3.4216 -0.8926  3.1860
 5232TIP3    H237256   6.185   5.043   0.870  1.3675 -1.2972 -1.8033
 5233TIP3   OH237257   1.311   1.509   1.033 -0.1984  0.5553  0.1236
 5233TIP3    H137258   1.276   1.420   1.041  1.8713 -0.3104  0.3688
 5233TIP3    H237259   1.316   1.541   1.123  3.5889 -1.0828  0.7137
 5234TIP3   OH237260   1.533   6.680   1.045 -0.0077  0.6348  0.1211
 5234TIP3    H137261   1.466   6.620   1.080 -1.6237  1.7667 -0.9326
 5234TIP3    H237262   1.491   6.724   0.972  2.5914 -0.1024 -1.9728
 5235TIP3   OH237263   5.101   6.177   8.271  0.2658  0.4088  0.2539
 5235TIP3    H137264   5.033   6.217   8.217 -0.4610 -2.6808 -1.3538
 5235TIP3    H237265   5.054   6.138   8.345  0.2743 -1.2343 -0.5587
 5236TIP3   OH237266   6.513   5.875   0.395 -0.0020  0.4987 -0.4955
 5236TIP3    H137267   6.459   5.827   0.457  1.5914 -0.5830  0.1039
 5236TIP3    H237268   6.471   5.860   0.310 -1.7548  1.3513  0.1556
 5237TIP3   OH237269   4.154   2.423   2.719 -0.7424 -0.0071  0.4533
 5237TIP3    H137270   4.234   2.419   2.771  0.6840 -0.4574 -1.6393
 5237TIP3    H237271   4.148   2.514   2.691 -0.3261 -0.1899 -0.2685
 5238TIP3   OH237272   4.789   2.513   2.134 -0.0073  0.0815  0.0974
 5238TIP3    H137273   4.832   2.537   2.052  1.8254 -1.7421  0.4237
 5238TIP3    H237274   4.736   2.436   2.112 -0.2443  0.1409  0.4474
 5239TIP3   OH237275   1.863   0.440   7.303 -0.5969  0.3823 -0.4227
 5239TIP3    H137276   1.852   0.345   7.292 -1.8411  0.4634 -0.0315
 5239TIP3    H237277   1.807   0.478   7.236 -0.6864  0.8398 -0.0897
 5240TIP3   OH237278   6.652   0.225   1.095  0.1208 -0.3857 -0.0218
 5240TIP3    H137279   6.699   0.222   1.012  0.3382 -1.4160  0.1166
 5240TIP3    H237280   6.659   0.135   1.129  0.8601  0.2402  1.5671
 5241TIP3   OH237281   2.751   2.789   7.994  0.0611  0.4656 -0.3602
 5241TIP3    H137282   2.783   2.854   7.932  1.5207 -0.1924 -0.3442
 5241TIP3    H237283   2.709   2.840   8.063  1.6292  1.4615 -0.0780
 5242TIP3   OH237284   1.343   3.859   1.929  0.2964  0.1444 -0.0645
 5242TIP3    H137285   1.421   3.872   1.875 -1.3583 -0.2493 -2.6861
 5242TIP3    H237286   1.342   3.765   1.947  1.4126  0.4171  1.6714
 5243TIP3   OH237287   3.626   3.703   2.619  0.0536  0.1175 -0.3973
 5243TIP3    H137288   3.653   3.766   2.552  0.5844 -0.1053 -0.3910
 5243TIP3    H237289   3.616   3.620   2.573  2.1131 -0.4440  0.0876
 5244TIP3   OH237290   4.918   5.521   8.985  0.5883 -0.4643 -0.1208
 5244TIP3    H137291   4.974   5.448   8.958  0.7061 -0.4309  0.0330
 5244TIP3    H237292   4.877   5.551   8.904  1.7005  0.2865 -0.4202
 5245TIP3   OH237293   5.161   4.029   1.861  0.0135 -0.9481  0.1872
 5245TIP3    H137294   5.106   3.954   1.838  0.5489 -1.8397  1.6699
 5245TIP3    H237295   5.233   3.991   1.911  1.0992  0.4018 -0.2878
 5246TIP3   OH237296   0.059   3.763   2.489 -0.1716 -0.2789 -0.4194
 5246TIP3    H137297   0.133   3.822   2.470 -0.8681  0.7990  0.1349
 5246TIP3    H237298   0.017   3.801   2.566 -0.7046 -1.4595 -0.1146
 5247TIP3   OH237299   2.697   1.563   3.442  0.2524 -0.7374  0.3544
 5247TIP3    H137300   2.680   1.622   3.515 -2.4489 -0.2725 -0.5427
 5247TIP3    H237301   2.774   1.599   3.399 -1.0657  1.9693  0.0678
 5248TIP3   OH237302   0.007   4.172   0.867 -0.1802  0.8755 -0.5087
 5248TIP3    H137303  -0.038   4.233   0.925 -2.5251 -1.8152  0.7413
 5248TIP3    H237304  -0.049   4.164   0.791 -0.3688 -0.3109 -0.2710
 5249TIP3   OH237305   0.352   0.581   2.482 -0.2326 -0.3055 -0.0669
 5249TIP3    H137306   0.338   0.611   2.392 -1.0757  1.6343  0.6460
 5249TIP3    H237307   0.278   0.523   2.500 -1.3441  1.1090  0.0765
 5250TIP3   OH237308   0.833   5.799   0.103 -0.3088  0.1573 -0.2204
 5250TIP3    H137309   0.859   5.887   0.075  0.2692  0.5694  1.4771
 5250TIP3    H237310   0.780   5.766   0.031  0.1392  1.5747 -1.2561
 5251TIP3   OH237311   5.853   3.912   2.451 -1.0340 -0.3830 -0.4500
 5251TIP3    H137312   5.826   3.981   2.511  1.2508  0.2884 -0.0992
 5251TIP3    H237313   5.845   3.831   2.501 -0.7728 -0.0140  0.1869
 5252TIP3   OH237314   3.920   4.126   8.245 -0.0778  0.8092 -0.6379
 5252TIP3    H137315   3.984   4.116   8.174  0.8101 -1.3727  0.3706
 5252TIP3    H237316   3.890   4.037   8.262 -2.0535  1.5889  0.1567
 5253TIP3   OH237317   6.335   0.537   2.387 -0.4473 -0.1535 -0.4846
 5253TIP3    H137318   6.365   0.456   2.429  1.9447  0.8904 -0.0396
 5253TIP3    H237319   6.298   0.589   2.458 -0.7250 -0.2847 -0.5307
 5254TIP3   OH237320   2.736   2.645   2.566  0.7940  0.4143  0.2203
 5254TIP3    H137321   2.678   2.600   2.627 -0.0260  1.7940  0.4866
 5254TIP3    H237322   2.822   2.604   2.581  0.4909  0.3059  1.8756
 5255TIP3   OH237323   5.013   0.579   0.044 -0.4499 -0.1741  0.2937
 5255TIP3    H137324   4.925   0.591   0.079  0.5089  0.5698  2.6654
 5255TIP3    H237325   5.042   0.667   0.020  0.4258 -0.0633  1.6492
 5256TIP3   OH237326   6.193   0.454   2.186 -0.4984  0.2392  0.0133
 5256TIP3    H137327   6.175   0.364   2.214 -0.6532  0.5138  0.8336
 5256TIP3    H237328   6.250   0.489   2.255 -0.8248  0.9140 -0.0486
 5257TIP3   OH237329   5.635   2.019   2.367 -0.5008  0.2006 -0.0624
 5257TIP3    H137330   5.591   1.935   2.377 -1.4689  0.6229 -0.5760
 5257TIP3    H237331   5.686   2.011   2.286 -1.3464  0.4014 -0.6350
 5258TIP3   OH237332   0.112   1.349   0.010 -0.1140  0.0631  0.2838
 5258TIP3    H137333   0.035   1.406  -0.002 -0.2924 -0.5097 -1.7279
 5258TIP3    H237334   0.103   1.283  -0.059  3.3473  1.3059 -1.6135
 5259TIP3   OH237335   4.506   2.420   1.050  0.3399  0.6239  0.2909
 5259TIP3    H137336   4.537   2.340   1.008 -1.5013 -0.2711  0.5305
 5259TIP3    H237337   4.417   2.399   1.080 -0.4339  2.9139 -0.1369
 5260TIP3   OH237338   5.264   5.182   0.249 -0.2112  0.0264 -0.0826
 5260TIP3    H137339   5.223   5.118   0.192  1.7915 -1.8032  0.3787
 5260TIP3    H237340   5.298   5.249   0.190 -1.8619  0.4190 -0.6236
 5261TIP3   OH237341   1.024   5.920   0.825  0.0917 -0.1013  0.2266
 5261TIP3    H137342   1.094   5.984   0.828 -0.4243  0.4960 -0.0774
 5261TIP3    H237343   1.042   5.868   0.746  1.1233 -1.0674  1.0792
 5262TIP3   OH237344   2.607   4.559   2.021 -0.0799  0.7833  0.0225
 5262TIP3    H137345   2.531   4.614   1.999 -0.4448  1.5136  2.7141
 5262TIP3    H237346   2.570   4.486   2.070  0.9045  0.8619  0.9006
 5263TIP3   OH237347   1.866   2.452   2.355  0.3759  0.0573  0.4850
 5263TIP3    H137348   1.825   2.535   2.380  0.4604 -0.3932  2.2645
 5263TIP3    H237349   1.803   2.385   2.383  1.1370 -0.5465  0.7973
 5264TIP3   OH237350   1.121   5.853   1.116 -0.5275  0.0728 -0.0931
 5264TIP3    H137351   1.069   5.913   1.062  0.6435  0.6270 -0.6424
 5264TIP3    H237352   1.201   5.838   1.065 -0.6070 -1.6354  0.2323
 5265TIP3   OH237353   1.996   1.968   7.424 -0.0480 -0.1359 -0.6618
 5265TIP3    H137354   1.992   1.873   7.431 -0.9548 -0.0905 -0.4770
 5265TIP3    H237355   1.983   1.986   7.331  1.7452 -0.2507 -0.9737
 5266TIP3   OH237356   2.922   1.678   8.765  0.1178 -0.1645  0.0114
 5266TIP3    H137357   2.944   1.605   8.708 -1.4998  0.1296 -1.0483
 5266TIP3    H237358   2.859   1.643   8.827 -1.5996  0.5475 -1.2505
 5267TIP3   OH237359   2.523   2.094   1.087  0.1866  0.1413  0.0192
 5267TIP3    H137360   2.475   2.092   1.004 -0.8221  1.3860  0.5466
 5267TIP3    H237361   2.487   2.021   1.138 -0.8271  0.7742  0.2257
 5268TIP3   OH237362   5.044   4.299   1.916 -0.5059 -0.2582 -0.1076
 5268TIP3    H137363   5.071   4.208   1.914  0.2328 -0.0468 -0.1752
 5268TIP3    H237364   4.976   4.303   1.984  0.0160 -0.7108  0.4437
 5269TIP3   OH237365   6.254   5.714   7.269 -0.4172  0.0139 -0.2356
 5269TIP3    H137366   6.240   5.685   7.359  0.3020  1.0345  0.2225
 5269TIP3    H237367   6.297   5.798   7.277 -3.2156  1.7139 -1.4889
 5270TIP3   OH237368   5.282   3.300   3.257 -0.0817  0.4130  0.1655
 5270TIP3    H137369   5.290   3.327   3.348  0.8538  1.1060 -0.1099
 5270TIP3    H237370   5.216   3.230   3.259 -1.0017  1.2714  1.1789
 5271TIP3   OH237371   5.883   4.474   1.750  0.3431 -0.4231 -0.0132
 5271TIP3    H137372   5.808   4.435   1.705  0.7937 -0.5520 -0.6578
 5271TIP3    H237373   5.900   4.556   1.702  0.4391 -0.2518  0.3074
 5272TIP3   OH237374   1.662   3.021   1.577 -0.0663 -0.3169 -0.1181
 5272TIP3    H137375   1.658   2.940   1.525  0.9873 -0.9799  0.8067
 5272TIP3    H237376   1.668   3.091   1.511 -3.2047 -0.7430 -1.0251
 5273TIP3   OH237377   2.727   0.225   8.765  0.0228  0.4364  0.0899
 5273TIP3    H137378   2.735   0.281   8.842 -0.1531  1.9837 -0.9851
 5273TIP3    H237379   2.634   0.227   8.743  0.1972  0.6911 -0.6518
 5274TIP3   OH237380   2.968   1.671   1.248  0.2023  0.2445  0.6358
 5274TIP3    H137381   2.937   1.761   1.260 -0.7211 -0.0031  0.2273
 5274TIP3    H237382   3.007   1.647   1.332 -0.8449  0.5464  1.2280
 5275TIP3   OH237383   5.020   3.808   8.655  0.1213  0.4043  0.2392
 5275TIP3    H137384   5.024   3.714   8.638  2.1032  0.3758  0.6067
 5275TIP3    H237385   5.007   3.815   8.750 -3.5603  0.5688 -0.1435
 5276TIP3   OH237386   4.613   5.619   8.105 -0.3573 -0.1397 -0.4361
 5276TIP3    H137387   4.540   5.652   8.158  1.2714  0.7372  1.4337
 5276TIP3    H237388   4.645   5.543   8.154  0.5236  0.0346 -0.7291
 5277TIP3   OH237389   1.372   0.207   1.662  0.0244  0.1022  0.2618
 5277TIP3    H137390   1.332   0.226   1.747  0.6489  0.1960  0.5405
 5277TIP3    H237391   1.311   0.148   1.619  1.1797 -2.6453  2.1188
 5278TIP3   OH237392   0.205   5.137   1.994  0.0565 -0.1298  0.0374
 5278TIP3    H137393   0.198   5.042   1.985  2.0788 -0.6580  2.6705
 5278TIP3    H237394   0.121   5.164   2.030 -0.7284 -0.7939 -1.2154
 5279TIP3   OH237395   1.107   2.654   2.145 -0.3570  0.3908 -0.3304
 5279TIP3    H137396   1.117   2.726   2.083 -0.5004  0.4422 -0.2942
 5279TIP3    H237397   1.144   2.687   2.227  1.0075 -0.1252 -0.7124
 5280TIP3   OH237398   5.209   5.005   8.827 -0.7710 -0.6938 -0.4580
 5280TIP3    H137399   5.228   4.913   8.806  0.1265 -0.6289  0.0007
 5280TIP3    H237400   5.149   5.033   8.758 -4.0722 -2.6347  1.4029
 5281TIP3   OH237401   2.057   1.194   8.414 -0.2045 -0.6162 -0.2500
 5281TIP3    H137402   2.152   1.191   8.406 -0.0845  1.1047  0.1030
 5281TIP3    H237403   2.040   1.183   8.508 -0.1241  1.8964  0.1243
 5282TIP3   OH237404   6.387   0.524   1.748  1.1952  0.0707 -0.1139
 5282TIP3    H137405   6.455   0.585   1.776  1.2387 -0.1933  0.3665
 5282TIP3    H237406   6.341   0.570   1.678  0.4857  1.1441  1.0175
 5283TIP3   OH237407   0.480   1.554   7.521  0.5720 -0.1257  0.4283
 5283TIP3    H137408   0.453   1.465   7.545  2.0134 -0.4863  0.8294
 5283TIP3    H237409   0.556   1.571   7.575  0.2984  1.3888  0.3743
 5284TIP3   OH237410   0.456   1.333   8.923 -0.4380  1.0366 -0.6561
 5284TIP3    H137411   0.528   1.343   8.860  0.7383 -2.4200 -0.0761
 5284TIP3    H237412   0.434   1.240   8.920  0.3808  0.3371  4.6501
 5285TIP3   OH237413   5.488   1.785   2.498  0.3323 -0.4849  0.0134
 5285TIP3    H137414   5.505   1.819   2.586  0.2709 -2.2968  0.7663
 5285TIP3    H237415   5.419   1.720   2.511 -1.2891  0.7817 -1.7403
 5286TIP3   OH237416   3.120   2.546   2.113 -0.0267 -0.0873 -0.2945
 5286TIP3    H137417   3.116   2.501   2.028  0.7856 -1.6464  0.4479
 5286TIP3    H237418   3.208   2.527   2.146 -1.1351 -1.6727  2.0172
 5287TIP3   OH237419   6.372   5.015   3.624  0.1533  0.2135  0.1759
 5287TIP3    H137420   6.431   4.959   3.574 -0.3195 -0.5481  0.4584
 5287TIP3    H237421   6.421   5.035   3.704 -0.1664 -0.8745  0.6641
 5288TIP3   OH237422   3.854   3.668   2.453  0.2389 -0.4581 -0.3338
 5288TIP3    H137423   3.857   3.647   2.546  0.2906 -1.5152 -0.5672
 5288TIP3    H237424   3.946   3.678   2.427  0.1940  0.9105 -0.0539
 5289TIP3   OH237425   5.051   5.620   3.334  0.0335 -0.3080 -0.2620
 5289TIP3    H137426   5.107   5.579   3.267 -0.2262 -2.1712  0.5886
 5289TIP3    H237427   5.088   5.707   3.346  1.8611 -0.9524 -0.7784
 5290TIP3   OH237428   3.345   1.832   8.376 -0.2794 -0.3351  0.0576
 5290TIP3    H137429   3.438   1.815   8.390 -0.8716 -2.3855  2.1626
 5290TIP3    H237430   3.343   1.904   8.313  2.7252  0.4264  0.6627
 5291TIP3   OH237431   6.013   0.855   2.489  0.1054  0.1096  0.4588
 5291TIP3    H137432   5.960   0.775   2.495  0.0051  0.2475  1.7019
 5291TIP3    H237433   6.042   0.858   2.398 -1.4326 -0.3513 -0.0796
 5292TIP3   OH237434   4.269   4.814   1.285  0.2285 -0.5872 -0.5058
 5292TIP3    H137435   4.274   4.886   1.348  0.6879  0.1758 -1.3923
 5292TIP3    H237436   4.215   4.848   1.213  0.6541 -1.0304 -1.0496
 5293TIP3   OH237437   5.396   5.929   8.192 -0.0364  0.1003 -0.5014
 5293TIP3    H137438   5.475   5.917   8.245 -0.3027 -0.8925 -0.3107
 5293TIP3    H237439   5.429   5.951   8.105  0.4151  1.2123 -0.0752
 5294TIP3   OH237440   2.026   3.428   1.490 -0.0041  0.6468 -0.1729
 5294TIP3    H137441   1.957   3.462   1.434  1.2092  0.8062 -1.6527
 5294TIP3    H237442   1.981   3.375   1.555 -1.4410 -0.1945 -1.7802
 5295TIP3   OH237443   2.991   5.641   2.981  0.3126 -0.3392 -0.4467
 5295TIP3    H137444   2.913   5.632   3.036  0.9307  0.1199  0.5392
 5295TIP3    H237445   3.028   5.726   3.006  1.6134 -0.9462 -0.2299
 5296TIP3   OH237446   1.361   1.673   0.520 -0.2077 -0.2579  0.0874
 5296TIP3    H137447   1.420   1.655   0.447 -0.9617 -1.2892 -0.2896
 5296TIP3    H237448   1.365   1.768   0.531  2.1945 -0.3403  0.6725
 5297TIP3   OH237449   0.546   5.386   1.326  0.6343  0.2861 -0.4147
 5297TIP3    H137450   0.519   5.471   1.361  0.4845  0.4605 -0.9578
 5297TIP3    H237451   0.611   5.355   1.389  0.8432  0.8930 -0.3251
 5298TIP3   OH237452   6.209   1.379   2.957 -0.3634  0.3562 -0.2156
 5298TIP3    H137453   6.290   1.398   3.005  0.0375  0.2227 -0.8341
 5298TIP3    H237454   6.151   1.339   3.022  0.2034  0.1021  0.1336
 5299TIP3   OH237455   6.252   0.923   8.533  0.1727  0.5206  1.1263
 5299TIP3    H137456   6.289   1.011   8.539  0.0401  0.7533 -0.7887
 5299TIP3    H237457   6.226   0.902   8.622 -0.5545  2.7521  1.5062
 5300TIP3   OH237458   6.345   6.440   0.894  0.8431 -0.3357  0.5958
 5300TIP3    H137459   6.275   6.447   0.828  0.6190 -1.3184  0.7167
 5300TIP3    H237460   6.356   6.346   0.907  0.3024 -0.1713  2.5758
 5301TIP3   OH237461   2.088   2.149   8.708  0.0550  0.3040 -0.1554
 5301TIP3    H137462   2.058   2.171   8.620 -0.1241 -0.0518 -0.1848
 5301TIP3    H237463   2.152   2.080   8.695 -0.8100 -0.5543  0.0697
 5302TIP3   OH237464   1.151   0.722   7.492 -0.0123  0.1187 -0.1624
 5302TIP3    H137465   1.170   0.789   7.427 -0.8823  1.1062  0.5702
 5302TIP3    H237466   1.236   0.698   7.528  0.3856  0.2050 -1.0340
 5303TIP3   OH237467   4.426   1.209   2.107  0.2889 -0.0485 -0.1013
 5303TIP3    H137468   4.464   1.141   2.162  0.5731  1.4570  1.6293
 5303TIP3    H237469   4.356   1.246   2.160 -0.0874  0.7892 -1.1558
 5304TIP3   OH237470   0.744   5.735   7.686 -0.5047 -0.6515  0.4289
 5304TIP3    H137471   0.714   5.820   7.653  2.5716  1.5221  2.5747
 5304TIP3    H237472   0.797   5.699   7.615 -0.3255  0.1722  0.1308
 5305TIP3   OH237473   2.100   6.528   7.601  1.0366 -0.1749 -0.1818
 5305TIP3    H137474   2.035   6.471   7.642  1.1985  0.3734  0.8602
 5305TIP3    H237475   2.181   6.478   7.603  1.2594  0.2037  1.0514
 5306TIP3   OH237476   4.061   1.177   8.823  0.0279  0.1082  0.1346
 5306TIP3    H137477   4.111   1.096   8.823  1.9911  1.2471 -0.5158
 5306TIP3    H237478   4.000   1.169   8.750  1.8086  0.0904 -1.4312
 5307TIP3   OH237479   4.567   3.088   0.905  0.2471 -0.0437  0.4180
 5307TIP3    H137480   4.599   3.062   0.992 -0.3921  0.4954  0.8201
 5307TIP3    H237481   4.495   3.028   0.887  0.1072  0.1187  0.4402
 5308TIP3   OH237482   0.974   1.265   1.098 -0.0755  0.4046  0.2951
 5308TIP3    H137483   0.928   1.193   1.141 -1.5730  1.5297  0.6687
 5308TIP3    H237484   1.066   1.239   1.098 -0.0137  0.1933  3.9405
 5309TIP3   OH237485   5.491   2.168   1.175 -0.5646  0.6025  0.0006
 5309TIP3    H137486   5.399   2.184   1.196 -0.5466 -0.4407  1.0234
 5309TIP3    H237487   5.496   2.073   1.165  0.5010  0.5879  0.5344
 5310TIP3   OH237488   5.877   0.364   0.443 -0.0841 -0.0179 -0.6188
 5310TIP3    H137489   5.897   0.454   0.470 -0.7955 -0.0386  0.0028
 5310TIP3    H237490   5.783   0.355   0.456  0.0893 -1.0816  0.0419
 5311TIP3   OH237491   1.784   3.366   2.951 -0.0956 -0.2343 -0.3356
 5311TIP3    H137492   1.851   3.430   2.927 -2.0166  1.4944 -1.4073
 5311TIP3    H237493   1.724   3.364   2.876 -2.3709 -0.0906  1.3395
 5312TIP3   OH237494   0.161   2.261   2.854 -0.0154 -0.2671 -0.0216
 5312TIP3    H137495   0.068   2.266   2.874  0.0193 -2.2138  0.8694
 5312TIP3    H237496   0.201   2.331   2.905 -0.7862 -0.6495  1.1538
 5313TIP3   OH237497   5.505   2.185   8.695  0.0946  0.3353 -0.5118
 5313TIP3    H137498   5.501   2.093   8.721 -1.8720  0.9680  1.8793
 5313TIP3    H237499   5.432   2.197   8.634 -1.6838  0.8260  1.5592
 5314TIP3   OH237500   3.467   4.782   8.911  0.7428  0.9948 -0.2161
 5314TIP3    H137501   3.527   4.709   8.896  1.9155  1.6918  0.9478
 5314TIP3    H237502   3.473   4.800   9.004 -2.5421  0.0617  0.3050
 5315TIP3   OH237503   5.899   1.936   8.632  0.0038 -0.2492  0.1360
 5315TIP3    H137504   5.878   1.979   8.715 -1.3907  1.1164 -0.8694
 5315TIP3    H237505   5.994   1.939   8.627  0.0798  0.2714  1.3492
 5316TIP3   OH237506   2.302   3.195   2.859  0.3985 -0.0393  0.6270
 5316TIP3    H137507   2.276   3.120   2.807 -2.5147  0.7318  0.8090
 5316TIP3    H237508   2.272   3.175   2.948 -1.5961  1.7676  0.4445
 5317TIP3   OH237509   1.676   1.277   2.889 -0.1289 -0.3727  0.0999
 5317TIP3    H137510   1.735   1.205   2.866 -1.0208 -1.0190 -0.1856
 5317TIP3    H237511   1.642   1.252   2.975  0.5857  0.3835  0.6267
 5318TIP3   OH237512   2.117   4.342   0.959 -0.0660  0.2204 -0.2257
 5318TIP3    H137513   2.167   4.263   0.979  0.5644  0.9242  1.1187
 5318TIP3    H237514   2.033   4.328   1.003 -0.1235  0.0950 -0.3769
 5319TIP3   OH237515   3.205   1.865   2.723  0.1813 -0.0733  0.8374
 5319TIP3    H137516   3.127   1.841   2.674  0.1102 -1.8539  1.7449
 5319TIP3    H237517   3.175   1.872   2.814  1.1504 -1.2791  1.2706
 5320TIP3   OH237518   3.020   4.371   8.805 -0.4390  0.5423  0.0015
 5320TIP3    H137519   3.064   4.339   8.884  0.5396  2.1039  0.1212
 5320TIP3    H237520   2.953   4.305   8.787  0.7327 -0.9617  0.8800
 5321TIP3   OH237521   1.075   2.504   7.877  1.5117 -0.0303  0.2857
 5321TIP3    H137522   1.029   2.569   7.929  0.6829 -0.6364  0.3365
 5321TIP3    H237523   1.060   2.530   7.786 -0.1325 -0.9749  0.2480
 5322TIP3   OH237524   2.885   0.784   8.322 -0.2260 -0.5241 -0.2523
 5322TIP3    H137525   2.962   0.840   8.334 -1.4650  1.0715  0.5951
 5322TIP3    H237526   2.886   0.764   8.228 -0.8674  2.7430 -1.1077
 5323TIP3   OH237527   2.780   1.082   3.300 -0.0260 -0.3132 -0.4804
 5323TIP3    H137528   2.798   1.156   3.358  1.3720 -0.5519 -0.5910
 5323TIP3    H237529   2.853   1.022   3.313  0.2299 -0.4728 -2.3413
 5324TIP3   OH237530   6.682   6.534   8.783 -0.2474  0.5425 -0.1721
 5324TIP3    H137531   6.662   6.624   8.808  1.3967  0.7317  0.5880
 5324TIP3    H237532   6.600   6.486   8.800 -0.3785  1.4038  1.9578
 5325TIP3   OH237533   0.485   0.790   2.597  0.0464  0.5511 -0.1601
 5325TIP3    H137534   0.424   0.721   2.572  0.0873 -0.3829  2.1567
 5325TIP3    H237535   0.568   0.745   2.614  0.5727  1.4152 -0.3618
 5326TIP3   OH237536   5.783   1.104   1.454  0.3101 -0.0308  0.7222
 5326TIP3    H137537   5.786   1.015   1.420  1.8337  0.3259 -0.1621
 5326TIP3    H237538   5.874   1.127   1.471  0.1723  1.9456 -0.7359
 5327TIP3   OH237539   3.619   1.895   1.151  0.1058 -0.7343  0.0529
 5327TIP3    H137540   3.575   1.831   1.095  0.3749 -0.8221 -0.0609
 5327TIP3    H237541   3.687   1.933   1.096  0.3243 -0.7684  0.2960
 5328TIP3   OH237542   0.157   2.518   8.152 -0.5288 -0.3681  0.4558
 5328TIP3    H137543   0.186   2.439   8.106 -2.1974 -0.8210  0.1323
 5328TIP3    H237544   0.238   2.567   8.168  0.5477 -2.0847  0.5929
 5329TIP3   OH237545   1.700   6.637   2.793  0.6430  0.0312  0.4345
 5329TIP3    H137546   1.609   6.639   2.822  0.3066  0.0309 -0.5793
 5329TIP3    H237547   1.707   6.709   2.730  1.3584  0.0661  0.5457
 5330TIP3   OH237548   3.580   6.242   0.576 -0.4715 -0.5584 -0.3245
 5330TIP3    H137549   3.599   6.310   0.640  1.0695  0.1978 -1.5268
 5330TIP3    H237550   3.596   6.160   0.623  0.3102 -0.0306  0.3576
 5331TIP3   OH237551   3.177   4.644   1.526 -0.3930  0.5457  0.2776
 5331TIP3    H137552   3.128   4.725   1.510  1.1075  1.5249  0.4341
 5331TIP3    H237553   3.213   4.655   1.614  0.2824 -0.0552  0.0859
 5332TIP3   OH237554   3.008   0.869   7.293 -0.2152  0.8134 -0.7879
 5332TIP3    H137555   2.989   0.902   7.381 -0.9796  1.2503 -1.1105
 5332TIP3    H237556   3.076   0.928   7.260  3.3279 -1.8652  1.0752
 5333TIP3   OH237557   1.175   2.080   3.099 -0.6753  0.4804  0.4047
 5333TIP3    H137558   1.121   2.060   3.023 -0.6777  0.1675  0.4866
 5333TIP3    H237559   1.115   2.074   3.174 -0.6536  0.6984  0.4399
 5334TIP3   OH237560   3.217   5.608   2.389 -0.1190 -0.0966 -0.2066
 5334TIP3    H137561   3.192   5.658   2.312  1.1343 -1.0477 -1.2757
 5334TIP3    H237562   3.265   5.532   2.354  2.5640  0.6512  1.5726
 5335TIP3   OH237563   0.841   3.693   0.508 -0.0137 -0.3319 -0.4674
 5335TIP3    H137564   0.902   3.674   0.437 -1.3046 -1.8821 -1.2188
 5335TIP3    H237565   0.777   3.753   0.469  0.5416  0.6777  0.1032
 5336TIP3   OH237566   3.644   4.479   1.585  0.3559  0.4909  0.1025
 5336TIP3    H137567   3.629   4.385   1.572 -1.3364  0.5848  1.1863
 5336TIP3    H237568   3.563   4.520   1.555  0.2254  1.4230  1.6633
 5337TIP3   OH237569   3.941   4.842   1.532 -0.2043  0.1140  0.1763
 5337TIP3    H137570   3.951   4.934   1.558 -0.2681 -0.0703  0.8835
 5337TIP3    H237571   3.961   4.841   1.439 -1.0206  0.9814 -0.0213
 5338TIP3   OH237572   2.482   5.027   1.086 -0.2889 -0.3839  0.0770
 5338TIP3    H137573   2.459   4.936   1.067  0.2184 -0.6541  0.7396
 5338TIP3    H237574   2.414   5.057   1.146 -1.8064  0.4245 -1.8951
 5339TIP3   OH237575   0.476   4.392   1.452  0.3787  0.1801 -0.2363
 5339TIP3    H137576   0.466   4.405   1.546  0.4311  1.6540 -0.4002
 5339TIP3    H237577   0.393   4.421   1.415 -0.7550 -3.0717 -0.4948
 5340TIP3   OH237578   5.031   5.962   1.038 -0.7406 -0.2380 -0.0518
 5340TIP3    H137579   5.114   5.914   1.029 -0.2833  0.5235 -0.0374
 5340TIP3    H237580   5.042   6.013   1.118 -1.8630 -1.3223  0.8413
 5341TIP3   OH237581   5.280   1.208   0.780  0.2510  0.1106  0.4960
 5341TIP3    H137582   5.272   1.119   0.745 -1.2776  0.4815 -0.1503
 5341TIP3    H237583   5.203   1.219   0.835  0.1055  1.2498  0.0754
 5342TIP3   OH237584   1.425   4.892   2.549 -0.5940  0.2213 -0.2909
 5342TIP3    H137585   1.366   4.841   2.495 -0.2474 -0.4897 -0.0084
 5342TIP3    H237586   1.486   4.828   2.586  1.2014  1.0581 -1.6155
 5343TIP3   OH237587   5.939   5.094   2.077  0.2342 -0.3185  0.4212
 5343TIP3    H137588   5.906   5.081   1.988  1.6028  0.3392 -0.2289
 5343TIP3    H237589   5.887   5.167   2.112  0.1546 -0.1067 -0.1196
 5344TIP3   OH237590   6.268   5.634   3.288 -0.2177 -0.1274 -0.3722
 5344TIP3    H137591   6.204   5.643   3.218  0.2969  0.3094 -0.7923
 5344TIP3    H237592   6.216   5.643   3.369 -1.0010 -1.8587 -0.6467
 5345TIP3   OH237593   4.096   5.992   7.938 -0.4687  0.1488  0.0038
 5345TIP3    H137594   4.142   6.058   7.991 -0.5847  1.4865 -1.4981
 5345TIP3    H237595   4.164   5.928   7.917  1.0997  2.5403 -2.9074
 5346TIP3   OH237596   2.058   3.119   0.827  0.4083  0.7642 -0.4824
 5346TIP3    H137597   2.025   3.032   0.849 -1.1098  1.1066 -1.2811
 5346TIP3    H237598   2.132   3.132   0.886 -1.0733  0.0583  1.6665
 5347TIP3   OH237599   0.982   3.433   2.296 -0.0569  0.0143  0.3343
 5347TIP3    H137600   0.929   3.511   2.311 -1.3058 -1.0536  1.8120
 5347TIP3    H237601   1.072   3.464   2.308 -0.5940  0.9237  2.7860
 5348TIP3   OH237602   2.759   4.682   1.049 -0.1957 -0.1171 -0.2797
 5348TIP3    H137603   2.741   4.726   0.966 -1.0664 -0.5244 -0.3136
 5348TIP3    H237604   2.826   4.616   1.028 -0.1130  0.0600 -0.5684
 5349TIP3   OH237605   3.739   5.654   8.772 -0.0107  0.5629  0.0333
 5349TIP3    H137606   3.819   5.681   8.817  0.4824  0.5851 -0.8264
 5349TIP3    H237607   3.703   5.584   8.826  0.8245  0.2569  0.2007
 5350TIP3   OH237608   1.635   1.071   2.627 -0.5870  0.0385  0.1374
 5350TIP3    H137609   1.694   1.045   2.698  0.3856  0.3956 -0.5094
 5350TIP3    H237610   1.548   1.048   2.658 -0.2362  0.6155  1.6496
 5351TIP3   OH237611   2.899   4.240   1.183  0.2457 -0.4632  0.4621
 5351TIP3    H137612   2.880   4.304   1.114 -0.3064 -1.9214 -0.8038
 5351TIP3    H237613   2.824   4.246   1.242 -2.0280 -2.8206 -1.9325
 5352TIP3   OH237614   2.233   1.817   2.932 -0.0084 -0.4980  0.2632
 5352TIP3    H137615   2.155   1.806   2.986  0.3892 -2.8811  0.4280
 5352TIP3    H237616   2.221   1.757   2.859  0.1674  1.5516 -1.5627
 5353TIP3   OH237617   4.239   5.570   1.932 -0.2271 -0.0744 -0.1395
 5353TIP3    H137618   4.312   5.524   1.891 -1.1451 -1.6054 -0.1272
 5353TIP3    H237619   4.168   5.565   1.868 -0.2150  1.8452 -0.3681
 5354TIP3   OH237620   2.127   4.436   2.431  0.2552  0.0404 -0.7197
 5354TIP3    H137621   2.163   4.389   2.507 -0.6864  0.1883 -0.1637
 5354TIP3    H237622   2.086   4.514   2.468  0.7471  0.6939 -1.5116
 5355TIP3   OH237623   3.582   5.307   1.198  0.1898  0.8973 -0.1366
 5355TIP3    H137624   3.615   5.220   1.174 -0.9929  0.2446  0.5424
 5355TIP3    H237625   3.553   5.345   1.115 -2.8662 -0.9154 -0.0597
 5356TIP3   OH237626   2.586   3.274   8.025 -0.7786 -0.2446  0.0809
 5356TIP3    H137627   2.664   3.329   8.023 -0.4588 -0.6943 -2.2650
 5356TIP3    H237628   2.616   3.190   8.058 -0.0484 -0.6638 -1.5656
 5357TIP3   OH237629   2.355   1.180   8.331  0.1181  0.6928 -0.6570
 5357TIP3    H137630   2.420   1.249   8.316 -0.2270  0.8906 -1.2649
 5357TIP3    H237631   2.318   1.162   8.244 -0.7498  0.6968 -0.2996
 5358TIP3   OH237632   1.181   2.928   1.125  0.2952  0.0794  0.6575
 5358TIP3    H137633   1.264   2.915   1.080 -0.3073  0.9382 -0.7581
 5358TIP3    H237634   1.131   2.848   1.106  0.4402 -0.0225  0.7046
 5359TIP3   OH237635   5.495   0.533   7.927 -0.3481  0.0470 -0.6620
 5359TIP3    H137636   5.475   0.606   7.986  0.4710 -0.7612  0.6873
 5359TIP3    H237637   5.422   0.473   7.938  0.6452 -0.9457  1.0054
 5360TIP3   OH237638   5.752   4.293   8.080 -0.1185  0.5844  0.2151
 5360TIP3    H137639   5.792   4.268   7.996  0.9152 -0.2852  0.9284
 5360TIP3    H237640   5.664   4.321   8.057  0.3324  0.9355 -1.2358
 5361TIP3   OH237641   1.861   2.560   2.679  0.2354 -0.3296  0.2408
 5361TIP3    H137642   1.946   2.593   2.649  1.6405 -3.6725  0.1826
 5361TIP3    H237643   1.800   2.585   2.610  1.9016 -1.0568 -1.5654
 5362TIP3   OH237644   2.573   0.290   7.862  0.1247  0.1451 -0.1778
 5362TIP3    H137645   2.499   0.289   7.923  0.6013  1.0614  0.4459
 5362TIP3    H237646   2.543   0.240   7.786 -1.1889  0.6575 -0.0182
 5363TIP3   OH237647   0.984   2.374   8.153 -0.1772  0.5162 -0.9467
 5363TIP3    H137648   1.048   2.322   8.105  0.9415 -0.9880  1.9713
 5363TIP3    H237649   1.026   2.460   8.163  0.8767 -0.0576 -0.1981
 5364TIP3   OH237650   5.860   6.566   8.489 -0.0177 -0.1637 -0.0788
 5364TIP3    H137651   5.889   6.620   8.563 -1.6670  0.8689 -0.1357
 5364TIP3    H237652   5.811   6.495   8.529  1.6126 -1.3162 -0.0438
 5365TIP3   OH237653   4.134   1.148   1.530  0.0654 -0.2579  0.4900
 5365TIP3    H137654   4.196   1.202   1.480 -0.9008  1.1821  0.7745
 5365TIP3    H237655   4.090   1.210   1.588 -1.1403 -1.3540  0.7966
 5366TIP3   OH237656   4.617   0.077   0.251  0.0247  0.8196 -0.1958
 5366TIP3    H137657   4.629   0.172   0.246 -0.4023  0.7907 -2.6585
 5366TIP3    H237658   4.704   0.041   0.231  0.0914  0.6711  0.3415
 5367TIP3   OH237659   1.089   3.953   0.091 -0.0207 -0.2822  0.1975
 5367TIP3    H137660   1.040   3.995   0.021 -0.5418 -0.9635  0.1467
 5367TIP3    H237661   1.179   3.984   0.080 -0.1700 -0.1110 -0.5528
 5368TIP3   OH237662   2.781   2.065   7.741 -0.1700 -0.0713 -0.3590
 5368TIP3    H137663   2.692   2.031   7.750 -0.3654  0.5591  0.1377
 5368TIP3    H237664   2.790   2.129   7.812  0.2559  0.7574 -1.1362
 5369TIP3   OH237665   5.397   4.040   8.818  0.2625  0.0194  0.0751
 5369TIP3    H137666   5.449   3.960   8.816 -1.0036 -0.8285 -1.8795
 5369TIP3    H237667   5.458   4.109   8.796  1.0776 -0.5863  0.3624
 5370TIP3   OH237668   5.619   4.559   0.945  0.3762  0.2296 -0.2245
 5370TIP3    H137669   5.636   4.653   0.939  1.4976  0.0447  0.0111
 5370TIP3    H237670   5.699   4.521   0.979 -0.6869 -0.6111  1.4777
 5371TIP3   OH237671   2.753   4.497   0.229  0.2105  0.2751  0.1889
 5371TIP3    H137672   2.749   4.438   0.154  1.1615 -1.0108  1.1168
 5371TIP3    H237673   2.748   4.585   0.191 -1.1986 -0.3739 -1.2186
 5372TIP3   OH237674   5.797   2.632   1.864 -0.4794 -0.0331 -0.4320
 5372TIP3    H137675   5.779   2.629   1.957  0.2533  0.3151 -0.2728
 5372TIP3    H237676   5.824   2.723   1.847 -2.2028  0.3514 -1.2941
 5373TIP3   OH237677   2.913   5.532   2.339 -0.2582 -0.2026 -0.6501
 5373TIP3    H137678   2.965   5.598   2.386  1.0418 -0.7315 -1.2896
 5373TIP3    H237679   2.893   5.465   2.404 -2.0945  1.0410  0.1608
 5374TIP3   OH237680   3.022   5.707   0.688 -0.0237 -0.5952 -0.4980
 5374TIP3    H137681   2.999   5.788   0.733  1.0535 -1.0488  0.9371
 5374TIP3    H237682   3.084   5.733   0.621 -1.5982  0.0835 -1.7546
 5375TIP3   OH237683   2.588   0.559   8.326  0.0117 -0.4203  0.2073
 5375TIP3    H137684   2.589   0.464   8.324 -1.0116 -0.4412 -0.7051
 5375TIP3    H237685   2.666   0.584   8.375  1.3712 -1.6866 -1.1981
 5376TIP3   OH237686   6.337   3.110   1.228 -0.4009  0.1803  0.1226
 5376TIP3    H137687   6.322   3.182   1.289  0.0349  2.4147 -2.2700
 5376TIP3    H237688   6.253   3.096   1.186 -0.3085 -0.2743  0.0763
 5377TIP3   OH237689   3.427   1.014   3.229 -1.0594 -0.2473 -0.8559
 5377TIP3    H137690   3.384   1.091   3.265  0.1188  0.0324  0.0436
 5377TIP3    H237691   3.425   0.950   3.300  0.9590  0.1767 -0.3454
 5378TIP3   OH237692   0.063   1.067   0.994 -1.0269 -0.2892  0.5043
 5378TIP3    H137693   0.131   1.071   1.061 -1.4103  1.8644  0.8290
 5378TIP3    H237694   0.080   0.984   0.948  0.2706 -1.0010  2.1517
 5379TIP3   OH237695   0.758   3.372   7.341 -0.4706 -0.1441  0.1710
 5379TIP3    H137696   0.793   3.284   7.327 -0.3544 -0.3281  1.4902
 5379TIP3    H237697   0.822   3.431   7.300 -1.6713 -0.7109 -2.8107
 5380TIP3   OH237698   3.037   4.512   2.074 -0.1824 -0.2982  0.6814
 5380TIP3    H137699   3.030   4.551   2.161 -0.2108 -0.3511  0.7032
 5380TIP3    H237700   3.020   4.419   2.088  1.6466 -0.6491  0.9231
 5381TIP3   OH237701   0.352   0.469   3.359  0.0047 -0.6867 -0.5328
 5381TIP3    H137702   0.343   0.378   3.331 -1.1916 -0.7790  0.0932
 5381TIP3    H237703   0.403   0.511   3.290  0.2545 -1.7473 -1.0021
 5382TIP3   OH237704   6.539   5.984   8.284 -0.2326 -0.2874 -0.3737
 5382TIP3    H137705   6.570   6.073   8.265  0.8909 -0.7135 -0.5566
 5382TIP3    H237706   6.536   5.941   8.199  0.1436 -0.7231 -0.1663
 5383TIP3   OH237707   2.376   5.555   1.972 -0.7044 -0.2579 -0.7739
 5383TIP3    H137708   2.445   5.489   1.967 -0.1642  0.2204 -0.0323
 5383TIP3    H237709   2.423   5.639   1.967 -1.2032  0.0752 -0.1203
 5384TIP3   OH237710   2.244   3.489   2.732  0.0355  0.1076 -0.8064
 5384TIP3    H137711   2.334   3.481   2.700  0.2964 -1.2251  0.1821
 5384TIP3    H237712   2.249   3.552   2.804 -0.1161  1.2074 -1.7330
 5385TIP3   OH237713   1.677   3.617   2.521 -0.0673 -0.1767  0.1528
 5385TIP3    H137714   1.762   3.621   2.476 -0.6998  2.1274 -1.0048
 5385TIP3    H237715   1.614   3.595   2.452 -0.5631 -0.8616  0.8002
 5386TIP3   OH237716   4.673   3.285   1.539 -0.3046  0.4116 -0.1298
 5386TIP3    H137717   4.759   3.324   1.526  0.2467  0.0679  2.1475
 5386TIP3    H237718   4.614   3.360   1.545 -0.0415  0.6817 -0.8303
 5387TIP3   OH237719   2.778   3.333   8.550 -0.4966 -0.7333  0.2593
 5387TIP3    H137720   2.745   3.370   8.632 -1.1211  1.3532 -0.8596
 5387TIP3    H237721   2.852   3.389   8.528 -1.2547 -0.3185 -1.3394
 5388TIP3   OH237722   0.356   3.913   2.712  0.1956 -0.2453 -0.5970
 5388TIP3    H137723   0.425   3.855   2.745 -0.0623  0.0651  0.5250
 5388TIP3    H237724   0.330   3.965   2.788  0.4378  1.3650 -1.5643
 5389TIP3   OH237725   2.492   3.793   2.703  0.0663 -0.3597  0.1013
 5389TIP3    H137726   2.534   3.775   2.619  0.7720 -0.1797  0.4103
 5389TIP3    H237727   2.549   3.858   2.744 -1.4428  1.2567 -0.2242
 5390TIP3   OH237728   0.707   4.926   8.544  0.2288 -0.3913 -0.3281
 5390TIP3    H137729   0.685   4.988   8.614  1.3152  1.6857 -1.7368
 5390TIP3    H237730   0.624   4.913   8.497 -0.1018 -0.3771  0.2367
 5391TIP3   OH237731   0.612   5.982   8.310  0.2874  0.8278 -0.5362
 5391TIP3    H137732   0.591   5.896   8.347  1.2514  0.6514 -0.3782
 5391TIP3    H237733   0.552   6.042   8.354 -0.3765  0.2418 -0.6275
 5392TIP3   OH237734   0.840   0.917   7.167 -0.3434 -0.2270 -0.5152
 5392TIP3    H137735   0.792   0.917   7.249 -0.6924 -0.1429 -0.7174
 5392TIP3    H237736   0.932   0.925   7.193 -0.4235 -0.5360 -0.1216
 5393TIP3   OH237737   3.995   3.820   1.472  0.5080  0.0147 -0.4829
 5393TIP3    H137738   3.929   3.761   1.437  0.8544  0.7023 -2.4140
 5393TIP3    H237739   4.052   3.839   1.398  0.3703  2.8211  0.0193
 5394TIP3   OH237740   1.381   0.957   7.595  0.5503 -0.5923  0.2288
 5394TIP3    H137741   1.400   0.868   7.566  0.9952 -0.4799  0.1692
 5394TIP3    H237742   1.354   1.003   7.516 -0.8207 -0.9690  0.4541
 5395TIP3   OH237743   6.193   6.459   8.917  0.0515 -0.0100 -0.0269
 5395TIP3    H137744   6.123   6.431   8.976  1.0072 -0.0452  1.1200
 5395TIP3    H237745   6.187   6.400   8.842 -0.1767 -1.0237  0.7694
 5396TIP3   OH237746   0.094   4.626   8.067 -0.1842 -0.7351 -0.4556
 5396TIP3    H137747   0.073   4.541   8.029 -0.8832 -0.1747 -1.3765
 5396TIP3    H237748   0.124   4.678   7.992 -1.8304  0.4808 -0.3050
 5397TIP3   OH237749   1.359   1.307   2.976  0.2050  0.2608  0.4051
 5397TIP3    H137750   1.266   1.294   2.995  0.2351  0.0939  0.4384
 5397TIP3    H237751   1.404   1.258   3.045  0.3157 -0.5270 -0.2138
 5398TIP3   OH237752   5.573   4.797   0.620  0.0208  0.1814  0.1973
 5398TIP3    H137753   5.498   4.779   0.564  0.6233  0.4984 -0.7223
 5398TIP3    H237754   5.643   4.743   0.586  0.4941  0.6363  0.4238
 5399TIP3   OH237755   1.508   2.425   2.218  0.1912 -0.0294 -0.1109
 5399TIP3    H137756   1.483   2.454   2.305 -0.5223 -0.0407 -0.3085
 5399TIP3    H237757   1.432   2.377   2.185 -0.2466  1.5063 -1.4505
 5400TIP3   OH237758   6.224   3.142   0.389 -0.0269  0.0728  0.8710
 5400TIP3    H137759   6.246   3.152   0.482 -0.0837 -0.0364  0.8964
 5400TIP3    H237760   6.154   3.076   0.388 -0.3826  0.4482  0.7964
 5401TIP3   OH237761   1.775   2.829   2.827 -0.2704 -0.3748  0.1905
 5401TIP3    H137762   1.810   2.825   2.916  1.9454 -1.2768 -0.6517
 5401TIP3    H237763   1.841   2.785   2.773 -1.4447  0.3257 -1.9391
 5402TIP3   OH237764   2.301   2.265   0.804  0.2219  0.2737  0.6129
 5402TIP3    H137765   2.347   2.340   0.767  0.6182 -0.1072  0.3153
 5402TIP3    H237766   2.225   2.253   0.747 -0.8777  1.5700  1.7348
 5403TIP3   OH237767   3.738   3.370   1.394 -0.0455  0.3675  0.1597
 5403TIP3    H137768   3.829   3.371   1.424 -0.1265  1.6347  0.4018
 5403TIP3    H237769   3.690   3.326   1.464  0.6626 -2.4015 -0.9556
 5404TIP3   OH237770   4.486   1.779   3.606 -0.0270  0.0229  0.7913
 5404TIP3    H137771   4.578   1.802   3.594  0.1343 -0.9068  0.1758
 5404TIP3    H237772   4.482   1.684   3.594 -1.5312  0.3351 -2.5796
 5405TIP3   OH237773   0.289   5.314   1.266  0.1312  0.3795  0.6191
 5405TIP3    H137774   0.384   5.329   1.266  0.0431  0.9860 -0.1315
 5405TIP3    H237775   0.251   5.401   1.277 -0.3576  0.4621 -1.4061
 5406TIP3   OH237776   5.016   3.096   2.807  0.1330  0.0701  0.2082
 5406TIP3    H137777   5.013   3.008   2.845  0.5491  0.6809  1.7166
 5406TIP3    H237778   5.065   3.085   2.725  0.8314 -0.9764  0.7469
 5407TIP3   OH237779   5.593   1.721   1.704  0.2120 -0.0658 -0.1871
 5407TIP3    H137780   5.628   1.772   1.777 -0.0017  0.7196 -0.6284
 5407TIP3    H237781   5.591   1.782   1.630 -2.5752  0.0871 -0.0686
 5408TIP3   OH237782   3.305   0.833   1.673  0.1161 -0.1443  0.3382
 5408TIP3    H137783   3.236   0.869   1.728 -1.4967 -1.4177 -0.7660
 5408TIP3    H237784   3.263   0.763   1.624  2.4555 -1.6913  0.3843
 5409TIP3   OH237785   3.998   4.462   7.631 -0.0342  0.3576  0.8542
 5409TIP3    H137786   3.982   4.466   7.537  1.1973 -0.0040  0.6071
 5409TIP3    H237787   3.918   4.494   7.671 -0.5691  0.5193 -0.3216
 5410TIP3   OH237788   0.003   1.302   2.696 -0.9291 -0.1742  0.3387
 5410TIP3    H137789  -0.072   1.352   2.663  0.1105  1.4637  0.3187
 5410TIP3    H237790   0.045   1.361   2.759  0.5491 -0.8928  0.0644
 5411TIP3   OH237791   0.199   4.848   0.971 -0.8667 -0.1632  0.2051
 5411TIP3    H137792   0.208   4.781   0.903  0.0248  0.4580 -0.3201
 5411TIP3    H237793   0.246   4.924   0.935  0.6747 -0.1990  2.0237
 5412TIP3   OH237794   4.386   1.503   0.038 -0.4769 -0.3617 -0.0818
 5412TIP3    H137795   4.345   1.417   0.029  1.1325 -1.0212 -1.5982
 5412TIP3    H237796   4.459   1.489   0.098  0.8448 -0.4880 -1.6752
 5413TIP3   OH237797   4.811   0.259   8.860 -0.1097 -0.1226  0.0766
 5413TIP3    H137798   4.773   0.174   8.838  0.6027 -0.7004  0.9459
 5413TIP3    H237799   4.892   0.263   8.810  0.4586 -0.5110  0.9294
 5414TIP3   OH237800   4.630   4.151   2.191 -0.6918 -0.1292 -0.4266
 5414TIP3    H137801   4.628   4.081   2.125 -0.0652 -0.1540 -0.4305
 5414TIP3    H237802   4.570   4.122   2.259  0.5516 -1.3395  0.2094
 5415TIP3   OH237803   1.526   3.065   2.630  0.3750 -0.0628  0.2302
 5415TIP3    H137804   1.437   3.100   2.633  0.3556 -0.1167  0.2876
 5415TIP3    H237805   1.573   3.115   2.697 -0.1439 -1.5091  1.7760
 5416TIP3   OH237806   1.368   3.131   0.917 -0.1196  0.2721 -0.4980
 5416TIP3    H137807   1.315   3.167   0.846 -0.0971  1.5597  0.1122
 5416TIP3    H237808   1.429   3.072   0.874 -1.5917 -0.7301 -1.2973
 5417TIP3   OH237809   2.714   1.623   3.014 -0.1560  0.5637  0.1020
 5417TIP3    H137810   2.624   1.655   3.012 -0.3361  0.3941  2.2577
 5417TIP3    H237811   2.712   1.549   3.075  1.3039  0.0596 -0.4123
 5418TIP3   OH237812   2.184   5.737   2.404 -0.5605 -0.1767 -0.1637
 5418TIP3    H137813   2.280   5.742   2.398 -0.5507  1.7195  0.8350
 5418TIP3    H237814   2.168   5.676   2.476 -0.1470 -1.0358 -0.7727
 5419TIP3   OH237815   3.619   3.027   2.190 -0.2288 -0.1763  0.1503
 5419TIP3    H137816   3.640   3.103   2.137 -1.0427 -0.1892 -0.2103
 5419TIP3    H237817   3.626   2.953   2.130  0.1152 -0.3381  0.3865
 5420TIP3   OH237818   5.572   4.615   1.236  0.0607 -0.4388 -0.0372
 5420TIP3    H137819   5.580   4.579   1.148  2.2066 -2.3107  0.8271
 5420TIP3    H237820   5.543   4.542   1.290  2.3043 -0.3640  1.3872
 5421TIP3   OH237821   3.786   1.189   8.960 -0.2219  0.1114  0.1722
 5421TIP3    H137822   3.786   1.117   9.023 -1.1758 -0.8307 -0.8755
 5421TIP3    H237823   3.879   1.204   8.941 -0.0564 -2.3037 -1.2129
 5422TIP3   OH237824   1.644   5.542   8.977 -0.2613 -0.2210 -0.4392
 5422TIP3    H137825   1.715   5.485   9.007 -0.2245 -1.8835 -3.3281
 5422TIP3    H237826   1.678   5.584   8.899 -0.8617  2.7454  0.7547
 5423TIP3   OH237827   2.827   2.171   0.602 -0.1766  0.3923 -0.4054
 5423TIP3    H137828   2.782   2.255   0.609 -0.6426  0.2733 -1.6611
 5423TIP3    H237829   2.911   2.193   0.561  0.5593  0.4877  1.0808
 5424TIP3   OH237830   3.103   3.143   2.392 -0.0477 -0.0145 -0.0574
 5424TIP3    H137831   3.107   3.062   2.342  1.1208 -0.8469  1.3057
 5424TIP3    H237832   3.136   3.119   2.479 -0.9198  1.6282  0.7673
 5425TIP3   OH237833   2.051   1.576   8.688  0.1769 -0.2913  0.4228
 5425TIP3    H137834   2.043   1.529   8.605 -1.3849  1.2979 -0.3767
 5425TIP3    H237835   2.138   1.616   8.684  0.0812 -0.1531 -0.5066
 5426TIP3   OH237836   4.352   3.170   2.384 -0.1546 -0.2096  0.2629
 5426TIP3    H137837   4.263   3.140   2.367 -0.2462  0.4201 -0.4335
 5426TIP3    H237838   4.399   3.092   2.413 -0.7956 -0.6626  0.0951
 5427TIP3   OH237839   3.215   5.342   8.986  0.0280 -0.5244  0.3492
 5427TIP3    H137840   3.190   5.303   9.069 -0.8603  1.3877  1.0398
 5427TIP3    H237841   3.134   5.346   8.936 -0.1236  1.1603  0.6490
 5428TIP3   OH237842   0.709   5.623   3.155  0.2040  0.5461  0.0074
 5428TIP3    H137843   0.761   5.654   3.228  3.3996 -0.9828 -1.3835
 5428TIP3    H237844   0.728   5.529   3.150 -3.0803 -0.2307 -0.4433
 5429TIP3   OH237845   2.147   0.930   1.144  0.4660 -0.8724  0.4181
 5429TIP3    H137846   2.128   1.022   1.163  0.2942 -0.5142 -1.2915
 5429TIP3    H237847   2.198   0.933   1.062 -1.2493 -2.3742 -0.7858
 5430TIP3   OH237848   3.666   4.927   2.950  0.3228 -0.4805  0.3598
 5430TIP3    H137849   3.729   4.947   2.881 -2.1880 -0.7407 -2.2016
 5430TIP3    H237850   3.665   4.831   2.954 -0.5744 -0.5189 -0.3612
 5431TIP3   OH237851   5.797   5.607   1.648  0.2612 -1.0361 -0.6737
 5431TIP3    H137852   5.807   5.539   1.714 -0.1631 -0.0622  0.4424
 5431TIP3    H237853   5.791   5.688   1.699 -1.0693 -0.3510 -1.8555
 5432TIP3   OH237854   1.228   4.073   3.513 -0.3745  0.7162 -0.3372
 5432TIP3    H137855   1.275   4.046   3.592  0.4065 -1.0328 -1.3561
 5432TIP3    H237856   1.286   4.137   3.472 -0.9556  1.9315  0.6418
 5433TIP3   OH237857   4.726   5.515   0.185  0.7765 -0.1596 -0.0185
 5433TIP3    H137858   4.794   5.509   0.117  0.7972 -0.5805  0.0400
 5433TIP3    H237859   4.743   5.599   0.227  0.7001  0.1568 -0.6014
 5434TIP3   OH237860   0.101   0.074   8.896  0.1477  0.0453  0.0960
 5434TIP3    H137861   0.005   0.076   8.890  0.1511  0.8248  0.1975
 5434TIP3    H237862   0.120  -0.010   8.937 -0.5773  0.4592  1.3405
 5435TIP3   OH237863   4.583   0.613   1.250 -0.2304  0.2841  0.3962
 5435TIP3    H137864   4.595   0.703   1.281  0.9886 -0.2309  1.4867
 5435TIP3    H237865   4.670   0.586   1.220 -0.1847 -1.0708  1.6230
 5436TIP3   OH237866   2.141   0.714   2.131  0.2125 -0.4304  0.2323
 5436TIP3    H137867   2.083   0.665   2.073  0.4413 -1.6925  1.0278
 5436TIP3    H237868   2.083   0.771   2.181 -0.2402 -0.9831  0.3450
 5437TIP3   OH237869   0.716   2.832   8.204  0.3634 -0.2280  0.0855
 5437TIP3    H137870   0.653   2.862   8.138 -0.4210 -0.0008  0.9199
 5437TIP3    H237871   0.780   2.781   8.154  0.4935  0.9850 -1.0390
 5438TIP3   OH237872   1.366   6.340   3.501 -0.3708  0.5915 -0.0572
 5438TIP3    H137873   1.432   6.284   3.541 -0.9542  1.2724  1.9834
 5438TIP3    H237874   1.389   6.341   3.408  1.8032 -0.0964  0.4087
 5439TIP3   OH237875   1.957   3.051   0.242 -0.0033 -0.3502 -0.1503
 5439TIP3    H137876   2.001   3.051   0.158  1.2135  0.5167  0.4477
 5439TIP3    H237877   1.870   3.015   0.224  0.7249 -1.5465 -1.4781
 5440TIP3   OH237878   6.286   5.299   0.385 -0.2473 -0.5133 -0.1507
 5440TIP3    H137879   6.336   5.373   0.421  1.1384 -1.8336  0.7572
 5440TIP3    H237880   6.309   5.298   0.292 -0.0159 -0.0077 -0.1032
 5441TIP3   OH237881   3.382   5.772   8.810 -0.2955  0.2233  0.0305
 5441TIP3    H137882   3.459   5.815   8.846  1.2164 -1.0816 -1.4780
 5441TIP3    H237883   3.390   5.681   8.839 -0.8287 -0.1032 -0.8251
 5442TIP3   OH237884   4.019   4.005   3.341 -0.0458 -0.4408 -0.1081
 5442TIP3    H137885   4.098   4.018   3.288 -0.7137  0.9398 -0.8298
 5442TIP3    H237886   4.051   3.984   3.428  1.1985  1.9240  0.0938
 5443TIP3   OH237887   0.596   3.822   2.138 -0.0071  0.0898  0.0513
 5443TIP3    H137888   0.607   3.917   2.133 -0.9431  0.2546  0.7731
 5443TIP3    H237889   0.532   3.802   2.069 -0.7117  0.1638  0.6648
 5444TIP3   OH237890   1.622   6.213   7.976  0.9403 -0.0187 -1.0916
 5444TIP3    H137891   1.598   6.274   7.907  0.2046 -0.3627 -1.1424
 5444TIP3    H237892   1.540   6.171   8.001  1.4615 -1.1361 -1.2033
 5445TIP3   OH237893   4.862   6.701   2.269  0.3782  0.2086  0.0442
 5445TIP3    H137894   4.822   6.716   2.183 -0.9119 -0.4847  0.4991
 5445TIP3    H237895   4.896   6.612   2.265 -0.9148 -0.3299  0.7003
 5446TIP3   OH237896   5.894   0.550   0.803 -0.0244 -0.0850  0.1028
 5446TIP3    H137897   5.912   0.608   0.730  0.8537  0.7048  0.9247
 5446TIP3    H237898   5.827   0.490   0.770  0.8059 -0.1550 -1.5391
 5447TIP3   OH237899   4.353   4.215   2.895  0.1178  0.1869 -0.0115
 5447TIP3    H137900   4.422   4.210   2.961 -0.0828  1.7393  0.3637
 5447TIP3    H237901   4.289   4.148   2.921  1.4210 -1.2430 -0.3425
 5448TIP3   OH237902   6.688   0.774   2.174  0.1537 -0.3777 -0.3158
 5448TIP3    H137903   6.695   0.860   2.216 -1.9563 -0.7116  0.8418
 5448TIP3    H237904   6.695   0.793   2.080 -0.0164  1.0305 -0.0726
 5449TIP3   OH237905   5.981   4.311   1.462  0.2017  0.0197 -0.6387
 5449TIP3    H137906   6.029   4.259   1.527  2.2437 -1.8396 -3.3634
 5449TIP3    H237907   6.044   4.376   1.432 -0.6892  0.8287 -0.7836
 5450TIP3   OH237908   5.992   3.942   2.150  0.1661 -0.5028 -0.2983
 5450TIP3    H137909   6.027   3.896   2.227 -1.0468 -1.6874 -0.4184
 5450TIP3    H237910   6.035   3.900   2.076 -0.3586 -0.9248 -0.3691
 5451TIP3   OH237911   1.310   5.442   3.135 -0.5301  0.5288  0.1206
 5451TIP3    H137912   1.368   5.400   3.072 -1.1801  0.2493 -0.3091
 5451TIP3    H237913   1.223   5.407   3.114 -0.9380  1.3535  0.3782
 5452TIP3   OH237914   3.991   3.367   1.518 -0.4965  0.0227  0.1244
 5452TIP3    H137915   3.969   3.427   1.590  1.1997  0.8121  0.0467
 5452TIP3    H237916   4.087   3.372   1.512 -0.3796 -1.9868 -0.5256
 5453TIP3   OH237917   3.559   4.158   0.392 -0.3033 -0.5429 -0.1514
 5453TIP3    H137918   3.509   4.168   0.473 -0.2997  1.6885 -0.3712
 5453TIP3    H237919   3.512   4.211   0.328  1.7824  0.9036 -0.6028
 5454TIP3   OH237920   5.258   4.720   8.046  0.1555  0.0109 -0.7203
 5454TIP3    H137921   5.253   4.642   7.990  1.0365 -1.2811  0.8981
 5454TIP3    H237922   5.190   4.705   8.112  1.1021  0.0067  0.2825
 5455TIP3   OH237923   2.881   0.149   1.820  0.0266 -0.4770  0.5433
 5455TIP3    H137924   2.837   0.135   1.904 -2.0803  2.6223  0.1629
 5455TIP3    H237925   2.911   0.240   1.824 -0.9075  0.0691 -2.2952
 5456TIP3   OH237926   4.841   4.848   8.605 -0.2464  0.1190  0.2230
 5456TIP3    H137927   4.839   4.906   8.528 -0.9745 -0.6801 -0.3832
 5456TIP3    H237928   4.897   4.775   8.580 -1.7982 -0.9865 -0.2154
 5457TIP3   OH237929   3.307   0.073   0.459 -0.3052  0.0385  0.1243
 5457TIP3    H137930   3.278   0.137   0.395  2.0786  0.9723 -0.1382
 5457TIP3    H237931   3.280   0.109   0.544 -0.3171  0.6512 -0.1330
 5458TIP3   OH237932   2.473   1.636   3.298  0.4644 -0.0309 -0.1539
 5458TIP3    H137933   2.545   1.601   3.350  0.8809  0.6772 -0.2339
 5458TIP3    H237934   2.481   1.731   3.308 -0.7069  0.0530  0.1692
 5459TIP3   OH237935   5.295   6.640   2.321 -0.0409  0.2457 -0.0521
 5459TIP3    H137936   5.331   6.727   2.335 -1.2218  0.8730 -0.7551
 5459TIP3    H237937   5.371   6.585   2.304  0.5816  1.8799 -3.3663
 5460TIP3   OH237938   0.680   0.921   0.534 -0.1405 -0.8762 -0.6152
 5460TIP3    H137939   0.742   0.852   0.558  0.6889 -0.3317 -1.1741
 5460TIP3    H237940   0.620   0.878   0.473 -0.8312 -1.6255  0.5642
 5461TIP3   OH237941   3.544   4.772   1.927 -0.0903  0.0888  0.0209
 5461TIP3    H137942   3.622   4.748   1.876  1.1927  0.9446  1.4608
 5461TIP3    H237943   3.515   4.691   1.967  0.2160 -0.1988 -0.3361
 5462TIP3   OH237944   1.709   2.888   1.027 -0.2054 -0.3559  0.5757
 5462TIP3    H137945   1.739   2.953   1.090 -0.4929 -0.4318  0.7969
 5462TIP3    H237946   1.788   2.857   0.983 -0.2883  2.3980 -1.7844
 5463TIP3   OH237947   3.991   6.225   2.504 -0.5030 -0.4360  0.1336
 5463TIP3    H137948   3.960   6.240   2.594  1.8359  0.7930  0.8239
 5463TIP3    H237949   3.977   6.309   2.460 -0.6949 -0.7221 -0.3596
 5464TIP3   OH237950   3.343   2.303   8.837  0.1864  0.2883 -0.0150
 5464TIP3    H137951   3.304   2.356   8.768 -1.3638 -1.0925 -0.2468
 5464TIP3    H237952   3.362   2.366   8.907 -0.8368  1.2828 -0.5960
 5465TIP3   OH237953   2.720   5.917   0.609  0.5787 -0.0895 -0.1909
 5465TIP3    H137954   2.677   5.932   0.524 -0.4268  0.6357  0.4276
 5465TIP3    H237955   2.803   5.964   0.602  2.2229 -2.9507 -2.0669
 5466TIP3   OH237956   0.997   3.332   7.902  0.5878 -0.5401  0.1369
 5466TIP3    H137957   0.963   3.421   7.911  2.2822  0.1974 -0.5171
 5466TIP3    H237958   1.002   3.318   7.808  0.4467 -1.2968  0.2352
 5467TIP3   OH237959   2.039   3.064   2.777  0.4268  0.6510  0.2030
 5467TIP3    H137960   2.065   3.146   2.820  0.7093  0.1232  1.0621
 5467TIP3    H237961   1.955   3.083   2.736  0.3027  1.2532  0.7357
 5468TIP3   OH237962   0.231   0.053   1.312 -0.2163  0.1781 -0.1730
 5468TIP3    H137963   0.148   0.044   1.264  0.2600 -2.6684 -0.6293
 5468TIP3    H237964   0.285   0.109   1.256 -0.2988 -1.6475 -2.2094
 5469TIP3   OH237965   1.666   2.567   0.428 -0.2414  0.1891 -0.1237
 5469TIP3    H137966   1.596   2.505   0.406  0.3408 -0.5832  0.1690
 5469TIP3    H237967   1.680   2.556   0.522  0.2812  0.3393 -0.1798
 5470TIP3   OH237968   3.798   6.235   1.350  0.7174 -0.4132  0.2212
 5470TIP3    H137969   3.771   6.268   1.436 -1.8786  0.9158 -0.9766
 5470TIP3    H237970   3.784   6.140   1.356  1.1341 -0.4107  1.4376
 5471TIP3   OH237971   3.075   1.014   8.222 -0.1463  0.0941 -0.4346
 5471TIP3    H137972   3.014   1.008   8.149 -0.5024  0.4680 -0.1731
 5471TIP3    H237973   3.136   0.940   8.209 -1.4147 -1.0666 -0.0079
 5472TIP3   OH237974   6.589   4.428   1.662 -0.2739 -0.3848  0.5768
 5472TIP3    H137975   6.544   4.363   1.716 -0.4829 -1.6222 -1.0159
 5472TIP3    H237976   6.539   4.430   1.580  1.5469 -0.5382 -0.5917
 5473TIP3   OH237977   1.803   0.440   8.091 -0.0564 -0.2792  0.0735
 5473TIP3    H137978   1.757   0.453   8.008 -0.1958 -0.4141  0.1294
 5473TIP3    H237979   1.803   0.346   8.104 -1.7529 -0.1744  1.1825
 5474TIP3   OH237980   6.291   1.349   0.279  1.3696  0.0885 -0.1724
 5474TIP3    H137981   6.240   1.274   0.248  1.5756  0.5070 -1.6088
 5474TIP3    H237982   6.229   1.422   0.278  1.6922  0.3627 -0.8255
 5475TIP3   OH237983   6.158   3.623   0.949 -0.0458 -0.2217 -0.0577
 5475TIP3    H137984   6.196   3.683   1.013  0.2518 -0.2296 -0.2239
 5475TIP3    H237985   6.234   3.582   0.906 -0.2316  0.1666 -0.7766
 5476TIP3   OH237986   0.321   2.752   1.813  0.5343 -0.2152  0.0387
 5476TIP3    H137987   0.324   2.785   1.903 -2.3877 -2.6102  1.1562
 5476TIP3    H237988   0.401   2.700   1.804  0.5747 -0.4444  1.4689
 5477TIP3   OH237989   0.420   4.013   0.377  0.4453 -0.5414 -0.2574
 5477TIP3    H137990   0.332   3.995   0.408  0.4946 -2.0796 -0.9054
 5477TIP3    H237991   0.449   4.088   0.429 -0.7111 -0.9011  0.9745
 5478TIP3   OH237992   3.865   1.134   1.858 -0.3021  0.6154 -0.0598
 5478TIP3    H137993   3.825   1.111   1.942  1.9945  2.0032  1.5347
 5478TIP3    H237994   3.883   1.050   1.816 -2.1641 -0.0860  0.4595
 5479TIP3   OH237995   3.751   4.703   1.712  0.5133 -0.3834  0.2305
 5479TIP3    H137996   3.708   4.628   1.673  2.1701 -0.7355 -1.0293
 5479TIP3    H237997   3.798   4.745   1.640  3.9973 -1.2535  1.7428
 5480TIP3   OH237998   6.290   0.093   2.079 -0.2101  0.4624 -0.1384
 5480TIP3    H137999   6.301   0.180   2.040  0.2219  0.3005 -0.3909
 5480TIP3    H238000   6.250   0.041   2.009  1.1954 -0.0098 -0.6303
 5481TIP3   OH238001   1.520   3.207   2.889  0.3087 -0.2430 -0.3293
 5481TIP3    H138002   1.442   3.184   2.939 -0.0101  2.2630  0.4302
 5481TIP3    H238003   1.590   3.154   2.929 -1.0255 -3.2068 -1.5982
 5482TIP3   OH238004   0.534   0.243   0.470 -0.1897  0.1128 -0.5970
 5482TIP3    H138005   0.506   0.163   0.427 -0.0396  0.1328 -0.7352
 5482TIP3    H238006   0.630   0.240   0.466 -0.1611 -0.0695  0.0747
 5483TIP3   OH238007   6.687   5.569   2.650  0.6736  0.1589 -0.0274
 5483TIP3    H138008   6.615   5.506   2.656  0.5879 -0.0597 -2.3638
 5483TIP3    H238009   6.646   5.654   2.666  0.0510 -0.0581 -0.4326
 5484TIP3   OH238010   2.168   4.562   7.829 -0.3219  0.4285 -0.6033
 5484TIP3    H138011   2.105   4.512   7.777  0.4619  1.4412 -2.6520
 5484TIP3    H238012   2.159   4.652   7.797  2.8292  0.4556 -1.7582
 5485TIP3   OH238013   6.195   6.080   8.498  0.0581  0.3751 -0.6893
 5485TIP3    H138014   6.240   6.040   8.572 -2.0414  0.5004  0.7493
 5485TIP3    H238015   6.120   6.023   8.481 -0.7904  1.5722 -1.1792
 5486TIP3   OH238016   2.769   6.649   8.106  0.2338 -0.6022  0.0476
 5486TIP3    H138017   2.849   6.618   8.149  1.1151  0.3066 -0.8828
 5486TIP3    H238018   2.733   6.571   8.064  2.2195 -0.5666 -1.9561
 5487TIP3   OH238019   2.160   1.119   1.534  0.0395 -0.1156 -0.5252
 5487TIP3    H138020   2.250   1.090   1.524  0.5804  1.2666 -0.0078
 5487TIP3    H238021   2.151   1.190   1.470 -0.7969 -0.4689 -0.8124
 5488TIP3   OH238022   0.579   1.032   1.800 -0.1151 -0.5636 -0.7354
 5488TIP3    H138023   0.622   1.020   1.716 -0.4633  0.0033 -1.0041
 5488TIP3    H238024   0.624   1.107   1.840  1.3688 -2.0238  0.4701
 5489TIP3   OH238025   0.007   4.837   2.093  0.0032  0.1224  0.0054
 5489TIP3    H138026   0.032   4.857   2.003  3.1112  1.2184  0.9541
 5489TIP3    H238027   0.089   4.812   2.135 -1.3811 -0.5477  2.5157
 5490TIP3   OH238028   4.491   0.587   0.859 -0.1884 -0.2503 -0.2805
 5490TIP3    H138029   4.431   0.646   0.905  0.9520 -0.3876  1.4902
 5490TIP3    H238030   4.563   0.643   0.830 -0.6393 -0.2606 -1.4908
 5491TIP3   OH238031   6.408   4.757   8.149 -0.1795  0.5810 -0.2983
 5491TIP3    H138032   6.491   4.718   8.174 -0.6365 -2.0255 -2.3946
 5491TIP3    H238033   6.417   4.777   8.056 -1.9737 -0.1458 -0.6829
 5492TIP3   OH238034   4.760   0.176   8.529 -0.2086  0.2701 -0.1067
 5492TIP3    H138035   4.780   0.105   8.468 -1.9496 -0.9254  0.6259
 5492TIP3    H238036   4.829   0.171   8.595  1.4291  1.2860 -1.6693
 5493TIP3   OH238037   4.363   0.123   2.258  0.1960  0.2055 -0.2093
 5493TIP3    H138038   4.342   0.144   2.167 -0.3379 -1.8645 -0.6036
 5493TIP3    H238039   4.429   0.054   2.253 -0.0533 -0.1549  0.9645
 5494TIP3   OH238040   4.880   6.713   7.395  0.0881 -0.7181 -0.5281
 5494TIP3    H138041   4.922   6.630   7.414  1.3803 -0.1285 -0.6988
 5494TIP3    H238042   4.939   6.779   7.430 -1.8518  0.1224  1.3909
 5495TIP3   OH238043   2.170   0.156   7.891  0.1072  0.1268 -0.8093
 5495TIP3    H138044   2.159   0.152   7.796 -0.1483  0.1692 -0.7821
 5495TIP3    H238045   2.231   0.228   7.905  0.6113 -0.2661 -0.9776
 5496TIP3   OH238046   0.773   0.290   2.670 -0.5992  0.3554  0.1768
 5496TIP3    H138047   0.758   0.249   2.755 -0.6218 -0.5359 -0.2451
 5496TIP3    H238048   0.867   0.311   2.670 -0.7026  0.8366  0.6219
 5497TIP3   OH238049   3.237   1.212   1.748  0.3348 -0.1843 -0.9296
 5497TIP3    H138050   3.238   1.238   1.656 -0.7245  1.5404 -0.5154
 5497TIP3    H238051   3.244   1.294   1.796 -1.1711 -0.8385  0.5093
 5498TIP3   OH238052   4.802   1.868   2.909  0.3366 -0.3821 -0.4031
 5498TIP3    H138053   4.763   1.786   2.940 -1.0856 -0.1810 -1.5723
 5498TIP3    H238054   4.856   1.897   2.982 -0.3635 -1.5641  0.6350
 5499TIP3   OH238055   1.940   2.935   1.417  0.1772 -0.0896  0.6820
 5499TIP3    H138056   1.856   2.982   1.413 -0.7989 -1.8321 -0.2763
 5499TIP3    H238057   1.916   2.843   1.423  2.0371 -0.6286  0.4227
 5500TIP3   OH238058   4.671   4.366   2.372 -0.6283 -0.4450 -0.1460
 5500TIP3    H138059   4.654   4.286   2.323 -0.0498 -1.2225  0.8800
 5500TIP3    H238060   4.591   4.381   2.423 -0.1033 -1.4181  1.0343
 5501TIP3   OH238061   0.865   3.789   8.082  0.0846  0.7366  0.6646
 5501TIP3    H138062   0.893   3.870   8.040 -0.9272  0.3031 -0.9384
 5501TIP3    H238063   0.781   3.770   8.042  0.6652 -1.5241  0.3966
 5502TIP3   OH238064   4.857   0.589   1.235  0.0236  0.2256 -0.8869
 5502TIP3    H138065   4.902   0.570   1.152  1.6160  2.0745 -0.5217
 5502TIP3    H238066   4.928   0.601   1.298 -1.1424 -0.3604  0.6063
 5503TIP3   OH238067   4.538   6.398   2.635 -0.5280 -0.2236 -0.1380
 5503TIP3    H138068   4.520   6.432   2.723  0.0770 -2.3207  0.8533
 5503TIP3    H238069   4.452   6.391   2.594 -1.0273 -1.0394  1.0079
 5504TIP3   OH238070   1.713   2.063   8.733  0.2763  0.1286  0.8228
 5504TIP3    H138071   1.797   2.095   8.765 -0.0517  0.0557  1.7967
 5504TIP3    H238072   1.709   1.972   8.765  1.2015 -0.9709 -1.8830
 5505TIP3   OH238073   5.633   5.554   2.626  0.1432 -0.4112  0.0048
 5505TIP3    H138074   5.651   5.648   2.639  1.9165 -1.0738  4.0409
 5505TIP3    H238075   5.712   5.521   2.584 -1.1090  0.0088 -2.8905
 5506TIP3   OH238076   1.863   4.745   8.701 -0.2167  0.2177  0.1718
 5506TIP3    H138077   1.816   4.770   8.782 -1.4725  1.6827 -0.9372
 5506TIP3    H238078   1.851   4.650   8.695 -3.8471  0.5696 -0.4317
 5507TIP3   OH238079   4.777   3.324   2.350  0.3367 -0.3165  0.1827
 5507TIP3    H138080   4.799   3.266   2.422 -1.0172  1.4435  2.1467
 5507TIP3    H238081   4.696   3.288   2.313 -0.1067 -0.0974  0.9261
 5508TIP3   OH238082   3.525   4.225   8.212 -0.3106  0.6061  0.0038
 5508TIP3    H138083   3.489   4.302   8.167 -0.5434 -0.3365 -1.4977
 5508TIP3    H238084   3.597   4.196   8.156  0.2735  0.1698  0.9538
 5509TIP3   OH238085   4.639   1.013   2.795 -0.5280  0.0619 -0.5045
 5509TIP3    H138086   4.669   1.101   2.770 -0.2944 -0.2947 -1.5154
 5509TIP3    H238087   4.638   1.015   2.890  0.5609  0.8112 -0.4853
 5510TIP3   OH238088   4.104   0.130   1.901 -0.2184  0.3335 -0.0803
 5510TIP3    H138089   4.142   0.117   1.814  0.4628 -0.4354  0.3202
 5510TIP3    H238090   4.155   0.202   1.939  1.6358 -1.3741  0.8587
 5511TIP3   OH238091   5.838   2.629   8.004  0.1452 -0.4828  0.5016
 5511TIP3    H138092   5.851   2.711   7.956  0.0687 -0.0696  1.1657
 5511TIP3    H238093   5.775   2.580   7.952 -0.7077  0.3854  0.6935
 5512TIP3   OH238094   6.346   0.086   2.787 -1.0104  0.2261 -0.3455
 5512TIP3    H138095   6.259   0.082   2.749 -0.6011  1.0415 -1.4182
 5512TIP3    H238096   6.332   0.076   2.881 -2.6487  3.4171 -0.1039
 5513TIP3   OH238097   3.798   2.295   7.809  0.5035  0.0350 -0.4941
 5513TIP3    H138098   3.804   2.201   7.827  1.7479  0.0638 -0.6785
 5513TIP3    H238099   3.829   2.305   7.719  0.2058  0.6088 -0.5396
 5514TIP3   OH238100   0.255   3.779   0.863  0.3065 -0.0728 -0.3876
 5514TIP3    H138101   0.260   3.858   0.916 -1.9449 -0.7747  1.0075
 5514TIP3    H238102   0.339   3.735   0.876  0.6379  0.8737  0.7806
 5515TIP3   OH238103   1.665   4.411   7.957 -0.1523 -0.2466 -0.8656
 5515TIP3    H138104   1.674   4.336   7.898 -0.4202 -0.4443 -0.6582
 5515TIP3    H238105   1.686   4.376   8.044  0.8029  0.1763 -0.9177
 5516TIP3   OH238106   4.962   0.011   8.146 -0.2955 -0.6680  0.4408
 5516TIP3    H138107   5.057   0.019   8.138  0.1356 -4.4204 -0.0980
 5516TIP3    H238108   4.947  -0.010   8.238 -0.3197 -1.8777  0.1897
 5517TIP3   OH238109   3.554   1.423   2.325 -0.3695 -0.0418 -0.5022
 5517TIP3    H138110   3.646   1.432   2.350 -0.3287 -0.9541 -0.2685
 5517TIP3    H238111   3.547   1.469   2.241  0.9289 -2.1069 -1.8586
 5518TIP3   OH238112   0.772   2.344   8.357  0.8461 -0.3552  0.8281
 5518TIP3    H138113   0.709   2.288   8.313 -0.7348  0.4224  1.9764
 5518TIP3    H238114   0.841   2.359   8.292 -0.2809 -1.0218 -0.5820
 5519TIP3   OH238115   4.410   3.911   0.257  0.6899 -0.1529  0.1164
 5519TIP3    H138116   4.323   3.922   0.294  0.2573 -2.7468  0.0727
 5519TIP3    H238117   4.470   3.934   0.328 -0.1088 -2.0210  1.4651
 5520TIP3   OH238118   1.168   3.557   0.475  0.4208  0.5846  0.0363
 5520TIP3    H138119   1.104   3.555   0.545  1.4621 -0.8880  1.0023
 5520TIP3    H238120   1.183   3.650   0.458 -2.8397  1.0465 -1.1213
 5521TIP3   OH238121   2.701   1.687   1.114  0.4313  0.0808 -0.1596
 5521TIP3    H138122   2.747   1.765   1.081  0.3146  0.3587  0.3186
 5521TIP3    H238123   2.638   1.665   1.046 -0.4806  1.2231  0.2754
 5522TIP3   OH238124   0.319   2.618   8.823 -0.2581 -0.2356 -0.1719
 5522TIP3    H138125   0.290   2.685   8.761 -0.4058  0.5361  0.7130
 5522TIP3    H238126   0.335   2.665   8.905  2.0934 -0.8599 -0.1908
 5523TIP3   OH238127   3.363   6.673   7.984 -0.3315  0.5150  0.1080
 5523TIP3    H138128   3.407   6.612   7.924  1.3729  0.4196  1.3772
 5523TIP3    H238129   3.382   6.639   8.071 -1.1813  1.6790  0.7668
 5524TIP3   OH238130   2.471   6.713   8.156  0.0671  0.1205 -0.1534
 5524TIP3    H138131   2.481   6.618   8.163 -1.8444 -0.1718 -0.6285
 5524TIP3    H238132   2.485   6.745   8.245  0.1982 -0.6679  0.1216
 5525TIP3   OH238133   5.403   1.183   8.864 -0.4389  0.2384  0.0294
 5525TIP3    H138134   5.444   1.180   8.778 -0.3488  2.0069 -0.0144
 5525TIP3    H238135   5.462   1.237   8.917 -0.0870 -1.4275  1.4519
 5526TIP3   OH238136   1.124   4.864   2.644  0.3212  0.3201  0.1038
 5526TIP3    H138137   1.060   4.799   2.672 -0.2948  0.0378 -1.8356
 5526TIP3    H238138   1.178   4.819   2.579  1.6492  0.9655  0.7147
 5527TIP3   OH238139   2.186   2.863   0.844  0.4620 -0.1541  0.2682
 5527TIP3    H138140   2.204   2.838   0.753 -0.2753 -0.9083  0.3174
 5527TIP3    H238141   2.253   2.928   0.865  0.6465  0.0173 -0.8128
 5528TIP3   OH238142   0.562   2.215   0.358  0.1922 -0.0167 -1.2231
 5528TIP3    H138143   0.627   2.197   0.425 -1.1391  0.3062  0.2109
 5528TIP3    H238144   0.577   2.306   0.333 -1.8695  1.3019  1.7401
 5529TIP3   OH238145   5.862   4.861   0.672  0.2188 -1.0353 -0.7966
 5529TIP3    H138146   5.956   4.853   0.654  0.4691  0.6770 -0.3551
 5529TIP3    H238147   5.845   4.955   0.671 -1.2508 -1.2635  0.3596
 5530TIP3   OH238148   1.325   1.330   2.509  0.2826  0.0697  0.3755
 5530TIP3    H138149   1.396   1.271   2.484  0.3276  0.7004 -1.0712
 5530TIP3    H238150   1.364   1.390   2.572  1.1683  0.6801 -0.7306
 5531TIP3   OH238151   0.783   4.330   0.706 -0.2018 -0.0431 -0.0564
 5531TIP3    H138152   0.812   4.258   0.762 -1.5694 -0.9157 -0.4252
 5531TIP3    H238153   0.791   4.296   0.617 -0.6786  0.3148 -0.2427
 5532TIP3   OH238154   0.384   6.363   8.151 -0.3554  1.0196 -0.2168
 5532TIP3    H138155   0.344   6.356   8.064  1.4077  1.4220 -1.1084
 5532TIP3    H238156   0.348   6.444   8.188 -1.4733  0.6060 -0.3563
 5533TIP3   OH238157   0.587   4.575   0.599 -0.3403 -0.5611 -0.5407
 5533TIP3    H138158   0.645   4.515   0.552  0.8582 -0.1535  0.3610
 5533TIP3    H238159   0.598   4.551   0.691 -0.5666  0.4265 -0.2514
 5534TIP3   OH238160   2.935   0.209   0.208 -0.4793  0.4791 -0.0274
 5534TIP3    H138161   2.840   0.219   0.220 -0.4147  0.0412  0.8833
 5534TIP3    H238162   2.945   0.124   0.164 -0.5352  0.7907 -0.6585
 5535TIP3   OH238163   2.980   2.364   7.802  0.0685 -0.0776  0.5327
 5535TIP3    H138164   3.014   2.317   7.727  0.3844  1.0573 -0.0682
 5535TIP3    H238165   2.885   2.354   7.798  0.0286  0.6508 -0.4880
 5536TIP3   OH238166   6.104   0.539   1.702  0.1647  0.0468  0.2239
 5536TIP3    H138167   6.109   0.472   1.634 -0.8219  1.4997 -1.3811
 5536TIP3    H238168   6.039   0.507   1.764  0.9525 -1.2257  0.4365
 5537TIP3   OH238169   5.907   5.663   2.252 -0.3762 -0.2070 -0.2085
 5537TIP3    H138170   5.996   5.690   2.232 -0.4270 -0.2651 -0.5227
 5537TIP3    H238171   5.907   5.568   2.235 -0.2327 -0.3843  0.7504
 5538TIP3   OH238172   4.663   1.028   7.237  0.0008 -0.1484 -0.2368
 5538TIP3    H138173   4.617   1.111   7.223 -0.9246 -0.3320  1.4696
 5538TIP3    H238174   4.596   0.961   7.221  0.0180 -0.4672  0.9711
 5539TIP3   OH238175   0.263   3.651   2.748 -0.0355  0.0379 -0.2464
 5539TIP3    H138176   0.260   3.743   2.722  0.6252  0.6909  1.8181
 5539TIP3    H238177   0.324   3.611   2.685  0.0317  1.0925 -0.8839
 5540TIP3   OH238178   2.687   3.937   3.239 -0.3957  0.2043 -0.2374
 5540TIP3    H138179   2.696   4.001   3.309 -0.3403 -2.0440  1.9317
 5540TIP3    H238180   2.736   3.974   3.166 -0.5923  2.7061  0.8071
 5541TIP3   OH238181   0.225   2.804   2.187  0.0553 -0.2055 -0.3096
 5541TIP3    H138182   0.193   2.862   2.117  1.3697  0.3883 -0.4443
 5541TIP3    H238183   0.297   2.852   2.227 -0.0409 -0.9631  0.8314
 5542TIP3   OH238184   1.414   6.335   0.327  0.4991 -0.2136  0.5929
 5542TIP3    H138185   1.485   6.302   0.381  0.0433 -1.1484  0.6308
 5542TIP3    H238186   1.443   6.322   0.237  1.7592  2.3806  0.5092
 5543TIP3   OH238187   5.072   3.544   8.576 -0.4845 -0.1505  0.3153
 5543TIP3    H138188   5.089   3.558   8.483 -1.3512 -1.9156 -0.1592
 5543TIP3    H238189   5.130   3.473   8.601  0.7867  1.2428  1.5432
 5544TIP3   OH238190   5.292   0.250   2.743  0.0394 -0.4648  1.0438
 5544TIP3    H138191   5.352   0.324   2.749  2.3277 -2.1806  0.7290
 5544TIP3    H238192   5.252   0.258   2.656  1.2122 -0.2605  0.5119
 5545TIP3   OH238193   4.157   0.768   0.399 -0.4765 -0.0044 -0.5396
 5545TIP3    H138194   4.157   0.864   0.406 -0.6305 -0.1120  1.8932
 5545TIP3    H238195   4.132   0.750   0.309 -2.8372  2.2363 -0.4379
 5546TIP3   OH238196   3.840   4.851   1.089 -0.3821 -0.0273  0.1377
 5546TIP3    H138197   3.798   4.811   1.165  0.0548  0.2428  0.5291
 5546TIP3    H238198   3.841   4.782   1.023 -0.2871 -0.4338  0.5616
 5547TIP3   OH238199   4.994   4.908   2.918  0.7820 -0.6042 -0.3348
 5547TIP3    H138200   4.983   4.813   2.917  1.2038 -0.6659 -2.0324
 5547TIP3    H238201   4.927   4.940   2.858  0.7511  0.1732  0.1067
 5548TIP3   OH238202   0.037   1.982   1.423 -0.5891 -0.0542 -0.6824
 5548TIP3    H138203  -0.006   2.063   1.452 -0.9980  0.8912 -3.5995
 5548TIP3    H238204   0.129   2.007   1.414 -0.1605 -0.8115  1.2675
 5549TIP3   OH238205   3.488   6.094   3.083  0.0228 -0.1771 -0.5212
 5549TIP3    H138206   3.415   6.067   3.029  0.5508  1.0234 -1.9047
 5549TIP3    H238207   3.450   6.110   3.170 -0.7209 -2.7047 -0.3235
 5550TIP3   OH238208   3.094   0.620   8.063  0.2958 -0.1913  0.1193
 5550TIP3    H138209   3.167   0.598   8.006  1.3124 -1.0767  1.6971
 5550TIP3    H238210   3.120   0.588   8.150 -2.2331 -1.1124  0.6215
 5551TIP3   OH238211   1.131   6.486   1.691  0.1494  0.0793  0.2383
 5551TIP3    H138212   1.065   6.536   1.642  0.6592 -0.7582 -1.3793
 5551TIP3    H238213   1.198   6.466   1.626  1.0962 -0.6829  1.4230
 5552TIP3   OH238214   4.903   0.750   0.255  0.8550  0.0852  0.5406
 5552TIP3    H138215   4.900   0.845   0.244  1.7676 -0.0571 -1.1554
 5552TIP3    H238216   4.813   0.721   0.239  1.2191  0.3616 -2.5221
 5553TIP3   OH238217   1.859   5.411   0.035 -0.4503  0.5419 -0.1403
 5553TIP3    H138218   1.883   5.429   0.126 -0.2029  0.7639 -0.2442
 5553TIP3    H238219   1.920   5.466  -0.016 -2.5197  2.7787 -0.3891
 5554TIP3   OH238220   5.253   0.839   0.243 -0.0439  0.5025 -0.3671
 5554TIP3    H138221   5.217   0.928   0.249  0.2761  0.7485 -1.6628
 5554TIP3    H238222   5.345   0.852   0.217  0.3200 -0.1812  0.5477
 5555TIP3   OH238223   6.096   1.639   3.128  0.5250  0.4707 -0.3178
 5555TIP3    H138224   6.058   1.604   3.208 -1.4908  1.5774 -0.7376
 5555TIP3    H238225   6.065   1.581   3.058  4.2186 -1.9959 -0.2300
 5556TIP3   OH238226   6.445   5.762   2.249  0.1409 -0.0531 -0.6354
 5556TIP3    H138227   6.518   5.724   2.200 -0.4519 -0.2515 -1.3768
 5556TIP3    H238228   6.443   5.853   2.220 -0.1867 -0.1617 -0.9644
 5557TIP3   OH238229   5.442   4.148   2.134  0.2550 -0.2525  0.3628
 5557TIP3    H138230   5.513   4.127   2.195  0.5168 -1.1313 -0.2282
 5557TIP3    H238231   5.434   4.243   2.137  2.0889 -0.0547 -0.2754
 5558TIP3   OH238232   5.669   1.298   3.451  0.3328 -0.2956  0.3036
 5558TIP3    H138233   5.577   1.276   3.459  0.2992 -0.0106  0.7990
 5558TIP3    H238234   5.670   1.388   3.418  0.4507 -0.6451 -0.6697
 5559TIP3   OH238235   2.457   5.873   2.219  0.1193  0.0707 -0.3186
 5559TIP3    H138236   2.463   5.816   2.295 -0.1445  1.7412  1.0012
 5559TIP3    H238237   2.499   5.954   2.245 -0.7763  1.0079 -1.6348
 5560TIP3   OH238238   1.713   1.541   2.208  0.0146 -0.4151  0.7359
 5560TIP3    H138239   1.625   1.548   2.170 -0.1963  0.8379  1.3911
 5560TIP3    H238240   1.725   1.623   2.255  1.2937 -0.8458  1.2024
 5561TIP3   OH238241   0.330   4.363   1.985 -0.2745 -0.1213  0.0775
 5561TIP3    H138242   0.317   4.280   1.940 -0.9753  0.5558 -1.0205
 5561TIP3    H238243   0.254   4.371   2.042 -1.0069  0.4441 -0.9407
 5562TIP3   OH238244   1.745   5.392   2.623  0.6192  0.1467  0.0962
 5562TIP3    H138245   1.777   5.395   2.713  0.8594  0.9353 -0.0046
 5562TIP3    H238246   1.727   5.299   2.607  0.6316 -0.0083  0.9321
 5563TIP3   OH238247   5.158   0.494   1.650 -0.0503  0.0211  0.5868
 5563TIP3    H138248   5.096   0.511   1.720  0.8106  1.1122  1.1304
 5563TIP3    H238249   5.239   0.536   1.680  0.4615  0.1058 -0.8565
 5564TIP3   OH238250   2.589   6.377   0.738 -0.6669  0.1513  0.2220
 5564TIP3    H138251   2.665   6.410   0.691 -0.2302 -2.0930 -0.7725
 5564TIP3    H238252   2.625   6.310   0.797 -1.9038 -1.5812 -0.8999
 5565TIP3   OH238253   1.001   4.782   8.809  0.1633  0.5640  0.9388
 5565TIP3    H138254   1.071   4.717   8.808 -0.6271 -0.3165 -0.2824
 5565TIP3    H238255   1.014   4.830   8.890  2.2625  0.5210  0.6777
 5566TIP3   OH238256   3.466   5.295   0.733  0.6589 -0.3684 -0.3308
 5566TIP3    H138257   3.561   5.284   0.731  0.8992  1.1547 -3.8973
 5566TIP3    H238258   3.452   5.372   0.788  1.0508 -2.4763  3.0081
 5567TIP3   OH238259   6.305   1.508   1.326 -0.2024  0.3698 -0.4795
 5567TIP3    H138260   6.333   1.568   1.257  0.7560  1.5639  0.8884
 5567TIP3    H238261   6.232   1.553   1.369  0.0131  0.2170  0.0603
 5568TIP3   OH238262   0.121   0.333   2.573  0.6088  0.5759 -0.3174
 5568TIP3    H138263   0.047   0.343   2.513  0.6417  0.0709 -0.4457
 5568TIP3    H238264   0.082   0.296   2.653  0.7148  0.3599 -0.3661
 5569TIP3   OH238265   5.268   4.867   2.746  0.5503 -0.6694  0.6528
 5569TIP3    H138266   5.287   4.921   2.822  2.8890 -0.9601  0.3317
 5569TIP3    H238267   5.282   4.778   2.775  1.9110 -0.7627 -0.1828
 5570TIP3   OH238268   0.738   5.918   3.408 -0.0407  0.0802  0.5905
 5570TIP3    H138269   0.823   5.959   3.396 -0.2616  0.7782  1.3439
 5570TIP3    H238270   0.755   5.824   3.400  1.0732  0.1045  2.1295
 5571TIP3   OH238271   0.235   4.012   1.012 -0.4528  0.0389  0.1062
 5571TIP3    H138272   0.188   4.095   1.015  1.1951  1.0451 -0.2798
 5571TIP3    H238273   0.215   3.970   1.096  0.0038  1.6138  1.0570
 5572TIP3   OH238274   1.562   0.767   1.127  0.2677 -0.0366  0.5457
 5572TIP3    H138275   1.593   0.799   1.042  0.6615 -3.5225 -0.8074
 5572TIP3    H238276   1.623   0.805   1.190 -0.5279  3.3229 -0.4891
 5573TIP3   OH238277   1.790   0.188   1.125 -0.2975  0.2815  0.1876
 5573TIP3    H138278   1.700   0.216   1.109 -0.1520  0.9625  0.5039
 5573TIP3    H238279   1.782   0.114   1.185 -0.7755 -1.4419 -1.8794
 5574TIP3   OH238280   1.298   1.268   7.625  0.0768  0.0523 -0.0699
 5574TIP3    H138281   1.375   1.223   7.590  0.6839 -0.3299  1.6575
 5574TIP3    H238282   1.334   1.342   7.673 -0.4477 -1.2021  2.3844
 5575TIP3   OH238283   2.350   1.123   2.660  0.2655 -0.5666 -0.1644
 5575TIP3    H138284   2.353   1.029   2.641 -0.3982 -0.8941  1.1961
 5575TIP3    H238285   2.262   1.138   2.693 -0.2700  0.9315 -2.0784
 5576TIP3   OH238286   0.255   2.422   1.622 -0.2273 -0.3282 -0.4002
 5576TIP3    H138287   0.283   2.392   1.535  1.1874 -1.5295  0.4203
 5576TIP3    H238288   0.233   2.341   1.669 -3.8108  0.4342 -0.4839
 5577TIP3   OH238289   2.915   6.257   1.672  0.2229  0.2551 -0.3143
 5577TIP3    H138290   2.974   6.331   1.657 -1.4182  1.3239 -1.8740
 5577TIP3    H238291   2.845   6.292   1.727  0.0855 -0.4901  0.0063
 5578TIP3   OH238292   4.654   5.972   3.089  0.2068  0.6810 -0.8405
 5578TIP3    H138293   4.670   6.063   3.064  0.5798  0.3001 -2.0297
 5578TIP3    H238294   4.664   5.922   3.008 -2.7326 -0.1306 -0.7887
 5579TIP3   OH238295   1.593   1.626   8.090 -0.4083  0.0382  0.2217
 5579TIP3    H138296   1.602   1.540   8.050  2.3280  0.5552 -0.4899
 5579TIP3    H238297   1.610   1.688   8.019  1.9386  1.0283  1.5029
 5580TIP3   OH238298   2.290   1.940   8.694  0.5310  0.0990 -1.2128
 5580TIP3    H138299   2.278   1.846   8.679 -0.3065  0.1494 -0.9504
 5580TIP3    H238300   2.298   1.948   8.789  2.6499  0.1015 -1.3524
 5581TIP3   OH238301   2.443   2.537   8.438  0.1683  0.3101 -0.0668
 5581TIP3    H138302   2.352   2.520   8.464  0.9250 -0.3887  2.3903
 5581TIP3    H238303   2.484   2.450   8.436  1.2937  0.7807  1.1186
 5582TIP3   OH238304   3.980   2.359   0.444 -0.2029 -0.6924  0.4758
 5582TIP3    H138305   4.021   2.363   0.530  0.0658 -0.2729  0.3296
 5582TIP3    H238306   4.041   2.308   0.390 -0.8749 -1.9013  0.8017
 5583TIP3   OH238307   3.322   2.226   1.133 -0.1338 -0.2984 -0.0129
 5583TIP3    H138308   3.356   2.265   1.214 -0.8133 -0.7612  0.5033
 5583TIP3    H238309   3.270   2.152   1.162  1.6413 -2.0197 -1.0060
 5584TIP3   OH238310   5.792   3.976   3.225 -0.0278  0.9910  0.2909
 5584TIP3    H138311   5.740   3.918   3.282 -0.1851  0.5422 -0.3042
 5584TIP3    H238312   5.853   3.917   3.181 -1.3655  0.9907 -1.6589
 5585TIP3   OH238313   6.165   0.180   3.063  0.2195  0.0362  0.2840
 5585TIP3    H138314   6.099   0.135   3.115  1.0683 -1.4764  0.1247
 5585TIP3    H238315   6.242   0.184   3.120  1.5382 -2.6828 -1.1472
 5586TIP3   OH238316   4.602   5.529   2.258  0.1379  0.0626  0.1927
 5586TIP3    H138317   4.548   5.581   2.198 -1.3773 -2.5908 -0.9301
 5586TIP3    H238318   4.673   5.496   2.204  0.3853 -0.0413  0.5792
 5587TIP3   OH238319   1.549   3.099   1.971 -0.3319  0.3898  0.1044
 5587TIP3    H138320   1.511   3.167   1.916  1.0256  0.4934 -0.7518
 5587TIP3    H238321   1.508   3.018   1.942 -1.1164  0.6864  0.3533
 5588TIP3   OH238322   1.839   6.334   1.243 -0.1840 -0.0045 -0.3600
 5588TIP3    H138323   1.779   6.408   1.240 -1.6798 -1.1902 -2.1979
 5588TIP3    H238324   1.834   6.303   1.333 -2.0141  0.2116 -0.3443
 5589TIP3   OH238325   5.232   0.252   0.975 -0.3471 -0.5974  0.4870
 5589TIP3    H138326   5.303   0.317   0.976 -0.1671 -0.7563 -0.4884
 5589TIP3    H238327   5.213   0.235   1.067  1.1501 -0.8463  0.7739
 5590TIP3   OH238328   2.738   0.860   8.533 -0.2605 -0.1718  0.2705
 5590TIP3    H138329   2.767   0.830   8.446  0.6820 -0.8027  0.7751
 5590TIP3    H238330   2.736   0.780   8.586  0.5977  0.3887  1.1983
 5591TIP3   OH238331   5.928   2.364   0.151  0.1544 -0.1747 -0.2594
 5591TIP3    H138332   5.933   2.459   0.161 -0.1154 -0.0694 -1.0539
 5591TIP3    H238333   5.955   2.329   0.236  0.3335  0.6094  0.0103
 5592TIP3   OH238334   3.555   2.947   8.673 -0.1095  0.2121  0.1149
 5592TIP3    H138335   3.509   2.953   8.757  0.8557  0.4013  0.6418
 5592TIP3    H238336   3.571   3.039   8.648  0.8652  0.1320  0.4338
 5593TIP3   OH238337   2.352   5.043   2.196  0.3468 -0.0803 -0.7692
 5593TIP3    H138338   2.305   5.126   2.184  0.3607 -0.1104 -1.0457
 5593TIP3    H238339   2.339   5.021   2.288 -0.8459 -0.4967 -1.0190
 5594TIP3   OH238340   5.868   1.565   8.873  0.5704 -0.0598  0.1446
 5594TIP3    H138341   5.824   1.590   8.955 -2.9587 -1.2227 -1.1934
 5594TIP3    H238342   5.890   1.472   8.886 -0.3372 -0.3513 -0.2870
 5595TIP3   OH238343   4.138   5.160   8.495 -0.6017 -0.1266 -0.2110
 5595TIP3    H138344   4.222   5.200   8.514  0.9117 -3.0790 -0.1917
 5595TIP3    H238345   4.074   5.221   8.532  1.3636  2.7778 -1.2308
 5596TIP3   OH238346   1.731   2.589   0.009  0.5476 -0.3760  0.5652
 5596TIP3    H138347   1.706   2.506   0.051 -0.1105 -1.1092 -1.1726
 5596TIP3    H238348   1.654   2.615  -0.041  0.1563  2.1928  2.3321
 5597TIP3   OH238349   3.068   6.499   2.598 -0.4965  0.4187 -0.6965
 5597TIP3    H138350   3.101   6.411   2.619 -1.6697  0.1633  0.1875
 5597TIP3    H238351   3.118   6.525   2.521  0.9198 -0.4183 -0.1149
 5598TIP3   OH238352   1.939   0.092   0.527  0.0308 -0.0555 -0.0494
 5598TIP3    H138353   1.997   0.057   0.595 -1.0552 -0.2436  0.8104
 5598TIP3    H238354   1.913   0.015   0.476 -0.1372 -0.1049  0.1069
 5599TIP3   OH238355   0.691   0.251   2.201  0.5227  0.0456 -0.3167
 5599TIP3    H138356   0.662   0.296   2.280  0.3061  0.9951 -0.9246
 5599TIP3    H238357   0.710   0.321   2.139 -2.9851 -0.6626 -2.4746
 5600TIP3   OH238358   4.030   5.536   7.782 -0.8918 -0.0811 -0.2073
 5600TIP3    H138359   4.120   5.517   7.807 -1.5648 -1.3320  1.4665
 5600TIP3    H238360   4.031   5.629   7.757  0.6538  0.2129  0.8156
 5601TIP3   OH238361   3.884   4.087   1.523  0.1738  0.0368 -0.7604
 5601TIP3    H138362   3.960   4.145   1.516  0.1991 -0.1213 -2.4054
 5601TIP3    H238363   3.919   4.000   1.506 -0.3362 -0.0479 -1.4551
 5602TIP3   OH238364   0.012   4.460   2.859 -0.3949 -0.2072  0.3274
 5602TIP3    H138365   0.029   4.540   2.909  2.3468 -0.4623 -0.0312
 5602TIP3    H238366   0.016   4.390   2.924 -2.6984 -0.1255  0.6251
 5603TIP3   OH238367   3.969   2.171   8.104 -0.6830  0.1633 -0.1706
 5603TIP3    H138368   3.981   2.229   8.180 -0.3056  1.7238 -1.3636
 5603TIP3    H238369   4.031   2.099   8.119  1.1685  1.6741 -0.1099
 5604TIP3   OH238370   5.461   6.611   8.014  0.4779 -0.5408  0.5051
 5604TIP3    H138371   5.516   6.576   7.944  1.6768 -0.1022  1.1953
 5604TIP3    H238372   5.448   6.536   8.073  0.2256 -0.6704  0.2918
 5605TIP3   OH238373   4.079   3.633   8.475  0.2117 -0.5019  0.4420
 5605TIP3    H138374   4.033   3.555   8.445  0.0798 -1.3157  2.5922
 5605TIP3    H238375   4.010   3.692   8.506  0.4130 -0.2627  0.4395
 5606TIP3   OH238376   2.792   3.063   8.637 -0.0401  0.3879 -0.0640
 5606TIP3    H138377   2.803   3.128   8.568  0.2945  1.7941  1.2658
 5606TIP3    H238378   2.714   3.090   8.684 -0.3744 -0.6670  0.0179
 5607TIP3   OH238379   6.273   2.241   1.622 -0.6135 -0.1658  0.1103
 5607TIP3    H138380   6.261   2.163   1.675 -0.7293 -0.7641 -0.7644
 5607TIP3    H238381   6.326   2.211   1.547  0.2609  0.8287  0.2977
 5608TIP3   OH238382   6.551   0.080   8.457  0.1882  0.0401  0.0231
 5608TIP3    H138383   6.529  -0.009   8.432  2.1091 -0.5989  0.4480
 5608TIP3    H238384   6.479   0.108   8.514 -0.3910 -1.2519 -0.0532
 5609TIP3   OH238385   2.397   6.113   3.528 -0.1874  0.9295  0.0001
 5609TIP3    H138386   2.459   6.067   3.471  0.0189 -0.2985  1.1580
 5609TIP3    H238387   2.332   6.046   3.551 -0.4816  1.4996  0.8715
 5610TIP3   OH238388   0.785   1.210   0.618 -0.3714  0.2315  0.2007
 5610TIP3    H138389   0.789   1.176   0.707  0.0756 -3.4250 -1.0680
 5610TIP3    H238390   0.727   1.149   0.572  1.4363  0.4785 -2.5999
 5611TIP3   OH238391   1.088   1.067   7.881 -0.0423  0.2958  0.3664
 5611TIP3    H138392   1.014   1.124   7.902 -0.6924 -0.8548  1.3299
 5611TIP3    H238393   1.048   0.983   7.858  0.9218  0.0356 -0.4251
 5612TIP3   OH238394   1.910   2.643   8.094  0.4180 -0.4544  0.4813
 5612TIP3    H138395   1.831   2.618   8.047 -0.5426 -0.1413  1.8885
 5612TIP3    H238396   1.902   2.738   8.107  0.9823 -0.4335  0.7311
 5613TIP3   OH238397   2.420   2.498   2.348 -0.3913  0.5592  0.0026
 5613TIP3    H138398   2.494   2.556   2.335 -0.8258  1.2276  0.4540
 5613TIP3    H238399   2.345   2.545   2.312 -0.2192 -1.2460 -2.9774
 5614TIP3   OH238400   4.811   2.916   1.820 -0.2223  1.2957  0.3995
 5614TIP3    H138401   4.797   3.011   1.824  0.0777  1.4196 -0.9984
 5614TIP3    H238402   4.905   2.905   1.828 -0.1701  1.1883 -0.2921
 5615TIP3   OH238403   4.137   3.997   2.268 -0.1104 -0.6600  0.6591
 5615TIP3    H138404   4.186   3.928   2.222  3.8431  1.7892  0.6753
 5615TIP3    H238405   4.170   3.994   2.357  1.8527  2.4062  0.1779
 5616TIP3   OH238406   0.685   3.915   7.511 -0.4500 -0.2106  0.5463
 5616TIP3    H138407   0.609   3.965   7.540  0.2292  0.6355  0.9078
 5616TIP3    H238408   0.676   3.910   7.416 -2.0449 -1.9451  0.7074
 5617TIP3   OH238409   2.682   0.524   2.899 -0.4496  1.1665 -0.7692
 5617TIP3    H138410   2.768   0.487   2.921 -0.3106  2.0356  0.2654
 5617TIP3    H238411   2.640   0.458   2.844  0.8279  0.6657 -1.1814
 5618TIP3   OH238412   0.130   0.927   7.945 -0.2688  0.3032 -0.0363
 5618TIP3    H138413   0.167   0.843   7.920  0.0807  0.7202 -0.9685
 5618TIP3    H238414   0.082   0.957   7.868 -2.2620 -0.0298  1.0027
 5619TIP3   OH238415   1.457   4.728   0.317 -0.4944 -0.2463 -0.0962
 5619TIP3    H138416   1.551   4.725   0.300 -0.1290 -2.8167  1.8244
 5619TIP3    H238417   1.445   4.800   0.379 -0.1620  1.3471 -1.7828
 5620TIP3   OH238418   4.559   3.783   8.139  0.5005 -0.3927 -0.1730
 5620TIP3    H138419   4.634   3.727   8.154 -0.4228 -1.6062  0.0824
 5620TIP3    H238420   4.540   3.823   8.224  0.9479  0.0532 -0.2775
 5621TIP3   OH238421   5.783   4.016   1.191 -0.0404  0.0214  0.3922
 5621TIP3    H138422   5.779   3.984   1.101 -1.1730  2.1567 -0.3919
 5621TIP3    H238423   5.857   4.078   1.192 -0.3445  0.3875  0.7852
 5622TIP3   OH238424   0.835   3.249   2.926  0.0766  0.2124 -0.3475
 5622TIP3    H138425   0.796   3.255   3.013  0.0690  1.8574 -0.4319
 5622TIP3    H238426   0.762   3.262   2.865  0.2496  0.1341 -0.5739
 5623TIP3   OH238427   2.200   0.539   0.475  0.0362  0.9405  0.4922
 5623TIP3    H138428   2.174   0.451   0.503 -0.1834  0.6101 -0.6811
 5623TIP3    H238429   2.270   0.523   0.411 -0.1841  1.6015  0.0815
 5624TIP3   OH238430   4.061   0.203   0.927 -0.1340 -0.1114 -0.0142
 5624TIP3    H138431   3.977   0.177   0.965  0.0592 -0.9345 -0.1131
 5624TIP3    H238432   4.049   0.294   0.901 -0.5202  0.2580  1.3290
 5625TIP3   OH238433   0.064   6.301   1.823  0.4632 -0.1737 -0.0246
 5625TIP3    H138434   0.051   6.391   1.853 -3.7231  0.2554 -2.3193
 5625TIP3    H238435   0.002   6.250   1.875 -2.2977 -0.3873 -3.1324
 5626TIP3   OH238436   0.222   0.822   0.596 -0.7568  0.3777 -0.9570
 5626TIP3    H138437   0.257   0.907   0.568 -2.7283  0.9220 -1.9970
 5626TIP3    H238438   0.226   0.767   0.518 -1.5490  0.2504 -0.9197
 5627TIP3   OH238439   6.517   2.171   2.388  0.3411 -0.1814 -0.5936
 5627TIP3    H138440   6.563   2.168   2.304 -0.0024 -1.7682 -0.7527
 5627TIP3    H238441   6.469   2.089   2.392  0.5111 -0.2330  1.2687
 5628TIP3   OH238442   0.274   2.366   8.527  0.0490  0.1735  0.1983
 5628TIP3    H138443   0.290   2.272   8.534 -1.2374 -0.0890 -0.0215
 5628TIP3    H238444   0.320   2.393   8.448 -0.3269 -0.4684 -0.2487
 5629TIP3   OH238445   0.479   4.057   8.534 -0.7033 -0.1960  0.5264
 5629TIP3    H138446   0.527   3.976   8.551  1.0546  1.0494  1.9082
 5629TIP3    H238447   0.508   4.116   8.603 -0.4526  2.2581 -1.5533
 5630TIP3   OH238448   0.046   3.616   2.049 -0.4160 -0.1353  0.0981
 5630TIP3    H138449   0.045   3.524   2.073 -0.5696 -0.3325 -0.6435
 5630TIP3    H238450   0.133   3.647   2.076 -0.4733 -0.4151  0.6164
 5631TIP3   OH238451   1.520   6.037   8.651 -0.3365 -0.2605  0.0855
 5631TIP3    H138452   1.494   6.091   8.577 -0.4429  0.3130  0.5347
 5631TIP3    H238453   1.592   5.983   8.618  0.1799  0.5917 -0.1928
 5632TIP3   OH238454   0.745   3.251   7.925  0.1535 -0.2053  0.1356
 5632TIP3    H138455   0.822   3.291   7.885 -0.6206  0.7818 -0.4058
 5632TIP3    H238456   0.730   3.171   7.875  2.3952 -1.9071  1.9502
 5633TIP3   OH238457   3.671   5.583   2.739  0.6033 -0.6729  0.7448
 5633TIP3    H138458   3.658   5.501   2.691  1.4041 -1.2625  1.4881
 5633TIP3    H238459   3.756   5.572   2.782  1.5288  1.2254 -0.4486
 5634TIP3   OH238460   3.072   0.485   8.945 -0.4917  0.5151 -0.7393
 5634TIP3    H138461   3.116   0.540   9.010 -0.0876  1.5257 -1.8408
 5634TIP3    H238462   3.133   0.480   8.872 -2.1633  1.9422 -2.3083
 5635TIP3   OH238463   4.916   2.083   2.236  0.1038  0.2261  0.1767
 5635TIP3    H138464   4.926   2.109   2.144 -2.7266 -0.6135 -0.4928
 5635TIP3    H238465   4.826   2.108   2.258  1.0094  1.2887  3.0852
 5636TIP3   OH238466   3.824   1.871   3.576  0.2471  0.0536  0.0048
 5636TIP3    H138467   3.740   1.886   3.618 -0.5608 -1.2827 -1.0381
 5636TIP3    H238468   3.819   1.780   3.546  2.0627 -0.0448 -0.0965
 5637TIP3   OH238469   3.777   1.686   0.249 -0.9566  0.3224  0.4916
 5637TIP3    H138470   3.696   1.678   0.199 -0.1265 -0.5615 -0.7990
 5637TIP3    H238471   3.846   1.687   0.182  0.1389  0.2900  1.5805
 5638TIP3   OH238472   0.698   1.917   8.309  0.3504  0.0951  0.0751
 5638TIP3    H138473   0.667   2.005   8.290 -0.3367  0.2430  1.7762
 5638TIP3    H238474   0.621   1.861   8.298  0.5444 -0.1570 -0.0108
 5639TIP3   OH238475   1.701   4.079   2.826 -0.5301 -0.3919  0.1437
 5639TIP3    H138476   1.710   4.096   2.732  0.3432  1.3758  0.5075
 5639TIP3    H238477   1.669   4.162   2.862  1.3578 -0.2769  1.6908
 5640TIP3   OH238478   0.189   2.174   1.692  1.3034 -0.2627  0.4024
 5640TIP3    H138479   0.144   2.161   1.776 -1.8670  0.1971 -1.0514
 5640TIP3    H238480   0.254   2.104   1.689 -0.3573 -2.0112  2.0850
 5641TIP3   OH238481   5.498   6.431   0.552  0.0291  0.3233  0.1372
 5641TIP3    H138482   5.438   6.506   0.547 -0.3785 -0.0155 -0.1446
 5641TIP3    H238483   5.458   6.373   0.616  1.6267  1.4620  2.2861
 5642TIP3   OH238484   1.830   0.950   8.622  0.2341 -0.0831 -0.1136
 5642TIP3    H138485   1.900   0.911   8.570 -0.3091  0.0469 -0.9747
 5642TIP3    H238486   1.874   1.014   8.678  1.0257 -1.3323  0.7274
 5643TIP3   OH238487   0.428   5.259   7.954 -0.2919 -0.2106 -0.1511
 5643TIP3    H138488   0.480   5.252   7.873  0.0456  1.0744 -0.0557
 5643TIP3    H238489   0.357   5.319   7.932 -3.0778 -3.4719 -0.9263
 5644TIP3   OH238490   5.159   0.553   7.888 -0.0659 -0.2791  0.6186
 5644TIP3    H138491   5.178   0.527   7.798 -2.1930 -2.3194  0.6516
 5644TIP3    H238492   5.195   0.641   7.896 -0.9658  0.5238 -2.6671
 5645TIP3   OH238493   0.297   0.225   7.893 -0.3497 -0.2955  0.2993
 5645TIP3    H138494   0.305   0.289   7.823 -2.9377 -0.7331 -0.4791
 5645TIP3    H238495   0.286   0.278   7.973 -1.0506  0.2346 -0.1388
 5646TIP3   OH238496   1.165   0.379   1.993  0.0052 -0.8422 -0.5606
 5646TIP3    H138497   1.229   0.429   2.044 -0.6138  0.2580 -0.8346
 5646TIP3    H238498   1.090   0.438   1.984 -0.9752 -2.0324 -0.4194
 5647TIP3   OH238499   5.398   6.502   1.090 -0.2892  0.3463 -0.0966
 5647TIP3    H138500   5.433   6.414   1.080  0.2866  0.5913 -0.2494
 5647TIP3    H238501   5.433   6.551   1.015  1.0717  1.2456  1.0840
 5648TIP3   OH238502   4.393   5.755   8.228  0.3100 -0.0596 -0.1962
 5648TIP3    H138503   4.393   5.847   8.203 -0.9239  0.3304  1.1426
 5648TIP3    H238504   4.329   5.749   8.298  0.4970 -1.9174 -0.1402
 5649TIP3   OH238505   4.231   5.076   1.387 -0.2471  0.1311  0.2155
 5649TIP3    H138506   4.259   5.135   1.318  0.8321  0.4397  0.8937
 5649TIP3    H238507   4.137   5.067   1.375 -0.0502 -0.0031 -1.4207
 5650TIP3   OH238508   2.019   4.980   8.762 -0.0794 -0.5399  0.6120
 5650TIP3    H138509   1.939   4.928   8.766  0.0934 -0.7897  0.8627
 5650TIP3    H238510   1.988   5.070   8.753 -0.3766 -0.8260 -1.9352
 5651TIP3   OH238511   1.468   4.542   0.106 -0.7893  0.1839 -0.3007
 5651TIP3    H138512   1.563   4.547   0.119 -0.4533 -0.6101 -2.1707
 5651TIP3    H238513   1.433   4.616   0.155  0.9929  1.7231 -1.2350
 5652TIP3   OH238514   1.757   5.909   7.202 -0.0593 -0.2408  0.7702
 5652TIP3    H138515   1.819   5.918   7.274 -0.8390 -1.3654  1.6146
 5652TIP3    H238516   1.673   5.889   7.244 -0.3318 -1.9279 -0.4674
 5653TIP3   OH238517   2.451   4.865   8.467  0.0247  0.2354  0.6685
 5653TIP3    H138518   2.542   4.886   8.486  0.5260 -0.7269 -0.5842
 5653TIP3    H238519   2.403   4.943   8.494  1.3403  1.2326  0.2425
 5654TIP3   OH238520   3.650   0.514   8.679 -0.4892 -0.3844  0.0350
 5654TIP3    H138521   3.676   0.470   8.760 -0.2464 -0.3572 -0.0256
 5654TIP3    H238522   3.577   0.463   8.646 -0.5593 -0.4245  0.2466
 5655TIP3   OH238523   6.082   4.855   2.256  0.5155 -0.3922 -0.3462
 5655TIP3    H138524   6.051   4.802   2.329  1.2557  0.1431  0.3777
 5655TIP3    H238525   6.058   4.945   2.280 -1.7535 -0.4449 -2.0772
 5656TIP3   OH238526   0.290   3.866   8.370  0.0017 -0.0711  0.6805
 5656TIP3    H138527   0.243   3.899   8.446 -0.8405  1.5257 -0.4774
 5656TIP3    H238528   0.349   3.938   8.346  1.9880 -1.4465  1.1783
 5657TIP3   OH238529   3.721   4.687   1.294 -0.4334 -0.0218 -0.4917
 5657TIP3    H138530   3.812   4.659   1.305  0.4254  2.1688 -1.3931
 5657TIP3    H238531   3.669   4.611   1.318  1.6263 -1.2126  0.4401
 5658TIP3   OH238532   4.604   1.320   1.509 -0.2137  0.1943  0.0169
 5658TIP3    H138533   4.531   1.380   1.497  0.0394  0.6636  0.7675
 5658TIP3    H238534   4.584   1.245   1.452 -1.3787  0.2145  0.3884
 5659TIP3   OH238535   4.057   6.057   8.448  0.3610 -0.4071 -0.5941
 5659TIP3    H138536   4.148   6.086   8.453  0.9032 -1.9967 -0.5541
 5659TIP3    H238537   4.006   6.130   8.483  1.4533  1.2059 -2.1937
 5660TIP3   OH238538   2.732   2.300   2.462  0.4144 -0.1203  0.5016
 5660TIP3    H138539   2.653   2.287   2.410  1.2136 -0.6982 -0.6035
 5660TIP3    H238540   2.778   2.372   2.418  1.3100 -0.9027  0.1244
 5661TIP3   OH238541   3.700   5.600   1.707  0.7436  0.2026 -0.5092
 5661TIP3    H138542   3.614   5.634   1.686  0.7458  0.2726 -0.4027
 5661TIP3    H238543   3.683   5.518   1.753  0.7364  0.1435 -0.6165
 5662TIP3   OH238544   6.617   3.839   8.307  0.0183  0.5021  0.8171
 5662TIP3    H138545   6.614   3.934   8.318  1.1640  0.9148 -1.8094
 5662TIP3    H238546   6.544   3.818   8.249  0.5864 -0.0180  0.2687
 5663TIP3   OH238547   4.387   3.323   8.781  0.1167 -0.4905 -0.1642
 5663TIP3    H138548   4.409   3.366   8.864  0.1246 -4.2018  1.9566
 5663TIP3    H238549   4.345   3.392   8.729 -0.5024  1.8673  3.1277
 5664TIP3   OH238550   6.106   3.862   2.375  0.0929 -0.0765 -0.0319
 5664TIP3    H138551   6.020   3.873   2.416  0.9133  2.1546  1.2881
 5664TIP3    H238552   6.164   3.842   2.448  0.8717 -0.4383 -0.7428
 5665TIP3   OH238553   5.586   3.956   0.094 -1.0358  0.3460 -0.1365
 5665TIP3    H138554   5.503   4.000   0.110  0.1587  2.4217  0.8007
 5665TIP3    H238555   5.621   3.938   0.181  0.3258  1.2158 -0.4739
 5666TIP3   OH238556   3.193   5.568   1.178 -0.6589  0.6044 -0.0323
 5666TIP3    H138557   3.181   5.625   1.102  0.4300 -0.1776 -0.8244
 5666TIP3    H238558   3.208   5.481   1.140 -1.5322 -0.0853  1.1204
 5667TIP3   OH238559   1.913   6.360   0.381 -0.1148  0.3870  0.4168
 5667TIP3    H138560   1.935   6.395   0.295 -2.0690  1.3576  0.2420
 5667TIP3    H238561   1.990   6.377   0.435  0.0649  2.4329 -0.4091
 5668TIP3   OH238562   2.655   2.084   1.841 -0.0262  0.8373 -0.3524
 5668TIP3    H138563   2.602   2.161   1.822 -1.3754  0.2322  0.8050
 5668TIP3    H238564   2.676   2.092   1.934  2.1276  1.1591 -0.8225
 5669TIP3   OH238565   4.570   2.804   8.336  0.3650  0.2623  0.2173
 5669TIP3    H138566   4.509   2.860   8.289  1.1271  0.8824 -0.0632
 5669TIP3    H238567   4.553   2.822   8.428 -0.0841  0.1872  0.1526
 5670TIP3   OH238568   4.323   0.292   1.255  0.0075 -0.2935  0.2062
 5670TIP3    H138569   4.358   0.285   1.344 -1.0958  0.1268  0.6891
 5670TIP3    H238570   4.290   0.382   1.249 -0.3919 -0.4728 -0.4563
 5671TIP3   OH238571   2.232   3.744   1.736  0.2385  0.2672 -0.0133
 5671TIP3    H138572   2.253   3.656   1.704 -0.3362 -0.9472  2.6694
 5671TIP3    H238573   2.137   3.750   1.729  0.2814  0.7266 -0.2419
 5672TIP3   OH238574   0.156   2.267   0.300  0.0394 -0.0042 -0.0871
 5672TIP3    H138575   0.118   2.239   0.217 -0.7498  1.1867 -0.1560
 5672TIP3    H238576   0.215   2.196   0.325 -2.5096 -2.1381  0.2166
 5673TIP3   OH238577   4.427   0.798   0.498  0.7512  0.1767 -0.1957
 5673TIP3    H138578   4.378   0.798   0.580 -0.7437 -1.0883 -1.0450
 5673TIP3    H238579   4.364   0.772   0.431  1.9654  1.0205 -1.7556
 5674TIP3   OH238580   3.971   1.688   0.013 -0.0637 -0.0946 -0.0671
 5674TIP3    H138581   3.926   1.624  -0.043 -2.1326  0.6892  0.6088
 5674TIP3    H238582   4.061   1.687  -0.018 -0.7776 -0.8428 -2.3738
 5675TIP3   OH238583   5.958   3.359   1.800  0.0388 -0.3344  0.2865
 5675TIP3    H138584   5.893   3.289   1.803 -0.9541  0.5977  1.6632
 5675TIP3    H238585   5.975   3.380   1.892 -0.4478  1.8641 -0.0669
 5676TIP3   OH238586   5.073   1.998   1.964  0.0698 -0.1824  0.4851
 5676TIP3    H138587   5.147   2.053   1.940 -0.2951 -0.1301 -0.5739
 5676TIP3    H238588   5.041   1.962   1.881 -1.2063 -0.0482  0.8860
 5677TIP3   OH238589   5.698   6.094   2.392  0.2856 -0.4362 -0.6905
 5677TIP3    H138590   5.742   6.012   2.415  1.3827  0.3791  0.2681
 5677TIP3    H238591   5.648   6.116   2.471  1.2261  0.5628 -0.3330
 5678TIP3   OH238592   5.146   5.013   3.124  0.0552  0.5153 -0.0140
 5678TIP3    H138593   5.106   5.099   3.114  1.8046  1.2019 -2.0993
 5678TIP3    H238594   5.101   4.957   3.061  2.5192  1.4748 -2.9237
 5679TIP3   OH238595   0.609   4.582   1.795  0.2792  0.3717 -0.5785
 5679TIP3    H138596   0.587   4.614   1.708  0.3106 -0.3528 -0.8619
 5679TIP3    H238597   0.672   4.512   1.780  0.2611  0.2194  0.0235
 5680TIP3   OH238598   0.921   4.509   8.551 -0.4172 -0.1772  0.5098
 5680TIP3    H138599   0.877   4.425   8.536  0.6247 -0.6298 -0.0871
 5680TIP3    H238600   0.852   4.575   8.537 -0.6944 -0.8151 -1.4564
 5681TIP3   OH238601   6.100   5.865   1.630  0.3780 -0.4451 -0.5955
 5681TIP3    H138602   6.149   5.897   1.706 -0.4533 -0.5108 -0.0271
 5681TIP3    H238603   6.163   5.869   1.558  1.2249 -0.5419  0.1276
 5682TIP3   OH238604   1.218   5.723   8.564 -0.0390  0.3450 -0.2109
 5682TIP3    H138605   1.161   5.792   8.598  1.0093  0.9632  0.3628
 5682TIP3    H238606   1.256   5.759   8.484 -3.3152 -1.5068 -2.8412
 5683TIP3   OH238607   2.428   4.976   7.893  0.3578  0.1204 -0.0849
 5683TIP3    H138608   2.401   4.933   7.812  0.3999  0.1978 -0.1401
 5683TIP3    H238609   2.355   4.963   7.953  0.0245  0.6646 -0.3562
 5684TIP3   OH238610   2.671   2.604   7.641 -0.1871 -0.1781  0.2574
 5684TIP3    H138611   2.614   2.671   7.679  0.0210 -1.3175  2.7747
 5684TIP3    H238612   2.617   2.561   7.574 -0.7928  1.4915 -0.3720
 5685TIP3   OH238613   4.504   2.745   0.342  0.7636  0.8675 -0.2915
 5685TIP3    H138614   4.414   2.765   0.368 -0.2762 -1.3514 -1.8362
 5685TIP3    H238615   4.530   2.819   0.287  0.1312  1.8139  0.6379
 5686TIP3   OH238616   4.260   3.958   1.037  0.0684  0.6130 -0.2765
 5686TIP3    H138617   4.297   3.902   1.106 -1.5453  0.5869  0.6049
 5686TIP3    H238618   4.262   3.903   0.958 -0.3804 -0.2519  0.3058
 5687TIP3   OH238619   3.192   2.783   1.943  0.3665 -0.2576 -0.4425
 5687TIP3    H138620   3.181   2.863   1.892  3.9927  0.9916  0.5059
 5687TIP3    H238621   3.161   2.713   1.884 -1.0978  1.5891 -2.0018
 5688TIP3   OH238622   2.467   0.798   2.390 -0.2888 -0.1904 -0.1878
 5688TIP3    H138623   2.549   0.817   2.434 -0.1211  2.1108 -1.3342
 5688TIP3    H238624   2.482   0.714   2.345  0.7124 -0.7877  1.2140
 5689TIP3   OH238625   5.899   1.146   2.781  0.0897 -0.4190 -0.1754
 5689TIP3    H138626   5.837   1.215   2.756  1.4453 -0.0302 -2.8689
 5689TIP3    H238627   5.930   1.172   2.868 -3.0552 -0.3793  1.0534
 5690TIP3   OH238628   0.766   1.189   2.662 -0.0207  0.0218  0.4952
 5690TIP3    H138629   0.840   1.235   2.623 -0.0753  1.5797  2.1247
 5690TIP3    H238630   0.802   1.147   2.740 -0.7223  0.2780  0.9637
 5691TIP3   OH238631   4.373   4.823   3.417  0.3520  0.1375  0.4441
 5691TIP3    H138632   4.442   4.769   3.378  0.4128 -0.2020  1.0123
 5691TIP3    H238633   4.392   4.912   3.385 -1.2061 -0.4903 -2.5558
 5692TIP3   OH238634   0.696   4.211   2.355 -0.3710 -0.0400 -0.1884
 5692TIP3    H138635   0.694   4.138   2.294 -0.6963 -0.2320  0.0508
 5692TIP3    H238636   0.712   4.288   2.300  2.0799 -0.5015 -0.2400
 5693TIP3   OH238637   1.188   5.960   2.264  0.0967 -0.4927 -0.6763
 5693TIP3    H138638   1.141   5.897   2.320 -0.6226  1.1802  0.6927
 5693TIP3    H238639   1.122   5.994   2.204 -0.3988  1.4052  0.8427
 5694TIP3   OH238640   4.498   4.347   0.957  0.5382 -0.0738 -0.2204
 5694TIP3    H138641   4.555   4.270   0.958 -0.8363 -1.1364  1.5344
 5694TIP3    H238642   4.527   4.399   1.032 -0.4857 -0.3994  0.4147
 5695TIP3   OH238643   3.428   1.119   8.944  0.4558  0.5451  0.3534
 5695TIP3    H138644   3.404   1.097   8.854 -2.8659 -1.2775  1.5292
 5695TIP3    H238645   3.471   1.040   8.977 -0.0169  0.5126  0.8953
 5696TIP3   OH238646   2.531   4.409   2.274 -0.3628 -0.0093 -0.0977
 5696TIP3    H138647   2.485   4.330   2.301  0.7425 -0.5400  0.3291
 5696TIP3    H238648   2.472   4.480   2.297 -1.4523 -0.7064 -0.6505
 5697TIP3   OH238649   2.109   5.544   1.980  0.4419  0.1238  0.6591
 5697TIP3    H138650   2.205   5.550   1.984  0.4918  0.7606 -0.7592
 5697TIP3    H238651   2.078   5.607   2.045  0.9982  0.8975  0.1921
 5698TIP3   OH238652   6.551   3.829   1.563 -0.5047 -0.8067 -0.1279
 5698TIP3    H138653   6.535   3.810   1.655  0.1679 -0.7371  0.0148
 5698TIP3    H238654   6.482   3.783   1.515 -0.5522 -1.2628  0.3801
 5699TIP3   OH238655   2.013   2.159   8.112  0.4912 -0.6761 -0.2505
 5699TIP3    H138656   2.107   2.166   8.131  0.2473 -0.3891  0.9719
 5699TIP3    H238657   2.005   2.078   8.062  1.6116  0.2961 -2.1140
 5700TIP3   OH238658   0.301   4.638   8.274 -0.6160  0.5538  0.2939
 5700TIP3    H138659   0.229   4.679   8.322 -1.4515 -0.7100  0.1693
 5700TIP3    H238660   0.259   4.598   8.198  0.2590  0.0121  0.0850
 5701TIP3   OH238661   5.241   1.977   2.234  0.1093 -0.2272  0.5332
 5701TIP3    H138662   5.220   1.884   2.244 -2.1328  0.1765  0.0886
 5701TIP3    H238663   5.161   2.016   2.199  1.5565  1.5912 -0.9736
 5702TIP3   OH238664   3.614   1.172   1.518 -0.0672 -0.0780 -0.2151
 5702TIP3    H138665   3.639   1.264   1.511  0.4672 -0.3072 -1.4166
 5702TIP3    H238666   3.692   1.124   1.492 -0.5738 -0.8628 -0.2917
 5703TIP3   OH238667   6.609   1.133   1.554  0.0958  0.1256  0.0218
 5703TIP3    H138668   6.638   1.155   1.465  0.1341  0.0310  0.0100
 5703TIP3    H238669   6.537   1.193   1.571  1.3775  1.5341  0.7115
 5704TIP3   OH238670   5.668   2.565   3.570  0.3416 -0.1245  0.2210
 5704TIP3    H138671   5.733   2.603   3.630 -2.1805  1.5912  2.0678
 5704TIP3    H238672   5.674   2.470   3.585  1.1311  0.1395  1.7362
 5705TIP3   OH238673   0.409   4.015   2.305 -0.1179 -0.3601  0.1407
 5705TIP3    H138674   0.463   4.047   2.378 -1.1698 -0.9355  1.2023
 5705TIP3    H238675   0.319   4.017   2.339 -0.5760 -1.1447 -0.9661
 5706TIP3   OH238676   6.009   1.788   8.221  0.0241  0.6886  0.6746
 5706TIP3    H138677   5.994   1.874   8.261 -2.2770  0.6893 -0.0058
 5706TIP3    H238678   5.957   1.727   8.274 -2.2255  0.5337 -1.4881
 5707TIP3   OH238679   3.779   5.063   2.388 -0.0092 -0.2748  0.6778
 5707TIP3    H138680   3.757   4.991   2.447 -1.2123  0.3844  1.0594
 5707TIP3    H238681   3.765   5.142   2.440  0.2139  0.2774 -0.0872
 5708TIP3   OH238682   5.875   1.588   1.620 -0.2610  0.3262  0.1482
 5708TIP3    H138683   5.946   1.630   1.668 -0.2173  1.1791 -0.6218
 5708TIP3    H238684   5.813   1.560   1.687  2.0374 -3.0343  1.1382
 5709TIP3   OH238685   0.278   1.794   3.002  0.3160 -0.2283  0.5021
 5709TIP3    H138686   0.251   1.702   2.998 -0.4131 -0.0154  0.4792
 5709TIP3    H238687   0.299   1.808   3.094  2.6971 -1.0430  0.1518
 5710TIP3   OH238688   4.087   4.263   1.560  0.2641  0.2450  0.3802
 5710TIP3    H138689   4.107   4.241   1.650 -0.1630 -0.8073  0.2283
 5710TIP3    H238690   4.172   4.273   1.517  0.4677 -0.2023  0.6774
 5711TIP3   OH238691   4.333   1.786   2.777 -0.2260 -0.0588  0.8832
 5711TIP3    H138692   4.343   1.854   2.710 -1.4709  0.7012  1.4235
 5711TIP3    H238693   4.403   1.724   2.759  1.7388  1.9678  1.0831
 5712TIP3   OH238694   1.648   0.334   1.536 -0.0024  0.4075 -0.1713
 5712TIP3    H138695   1.555   0.325   1.516  0.2330  0.3472 -1.3134
 5712TIP3    H238696   1.651   0.380   1.620 -1.0713 -0.6598  0.4645
 5713TIP3   OH238697   1.536   5.417   1.748 -0.0291 -0.2490  0.5585
 5713TIP3    H138698   1.631   5.427   1.738 -0.3623  0.9729 -2.1013
 5713TIP3    H238699   1.516   5.333   1.708 -0.1071 -0.3311  0.7708
 5714TIP3   OH238700   5.247   6.698   8.213  0.5416 -0.2584 -0.0806
 5714TIP3    H138701   5.322   6.717   8.269  0.8049 -1.3669 -0.0410
 5714TIP3    H238702   5.279   6.709   8.124  0.6785 -0.4797 -0.0584
 5715TIP3   OH238703   3.642   6.405   8.414  0.1933 -0.7044  0.1892
 5715TIP3    H138704   3.607   6.467   8.478  0.7080  0.4738 -0.6442
 5715TIP3    H238705   3.564   6.367   8.373 -0.1338  0.0402  0.0971
 5716TIP3   OH238706   4.214   2.988   1.433 -0.1276 -1.0893  0.3591
 5716TIP3    H138707   4.129   3.024   1.461 -0.1282 -0.9220  0.1511
 5716TIP3    H238708   4.251   2.950   1.512 -0.6898 -1.7442  0.3147
 5717TIP3   OH238709   5.942   4.012   0.186  0.2218 -0.5668 -0.2538
 5717TIP3    H138710   5.909   3.978   0.269 -0.1429  0.1871 -0.0728
 5717TIP3    H238711   6.007   4.078   0.212 -2.2714  2.1430 -0.4121
 5718TIP3   OH238712   1.990   1.736   7.638  0.0014  0.6388  0.3833
 5718TIP3    H138713   2.062   1.708   7.694  0.6590  1.0468 -0.2388
 5718TIP3    H238714   1.911   1.727   7.692  0.3180 -1.3069  0.5637
 5719TIP3   OH238715   1.470   0.932   2.835 -0.1472  0.0122 -0.0879
 5719TIP3    H138716   1.479   0.845   2.874  1.9423  0.0972 -0.2749
 5719TIP3    H238717   1.501   0.992   2.903  0.1512  0.4516 -0.6087
 5720TIP3   OH238718   3.517   2.603   7.896 -0.5414  0.4744 -0.0743
 5720TIP3    H138719   3.539   2.685   7.850 -0.1329  1.0559  1.1039
 5720TIP3    H238720   3.429   2.618   7.930 -1.4485 -0.5350 -1.9040
 5721TIP3   OH238721   3.388   4.595   3.331 -0.5624  0.0358 -0.6735
 5721TIP3    H138722   3.299   4.627   3.347  0.1781  1.8484  0.0854
 5721TIP3    H238723   3.441   4.675   3.328  1.2470 -1.0818  0.2606
 5722TIP3   OH238724   4.212   0.823   3.275 -0.4874  0.0522  0.2900
 5722TIP3    H138725   4.296   0.869   3.265 -0.1623 -0.8255 -1.4266
 5722TIP3    H238726   4.152   0.890   3.307  0.6979  0.8753  0.8945
 5723TIP3   OH238727   5.832   2.306   3.194 -0.2076  0.4518 -0.4562
 5723TIP3    H138728   5.877   2.314   3.110 -1.0923  0.9711 -0.8973
 5723TIP3    H238729   5.867   2.378   3.247  0.0583  0.3671 -0.5138
 5724TIP3   OH238730   6.659   4.867   7.232 -0.0840  0.0929  0.3723
 5724TIP3    H138731   6.637   4.787   7.279 -1.2179  0.3216  0.2454
 5724TIP3    H238732   6.577   4.916   7.226  0.5771  1.2477  0.3975
 5725TIP3   OH238733   3.106   0.884   0.160 -0.5470 -0.3452  0.4645
 5725TIP3    H138734   3.084   0.828   0.234 -1.4591  1.2500  1.4336
 5725TIP3    H238735   3.113   0.972   0.196  1.7122  0.1109 -0.8648
 5726TIP3   OH238736   3.082   3.718   8.584 -0.0013  0.7443 -0.0318
 5726TIP3    H138737   3.049   3.798   8.542 -0.4112 -0.2599 -1.7437
 5726TIP3    H238738   3.144   3.682   8.521  0.2852 -0.2211  0.7776
 5727TIP3   OH238739   1.980   1.886   1.475 -0.5341 -0.1196  0.9023
 5727TIP3    H138740   1.997   1.819   1.540  3.4177  0.9107  1.1760
 5727TIP3    H238741   2.031   1.859   1.398 -0.1588  1.7057  0.4561
 5728TIP3   OH238742   6.322   1.398   3.225  0.2580  0.1966 -0.4167
 5728TIP3    H138743   6.231   1.389   3.251  0.1207 -2.0235 -1.4236
 5728TIP3    H238744   6.372   1.374   3.303  0.0655  2.2770  0.4142
 5729TIP3   OH238745   3.289   2.257   8.292  0.0811 -0.2446 -0.0498
 5729TIP3    H138746   3.372   2.295   8.264 -0.9719  2.0242 -0.2685
 5729TIP3    H238747   3.252   2.220   8.212 -0.2340  0.9873 -0.4984
 5730TIP3   OH238748   6.015   6.657   0.556  0.0419 -0.8290 -0.7339
 5730TIP3    H138749   6.018   6.647   0.651 -2.5809 -2.7956 -0.7474
 5730TIP3    H238750   6.073   6.732   0.538  1.4543 -1.0544  2.2513
 5731TIP3   OH238751   5.636   1.690   8.053 -0.0984 -0.3314 -0.2999
 5731TIP3    H138752   5.728   1.716   8.053  0.2195 -1.4158  0.7075
 5731TIP3    H238753   5.599   1.730   8.131 -0.4031 -0.2111 -0.5026
 5732TIP3   OH238754   4.369   1.964   2.584 -0.0588 -0.1557 -0.4623
 5732TIP3    H138755   4.291   2.019   2.575 -0.5892 -1.0429 -1.4859
 5732TIP3    H238756   4.441   2.020   2.556 -0.3476  0.5681  0.1887
 5733TIP3   OH238757   5.020   2.111   1.633 -0.2897  0.5023 -0.0232
 5733TIP3    H138758   4.959   2.056   1.682 -0.7497  0.9835 -0.0431
 5733TIP3    H238759   5.061   2.052   1.569  1.5012 -0.5283  1.9396
 5734TIP3   OH238760   0.156   1.289   2.953 -0.1789 -0.0640  0.0279
 5734TIP3    H138761   0.101   1.367   2.943  0.8947  1.1460  2.5784
 5734TIP3    H238762   0.115   1.239   3.024 -0.0700 -1.1035 -0.6231
 5735TIP3   OH238763   4.365   1.717   8.555  0.6856 -0.3244 -0.0502
 5735TIP3    H138764   4.422   1.651   8.516  0.1712 -1.4702  1.0563
 5735TIP3    H238765   4.368   1.698   8.649 -1.3361 -0.2751  0.0572
 5736TIP3   OH238766   2.541   3.705   2.142  0.3259  0.2096  0.0045
 5736TIP3    H138767   2.587   3.762   2.080  0.8913 -0.1608  0.0724
 5736TIP3    H238768   2.484   3.651   2.087  0.1194  0.5366 -0.1018
 5737TIP3   OH238769   1.704   5.604   1.068  0.6389 -0.0784 -0.5065
 5737TIP3    H138770   1.677   5.533   1.010  1.5653 -2.8256  2.1022
 5737TIP3    H238771   1.799   5.610   1.056  1.0161 -1.3945  1.2276
 5738TIP3   OH238772   1.595   0.851   1.973 -0.4609  0.4173  0.0057
 5738TIP3    H138773   1.540   0.773   1.965  0.0874  0.0477 -0.2682
 5738TIP3    H238774   1.652   0.833   2.048  0.4844  0.0208 -0.7828
 5739TIP3   OH238775   5.722   0.610   7.730 -0.6949 -0.0889 -0.5740
 5739TIP3    H138776   5.701   0.545   7.663 -1.1218 -0.5866  0.0234
 5739TIP3    H238777   5.638   0.650   7.752 -1.0248 -1.7446  1.4808
 5740TIP3   OH238778   5.913   6.072   1.924  0.2862 -0.3031 -0.1448
 5740TIP3    H138779   5.870   6.117   1.851  0.7897 -0.2149 -0.3875
 5740TIP3    H238780   5.986   6.129   1.947  0.5586 -0.6939 -0.0445
 5741TIP3   OH238781   0.086   4.671   7.452 -0.0184  0.0782  0.1612
 5741TIP3    H138782   0.001   4.659   7.410 -0.8141 -0.5140  1.8586
 5741TIP3    H238783   0.089   4.765   7.474 -0.6700 -0.0871  0.9740
 5742TIP3   OH238784   3.143   4.684   0.802  0.4134 -0.2143  0.4211
 5742TIP3    H138785   3.160   4.697   0.895 -0.6098  0.1874  0.5713
 5742TIP3    H238786   3.138   4.773   0.766  0.1298 -0.3489  0.1211
 5743TIP3   OH238787   0.515   6.356   1.013  0.1124  0.4397  0.5414
 5743TIP3    H138788   0.479   6.403   1.088 -0.2650 -0.6199  1.0443
 5743TIP3    H238789   0.555   6.277   1.050 -0.8226 -0.5351 -0.4274
 5744TIP3   OH238790   0.785   0.628   7.578 -0.8664  0.0516 -0.1914
 5744TIP3    H138791   0.730   0.706   7.565 -1.6261  0.1830  3.0287
 5744TIP3    H238792   0.746   0.583   7.653  1.3573 -1.7999 -0.0348
 5745TIP3   OH238793   3.143   0.183   1.009  1.1307 -0.5091 -0.3601
 5745TIP3    H138794   3.132   0.176   0.914  0.1138 -0.0102 -0.2985
 5745TIP3    H238795   3.164   0.275   1.025 -1.3565  0.0624  0.0774
 5746TIP3   OH238796   4.528   6.681   1.426  1.2319 -0.4173  0.0848
 5746TIP3    H138797   4.545   6.651   1.336  0.8944  0.8231 -0.4162
 5746TIP3    H238798   4.615   6.690   1.465  1.6133  1.7065 -1.0522
 5747TIP3   OH238799   0.474   5.938   3.357 -0.0451 -0.5296  0.2655
 5747TIP3    H138800   0.481   5.906   3.268  1.2299  0.1227  0.0960
 5747TIP3    H238801   0.565   5.941   3.389 -0.4119 -0.1319  1.3495
 5748TIP3   OH238802   6.325   3.211   2.745 -0.2744 -0.2017  0.4567
 5748TIP3    H138803   6.292   3.154   2.815  0.8523  0.1576  1.3131
 5748TIP3    H238804   6.248   3.260   2.716 -0.7715 -0.3556  1.4561
 5749TIP3   OH238805   4.520   4.984   1.712  0.1338  0.1183 -0.2890
 5749TIP3    H138806   4.498   5.063   1.763  1.5529  0.6212 -0.4217
 5749TIP3    H238807   4.595   4.947   1.757  0.2908 -0.4374 -0.9992
 5750TIP3   OH238808   4.775   2.630   0.814 -0.1038 -0.4601  0.6970
 5750TIP3    H138809   4.781   2.541   0.847 -2.7992 -0.5956  1.0313
 5750TIP3    H238810   4.762   2.684   0.892 -1.5442 -0.1826  0.2972
 5751TIP3   OH238811   4.094   1.067   0.378  0.1508 -0.6559 -0.1109
 5751TIP3    H138812   4.173   1.084   0.326  0.7965  1.2635  1.3704
 5751TIP3    H238813   4.024   1.111   0.329  0.6194  0.4776  0.1986
 5752TIP3   OH238814   1.360   6.022   3.341 -0.2487  0.8479 -0.2839
 5752TIP3    H138815   1.314   6.104   3.324 -0.7197  0.4946 -0.7535
 5752TIP3    H238816   1.453   6.044   3.331 -0.4022  1.1939 -0.9889
 5753TIP3   OH238817   2.917   1.676   3.310  0.1230  0.0135 -0.1576
 5753TIP3    H138818   2.988   1.740   3.306  0.4861 -0.3119  0.7346
 5753TIP3    H238819   2.955   1.597   3.272  0.5284 -0.3946  1.0370
 5754TIP3   OH238820   2.723   5.000   2.138 -0.0307  0.2987 -0.9670
 5754TIP3    H138821   2.674   4.988   2.057 -1.3712 -1.9123  0.0970
 5754TIP3    H238822   2.810   4.965   2.118 -0.7794 -1.6026 -1.0717
 5755TIP3   OH238823   1.163   5.415   1.469 -0.0152  0.9139  0.0250
 5755TIP3    H138824   1.131   5.401   1.558  1.8630 -0.6014  0.5233
 5755TIP3    H238825   1.178   5.510   1.464  1.2760  0.8852  1.8949
 5756TIP3   OH238826   4.162   0.557   8.754 -0.1049 -0.6740  0.3217
 5756TIP3    H138827   4.105   0.545   8.678 -0.8353  0.2211  0.7116
 5756TIP3    H238828   4.245   0.588   8.718 -0.4991 -0.1009 -0.1125
 5757TIP3   OH238829   1.778   5.060   2.118 -0.2841  0.3132 -0.4942
 5757TIP3    H138830   1.689   5.066   2.153 -0.5491 -0.8447 -0.9350
 5757TIP3    H238831   1.824   5.134   2.158 -1.3312  0.6866  0.0608
 5758TIP3   OH238832   4.500   6.254   8.732  0.0290 -0.5879  0.0945
 5758TIP3    H138833   4.538   6.173   8.699 -2.0902 -1.4389 -0.4524
 5758TIP3    H238834   4.456   6.229   8.814 -1.6744 -0.3421 -0.6844
 5759TIP3   OH238835   6.230   3.314   3.497 -0.3592 -0.0967 -0.0103
 5759TIP3    H138836   6.160   3.365   3.456 -0.2607  0.2753  0.2747
 5759TIP3    H238837   6.186   3.238   3.534 -0.6864  0.3433  0.5299
 5760TIP3   OH238838   2.735   6.484   8.896 -0.2898  0.1576  0.5502
 5760TIP3    H138839   2.704   6.549   8.959 -0.4719  0.1802  0.4374
 5760TIP3    H238840   2.775   6.535   8.826 -0.9798  0.1774  0.1655
 5761TIP3   OH238841   4.574   5.714   0.567 -0.1469  0.1186 -0.1483
 5761TIP3    H138842   4.585   5.769   0.644 -1.5464  0.8481 -0.4461
 5761TIP3    H238843   4.646   5.738   0.509  0.1812  0.4683  0.4021
 5762TIP3   OH238844   6.716   5.914   1.681  0.2595 -0.4688 -0.3713
 5762TIP3    H138845   6.707   6.007   1.659  0.4479 -0.8840 -2.4267
 5762TIP3    H238846   6.735   5.913   1.775 -1.5879  1.4650  0.1124
 5763TIP3   OH238847   0.730   5.843   7.340 -0.6753 -0.5470 -0.3147
 5763TIP3    H138848   0.777   5.870   7.419 -1.0687 -2.0039  0.4656
 5763TIP3    H238849   0.749   5.911   7.276 -0.1863  0.5817  0.9751
 5764TIP3   OH238850   5.603   1.361   8.961 -0.5145  0.3200 -0.8852
 5764TIP3    H138851   5.605   1.345   9.056  1.6264 -1.1698 -1.0984
 5764TIP3    H238852   5.610   1.456   8.952 -0.9520  0.5017  0.4307
 5765TIP3   OH238853   5.554   5.753   1.130  0.3655 -0.4889 -0.1181
 5765TIP3    H138854   5.545   5.824   1.193 -0.3858 -2.1021  1.6819
 5765TIP3    H238855   5.646   5.729   1.134  0.9466  1.1683 -1.7376
 5766TIP3   OH238856   0.649   0.030   2.050  0.0334  0.2481  0.1364
 5766TIP3    H138857   0.558   0.037   2.021 -0.3400 -1.5656  0.7511
 5766TIP3    H238858   0.664   0.109   2.101 -0.9624  0.9085 -0.5434
 5767TIP3   OH238859   4.259   1.574   7.942  0.7636 -0.1982 -0.5207
 5767TIP3    H138860   4.320   1.500   7.941  2.1771  0.9348 -1.0599
 5767TIP3    H238861   4.297   1.638   7.882 -0.7574  0.7302 -0.5566
 5768TIP3   OH238862   5.494   2.830   1.324 -0.0059  0.4593  0.2939
 5768TIP3    H138863   5.527   2.821   1.234 -1.5676 -3.6605 -0.1160
 5768TIP3    H238864   5.399   2.818   1.315 -0.2953  0.8659  2.4214
 5769TIP3   OH238865   3.112   2.214   8.066  0.2135 -0.2942 -0.0001
 5769TIP3    H138866   3.117   2.266   7.986  1.2597 -0.2764  0.0631
 5769TIP3    H238867   3.083   2.128   8.036  0.8359 -0.3569 -0.4312
 5770TIP3   OH238868   1.867   4.511   7.683 -0.2116 -0.6421  0.4564
 5770TIP3    H138869   1.873   4.433   7.628  0.3023  0.0012 -0.4373
 5770TIP3    H238870   1.773   4.530   7.689 -0.3678 -1.5567  1.0325
 5771TIP3   OH238871   4.430   0.871   2.159  0.3510  0.0552  0.6121
 5771TIP3    H138872   4.511   0.910   2.126  0.0896  0.1301  0.0492
 5771TIP3    H238873   4.415   0.795   2.103 -0.3104  0.4175  0.2889
 5772TIP3   OH238874   3.795   3.959   3.223 -0.2633 -0.4036  0.0384
 5772TIP3    H138875   3.801   3.871   3.185 -1.2766 -0.0363 -1.0432
 5772TIP3    H238876   3.883   3.977   3.255  0.4527 -1.0660 -1.4282
 5773TIP3   OH238877   5.441   0.398   1.897 -0.2006 -0.3021 -0.0742
 5773TIP3    H138878   5.389   0.326   1.931 -0.9874  0.1188 -0.3725
 5773TIP3    H238879   5.513   0.407   1.960 -0.5287 -0.8310  0.3877
 5774TIP3   OH238880   4.131   6.166   2.236 -0.0293  0.5408  0.4562
 5774TIP3    H138881   4.048   6.131   2.205 -0.1634  0.2292  1.1535
 5774TIP3    H238882   4.195   6.139   2.170 -0.3826  0.3014  0.2091
 5775TIP3   OH238883   0.812   1.638   2.454 -0.2971  0.2230  0.0753
 5775TIP3    H138884   0.879   1.571   2.460  1.3329  1.6868 -0.7393
 5775TIP3    H238885   0.830   1.683   2.372 -1.3631  1.6290  0.5586
 5776TIP3   OH238886   5.420   3.313   0.013 -0.3943 -0.0673  0.2769
 5776TIP3    H138887   5.465   3.352   0.088 -2.6892  2.2897  0.5766
 5776TIP3    H238888   5.457   3.359  -0.063 -1.5355  1.1860  0.4446
 5777TIP3   OH238889   2.665   3.593   0.830 -0.1574 -0.1251  0.2658
 5777TIP3    H138890   2.657   3.681   0.866  1.1289 -0.2317  0.8889
 5777TIP3    H238891   2.627   3.599   0.743 -1.1696  0.7400  0.7467
 5778TIP3   OH238892   2.906   2.736   2.071  0.1460  0.0786 -0.5460
 5778TIP3    H138893   2.962   2.798   2.119  0.8437  0.5840 -1.9546
 5778TIP3    H238894   2.933   2.650   2.102 -0.1322  0.4218  0.7011
 5779TIP3   OH238895   4.316   3.466   1.846  0.3027 -0.2939  0.2009
 5779TIP3    H138896   4.271   3.502   1.770 -0.7399  0.2902  1.0731
 5779TIP3    H238897   4.249   3.418   1.894  0.5900  0.5444  1.4994
 5780TIP3   OH238898   1.116   2.133   0.477 -0.8212 -0.2736 -0.2861
 5780TIP3    H138899   1.191   2.081   0.448  0.8588  1.1673  1.2721
 5780TIP3    H238900   1.079   2.084   0.550  0.0958  0.1323  0.4761
 5781TIP3   OH238901   2.575   5.378   0.561  0.5749 -0.0334 -0.3838
 5781TIP3    H138902   2.649   5.439   0.568 -0.1543  0.7008  2.2464
 5781TIP3    H238903   2.502   5.426   0.599 -0.5625 -1.8072 -0.2433
 5782TIP3   OH238904   6.571   0.509   2.231 -0.1305  0.0315  0.0009
 5782TIP3    H138905   6.480   0.530   2.256 -0.5773 -0.9688 -0.7266
 5782TIP3    H238906   6.603   0.590   2.191 -0.6229  0.4675  0.4584
 5783TIP3   OH238907   0.773   5.088   1.306  0.5318  0.6920 -0.1806
 5783TIP3    H138908   0.817   5.152   1.362 -0.9183  1.1252  0.5163
 5783TIP3    H238909   0.773   5.127   1.219  0.3329  1.3054  0.0905
 5784TIP3   OH238910   0.324   5.734   7.596 -0.1306 -0.1749 -0.0178
 5784TIP3    H138911   0.374   5.660   7.629  1.3752  0.1298 -1.4813
 5784TIP3    H238912   0.275   5.699   7.521  0.8441  0.3344 -0.9255
 5785TIP3   OH238913   2.564   1.975   0.237  0.6018 -0.3109 -0.5124
 5785TIP3    H138914   2.636   2.036   0.224  0.4297 -0.2776 -1.3434
 5785TIP3    H238915   2.485   2.029   0.234  0.5157 -0.3819  0.1551
 5786TIP3   OH238916   1.384   5.222   2.384  0.6444 -0.4477  0.1674
 5786TIP3    H138917   1.352   5.312   2.382 -0.9773 -0.8037  3.3184
 5786TIP3    H238918   1.308   5.169   2.358  0.6317 -1.0005  1.2623
 5787TIP3   OH238919   3.620   0.242   2.365 -0.2633  0.1100 -0.1787
 5787TIP3    H138920   3.596   0.294   2.289 -0.4041 -0.1359 -0.3019
 5787TIP3    H238921   3.684   0.296   2.412 -2.5679  1.7412  1.3043
 5788TIP3   OH238922   1.400   3.878   1.090  0.1234  0.1428  0.1190
 5788TIP3    H138923   1.359   3.792   1.091 -0.4458  0.3878  2.2605
 5788TIP3    H238924   1.366   3.921   1.011 -1.0823 -0.8848  0.0634
 5789TIP3   OH238925   1.234   5.700   2.126 -0.5889 -0.1083 -0.7034
 5789TIP3    H138926   1.190   5.779   2.156 -0.2379  0.3527 -1.3787
 5789TIP3    H238927   1.320   5.730   2.097 -0.1781 -0.8503 -0.2791
 5790TIP3   OH238928   5.494   3.029   7.803 -0.2267  0.2320 -0.0374
 5790TIP3    H138929   5.508   3.031   7.708 -2.3804  2.0423 -0.4025
 5790TIP3    H238930   5.555   3.094   7.837  1.2903 -1.1454  0.0045
 5791TIP3   OH238931   5.774   4.843   7.567 -0.0130  0.2562  0.0109
 5791TIP3    H138932   5.737   4.781   7.630  2.1800 -1.8529 -0.5871
 5791TIP3    H238933   5.732   4.820   7.484 -0.6649  0.9443  0.1496
 5792TIP3   OH238934   1.525   1.162   2.166  0.3121 -0.5075  0.1410
 5792TIP3    H138935   1.486   1.075   2.177 -0.7820  0.0186  0.6252
 5792TIP3    H238936   1.554   1.187   2.254  1.1831 -0.6176 -0.1013
 5793TIP3   OH238937   4.551   6.262   8.324 -0.4692  0.2163 -0.1331
 5793TIP3    H138938   4.586   6.202   8.389 -0.3587  2.9738  2.5518
 5793TIP3    H238939   4.461   6.277   8.352 -0.4547  1.3816 -0.6844
 5794TIP3   OH238940   3.895   5.829   8.055 -1.0201  0.5324  0.1140
 5794TIP3    H138941   3.882   5.735   8.048  3.8928 -0.6157  2.0368
 5794TIP3    H238942   3.955   5.851   7.984  0.4013  1.4568  1.5303
 5795TIP3   OH238943   2.708   2.775   0.548  0.1910 -0.2232  0.4866
 5795TIP3    H138944   2.768   2.708   0.517  0.9243  0.9231 -0.6926
 5795TIP3    H238945   2.762   2.854   0.557 -0.6513  0.2471  1.7783
 5796TIP3   OH238946   3.810   4.317   8.388  0.6308  0.0349  0.0742
 5796TIP3    H138947   3.845   4.262   8.318  0.4010 -1.6561  1.2303
 5796TIP3    H238948   3.826   4.406   8.358  1.7097 -0.6436 -1.5331
 5797TIP3   OH238949   0.485   3.744   3.435 -0.2541  0.0756 -0.1577
 5797TIP3    H138950   0.502   3.838   3.442  0.1192  0.2112 -2.1748
 5797TIP3    H238951   0.561   3.703   3.476  1.2613  0.6927 -2.2194
 5798TIP3   OH238952   3.539   6.326   2.338 -0.0356 -0.5122  0.0535
 5798TIP3    H138953   3.616   6.359   2.291 -0.4088  0.2368 -0.0559
 5798TIP3    H238954   3.496   6.268   2.275 -0.1445 -0.0780 -0.2781
 5799TIP3   OH238955   5.396   0.590   2.146  0.5085  0.5556 -0.1017
 5799TIP3    H138956   5.419   0.621   2.234  1.9424  3.2831 -1.3162
 5799TIP3    H238957   5.474   0.546   2.114  1.2042  2.4553 -1.1503
 5800TIP3   OH238958   4.354   5.648   2.845 -0.1934  0.1360  0.1501
 5800TIP3    H138959   4.406   5.601   2.910 -0.7856  1.9799  2.0833
 5800TIP3    H238960   4.329   5.581   2.781  1.5517 -1.4874  1.0824
 5801TIP3   OH238961   4.534   4.598   8.758 -0.2656  0.0822 -0.8722
 5801TIP3    H138962   4.486   4.547   8.824 -0.0336 -0.0748 -0.8240
 5801TIP3    H238963   4.625   4.588   8.783 -0.3352  2.9883  0.9809
 5802TIP3   OH238964   4.552   3.914   1.324  0.3254 -0.4215 -0.4600
 5802TIP3    H138965   4.590   4.001   1.338 -1.3002  0.7373 -2.5968
 5802TIP3    H238966   4.627   3.858   1.302  1.2791  0.7037 -0.1811
 5803TIP3   OH238967   3.742   3.224   9.000  0.0272 -0.2188 -0.3150
 5803TIP3    H138968   3.792   3.143   9.011 -0.3573 -0.5568 -0.9805
 5803TIP3    H238969   3.803   3.293   9.023  0.2980 -0.7050  0.4822
 5804TIP3   OH238970   1.963   2.323   2.133  0.1660  0.2088 -0.1552
 5804TIP3    H138971   1.873   2.296   2.113  0.0517 -0.1216  0.7491
 5804TIP3    H238972   1.953   2.392   2.198  0.3919  3.4453 -3.2334
 5805TIP3   OH238973   5.459   4.738   0.064  0.4155 -0.2524  0.0652
 5805TIP3    H138974   5.380   4.703   0.105 -0.2548  0.0666 -0.8938
 5805TIP3    H238975   5.440   4.734  -0.030  1.9723 -1.1665 -0.2420
 5806TIP3   OH238976   1.895   0.826   0.159  0.5545 -0.0256  0.3671
 5806TIP3    H138977   1.973   0.773   0.139 -0.7749 -1.8057 -0.3876
 5806TIP3    H238978   1.855   0.843   0.073 -1.1959 -1.2828  0.8882
 5807TIP3   OH238979   5.710   0.635   3.027  0.4136  0.5667 -0.1074
 5807TIP3    H138980   5.754   0.714   3.055  0.4833  0.4682  0.0589
 5807TIP3    H238981   5.720   0.634   2.932  1.4675  0.1275 -0.0019
 5808TIP3   OH238982   1.265   3.046   0.263  0.0066 -0.6043 -0.0311
 5808TIP3    H138983   1.188   2.991   0.256 -1.5938  1.4617  0.2405
 5808TIP3    H238984   1.233   3.128   0.301  2.5427 -0.0373  1.1469
 5809TIP3   OH238985   5.051   3.497   2.623  0.3478  0.6500 -0.0168
 5809TIP3    H138986   5.095   3.541   2.696 -0.5263  1.5473  0.0069
 5809TIP3    H238987   5.061   3.557   2.549 -0.9207  0.9494  0.0279
 5810TIP3   OH238988   1.299   2.361   7.820 -0.1979  0.4706  0.3869
 5810TIP3    H138989   1.354   2.418   7.768  0.8627  0.5095  1.5021
 5810TIP3    H238990   1.232   2.419   7.857  1.6007  1.3157  2.5241
 5811TIP3   OH238991   4.686   2.436   0.573  0.4421  0.0470  0.4092
 5811TIP3    H138992   4.628   2.454   0.647  1.4820  1.3610  0.9339
 5811TIP3    H238993   4.697   2.520   0.529 -2.0793 -1.0523 -2.7686
 5812TIP3   OH238994   2.817   0.547   2.545  0.0045  0.4919  0.1770
 5812TIP3    H138995   2.808   0.479   2.479 -2.0967 -0.2469  1.1346
 5812TIP3    H238996   2.822   0.500   2.628  0.4536  1.4542  0.7203
 5813TIP3   OH238997   1.844   3.030   1.787  0.1116  0.3755 -0.3801
 5813TIP3    H138998   1.769   3.046   1.731  0.4301  1.9995 -0.3940
 5813TIP3    H238999   1.858   2.936   1.782 -3.2114 -0.3395  1.3235
 5814TIP3   OH239000   2.026   3.955   0.470 -0.1866  0.2812 -0.4863
 5814TIP3    H139001   2.076   4.029   0.438  0.2191 -0.3011 -1.2264
 5814TIP3    H239002   2.088   3.882   0.470 -0.7534 -0.2073 -0.3950
 5815TIP3   OH239003   5.189   1.588   2.641 -0.6379  0.1620  0.1441
 5815TIP3    H139004   5.193   1.670   2.689  0.7170  0.3256 -0.2173
 5815TIP3    H239005   5.281   1.562   2.629 -1.0400 -1.6905  0.7425
 5816TIP3   OH239006   4.023   1.453   8.867  0.0743 -0.3638  0.1757
 5816TIP3    H139007   4.043   1.364   8.837  0.5749 -0.1499 -0.1348
 5816TIP3    H239008   3.936   1.471   8.832 -0.1265 -0.8100  0.4265
 5817TIP3   OH239009   4.428   2.294   2.799  0.2453 -0.8071  0.2217
 5817TIP3    H139010   4.370   2.218   2.792  0.3035 -0.9136  0.8335
 5817TIP3    H239011   4.515   2.256   2.815 -0.1644 -0.6096  3.5850
 5818TIP3   OH239012   5.023   4.110   1.227  0.1120  0.1441  0.5850
 5818TIP3    H139013   4.987   4.189   1.187  0.8880  0.5098  0.5865
 5818TIP3    H239014   5.108   4.098   1.184 -0.7412 -1.7181 -0.7188
 5819TIP3   OH239015   1.827   4.774   2.568 -0.2990 -0.5572 -0.2042
 5819TIP3    H139016   1.733   4.774   2.585 -0.5491  0.8445 -1.3494
 5819TIP3    H239017   1.848   4.866   2.549  1.3718 -0.7911  0.3355
 5820TIP3   OH239018   2.597   5.402   1.120  0.0537 -0.7026  0.2784
 5820TIP3    H139019   2.563   5.393   1.031 -0.4380 -2.8549  0.6342
 5820TIP3    H239020   2.520   5.398   1.176  0.4717 -0.6286  0.8670
 5821TIP3   OH239021   3.302   0.204   8.898  0.3951  0.1751  0.3074
 5821TIP3    H139022   3.388   0.167   8.876  0.0980 -0.7615  0.6889
 5821TIP3    H239023   3.244   0.172   8.829 -0.0091 -0.6848  1.0163
 5822TIP3   OH239024   6.618   1.543   7.675  0.6518 -0.1043 -0.7495
 5822TIP3    H139025   6.665   1.460   7.689  0.6574 -0.0014 -0.1510
 5822TIP3    H239026   6.526   1.518   7.675  0.6809 -0.2548 -1.5814
 5823TIP3   OH239027   5.473   1.545   1.935  0.4169 -0.1945 -0.3803
 5823TIP3    H139028   5.547   1.551   1.875 -0.6407 -1.6894 -1.9072
 5823TIP3    H239029   5.467   1.633   1.973  4.3678 -0.5767  1.6412
 5824TIP3   OH239030   1.255   1.020   0.144 -0.2656 -0.2316 -0.2457
 5824TIP3    H139031   1.176   1.063   0.175  0.3683  1.0926 -0.4166
 5824TIP3    H239032   1.302   1.087   0.094  0.4792 -1.2822 -1.0085
 5825TIP3   OH239033   3.383   2.407   1.350 -0.4870 -0.9317  0.3221
 5825TIP3    H139034   3.294   2.423   1.318 -0.1445  0.3417 -0.0652
 5825TIP3    H239035   3.437   2.469   1.300  0.4474 -0.8325  1.4235
 5826TIP3   OH239036   0.420   0.719   8.237  0.2818 -0.1217  0.6910
 5826TIP3    H139037   0.429   0.797   8.183  0.9129 -0.5218  0.2155
 5826TIP3    H239038   0.337   0.680   8.210  1.2781 -1.1296 -1.0739
 5827TIP3   OH239039   5.471   6.515   2.090  0.2532  0.5279  0.6500
 5827TIP3    H139040   5.459   6.423   2.065  1.4808  0.6295 -0.3864
 5827TIP3    H239041   5.564   6.523   2.112  0.0140  1.3733  1.4708
 5828TIP3   OH239042   5.946   5.625   8.411 -0.4848  0.6148  0.1380
 5828TIP3    H139043   5.906   5.614   8.498 -0.7908  0.8480  0.0270
 5828TIP3    H239044   6.028   5.671   8.428  0.6511 -1.4454  0.5756
 5829TIP3   OH239045   0.873   4.672   7.608  0.0120 -0.0327  0.3303
 5829TIP3    H139046   0.952   4.616   7.607  0.9883  1.3055 -0.2868
 5829TIP3    H239047   0.902   4.755   7.571 -1.7001  0.5195  0.1445
 5830TIP3   OH239048   5.763   2.704   0.830  0.0039  0.9525  0.1017
 5830TIP3    H139049   5.829   2.762   0.868 -0.3136  0.3029  1.7503
 5830TIP3    H239050   5.726   2.657   0.906 -0.4291 -0.6695 -1.0573
 5831TIP3   OH239051   5.296   1.742   8.811  0.1830 -0.1612 -0.3224
 5831TIP3    H139052   5.376   1.693   8.789 -0.1041 -0.9151  0.2397
 5831TIP3    H239053   5.232   1.716   8.745  0.6737  1.2293 -1.3893
 5832TIP3   OH239054   0.736   5.570   7.278  0.1754  0.1558 -0.0305
 5832TIP3    H139055   0.727   5.636   7.348 -1.2164  0.1542 -0.1733
 5832TIP3    H239056   0.646   5.539   7.263  0.8428 -2.1393  0.3649
 5833TIP3   OH239057   3.096   3.390   2.764 -0.1289 -0.5488 -0.3591
 5833TIP3    H139058   3.185   3.359   2.773 -0.0389 -0.8213 -1.9564
 5833TIP3    H239059   3.044   3.332   2.820  0.9102  1.0574  2.5098
 5834TIP3   OH239060   4.685   3.811   0.585  0.0182 -0.4631 -0.0979
 5834TIP3    H139061   4.727   3.766   0.658  2.1244  0.5349 -0.6380
 5834TIP3    H239062   4.660   3.741   0.525  2.6091 -1.0570 -0.6015
 5835TIP3   OH239063   2.007   6.671   2.288 -0.3594  0.0831 -0.3550
 5835TIP3    H139064   1.920   6.707   2.301 -0.6779 -0.9846  0.6627
 5835TIP3    H239065   1.998   6.613   2.213 -1.7754 -3.5404  2.2833
 5836TIP3   OH239066   1.367   0.736   0.102 -0.1197  0.2465 -0.1339
 5836TIP3    H139067   1.328   0.794   0.168  1.5691  0.5781  0.6312
 5836TIP3    H239068   1.301   0.667   0.089 -2.1104  2.1674 -0.9443
 5837TIP3   OH239069   4.201   2.095   2.991  0.1849  0.6043  0.3614
 5837TIP3    H139070   4.176   2.126   3.078 -0.0901  2.2162 -0.2616
 5837TIP3    H239071   4.121   2.102   2.939  0.0610 -1.3619  0.2047
 5838TIP3   OH239072   4.316   3.686   1.104  0.4711  0.4585 -0.2456
 5838TIP3    H139073   4.397   3.634   1.105  0.6533  0.7330 -0.6203
 5838TIP3    H239074   4.274   3.666   1.188  0.9899  0.4067  0.0059
 5839TIP3   OH239075   0.346   5.625   2.393  0.0422 -0.1961 -0.1117
 5839TIP3    H139076   0.379   5.548   2.346  1.8127  0.2966  0.2489
 5839TIP3    H239077   0.418   5.651   2.449 -1.6736 -0.1960  2.2460
 5840TIP3   OH239078   1.077   1.961   8.629  0.3014  0.3812  0.7707
 5840TIP3    H139079   1.046   1.871   8.623  1.1670  0.1816 -2.0465
 5840TIP3    H239080   1.016   2.011   8.575  0.9146  1.1728  0.7914
 5841TIP3   OH239081   6.341   5.573   1.379  0.0502  0.4235 -0.3569
 5841TIP3    H139082   6.278   5.584   1.450 -0.3218 -1.0588 -0.4319
 5841TIP3    H239083   6.386   5.491   1.399  0.7230  0.5567 -1.2536
 5842TIP3   OH239084   5.339   5.527   8.652  0.2058 -0.6716  0.0542
 5842TIP3    H139085   5.343   5.572   8.568  0.9013  1.1239  1.0025
 5842TIP3    H239086   5.390   5.447   8.639 -1.7078 -1.6606 -1.8918
 5843TIP3   OH239087   0.370   1.239   1.667 -0.2036 -0.1027  0.1626
 5843TIP3    H139088   0.452   1.231   1.617  2.0211  0.3549  3.4182
 5843TIP3    H239089   0.356   1.153   1.705 -0.7295  0.0582  0.3378
 5844TIP3   OH239090   0.664   5.257   7.397 -0.0020 -0.0183  0.0146
 5844TIP3    H139091   0.639   5.218   7.313  0.4910 -1.0485  0.3339
 5844TIP3    H239092   0.584   5.301   7.428 -0.5507 -0.7252 -0.3887
 5845TIP3   OH239093   4.841   1.124   8.264 -0.8228 -0.0375 -0.1181
 5845TIP3    H139094   4.922   1.156   8.303 -0.2844 -1.1690 -0.2508
 5845TIP3    H239095   4.800   1.201   8.226  0.4142  0.4779 -0.4523
 5846TIP3   OH239096   5.456   6.455   2.661  0.6996  0.1727  0.1522
 5846TIP3    H139097   5.506   6.431   2.739  1.7127  2.7175  0.3981
 5846TIP3    H239098   5.453   6.551   2.663 -3.9356  0.2766 -0.0763
 5847TIP3   OH239099   2.116   4.030   8.135  0.1373 -0.5224 -0.1503
 5847TIP3    H139100   2.127   3.958   8.073  0.1605 -0.6874  0.0430
 5847TIP3    H239101   2.202   4.040   8.176  0.0901 -0.5017 -0.0542
 5848TIP3   OH239102   5.411   4.685   3.317  0.0970 -0.0350 -0.5730
 5848TIP3    H139103   5.374   4.773   3.318 -0.9773 -0.4536 -1.6388
 5848TIP3    H239104   5.338   4.628   3.343  0.8429 -0.6071  0.3477
 5849TIP3   OH239105   2.492   1.713   8.301  0.8994 -0.5265 -0.6099
 5849TIP3    H139106   2.567   1.744   8.352  0.5775 -0.4641 -0.1643
 5849TIP3    H239107   2.421   1.708   8.365  0.9130 -2.1349 -0.6793
 5850TIP3   OH239108   6.691   5.640   1.985 -0.3301  0.3874  0.1872
 5850TIP3    H139109   6.629   5.582   1.939  1.0962 -0.5835 -0.6019
 5850TIP3    H239110   6.689   5.609   2.075 -0.0304 -0.5303 -0.1042
 5851TIP3   OH239111   5.837   2.687   1.534 -0.3017 -0.0077 -0.2911
 5851TIP3    H139112   5.921   2.720   1.566  0.0783  0.1734 -1.4101
 5851TIP3    H239113   5.838   2.594   1.556 -0.2729  0.2102  0.6418
 5852TIP3   OH239114   2.137   5.523   2.567  0.0857  0.3975  0.0864
 5852TIP3    H139115   2.051   5.539   2.605  0.9375  3.0165  1.1378
 5852TIP3    H239116   2.196   5.516   2.642  1.0445  0.2639 -0.6483
 5853TIP3   OH239117   4.803   5.516   2.060  0.2843  0.7655  0.4452
 5853TIP3    H139118   4.873   5.548   2.117  0.6168  0.4109  0.2439
 5853TIP3    H239119   4.840   5.438   2.018  0.6196  1.8555 -1.4086
 5854TIP3   OH239120   5.679   0.442   7.527  0.2779  0.6183 -0.3938
 5854TIP3    H139121   5.685   0.515   7.466  0.5141  0.4122 -0.6182
 5854TIP3    H239122   5.706   0.366   7.476 -3.1402 -0.2445 -1.2256
 5855TIP3   OH239123   5.896   5.824   1.800 -0.2003  0.1840  0.2887
 5855TIP3    H139124   5.909   5.890   1.867  0.7782 -0.0118  0.3144
 5855TIP3    H239125   5.974   5.830   1.745 -0.3826 -0.5297 -0.0649
 5856TIP3   OH239126   4.466   5.769   2.424 -0.2839 -0.6436 -0.7448
 5856TIP3    H139127   4.556   5.798   2.440 -0.5398 -0.0581 -0.3475
 5856TIP3    H239128   4.471   5.673   2.425  0.6436 -0.6524 -2.4323
 5857TIP3   OH239129   4.587   2.586   8.203  0.7732 -0.9146  0.4667
 5857TIP3    H139130   4.592   2.678   8.229  1.9222 -0.6157 -0.6540
 5857TIP3    H239131   4.494   2.565   8.205  0.5307  0.1402  1.1487
 5858TIP3   OH239132   1.882   2.237   3.211  0.0812 -0.0387 -0.3172
 5858TIP3    H139133   1.849   2.208   3.126 -1.1883 -1.3170  0.5624
 5858TIP3    H239134   1.804   2.244   3.266  0.9047  0.4975  0.8191
 5859TIP3   OH239135   6.453   2.996   0.993 -0.2375  0.5343  0.1635
 5859TIP3    H139136   6.399   2.941   0.936 -1.2258  2.7932 -1.1988
 5859TIP3    H239137   6.400   3.008   1.072 -0.2975  0.0881  0.1935
 5860TIP3   OH239138   0.978   1.360   8.709 -0.5848  0.2418 -0.1204
 5860TIP3    H139139   0.955   1.284   8.655  0.0987 -0.2660  0.2868
 5860TIP3    H239140   1.034   1.324   8.778  1.4462  1.4088 -1.0878
 5861TIP3   OH239141   4.327   2.672   1.942  0.2908  0.7390  0.1053
 5861TIP3    H139142   4.366   2.744   1.991 -0.1746  0.0667  1.4987
 5861TIP3    H239143   4.240   2.704   1.916  0.7218  1.2700 -0.7326
 5862TIP3   OH239144   4.930   1.484   2.646 -0.2616  0.5613 -0.5923
 5862TIP3    H139145   5.006   1.455   2.595 -0.0106  2.4641 -1.3767
 5862TIP3    H239146   4.924   1.578   2.628 -1.6163  0.8203  1.0381
 5863TIP3   OH239147   5.661   4.952   2.176 -0.1468  0.0896  0.1918
 5863TIP3    H139148   5.635   4.861   2.191  0.2108 -0.0089  0.2169
 5863TIP3    H239149   5.756   4.952   2.187 -0.3302  0.8723  2.3317
 5864TIP3   OH239150   3.603   3.101   3.424  0.2324 -0.4932 -0.0331
 5864TIP3    H139151   3.671   3.053   3.376  1.1790 -0.3492  1.1177
 5864TIP3    H239152   3.542   3.129   3.356  0.9115 -1.2825 -1.0159
 5865TIP3   OH239153   0.610   5.073   8.772 -0.2582  0.5723  0.1356
 5865TIP3    H139154   0.588   4.983   8.797 -0.7815  0.4365 -0.7855
 5865TIP3    H239155   0.667   5.104   8.843  0.1734 -0.5811  0.3169
 5866TIP3   OH239156   2.154   0.262   2.022  0.2985 -0.0364  0.1334
 5866TIP3    H139157   2.190   0.284   1.936 -0.3683  0.2860 -0.0671
 5866TIP3    H239158   2.152   0.345   2.069  2.8179 -0.5295  1.3236
 5867TIP3   OH239159   3.942   0.712   7.945 -0.0514  0.0029 -0.0480
 5867TIP3    H139160   3.983   0.642   7.894 -0.5659  1.1367 -2.1235
 5867TIP3    H239161   4.002   0.786   7.938 -1.0094  0.7504 -0.6189
 5868TIP3   OH239162   0.975   5.136   8.698  0.2905  0.3139  0.9163
 5868TIP3    H139163   0.904   5.146   8.635  0.1326 -1.2238  0.7978
 5868TIP3    H239164   0.931   5.141   8.783  0.3126  1.1369  0.8806
 5869TIP3   OH239165   6.017   2.181   2.649  0.6486 -0.1128  0.2651
 5869TIP3    H139166   5.966   2.107   2.683  0.9444  0.5835  2.3354
 5869TIP3    H239167   6.074   2.206   2.721  0.2418  2.4460 -0.2271
 5870TIP3   OH239168   1.887   0.684   8.024  0.0663  0.1637  0.0471
 5870TIP3    H139169   1.860   0.597   8.054  1.8252 -0.9241 -1.3237
 5870TIP3    H239170   1.860   0.687   7.932  1.6055  0.3265 -0.4236
 5871TIP3   OH239171   6.699   3.799   0.888  0.0093 -0.1435  0.2072
 5871TIP3    H139172   6.691   3.876   0.832  0.8150 -0.2238 -0.0349
 5871TIP3    H239173   6.791   3.772   0.879 -0.4791 -1.7055 -0.4836
 5872TIP3   OH239174   6.002   6.125   2.537 -0.7586  0.1193  0.9493
 5872TIP3    H139175   5.937   6.072   2.584 -1.0240 -0.6197 -0.2262
 5872TIP3    H239176   6.057   6.062   2.492 -1.4472  0.8085 -0.9726
 5873TIP3   OH239177   3.673   3.765   0.254  0.1636  0.0118 -0.5399
 5873TIP3    H139178   3.616   3.749   0.329 -0.3425 -0.6213 -1.0488
 5873TIP3    H239179   3.617   3.810   0.190  0.7154  0.9667 -0.3672
 5874TIP3   OH239180   3.224   1.117   1.245 -0.2426 -0.1738 -0.1600
 5874TIP3    H139181   3.201   1.041   1.192  0.1793 -0.3737 -0.0639
 5874TIP3    H239182   3.319   1.124   1.236 -0.2348  0.1123  0.1356
 5875TIP3   OH239183   0.685   2.698   0.376 -0.1698 -0.2846  0.3322
 5875TIP3    H139184   0.719   2.756   0.309  0.5074 -0.9054  0.1275
 5875TIP3    H239185   0.624   2.641   0.329 -1.3754  0.6802  0.6568
 5876TIP3   OH239186   0.111   5.199   1.634  0.2203 -0.1269 -0.0962
 5876TIP3    H139187   0.042   5.201   1.569 -0.2049 -2.0087  0.2255
 5876TIP3    H239188   0.147   5.110   1.628  1.4724  0.2782  0.8947
 5877TIP3   OH239189   0.741   0.403   0.694  0.3803 -0.1736  1.1018
 5877TIP3    H139190   0.817   0.349   0.714  1.2731  0.6699  0.1466
 5877TIP3    H239191   0.669   0.363   0.742  1.6857 -0.2154  3.1296
 5878TIP3   OH239192   3.340   4.883   1.269  0.4333 -0.1137  0.1947
 5878TIP3    H139193   3.298   4.932   1.340  0.3053  0.9936 -0.6022
 5878TIP3    H239194   3.269   4.868   1.206  1.1221  1.5414 -1.0482
 5879TIP3   OH239195   1.575   5.582   1.290 -0.3094 -0.0764 -0.1242
 5879TIP3    H139196   1.640   5.572   1.221  0.2927  0.0800  0.4101
 5879TIP3    H239197   1.497   5.537   1.257  0.6752 -1.9708  0.0352
 5880TIP3   OH239198   0.615   5.051   0.988  0.3507 -0.2155  0.0642
 5880TIP3    H139199   0.562   5.080   0.913 -0.0911 -0.8687  0.1159
 5880TIP3    H239200   0.677   5.123   1.002  1.0894 -0.4844 -1.5453
 5881TIP3   OH239201   4.869   5.069   1.530 -0.1789  0.2652  0.1483
 5881TIP3    H139202   4.790   5.034   1.490  0.6009 -0.9367 -0.4179
 5881TIP3    H239203   4.888   5.009   1.602 -0.6725  1.4844  1.3134
 5882TIP3   OH239204   4.893   3.486   1.500 -0.6199 -0.1347 -0.5276
 5882TIP3    H139205   4.876   3.579   1.484 -2.8941 -0.3948  0.0286
 5882TIP3    H239206   4.873   3.443   1.417  0.1497 -0.1757 -0.6988
 5883TIP3   OH239207   0.726   6.308   1.521  0.3641 -0.2135  0.0491
 5883TIP3    H139208   0.752   6.397   1.542 -0.1103 -0.1679  0.4383
 5883TIP3    H239209   0.650   6.290   1.576  1.5672 -1.5052  1.4119
 5884TIP3   OH239210   3.656   1.702   8.628  0.1603  0.0690 -0.1553
 5884TIP3    H139211   3.610   1.649   8.563 -0.0930  0.2187 -0.0969
 5884TIP3    H239212   3.727   1.744   8.578 -0.8396  1.2486 -0.6417
 5885TIP3   OH239213   0.931   2.608   0.448  0.5078  0.0827 -0.0157
 5885TIP3    H139214   0.843   2.642   0.434  1.0408  1.4457 -0.1912
 5885TIP3    H239215   0.924   2.515   0.424 -0.9295  0.0927  0.2399
 5886TIP3   OH239216   2.743   5.371   8.277 -0.4326  0.4017  0.5227
 5886TIP3    H139217   2.757   5.282   8.244  1.7240  0.7840  0.2980
 5886TIP3    H239218   2.706   5.418   8.202  0.1592  0.1401  0.0542
 5887TIP3   OH239219   0.266   1.299   8.059 -0.5162  0.3499 -0.1980
 5887TIP3    H139220   0.256   1.240   8.133 -0.3571  1.3088  0.6168
 5887TIP3    H239221   0.344   1.351   8.080 -0.5834  0.7710 -0.9424
 5888TIP3   OH239222   4.344   5.061   2.334 -0.8994  0.5067 -0.0466
 5888TIP3    H139223   4.422   5.042   2.386 -0.3602  0.9937 -0.6524
 5888TIP3    H239224   4.334   5.157   2.340 -1.4821  0.4462  0.0626
 5889TIP3   OH239225   6.636   2.819   1.328  0.2051 -0.0632  0.0833
 5889TIP3    H139226   6.562   2.759   1.332  0.1462  0.0647  1.2288
 5889TIP3    H239227   6.705   2.770   1.283 -0.9839  0.2963 -2.2742
 5890TIP3   OH239228   5.566   1.627   1.142  0.2612  0.5894 -0.7872
 5890TIP3    H139229   5.492   1.659   1.194  0.4658  0.7246 -0.5810
 5890TIP3    H239230   5.606   1.560   1.197 -0.8812 -0.9128 -1.6882
 5891TIP3   OH239231   0.199   1.056   8.170  0.3467  0.3026 -0.2215
 5891TIP3    H139232   0.128   1.047   8.106 -0.3085 -0.9181  0.6401
 5891TIP3    H239233   0.264   0.992   8.142  1.3357  1.6798 -1.2324
 5892TIP3   OH239234   0.696   0.647   2.204 -0.4261 -0.2798  0.0316
 5892TIP3    H139235   0.686   0.674   2.296 -1.1986 -0.7533  0.1017
 5892TIP3    H239236   0.620   0.591   2.188  0.2352 -1.0163 -0.6040
 5893TIP3   OH239237   0.419   4.698   7.951  0.5684  0.4127  0.3630
 5893TIP3    H139238   0.331   4.722   7.923  0.3874 -1.1659 -0.5018
 5893TIP3    H239239   0.477   4.758   7.904  0.0331  0.4692 -0.2277
 5894TIP3   OH239240   5.083   1.136   7.975 -0.1115  0.5675  0.1689
 5894TIP3    H139241   5.042   1.211   8.019 -0.5997 -0.0370  0.7666
 5894TIP3    H239242   5.143   1.100   8.040 -0.2883  0.1177  0.0867
 5895TIP3   OH239243   5.830   4.103   1.822 -0.1694 -0.1515  0.1422
 5895TIP3    H139244   5.801   4.184   1.779  1.3804  1.1215  1.3468
 5895TIP3    H239245   5.759   4.041   1.807 -2.0885  1.8516  0.3499
 5896TIP3   OH239246   4.213   1.236   0.883  0.2704  0.4347 -0.0477
 5896TIP3    H139247   4.180   1.320   0.848  1.1876  0.4800 -0.8471
 5896TIP3    H239248   4.306   1.237   0.862  0.3982 -0.5481  0.4511
 5897TIP3   OH239249   0.568   0.658   3.236  0.1795 -0.0819  0.0882
 5897TIP3    H139250   0.653   0.620   3.215  0.6450 -0.3667  2.2561
 5897TIP3    H239251   0.509   0.623   3.170  1.1182 -2.4105  0.4091
 5898TIP3   OH239252   1.758   5.983   2.033 -0.2533 -0.0070  0.0560
 5898TIP3    H139253   1.840   5.985   2.083  0.8929 -0.8563 -1.6761
 5898TIP3    H239254   1.726   5.894   2.043 -1.7353  0.6711  1.8134
 5899TIP3   OH239255   4.725   5.310   8.889  0.3706 -0.1446 -0.3731
 5899TIP3    H139256   4.699   5.230   8.935  0.7679  1.3606  2.6824
 5899TIP3    H239257   4.820   5.301   8.877  0.6862  0.5191  1.4386
 5900TIP3   OH239258   3.771   2.585   0.020  0.0540 -0.4800  0.3526
 5900TIP3    H139259   3.789   2.503   0.067  1.1429  0.1209  1.0137
 5900TIP3    H239260   3.788   2.564  -0.072  0.3667 -0.9780  0.5187
 5901TIP3   OH239261   3.804   2.332   0.130  0.0725  0.1199  0.2196
 5901TIP3    H139262   3.787   2.240   0.110  0.9387  0.3114 -1.6289
 5901TIP3    H239263   3.766   2.345   0.217 -1.4941 -1.5507 -0.1500
 5902TIP3   OH239264   0.289   1.399   1.113  0.3134  0.1851  0.1331
 5902TIP3    H139265   0.272   1.487   1.079  1.1199  0.2401 -0.1537
 5902TIP3    H239266   0.277   1.341   1.038  0.0278  0.0790  0.2614
 5903TIP3   OH239267   2.467   2.894   2.861 -0.6885 -0.6837 -0.0916
 5903TIP3    H139268   2.480   2.956   2.933 -0.8683 -1.1876  0.3900
 5903TIP3    H239269   2.373   2.890   2.849 -0.6370 -0.3403 -0.5906
 5904TIP3   OH239270   1.607   4.349   0.820  0.3125  0.1142  0.4421
 5904TIP3    H139271   1.668   4.304   0.879 -0.1482 -2.6583 -0.9851
 5904TIP3    H239272   1.526   4.357   0.871 -0.1377 -2.3985  0.2655
 5905TIP3   OH239273   4.073   0.890   1.896  0.0243  0.2632  0.1718
 5905TIP3    H139274   4.084   0.795   1.908 -2.1428 -0.2761 -1.5505
 5905TIP3    H239275   4.124   0.910   1.818 -0.5831  0.2363 -0.2387
 5906TIP3   OH239276   5.536   5.081   8.343 -0.0395  0.1056 -0.0892
 5906TIP3    H139277   5.619   5.129   8.339 -0.4442  0.7192 -1.6981
 5906TIP3    H239278   5.469   5.149   8.342 -0.6120 -0.4436 -1.7290
 5907TIP3   OH239279   1.042   2.380   1.474  0.5909 -0.0844 -0.0593
 5907TIP3    H139280   1.067   2.470   1.453  0.4398  0.1118  0.5778
 5907TIP3    H239281   0.989   2.387   1.553  1.1091 -0.7892  0.3677
 5908TIP3   OH239282   5.291   4.976   1.863 -0.3141 -0.4917  0.0463
 5908TIP3    H139283   5.296   4.956   1.769  2.9755 -0.7477  0.1454
 5908TIP3    H239284   5.383   4.982   1.891 -0.7782  5.9691  1.9442
 5909TIP3   OH239285   2.364   1.029   3.053  0.2118  0.2675 -0.6322
 5909TIP3    H139286   2.400   1.116   3.069 -1.9685  1.0799  0.2785
 5909TIP3    H239287   2.279   1.045   3.013 -0.0873 -1.4732 -0.7933
 5910TIP3   OH239288   3.454   3.265   8.342  0.3782 -0.3599 -0.1455
 5910TIP3    H139289   3.407   3.347   8.323  0.7819 -0.0306  0.2568
 5910TIP3    H239290   3.513   3.253   8.267 -0.2196 -0.6891 -0.5744
 5911TIP3   OH239291   0.585   3.787   0.448  0.0206 -0.2269  1.0348
 5911TIP3    H139292   0.518   3.856   0.444 -0.2166 -0.4990 -1.7892
 5911TIP3    H239293   0.535   3.707   0.463 -0.1058 -0.1855  0.8513
 5912TIP3   OH239294   6.613   3.456   0.496  0.1867  0.2530 -0.0459
 5912TIP3    H139295   6.642   3.364   0.498 -0.6994 -0.0425 -0.4043
 5912TIP3    H239296   6.661   3.498   0.568 -0.1413 -0.7155  0.7599
 5913TIP3   OH239297   0.149   5.619   0.599  0.1678  0.7001 -0.2151
 5913TIP3    H139298   0.173   5.615   0.507 -0.4664 -0.1807 -0.3598
 5913TIP3    H239299   0.095   5.698   0.606  0.5335  0.9774 -0.5195
 5914TIP3   OH239300   3.267   4.061   0.571 -0.3769  0.2757 -0.0279
 5914TIP3    H139301   3.197   4.068   0.506 -0.4433  1.2229  0.1251
 5914TIP3    H239302   3.252   4.135   0.629  1.5902  1.3858 -0.8324
 5915TIP3   OH239303   6.662   3.354   2.161 -0.8663  0.0158  0.0956
 5915TIP3    H139304   6.593   3.347   2.094 -2.4498 -1.7364  1.7840
 5915TIP3    H239305   6.617   3.391   2.237  0.7877  1.5254  0.3940
 5916TIP3   OH239306   1.677   3.247   0.881  0.4654 -0.5390  0.0368
 5916TIP3    H139307   1.611   3.235   0.948  0.2535 -2.1684 -0.4133
 5916TIP3    H239308   1.676   3.165   0.831  1.5937  0.0785 -1.0725
 5917TIP3   OH239309   1.745   5.373   1.361  0.0530  0.2298 -0.3183
 5917TIP3    H139310   1.711   5.291   1.325 -0.1157 -0.8037  2.0057
 5917TIP3    H239311   1.669   5.431   1.363 -0.5491 -0.5642  0.7077
 5918TIP3   OH239312   3.917   2.370   2.622 -0.4902  0.8119  0.3598
 5918TIP3    H139313   3.996   2.373   2.676  0.1381 -0.1193 -0.4642
 5918TIP3    H239314   3.946   2.394   2.534 -1.6669  3.1730  0.5418
 5919TIP3   OH239315   1.144   6.112   8.216 -0.0730 -0.5531  0.1777
 5919TIP3    H139316   1.058   6.077   8.239  0.1570 -1.4085 -0.2350
 5919TIP3    H239317   1.127   6.171   8.143 -0.5517  0.7507  1.2870
 5920TIP3   OH239318   0.523   6.094   1.883 -0.6795  0.2371 -0.1574
 5920TIP3    H139319   0.505   6.186   1.862  0.1590  0.1343 -1.4547
 5920TIP3    H239320   0.437   6.055   1.896 -1.0129  1.5518  2.1564
 5921TIP3   OH239321   0.763   0.064   0.792  0.3676  0.0730  0.5913
 5921TIP3    H139322   0.826   0.127   0.758 -0.7534  1.1260  0.3939
 5921TIP3    H239323   0.689   0.117   0.822 -0.8132 -1.1534 -0.0032
 5922TIP3   OH239324   1.594   2.733   8.780  0.1871  0.8011  0.1438
 5922TIP3    H139325   1.687   2.754   8.782  0.8854 -1.8362 -0.3983
 5922TIP3    H239326   1.591   2.638   8.774 -2.5499  0.8584 -0.9014
 5923TIP3   OH239327   4.496   0.313   7.537 -0.1119  0.2344 -0.1295
 5923TIP3    H139328   4.588   0.337   7.550 -0.2684  1.0670 -0.4884
 5923TIP3    H239329   4.464   0.293   7.625  0.0229  1.4192  0.2075
 5924TIP3   OH239330   5.779   4.209   0.099 -0.0274  0.2781  0.8085
 5924TIP3    H139331   5.847   4.162   0.148 -2.0563 -0.4691  3.1222
 5924TIP3    H239332   5.702   4.153   0.105 -1.1042  1.4795 -0.9946
 5925TIP3   OH239333   1.066   3.826   8.316 -0.1315  0.0113  0.0467
 5925TIP3    H139334   0.992   3.828   8.255 -1.5196 -0.7373  1.6220
 5925TIP3    H239335   1.128   3.765   8.276 -0.9396 -0.3711 -0.6577
 5926TIP3   OH239336   4.070   2.052   1.328 -0.3116 -0.3406  0.1917
 5926TIP3    H139337   4.090   1.987   1.260  0.0258 -0.2316  0.1833
 5926TIP3    H239338   3.989   2.094   1.298  0.3259  0.3532 -0.6406
 5927TIP3   OH239339   2.139   1.411   8.193  0.0221  0.5234  0.1277
 5927TIP3    H139340   2.086   1.391   8.116 -0.4146 -0.1179  0.5763
 5927TIP3    H239341   2.208   1.344   8.193  0.0733  0.5747  0.2458
 5928TIP3   OH239342   0.405   4.788   2.436 -0.0240 -0.3610  0.3659
 5928TIP3    H139343   0.348   4.755   2.505 -0.8020  0.0312 -0.0764
 5928TIP3    H239344   0.454   4.859   2.476 -0.1977 -0.3850  0.6200
 5929TIP3   OH239345   3.779   0.568   1.553 -0.6743  0.0790 -0.2436
 5929TIP3    H139346   3.736   0.486   1.579 -0.3660 -0.4978 -1.4386
 5929TIP3    H239347   3.782   0.563   1.457 -0.2501  1.2972 -0.3071
 5930TIP3   OH239348   5.228   5.013   1.280 -0.1069  0.3366 -0.2947
 5930TIP3    H139349   5.206   4.927   1.316 -0.4360  0.0013 -1.2439
 5930TIP3    H239350   5.166   5.025   1.207  2.3995 -0.3813 -2.7036
 5931TIP3   OH239351   2.843   4.135   8.330  0.0465  0.2447  0.7690
 5931TIP3    H139352   2.862   4.217   8.376 -2.4082  1.3117  0.0219
 5931TIP3    H239353   2.790   4.161   8.255 -0.1171 -1.9724  0.0376
 5932TIP3   OH239354   2.247   3.250   1.915  0.0756 -0.0454  0.6442
 5932TIP3    H139355   2.341   3.267   1.905  0.1060 -0.5075  0.1561
 5932TIP3    H239356   2.215   3.233   1.827 -0.5156  0.3169  0.7792
 5933TIP3   OH239357   2.318   3.548   2.006  0.2735  0.2400 -0.0924
 5933TIP3    H139358   2.308   3.499   2.087  0.8871 -0.7642 -0.5997
 5933TIP3    H239359   2.242   3.524   1.954  1.2177 -1.2362 -0.8531
 5934TIP3   OH239360   5.869   0.275   0.970 -0.0812  0.1604 -0.1194
 5934TIP3    H139361   5.921   0.202   0.936  0.6505  0.4404  0.3624
 5934TIP3    H239362   5.824   0.311   0.894 -0.1974 -0.5939 -0.4121
 5935TIP3   OH239363   6.273   0.641   7.808 -0.2466 -0.5511 -0.5154
 5935TIP3    H139364   6.239   0.707   7.869 -0.7511  0.6104 -1.9972
 5935TIP3    H239365   6.290   0.565   7.863  0.3916  0.8103  1.2682
 5936TIP3   OH239366   1.084   0.103   8.001  0.2837  0.4004  0.2132
 5936TIP3    H139367   1.128   0.101   7.916 -0.1878  0.7452 -0.0436
 5936TIP3    H239368   1.026   0.026   8.000  0.9853 -0.1384  0.6112
 5937TIP3   OH239369   4.228   6.418   1.226  0.5684 -0.1512  0.2951
 5937TIP3    H139370   4.174   6.346   1.194  0.5577 -0.0052 -0.0116
 5937TIP3    H239371   4.313   6.378   1.244 -0.2142 -0.8767  2.8530
 5938TIP3   OH239372   4.902   2.068   0.302  0.3879  0.5385  0.5726
 5938TIP3    H139373   4.935   1.981   0.276  1.0352  1.2550 -1.1845
 5938TIP3    H239374   4.810   2.067   0.276  0.8569  0.9972 -1.2638
 5939TIP3   OH239375   1.198   5.211   8.482  0.3027  0.2341 -0.0453
 5939TIP3    H139376   1.171   5.220   8.573 -0.7713  0.1745 -0.3442
 5939TIP3    H239377   1.254   5.134   8.482  1.0327  0.7498  0.7095
 5940TIP3   OH239378   4.228   6.372   8.666 -0.4626  0.5326  0.0598
 5940TIP3    H139379   4.229   6.308   8.737 -0.3211 -0.6838 -1.0021
 5940TIP3    H239380   4.139   6.365   8.630 -0.1346  0.1930 -0.6955
 5941TIP3   OH239381   6.581   0.441   8.960  0.1691  0.2244 -0.4808
 5941TIP3    H139382   6.499   0.434   9.010 -0.7680  0.7880 -1.8777
 5941TIP3    H239383   6.641   0.380   9.003 -1.5616 -1.6379 -0.5519
 5942TIP3   OH239384   5.916   6.240   2.256 -0.5450 -0.0507  0.5003
 5942TIP3    H139385   5.842   6.189   2.288 -0.8495 -0.8059 -1.2717
 5942TIP3    H239386   5.985   6.226   2.320 -0.9178 -1.9816  0.5463
 5943TIP3   OH239387   3.961   0.010   2.660 -0.2555 -0.0001  0.0643
 5943TIP3    H139388   3.982  -0.074   2.701 -1.4702  0.9278  2.8492
 5943TIP3    H239389   3.868   0.023   2.679  0.1101  2.3709  0.5468
 5944TIP3   OH239390   6.322   2.954   1.461 -0.4897 -0.2866 -0.3073
 5944TIP3    H139391   6.280   2.872   1.434 -0.0247 -0.8319  0.5868
 5944TIP3    H239392   6.364   2.987   1.382 -0.7049 -0.9003 -0.6823
 5945TIP3   OH239393   2.041   0.077   7.616  0.2679 -0.4822  0.0635
 5945TIP3    H139394   2.074  -0.012   7.612 -0.3671 -0.7696  0.8853
 5945TIP3    H239395   1.958   0.070   7.664 -1.4931  0.0698 -2.6770
 5946TIP3   OH239396   0.467   6.572   8.394  0.2702  0.0336  0.7872
 5946TIP3    H139397   0.388   6.518   8.394  1.7104 -2.2089  0.0105
 5946TIP3    H239398   0.474   6.603   8.485  0.3529 -2.6814  1.8073
 5947TIP3   OH239399   3.168   6.030   7.290  0.5736  0.1944 -0.1165
 5947TIP3    H139400   3.114   6.098   7.330 -1.7146 -2.0596  0.8330
 5947TIP3    H239401   3.162   6.047   7.196 -1.1101  0.4827  0.0227
 5948TIP3   OH239402   2.141   6.439   8.328  0.2663  0.4216  0.0357
 5948TIP3    H139403   2.126   6.461   8.236  0.2121 -1.0200 -0.3224
 5948TIP3    H239404   2.171   6.349   8.326  0.8295  0.5630  1.4029
 5949TIP3   OH239405   3.337   3.601   7.992 -0.3143 -0.9457 -0.2631
 5949TIP3    H139406   3.380   3.664   8.050 -2.2229  0.0498  0.1745
 5949TIP3    H239407   3.407   3.568   7.935  1.1040  0.0670  0.8222
 5950TIP3   OH239408   1.950   6.146   2.877 -0.3493  0.9891 -0.1198
 5950TIP3    H139409   1.861   6.144   2.842 -1.0251  2.8188  1.3275
 5950TIP3    H239410   1.994   6.072   2.835 -2.9642 -0.9180  0.2528
 5951TIP3   OH239411   5.081   2.002   0.594  0.1220 -0.3556  0.4516
 5951TIP3    H139412   5.147   2.049   0.542 -0.9032 -1.2468 -1.7714
 5951TIP3    H239413   4.998   2.029   0.556 -0.9876  1.3609  3.7026
 5952TIP3   OH239414   1.848   2.711   0.241 -0.6256 -0.6645  0.0332
 5952TIP3    H139415   1.780   2.686   0.303 -1.8711  0.7171 -0.7148
 5952TIP3    H239416   1.809   2.696   0.155  0.5364 -1.1398 -0.4409
 5953TIP3   OH239417   6.090   5.801   1.287 -0.5119 -0.0870 -0.0647
 5953TIP3    H139418   6.078   5.892   1.315 -1.0469 -0.0271 -0.4623
 5953TIP3    H239419   6.178   5.798   1.250 -0.7373  0.4404 -0.6753
 5954TIP3   OH239420   3.017   5.812   7.384 -0.2306  0.2322  0.1824
 5954TIP3    H139421   3.053   5.877   7.323  0.3595  0.4656  0.7723
 5954TIP3    H239422   3.092   5.760   7.411 -0.6810 -0.6305 -0.1890
 5955TIP3   OH239423   1.807   3.542   1.011 -0.6224 -0.0879  0.2236
 5955TIP3    H139424   1.769   3.559   0.925  0.9743 -0.2903 -0.5546
 5955TIP3    H239425   1.853   3.459   1.002  0.8462  0.6155  0.8053
 5956TIP3   OH239426   4.395   3.282   0.215 -0.2697 -0.1879 -0.3583
 5956TIP3    H139427   4.350   3.277   0.299 -0.2113 -3.1700 -0.3999
 5956TIP3    H239428   4.335   3.241   0.153  0.5315  0.1126 -1.3658
 5957TIP3   OH239429   5.894   3.648   1.080 -0.5097 -0.3804 -0.0622
 5957TIP3    H139430   5.977   3.639   1.033 -0.9069 -0.1583 -0.8210
 5957TIP3    H239431   5.849   3.719   1.035 -0.9820 -0.2917  0.5424
 5958TIP3   OH239432   4.832   5.880   2.709  0.1635 -0.3265  0.1444
 5958TIP3    H139433   4.753   5.935   2.708 -0.0304 -0.5352  1.7053
 5958TIP3    H239434   4.889   5.922   2.772  2.0800  0.7790 -2.1580
 5959TIP3   OH239435   4.833   5.992   7.608 -0.4360  0.1773  0.1309
 5959TIP3    H139436   4.926   5.977   7.591 -0.1233  0.2192  1.6292
 5959TIP3    H239437   4.822   5.967   7.700 -1.0081  3.8928  1.2502
 5960TIP3   OH239438   0.318   5.201   7.533  0.4324  0.6960 -0.4041
 5960TIP3    H139439   0.385   5.141   7.568  0.5446  0.3492 -1.2077
 5960TIP3    H239440   0.319   5.186   7.439 -0.0145  1.4857 -0.5403
 5961TIP3   OH239441   6.164   1.603   8.527  1.1289  0.1716  0.1351
 5961TIP3    H139442   6.150   1.533   8.591 -0.9486  0.5021  0.1171
 5961TIP3    H239443   6.127   1.569   8.445 -1.5000  1.8178  0.5130
 5962TIP3   OH239444   4.715   4.206   8.499  0.0353 -0.4369  0.1214
 5962TIP3    H139445   4.733   4.132   8.558 -2.2865 -0.6153  0.7102
 5962TIP3    H239446   4.620   4.219   8.506 -0.0180  0.7694 -2.1726
 5963TIP3   OH239447   2.548   2.792   7.803  0.1670 -0.3760  0.6959
 5963TIP3    H139448   2.502   2.768   7.884 -0.4605  0.7489  0.6942
 5963TIP3    H239449   2.640   2.775   7.822  0.2716  1.5729  2.3333
 5964TIP3   OH239450   6.184   5.378   2.279  0.0819 -0.2620 -0.5617
 5964TIP3    H139451   6.198   5.411   2.191  0.3851  0.4348 -0.2590
 5964TIP3    H239452   6.250   5.309   2.290  0.1010 -0.2903 -0.8444
 5965TIP3   OH239453   5.410   0.143   2.408 -0.4351  0.0576 -0.6579
 5965TIP3    H139454   5.352   0.209   2.447 -0.4253 -0.6432  0.5914
 5965TIP3    H239455   5.435   0.087   2.481  0.3081 -0.7814 -1.5306
 5966TIP3   OH239456   5.656   0.722   1.339  0.5631  0.0838 -0.1684
 5966TIP3    H139457   5.746   0.744   1.365  0.2096  2.4503 -0.6997
 5966TIP3    H239458   5.643   0.768   1.256 -1.6943  1.3772  0.7935
 5967TIP3   OH239459   3.976   5.360   0.695  0.1912  0.1451  0.2126
 5967TIP3    H139460   3.944   5.442   0.657  1.3521 -0.2982 -1.8736
 5967TIP3    H239461   4.070   5.374   0.705  0.1637 -0.3793  1.4007
 5968TIP3   OH239462   1.056   1.190   2.062 -0.0036 -0.0025  0.1463
 5968TIP3    H139463   1.129   1.250   2.081 -0.4088  0.4194  0.3731
 5968TIP3    H239464   1.028   1.158   2.147 -0.6016  0.4509  0.1223
 5969TIP3   OH239465   2.750   3.647   8.439 -0.1057  0.2871 -0.2840
 5969TIP3    H139466   2.654   3.651   8.432 -0.0684 -0.2617 -1.2032
 5969TIP3    H239467   2.774   3.732   8.475 -0.8002  1.1596 -1.7910
 5970TIP3   OH239468   1.337   1.308   2.010  0.1732 -0.3089  0.1440
 5970TIP3    H139469   1.403   1.292   2.077  0.3006 -0.2769  0.0282
 5970TIP3    H239470   1.324   1.223   1.968  1.1156 -0.0574 -0.7115
 5971TIP3   OH239471   0.341   1.546   8.808  0.2562  0.2803  0.5578
 5971TIP3    H139472   0.381   1.479   8.864  0.5641  0.3262  0.3991
 5971TIP3    H239473   0.280   1.499   8.752  0.6706  0.0824  0.2597
 5972TIP3   OH239474   5.595   0.493   2.488 -0.2168 -0.0580  0.0643
 5972TIP3    H139475   5.512   0.508   2.442 -0.4557 -0.9078  0.2099
 5972TIP3    H239476   5.579   0.416   2.543  0.4753  0.1514  0.5749
 5973TIP3   OH239477   5.844   4.490   0.064  0.1838  0.3002  0.1429
 5973TIP3    H139478   5.793   4.543   0.126  0.5737  1.3077 -0.3740
 5973TIP3    H239479   5.809   4.402   0.074 -2.3705  1.0922 -0.8782
 5974TIP3   OH239480   2.371   4.010   8.224  0.0135  0.2947  0.8208
 5974TIP3    H139481   2.439   3.997   8.290 -0.1461  0.5077  1.0315
 5974TIP3    H239482   2.412   4.066   8.158  0.9042 -1.6830 -0.4033
 5975TIP3   OH239483   2.599   5.471   8.065  0.3983 -0.5976 -0.3408
 5975TIP3    H139484   2.507   5.497   8.062  0.0474 -1.2017  2.3919
 5975TIP3    H239485   2.603   5.391   8.012 -0.3909 -0.0265 -1.3151
 5976TIP3   OH239486   1.096   4.198   0.803  0.3128 -0.7247  0.1887
 5976TIP3    H139487   1.127   4.219   0.715  2.8048 -1.3082  0.8453
 5976TIP3    H239488   1.008   4.164   0.790  0.7336 -1.1049 -2.1339
 5977TIP3   OH239489   6.349   5.907   1.485 -0.2087 -0.3000 -0.1945
 5977TIP3    H139490   6.344   5.974   1.417  1.1270  0.2674  0.2350
 5977TIP3    H239491   6.380   5.828   1.440  0.0320 -0.1084 -0.3662
 5978TIP3   OH239492   3.289   3.047   8.545 -0.0963  0.0776 -0.0342
 5978TIP3    H139493   3.320   3.132   8.513  2.6675 -0.8685 -0.1557
 5978TIP3    H239494   3.310   3.047   8.638 -0.1506 -0.4315 -0.0164
 5979TIP3   OH239495   5.297   4.662   0.471  0.3319  0.3831  0.2460
 5979TIP3    H139496   5.318   4.657   0.377  0.5709  0.9956  0.2628
 5979TIP3    H239497   5.243   4.741   0.479 -0.7475 -0.3471  0.4387
 5980TIP3   OH239498   5.063   0.256   1.607 -0.1092 -0.4952  0.1822
 5980TIP3    H139499   5.017   0.220   1.683 -0.6730  2.2698  1.2807
 5980TIP3    H239500   5.092   0.343   1.635 -0.4684  0.7225 -2.7969
 5981TIP3   OH239501   0.231   1.563   8.414  0.2057  0.6135 -0.0043
 5981TIP3    H139502   0.212   1.616   8.491 -0.4493  0.7353 -0.2457
 5981TIP3    H239503   0.201   1.475   8.437  0.0341  0.6442 -0.1099
 5982TIP3   OH239504   5.683   5.961   2.039  0.0577  0.2607  0.5767
 5982TIP3    H139505   5.764   5.989   1.998 -0.1303  0.6114  0.4384
 5982TIP3    H239506   5.640   6.043   2.066 -0.3332  0.0909  0.4830
 5983TIP3   OH239507   5.033   0.137   8.623  0.5335  0.0480  0.0416
 5983TIP3    H139508   5.035   0.047   8.654 -1.1310  0.4769  1.5805
 5983TIP3    H239509   5.103   0.181   8.672  0.2569 -0.0595  0.5373
 5984TIP3   OH239510   3.008   2.375   1.609  0.1281  0.5286  0.1420
 5984TIP3    H139511   2.970   2.343   1.527  0.3961  0.4820  0.0355
 5984TIP3    H239512   3.099   2.393   1.588  0.8126 -1.6965  1.0069
 5985TIP3   OH239513   4.708   3.714   2.171 -0.3861  0.7087 -0.1181
 5985TIP3    H139514   4.633   3.774   2.177 -2.1650 -1.4978  1.5968
 5985TIP3    H239515   4.785   3.771   2.179 -1.9518  2.8310  0.7264
 5986TIP3   OH239516   0.807   4.342   7.720 -0.1840 -0.0188 -0.1327
 5986TIP3    H139517   0.775   4.429   7.695 -0.2360 -0.1396 -0.4939
 5986TIP3    H239518   0.835   4.303   7.637 -0.6023 -0.5296 -0.0369
 5987TIP3   OH239519   5.534   4.161   1.071  0.0741 -0.1786  0.7660
 5987TIP3    H139520   5.599   4.159   1.142  1.1538  0.6241 -0.1587
 5987TIP3    H239521   5.586   4.175   0.992 -1.2619  0.6802  0.0133
 5988TIP3   OH239522   6.431   3.643   2.951 -0.2741  0.3281  0.0178
 5988TIP3    H139523   6.348   3.683   2.978 -0.6320  0.4303 -1.1953
 5988TIP3    H239524   6.490   3.660   3.024 -1.3019  0.2897  0.8911
 5989TIP3   OH239525   4.124   6.102   1.687  0.0178  0.2554  0.0820
 5989TIP3    H139526   4.039   6.109   1.730 -0.1194  1.2956 -0.3210
 5989TIP3    H239527   4.177   6.171   1.727  0.4715  0.0302 -0.1194
 5990TIP3   OH239528   0.221   4.008   2.495 -0.3668  0.3404 -0.2192
 5990TIP3    H139529   0.212   4.089   2.544  1.8929  0.5268  0.0201
 5990TIP3    H239530   0.280   3.954   2.549  1.7724  0.3460 -2.3824
 5991TIP3   OH239531   3.577   2.073   8.086 -0.0490 -0.0074  0.3693
 5991TIP3    H139532   3.593   2.033   8.000  1.4292  0.0458  0.5987
 5991TIP3    H239533   3.590   2.167   8.072 -0.9656  0.1360  0.4088
 5992TIP3   OH239534   0.472   4.003   8.839  0.3944 -0.3904 -0.1474
 5992TIP3    H139535   0.434   3.920   8.809 -0.4886 -0.6992  1.6416
 5992TIP3    H239536   0.462   4.000   8.935  0.0611  1.9155 -0.0575
 5993TIP3   OH239537   3.778   4.421   1.145  0.2082 -0.2296  0.1176
 5993TIP3    H139538   3.803   4.417   1.238 -1.0436  0.3078  0.5080
 5993TIP3    H239539   3.855   4.454   1.101  0.8334 -0.5071  0.9729
 5994TIP3   OH239540   2.744   0.876   0.789  0.5986  0.0878 -0.2590
 5994TIP3    H139541   2.789   0.812   0.845 -1.4012 -0.1184  1.2321
 5994TIP3    H239542   2.775   0.961   0.820  1.3526 -0.0731 -0.5378
 5995TIP3   OH239543   2.708   0.810   2.549 -0.4054  0.3797  0.0914
 5995TIP3    H139544   2.773   0.863   2.502 -1.3808  0.2452 -1.4858
 5995TIP3    H239545   2.744   0.722   2.547  0.1124  0.5747  0.6403
 5996TIP3   OH239546   2.151   5.870   1.574 -0.2362  0.2591 -0.1885
 5996TIP3    H139547   2.134   5.963   1.564  1.5103  0.5378 -1.0678
 5996TIP3    H239548   2.108   5.845   1.655  0.1549  2.0726  0.6118
 5997TIP3   OH239549   5.227   0.943   8.589  0.3406 -0.1799  0.4148
 5997TIP3    H139550   5.174   0.873   8.551  0.3005 -0.9479  1.8451
 5997TIP3    H239551   5.171   1.021   8.586 -1.6538 -1.3398  3.5332
 5998TIP3   OH239552   0.402   1.336   1.365 -0.0609 -0.6356 -0.5554
 5998TIP3    H139553   0.345   1.313   1.438  0.2856 -0.6168 -0.2749
 5998TIP3    H239554   0.343   1.361   1.295 -0.4440 -1.8550 -0.6887
 5999TIP3   OH239555   6.612   2.800   1.604  1.0274 -0.0897 -0.1657
 5999TIP3    H139556   6.637   2.748   1.681  0.8641 -0.9407 -0.6786
 5999TIP3    H239557   6.659   2.760   1.531  1.1525  0.6916 -0.5227
 6000TIP3   OH239558   5.406   5.700   7.290 -0.4869  0.1458  0.4305
 6000TIP3    H139559   5.434   5.673   7.378  1.9001  0.0424 -0.2854
 6000TIP3    H239560   5.421   5.623   7.235 -0.8620  0.5696 -0.2801
 6001TIP3   OH239561   4.592   3.211   3.131  0.1420  0.4424  0.5694
 6001TIP3    H139562   4.543   3.142   3.176  0.8257 -0.5727 -0.1911
 6001TIP3    H239563   4.585   3.189   3.039  1.8757  0.3421  0.4311
 6002TIP3   OH239564   1.145   2.059   3.404  1.0704  0.0763  0.1050
 6002TIP3    H139565   1.066   2.055   3.351  2.2091  1.6561 -1.8268
 6002TIP3    H239566   1.143   1.979   3.457 -2.0142  0.3162  0.4854
 6003TIP3   OH239567   6.187   5.513   2.028  0.4170  0.2164 -0.4348
 6003TIP3    H139568   6.162   5.594   2.073 -0.3745 -0.0498 -0.3734
 6003TIP3    H239569   6.104   5.475   1.999  0.8591  0.0111 -1.4913
 6004TIP3   OH239570   5.574   1.338   8.615  0.5150  0.0549 -0.6346
 6004TIP3    H139571   5.665   1.311   8.606  0.1738 -2.4952  2.0540
 6004TIP3    H239572   5.527   1.281   8.553  0.6663  1.2895 -1.9351
 6005TIP3   OH239573   3.886   6.226   1.057  0.4600 -1.1048  0.1620
 6005TIP3    H139574   3.817   6.166   1.027 -0.3887 -1.0274  1.8226
 6005TIP3    H239575   3.859   6.250   1.146  1.9893 -0.0605  0.3750
 6006TIP3   OH239576   6.546   4.689   0.317 -0.0915 -0.4131  0.5169
 6006TIP3    H139577   6.522   4.781   0.312  0.3280 -0.3582 -0.7720
 6006TIP3    H239578   6.638   4.686   0.293 -0.2326 -1.2168  0.0195
 6007TIP3   OH239579   2.865   2.503   8.457 -0.6182 -0.0672 -0.0106
 6007TIP3    H139580   2.943   2.549   8.428 -0.0628  0.1344  1.6991
 6007TIP3    H239581   2.884   2.410   8.440 -0.7456  0.1032 -1.1930
 6008TIP3   OH239582   0.546   2.695   8.423  0.3082  0.2003  1.0164
 6008TIP3    H139583   0.615   2.756   8.448  0.3673  0.3021  0.6111
 6008TIP3    H239584   0.578   2.652   8.344 -1.0764  2.0313 -0.6702
 6009TIP3   OH239585   3.210   0.453   0.677 -0.4062  0.0475  0.1878
 6009TIP3    H139586   3.220   0.450   0.772 -0.7480 -0.0008  0.2260
 6009TIP3    H239587   3.194   0.363   0.651 -0.4029  0.0728  0.0963
 6010TIP3   OH239588   4.952   4.753   1.485  0.5137 -0.1410  0.1844
 6010TIP3    H139589   4.996   4.798   1.557  2.5041  0.8118 -1.5273
 6010TIP3    H239590   4.858   4.768   1.501  0.8802  0.0181  2.5355
 6011TIP3   OH239591   0.083   5.045   2.408 -0.0725  0.0757 -0.6001
 6011TIP3    H139592   0.127   4.965   2.437  0.8364  0.5126 -0.7442
 6011TIP3    H239593   0.146   5.087   2.350 -0.4123  1.0672 -0.2698
 6012TIP3   OH239594   5.891   0.678   1.615 -0.6901  0.5068  0.1946
 6012TIP3    H139595   5.913   0.726   1.536 -0.7759 -0.6416 -0.5462
 6012TIP3    H239596   5.975   0.648   1.650 -0.6904  0.5430  0.2256
 6013TIP3   OH239597   5.190   5.296   0.935 -0.0768 -0.0932  0.5544
 6013TIP3    H139598   5.150   5.381   0.919  1.2628  0.4533 -0.0075
 6013TIP3    H239599   5.264   5.314   0.993  0.2067 -0.8689  0.4508
 6014TIP3   OH239600   0.137   4.278   0.070 -0.5404 -0.6513 -0.1024
 6014TIP3    H139601   0.102   4.251   0.155 -0.6484 -0.4115 -0.0699
 6014TIP3    H239602   0.225   4.311   0.090 -0.5592 -0.6109 -0.0869
 6015TIP3   OH239603   2.942   0.886   3.356  0.0846 -0.1397 -0.7202
 6015TIP3    H139604   2.867   0.842   3.315 -0.2542 -0.3946  0.1480
 6015TIP3    H239605   3.012   0.821   3.355 -0.0908 -0.3347 -0.3999
 6016TIP3   OH239606   1.122   0.261   0.489  0.5135 -0.5929  0.4654
 6016TIP3    H139607   1.171   0.179   0.485  1.4124 -0.0790  0.6641
 6016TIP3    H239608   1.034   0.238   0.459  0.6735 -1.6856  0.8008
 6017TIP3   OH239609   3.113   2.838   2.220  0.5932 -0.2878  0.2111
 6017TIP3    H139610   3.165   2.786   2.281  1.6257 -1.2355 -1.3954
 6017TIP3    H239611   3.147   2.815   2.133 -0.2531  1.5984 -0.6974
 6018TIP3   OH239612   2.836   0.097   7.910 -0.7186 -0.1859 -0.2563
 6018TIP3    H139613   2.891   0.140   7.976 -0.4740 -0.0485 -0.5446
 6018TIP3    H239614   2.764   0.060   7.959 -0.3786 -0.3427  0.1294
 6019TIP3   OH239615   1.468   0.113   7.831  0.2582  0.0241 -1.0998
 6019TIP3    H139616   1.469   0.029   7.875  0.2491 -0.0835 -1.3058
 6019TIP3    H239617   1.378   0.124   7.801 -0.9643  2.0951  2.7496
 6020TIP3   OH239618   4.861   3.821   7.607  0.0453  0.1098  0.0771
 6020TIP3    H139619   4.917   3.891   7.572  1.2370 -1.1223 -0.5755
 6020TIP3    H239620   4.810   3.791   7.531  2.0181 -1.9917 -0.5290
 6021TIP3   OH239621   2.212   5.903   8.669 -0.0322  0.1237  0.3745
 6021TIP3    H139622   2.240   5.942   8.586  0.2439  0.4480  0.6162
 6021TIP3    H239623   2.214   5.809   8.653 -1.8775  0.1908 -0.6116
 6022TIP3   OH239624   6.609   3.562   2.444  0.6319  0.6030 -0.0504
 6022TIP3    H139625   6.688   3.614   2.433  1.4950 -0.9183 -1.4674
 6022TIP3    H239626   6.538   3.627   2.448  1.9580  2.0544  2.2121
 6023TIP3   OH239627   2.855   6.201   0.761  0.3658 -0.0052 -0.0935
 6023TIP3    H139628   2.887   6.155   0.683 -1.1947 -0.9762 -0.2134
 6023TIP3    H239629   2.868   6.294   0.742  0.6488 -0.2624 -1.2028
 6024TIP3   OH239630   6.624   4.692   1.704  0.4380  0.3316 -0.3165
 6024TIP3    H139631   6.624   4.597   1.713 -1.7427  0.2967 -0.0329
 6024TIP3    H239632   6.648   4.724   1.791 -0.1126  0.0222 -0.0450
 6025TIP3   OH239633   0.609   2.188   8.784 -0.5894 -0.1411 -0.3651
 6025TIP3    H139634   0.611   2.101   8.743 -0.3054 -0.1912 -0.2469
 6025TIP3    H239635   0.526   2.191   8.830  0.5409 -1.4219  1.9362
 6026TIP3   OH239636   6.594   1.950   2.007 -0.3509 -0.2168  0.5494
 6026TIP3    H139637   6.593   1.859   2.037  0.3725 -0.6030 -0.5390
 6026TIP3    H239638   6.589   1.944   1.911  0.2592  0.8585  0.4277
 6027TIP3   OH239639   3.636   6.235   2.581 -0.6933  0.2077  0.1498
 6027TIP3    H139640   3.640   6.327   2.606  0.1161  0.0304  0.7285
 6027TIP3    H239641   3.613   6.235   2.488  0.2777  1.0256 -0.0961
 6028TIP3   OH239642   3.014   0.375   1.551  0.2731 -0.3670 -0.4498
 6028TIP3    H139643   2.964   0.294   1.537  0.2040 -0.1700 -1.3894
 6028TIP3    H239644   3.002   0.425   1.470 -0.9382  1.2752  0.6751
 6029TIP3   OH239645   3.405   5.137   0.027 -0.5487  0.3787 -0.2722
 6029TIP3    H139646   3.451   5.087  -0.040 -2.1974 -2.0523  0.2893
 6029TIP3    H239647   3.461   5.214   0.042  0.1712  0.7135 -3.9128
 6030TIP3   OH239648   3.500   6.601   0.544 -0.1839  0.4293 -0.3573
 6030TIP3    H139649   3.443   6.567   0.613 -0.1489  0.2908 -0.3967
 6030TIP3    H239650   3.441   6.621   0.471 -0.5886  2.9363  0.5676
 6031TIP3   OH239651   2.371   3.508   0.337 -0.4524 -0.0361  0.2438
 6031TIP3    H139652   2.279   3.485   0.320 -0.5701  0.8387 -0.4130
 6031TIP3    H239653   2.420   3.462   0.269 -0.3516 -0.8324  0.8444
 6032TIP3   OH239654   0.535   2.984   1.709 -0.8146  0.1405 -0.2895
 6032TIP3    H139655   0.465   2.921   1.693  1.2226 -3.0923  2.2780
 6032TIP3    H239656   0.532   2.999   1.804  1.6581  0.1961 -0.1567
 6033TIP3   OH239657   4.482   6.449   1.966  0.2243 -0.9060 -0.2227
 6033TIP3    H139658   4.404   6.475   1.917  0.5380 -0.5388 -0.5350
 6033TIP3    H239659   4.554   6.464   1.905  0.5330 -1.3100  0.0392
 6034TIP3   OH239660   4.891   5.611   0.632  0.0480 -0.0370  0.3321
 6034TIP3    H139661   4.913   5.605   0.725  1.1501  0.6122  0.1287
 6034TIP3    H239662   4.893   5.705   0.613  3.2265 -0.2624 -1.0758
 6035TIP3   OH239663   0.668   4.535   2.584  0.0585  0.3109 -0.2717
 6035TIP3    H139664   0.717   4.616   2.593  2.0358 -0.7575 -0.9051
 6035TIP3    H239665   0.697   4.481   2.657  0.1249 -0.4978 -0.8875
 6036TIP3   OH239666   3.362   0.247   1.239  0.0917  0.1413 -0.3143
 6036TIP3    H139667   3.301   0.190   1.286 -1.1841  1.0984 -0.7429
 6036TIP3    H239668   3.352   0.223   1.147 -1.7424  2.1149 -0.7187
 6037TIP3   OH239669   6.606   2.357   8.881  0.0571  0.2443  0.1680
 6037TIP3    H139670   6.668   2.316   8.942  0.0413  1.3603  0.9801
 6037TIP3    H239671   6.535   2.294   8.873  0.9122 -0.7145 -0.1537
 6038TIP3   OH239672   1.763   6.271   1.541 -0.0584 -0.0665  0.3529
 6038TIP3    H139673   1.721   6.185   1.548 -0.4013  0.0162 -0.5413
 6038TIP3    H239674   1.714   6.326   1.602 -1.7338  0.1888 -1.1246
 6039TIP3   OH239675   3.873   6.368   7.847 -0.2412  0.0869 -0.3560
 6039TIP3    H139676   3.832   6.281   7.850 -0.5089  0.1899 -0.8518
 6039TIP3    H239677   3.801   6.428   7.862 -0.2475  0.2645 -1.0721
 6040TIP3   OH239678   3.523   4.996   1.672 -0.4869  0.4269  0.2292
 6040TIP3    H139679   3.438   4.988   1.629  0.5078  0.6542 -1.9316
 6040TIP3    H239680   3.558   4.907   1.673  0.5960  0.7640 -1.9699
 6041TIP3   OH239681   4.743   1.832   3.510  0.6260  1.0395  0.3037
 6041TIP3    H139682   4.811   1.778   3.549 -1.0129 -0.9549  0.6206
 6041TIP3    H239683   4.738   1.803   3.418 -1.2077 -0.5083  0.8139
 6042TIP3   OH239684   6.374   1.774   8.377 -0.3332 -0.2750 -0.1411
 6042TIP3    H139685   6.392   1.857   8.420 -1.5954  0.2034 -0.4835
 6042TIP3    H239686   6.322   1.725   8.441  4.1779 -2.8041  2.0359
 6043TIP3   OH239687   2.513   0.585   7.546  0.1777  0.1746 -0.0151
 6043TIP3    H139688   2.570   0.512   7.522  1.7651  0.3089  2.9620
 6043TIP3    H239689   2.534   0.604   7.637 -2.5384  2.2496  0.3193
 6044TIP3   OH239690   4.365   4.157   1.578 -0.0042 -0.5125  0.0862
 6044TIP3    H139691   4.331   4.147   1.489  0.0905  2.7988 -0.4580
 6044TIP3    H239692   4.451   4.199   1.565  1.0524 -2.0528  1.7070
 6045TIP3   OH239693   0.089   4.934   1.845  0.6382 -0.3124 -0.0197
 6045TIP3    H139694   0.146   4.929   1.769  0.9194 -0.2287  0.1825
 6045TIP3    H239695   0.022   4.998   1.820  0.3361 -0.7909 -0.4468
 6046TIP3   OH239696   1.882   3.018   8.747  0.3343 -0.1536 -0.3405
 6046TIP3    H139697   1.891   3.102   8.792 -1.1904  0.9561 -1.9285
 6046TIP3    H239698   1.846   2.959   8.812  0.2439  0.7899  0.4880
 6047TIP3   OH239699   3.604   3.447   2.518  0.0637  0.5631 -0.0060
 6047TIP3    H139700   3.584   3.361   2.481  0.4266 -0.3983  1.9240
 6047TIP3    H239701   3.690   3.437   2.558  0.7985  2.2840 -1.0212
 6048TIP3   OH239702   1.474   5.379   3.601 -0.2653 -0.2537 -0.0949
 6048TIP3    H139703   1.556   5.353   3.558 -0.1897  1.4140 -1.0434
 6048TIP3    H239704   1.448   5.460   3.557 -0.8988  0.8489  2.1288
 6049TIP3   OH239705   1.898   1.929   0.785  0.1194  0.5673  0.3526
 6049TIP3    H139706   1.938   1.849   0.820  1.6994  0.4830 -1.4774
 6049TIP3    H239707   1.808   1.905   0.766  0.5272 -0.7524 -0.0312
 6050TIP3   OH239708   3.925   6.668   0.728  0.8026  0.1964  0.1525
 6050TIP3    H139709   3.894   6.623   0.649  3.0609  0.0225 -0.7059
 6050TIP3    H239710   3.913   6.604   0.798 -1.7681  0.5530  0.1451
 6051TIP3   OH239711   1.929   0.042   0.880 -0.5883  0.5110  0.0025
 6051TIP3    H139712   1.836   0.021   0.868 -0.5648  1.6014 -3.0598
 6051TIP3    H239713   1.929   0.125   0.927 -1.0484 -0.2123  1.3519
 6052TIP3   OH239714   3.845   3.112   2.785  0.4595  0.4510 -0.1037
 6052TIP3    H139715   3.770   3.062   2.751  0.9193 -0.3262  0.0070
 6052TIP3    H239716   3.862   3.074   2.871 -0.6511  2.3631  1.0380
 6053TIP3   OH239717   1.722   0.710   2.536  0.8645  0.0850 -0.5061
 6053TIP3    H139718   1.805   0.667   2.515  0.4808 -1.8473  1.5285
 6053TIP3    H239719   1.738   0.753   2.620  0.7466  2.7261 -1.7301
 6054TIP3   OH239720   0.680   0.686   0.789 -0.0922 -0.0518  0.3170
 6054TIP3    H139721   0.695   0.606   0.739  0.7502 -0.2228  0.8274
 6054TIP3    H239722   0.587   0.704   0.778 -0.2123 -0.8957 -0.1042
 6055TIP3   OH239723   6.610   5.301   1.555 -0.5281 -0.2666 -0.4279
 6055TIP3    H139724   6.604   5.308   1.459  0.0398  0.8841 -0.4041
 6055TIP3    H239725   6.522   5.275   1.583 -0.7506 -0.4174 -1.2461
 6056TIP3   OH239726   1.783   1.299   1.191  0.3550  0.2166  0.3519
 6056TIP3    H139727   1.714   1.318   1.255  0.1732  0.9392 -0.0434
 6056TIP3    H239728   1.796   1.382   1.145  1.4308  0.0596  0.3575
 6057TIP3   OH239729   4.114   4.595   7.975 -0.6043 -0.2082 -0.3331
 6057TIP3    H139730   4.141   4.505   7.955  1.9151 -0.0188  1.6766
 6057TIP3    H239731   4.179   4.650   7.930 -0.6809  0.4987  0.3921
 6058TIP3   OH239732   6.013   1.712   1.828  0.1939  0.6598  0.0855
 6058TIP3    H139733   6.037   1.632   1.875  1.4897 -0.9295 -2.9813
 6058TIP3    H239734   6.074   1.778   1.859  2.0505 -0.7466 -0.4037
 6059TIP3   OH239735   5.114   2.006   8.388  0.0308  0.0826 -0.4569
 6059TIP3    H139736   5.189   2.029   8.443  0.6413  0.5608 -1.4614
 6059TIP3    H239737   5.039   2.048   8.430  0.4908  0.4615 -0.0021
 6060TIP3   OH239738   5.409   2.634   2.520  0.1669 -0.7831  0.3166
 6060TIP3    H139739   5.403   2.704   2.585 -3.7737  1.9937 -2.5102
 6060TIP3    H239740   5.317   2.612   2.501  1.2115 -4.2167 -1.5477
 6061TIP3   OH239741   4.587   3.027   1.173 -0.5479 -0.5329  0.0167
 6061TIP3    H139742   4.497   3.049   1.198  0.3488  1.9042  1.4248
 6061TIP3    H239743   4.635   3.026   1.256  0.9634 -0.5892 -0.8358
 6062TIP3   OH239744   6.459   3.536   0.729  0.3042  0.4749 -0.5331
 6062TIP3    H139745   6.497   3.476   0.665 -0.2840  1.1066 -1.4971
 6062TIP3    H239746   6.398   3.482   0.780 -0.0265  0.1918 -1.2218
 6063TIP3   OH239747   0.170   3.156   8.070  0.4828  0.0378 -0.0252
 6063TIP3    H139748   0.118   3.236   8.060  1.1456  0.3444 -1.2381
 6063TIP3    H239749   0.198   3.134   7.981  2.0249 -0.3881  0.5271
 6064TIP3   OH239750   4.972   3.128   0.615 -0.0425  0.5742 -0.6382
 6064TIP3    H139751   5.031   3.106   0.542 -0.0836 -0.7419 -0.3002
 6064TIP3    H239752   4.894   3.076   0.599  0.2708 -0.3790  0.7677
 6065TIP3   OH239753   2.690   4.974   7.938 -0.5630  0.2468  1.1634
 6065TIP3    H139754   2.595   4.981   7.931 -0.8150 -1.2747  2.3770
 6065TIP3    H239755   2.710   4.885   7.908  0.8931  1.4991 -1.9958
 6066TIP3   OH239756   5.429   5.334   1.124 -0.1109 -0.2571 -0.1532
 6066TIP3    H139757   5.522   5.319   1.109  0.5679 -1.5111  4.1631
 6066TIP3    H239758   5.423   5.425   1.152 -0.1144 -0.2825 -0.0707
 6067TIP3   OH239759   4.485   1.211   0.827 -0.0322 -0.3987  0.4245
 6067TIP3    H139760   4.553   1.278   0.819 -0.4190 -0.1306 -0.9337
 6067TIP3    H239761   4.502   1.151   0.754 -0.4606 -1.0651  0.8639
 6068TIP3   OH239762   4.867   4.744   2.025 -0.5420  0.2733  0.0100
 6068TIP3    H139763   4.907   4.659   2.045  0.7165  1.2594  2.0805
 6068TIP3    H239764   4.940   4.806   2.034 -1.4020  1.5807 -1.6053
 6069TIP3   OH239765   4.873   1.880   1.767 -0.7520 -0.3770 -0.3436
 6069TIP3    H139766   4.832   1.813   1.712 -0.0824 -0.9796 -0.1276
 6069TIP3    H239767   4.917   1.830   1.837  1.3377  0.1297 -1.2119
 6070TIP3   OH239768   1.206   4.636   0.676 -0.0525  0.0097 -0.3821
 6070TIP3    H139769   1.251   4.584   0.609  0.6313 -0.0148  0.0896
 6070TIP3    H239770   1.217   4.587   0.757 -1.9984 -0.6203 -0.4431
 6071TIP3   OH239771   0.525   2.534   2.929 -0.1865  0.0852  0.0477
 6071TIP3    H139772   0.494   2.541   2.839  0.5055  0.7051 -0.1528
 6071TIP3    H239773   0.446   2.514   2.980 -0.9802  1.8393 -0.4175
 6072TIP3   OH239774   4.459   4.137   2.405 -0.1695  0.3935 -0.7032
 6072TIP3    H139775   4.491   4.149   2.494  0.0747  1.0372 -0.8780
 6072TIP3    H239776   4.389   4.202   2.395  0.3686  0.8954 -1.2600
 6073TIP3   OH239777   4.735   1.824   0.331 -0.0110  0.5839  0.1999
 6073TIP3    H139778   4.665   1.831   0.396 -0.6461 -0.1147 -0.3865
 6073TIP3    H239779   4.690   1.816   0.247  0.7184 -1.0233 -0.0839
 6074TIP3   OH239780   4.176   6.571   8.099  0.3791  0.4056  0.2650
 6074TIP3    H139781   4.095   6.620   8.115  0.2942 -0.3305  2.2983
 6074TIP3    H239782   4.159   6.522   8.018  0.2568  3.1818 -1.5383
 6075TIP3   OH239783   2.964   3.897   1.182  0.1257  1.0394 -0.4430
 6075TIP3    H139784   3.001   3.851   1.258  2.0086  2.2032 -0.6002
 6075TIP3    H239785   2.929   3.978   1.218 -1.9739  0.1588 -0.3722
 6076TIP3   OH239786   2.672   0.264   0.096  0.1894  0.1942  0.1073
 6076TIP3    H139787   2.740   0.298   0.038  1.4079  0.2452  1.5018
 6076TIP3    H239788   2.594   0.313   0.072  0.7988  0.6591 -1.0470
 6077TIP3   OH239789   0.168   2.378   8.921 -0.3991 -0.7214  0.0934
 6077TIP3    H139790   0.134   2.415   9.002 -0.2656 -1.8890  0.7097
 6077TIP3    H239791   0.246   2.429   8.901 -1.7596  1.1782 -0.6653
 6078TIP3   OH239792   5.564   3.827   8.844  0.0539  0.0916 -0.5866
 6078TIP3    H139793   5.592   3.837   8.935  0.3666  1.4024 -0.8098
 6078TIP3    H239794   5.644   3.806   8.797  0.0704  0.4278 -0.7098
 6079TIP3   OH239795   0.062   6.041   2.953 -0.4211  0.0026  0.1107
 6079TIP3    H139796  -0.002   6.061   2.884 -0.3686 -1.0046 -0.2377
 6079TIP3    H239797   0.060   6.118   3.009 -2.0835 -0.0822  0.2227
 6080TIP3   OH239798   0.014   0.663   8.615  0.3513  0.6684  0.0745
 6080TIP3    H139799  -0.057   0.724   8.591 -1.1721 -1.1077 -0.1520
 6080TIP3    H239800   0.051   0.637   8.531  0.2593  0.4400  0.1051
 6081TIP3   OH239801   1.466   1.424   2.741 -0.1283  0.9146 -0.3052
 6081TIP3    H139802   1.435   1.364   2.809  0.3870  1.2740  0.2543
 6081TIP3    H239803   1.555   1.395   2.723 -0.6646  0.0598 -1.7113
 6082TIP3   OH239804   4.007   4.343   3.385  0.2798  0.6013 -0.0323
 6082TIP3    H139805   3.999   4.270   3.447  1.5582 -0.1628 -0.7213
 6082TIP3    H239806   3.998   4.302   3.299  0.0913  1.4172 -0.4083
 6083TIP3   OH239807   6.493   2.691   0.515  0.0071  0.2169 -0.1043
 6083TIP3    H139808   6.398   2.697   0.512 -0.1593 -1.6598 -0.0192
 6083TIP3    H239809   6.519   2.746   0.589 -1.1638 -0.4770  0.8506
 6084TIP3   OH239810   4.430   3.044   2.761 -0.4239 -0.3680 -0.4087
 6084TIP3    H139811   4.424   2.954   2.791 -3.6885 -0.1710 -0.1840
 6084TIP3    H239812   4.469   3.038   2.674  1.0311 -1.7562  0.2829
 6085TIP3   OH239813   2.167   2.863   2.391  0.4576  0.0585  0.6029
 6085TIP3    H139814   2.165   2.776   2.350  1.1552  0.6906 -0.8544
 6085TIP3    H239815   2.101   2.913   2.344 -0.6078  0.0868  2.0684
 6086TIP3   OH239816   1.834   2.932   7.957 -0.2433  0.1305  0.3651
 6086TIP3    H139817   1.891   3.007   7.974  0.7085 -0.4997  0.0023
 6086TIP3    H239818   1.894   2.860   7.937 -1.1891 -0.3478 -0.8278
 6087TIP3   OH239819   5.203   1.660   1.051  0.1871  0.3713 -0.3261
 6087TIP3    H139820   5.209   1.582   1.106  0.0882  0.4695 -0.1740
 6087TIP3    H239821   5.131   1.711   1.089  0.3180  0.5846 -0.3597
 6088TIP3   OH239822   6.676   0.652   1.043 -0.2807 -0.1959  0.0607
 6088TIP3    H139823   6.733   0.708   0.991  1.1764 -1.4097  0.2902
 6088TIP3    H239824   6.592   0.654   0.997  0.3117  0.5728 -1.0394
 6089TIP3   OH239825   3.447   5.358   1.468  1.0287 -0.8922 -0.2146
 6089TIP3    H139826   3.529   5.319   1.499  0.2767 -1.2619  1.4103
 6089TIP3    H239827   3.472   5.445   1.436  1.8586 -0.3797  1.6694
 6090TIP3   OH239828   0.581   0.599   1.922 -0.2361  0.1226  0.4345
 6090TIP3    H139829   0.532   0.600   2.005 -0.0790  1.3166  0.5250
 6090TIP3    H239830   0.514   0.582   1.855 -0.6851  1.0321  0.6304
 6091TIP3   OH239831   4.610   5.252   2.092  0.6000 -0.3409  0.4002
 6091TIP3    H139832   4.574   5.185   2.034  0.4376  1.3658 -1.5916
 6091TIP3    H239833   4.696   5.219   2.117  0.1871 -1.6526  0.1892
 6092TIP3   OH239834   5.128   0.945   3.225  0.1244  0.3034  0.0263
 6092TIP3    H139835   5.050   0.999   3.238 -1.0423 -1.4196  0.5576
 6092TIP3    H239836   5.191   0.978   3.289 -0.4340  1.2490  0.1008
 6093TIP3   OH239837   2.624   1.234   0.128  0.6753 -0.5341 -0.4289
 6093TIP3    H139838   2.711   1.268   0.151 -0.0313  1.5738 -0.6338
 6093TIP3    H239839   2.627   1.223   0.033  1.4024 -2.6578 -0.2032
 6094TIP3   OH239840   0.853   3.089   7.306 -0.3724  0.1277  0.6281
 6094TIP3    H139841   0.923   3.093   7.371  0.5841  0.3688 -0.3835
 6094TIP3    H239842   0.821   2.999   7.310  3.2388 -1.5172 -2.1033
 6095TIP3   OH239843   6.242   4.321   2.523 -0.8440  0.4145  0.1267
 6095TIP3    H139844   6.230   4.394   2.583 -0.0588  0.5256  0.1630
 6095TIP3    H239845   6.298   4.355   2.454 -2.3713  0.5165 -1.1122
 6096TIP3   OH239846   4.716   6.107   1.100  0.2939 -0.1222 -0.1040
 6096TIP3    H139847   4.738   6.153   1.181  1.0559 -1.3981  0.4426
 6096TIP3    H239848   4.651   6.042   1.126  0.5317 -0.5324 -0.5190
 6097TIP3   OH239849   1.939   1.251   0.289 -0.3394  0.3629 -0.3270
 6097TIP3    H139850   2.000   1.239   0.362 -0.7704  0.2043  0.0135
 6097TIP3    H239851   1.974   1.325   0.239 -0.2785  0.7518  0.2867
 6098TIP3   OH239852   2.094   0.269   7.431  0.6689  0.4136  0.0965
 6098TIP3    H139853   2.048   0.347   7.464  1.5076  0.9041  0.1283
 6098TIP3    H239854   2.080   0.202   7.498  2.6410  1.4895  1.6829
 6099TIP3   OH239855   6.349   3.791   0.798  0.1738  0.8420 -0.1360
 6099TIP3    H139856   6.413   3.838   0.851  1.6902 -1.3837  0.1498
 6099TIP3    H239857   6.397   3.715   0.764 -2.0959 -0.4943 -0.5890
 6100TIP3   OH239858   6.012   4.223   8.967  0.0236  0.7419 -0.3495
 6100TIP3    H139859   6.054   4.207   9.051  0.3423 -2.1241 -0.9671
 6100TIP3    H239860   5.926   4.181   8.975 -0.0891  0.7581 -1.3447
 6101TIP3   OH239861   1.489   5.760   2.033 -0.8789 -0.5250 -0.7383
 6101TIP3    H139862   1.470   5.734   1.942  0.1875  2.1036 -1.7979
 6101TIP3    H239863   1.567   5.710   2.056 -1.1728 -1.2402 -1.2409
 6102TIP3   OH239864   1.843   4.112   1.816  0.4506  0.6907 -0.0459
 6102TIP3    H139865   1.815   4.169   1.888  0.9349  1.2142 -0.2541
 6102TIP3    H239866   1.916   4.062   1.853  1.3859  1.6970 -0.4410
 6103TIP3   OH239867   3.989   5.240   1.597 -0.2455  0.8079 -0.5850
 6103TIP3    H139868   3.969   5.193   1.516 -0.4643  0.8094 -0.5321
 6103TIP3    H239869   3.903   5.258   1.636 -0.2165  1.9858 -1.0169
 6104TIP3   OH239870   0.499   4.801   8.803 -0.1693 -0.0131 -0.3421
 6104TIP3    H139871   0.420   4.827   8.850 -1.2816 -2.9880 -0.3869
 6104TIP3    H239872   0.469   4.779   8.715  0.8444 -0.4554 -0.5904
 6105TIP3   OH239873   3.596   5.031   8.890  0.3540  0.2089 -0.0877
 6105TIP3    H139874   3.570   4.939   8.895  1.9637 -0.2152  1.8386
 6105TIP3    H239875   3.663   5.033   8.822 -0.2966  0.1498 -0.7456
 6106TIP3   OH239876   6.402   1.239   0.545 -0.0899  0.1808  0.1006
 6106TIP3    H139877   6.448   1.306   0.494  0.2157 -0.7493 -0.8939
 6106TIP3    H239878   6.461   1.163   0.543 -1.2769 -0.7571 -0.4731
 6107TIP3   OH239879   4.620   3.748   8.527  0.4455  0.0816  0.3939
 6107TIP3    H139880   4.660   3.665   8.505  1.1179  0.6132 -0.4050
 6107TIP3    H239881   4.611   3.745   8.623  1.8421 -0.2846  0.5273
 6108TIP3   OH239882   3.226   5.572   0.809 -0.3249  0.2069  0.2684
 6108TIP3    H139883   3.186   5.601   0.727  0.6094  1.7274  0.2993
 6108TIP3    H239884   3.257   5.653   0.850 -0.3422 -0.5780  1.8941
 6109TIP3   OH239885   5.015   4.748   7.847 -0.0004 -0.4209 -0.1474
 6109TIP3    H139886   5.020   4.656   7.875 -0.9949 -0.9419 -1.6054
 6109TIP3    H239887   5.004   4.744   7.752 -0.2353  1.2105 -0.2115
 6110TIP3   OH239888   5.930   4.675   2.534  0.3624  0.9318 -0.5362
 6110TIP3    H139889   5.938   4.677   2.629  1.7325  2.0895 -0.6458
 6110TIP3    H239890   5.860   4.737   2.514 -1.3586 -0.8143 -0.2075
 6111TIP3   OH239891   5.385   0.079   0.176  0.2764  0.3579 -0.2226
 6111TIP3    H139892   5.407   0.031   0.096  0.2625  1.6766 -1.0593
 6111TIP3    H239893   5.470   0.106   0.211  0.2927 -0.3880  0.3333
 6112TIP3   OH239894   4.485   4.633   1.324  0.1090 -0.3871  0.0309
 6112TIP3    H139895   4.462   4.546   1.292  0.0270  0.1825 -1.5553
 6112TIP3    H239896   4.404   4.667   1.363  0.2855 -1.2046  1.1500
 6113TIP3   OH239897   2.560   1.256   2.727  0.3415  0.2641  0.1338
 6113TIP3    H139898   2.554   1.341   2.772  0.5868  1.6047 -2.1715
 6113TIP3    H239899   2.471   1.236   2.701  0.5748  1.2382 -1.6215
 6114TIP3   OH239900   5.465   6.228   1.032  0.2915 -0.2334  0.1976
 6114TIP3    H139901   5.389   6.229   1.090 -0.3680  0.7847 -0.6612
 6114TIP3    H239902   5.455   6.148   0.981  0.8282 -1.0928  1.3755
 6115TIP3   OH239903   3.252   2.515   0.925  0.1417  0.0180  0.5062
 6115TIP3    H139904   3.226   2.574   0.995  1.4718 -0.2475  1.2629
 6115TIP3    H239905   3.195   2.438   0.935  0.3749 -0.0546  1.3695
 6116TIP3   OH239906   2.156   2.825   1.921 -0.0838  0.0302  0.5158
 6116TIP3    H139907   2.210   2.885   1.973 -2.0900  0.5418  2.1402
 6116TIP3    H239908   2.106   2.775   1.986  1.4906 -3.5280 -0.7483
 6117TIP3   OH239909   2.144   1.833   8.394 -0.5689  0.1539 -0.8995
 6117TIP3    H139910   2.155   1.740   8.415  0.3452  0.2054 -1.1062
 6117TIP3    H239911   2.177   1.879   8.471 -0.7705  0.3057 -0.9044
 6118TIP3   OH239912   4.434   3.686   0.094 -0.2749 -0.2385  0.0422
 6118TIP3    H139913   4.386   3.717   0.171  0.2786  0.6391  0.0484
 6118TIP3    H239914   4.439   3.763   0.037  0.8150 -0.4094 -0.1067
 6119TIP3   OH239915   2.234   5.425   0.064  0.2184  0.1853 -0.3143
 6119TIP3    H139916   2.216   5.333   0.046 -1.1923  0.0520  1.5084
 6119TIP3    H239917   2.272   5.425   0.152  0.0320  1.3658 -0.2205
 6120TIP3   OH239918   3.133   6.562   8.622  0.2506 -0.1875  0.4249
 6120TIP3    H139919   3.045   6.571   8.659 -0.0052  0.7545 -0.4002
 6120TIP3    H239920   3.121   6.507   8.544  0.1522  1.0656 -0.4729
 6121TIP3   OH239921   0.001   2.602   1.153 -0.0592 -0.3664  0.3744
 6121TIP3    H139922  -0.050   2.612   1.073 -0.5960 -1.5368  0.5500
 6121TIP3    H239923   0.009   2.507   1.165  0.7237 -0.2061  1.2621
 6122TIP3   OH239924   5.859   1.830   8.009  0.3783  0.0701  0.0127
 6122TIP3    H139925   5.916   1.899   7.976  2.1991 -1.6777 -0.6612
 6122TIP3    H239926   5.907   1.792   8.083  0.1007 -1.4164 -0.5424
 6123TIP3   OH239927   2.575   4.446   0.836 -0.6479 -0.6135  0.0633
 6123TIP3    H139928   2.625   4.365   0.843  0.8022  0.0354 -1.9396
 6123TIP3    H239929   2.640   4.513   0.816 -2.1301  0.5663 -1.0699
 6124TIP3   OH239930   1.233   4.232   8.928 -0.7880 -0.3118 -0.1416
 6124TIP3    H139931   1.294   4.171   8.969 -0.1393  0.3592 -0.0821
 6124TIP3    H239932   1.151   4.183   8.921 -0.2408 -1.2477 -0.2586
 6125TIP3   OH239933   2.797   4.628   8.159  0.3011 -0.0815  0.5239
 6125TIP3    H139934   2.805   4.634   8.254 -0.6557 -0.1556  0.6194
 6125TIP3    H239935   2.882   4.655   8.126  1.7006 -2.8781  1.4849
 6126TIP3   OH239936   5.813   6.431   2.097  0.5379 -0.0344 -0.3503
 6126TIP3    H139937   5.771   6.413   2.013 -0.3747 -0.3649  0.1624
 6126TIP3    H239938   5.816   6.347   2.142 -0.4051  0.4033  0.5712
 6127TIP3   OH239939   4.165   3.775   0.111 -0.0669  0.1082 -0.2296
 6127TIP3    H139940   4.138   3.759   0.202 -0.2254 -0.5528 -0.3834
 6127TIP3    H239941   4.165   3.870   0.102  0.7294  0.2091  0.6917
 6128TIP3   OH239942   6.521   0.720   8.903  0.1236  0.1786  0.1862
 6128TIP3    H139943   6.558   0.661   8.968  0.6252  1.7250  1.3973
 6128TIP3    H239944   6.470   0.664   8.845 -0.6722 -1.2577  2.1511
 6129TIP3   OH239945   5.519   4.289   1.890 -0.3590  0.0151  0.8139
 6129TIP3    H139946   5.486   4.228   1.956  2.2390 -0.3747  1.8831
 6129TIP3    H239947   5.560   4.360   1.941 -0.6206  1.0822 -0.4019
 6130TIP3   OH239948   6.587   1.890   2.563  0.4992 -0.4784  0.3371
 6130TIP3    H139949   6.518   1.878   2.498  2.6831  0.2513 -2.3040
 6130TIP3    H239950   6.573   1.978   2.598  0.0511 -0.3673 -0.1154
 6131TIP3   OH239951   6.101   6.394   2.515 -0.1213  0.3314  0.6476
 6131TIP3    H139952   6.172   6.381   2.452 -1.7722  1.9662 -1.7175
 6131TIP3    H239953   6.063   6.307   2.526  0.0036  0.0413 -0.9328
 6132TIP3   OH239954   4.547   2.814   1.508  0.1072 -0.2904 -0.3484
 6132TIP3    H139955   4.479   2.813   1.441  0.7126  1.4667 -1.0419
 6132TIP3    H239956   4.613   2.752   1.477  0.4815  0.6651 -1.5074
 6133TIP3   OH239957   0.806   3.136   1.654 -0.6726  0.2906 -0.3342
 6133TIP3    H139958   0.736   3.080   1.619  1.0424 -1.8790 -0.5107
 6133TIP3    H239959   0.768   3.175   1.733 -1.6176 -2.1420  0.5076
 6134TIP3   OH239960   0.777   2.822   1.982 -0.1757  0.3795  0.4373
 6134TIP3    H139961   0.842   2.841   2.050 -0.3210  0.1427  0.6403
 6134TIP3    H239962   0.824   2.767   1.919 -0.7461 -1.5459  1.6128
 6135TIP3   OH239963   2.716   4.440   1.785 -0.0465  0.1661 -0.4808
 6135TIP3    H139964   2.658   4.469   1.856 -0.7761  1.4984 -1.5758
 6135TIP3    H239965   2.732   4.347   1.804 -2.2541 -0.1712  0.0770
 6136TIP3   OH239966   2.272   1.046   8.696  0.5948  0.4143  0.3570
 6136TIP3    H139967   2.299   0.989   8.625 -0.1111  0.3181  0.1548
 6136TIP3    H239968   2.316   1.129   8.679 -0.6833  0.8650 -1.0301
 6137TIP3   OH239969   3.609   3.926   8.429  0.3513  0.3266  0.1104
 6137TIP3    H139970   3.665   3.964   8.496 -0.1824 -0.9504  1.3214
 6137TIP3    H239971   3.524   3.913   8.471 -0.7851  1.8009 -1.5589
 6138TIP3   OH239972   4.253   4.812   3.659  0.4248  0.4877 -0.1367
 6138TIP3    H139973   4.287   4.838   3.573  1.6539 -1.3031 -0.2635
 6138TIP3    H239974   4.268   4.718   3.662 -0.9665  0.2854  1.4737
 6139TIP3   OH239975   6.404   6.666   2.293 -0.2961  0.2698  0.6102
 6139TIP3    H139976   6.425   6.700   2.206 -0.2458 -1.3241 -0.0194
 6139TIP3    H239977   6.478   6.692   2.348  0.5487 -0.2741 -0.2512
 6140TIP3   OH239978   4.562   0.779   2.397 -0.0115 -0.5386 -0.5271
 6140TIP3    H139979   4.548   0.829   2.316  2.3938 -1.4700 -1.6285
 6140TIP3    H239980   4.608   0.840   2.455 -0.9288 -0.1562 -0.1852
 6141TIP3   OH239981   4.826   5.350   1.128  0.5607  1.0121  0.5685
 6141TIP3    H139982   4.832   5.405   1.049 -0.9316 -0.7474 -0.8542
 6141TIP3    H239983   4.809   5.412   1.198 -2.0597  2.4083 -1.1140
 6142TIP3   OH239984   2.490   1.273   3.062 -0.2025  0.2491 -0.4616
 6142TIP3    H139985   2.426   1.325   3.110  1.9385  0.7794  2.0468
 6142TIP3    H239986   2.575   1.309   3.088  1.2445 -2.1197 -1.5170
 6143TIP3   OH239987   1.414   6.572   1.540  0.4901  0.3333 -0.1042
 6143TIP3    H139988   1.448   6.650   1.495  0.6810  0.6591  0.5867
 6143TIP3    H239989   1.422   6.502   1.475 -0.1204  0.9756 -0.9020
 6144TIP3   OH239990   6.409   0.857   7.645 -0.3256 -0.1145  0.0303
 6144TIP3    H139991   6.475   0.903   7.697  0.5151 -0.4064 -0.7426
 6144TIP3    H239992   6.447   0.852   7.557 -0.8944 -1.2670 -0.1769
 6145TIP3   OH239993   3.427   2.963   2.372  0.2914 -0.1716  0.0837
 6145TIP3    H139994   3.500   2.994   2.319 -1.7513  0.1782 -2.7374
 6145TIP3    H239995   3.418   3.028   2.441 -0.2436  2.4811 -2.3031
 6146TIP3   OH239996   0.533   4.148   1.777 -0.1761  1.0328  0.5491
 6146TIP3    H139997   0.527   4.116   1.867  1.7599  0.8456  0.6445
 6146TIP3    H239998   0.442   4.164   1.752 -0.9208 -0.7467  1.8588
 6147TIP3   OH239999   2.295   4.939   8.775  0.3842  0.7106  0.3457
 6147TIP3    H140000   2.295   4.847   8.749  0.5101  0.7210  0.3093
 6147TIP3    H240001   2.202   4.959   8.791  0.1804  0.9753 -1.0306
 6148TIP3   OH240002   3.278   3.988   1.757 -0.3493  0.8732  0.3641
 6148TIP3    H140003   3.184   3.974   1.748  0.0350 -1.0213 -1.5105
 6148TIP3    H240004   3.309   3.914   1.809  0.1445  1.4147  0.8652
 6149TIP3   OH240005   4.484   4.701   1.042  0.1582  0.1420 -0.3528
 6149TIP3    H140006   4.473   4.703   1.137  1.2555 -2.2794 -0.1120
 6149TIP3    H240007   4.577   4.721   1.028  0.9979 -3.3180 -0.5399
 6150TIP3   OH240008   6.443   2.469   2.711  0.2816 -0.2424  0.2944
 6150TIP3    H140009   6.417   2.421   2.790 -0.6926  1.7070  1.2146
 6150TIP3    H240010   6.383   2.437   2.643  0.5134 -1.2504  0.5412
 6151TIP3   OH240011   1.286   4.918   1.066  0.2158  0.1235  0.5342
 6151TIP3    H140012   1.337   4.841   1.089  0.8966 -0.7191 -3.2208
 6151TIP3    H240013   1.197   4.898   1.096  0.2210 -2.5281 -0.9369
 6152TIP3   OH240014   1.429   3.770   8.429  0.3351  0.0868 -0.3240
 6152TIP3    H140015   1.368   3.746   8.499  1.7494 -1.3815  0.4391
 6152TIP3    H240016   1.514   3.775   8.471  0.9552  1.0047 -1.6114
 6153TIP3   OH240017   5.380   4.382   8.501 -0.1817 -0.8470 -0.0999
 6153TIP3    H140018   5.442   4.453   8.519 -1.9008  0.6444  0.2191
 6153TIP3    H240019   5.408   4.347   8.416  1.7931 -1.0482  0.5741
 6154TIP3   OH240020   1.551   0.965   2.379 -0.4264 -0.1859 -0.0405
 6154TIP3    H140021   1.473   0.938   2.427  1.0605 -2.2840  1.3542
 6154TIP3    H240022   1.600   1.018   2.442 -0.3553  0.5326 -0.6804
 6155TIP3   OH240023   1.774   0.548   2.106 -0.0130 -0.1221  0.6648
 6155TIP3    H140024   1.814   0.632   2.128  0.7287 -0.4769  0.6951
 6155TIP3    H240025   1.843   0.484   2.119 -0.2357 -0.6140 -0.4682
 6156TIP3   OH240026   2.541   3.351   2.188 -0.0721 -0.3047 -0.1583
 6156TIP3    H140027   2.493   3.309   2.117  0.3540  0.0886 -0.6854
 6156TIP3    H240028   2.473   3.381   2.249 -0.5109  0.3715 -0.9636
 6157TIP3   OH240029   3.969   1.852   1.115  0.3845  0.3015 -0.4214
 6157TIP3    H140030   4.013   1.823   1.035 -3.1144 -1.8875 -1.7927
 6157TIP3    H240031   3.919   1.928   1.088  0.9791  0.9923  0.3642
 6158TIP3   OH240032   4.058   0.545   2.475  0.5796  0.1642 -0.5170
 6158TIP3    H140033   4.023   0.502   2.397 -0.4252 -0.6446  0.3537
 6158TIP3    H240034   4.134   0.594   2.443  1.0541 -1.3001 -1.7424
 6159TIP3   OH240035   5.078   0.156   7.536 -0.1120  0.1207  0.6736
 6159TIP3    H140036   5.157   0.199   7.568 -1.1071  1.0960  1.9582
 6159TIP3    H240037   5.088   0.065   7.565  0.2650  0.3788  1.3954
 6160TIP3   OH240038   0.369   5.315   8.222 -0.3172 -0.7228 -0.1005
 6160TIP3    H140039   0.366   5.298   8.127  0.7137 -0.8845 -0.1094
 6160TIP3    H240040   0.356   5.409   8.230 -2.2608 -0.9379 -0.2801
 6161TIP3   OH240041   2.098   2.464   8.056  0.0069 -0.0962 -0.3180
 6161TIP3    H140042   2.052   2.543   8.084  0.6114  0.4005 -0.6856
 6161TIP3    H240043   2.050   2.392   8.097  1.1261  0.5917  2.3750
 6162TIP3   OH240044   1.300   2.221   2.451 -0.2304 -0.0491 -0.7442
 6162TIP3    H140045   1.381   2.177   2.427 -0.8471 -1.3183 -0.5720
 6162TIP3    H240046   1.272   2.265   2.371 -1.1439 -2.4426 -1.8290
 6163TIP3   OH240047   4.601   4.568   1.685  0.5291  0.6245 -0.2407
 6163TIP3    H140048   4.515   4.575   1.727  0.0295  1.2887 -1.3315
 6163TIP3    H240049   4.626   4.476   1.697  0.8259  0.9486  2.2460
 6164TIP3   OH240050   3.408   1.221   0.800  0.1081 -0.0923 -0.2498
 6164TIP3    H140051   3.448   1.136   0.818 -0.1852 -0.7091 -2.2379
 6164TIP3    H240052   3.314   1.206   0.813  0.0166 -0.2048 -0.9953
 6165TIP3   OH240053   2.769   4.249   2.268 -0.0588 -0.0276 -0.4601
 6165TIP3    H140054   2.825   4.327   2.271 -1.7199  1.3182 -2.1187
 6165TIP3    H240055   2.680   4.283   2.279 -0.9186 -1.5513 -2.2291
 6166TIP3   OH240056   5.910   1.257   8.158 -0.2362  0.1089 -0.1137
 6166TIP3    H140057   5.868   1.175   8.133  0.3256 -0.4723  0.7940
 6166TIP3    H240058   5.989   1.261   8.103 -1.0022  0.7860 -1.2084
 6167TIP3   OH240059   5.217   5.737   2.893  0.3279  0.4669 -0.1971
 6167TIP3    H140060   5.216   5.832   2.908  0.6807  0.3327  0.8093
 6167TIP3    H240061   5.237   5.727   2.801  0.2244  1.3766 -0.3281
 6168TIP3   OH240062   6.593   3.088   1.938 -0.4552 -0.6144 -0.1376
 6168TIP3    H140063   6.540   3.065   1.862 -1.3047  0.2745  0.1607
 6168TIP3    H240064   6.581   3.182   1.948  0.4037 -0.5659  0.5355
 6169TIP3   OH240065   1.789   0.610   7.776 -0.2671 -0.2934  0.4009
 6169TIP3    H140066   1.703   0.612   7.734 -0.7291  1.6305  1.3008
 6169TIP3    H240067   1.851   0.617   7.704 -0.9729  0.9567 -0.1175
 6170TIP3   OH240068   5.642   6.525   1.223  0.3971  0.0259 -0.4506
 6170TIP3    H140069   5.599   6.606   1.198 -0.0862  0.5566  1.8734
 6170TIP3    H240070   5.586   6.487   1.291  0.9206 -1.9607 -1.0441
 6171TIP3   OH240071   6.553   6.102   7.403  0.4408  0.2238 -0.4174
 6171TIP3    H140072   6.572   6.008   7.405  0.0677 -0.0283 -3.7921
 6171TIP3    H240073   6.478   6.112   7.462  0.8568 -1.4642  0.4654
 6172TIP3   OH240074   6.001   2.455   8.170  0.1006  0.6225  0.1470
 6172TIP3    H140075   6.077   2.489   8.121  0.7164  0.1198  0.7330
 6172TIP3    H240076   5.925   2.494   8.126  0.6769  0.8240 -0.6997
 6173TIP3   OH240077   5.728   1.399   8.337  0.2738  0.0833  0.1965
 6173TIP3    H140078   5.767   1.346   8.408 -1.5557 -1.2337  0.2925
 6173TIP3    H240079   5.787   1.386   8.263  0.1337 -1.8015  0.3489
 6174TIP3   OH240080   0.694   4.806   2.581  0.3504  0.5593  0.0779
 6174TIP3    H140081   0.760   4.833   2.645  1.2425  0.4723 -0.7726
 6174TIP3    H240082   0.616   4.854   2.606  1.4918  2.8903 -0.5120
 6175TIP3   OH240083   4.351   3.476   0.709  0.9432 -0.3940 -0.0561
 6175TIP3    H140084   4.258   3.467   0.728  1.1525 -0.5780  0.9778
 6175TIP3    H240085   4.355   3.540   0.638  0.0969  1.1183  1.1702
 6176TIP3   OH240086   5.918   2.965   0.725  0.5326 -0.3146 -0.2274
 6176TIP3    H140087   5.878   3.045   0.759 -1.3331 -2.0527  2.0478
 6176TIP3    H240088   5.973   2.934   0.796 -0.1096 -1.8851 -0.3703
 6177TIP3   OH240089   0.973   4.506   1.645 -0.2221 -0.5846  0.0551
 6177TIP3    H140090   0.904   4.453   1.605  1.8349 -2.3780 -1.2946
 6177TIP3    H240091   0.931   4.591   1.661 -2.1318 -0.8251 -2.8574
 6178TIP3   OH240092   0.767   4.641   8.819 -0.1756 -0.2320  0.1501
 6178TIP3    H140093   0.700   4.707   8.799 -1.7013 -1.1289  1.9829
 6178TIP3    H240094   0.848   4.691   8.829 -0.9653  1.1498 -0.1491
 6179TIP3   OH240095   5.687   2.909   2.234  0.4419 -0.4358  0.1222
 6179TIP3    H140096   5.676   2.822   2.196 -1.9728  0.2660 -1.0026
 6179TIP3    H240097   5.720   2.964   2.163 -0.6099  0.1031  0.0225
 6180TIP3   OH240098   2.679   5.646   2.224  0.2241 -0.0951 -0.4222
 6180TIP3    H140099   2.615   5.575   2.232  0.9439 -0.8123 -0.8280
 6180TIP3    H240100   2.762   5.607   2.253  0.0921  1.5264  2.5516
 6181TIP3   OH240101   4.796   2.669   8.444 -0.1717 -0.1616  0.6648
 6181TIP3    H140102   4.745   2.693   8.367  1.8310  0.9211 -0.4367
 6181TIP3    H240103   4.827   2.753   8.479  0.7519 -0.7554  1.3110
 6182TIP3   OH240104   6.448   2.790   1.932 -0.8119 -0.3757  0.7138
 6182TIP3    H140105   6.491   2.800   2.017  1.8512  0.2462 -0.5930
 6182TIP3    H240106   6.477   2.704   1.900 -0.2890  0.1730 -0.3320
 6183TIP3   OH240107   5.467   5.389   2.441  0.1349  0.0997 -0.1973
 6183TIP3    H140108   5.512   5.445   2.504  2.1075 -1.7995  0.2146
 6183TIP3    H240109   5.506   5.411   2.356  1.1251 -0.7947  0.0061
 6184TIP3   OH240110   6.315   5.441   0.053  0.5510  0.4920  0.0185
 6184TIP3    H140111   6.307   5.511   0.118 -0.6431  1.0008 -0.6416
 6184TIP3    H240112   6.233   5.445   0.004  1.3242 -0.0479 -1.3658
 6185TIP3   OH240113   0.566   2.010   1.992 -0.0449  0.0257 -0.0948
 6185TIP3    H140114   0.559   1.969   2.078  0.6731 -1.4370 -0.7104
 6185TIP3    H240115   0.478   2.000   1.954  0.3728 -1.8765 -0.6258
 6186TIP3   OH240116   0.206   4.847   8.869 -0.6573  0.6057 -0.2346
 6186TIP3    H140117   0.169   4.903   8.801 -0.8843  0.4720 -0.2242
 6186TIP3    H240118   0.155   4.869   8.947 -1.2337 -0.1271 -0.3967
 6187TIP3   OH240119   0.939   0.098   1.061 -1.1548  0.2467 -0.5231
 6187TIP3    H140120   0.907   0.172   1.112 -2.1249  0.0003 -0.7426
 6187TIP3    H240121   0.886   0.024   1.093 -0.0947 -0.3866 -0.1891
 6188TIP3   OH240122   4.737   2.934   8.125 -0.0402 -0.0913 -0.1118
 6188TIP3    H140123   4.698   3.005   8.074  0.4315  0.3515  0.1380
 6188TIP3    H240124   4.691   2.937   8.209  0.1379  0.0613 -0.0203
 6189TIP3   OH240125   5.185   4.758   8.622 -0.2165  0.2219 -0.2042
 6189TIP3    H140126   5.176   4.799   8.536 -3.2270 -0.1647 -0.1901
 6189TIP3    H240127   5.142   4.673   8.613 -1.4933  0.5723  1.9018
 6190TIP3   OH240128   4.934   5.691   8.437  0.3824 -0.1007 -0.8297
 6190TIP3    H140129   4.950   5.783   8.455 -1.6859 -0.0738  1.3792
 6190TIP3    H240130   4.974   5.644   8.510  0.1158 -0.8228 -1.1319
 6191TIP3   OH240131   1.456   6.489   8.472  0.2467 -0.1078  0.4655
 6191TIP3    H140132   1.439   6.449   8.557 -0.0631 -1.7507 -0.3165
 6191TIP3    H240133   1.520   6.558   8.490  0.2651 -0.4937  2.0076
 6192TIP3   OH240134   4.018   0.445   0.813 -0.2259 -0.3003  0.1413
 6192TIP3    H140135   3.946   0.423   0.754 -1.4424 -1.8188  2.0753
 6192TIP3    H240136   4.078   0.497   0.759 -0.5574 -2.6910 -2.8165
 6193TIP3   OH240137   6.673   2.876   8.010  0.1915  0.0896  0.5510
 6193TIP3    H140138   6.655   2.956   8.059  0.7749 -0.2511  1.3491
 6193TIP3    H240139   6.610   2.812   8.044  0.2242  0.0036  0.4518
 6194TIP3   OH240140   1.215   0.363   0.752 -0.4593  0.1703 -0.8531
 6194TIP3    H140141   1.192   0.335   0.663 -0.0682  1.5819 -1.4400
 6194TIP3    H240142   1.311   0.359   0.755 -0.3421  1.7836 -1.1366
 6195TIP3   OH240143   0.524   5.970   0.300 -0.7186 -0.2187 -0.2895
 6195TIP3    H140144   0.489   5.931   0.220 -1.7325  0.1789 -0.0570
 6195TIP3    H240145   0.580   6.041   0.269  0.8281 -1.5552 -0.7004
 6196TIP3   OH240146   2.905   5.839   0.911 -0.2272  0.0296  0.0547
 6196TIP3    H140147   2.901   5.747   0.937 -2.2046  0.4652  1.5839
 6196TIP3    H240148   2.861   5.886   0.982  2.6321  2.4465  0.4213
 6197TIP3   OH240149   3.994   2.705   2.390 -0.2173  0.6533  0.0452
 6197TIP3    H140150   3.942   2.777   2.353 -1.5119 -1.1172 -1.7571
 6197TIP3    H240151   4.070   2.698   2.332 -0.5538  0.0047 -0.3216
 6198TIP3   OH240152   2.993   0.594   1.348  0.0952  0.0772  0.2106
 6198TIP3    H140153   2.902   0.623   1.336  0.6361  1.5037 -0.7859
 6198TIP3    H240154   3.032   0.662   1.402  0.7334 -0.2089  0.1112
 6199TIP3   OH240155   3.494   1.619   2.130  0.0837 -0.0164  0.2609
 6199TIP3    H140156   3.490   1.677   2.206  1.2718  1.6913 -0.9062
 6199TIP3    H240157   3.543   1.669   2.064 -0.1076 -1.7953 -1.3152
 6200TIP3   OH240158   6.546   2.918   7.495  0.0928  0.0486  0.4335
 6200TIP3    H140159   6.464   2.876   7.467 -0.5875  0.6176  1.5411
 6200TIP3    H240160   6.599   2.845   7.527  0.0841 -0.3412 -0.4011
 6201TIP3   OH240161   2.581   3.593   0.528 -0.3231 -0.0548 -0.1615
 6201TIP3    H140162   2.494   3.565   0.500  0.6013 -0.5958 -2.6646
 6201TIP3    H240163   2.639   3.520   0.507  0.9123  0.6932  0.5108
 6202TIP3   OH240164   4.648   0.062   8.228  0.2964 -0.1372 -0.3553
 6202TIP3    H140165   4.681  -0.007   8.285  0.9366  0.2698 -0.2254
 6202TIP3    H240166   4.577   0.102   8.278  0.9790  0.3419  0.2487
 6203TIP3   OH240167   0.936   4.181   3.246 -0.3948 -0.4373 -0.0199
 6203TIP3    H140168   0.852   4.170   3.202 -0.7873 -1.7755  0.9806
 6203TIP3    H240169   0.913   4.224   3.329  0.1397  0.7043 -0.4490
 6204TIP3   OH240170   4.426   0.973   3.193  0.4349 -0.3809 -0.1515
 6204TIP3    H140171   4.420   1.059   3.152 -0.1595  0.4186  1.5101
 6204TIP3    H240172   4.517   0.966   3.222  0.6569 -0.6247 -0.8715
 6205TIP3   OH240173   3.091   4.705   3.081  0.4328  0.0265 -0.4143
 6205TIP3    H140174   3.077   4.612   3.099  0.8002 -0.2421 -1.4417
 6205TIP3    H240175   3.165   4.707   3.020  0.2349  0.9703 -0.6468
 6206TIP3   OH240176   1.366   4.033   0.080  0.1144 -0.6784  0.0199
 6206TIP3    H140177   1.389   4.110   0.132 -0.7277 -0.0080 -0.5703
 6206TIP3    H240178   1.448   3.984   0.073  1.0469  0.9137 -0.8329
 6207TIP3   OH240179   1.604   6.059   1.538 -0.1724  0.3439 -0.0684
 6207TIP3    H140180   1.592   5.970   1.504  1.2707 -0.0412  0.3560
 6207TIP3    H240181   1.543   6.065   1.612 -1.0305  0.0855 -0.7405
 6208TIP3   OH240182   4.878   6.025   8.038 -0.0377 -0.1573  0.3850
 6208TIP3    H140183   4.829   6.020   7.956  2.0992 -3.0572 -0.9119
 6208TIP3    H240184   4.820   5.986   8.103 -0.5798 -0.7477 -0.4364
 6209TIP3   OH240185   4.365   4.378   1.283 -0.4896 -0.2761 -0.0577
 6209TIP3    H140186   4.304   4.304   1.282 -0.0168 -0.7421  1.8855
 6209TIP3    H240187   4.452   4.338   1.281 -0.2163  0.3327 -1.3310
 6210TIP3   OH240188   5.681   2.250   1.832  0.2510 -0.0762  0.1990
 6210TIP3    H140189   5.728   2.175   1.795 -1.1220 -1.1227  0.5347
 6210TIP3    H240190   5.670   2.310   1.758  0.6549 -0.5525 -0.2554
 6211TIP3   OH240191   5.493   5.987   1.263 -0.1600  1.0362 -0.0801
 6211TIP3    H140192   5.416   5.953   1.309 -0.7294  1.7729 -0.4632
 6211TIP3    H240193   5.557   6.003   1.332 -0.1685 -0.0274  0.1920
 6212TIP3   OH240194   6.382   2.662   0.774 -0.1147 -0.5709 -0.1095
 6212TIP3    H140195   6.342   2.733   0.824 -0.8461 -1.0475 -0.0054
 6212TIP3    H240196   6.308   2.608   0.745  0.2217  0.1223 -2.4080
 6213TIP3   OH240197   4.083   0.858   2.356  0.1650  0.6611  0.2934
 6213TIP3    H140198   4.166   0.834   2.398  0.1515 -0.6904 -0.4157
 6213TIP3    H240199   4.109   0.911   2.281  0.2185  2.5633  1.5822
 6214TIP3   OH240200   6.162   0.012   1.870  0.3977 -0.1601 -0.1389
 6214TIP3    H140201   6.072   0.042   1.860  0.7423  0.3846 -1.8605
 6214TIP3    H240202   6.170  -0.063   1.811  0.9905 -0.4169  0.2499
 6215TIP3   OH240203   2.100   4.854   2.022 -0.6535 -0.0702  0.0126
 6215TIP3    H140204   2.141   4.816   2.100 -1.3968 -2.0386 -0.4813
 6215TIP3    H240205   2.173   4.866   1.960 -0.5957 -2.8553 -0.5966
 6216TIP3   OH240206   4.223   5.952   0.361  0.3918 -0.3180  0.1272
 6216TIP3    H140207   4.199   6.015   0.429  1.9274 -0.0533  0.4585
 6216TIP3    H240208   4.143   5.901   0.346 -0.0118 -0.3007  2.0360
 6217TIP3   OH240209   3.340   5.164   0.999 -0.0740  0.1529  0.1285
 6217TIP3    H140210   3.397   5.088   1.009 -0.8719 -0.6846 -1.2555
 6217TIP3    H240211   3.267   5.132   0.945  0.8528  2.5323 -2.7761
 6218TIP3   OH240212   3.921   2.799   0.079 -0.0124  0.0874 -0.5308
 6218TIP3    H140213   3.850   2.736   0.064 -0.1710  0.3030 -0.6909
 6218TIP3    H240214   3.880   2.869   0.129 -0.6783  1.6492 -3.0986
 6219TIP3   OH240215   5.892   6.323   8.781 -0.0609  0.2585 -0.2683
 6219TIP3    H140216   5.864   6.412   8.799  2.0699  0.7045  1.2683
 6219TIP3    H240217   5.906   6.284   8.868 -0.4945 -1.4289 -0.9097
 6220TIP3   OH240218   6.705   5.601   2.272  0.2921 -0.1378  0.4066
 6220TIP3    H140219   6.707   5.526   2.332 -2.1914  0.6522  1.6259
 6220TIP3    H240220   6.746   5.672   2.322 -0.3527  0.1237  0.5745
 6221TIP3   OH240221   6.358   0.116   0.393  0.7675 -0.2441  0.2243
 6221TIP3    H140222   6.435   0.153   0.436  0.1358  0.9718  0.3620
 6221TIP3    H240223   6.285   0.169   0.425  0.2305  0.5829 -2.1228
 6222TIP3   OH240224   2.469   3.101   3.124 -0.1394  0.0617  0.5206
 6222TIP3    H140225   2.469   3.188   3.163 -0.7704  0.4848 -0.3762
 6222TIP3    H240226   2.379   3.070   3.135  0.0621 -0.4515  0.7702
 6223TIP3   OH240227   6.138   6.074   0.890  0.1719 -0.4770  0.1780
 6223TIP3    H140228   6.107   6.004   0.833  0.5026 -0.9205  0.5327
 6223TIP3    H240229   6.081   6.070   0.967  1.3895 -1.6150  1.0497
 6224TIP3   OH240230   4.160   1.755   1.410  0.1441  0.0660  0.3666
 6224TIP3    H140231   4.162   1.828   1.472  0.0625  0.9043 -0.5810
 6224TIP3    H240232   4.067   1.734   1.401  0.0143  0.9074 -0.5207
 6225TIP3   OH240233   1.369   4.158   3.139 -0.2236  0.3559  0.0579
 6225TIP3    H140234   1.447   4.107   3.117  0.7672  1.6924  0.3652
 6225TIP3    H240235   1.370   4.165   3.235 -0.1055  1.2885  0.0023
 6226TIP3   OH240236   4.793   3.955   1.187 -0.0622  0.5906  0.2194
 6226TIP3    H140237   4.804   3.863   1.162  1.8001  0.2737  1.8402
 6226TIP3    H240238   4.883   3.987   1.198 -0.6888  2.1277  1.2288
 6227TIP3   OH240239   1.766   4.342   8.205 -0.0028  0.1029 -0.2484
 6227TIP3    H140240   1.725   4.372   8.286  0.5572  2.2351 -0.6974
 6227TIP3    H240241   1.843   4.293   8.234  2.5449  4.1941  0.6641
 6228TIP3   OH240242   0.072   1.456   7.953  0.4014 -0.4534  0.0083
 6228TIP3    H140243   0.132   1.393   7.995 -1.0908 -1.6739  0.4026
 6228TIP3    H240244   0.051   1.415   7.868  1.8304  1.0445 -1.1301
 6229TIP3   OH240245   5.462   6.417   8.210  0.1536  0.4870 -0.0896
 6229TIP3    H140246   5.553   6.448   8.215  0.3941 -0.0267 -0.9108
 6229TIP3    H240247   5.437   6.400   8.300  1.2309 -0.3456  0.0731
 6230TIP3   OH240248   3.768   5.155   1.755  0.3417 -0.2768  0.3830
 6230TIP3    H140249   3.692   5.120   1.707  0.9087  0.2139 -0.9297
 6230TIP3    H240250   3.737   5.237   1.793  0.7152  0.9923 -1.8761
 6231TIP3   OH240251   2.071   4.490   8.331 -0.0980 -0.3530 -0.4851
 6231TIP3    H140252   2.086   4.412   8.277 -0.6296 -0.4663 -0.4768
 6231TIP3    H240253   2.148   4.545   8.315 -0.1022 -0.5193 -1.1294
 6232TIP3   OH240254   4.878   4.886   2.363  0.2717 -0.1000 -0.0259
 6232TIP3    H140255   4.955   4.889   2.419  0.8192  1.0280 -0.7933
 6232TIP3    H240256   4.846   4.796   2.370 -1.0249  0.4715  3.8108
 6233TIP3   OH240257   0.673   3.450   2.600 -0.5321 -0.2147  0.0641
 6233TIP3    H140258   0.741   3.499   2.647 -0.5846  0.1786 -0.2640
 6233TIP3    H240259   0.643   3.385   2.663  1.3423 -1.5502 -0.3378
 6234TIP3   OH240260   4.411   1.126   1.636  0.5815  0.4110  0.5014
 6234TIP3    H140261   4.396   1.183   1.560 -0.5134  1.8928  1.7744
 6234TIP3    H240262   4.475   1.062   1.605  0.2947  1.0627 -1.6194
 6235TIP3   OH240263   4.960   5.999   2.913 -0.1502  0.4754  0.2856
 6235TIP3    H140264   4.905   6.075   2.930  0.8093  0.9377  1.5050
 6235TIP3    H240265   5.022   5.997   2.986  1.7231  0.2383 -1.2037
 6236TIP3   OH240266   2.929   2.295   8.300  0.7403 -0.0029 -0.2211
 6236TIP3    H140267   3.021   2.276   8.280  0.7264  0.3656 -0.6623
 6236TIP3    H240268   2.882   2.218   8.268  0.8253  0.1410 -0.7135
 6237TIP3   OH240269   2.372   6.406   1.552 -0.4653 -0.6930  0.0903
 6237TIP3    H140270   2.333   6.357   1.625 -1.2380 -0.6908 -0.3024
 6237TIP3    H240271   2.461   6.425   1.580 -0.6602 -0.9493  0.9123
 6238TIP3   OH240272   6.053   2.493   2.425  0.0653 -0.0494  0.1468
 6238TIP3    H140273   6.002   2.564   2.386  0.0515 -1.1199 -1.9107
 6238TIP3    H240274   5.988   2.440   2.472 -0.4180 -0.2968 -0.7819
 6239TIP3   OH240275   2.269   0.356   0.239  0.6762 -0.1805 -0.3833
 6239TIP3    H140276   2.183   0.346   0.279 -0.4747  1.0243 -2.4119
 6239TIP3    H240277   2.265   0.304   0.159  2.2241 -0.9482  0.0006
 6240TIP3   OH240278   5.887   5.976   0.602 -0.1078 -0.2807 -0.3197
 6240TIP3    H140279   5.896   6.048   0.665  1.5781 -0.3095 -0.4678
 6240TIP3    H240280   5.962   5.919   0.621  1.1411  0.2789 -3.0453
 6241TIP3   OH240281   5.972   0.032   3.210  0.2648 -0.1785 -0.4388
 6241TIP3    H140282   5.931   0.087   3.144 -0.1821 -0.4711 -0.4091
 6241TIP3    H240283   5.905   0.020   3.277  0.0517 -1.4588 -0.8569
 6242TIP3   OH240284   5.766   1.043   8.066 -0.3552  0.6965  0.2648
 6242TIP3    H140285   5.838   0.981   8.058  0.0517  1.2417 -0.4450
 6242TIP3    H240286   5.734   1.054   7.976 -1.5461  0.2101  0.6116
 6243TIP3   OH240287   5.157   3.104   1.761 -0.5679  0.1452 -0.0960
 6243TIP3    H140288   5.233   3.119   1.705 -0.1770  0.5719  0.5322
 6243TIP3    H240289   5.111   3.188   1.761  0.4489  0.7454  1.7016
 6244TIP3   OH240290   3.000   0.372   7.959  0.2832 -0.9971  0.0619
 6244TIP3    H140291   3.064   0.337   8.021  1.4117 -0.2186 -0.6185
 6244TIP3    H240292   3.035   0.458   7.935 -0.5313 -0.9626 -1.0534
 6245TIP3   OH240293   3.793   3.725   8.402  0.3452  0.2502  0.2897
 6245TIP3    H140294   3.737   3.802   8.416  1.0530  1.3527 -2.2637
 6245TIP3    H240295   3.861   3.756   8.341  0.4603 -2.4756 -1.1181
 6246TIP3   OH240296   3.924   4.373   1.360  0.3593  0.1610 -0.0696
 6246TIP3    H140297   3.990   4.435   1.391  0.3329  0.5464 -0.7535
 6246TIP3    H240298   3.899   4.323   1.437  1.5496 -0.0812  0.1712
 6247TIP3   OH240299   6.416   1.982   1.503  0.3353 -0.1337  0.4568
 6247TIP3    H140300   6.482   1.931   1.549  1.1022  1.3876  1.1170
 6247TIP3    H240301   6.333   1.957   1.545  0.6344 -1.0561  0.5256
 6248TIP3   OH240302   5.009   0.478   3.119 -0.1107 -0.0854  1.4526
 6248TIP3    H140303   4.937   0.448   3.175 -0.2772  0.5151  1.5689
 6248TIP3    H240304   5.059   0.537   3.175 -0.4843  0.8094  0.8662
 6249TIP3   OH240305   4.182   4.379   7.818  0.5233  0.0985 -0.4133
 6249TIP3    H140306   4.113   4.386   7.752 -0.5568 -1.5280  0.4648
 6249TIP3    H240307   4.202   4.285   7.822  0.3339  0.1032  1.7530
 6250TIP3   OH240308   2.373   3.832   1.962  0.9861  0.0929 -0.0597
 6250TIP3    H140309   2.298   3.812   1.906 -0.6015  0.1957  1.9007
 6250TIP3    H240310   2.401   3.748   1.997  1.9578  0.0296 -0.9658
 6251TIP3   OH240311   0.395   4.773   1.395 -0.3272 -0.1635  0.4973
 6251TIP3    H140312   0.438   4.833   1.335 -1.0377  1.1233  1.2294
 6251TIP3    H240313   0.342   4.716   1.339  0.8884 -0.5767 -0.2554
 6252TIP3   OH240314   6.491   5.764   2.740 -0.3007 -0.5108  0.1311
 6252TIP3    H140315   6.462   5.855   2.732 -0.1255 -0.5954 -3.8151
 6252TIP3    H240316   6.429   5.724   2.801 -1.3905  1.8991  0.7008
 6253TIP3   OH240317   5.764   1.840   1.856  0.1614  0.0035 -0.4395
 6253TIP3    H140318   5.847   1.792   1.862  0.3206  0.3712  0.4278
 6253TIP3    H240319   5.783   1.912   1.796  1.0328  1.1612  1.1362
 6254TIP3   OH240320   2.761   6.391   1.399 -0.0741 -0.5282  0.0157
 6254TIP3    H140321   2.846   6.351   1.417  0.1036 -1.5738 -2.7078
 6254TIP3    H240322   2.780   6.485   1.391  0.0289 -0.1324  3.3955
 6255TIP3   OH240323   5.892   4.325   8.361  0.2430 -0.1160 -0.3499
 6255TIP3    H140324   5.886   4.230   8.360  1.6294 -0.2457 -2.6465
 6255TIP3    H240325   5.859   4.353   8.276  2.2348  1.2199 -0.7741
 6256TIP3   OH240326   3.919   3.640   2.696 -0.2602 -0.1946 -0.6947
 6256TIP3    H140327   3.911   3.545   2.692 -0.3183 -0.1499 -1.8254
 6256TIP3    H240328   3.914   3.660   2.790  0.5992 -1.3674 -0.3688
 6257TIP3   OH240329   5.685   1.358   0.223 -0.3144  0.0916  0.1063
 6257TIP3    H140330   5.759   1.419   0.225 -0.3539  0.1298  0.4134
 6257TIP3    H240331   5.707   1.292   0.289 -0.8619  0.4612  0.6667
 6258TIP3   OH240332   2.313   4.777   0.973  0.1941 -0.2582  0.5114
 6258TIP3    H140333   2.382   4.716   1.002 -0.3172 -0.7259  0.7610
 6258TIP3    H240334   2.234   4.723   0.969  0.5315 -0.7329 -3.6525
 6259TIP3   OH240335   3.365   2.816   2.695  0.3397  0.1628 -0.1211
 6259TIP3    H140336   3.284   2.767   2.709  0.8892 -0.3084  1.6081
 6259TIP3    H240337   3.417   2.760   2.637  0.0310 -0.2240 -0.0280
 6260TIP3   OH240338   1.111   5.756   2.413 -0.2752  0.4013  0.3054
 6260TIP3    H140339   1.051   5.715   2.476  0.1188 -0.6179  0.0434
 6260TIP3    H240340   1.195   5.757   2.457 -0.1557  0.3725  0.0793
 6261TIP3   OH240341   1.865   2.846   8.278  0.0641  0.2525 -0.3128
 6261TIP3    H140342   1.807   2.813   8.346 -0.9444 -2.1373 -2.2246
 6261TIP3    H240343   1.810   2.900   8.223  0.1550 -0.2732 -0.9248
 6262TIP3   OH240344   3.987   2.553   3.202 -0.2433  0.2130 -0.4431
 6262TIP3    H140345   3.941   2.500   3.267 -1.8225  1.7392 -0.2514
 6262TIP3    H240346   3.928   2.555   3.127  0.1301  1.0705 -0.7298
 6263TIP3   OH240347   6.431   3.789   8.103 -0.3328 -0.1939 -0.0195
 6263TIP3    H140348   6.381   3.743   8.036  0.8518  0.6089 -1.4969
 6263TIP3    H240349   6.417   3.882   8.084  1.0857  0.0390  0.0031
 6264TIP3   OH240350   5.276   1.843   1.836 -0.1025  0.4203 -0.2353
 6264TIP3    H140351   5.315   1.831   1.923 -0.0067  1.2630 -0.1530
 6264TIP3    H240352   5.316   1.924   1.803 -0.0525  0.0524 -1.1152
 6265TIP3   OH240353   3.770   2.497   8.791 -0.8178 -0.0034  0.5573
 6265TIP3    H140354   3.778   2.528   8.701 -2.8098  0.7033  0.5851
 6265TIP3    H240355   3.699   2.433   8.788 -0.9285  0.0538  1.6478
 6266TIP3   OH240356   0.810   3.626   0.775  0.0625  0.3071  0.7251
 6266TIP3    H140357   0.814   3.652   0.683 -2.4446  2.1441  1.0137
 6266TIP3    H240358   0.867   3.689   0.820  1.5972 -0.8355  0.4290
 6267TIP3   OH240359   1.064   0.313   2.714  0.3846  0.0653 -0.4011
 6267TIP3    H140360   1.111   0.298   2.795  1.1536 -0.2108 -0.8921
 6267TIP3    H240361   1.127   0.357   2.657  0.0418 -0.2689 -1.0515
 6268TIP3   OH240362   5.350   2.184   2.035 -0.0207  0.1686 -0.5003
 6268TIP3    H140363   5.346   2.106   2.091 -1.1565 -0.8197 -1.8991
 6268TIP3    H240364   5.421   2.237   2.073 -0.8216 -0.3725  1.9353
 6269TIP3   OH240365   2.844   2.096   7.428  0.2481 -0.5308  0.3751
 6269TIP3    H140366   2.922   2.058   7.389  0.1258 -0.1295 -0.2848
 6269TIP3    H240367   2.857   2.088   7.522  1.7077  0.7176  0.3263
 6270TIP3   OH240368   0.726   2.887   8.559  0.1792  0.2230 -0.0053
 6270TIP3    H140369   0.676   2.952   8.509  0.1354  0.2174  0.0307
 6270TIP3    H240370   0.701   2.902   8.650 -0.8042 -0.6692 -0.1108
 6271TIP3   OH240371   5.546   2.580   1.013 -0.0392  0.0606  0.2430
 6271TIP3    H140372   5.526   2.538   1.096 -0.4965 -0.0996  0.0596
 6271TIP3    H240373   5.505   2.524   0.947 -0.8163  0.8654  0.0068
 6272TIP3   OH240374   5.315   0.490   8.451 -0.2742 -0.3600 -0.1785
 6272TIP3    H140375   5.337   0.559   8.514 -1.4286  1.2642 -1.4385
 6272TIP3    H240376   5.383   0.424   8.462  1.3930  1.3791  0.5085
 6273TIP3   OH240377   3.693   3.309   2.128 -1.0713  0.6495  0.3621
 6273TIP3    H140378   3.734   3.306   2.214 -2.7588 -0.0670  1.1878
 6273TIP3    H240379   3.663   3.399   2.119 -1.4250  0.5798  0.8025
 6274TIP3   OH240380   6.423   5.741   0.996 -0.3667 -0.0313  0.4355
 6274TIP3    H140381   6.345   5.723   0.942  0.8498  0.9691 -1.8178
 6274TIP3    H240382   6.493   5.692   0.953  0.4898  0.0102  1.7442
 6275TIP3   OH240383   3.156   0.832   7.757  0.4967  0.0585  0.6337
 6275TIP3    H140384   3.191   0.850   7.670  0.6894  0.5542  0.8110
 6275TIP3    H240385   3.096   0.905   7.774 -0.0840 -0.4109  0.6209
 6276TIP3   OH240386   3.906   3.385   1.056  0.0894  0.0188 -0.1733
 6276TIP3    H140387   3.957   3.466   1.058 -1.6733  1.1656  1.9636
 6276TIP3    H240388   3.816   3.413   1.070 -0.6615 -2.2608 -0.0970
 6277TIP3   OH240389   0.214   1.870   0.797 -0.9559 -0.0858 -0.1217
 6277TIP3    H140390   0.119   1.865   0.796 -1.1728  1.9767  1.4933
 6277TIP3    H240391   0.233   1.964   0.792  0.8538 -0.2419  2.0890
 6278TIP3   OH240392   6.584   1.665   2.016 -0.2484 -0.6038 -0.4153
 6278TIP3    H140393   6.649   1.638   2.080 -1.1410 -1.4208  0.1671
 6278TIP3    H240394   6.507   1.612   2.035 -2.2189  2.4731  0.9389
 6279TIP3   OH240395   2.738   3.875   8.603  0.2515 -0.0031 -0.1641
 6279TIP3    H140396   2.742   3.831   8.688 -2.3779  1.7099  1.0124
 6279TIP3    H240397   2.769   3.964   8.621 -0.1950  0.3373 -1.0173
 6280TIP3   OH240398   1.659   1.803   0.757 -0.1414 -0.1067 -0.0657
 6280TIP3    H140399   1.631   1.746   0.829  2.6493 -0.9490  0.4580
 6280TIP3    H240400   1.636   1.755   0.678  1.1883 -1.5169  0.3650
 6281TIP3   OH240401   1.991   2.101   0.972 -0.0454  0.1198 -0.8195
 6281TIP3    H140402   1.963   2.067   0.887 -1.7543 -0.8103  0.0738
 6281TIP3    H240403   1.948   2.185   0.980  0.2205  0.2676 -0.9100
 6282TIP3   OH240404   6.200   0.888   7.420 -0.3374 -0.5521 -0.4139
 6282TIP3    H140405   6.164   0.976   7.432 -1.5960 -1.2242  1.2331
 6282TIP3    H240406   6.207   0.876   7.326  0.6602  1.6066 -0.6553
 6283TIP3   OH240407   5.003   3.910   0.939 -0.1873 -0.5132 -0.0445
 6283TIP3    H140408   5.037   3.845   1.001 -1.4768 -0.8074  0.3916
 6283TIP3    H240409   5.049   3.891   0.857 -0.6219 -2.0801  0.0439
 6284TIP3   OH240410   2.311   6.719   8.521 -0.1567 -0.2521  0.2653
 6284TIP3    H140411   2.263   6.646   8.560 -0.4581  0.0787  0.5199
 6284TIP3    H240412   2.253   6.752   8.453  0.9767 -1.7711 -1.5222
 6285TIP3   OH240413   1.440   6.686   0.656  0.1997 -0.2286  0.8325
 6285TIP3    H140414   1.399   6.600   0.668  0.0202 -0.1373  0.8676
 6285TIP3    H240415   1.369   6.749   0.665  0.2602 -0.0953  0.4102
 6286TIP3   OH240416   1.692   3.595   0.759  0.1424 -0.5990  0.3656
 6286TIP3    H140417   1.763   3.614   0.697  0.1157  1.0032  0.7761
 6286TIP3    H240418   1.613   3.594   0.705  0.2622 -0.5359  0.1862
 6287TIP3   OH240419   6.407   0.806   1.202 -0.4560 -0.0041 -0.6294
 6287TIP3    H140420   6.390   0.842   1.115 -1.6043  1.3742  0.1157
 6287TIP3    H240421   6.448   0.878   1.250 -0.1918 -0.6180  0.0767
 6288TIP3   OH240422   3.684   6.662   2.004 -0.1886  0.2782  0.1429
 6288TIP3    H140423   3.770   6.689   2.036 -0.7565  2.4905  0.0189
 6288TIP3    H240424   3.644   6.744   1.973 -2.3250 -0.6877  0.1924
 6289TIP3   OH240425   1.347   2.950   1.917  0.7083 -0.0883 -0.4369
 6289TIP3    H140426   1.374   2.873   1.868  0.5039 -0.6034  0.2436
 6289TIP3    H240427   1.254   2.960   1.898  0.8319  0.2569 -0.8736
 6290TIP3   OH240428   3.042   0.679   0.982  0.1026 -0.1524  0.1093
 6290TIP3    H140429   2.959   0.724   0.996  0.2689  0.3565 -0.4609
 6290TIP3    H240430   3.076   0.662   1.070 -1.1492 -1.4251  0.3720
 6291TIP3   OH240431   1.388   5.667   1.761  0.0606 -0.3864 -0.3518
 6291TIP3    H140432   1.337   5.657   1.681 -1.4259  1.2948  0.3159
 6291TIP3    H240433   1.430   5.582   1.774 -1.5692 -1.4437 -1.6127
 6292TIP3   OH240434   5.223   5.751   2.041  0.2084  0.1561 -0.0254
 6292TIP3    H140435   5.182   5.704   1.968  1.2189 -0.1298 -0.4306
 6292TIP3    H240436   5.221   5.689   2.114  1.2643 -0.4447 -0.4746
 6293TIP3   OH240437   5.290   1.485   3.549  0.4644 -0.0756 -0.1769
 6293TIP3    H140438   5.334   1.427   3.487  0.3813  1.1201 -1.4109
 6293TIP3    H240439   5.361   1.528   3.596  0.7077  1.5662 -1.8978
 6294TIP3   OH240440   0.674   4.078   2.128 -0.4498 -0.6571 -0.2961
 6294TIP3    H140441   0.753   4.061   2.077  0.3875  1.3652  0.2381
 6294TIP3    H240442   0.640   4.160   2.094 -1.3931 -0.6490  0.6132
 6295TIP3   OH240443   4.648   2.981   0.448  0.0236  0.2753  0.3963
 6295TIP3    H140444   4.716   2.916   0.464  0.2659  0.2584 -0.6828
 6295TIP3    H240445   4.590   2.974   0.524  0.0521 -1.1821  0.2983
 6296TIP3   OH240446   6.055   2.827   1.628 -0.4881  0.4480 -0.4812
 6296TIP3    H140447   6.150   2.822   1.637 -0.2754  0.7546 -2.3029
 6296TIP3    H240448   6.024   2.851   1.716  1.1119  0.5070  0.0930
 6297TIP3   OH240449   2.385   5.760   8.416  0.7008  0.0088 -0.1017
 6297TIP3    H140450   2.336   5.704   8.476 -0.6121  0.8452 -0.3496
 6297TIP3    H240451   2.348   5.741   8.330  1.2861  0.1731 -0.3923
 6298TIP3   OH240452   5.581   2.911   2.511 -0.4439 -0.0673  0.2315
 6298TIP3    H140453   5.524   2.871   2.445 -1.1091  1.7303 -0.3381
 6298TIP3    H240454   5.624   2.983   2.466  1.0573 -0.3543  1.1141
 6299TIP3   OH240455   0.883   4.380   8.144  0.1100  0.4788  0.3788
 6299TIP3    H140456   0.891   4.475   8.149 -1.7974  0.6707  0.5430
 6299TIP3    H240457   0.917   4.357   8.058 -0.3737  1.4320 -0.0784
 6300TIP3   OH240458   5.931   0.640   0.533  0.1326  0.2639  0.1434
 6300TIP3    H140459   6.022   0.663   0.547 -0.2505  1.9945  0.0689
 6300TIP3    H240460   5.893   0.718   0.490 -0.9351 -1.1415 -1.6207
 6301TIP3   OH240461   5.395   5.436   2.757  0.2093 -0.0203 -1.0211
 6301TIP3    H140462   5.379   5.374   2.828 -1.3941 -0.4306 -1.7113
 6301TIP3    H240463   5.470   5.400   2.710  0.3475 -0.5347 -0.4147
 6302TIP3   OH240464   2.767   4.170   1.824  0.5139 -0.2651 -0.2774
 6302TIP3    H140465   2.714   4.110   1.876  2.2629 -1.5067  0.1493
 6302TIP3    H240466   2.769   4.131   1.737  0.8184 -0.2826 -0.2630
 6303TIP3   OH240467   1.247   5.144   8.843  0.4618  0.2048 -0.3983
 6303TIP3    H140468   1.215   5.181   8.926  0.4215  0.7175 -0.6398
 6303TIP3    H240469   1.170   5.141   8.787  0.4186 -0.4592 -0.3115
 6304TIP3   OH240470   4.806   0.699   1.580  0.1875  0.2277  0.1095
 6304TIP3    H140471   4.897   0.725   1.564 -0.6089  1.7157 -2.8938
 6304TIP3    H240472   4.804   0.605   1.562  1.2567  0.0301  0.9525
 6305TIP3   OH240473   2.820   6.459   3.164 -0.1576 -0.1146 -0.6273
 6305TIP3    H140474   2.761   6.393   3.201 -1.0588  0.4089 -1.1063
 6305TIP3    H240475   2.894   6.408   3.129 -0.5149 -0.8093 -0.3843
 6306TIP3   OH240476   0.794   5.128   3.281 -0.6550 -0.1979  0.2253
 6306TIP3    H140477   0.780   5.211   3.236  1.7619 -1.0056 -2.3073
 6306TIP3    H240478   0.834   5.153   3.364  0.9068  1.2334 -0.8808
 6307TIP3   OH240479   6.710   1.657   3.178 -0.3425 -0.1909  0.1921
 6307TIP3    H140480   6.755   1.705   3.247 -0.6431  2.6386 -1.4289
 6307TIP3    H240481   6.639   1.715   3.151 -0.8139 -1.6096 -1.8572
 6308TIP3   OH240482   6.108   6.287   1.560  0.2841  0.4547 -0.2187
 6308TIP3    H140483   6.188   6.240   1.583  0.4194  0.8264  0.0826
 6308TIP3    H240484   6.137   6.356   1.499  0.1180  0.2836 -0.4942
 6309TIP3   OH240485   5.844   0.708   7.959  0.2729  0.7950  0.4357
 6309TIP3    H140486   5.780   0.780   7.952 -1.3474 -0.6669 -0.6666
 6309TIP3    H240487   5.813   0.643   7.896  1.2289 -1.2188  1.9550
 6310TIP3   OH240488   1.846   4.789   2.202 -0.0166 -0.1233  0.6253
 6310TIP3    H140489   1.833   4.862   2.141  0.0754 -0.8120 -0.2295
 6310TIP3    H240490   1.760   4.778   2.243 -0.0037  0.5332  0.8477
 6311TIP3   OH240491   5.664   2.544   8.641 -0.3957  0.0797 -0.3122
 6311TIP3    H140492   5.646   2.590   8.558 -1.1386  0.9334  0.2962
 6311TIP3    H240493   5.759   2.550   8.651 -0.4554  1.4066 -0.3170
 6312TIP3   OH240494   4.425   2.908   8.946 -0.0086 -0.1185 -0.1173
 6312TIP3    H140495   4.343   2.894   8.992  0.0598  1.2192  0.4386
 6312TIP3    H240496   4.401   2.949   8.863 -0.0341 -1.4698 -0.8109
 6313TIP3   OH240497   3.369   4.326   8.841 -0.3928 -1.0487  0.5746
 6313TIP3    H140498   3.356   4.397   8.904  0.7394  0.1928 -0.5354
 6313TIP3    H240499   3.302   4.261   8.865 -1.5685  0.4331  1.5342
 6314TIP3   OH240500   3.575   2.312   8.696  0.1180 -0.1749 -0.1475
 6314TIP3    H140501   3.605   2.224   8.675  0.3774 -0.3100  0.7482
 6314TIP3    H240502   3.496   2.299   8.747  1.0614  0.0421  1.4292
 6315TIP3   OH240503   2.452   2.987   0.024 -0.5341 -0.3069 -0.2740
 6315TIP3    H140504   2.478   2.986  -0.068  0.0159 -0.2177 -0.1186
 6315TIP3    H240505   2.508   3.053   0.065 -0.3286 -0.7963  0.2554
 6316TIP3   OH240506   6.348   0.543   7.484 -0.3282 -0.3841 -0.4021
 6316TIP3    H140507   6.430   0.564   7.530 -0.5339 -1.2151  0.3773
 6316TIP3    H240508   6.320   0.461   7.523 -2.7655  1.0220  1.0800
 6317TIP3   OH240509   3.694   0.256   1.445  0.8303 -0.3431 -0.9051
 6317TIP3    H140510   3.637   0.307   1.504 -0.7236 -1.3898 -1.4209
 6317TIP3    H240511   3.781   0.262   1.485 -0.1617 -1.1193  1.6139
 6318TIP3   OH240512   0.178   0.058   2.430 -0.1578 -0.1502 -0.2215
 6318TIP3    H140513   0.267   0.077   2.401  0.6178 -1.8639  0.8783
 6318TIP3    H240514   0.189   0.017   2.516 -2.1184  0.9261  0.5981
 6319TIP3   OH240515   3.700   4.080   8.064 -0.1444  0.0592 -0.0811
 6319TIP3    H140516   3.788   4.091   8.101 -0.1759 -0.9687  0.3458
 6319TIP3    H240517   3.693   4.148   7.998  0.7119  0.6027  0.3682
 6320TIP3   OH240518   2.851   5.371   2.538 -0.0403  0.1259  0.4750
 6320TIP3    H140519   2.865   5.325   2.621 -1.5128 -1.3510 -0.0363
 6320TIP3    H240520   2.766   5.339   2.507 -0.7540  2.5831 -0.3589
 6321TIP3   OH240521   0.664   0.897   7.854 -1.0556  0.0266 -0.2406
 6321TIP3    H140522   0.755   0.900   7.883 -0.5941  0.4179 -1.6699
 6321TIP3    H240523   0.668   0.903   7.759 -2.6133  0.9109 -0.2936
 6322TIP3   OH240524   4.762   0.358   7.678 -0.5560 -0.0579  0.4482
 6322TIP3    H140525   4.777   0.265   7.661  3.0853  0.0882  1.8712
 6322TIP3    H240526   4.712   0.360   7.760 -2.0566 -0.6926 -0.4176
 6323TIP3   OH240527   0.912   0.979   8.214 -0.1174 -0.5736  0.1445
 6323TIP3    H140528   0.881   0.926   8.287  0.3282  0.3665  1.0285
 6323TIP3    H240529   0.835   1.029   8.187  0.1740  0.5142  1.2496
 6324TIP3   OH240530   4.939   6.291   1.567  0.5457 -0.2894  0.8421
 6324TIP3    H140531   5.009   6.254   1.621  0.7642  0.3977  1.0446
 6324TIP3    H240532   4.889   6.346   1.628 -0.0231 -0.5921  0.6442
 6325TIP3   OH240533   2.157   1.061   7.358  0.0852  0.0699  0.4061
 6325TIP3    H140534   2.221   1.003   7.317 -1.2155 -0.4034 -1.0274
 6325TIP3    H240535   2.130   1.014   7.437  0.7792 -0.1756  0.5024
 6326TIP3   OH240536   3.866   1.586   7.375  0.0195 -0.4126  0.2964
 6326TIP3    H140537   3.961   1.578   7.362  0.0102 -0.5356  0.2999
 6326TIP3    H240538   3.838   1.498   7.399 -0.0150 -0.2563  0.8277
 6327TIP3   OH240539   0.758   1.642   8.100 -0.1120  0.0115  0.3315
 6327TIP3    H140540   0.686   1.687   8.145  0.2339  1.5552 -0.5736
 6327TIP3    H240541   0.774   1.696   8.022  1.3377 -0.8793 -0.0096
 6328TIP3   OH240542   4.313   3.838   3.342  0.0809 -0.0076  0.8226
 6328TIP3    H140543   4.264   3.855   3.422  1.0198 -0.1686  1.4416
 6328TIP3    H240544   4.325   3.743   3.340  0.8135  0.0798  0.9483
 6329TIP3   OH240545   1.979   0.404   7.741  0.6266 -0.3276  0.1286
 6329TIP3    H140546   1.938   0.470   7.797  0.9356  0.4721 -0.5666
 6329TIP3    H240547   2.069   0.435   7.728  0.1629  0.3179 -1.9985
 6330TIP3   OH240548   1.085   3.743   0.271 -0.3033 -0.1194  0.5334
 6330TIP3    H140549   1.089   3.801   0.195 -2.2156 -0.1516  0.3715
 6330TIP3    H240550   1.112   3.657   0.238 -0.7384 -0.0495 -0.0090
 6331TIP3   OH240551   0.228   6.455   8.376 -0.3812 -0.2234  0.1085
 6331TIP3    H140552   0.175   6.533   8.357  0.2105  0.2752  0.4739
 6331TIP3    H240553   0.169   6.397   8.424 -1.3487 -0.7354 -1.5982
 6332TIP3   OH240554   6.529   2.928   8.901  0.3208 -0.1876 -0.4109
 6332TIP3    H140555   6.469   2.959   8.968  0.3745  0.0995 -0.4939
 6332TIP3    H240556   6.585   2.865   8.946  0.6000  0.2835 -0.0970
 6333TIP3   OH240557   4.895   0.904   1.096  0.2752  0.0111  0.3551
 6333TIP3    H140558   4.962   0.837   1.078 -0.0543 -0.6411  1.4231
 6333TIP3    H240559   4.893   0.958   1.017  2.6368  0.5523  0.5796
 6334TIP3   OH240560   5.235   6.481   2.909  0.4918  0.3630  0.0423
 6334TIP3    H140561   5.329   6.476   2.925  0.5111  3.2559  1.4433
 6334TIP3    H240562   5.223   6.563   2.861 -1.3064 -0.1389 -0.4531
 6335TIP3   OH240563   0.226   6.281   2.803  0.8807 -0.1571  0.5730
 6335TIP3    H140564   0.280   6.359   2.818 -1.7121  1.6009  1.4481
 6335TIP3    H240565   0.136   6.312   2.811 -0.3937 -2.6122 -2.2963
 6336TIP3   OH240566   6.454   2.511   1.908  0.3293  0.7799  0.2369
 6336TIP3    H140567   6.529   2.525   1.966 -0.5122  1.3225  1.2345
 6336TIP3    H240568   6.378   2.529   1.963 -0.5869 -0.7935 -0.4611
 6337TIP3   OH240569   1.439   0.750   8.477  0.1157  0.5953  0.1899
 6337TIP3    H140570   1.465   0.823   8.421 -1.1253  0.4906 -0.5600
 6337TIP3    H240571   1.521   0.720   8.518  0.9239  1.1638 -0.9711
 6338TIP3   OH240572   5.720   1.043   0.210 -0.1986  0.0290 -0.4072
 6338TIP3    H140573   5.793   0.980   0.205  0.9810  1.2458  0.6186
 6338TIP3    H240574   5.717   1.068   0.303 -0.3680  1.7607 -0.8471
 6339TIP3   OH240575   5.802   5.040   1.818  0.0570 -0.3780  0.0011
 6339TIP3    H140576   5.881   5.020   1.768  0.2408 -0.5779  0.3657
 6339TIP3    H240577   5.771   5.123   1.781  0.4923 -0.2490 -0.0821
 6340TIP3   OH240578   4.156   4.709   2.390  0.6757 -0.4598 -0.1041
 6340TIP3    H140579   4.152   4.743   2.479  1.7977  0.4481 -0.3617
 6340TIP3    H240580   4.067   4.678   2.371  0.2243  0.0934  1.0347
 6341TIP3   OH240581   5.342   3.554   0.370  0.0942 -1.1358 -0.4937
 6341TIP3    H140582   5.428   3.512   0.382  0.7321  0.2047 -0.2095
 6341TIP3    H240583   5.324   3.544   0.276  1.2949 -0.0823 -0.8633
 6342TIP3   OH240584   2.266   1.933   7.675  0.0001  0.6675 -0.5620
 6342TIP3    H140585   2.208   2.008   7.685 -0.5461  0.4092 -1.7328
 6342TIP3    H240586   2.212   1.857   7.697  0.2362  0.5236 -0.4700
 6343TIP3   OH240587   0.244   0.229   0.253  0.0995  0.0890  0.4033
 6343TIP3    H140588   0.213   0.175   0.325 -0.1851  0.1817  0.3495
 6343TIP3    H240589   0.333   0.198   0.237  0.6967  1.0255  1.7341
 6344TIP3   OH240590   3.386   4.533   8.143 -0.2915  0.7398 -1.1370
 6344TIP3    H140591   3.424   4.536   8.055  1.9507 -0.3552 -0.2979
 6344TIP3    H240592   3.433   4.601   8.191  0.6628 -0.6573 -0.0491
 6345TIP3   OH240593   0.426   1.507   2.691  0.6943 -0.0356  0.9330
 6345TIP3    H140594   0.430   1.423   2.645  0.0120  0.2605  0.3073
 6345TIP3    H240595   0.492   1.500   2.760  0.3260 -1.2656  1.1880
 6346TIP3   OH240596   3.720   3.851   1.010  0.0163 -0.6904 -0.1314
 6346TIP3    H140597   3.661   3.850   1.086 -0.6005 -0.6903 -0.6015
 6346TIP3    H240598   3.806   3.869   1.047 -0.3733 -0.0802  0.5095
 6347TIP3   OH240599   6.362   4.743   2.766  0.3925  0.4456  0.1452
 6347TIP3    H140600   6.268   4.744   2.783  0.0093  0.3558 -1.7750
 6347TIP3    H240601   6.402   4.743   2.853 -1.3601  2.0448  1.0273
 6348TIP3   OH240602   3.242   3.546   9.004  0.4128  0.4201 -0.4439
 6348TIP3    H140603   3.154   3.583   9.008  0.8468  1.4000  1.0253
 6348TIP3    H240604   3.259   3.516   9.093  0.7660 -1.7840 -1.2018
 6349TIP3   OH240605   0.660   6.282   7.905 -0.5947 -0.1119 -0.0113
 6349TIP3    H140606   0.609   6.334   7.842 -1.6268 -0.0318  0.8605
 6349TIP3    H240607   0.715   6.226   7.850  0.1633  1.4875 -0.9868
 6350TIP3   OH240608   0.058   4.350   2.601 -0.1656 -0.1403  0.3094
 6350TIP3    H140609   0.118   4.295   2.651  0.8213  0.7058  0.0805
 6350TIP3    H240610   0.021   4.410   2.666  0.9439  0.8074  0.1004
 6351TIP3   OH240611   3.757   0.141   7.672 -0.3340 -0.2765 -0.1768
 6351TIP3    H140612   3.809   0.107   7.744 -0.9038 -1.5518 -0.3403
 6351TIP3    H240613   3.816   0.140   7.597 -0.0926 -0.0821  0.0110
 6352TIP3   OH240614   6.115   1.985   0.259 -0.6036 -0.1218 -0.1117
 6352TIP3    H140615   6.155   1.945   0.336 -1.5191  0.0214  0.4550
 6352TIP3    H240616   6.089   1.910   0.205 -0.0090 -0.2242 -0.2598
 6353TIP3   OH240617   1.908   4.563   1.669  0.1844 -0.2815  0.0716
 6353TIP3    H140618   1.974   4.602   1.726 -0.4130 -0.4485  0.8821
 6353TIP3    H240619   1.826   4.570   1.718 -0.8162  1.7040 -1.6902
 6354TIP3   OH240620   6.637   1.707   7.943 -0.0881  0.2308  0.0581
 6354TIP3    H140621   6.588   1.685   7.864 -0.6914 -0.4837  0.6149
 6354TIP3    H240622   6.709   1.645   7.946 -1.9024 -1.9810  1.7343
 6355TIP3   OH240623   3.019   6.259   0.009 -0.2071  0.2577  0.4387
 6355TIP3    H140624   2.964   6.292  -0.063  0.0810 -3.1315 -1.5426
 6355TIP3    H240625   2.998   6.166   0.014  1.2056  0.0015  3.5653
 6356TIP3   OH240626   1.759   2.099   8.468 -0.0364 -0.1045  0.3286
 6356TIP3    H140627   1.761   2.005   8.456 -2.8253 -0.1015 -0.8635
 6356TIP3    H240628   1.733   2.111   8.560 -0.0246 -0.5008  0.3824
 6357TIP3   OH240629   5.661   3.038   1.330 -0.1699 -0.1306 -0.2582
 6357TIP3    H140630   5.599   2.965   1.321 -2.2394  1.4967 -0.1300
 6357TIP3    H240631   5.675   3.045   1.425  0.1388 -0.4276 -0.2793
 6358TIP3   OH240632   3.079   6.698   1.754  0.5794 -0.5188  0.4254
 6358TIP3    H140633   3.058   6.680   1.846  0.1392  1.7165  0.8337
 6358TIP3    H240634   3.019   6.769   1.730 -0.3262 -2.0180 -2.0798
 6359TIP3   OH240635   4.266   3.194   0.786  0.1505 -0.3421  0.5760
 6359TIP3    H140636   4.211   3.272   0.783  0.0455 -0.4369 -0.9737
 6359TIP3    H240637   4.268   3.169   0.878 -4.1856 -1.5889  0.5464
 6360TIP3   OH240638   6.142   1.773   8.903  0.1841  0.3212  0.4503
 6360TIP3    H140639   6.051   1.743   8.901  0.1335  0.5285 -1.2421
 6360TIP3    H240640   6.151   1.828   8.826  1.8691 -0.0611  0.3432
 6361TIP3   OH240641   4.149   3.311   2.013  0.1237 -0.0286 -0.2840
 6361TIP3    H140642   4.160   3.217   2.019  0.5211  0.0336  0.0178
 6361TIP3    H240643   4.059   3.323   1.980  0.0172 -0.5043 -0.1735
 6362TIP3   OH240644   6.715   6.052   1.391 -0.0683  0.1741 -0.2203
 6362TIP3    H140645   6.670   5.992   1.451 -1.1386  1.0881 -0.0696
 6362TIP3    H240646   6.644   6.099   1.347  0.6651  2.6306  0.9891
 6363TIP3   OH240647   0.001   4.232   8.494  0.1174  0.2066 -0.5630
 6363TIP3    H140648   0.008   4.186   8.578 -1.1052  0.8202 -0.1104
 6363TIP3    H240649  -0.072   4.188   8.449  0.6346  0.0137 -1.2344
 6364TIP3   OH240650   4.526   5.440   8.748 -0.4520  0.3403  0.1755
 6364TIP3    H140651   4.618   5.455   8.769 -0.9008  0.0566  2.5414
 6364TIP3    H240652   4.528   5.370   8.682  1.0325  0.9316 -0.4640
 6365TIP3   OH240653   6.379   5.220   1.024 -0.1162  0.2861 -0.2330
 6365TIP3    H140654   6.370   5.159   0.951  0.7527  0.7146 -0.7075
 6365TIP3    H240655   6.464   5.262   1.011  0.5244 -0.3476  1.5746
 6366TIP3   OH240656   1.462   6.519   1.817  0.6153  0.5532  0.3294
 6366TIP3    H140657   1.432   6.563   1.737 -1.1940  1.7273  1.5613
 6366TIP3    H240658   1.382   6.506   1.868  1.2801 -2.9570  0.6845
 6367TIP3   OH240659   6.014   2.014   8.374  0.5878  0.0333  0.0164
 6367TIP3    H140660   6.050   2.002   8.462  0.8944 -0.0405 -0.1181
 6367TIP3    H240661   6.043   2.101   8.347  0.5198  0.0432 -0.0257
 6368TIP3   OH240662   0.706   4.134   7.877  0.1185 -0.1181 -0.7708
 6368TIP3    H140663   0.699   4.209   7.818 -1.8706 -0.2564 -0.7748
 6368TIP3    H240664   0.704   4.173   7.964 -1.7676 -0.1634 -0.7552
 6369TIP3   OH240665   0.647   1.673   3.293  0.1466  0.4515 -0.5912
 6369TIP3    H140666   0.635   1.762   3.261 -1.0919  0.3181 -0.5300
 6369TIP3    H240667   0.742   1.661   3.295  0.3261  1.7270 -0.7048
 6370TIP3   OH240668   4.699   2.171   0.532 -0.0038 -0.0791 -0.6219
 6370TIP3    H140669   4.656   2.241   0.581 -1.5467 -0.1455 -1.8132
 6370TIP3    H240670   4.776   2.213   0.493  1.2130 -0.0114  1.6990
 6371TIP3   OH240671   6.666   5.187   0.623  0.1264  0.3217  0.2987
 6371TIP3    H140672   6.720   5.244   0.679  1.2696  0.8183 -1.2241
 6371TIP3    H240673   6.652   5.239   0.544  0.2658 -1.0971 -0.6958
 6372TIP3   OH240674   4.047   1.815   2.990  0.6821 -0.3148 -0.5533
 6372TIP3    H140675   4.012   1.757   2.922 -1.6265  0.3671 -0.0099
 6372TIP3    H240676   3.985   1.809   3.062  1.3112  1.5076  0.2037
 6373TIP3   OH240677   5.985   1.213   3.046 -0.5802 -0.2035  0.2657
 6373TIP3    H140678   6.064   1.162   3.062 -0.5486 -1.5231 -3.2795
 6373TIP3    H240679   5.915   1.163   3.089  0.0084 -1.0567  0.2452
 6374TIP3   OH240680   3.074   3.248   8.730  0.3256 -0.1840  0.0247
 6374TIP3    H140681   3.001   3.200   8.768 -0.9249  1.6072  0.0151
 6374TIP3    H240682   3.151   3.220   8.781 -0.6160 -0.8954  1.1063
 6375TIP3   OH240683   4.360   3.723   7.973  0.4871  0.1936  0.6052
 6375TIP3    H140684   4.309   3.804   7.977 -0.6544 -0.4869  0.3628
 6375TIP3    H240685   4.445   3.746   8.011  0.0252  1.3763  0.9682
 6376TIP3   OH240686   0.778   4.989   2.072 -0.3912 -0.4888 -0.2079
 6376TIP3    H140687   0.828   4.972   2.152  0.3647  0.4263 -0.4702
 6376TIP3    H240688   0.766   4.902   2.033  0.3400 -0.8075  0.2482
 6377TIP3   OH240689   2.542   2.339   8.007  0.2629  0.0277  0.4694
 6377TIP3    H140690   2.580   2.335   7.919  0.8798  0.1074  0.7294
 6377TIP3    H240691   2.610   2.303   8.064 -0.3813 -0.6383  0.8401
 6378TIP3   OH240692   4.375   0.671   8.612 -0.3288 -0.9077  0.0391
 6378TIP3    H140693   4.427   0.613   8.558  1.1246  0.6207 -0.2889
 6378TIP3    H240694   4.339   0.736   8.551  1.3181  0.8256  0.8126
 6379TIP3   OH240695   2.305   1.066   7.851 -0.1859  0.3868 -0.1089
 6379TIP3    H140696   2.230   1.011   7.830  0.0522  0.2063 -0.4837
 6379TIP3    H240697   2.270   1.155   7.849 -1.0957  0.1898  2.5752
 6380TIP3   OH240698   1.691   5.862   0.427  0.0353 -0.0721 -0.2802
 6380TIP3    H140699   1.603   5.825   0.434 -0.3371  0.7642 -0.3858
 6380TIP3    H240700   1.683   5.949   0.466  0.6816  0.2166 -0.7876
 6381TIP3   OH240701   3.439   4.869   3.202 -0.0369 -0.3275 -0.2963
 6381TIP3    H140702   3.461   4.959   3.176 -1.5039  0.4630  0.9730
 6381TIP3    H240703   3.478   4.814   3.135 -0.6107  1.3620 -2.1143
 6382TIP3   OH240704   6.046   5.785   2.620 -0.2823 -0.3438  0.3641
 6382TIP3    H140705   6.136   5.758   2.601 -0.7633 -2.1643  0.5074
 6382TIP3    H240706   6.041   5.785   2.715 -0.4388 -0.2637  0.3557
 6383TIP3   OH240707   3.449   4.996   2.053  1.0128  0.1805 -0.1876
 6383TIP3    H140708   3.405   4.942   2.118  3.8768  0.0183  1.8107
 6383TIP3    H240709   3.489   4.934   1.993  0.1062  0.2811 -0.9192
 6384TIP3   OH240710   1.440   4.242   1.045 -0.0549  0.2526 -0.4124
 6384TIP3    H140711   1.362   4.225   1.098  0.1483  1.8232  0.4306
 6384TIP3    H240712   1.513   4.235   1.107  0.2327  1.5275 -0.5856
 6385TIP3   OH240713   6.114   2.528   1.879  0.3637  0.1330 -0.2769
 6385TIP3    H140714   6.021   2.546   1.861  0.2811 -0.0438 -0.0350
 6385TIP3    H240715   6.148   2.493   1.797  0.0200 -0.5487 -0.1368
 6386TIP3   OH240716   0.290   2.786   2.475 -1.1253  0.0765  0.0765
 6386TIP3    H140717   0.220   2.754   2.532 -1.7528  1.0785 -0.0885
 6386TIP3    H240718   0.276   2.740   2.392 -0.7172 -0.7720  0.4765
 6387TIP3   OH240719   1.432   2.492   8.810 -0.0151  0.7909 -0.5165
 6387TIP3    H140720   1.425   2.451   8.897  2.3126 -0.4344 -0.8346
 6387TIP3    H240721   1.354   2.463   8.764 -0.6640  0.4334  0.7549
 6388TIP3   OH240722   3.060   0.678   1.890  0.3173  0.3809  0.1751
 6388TIP3    H140723   3.055   0.745   1.821  0.9527  0.1194 -0.1281
 6388TIP3    H240724   3.003   0.608   1.858 -0.2288  0.6995  0.4216
 6389TIP3   OH240725   6.672   4.249   2.097  0.9014  0.1066 -0.4219
 6389TIP3    H140726   6.691   4.156   2.108 -1.1331 -0.2993  0.1687
 6389TIP3    H240727   6.694   4.288   2.182 -1.1565 -0.4459  0.4329
 6390TIP3   OH240728   6.443   0.642   0.927 -0.2651 -0.1756 -0.4722
 6390TIP3    H140729   6.379   0.572   0.931 -0.9999  0.5444  1.2274
 6390TIP3    H240730   6.431   0.681   0.840  0.0650 -1.9980 -1.3967
 6391TIP3   OH240731   5.309   1.606   3.809 -0.5542  0.0967 -0.2352
 6391TIP3    H140732   5.376   1.537   3.810 -0.9332 -0.2719 -0.1141
 6391TIP3    H240733   5.226   1.559   3.807 -0.8599  0.5268  1.3064
 6392TIP3   OH240734   3.815   4.115   0.666  0.0898  0.1213  0.0992
 6392TIP3    H140735   3.831   4.021   0.658  0.0074  0.0518  0.7349
 6392TIP3    H240736   3.856   4.140   0.748  0.6276  0.7627 -0.3528
 6393TIP3   OH240737   2.240   6.212   1.713 -0.2262 -0.2916  0.0384
 6393TIP3    H140738   2.179   6.185   1.781  0.6791 -1.0275  0.5915
 6393TIP3    H240739   2.319   6.237   1.760 -0.1494  0.8353 -0.6472
 6394TIP3   OH240740   2.705   3.822   0.459  0.0853  0.2403  0.1354
 6394TIP3    H140741   2.748   3.746   0.419 -0.4489  0.6947 -1.3764
 6394TIP3    H240742   2.635   3.784   0.513  0.5842 -0.3880  0.3458
 6395TIP3   OH240743   3.260   4.991   8.278 -0.4193 -0.1455  0.5299
 6395TIP3    H140744   3.200   4.965   8.208 -2.0415 -0.0866  1.8060
 6395TIP3    H240745   3.347   4.979   8.242 -1.1729  1.0665 -1.8975
 6396TIP3   OH240746   0.414   4.290   0.056 -0.2533  0.5474 -0.7230
 6396TIP3    H140747   0.492   4.249   0.092 -0.4501  0.9025  0.1463
 6396TIP3    H240748   0.447   4.353  -0.009  0.0921 -0.2864 -1.3721
 6397TIP3   OH240749   0.445   2.615   1.073 -0.0312  0.0610 -0.2617
 6397TIP3    H140750   0.505   2.683   1.043 -1.2238  1.4212  0.3404
 6397TIP3    H240751   0.359   2.643   1.042 -0.4754 -1.5075 -0.5290
 6398TIP3   OH240752   2.043   5.155   3.230 -0.7420  0.9710  0.0458
 6398TIP3    H140753   2.121   5.133   3.281 -0.2102  1.5594 -0.4732
 6398TIP3    H240754   1.988   5.205   3.290 -1.8871 -1.4840  1.1804
 6399TIP3   OH240755   0.039   1.137   0.558  0.2202 -0.1852  0.1243
 6399TIP3    H140756   0.084   1.220   0.573 -1.4511  0.7618  0.1769
 6399TIP3    H240757   0.032   1.131   0.462  1.5782 -0.9820  0.0614
 6400TIP3   OH240758   3.787   1.743   2.430 -0.4459 -0.4946 -0.0591
 6400TIP3    H140759   3.859   1.756   2.491 -1.2112  0.8920  0.5984
 6400TIP3    H240760   3.810   1.664   2.382  2.0218  0.4787 -0.6246
 6401TIP3   OH240761   0.638   3.465   2.216  0.2828  0.1368  0.6566
 6401TIP3    H140762   0.578   3.453   2.290 -1.2129  1.3342 -0.3053
 6401TIP3    H240763   0.592   3.524   2.157  2.1077  0.4712 -0.5142
 6402TIP3   OH240764   3.255   0.232   8.083  0.3266 -0.4666  0.1129
 6402TIP3    H140765   3.298   0.316   8.067 -0.9293  0.5423  1.7167
 6402TIP3    H240766   3.270   0.214   8.175 -3.4063  0.4987  1.0871
 6403TIP3   OH240767   6.594   0.183   0.728 -0.2791  0.2973 -0.3708
 6403TIP3    H140768   6.535   0.118   0.767 -0.9417  0.4927 -1.0185
 6403TIP3    H240769   6.675   0.174   0.778 -1.4374  1.3460  1.8728
 6404TIP3   OH240770   3.961   4.269   0.850  0.1997 -0.3438  0.2410
 6404TIP3    H140771   3.968   4.305   0.762  0.0218 -0.3217  0.2350
 6404TIP3    H240772   4.051   4.254   0.877  0.2547 -0.3676  0.0485
 6405TIP3   OH240773   3.016   2.497   8.841 -0.0940  0.4211  0.1015
 6405TIP3    H140774   2.942   2.556   8.829 -0.5500 -0.1316  0.1861
 6405TIP3    H240775   2.982   2.425   8.894 -0.4666 -1.6164 -2.6689
 6406TIP3   OH240776   3.335   3.623   8.507 -0.2274  0.0274  0.2825
 6406TIP3    H140777   3.342   3.550   8.569 -0.8445  0.7501  1.2206
 6406TIP3    H240778   3.315   3.581   8.423  1.9517 -1.0747  0.2376
 6407TIP3   OH240779   2.573   3.168   2.702 -0.1989  0.4949 -0.7503
 6407TIP3    H140780   2.589   3.084   2.659 -0.6430  0.4245 -0.7746
 6407TIP3    H240781   2.481   3.166   2.727 -0.0452  0.7031 -0.1552
 6408TIP3   OH240782   0.467   4.212   0.545  0.3590 -0.5845  0.5401
 6408TIP3    H140783   0.533   4.278   0.566 -0.3091  0.2414  0.0859
 6408TIP3    H240784   0.467   4.154   0.622  1.4933 -0.5222  0.6142
 6409TIP3   OH240785   4.888   4.149   0.856 -0.2009  0.0913 -0.2282
 6409TIP3    H140786   4.926   4.150   0.768  1.1133 -1.3749  0.2848
 6409TIP3    H240787   4.906   4.062   0.889 -2.0863  0.0776  0.9302
 6410TIP3   OH240788   3.123   4.733   0.119 -0.4549 -0.3621  0.0138
 6410TIP3    H140789   3.154   4.696   0.201  0.6665 -0.5365 -0.4788
 6410TIP3    H240790   3.163   4.680   0.051 -1.4431 -0.2735 -0.6563
 6411TIP3   OH240791   3.550   6.124   8.343 -0.2698 -0.4404  0.4631
 6411TIP3    H140792   3.513   6.193   8.288 -0.2483  0.3481  1.4067
 6411TIP3    H240793   3.623   6.089   8.292  0.0275  0.5772  0.1747
 6412TIP3   OH240794   0.007   5.912   0.652  0.3307  0.0183 -0.0147
 6412TIP3    H140795  -0.043   5.873   0.580  0.7166 -2.9001  1.1534
 6412TIP3    H240796  -0.058   5.938   0.716  0.1350 -0.3583 -0.0595
 6413TIP3   OH240797   0.324   2.054   0.455 -0.3318 -0.2281  0.4791
 6413TIP3    H140798   0.390   2.121   0.440  1.4978 -1.5021  2.2069
 6413TIP3    H240799   0.327   1.998   0.377 -0.7681  0.7782 -0.2774
 6414TIP3   OH240800   6.534   3.352   1.921 -0.0247  0.5678 -0.1287
 6414TIP3    H140801   6.567   3.350   1.832  0.7809 -0.4599  0.1709
 6414TIP3    H240802   6.470   3.423   1.922  0.2752  0.8701 -1.4013
 6415TIP3   OH240803   0.740   6.166   0.225 -0.3840  0.8339  0.2170
 6415TIP3    H140804   0.814   6.118   0.262  0.6249  2.7401  0.7916
 6415TIP3    H240805   0.752   6.159   0.130 -0.5756 -0.4830  0.2742
 6416TIP3   OH240806   5.878   3.262   1.263  0.5892  0.2383  0.0720
 6416TIP3    H140807   5.828   3.343   1.270  2.3344  1.3215  0.4570
 6416TIP3    H240808   5.859   3.215   1.344  1.3702  1.3591  0.9308
 6417TIP3   OH240809   4.152   3.972   8.935 -0.0272  0.1657 -0.0489
 6417TIP3    H140810   4.125   4.042   8.876 -0.7308  1.7382  2.0074
 6417TIP3    H240811   4.074   3.917   8.944 -0.2174  0.4613  0.1357
 6418TIP3   OH240812   4.651   2.118   2.892  0.7457 -0.4950 -0.9296
 6418TIP3    H140813   4.737   2.151   2.915  0.8118 -2.2064  1.7611
 6418TIP3    H240814   4.662   2.023   2.888 -1.0928 -0.8159  0.1824
 6419TIP3   OH240815   1.513   3.208   0.616  0.3333  0.1377 -0.0045
 6419TIP3    H140816   1.422   3.213   0.645  0.6792  0.3263  1.0825
 6419TIP3    H240817   1.516   3.129   0.563 -0.0914 -0.8549  1.3831
 6420TIP3   OH240818   6.190   1.930   2.649  0.1624 -0.1482 -0.4099
 6420TIP3    H140819   6.262   1.991   2.664  0.0289  0.4918 -2.1248
 6420TIP3    H240820   6.115   1.986   2.628 -0.6242 -0.8386  0.4594
 6421TIP3   OH240821   2.300   1.633   0.994  0.2334  0.3376  0.2598
 6421TIP3    H140822   2.215   1.637   1.037  0.3095 -0.6241  0.5179
 6421TIP3    H240823   2.351   1.571   1.047 -0.0609 -1.8424 -1.8385
 6422TIP3   OH240824   2.947   4.469   1.034 -0.3843 -0.1975 -0.4874
 6422TIP3    H140825   3.011   4.444   0.967 -0.5725 -1.7951 -0.0889
 6422TIP3    H240826   3.000   4.494   1.110 -0.1824  1.2828 -1.0644
 6423TIP3   OH240827   5.384   2.863   2.316 -0.3886  0.9085 -0.5565
 6423TIP3    H140828   5.305   2.817   2.286  0.4157 -0.8192 -0.1615
 6423TIP3    H240829   5.456   2.819   2.270  0.7447 -0.7463  2.5120
 6424TIP3   OH240830   3.218   0.564   1.543 -0.0251 -0.1989 -0.1593
 6424TIP3    H140831   3.148   0.506   1.573 -1.0026 -0.0723 -2.0757
 6424TIP3    H240832   3.288   0.505   1.515 -0.0097 -0.3625  0.2092
 6425TIP3   OH240833   1.681   0.697   8.603  0.2086  0.5301  0.1442
 6425TIP3    H140834   1.717   0.778   8.566  1.9954 -0.3561 -0.2071
 6425TIP3    H240835   1.758   0.651   8.637 -0.8413 -0.7672  0.8523
 6426TIP3   OH240836   0.943   0.972   1.428 -0.1773 -0.1949  0.5062
 6426TIP3    H140837   0.897   1.018   1.358  0.3399  0.8415  0.8274
 6426TIP3    H240838   1.004   1.037   1.463  0.5877 -1.1382  0.9625
 6427TIP3   OH240839   1.993   1.801   3.077  0.0710 -0.2573 -0.0073
 6427TIP3    H140840   1.967   1.889   3.050 -0.6607 -0.3948  0.2323
 6427TIP3    H240841   2.000   1.805   3.172  0.8091 -0.2604 -0.0539
 6428TIP3   OH240842   3.667   5.624   7.752  0.1469  0.1026  0.1037
 6428TIP3    H140843   3.713   5.540   7.748  1.2800  0.7463 -0.7861
 6428TIP3    H240844   3.695   5.671   7.674 -1.2782  0.9184  0.0451
 6429TIP3   OH240845   0.546   5.448   0.084  0.1821  0.2829  0.1247
 6429TIP3    H140846   0.459   5.488   0.082  0.3123  0.5521 -0.3867
 6429TIP3    H240847   0.574   5.456   0.175 -0.1625  0.5523  0.2110
 6430TIP3   OH240848   1.083   2.910   3.177 -0.0825 -0.1270 -0.2362
 6430TIP3    H140849   1.173   2.941   3.191 -0.7536  0.9799  2.3975
 6430TIP3    H240850   1.084   2.820   3.209  0.0662 -0.0765 -0.0951
 6431TIP3   OH240851   3.479   3.222   8.674  0.1253 -0.0154 -0.0303
 6431TIP3    H140852   3.561   3.271   8.666 -0.3529  0.7202 -0.5273
 6431TIP3    H240853   3.427   3.272   8.737  0.6290 -1.2954  1.4604
 6432TIP3   OH240854   4.182   5.718   2.157 -0.2163  0.4900  0.2246
 6432TIP3    H140855   4.243   5.774   2.109  2.0494 -0.0730  2.2781
 6432TIP3    H240856   4.182   5.636   2.107 -0.0782  0.8205 -0.3322
 6433TIP3   OH240857   3.475   2.648   0.345 -0.2004 -0.5401  0.0541
 6433TIP3    H140858   3.497   2.613   0.432 -0.5452 -3.7831 -1.0236
 6433TIP3    H240859   3.383   2.672   0.352  0.0441  0.1978  0.8549
 6434TIP3   OH240860   2.000   5.561   8.852  0.2722  0.1578 -0.1205
 6434TIP3    H140861   1.983   5.653   8.831 -0.8261  0.0136  0.1157
 6434TIP3    H240862   1.984   5.515   8.770  1.7800  0.2657 -0.5085
 6435TIP3   OH240863   4.904   1.557   1.025  0.2249  0.1912  0.9622
 6435TIP3    H140864   4.883   1.649   1.041 -0.8917  0.1816 -0.2632
 6435TIP3    H240865   4.840   1.508   1.076  0.8680  0.0680  1.6760
 6436TIP3   OH240866   3.989   1.050   2.535  0.3307 -0.0173 -0.1891
 6436TIP3    H140867   4.011   1.110   2.464  2.6505 -0.0013  0.4504
 6436TIP3    H240868   3.991   0.963   2.494 -0.3504  0.1287 -0.5445
 6437TIP3   OH240869   6.331   3.778   2.154 -0.2643 -0.0556 -0.2102
 6437TIP3    H140870   6.296   3.713   2.092  0.9922 -0.4964 -0.4881
 6437TIP3    H240871   6.298   3.750   2.239  2.2991 -2.6321  0.0605
 6438TIP3   OH240872   6.279   1.629   2.482 -0.2607 -0.8471  0.0004
 6438TIP3    H140873   6.341   1.592   2.419  0.7154 -0.6948  0.8425
 6438TIP3    H240874   6.194   1.597   2.454  0.5625 -4.6641  1.2203
 6439TIP3   OH240875   6.593   2.479   1.658  0.3684 -0.0901  0.2424
 6439TIP3    H140876   6.527   2.451   1.721 -0.2870  0.4031 -0.2142
 6439TIP3    H240877   6.650   2.537   1.707 -0.5695  0.8787  0.2096
 6440TIP3   OH240878   4.642   1.114   1.331 -0.1658 -0.5451 -0.6738
 6440TIP3    H140879   4.728   1.140   1.299 -0.5241 -0.4889 -1.6309
 6440TIP3    H240880   4.646   1.018   1.335  1.0401 -0.4916  2.5273
 6441TIP3   OH240881   3.668   3.601   2.054  0.5076 -0.3753  0.0335
 6441TIP3    H140882   3.612   3.650   1.993 -0.2598  1.3345  2.0008
 6441TIP3    H240883   3.757   3.625   2.028  0.2499 -0.6727 -1.1786
 6442TIP3   OH240884   4.282   1.259   0.007  0.4614 -0.3658  0.2351
 6442TIP3    H140885   4.191   1.240  -0.013  0.4225 -0.8637  0.8555
 6442TIP3    H240886   4.325   1.265  -0.079 -0.0231 -0.7998 -0.0412
 6443TIP3   OH240887   2.740   0.569   0.161  0.6242 -0.1278 -0.3018
 6443TIP3    H140888   2.651   0.536   0.149  0.9278 -1.1954  0.2273
 6443TIP3    H240889   2.756   0.560   0.255  0.9254  1.0522 -0.2224
 6444TIP3   OH240890   3.292   2.733   8.015  0.2201  0.3212 -0.4280
 6444TIP3    H140891   3.324   2.705   8.101  0.7935 -0.5891 -0.9313
 6444TIP3    H240892   3.205   2.693   8.008 -0.7410  2.0888  0.5711
 6445TIP3   OH240893   4.591   3.593   0.442 -0.4568 -0.5805 -0.0875
 6445TIP3    H140894   4.633   3.585   0.357 -0.2034 -1.3362  0.1020
 6445TIP3    H240895   4.503   3.625   0.423  0.0735  0.6749 -0.5152
 6446TIP3   OH240896   6.586   5.465   0.091 -0.1478 -0.5224  0.0856
 6446TIP3    H140897   6.497   5.498   0.083  0.3022  0.5219 -0.8468
 6446TIP3    H240898   6.612   5.444   0.001  0.7964 -0.1123  0.2490
 6447TIP3   OH240899   0.729   0.857   2.034  0.6612  0.5342  0.1152
 6447TIP3    H140900   0.740   0.826   1.944  1.3043  0.5716  0.1745
 6447TIP3    H240901   0.731   0.777   2.087 -2.0081  0.2673 -0.0587
 6448TIP3   OH240902   3.423   2.844   0.148 -0.6296  0.0266  0.4157
 6448TIP3    H140903   3.401   2.912   0.212 -0.8556  0.7800 -0.4406
 6448TIP3    H240904   3.422   2.762   0.198 -2.8788  0.3276  0.9925
 6449TIP3   OH240905   4.952   1.007   0.234  0.0871  0.3723 -0.1395
 6449TIP3    H140906   4.988   1.005   0.323 -0.2518 -0.6341 -0.0162
 6449TIP3    H240907   4.948   1.100   0.213  0.2501  0.6265  0.8690
 6450TIP3   OH240908   0.103   6.572   2.605  0.0453 -0.2442  0.1913
 6450TIP3    H140909   0.120   6.604   2.693  0.1193 -0.3957  0.2327
 6450TIP3    H240910   0.016   6.533   2.610  0.4020 -1.0468  0.4241
 6451TIP3   OH240911   4.072   1.892   1.942 -0.0140 -0.1353 -0.0590
 6451TIP3    H140912   4.164   1.917   1.937  0.2231 -1.2162 -1.9840
 6451TIP3    H240913   4.073   1.797   1.934 -1.3608 -0.0417 -1.8338
 6452TIP3   OH240914   1.154   1.668   0.820  0.1476 -0.1743 -0.4721
 6452TIP3    H140915   1.223   1.650   0.756  0.2246 -1.4680 -0.0503
 6452TIP3    H240916   1.182   1.621   0.899 -0.6275  0.2747  0.0816
 6453TIP3   OH240917   6.046   4.261   2.339  0.6631  0.3725 -0.7469
 6453TIP3    H140918   6.038   4.171   2.369  0.4047  0.5991 -0.1098
 6453TIP3    H240919   6.126   4.294   2.382  0.4423  0.6150 -0.5127
 6454TIP3   OH240920   4.354   0.762   2.971 -0.0776  0.1368  0.0010
 6454TIP3    H140921   4.395   0.681   3.002  0.8338 -0.6068 -2.8119
 6454TIP3    H240922   4.368   0.825   3.042  1.7976 -1.3979  1.1023
 6455TIP3   OH240923   6.169   3.438   0.400  0.7179 -0.7876  0.1395
 6455TIP3    H140924   6.235   3.385   0.444 -0.1065 -0.5874  1.6731
 6455TIP3    H240925   6.101   3.451   0.465 -0.2211  0.1397 -0.9790
 6456TIP3   OH240926   5.819   1.012   2.209 -0.7254  0.1524 -0.6267
 6456TIP3    H140927   5.860   0.970   2.133  2.2060 -0.2373  1.0090
 6456TIP3    H240928   5.768   0.942   2.249  0.2747 -0.5453 -0.5330
 6457TIP3   OH240929   0.540   3.665   0.826  0.0221 -0.1822 -0.8683
 6457TIP3    H140930   0.628   3.695   0.804 -0.6780  2.3706 -0.5135
 6457TIP3    H240931   0.551   3.614   0.906  1.0961  0.7597 -0.3969
 6458TIP3   OH240932   0.393   0.246   2.584 -0.1732 -0.1025  0.2946
 6458TIP3    H140933   0.406   0.195   2.664  0.4962 -1.2151 -0.5095
 6458TIP3    H240934   0.309   0.290   2.598  1.0317  1.6991  2.6335
 6459TIP3   OH240935   1.268   1.880   8.370 -0.1609 -0.5860 -0.2699
 6459TIP3    H140936   1.273   1.826   8.449  0.3299  0.6357  0.5615
 6459TIP3    H240937   1.357   1.882   8.336 -0.4140 -1.3002 -1.0052
 6460TIP3   OH240938   2.401   4.512   0.618 -0.0907  0.0730 -0.2345
 6460TIP3    H140939   2.384   4.427   0.576  1.1234  0.1583 -0.9647
 6460TIP3    H240940   2.460   4.492   0.690 -0.2153  0.2375 -0.0857
 6461TIP3   OH240941   0.953   1.906   0.585  0.3796  0.2344  0.1409
 6461TIP3    H140942   0.987   1.908   0.674 -1.1480  1.3477  0.7213
 6461TIP3    H240943   0.964   1.814   0.558  0.3450 -0.2513  1.6732
 6462TIP3   OH240944   1.076   5.632   7.775  0.1444 -0.1717  0.2642
 6462TIP3    H140945   1.086   5.727   7.765 -1.6684  0.3508  2.5136
 6462TIP3    H240946   1.108   5.614   7.864 -0.7801 -1.4327  0.3641
 6463TIP3   OH240947   2.493   0.935   8.372  0.0270  0.4772  0.1792
 6463TIP3    H140948   2.589   0.933   8.372  0.0683  1.5843 -0.2078
 6463TIP3    H240949   2.471   1.026   8.352 -1.1084  0.0702 -0.5158
 6464TIP3   OH240950   5.509   1.849   8.284  0.3655  0.1368  0.3295
 6464TIP3    H140951   5.495   1.782   8.351  0.8686  0.3273  0.6335
 6464TIP3    H240952   5.593   1.888   8.306  0.2217  0.6660 -0.0216
 6465TIP3   OH240953   3.337   5.127   1.401 -0.2186  0.2276  0.2410
 6465TIP3    H140954   3.413   5.105   1.347 -1.3968 -0.6639 -1.1401
 6465TIP3    H240955   3.351   5.218   1.427  1.8899 -0.2654  1.0535
 6466TIP3   OH240956   0.099   1.093   2.553  0.3465 -0.2395  0.1020
 6466TIP3    H140957   0.081   1.184   2.579  1.6230 -0.1429  0.7084
 6466TIP3    H240958   0.193   1.083   2.565  0.4420 -1.2436 -1.3130
 6467TIP3   OH240959   2.591   6.289   0.331  0.1223 -0.8410 -0.1064
 6467TIP3    H140960   2.670   6.326   0.291 -1.2596  0.6155 -1.6512
 6467TIP3    H240961   2.595   6.196   0.310  0.4179 -0.4381 -1.9763
 6468TIP3   OH240962   1.291   6.714   0.363 -0.3775 -0.0862  0.1265
 6468TIP3    H140963   1.318   6.635   0.316 -1.4821 -1.5450  1.7818
 6468TIP3    H240964   1.352   6.721   0.436 -0.2466  0.6329 -0.0506
 6469TIP3   OH240965   4.213   1.302   1.851 -0.1413 -0.1014  0.0421
 6469TIP3    H140966   4.196   1.371   1.915  0.5949  0.8532 -0.7528
 6469TIP3    H240967   4.128   1.284   1.812 -0.4994 -0.3005  0.8962
 6470TIP3   OH240968   0.841   4.074   0.824 -0.1202  0.4849 -0.0936
 6470TIP3    H140969   0.811   4.106   0.910 -2.3634 -0.8714 -0.2958
 6470TIP3    H240970   0.777   4.007   0.800  0.5366  0.7208 -2.7756
 6471TIP3   OH240971   5.252   2.128   0.441  0.4859  0.6609 -0.2060
 6471TIP3    H140972   5.224   2.218   0.425  0.1165  0.7404  0.8048
 6471TIP3    H240973   5.226   2.080   0.362 -1.7197  0.9120  0.2937
 6472TIP3   OH240974   3.866   5.968   2.468  0.3321  0.5000 -0.0069
 6472TIP3    H140975   3.890   5.935   2.381  1.0514  0.6357  0.1305
 6472TIP3    H240976   3.901   6.057   2.470  0.5274  0.4160  0.5086
 6473TIP3   OH240977   3.010   1.319   1.556 -0.2526  0.2737 -0.4622
 6473TIP3    H140978   2.983   1.283   1.472  1.1365 -0.4613 -0.6216
 6473TIP3    H240979   3.093   1.364   1.538  0.7569 -1.0373  0.7329
 6474TIP3   OH240980   5.307   0.769   1.549  0.1095 -0.1394 -0.1776
 6474TIP3    H140981   5.304   0.734   1.461  0.8018  2.4825 -1.3525
 6474TIP3    H240982   5.364   0.710   1.598 -1.1036 -2.2136 -1.1455
 6475TIP3   OH240983   5.647   2.537   7.849 -0.3874  0.7621  0.2431
 6475TIP3    H140984   5.600   2.454   7.854  0.3616  0.3858  1.8420
 6475TIP3    H240985   5.585   2.597   7.808 -2.0105  0.0861  1.5454
 6476TIP3   OH240986   0.773   6.246   2.130 -0.6149  0.3494 -0.9599
 6476TIP3    H140987   0.766   6.194   2.050  0.6599 -0.6946 -0.4293
 6476TIP3    H240988   0.783   6.181   2.200 -0.6180  1.2691 -0.0786
 6477TIP3   OH240989   4.746   0.249   0.091  0.0728  0.2572 -0.0612
 6477TIP3    H140990   4.834   0.211   0.095 -0.2867 -0.6753 -0.7857
 6477TIP3    H240991   4.732   0.271  -0.001 -0.8343 -0.5355 -0.1280
 6478TIP3   OH240992   3.548   1.136   7.324 -0.4781 -0.4930  0.1305
 6478TIP3    H140993   3.604   1.167   7.395 -1.6024  2.7218 -0.2234
 6478TIP3    H240994   3.477   1.199   7.319 -2.6164 -2.8094 -1.3309
 6479TIP3   OH240995   6.068   3.765   1.952  0.0947 -0.3443 -0.2159
 6479TIP3    H140996   6.125   3.774   1.875 -0.6401 -0.1528 -0.7444
 6479TIP3    H240997   5.991   3.720   1.920 -0.0319 -0.6624  0.5152
 6480TIP3   OH240998   5.500   0.060   1.159 -0.2554 -0.3441 -0.3109
 6480TIP3    H140999   5.420   0.101   1.191  0.3150  0.5050  0.0642
 6480TIP3    H241000   5.470  -0.007   1.097 -1.2634 -0.3501  0.1717
 6481TIP3   OH241001   0.826   3.699   2.093  0.2885 -0.4384  0.7106
 6481TIP3    H141002   0.816   3.610   2.058  1.9208 -0.4311  0.1186
 6481TIP3    H241003   0.737   3.727   2.114 -0.4496 -1.5385 -0.7694
 6482TIP3   OH241004   5.446   0.463   2.747 -0.1663  1.0992  0.4441
 6482TIP3    H141005   5.492   0.543   2.721  0.3356  0.3007 -1.2615
 6482TIP3    H241006   5.507   0.417   2.804  1.2828  0.0157 -1.8588
 6483TIP3   OH241007   5.696   6.382   8.599  0.0761 -0.2567 -0.4146
 6483TIP3    H141008   5.775   6.350   8.642 -0.3618  0.9820  1.4293
 6483TIP3    H241009   5.643   6.304   8.586  1.4269 -1.0639 -1.3964
 6484TIP3   OH241010   3.729   6.428   2.158 -0.9269 -0.6034 -0.2212
 6484TIP3    H141011   3.708   6.382   2.077 -1.8343 -0.3362 -0.1534
 6484TIP3    H241012   3.689   6.515   2.148 -1.1593 -0.6095  0.5615
 6485TIP3   OH241013   3.271   4.025   7.453 -0.0969 -0.7703 -0.9510
 6485TIP3    H141014   3.196   3.967   7.465 -0.4402 -0.1647 -0.1038
 6485TIP3    H241015   3.273   4.079   7.532 -0.3739  1.0385 -2.1402
 6486TIP3   OH241016   1.333   0.823   1.283 -0.1818 -0.1703  0.1901
 6486TIP3    H141017   1.407   0.811   1.341 -0.0935 -1.5186 -0.1538
 6486TIP3    H241018   1.359   0.779   1.202 -0.1512  1.9622 -1.0290
 6487TIP3   OH241019   0.588   1.104   1.510 -0.6133  0.1856  0.2101
 6487TIP3    H141020   0.607   1.010   1.506  2.9384  0.7179  0.7468
 6487TIP3    H241021   0.617   1.137   1.425 -1.5220  0.8777  0.1563
 6488TIP3   OH241022   0.783   3.719   1.246 -0.0660 -0.5257 -0.0243
 6488TIP3    H141023   0.771   3.761   1.161  1.0723 -2.0318 -0.9812
 6488TIP3    H241024   0.697   3.726   1.288 -0.5386  0.6162 -1.0997
 6489TIP3   OH241025   3.398   5.264   8.797  0.6584 -0.3247  0.1196
 6489TIP3    H141026   3.353   5.275   8.881  1.3933 -0.2982  0.5272
 6489TIP3    H241027   3.404   5.169   8.785 -0.2744 -0.3282 -0.3709
 6490TIP3   OH241028   4.751   3.965   7.804  0.0444  0.3523 -1.0567
 6490TIP3    H141029   4.717   4.051   7.779 -0.8563 -0.5198 -3.0502
 6490TIP3    H241030   4.771   3.922   7.721 -0.4326 -1.7130 -0.1643
 6491TIP3   OH241031   2.450   1.868   2.542  0.2760 -0.0049  0.0996
 6491TIP3    H141032   2.459   1.846   2.449 -1.4496 -2.1731  0.3625
 6491TIP3    H241033   2.505   1.804   2.587  1.1275  1.0521  0.6157
 6492TIP3   OH241034   0.129   0.055   0.479 -0.0762 -0.3343  0.6297
 6492TIP3    H141035   0.069   0.113   0.526  0.2869 -0.4451  1.2376
 6492TIP3    H241036   0.091  -0.032   0.489 -2.0984  0.0234 -2.5302
 6493TIP3   OH241037   6.038   0.301   1.557 -0.0963  0.1200  0.0654
 6493TIP3    H141038   6.048   0.206   1.549 -0.4111  0.0759  0.1774
 6493TIP3    H241039   6.112   0.337   1.508 -1.3375 -0.1554 -2.1719
 6494TIP3   OH241040   5.821   5.320   3.444  0.7749 -0.3982  0.2776
 6494TIP3    H141041   5.785   5.272   3.518  1.9639 -0.1283  1.0783
 6494TIP3    H241042   5.832   5.255   3.376 -0.7562 -0.5646  0.1688
 6495TIP3   OH241043   5.980   2.552   0.359  0.2629  0.0933  0.6232
 6495TIP3    H141044   5.952   2.487   0.424 -1.2561 -0.9104 -0.9421
 6495TIP3    H241045   6.034   2.614   0.408  0.6628 -1.6102  2.4533
 6496TIP3   OH241046   3.212   1.541   0.755  0.0327 -0.2516 -0.0099
 6496TIP3    H141047   3.184   1.614   0.811 -0.7265 -1.6470  1.5222
 6496TIP3    H241048   3.293   1.511   0.794  1.7747  1.3035 -2.1590
 6497TIP3   OH241049   0.896   5.298   2.275 -0.3429 -0.6098 -0.6016
 6497TIP3    H141050   0.837   5.353   2.327  0.4879 -0.5942  0.3635
 6497TIP3    H241051   0.933   5.236   2.339  2.1814  0.6416 -0.7495
 6498TIP3   OH241052   3.202   3.841   8.242 -0.0033  0.1471  0.3176
 6498TIP3    H141053   3.137   3.869   8.306  1.0012 -1.6817  2.2243
 6498TIP3    H241054   3.163   3.764   8.200  0.5564 -0.4438  0.8655
 6499TIP3   OH241055   5.228   3.473   3.469 -0.1644 -0.2661  0.1900
 6499TIP3    H141056   5.236   3.525   3.549 -0.1001  0.5425 -0.3238
 6499TIP3    H241057   5.298   3.507   3.412 -1.1357  0.2157 -0.7598
 6500TIP3   OH241058   5.910   0.903   0.456  0.0811 -0.1285  0.4926
 6500TIP3    H141059   5.990   0.952   0.474 -0.0889 -0.4091  2.1895
 6500TIP3    H241060   5.841   0.952   0.502 -0.4452 -0.7820  0.4148
 6501TIP3   OH241061   1.490   0.519   8.096 -0.1385 -0.4279  0.1736
 6501TIP3    H141062   1.474   0.462   8.171  0.5761 -0.8257  0.0346
 6501TIP3    H241063   1.531   0.461   8.031  0.4279  0.2100 -0.0377
 6502TIP3   OH241064   2.293   0.452   8.229 -0.4303  0.0833 -0.4291
 6502TIP3    H141065   2.308   0.545   8.213 -0.6006  0.1425 -0.2447
 6502TIP3    H241066   2.199   0.446   8.245 -0.2124  0.0629  0.8889
 6503TIP3   OH241067   3.260   2.326   0.627  0.0285 -0.8788  0.0550
 6503TIP3    H141068   3.348   2.318   0.663  0.1846 -1.1120 -0.3754
 6503TIP3    H241069   3.210   2.256   0.670  0.3375 -1.4742 -0.5410
 6504TIP3   OH241070   0.696   5.915   8.597  0.4263  0.4141 -0.3637
 6504TIP3    H141071   0.643   5.858   8.541  0.9238  1.1818 -1.6749
 6504TIP3    H241072   0.781   5.920   8.553  0.8220  1.0669  0.4473
 6505TIP3   OH241073   1.348   5.774   7.955 -0.3722  0.5805  0.5278
 6505TIP3    H141074   1.298   5.843   7.912 -0.7345  0.6469  1.0462
 6505TIP3    H241075   1.286   5.702   7.966 -0.7743  1.1237  2.3343
 6506TIP3   OH241076   3.636   0.424   2.129  0.2111 -0.7995  0.8077
 6506TIP3    H141077   3.699   0.497   2.133 -0.8332  0.2569 -0.7504
 6506TIP3    H241078   3.650   0.386   2.042 -1.6560 -0.1463  0.1629
 6507TIP3   OH241079   2.131   1.757   1.236  0.6863  0.4267  0.5890
 6507TIP3    H141080   2.179   1.839   1.244  1.8617 -0.1078 -0.5642
 6507TIP3    H241081   2.053   1.779   1.185  0.2295  1.0838  1.5320
 6508TIP3   OH241082   3.548   5.422   2.122  0.1532 -0.4034  0.3926
 6508TIP3    H141083   3.635   5.384   2.132  0.1955 -0.3767  0.1280
 6508TIP3    H241084   3.494   5.375   2.185  0.2604 -0.7342  0.2371
 6509TIP3   OH241085   2.552   5.411   2.329 -0.2709  0.9441 -0.0537
 6509TIP3    H141086   2.620   5.345   2.348 -0.7164  0.7396  0.9046
 6509TIP3    H241087   2.472   5.374   2.366 -0.7151  1.6142 -0.3327
 6510TIP3   OH241088   4.153   3.567   8.026 -0.3565 -0.6831 -0.3663
 6510TIP3    H141089   4.176   3.501   8.090 -1.5468  0.4885  1.3506
 6510TIP3    H241090   4.237   3.598   7.992  0.3597 -0.5884  1.4174
 6511TIP3   OH241091   4.420   2.408   1.407 -0.0794 -0.3671  0.2821
 6511TIP3    H141092   4.491   2.362   1.454 -0.4979 -0.8858  0.4129
 6511TIP3    H241093   4.369   2.449   1.477 -1.0401 -1.6179  0.3434
 6512TIP3   OH241094   0.455   3.557   0.002 -0.5729 -0.2634 -0.3350
 6512TIP3    H141095   0.514   3.631  -0.005 -1.2028  0.1860 -1.1269
 6512TIP3    H241096   0.374   3.594   0.037  0.0329 -1.1280  2.1495
 6513TIP3   OH241097   1.520   2.375   3.516 -0.0182 -0.2912  0.1431
 6513TIP3    H141098   1.502   2.438   3.586  1.1551  1.6307 -1.2125
 6513TIP3    H241099   1.437   2.364   3.471 -0.0344  1.0273 -0.1734
 6514TIP3   OH241100   2.231   1.848   0.023 -0.6891 -0.5177 -0.5155
 6514TIP3    H141101   2.240   1.943   0.011 -2.3994 -0.3051 -0.3613
 6514TIP3    H241102   2.316   1.813  -0.004 -0.0582  1.0403 -0.6948
 6515TIP3   OH241103   1.743   5.242   1.875 -0.4658  0.0749  0.6142
 6515TIP3    H141104   1.781   5.302   1.939  1.0386 -0.9874  0.7812
 6515TIP3    H241105   1.749   5.290   1.792 -0.0816  0.4948  0.8752
 6516TIP3   OH241106   5.597   3.831   7.984 -0.1696  0.6455  0.0368
 6516TIP3    H141107   5.541   3.869   8.051  3.1756  0.0755  3.5160
 6516TIP3    H241108   5.642   3.906   7.945 -0.5115  0.8515  0.0388
 6517TIP3   OH241109   1.272   1.477   1.790 -0.2161  0.5521 -0.1795
 6517TIP3    H141110   1.280   1.422   1.868 -1.0207 -1.5344 -1.4768
 6517TIP3    H241111   1.360   1.510   1.775  0.3324 -0.4963  0.5883
 6518TIP3   OH241112   3.185   3.907   8.767  0.3526 -0.1064 -0.9694
 6518TIP3    H141113   3.129   3.981   8.742  0.3847 -0.2001 -1.3219
 6518TIP3    H241114   3.132   3.829   8.747 -0.2325 -0.1729  0.6915
 6519TIP3   OH241115   0.990   2.671   1.814 -0.5668  0.3032  0.2650
 6519TIP3    H141116   1.082   2.678   1.787 -0.4283  0.8143  0.8378
 6519TIP3    H241117   0.951   2.611   1.750  0.5125 -1.1727  0.9391
 6520TIP3   OH241118   2.859   5.170   0.440  0.2916  0.2249  0.0164
 6520TIP3    H141119   2.896   5.086   0.468  0.5117  0.5986  0.8515
 6520TIP3    H241120   2.802   5.146   0.366  1.8784 -0.4025 -1.0770
 6521TIP3   OH241121   3.711   2.192   2.626 -0.0400 -0.2968 -0.2662
 6521TIP3    H141122   3.691   2.136   2.552 -0.0700 -0.6990  0.0449
 6521TIP3    H241123   3.769   2.260   2.590  0.7346 -1.0446 -0.4522
 6522TIP3   OH241124   0.093   3.681   1.272  0.0124 -0.0150 -0.4411
 6522TIP3    H141125   0.106   3.756   1.329  1.1179 -0.2070 -0.4204
 6522TIP3    H241126   0.181   3.649   1.254 -0.4129 -0.9505 -0.9264
 6523TIP3   OH241127   1.524   3.907   8.851 -0.1236  0.0431  0.4750
 6523TIP3    H141128   1.561   3.995   8.854 -2.2044  1.0548 -0.8540
 6523TIP3    H241129   1.561   3.862   8.927  1.2875  1.9347  0.9698
 6524TIP3   OH241130   5.196   1.729   0.620  0.1789  0.1581  0.4005
 6524TIP3    H141131   5.160   1.817   0.609  0.4347  0.1376 -0.7080
 6524TIP3    H241132   5.285   1.743   0.652 -0.3580  0.2392  1.9397
 6525TIP3   OH241133   2.370   5.882   1.845 -1.1370 -0.6077 -0.2124
 6525TIP3    H141134   2.437   5.913   1.905 -0.7539 -0.4014 -0.7332
 6525TIP3    H241135   2.415   5.872   1.761 -1.5463 -1.3483 -0.3618
 6526TIP3   OH241136   0.681   1.326   1.699 -0.2529  0.0698  0.6537
 6526TIP3    H141137   0.746   1.282   1.754 -0.8480 -2.6652 -0.6636
 6526TIP3    H241138   0.689   1.283   1.614 -0.9755  2.5460 -0.7600
 6527TIP3   OH241139   5.145   4.876   0.608  0.0709  0.2079 -0.0177
 6527TIP3    H141140   5.135   4.931   0.685 -1.4415  0.6988 -0.5321
 6527TIP3    H241141   5.069   4.818   0.609 -0.0638  0.3382 -1.2271
 6528TIP3   OH241142   1.554   5.963   8.207  0.5838  0.1316 -0.0568
 6528TIP3    H141143   1.500   5.984   8.131  1.6201  0.6934 -0.6513
 6528TIP3    H241144   1.566   5.868   8.203  0.4477  0.1323 -0.4627
 6529TIP3   OH241145   3.434   0.572   1.874 -0.1510  0.1078 -0.4508
 6529TIP3    H141146   3.512   0.618   1.843 -0.8006 -0.1932 -2.7046
 6529TIP3    H241147   3.387   0.636   1.927  0.0488  1.3390 -1.7176
 6530TIP3   OH241148   2.575   2.681   3.241  0.4174  0.1994  0.0911
 6530TIP3    H141149   2.500   2.624   3.253  0.9232 -0.0435  2.6904
 6530TIP3    H241150   2.647   2.622   3.217  0.2709  0.1534 -0.2383
 6531TIP3   OH241151   5.291   4.931   3.345  0.1019  0.0373 -0.0646
 6531TIP3    H141152   5.237   4.973   3.412  0.9894  0.3828  0.4516
 6531TIP3    H241153   5.262   4.971   3.263 -0.6279 -0.0042  0.1662
 6532TIP3   OH241154   5.148   0.298   1.224  0.0811 -0.4650  0.1257
 6532TIP3    H141155   5.154   0.380   1.272  1.1522 -0.5322  0.1433
 6532TIP3    H241156   5.055   0.278   1.221 -0.4066  1.6185 -1.3396
 6533TIP3   OH241157   4.831   0.661   8.257  0.4310 -0.3530  0.0526
 6533TIP3    H141158   4.845   0.607   8.179  0.6058 -1.5412  0.8722
 6533TIP3    H241159   4.777   0.606   8.314  0.2550  0.5186  0.7397
 6534TIP3   OH241160   0.896   1.532   1.110 -0.0726 -0.6835  0.6001
 6534TIP3    H141161   0.943   1.461   1.153  0.8113 -0.9200 -0.7074
 6534TIP3    H241162   0.873   1.498   1.024  1.6541  1.0258 -0.6505
 6535TIP3   OH241163   5.610   1.633   0.529  0.6211  0.5608 -0.0597
 6535TIP3    H141164   5.704   1.636   0.548  0.5384 -1.0506  0.8715
 6535TIP3    H241165   5.572   1.701   0.584  1.2924  1.7274 -0.9898
 6536TIP3   OH241166   5.550   3.136   3.319 -0.5913 -0.1442  0.0177
 6536TIP3    H141167   5.551   3.174   3.231 -0.1598  1.3094  0.6185
 6536TIP3    H241168   5.602   3.056   3.311 -0.1357  0.2231 -0.9412
 6537TIP3   OH241169   3.051   2.153   3.322 -0.0789 -0.2722 -0.5242
 6537TIP3    H141170   3.126   2.159   3.382  0.4327  0.7366 -1.2175
 6537TIP3    H241171   3.035   2.244   3.296 -0.5170 -0.6533 -1.6306
 6538TIP3   OH241172   4.524   1.222   3.044 -0.6791 -0.5157  0.2794
 6538TIP3    H141173   4.562   1.306   3.071 -1.1990  0.3282 -1.4413
 6538TIP3    H241174   4.588   1.157   3.072  1.1612  0.6990 -0.8717
 6539TIP3   OH241175   4.305   5.761   0.671 -0.4689  0.3309  0.0764
 6539TIP3    H141176   4.322   5.766   0.765  0.3257 -0.2644 -0.0268
 6539TIP3    H241177   4.391   5.765   0.630 -0.8243  0.8677 -0.6492
 6540TIP3   OH241178   4.711   2.099   7.164  0.0865  0.3900 -0.1164
 6540TIP3    H141179   4.754   2.027   7.210  1.0159  1.3619  0.5809
 6540TIP3    H241180   4.688   2.063   7.078 -1.6745 -1.4741  1.0358
 6541TIP3   OH241181   4.976   5.232   1.328 -0.1628  0.2724 -0.3094
 6541TIP3    H141182   4.920   5.184   1.388  0.3474  0.1810  0.0969
 6541TIP3    H241183   4.917   5.260   1.257 -1.0592  1.6193  0.9186
 6542TIP3   OH241184   3.783   1.266   2.821 -0.1571  0.3555 -0.0140
 6542TIP3    H141185   3.783   1.252   2.916 -0.2946 -2.0086 -0.3207
 6542TIP3    H241186   3.697   1.238   2.793  0.7555 -1.5181 -1.1284
 6543TIP3   OH241187   6.298   4.610   0.345  0.3049 -0.1588  0.6453
 6543TIP3    H141188   6.263   4.670   0.412 -0.6070 -0.5781  0.5589
 6543TIP3    H241189   6.388   4.639   0.333 -0.9119  3.3655 -1.7215
 6544TIP3   OH241190   3.423   4.365   3.203 -0.1154  0.3531  0.1803
 6544TIP3    H141191   3.392   4.438   3.256 -0.0441 -0.8444  1.9650
 6544TIP3    H241192   3.507   4.340   3.243  0.7744  0.4264 -1.5270
 6545TIP3   OH241193   0.463   1.091   0.642  0.0995  0.1594 -0.2739
 6545TIP3    H141194   0.544   1.044   0.626 -0.4409 -0.1978 -2.2394
 6545TIP3    H241195   0.474   1.175   0.597 -0.3663  0.3823  0.0111
 6546TIP3   OH241196   6.142   1.399   8.724 -0.2405 -0.8320  0.5140
 6546TIP3    H141197   6.055   1.382   8.760  0.7133 -0.5728  3.1139
 6546TIP3    H241198   6.194   1.426   8.799  1.5891  1.0484 -1.3096
 6547TIP3   OH241199   4.916   2.229   8.437 -0.1968 -0.0214 -0.1876
 6547TIP3    H141200   4.864   2.293   8.486  1.0784  0.6605  0.3228
 6547TIP3    H241201   4.999   2.274   8.421 -0.2258 -0.5827 -2.1418
 6548TIP3   OH241202   5.605   6.193   0.452 -0.1190 -0.1610 -0.1508
 6548TIP3    H141203   5.534   6.254   0.474 -0.4660 -0.1428 -1.3009
 6548TIP3    H241204   5.588   6.166   0.362  1.9233  0.6877 -0.8547
 6549TIP3   OH241205   5.597   2.520   1.745  0.0670  0.1031  0.1907
 6549TIP3    H141206   5.573   2.590   1.684  1.0763 -1.2425 -1.8466
 6549TIP3    H241207   5.674   2.554   1.791  0.0307  0.6594 -0.1465
 6550TIP3   OH241208   6.535   1.023   3.500  0.5413  0.2389 -0.1906
 6550TIP3    H141209   6.462   1.078   3.471  0.1360 -0.1270  0.1058
 6550TIP3    H241210   6.590   1.012   3.422  0.7909  1.2978 -0.1779
 6551TIP3   OH241211   2.827   3.786   2.016 -0.0466  0.5255  0.0368
 6551TIP3    H141212   2.877   3.739   1.950  1.1396 -1.0700  1.9548
 6551TIP3    H241213   2.872   3.871   2.024  0.1994  0.4726 -0.7052
 6552TIP3   OH241214   6.237   2.749   0.499 -0.1731  0.4610  0.1814
 6552TIP3    H141215   6.155   2.796   0.515 -1.3751 -1.2156 -0.6764
 6552TIP3    H241216   6.275   2.792   0.422 -0.3389  1.1393  0.4760
 6553TIP3   OH241217   1.292   2.007   0.312  0.5106  0.9201 -0.1737
 6553TIP3    H141218   1.274   2.053   0.230  0.8962  1.1681 -0.1238
 6553TIP3    H241219   1.315   1.918   0.285 -1.9543  0.2213 -0.1614
 6554TIP3   OH241220   1.867   2.663   1.459 -0.1886 -0.0723 -0.2931
 6554TIP3    H141221   1.940   2.605   1.438 -0.0911  0.6882 -2.2905
 6554TIP3    H241222   1.808   2.656   1.385 -1.7272  0.0284  0.8717
 6555TIP3   OH241223   4.846   0.960   0.555  0.3639  0.4462 -0.0175
 6555TIP3    H141224   4.790   0.938   0.481  2.3623 -0.8742 -1.2460
 6555TIP3    H241225   4.935   0.939   0.525  1.5225  2.2512  1.8818
 6556TIP3   OH241226   1.954   2.705   2.105  0.4526  0.1950  0.2154
 6556TIP3    H141227   1.889   2.702   2.034  1.3952  0.9408 -0.7297
 6556TIP3    H241228   1.938   2.789   2.148  0.0529 -0.1396  0.7265
 6557TIP3   OH241229   4.481   0.303   7.796 -0.4992 -0.0674  0.7302
 6557TIP3    H141230   4.552   0.263   7.846 -0.7269  0.4187  1.4604
 6557TIP3    H241231   4.401   0.271   7.838 -0.6816  1.2098  1.3860
 6558TIP3   OH241232   2.299   2.266   8.195  0.1299  0.1533 -0.5179
 6558TIP3    H141233   2.297   2.305   8.283 -0.7692 -0.5614 -0.1993
 6558TIP3    H241234   2.367   2.200   8.200  0.2429  0.2751 -0.4309
 6559TIP3   OH241235   2.689   2.530   7.295 -0.6555 -0.0621 -0.2356
 6559TIP3    H141236   2.773   2.501   7.331 -0.0317  1.8670 -0.0344
 6559TIP3    H241237   2.631   2.455   7.307  0.2638 -0.4832  2.2881
 6560TIP3   OH241238   0.712   3.093   2.618 -0.1990  0.4480  0.5468
 6560TIP3    H141239   0.678   3.166   2.670  0.0354  2.0931 -1.5170
 6560TIP3    H241240   0.637   3.036   2.605 -1.2444  1.9954 -0.5287
 6561TIP3   OH241241   4.195   1.619   0.208 -0.5747  0.4261  0.1679
 6561TIP3    H141242   4.273   1.574   0.177  0.3289  1.9007  0.2211
 6561TIP3    H241243   4.152   1.555   0.266  1.9688  0.4640  2.2586
 6562TIP3   OH241244   3.529   2.566   1.109 -0.2126  0.4980 -0.0837
 6562TIP3    H141245   3.577   2.584   1.028  0.7754  0.5340  0.4924
 6562TIP3    H241246   3.437   2.566   1.083  0.0453  1.2413 -1.0710
 6563TIP3   OH241247   1.657   0.266   7.486 -0.9363 -0.0456  0.3505
 6563TIP3    H141248   1.596   0.339   7.494  0.0366  0.7795  0.4580
 6563TIP3    H241249   1.701   0.263   7.571  0.3522  0.4647 -0.2701
 6564TIP3   OH241250   3.534   3.267   3.081 -0.4332 -0.4183 -0.2368
 6564TIP3    H141251   3.582   3.294   3.003  1.5149  1.3610  1.4367
 6564TIP3    H241252   3.585   3.196   3.118  1.1119  1.4826  1.5531
 6565TIP3   OH241253   0.239   5.539   7.946  0.1685  0.1236 -0.1570
 6565TIP3    H141254   0.196   5.454   7.948  0.8717 -0.3484 -2.1858
 6565TIP3    H241255   0.185   5.595   8.002 -1.9201 -0.9467 -0.9862
 6566TIP3   OH241256   5.809   5.302   1.135  0.1810  0.2390  0.2412
 6566TIP3    H141257   5.810   5.221   1.084  0.1874  0.9463 -0.9283
 6566TIP3    H241258   5.785   5.275   1.223 -0.4981 -0.9529 -0.2861
 6567TIP3   OH241259   3.283   4.257   2.355  0.1230 -0.1488 -0.6462
 6567TIP3    H141260   3.298   4.165   2.330 -1.1074  0.0778 -2.4028
 6567TIP3    H241261   3.195   4.258   2.392  0.0898  0.3332 -0.7340
 6568TIP3   OH241262   6.356   3.397   3.195 -0.4294  0.3481  0.0866
 6568TIP3    H141263   6.450   3.410   3.189 -0.4856  1.2960  1.0705
 6568TIP3    H241264   6.341   3.366   3.284 -1.0805  0.4164  0.0076
 6569TIP3   OH241265   6.561   1.857   3.080 -0.1633  0.0347  0.6380
 6569TIP3    H141266   6.517   1.932   3.040 -1.0993  0.9425  3.1485
 6569TIP3    H241267   6.490   1.794   3.096  0.2648 -0.5078  0.4246
 6570TIP3   OH241268   2.550   3.470   0.086  0.0624  0.1217 -0.4392
 6570TIP3    H141269   2.586   3.448  -0.000  0.6955  0.3225 -0.2317
 6570TIP3    H241270   2.593   3.409   0.146 -0.2657  0.0831 -0.2392
 6571TIP3   OH241271   4.557   1.023   8.379 -0.1612 -0.7840 -0.2984
 6571TIP3    H141272   4.608   1.095   8.343 -0.9132 -0.0760  0.0421
 6571TIP3    H241273   4.553   0.958   8.308  1.1065 -0.8096 -0.3664
 6572TIP3   OH241274   5.374   4.956   0.418  0.0552  0.1836  0.4733
 6572TIP3    H141275   5.341   4.943   0.507 -0.7844  2.5904  0.5780
 6572TIP3    H241276   5.298   4.979   0.366  0.4309 -1.7875 -1.0911
 6573TIP3   OH241277   1.671   1.964   1.021  0.3981  0.2182 -0.1714
 6573TIP3    H141278   1.644   1.900   0.955  1.8325  1.6941 -2.3342
 6573TIP3    H241279   1.600   2.028   1.023 -0.7872 -1.0793  1.5991
 6574TIP3   OH241280   0.109   2.161   0.764  0.6026 -0.0413  0.3991
 6574TIP3    H141281   0.057   2.098   0.715  2.1594 -1.1992  0.1634
 6574TIP3    H241282   0.059   2.243   0.758  0.9335  0.0454 -3.5149
 6575TIP3   OH241283   5.296   0.747   8.068 -0.1116  0.4408  0.1629
 6575TIP3    H141284   5.344   0.777   8.146  0.5521 -1.1863  0.4171
 6575TIP3    H241285   5.247   0.670   8.098  1.5949 -1.3537 -1.4156
 6576TIP3   OH241286   3.771   4.541   7.877  0.3891 -0.2205  0.2053
 6576TIP3    H141287   3.805   4.463   7.922  0.1569 -0.2769  0.2878
 6576TIP3    H241288   3.681   4.517   7.855  0.8048 -0.5674 -1.1816
 6577TIP3   OH241289   4.904   1.186   1.192  0.2370  0.3559  0.0888
 6577TIP3    H141290   4.925   1.094   1.208 -0.0243 -0.1572 -2.2231
 6577TIP3    H241291   4.886   1.191   1.099 -1.1017  2.5069  0.3901
 6578TIP3   OH241292   3.370   0.850   8.173 -0.3292 -0.0474 -0.2090
 6578TIP3    H141293   3.429   0.919   8.202 -2.2198  1.1151  1.0881
 6578TIP3    H241294   3.367   0.788   8.246 -1.0277  0.1219 -0.0884
 6579TIP3   OH241295   5.812   5.303   1.673 -0.0956 -0.5504  0.2449
 6579TIP3    H141296   5.731   5.290   1.624  0.4167 -1.5623 -0.3620
 6579TIP3    H241297   5.881   5.306   1.607  0.3415  0.7862  0.7126
 6580TIP3   OH241298   2.208   0.867   2.420 -0.1297 -0.2877 -0.4282
 6580TIP3    H141299   2.302   0.853   2.411 -0.2687 -0.6213 -1.4915
 6580TIP3    H241300   2.189   0.941   2.362  0.1278  2.6577  2.9211
 6581TIP3   OH241301   1.958   5.563   1.009  0.1955  0.0854 -0.3105
 6581TIP3    H141302   2.002   5.619   0.945 -2.2318  1.1884 -1.1404
 6581TIP3    H241303   2.024   5.546   1.076  2.4006  0.0836 -2.3525
 6582TIP3   OH241304   5.263   6.283   8.896 -0.0011  0.1465  0.6286
 6582TIP3    H141305   5.227   6.329   8.972  1.7551  0.5705  1.2324
 6582TIP3    H241306   5.332   6.341   8.863 -1.0400  0.2004 -1.6154
 6583TIP3   OH241307   3.649   4.618   2.649 -0.1245  0.4055 -0.0204
 6583TIP3    H141308   3.617   4.625   2.559 -0.3873 -0.0938  0.0283
 6583TIP3    H241309   3.625   4.529   2.676  2.4645 -0.4948 -0.4274
 6584TIP3   OH241310   6.543   4.432   0.439 -0.4230  0.3480  0.5972
 6584TIP3    H141311   6.538   4.510   0.494 -2.8010  0.1258  0.8241
 6584TIP3    H241312   6.545   4.466   0.349  2.2615  0.6849  0.7221
 6585TIP3   OH241313   1.411   5.467   0.636  0.2185  0.3365 -0.1806
 6585TIP3    H141314   1.334   5.415   0.660  0.8266 -0.0690  1.0105
 6585TIP3    H241315   1.419   5.456   0.542 -1.3980  0.7073 -0.3770
 6586TIP3   OH241316   0.338   5.629   0.142 -0.6612  0.3568 -0.0678
 6586TIP3    H141317   0.375   5.708   0.102 -1.2182  0.4251 -0.4609
 6586TIP3    H241318   0.244   5.641   0.136 -0.7526 -0.2914 -0.0267
 6587TIP3   OH241319   4.026   0.054   2.371  0.5037  0.0055  0.0866
 6587TIP3    H141320   4.095   0.053   2.437  1.7426 -1.9974 -1.1479
 6587TIP3    H241321   3.947   0.029   2.419  0.6425  1.8333  1.4097
 6588TIP3   OH241322   2.252   5.258   0.904  0.0022  0.0651 -0.1716
 6588TIP3    H141323   2.191   5.296   0.968 -0.9929 -0.9167 -0.4995
 6588TIP3    H241324   2.263   5.168   0.933  1.2879  0.2212 -0.1479
 6589TIP3   OH241325   0.780   3.556   0.134 -0.7938  0.3846  0.2144
 6589TIP3    H141326   0.837   3.528   0.206 -2.9572  0.1853  1.9920
 6589TIP3    H241327   0.754   3.645   0.159  0.4830  1.3644 -1.7499
 6590TIP3   OH241328   0.671   0.316   8.063 -0.1206 -0.4750 -0.7227
 6590TIP3    H141329   0.703   0.406   8.058 -0.9212 -0.1881 -0.6954
 6590TIP3    H241330   0.610   0.316   8.136  2.0595 -1.7370  1.2577
 6591TIP3   OH241331   4.059   0.759   3.002 -0.0623  0.6943 -0.0646
 6591TIP3    H141332   4.085   0.720   2.918 -0.9722 -2.1444  0.8592
 6591TIP3    H241333   4.133   0.815   3.025  2.0003 -1.4156 -1.0065
 6592TIP3   OH241334   2.604   2.392   0.900  0.1442 -0.3633  0.1444
 6592TIP3    H141335   2.593   2.486   0.886  1.0558  0.0472  1.9367
 6592TIP3    H241336   2.522   2.365   0.942  0.8977  0.2052  2.0769
 6593TIP3   OH241337   2.009   2.465   9.017  0.0928 -0.0559  0.3313
 6593TIP3    H141338   2.076   2.467   8.949 -0.9148 -0.6295 -0.7126
 6593TIP3    H241339   1.929   2.442   8.971 -0.8588  0.7422  1.5299
 6594TIP3   OH241340   4.111   2.203   3.215 -0.4298  0.3373  0.0573
 6594TIP3    H141341   4.022   2.175   3.192 -0.7448  0.4949  1.0636
 6594TIP3    H241342   4.104   2.236   3.304  0.1386  2.6192 -0.6570
 6595TIP3   OH241343   5.664   4.065   7.884 -0.8770 -0.0408  0.3589
 6595TIP3    H141344   5.755   4.089   7.899 -0.2928 -2.5694  1.4114
 6595TIP3    H241345   5.660   4.047   7.790 -0.6503  1.3833  0.0673
 6596TIP3   OH241346   3.628   2.521   0.569  0.2609 -0.7500 -0.2534
 6596TIP3    H141347   3.577   2.470   0.631  0.3497 -0.0968  0.3710
 6596TIP3    H241348   3.697   2.561   0.622 -1.4987  2.3913 -0.0843
 6597TIP3   OH241349   0.574   0.424   2.990  0.5191  0.1884 -0.8605
 6597TIP3    H141350   0.542   0.346   3.036  1.2918  0.0363 -0.5720
 6597TIP3    H241351   0.495   0.465   2.954 -0.0138 -0.0849 -0.0143
 6598TIP3   OH241352   0.618   2.851   0.605  0.1119  0.0110  0.2797
 6598TIP3    H141353   0.610   2.826   0.513  1.0312 -0.9394  0.4367
 6598TIP3    H241354   0.543   2.909   0.622  0.7333  1.3988 -1.4490
 6599TIP3   OH241355   2.180   3.836   7.903 -0.5979 -0.1454 -0.1862
 6599TIP3    H141356   2.194   3.843   7.809 -0.6207 -1.1311 -0.2719
 6599TIP3    H241357   2.092   3.801   7.911 -0.2155 -1.0476  0.1700
 6600TIP3   OH241358   1.987   0.946   2.202  0.2419  0.1131 -0.5957
 6600TIP3    H141359   1.990   0.991   2.118 -0.3825  0.9375 -0.1927
 6600TIP3    H241360   1.965   1.015   2.265  1.2490 -0.3729  0.3265
 6601TIP3   OH241361   3.012   6.312   1.929 -0.1549 -0.0037 -0.6578
 6601TIP3    H141362   3.028   6.229   1.885 -0.5343 -0.7668  0.5851
 6601TIP3    H241363   3.049   6.300   2.017 -2.0603  0.3578  0.2404
 6602TIP3   OH241364   6.653   2.678   7.560  0.3978 -0.0221  0.2742
 6602TIP3    H141365   6.627   2.669   7.651 -0.1848 -1.2310  0.0061
 6602TIP3    H241366   6.710   2.603   7.543  0.9817  0.5088 -0.2046
 6603TIP3   OH241367   2.962   3.735   8.104 -0.0550 -0.3141  0.0040
 6603TIP3    H141368   2.887   3.789   8.127 -0.8369 -0.4468 -2.0361
 6603TIP3    H241369   2.976   3.752   8.011  2.4183 -0.3586  0.3184
 6604TIP3   OH241370   1.729   1.777   8.780 -0.0011  0.0016 -0.1570
 6604TIP3    H141371   1.804   1.751   8.832 -1.8609 -1.3592  2.0447
 6604TIP3    H241372   1.674   1.698   8.775 -0.8350  0.6354 -2.5928
 6605TIP3   OH241373   2.477   5.409   0.889 -0.1254 -0.1009  0.3752
 6605TIP3    H141374   2.467   5.483   0.830  0.1320  0.7292  1.3501
 6605TIP3    H241375   2.398   5.356   0.875 -0.5690  0.6291  0.0537
 6606TIP3   OH241376   0.967   2.160   2.569 -0.2358 -0.3378  0.4528
 6606TIP3    H141377   1.044   2.188   2.520  1.1197  0.2061  2.7256
 6606TIP3    H241378   0.923   2.096   2.512  1.6921 -0.3933 -1.0506
 6607TIP3   OH241379   1.211   5.922   1.369  0.3296 -0.1497  0.2568
 6607TIP3    H141380   1.271   5.993   1.347  0.3343  0.8978  3.2098
 6607TIP3    H241381   1.160   5.908   1.290 -0.7894  4.2642 -0.0451
 6608TIP3   OH241382   2.857   2.061   1.586 -0.4788  0.4391  0.0245
 6608TIP3    H141383   2.785   2.090   1.530 -0.7169  0.8262  0.5214
 6608TIP3    H241384   2.836   2.098   1.672 -0.3284 -0.4764  0.4620
 6609TIP3   OH241385   4.964   1.607   0.645 -0.0569  0.4773  0.2255
 6609TIP3    H141386   5.037   1.667   0.657 -0.2496  1.1456 -1.6522
 6609TIP3    H241387   4.993   1.525   0.685  2.2971  0.3014 -1.6318
 6610TIP3   OH241388   4.226   5.485   0.678  0.4030  0.1869 -0.1182
 6610TIP3    H141389   4.221   5.570   0.635  1.0270 -0.8250 -2.2984
 6610TIP3    H241390   4.314   5.483   0.717  0.5588  0.3581 -0.4569
 6611TIP3   OH241391   2.899   1.082   2.489  0.7441 -0.0062  0.6485
 6611TIP3    H141392   2.959   1.007   2.487  2.2167  1.1152 -0.5452
 6611TIP3    H241393   2.883   1.102   2.396 -0.3569  0.5877  0.9569
 6612TIP3   OH241394   6.535   6.298   1.187  0.2614 -0.5767 -0.3946
 6612TIP3    H141395   6.535   6.389   1.159  1.4343 -0.8650 -1.3641
 6612TIP3    H241396   6.489   6.251   1.117 -0.7304 -0.6933  0.3079
 6613TIP3   OH241397   5.035   0.677   0.974  0.2048 -0.4977 -0.1415
 6613TIP3    H141398   4.996   0.593   0.949  1.0116 -0.7760 -0.4949
 6613TIP3    H241399   5.102   0.694   0.907  0.5238  0.0879  0.3118
 6614TIP3   OH241400   2.306   3.017   8.392  0.2666 -0.0586  0.6415
 6614TIP3    H141401   2.212   3.004   8.378  0.3872 -0.5249  0.2375
 6614TIP3    H241402   2.343   2.929   8.392  1.0990  0.1846 -2.0938
 6615TIP3   OH241403   2.139   4.036   0.058 -0.4256 -0.3897  0.0080
 6615TIP3    H141404   2.070   3.980   0.092  0.4195 -0.9259  0.8884
 6615TIP3    H241405   2.212   4.025   0.120  0.4434  0.1647 -0.8834
 6616TIP3   OH241406   1.070   5.244   0.021 -0.3932  0.1369  0.1542
 6616TIP3    H141407   1.021   5.233   0.103  2.2434 -1.9247  1.5981
 6616TIP3    H241408   1.103   5.334   0.025  0.1849 -0.1092  1.6967
 6617TIP3   OH241409   0.803   3.851   1.770 -0.6723 -0.3238 -0.3819
 6617TIP3    H141410   0.808   3.897   1.853 -2.3723 -0.1210 -0.3532
 6617TIP3    H241411   0.888   3.806   1.761 -0.0818  0.4898  0.9373
 6618TIP3   OH241412   4.530   6.211   2.105 -0.1044  0.2842 -0.0224
 6618TIP3    H141413   4.527   6.302   2.077 -0.4485 -0.3375 -2.1500
 6618TIP3    H241414   4.483   6.163   2.037  1.1235 -1.6395  0.4191
 6619TIP3   OH241415   4.265   2.276   9.009 -0.4535 -0.3009  0.1732
 6619TIP3    H141416   4.225   2.197   9.044 -1.1150  0.1725  0.5103
 6619TIP3    H241417   4.222   2.348   9.056 -1.3951  0.3575 -1.5979
 6620TIP3   OH241418   0.448   1.889   3.190  0.2960  0.3899  0.1282
 6620TIP3    H141419   0.542   1.897   3.206  0.2479  0.7259  0.2656
 6620TIP3    H241420   0.415   1.839   3.265  0.2802  0.7682  0.3766
 6621TIP3   OH241421   1.392   1.542   2.358  0.0173 -0.6115 -0.2575
 6621TIP3    H141422   1.401   1.448   2.373  1.7864 -0.7418 -1.8662
 6621TIP3    H241423   1.368   1.549   2.265 -1.8169  0.5005  0.2377
 6622TIP3   OH241424   5.872   2.892   1.851 -0.1124 -0.1237 -0.3319
 6622TIP3    H141425   5.838   2.981   1.857  1.2014  0.6269 -2.5585
 6622TIP3    H241426   5.954   2.895   1.900  0.4003  0.2056 -1.1754
 6623TIP3   OH241427   1.922   3.713   1.714 -0.1218 -0.4400 -0.5803
 6623TIP3    H141428   1.874   3.640   1.675 -0.8863 -0.1567 -0.1937
 6623TIP3    H241429   1.911   3.785   1.652  0.8621 -0.7136 -1.0957
 6624TIP3   OH241430   0.879   1.554   0.834 -0.0484  0.6855  1.0836
 6624TIP3    H141431   0.957   1.601   0.804  0.3980 -0.5002  0.3430
 6624TIP3    H241432   0.810   1.583   0.774  0.2757  0.2415  0.4878
 6625TIP3   OH241433   0.023   0.921   8.987  0.2655  0.4059  0.8704
 6625TIP3    H141434  -0.055   0.934   9.041 -0.5661 -1.0639  0.0911
 6625TIP3    H241435   0.006   0.840   8.940  2.1824  0.1592  0.5085
 6626TIP3   OH241436   6.515   0.931   0.154  0.1864  0.2859 -0.0646
 6626TIP3    H141437   6.547   0.863   0.213  0.0605 -0.5131 -0.9061
 6626TIP3    H241438   6.421   0.935   0.170 -0.1332 -1.1226 -1.3810
 6627TIP3   OH241439   4.221   5.955   2.430 -0.7196 -0.7300 -0.2580
 6627TIP3    H141440   4.296   5.900   2.409 -0.8394 -0.7209 -0.7199
 6627TIP3    H241441   4.157   5.937   2.361  0.6779  2.7770 -2.7660
 6628TIP3   OH241442   5.050   5.071   1.018  0.4443 -0.7005 -0.1897
 6628TIP3    H141443   5.052   5.164   0.995 -0.0155 -1.0807 -1.8979
 6628TIP3    H241444   5.135   5.038   0.990  0.9317 -0.6442  1.1792
 6629TIP3   OH241445   2.208   0.015   0.296 -1.1863  0.9005 -0.5035
 6629TIP3    H141446   2.272   0.008   0.367 -0.2370  1.2100 -1.2964
 6629TIP3    H241447   2.162  -0.068   0.296 -0.4474  0.4793 -0.2088
 6630TIP3   OH241448   4.417   6.022   8.185  0.1580  0.4165  0.8962
 6630TIP3    H141449   4.471   6.090   8.225  0.6769  0.7706 -0.3749
 6630TIP3    H241450   4.424   6.038   8.091 -0.3244 -0.9397  0.6140
 6631TIP3   OH241451   6.422   6.413   2.401  0.3329  0.0217  0.1271
 6631TIP3    H141452   6.413   6.499   2.361 -1.6830  0.0733  0.5869
 6631TIP3    H241453   6.478   6.428   2.477  0.8956  0.6891 -0.4056
 6632TIP3   OH241454   2.102   3.872   2.383 -0.4945  0.1102 -0.0667
 6632TIP3    H141455   2.144   3.903   2.303  0.8618  0.7670  0.8750
 6632TIP3    H241456   2.151   3.794   2.407  1.2612  1.7286  1.8699
 6633TIP3   OH241457   0.799   1.784   1.036 -0.2282 -0.0384 -0.3549
 6633TIP3    H141458   0.738   1.796   1.109 -1.5609  0.7801 -1.5413
 6633TIP3    H241459   0.814   1.689   1.033  1.1040  0.0406  1.9034
 6634TIP3   OH241460   1.048   0.798   2.673 -0.7417 -0.1447  0.7747
 6634TIP3    H141461   1.108   0.765   2.741  0.3665 -1.0150 -0.5561
 6634TIP3    H241462   0.961   0.786   2.709 -0.1546  0.3758  2.4480
 6635TIP3   OH241463   5.652   5.936   1.498 -0.4424 -0.0916  0.5451
 6635TIP3    H141464   5.739   5.975   1.503  0.4866 -1.5842 -2.1907
 6635TIP3    H241465   5.644   5.888   1.581  1.6808 -0.5352  0.5629
 6636TIP3   OH241466   6.489   6.138   0.312  0.0363  0.3322  0.4788
 6636TIP3    H141467   6.410   6.101   0.273  1.1727 -0.1277 -1.4956
 6636TIP3    H241468   6.530   6.064   0.356 -0.3093  0.4348  0.9820
 6637TIP3   OH241469   0.078   6.548   1.422  0.4993 -0.2955  0.3991
 6637TIP3    H141470   0.149   6.600   1.385 -0.5541  1.1061  0.2904
 6637TIP3    H241471   0.117   6.505   1.498  1.4800  0.3987  0.3005
 6638TIP3   OH241472   2.106   0.866   8.860 -0.7754  0.5752 -0.0987
 6638TIP3    H141473   2.159   0.932   8.816 -0.5367  1.0908  0.9435
 6638TIP3    H241474   2.101   0.794   8.797 -0.2363  1.1913 -0.8662
 6639TIP3   OH241475   5.458   4.770   8.457  0.2968  0.0265 -0.7382
 6639TIP3    H141476   5.444   4.820   8.537 -0.0133  0.5489 -1.1170
 6639TIP3    H241477   5.509   4.694   8.485  1.1979  0.8001 -0.2415
 6640TIP3   OH241478   2.727   0.445   8.044  0.1494  0.4665  0.5897
 6640TIP3    H141479   2.790   0.381   8.076  1.3576  1.0701 -0.4962
 6640TIP3    H241480   2.674   0.397   7.981  0.7688  0.4279  0.0954
 6641TIP3   OH241481   5.743   1.987   8.393  0.0987 -0.0376 -0.7042
 6641TIP3    H141482   5.827   1.947   8.416 -0.5554 -3.4898 -3.4358
 6641TIP3    H241483   5.763   2.046   8.321  0.5141  1.4778  0.6127
 6642TIP3   OH241484   0.152   4.947   8.578  0.2204  0.0897  0.2947
 6642TIP3    H141485   0.062   4.978   8.567  0.1878 -0.1959 -0.2711
 6642TIP3    H241486   0.206   5.026   8.566  0.2170 -0.2174 -2.4554
 6643TIP3   OH241487   0.716   5.408   2.429  0.0317  0.2424  0.0231
 6643TIP3    H141488   0.662   5.486   2.420 -0.6926 -0.0268  1.7865
 6643TIP3    H241489   0.741   5.406   2.521  0.2423 -1.4852 -0.0456
 6644TIP3   OH241490   4.691   5.006   8.769  0.1184 -0.2782  0.0489
 6644TIP3    H141491   4.756   4.938   8.747  0.5136 -0.0128  0.3752
 6644TIP3    H241492   4.678   4.996   8.863  0.7668  0.5977  0.2467
 6645TIP3   OH241493   5.346   2.546   8.026 -0.1193  0.0279 -0.0313
 6645TIP3    H141494   5.359   2.618   7.964 -0.5076  0.4310  0.3541
 6645TIP3    H241495   5.372   2.468   7.977 -0.5479  0.3279 -0.7590
 6646TIP3   OH241496   1.714   0.325   8.779  0.0878  0.1721 -0.5636
 6646TIP3    H141497   1.723   0.303   8.872  0.9480 -2.4996 -1.1898
 6646TIP3    H241498   1.639   0.272   8.750  0.6503 -0.0411 -1.6558
 6647TIP3   OH241499   6.085   4.667   0.802 -0.0743  0.3473 -0.0816
 6647TIP3    H141500   6.069   4.711   0.885 -2.4475 -1.5942  0.6218
 6647TIP3    H241501   6.157   4.606   0.821  1.9267  2.4285 -0.5588
 6648TIP3   OH241502   2.742   1.423   3.184  1.0344  0.1088 -0.4360
 6648TIP3    H141503   2.705   1.462   3.263 -0.2012 -3.1277  0.7533
 6648TIP3    H241504   2.837   1.421   3.200  0.7605 -1.0276  1.3052
 6649TIP3   OH241505   0.352   1.015   2.621  0.5492  0.1907 -0.0729
 6649TIP3    H141506   0.401   0.935   2.641  1.3075  0.4917 -0.6817
 6649TIP3    H241507   0.312   1.040   2.705  0.5956 -0.6179  0.2054
 6650TIP3   OH241508   2.472   0.446   0.762 -0.8429 -0.0310 -0.2218
 6650TIP3    H141509   2.451   0.489   0.845 -1.7436  1.6606 -1.2803
 6650TIP3    H241510   2.565   0.462   0.750 -1.1743  1.8266 -0.6478
 6651TIP3   OH241511   0.717   0.270   1.672  0.0091  0.0618 -0.4106
 6651TIP3    H141512   0.628   0.252   1.702  0.5292 -0.2241  1.0259
 6651TIP3    H241513   0.706   0.311   1.586 -1.4186 -2.0563 -1.3098
 6652TIP3   OH241514   3.022   3.849   1.761  0.0955  0.1033  0.2002
 6652TIP3    H141515   3.089   3.793   1.721 -0.8285 -2.7002  2.2315
 6652TIP3    H241516   2.955   3.858   1.693  1.4590  1.0778 -1.0853
 6653TIP3   OH241517   4.335   3.060   8.729  0.1072  0.3129 -0.4787
 6653TIP3    H141518   4.251   3.039   8.688 -0.0601  0.9480 -0.4703
 6653TIP3    H241519   4.325   3.151   8.758 -0.1623 -0.3897  1.8740
 6654TIP3   OH241520   4.345   5.706   1.663  0.0281  0.5243  0.0146
 6654TIP3    H141521   4.318   5.795   1.641  0.5371  0.8378  0.6358
 6654TIP3    H241522   4.436   5.714   1.689  0.2299 -0.2621 -0.4079
 6655TIP3   OH241523   2.030   4.252   8.954  0.2935  0.0847  0.2119
 6655TIP3    H141524   2.050   4.160   8.970  0.2410 -0.0573 -0.4907
 6655TIP3    H241525   2.078   4.300   9.021  1.2576 -0.3831 -0.1307
 6656TIP3   OH241526   6.496   3.184   8.788  0.0231 -0.1326  0.6412
 6656TIP3    H141527   6.403   3.190   8.766  0.2316  0.6817 -0.0626
 6656TIP3    H241528   6.512   3.090   8.797 -0.5481 -0.3761 -0.6439
 6657TIP3   OH241529   0.037   6.430   0.198 -0.3853 -0.1470 -0.4944
 6657TIP3    H141530   0.085   6.404   0.277 -2.6705  1.1183  1.4787
 6657TIP3    H241531   0.005   6.518   0.217 -3.3726 -0.8511 -1.5700
 6658TIP3   OH241532   4.634   5.616   2.640 -0.3025  0.2462  0.3511
 6658TIP3    H141533   4.605   5.525   2.652 -0.6531 -0.0784 -2.3407
 6658TIP3    H241534   4.724   5.608   2.609  0.3399  0.9589  1.9075
 6659TIP3   OH241535   4.119   5.042   0.820 -0.9549  0.3507 -0.4439
 6659TIP3    H141536   4.151   5.124   0.783 -0.4142  0.8285  0.9965
 6659TIP3    H241537   4.198   4.998   0.852 -1.4810  0.5682  1.2612
 6660TIP3   OH241538   2.314   4.274   0.466 -0.0664 -0.0646  0.3620
 6660TIP3    H141539   2.356   4.283   0.380 -1.5894  0.5118 -0.3625
 6660TIP3    H241540   2.221   4.268   0.446 -0.4292 -0.1478  1.9785
 6661TIP3   OH241541   4.568   1.704   2.243  0.1514 -0.7913  0.4869
 6661TIP3    H141542   4.651   1.657   2.239 -1.1992 -3.3105 -1.0446
 6661TIP3    H241543   4.505   1.645   2.199 -3.1081 -0.4284  4.1242
 6662TIP3   OH241544   0.307   1.634   1.807  0.3485 -0.2688 -0.5612
 6662TIP3    H141545   0.307   1.583   1.887 -0.9601  1.3190  0.5161
 6662TIP3    H241546   0.390   1.611   1.764  1.9051  0.0465  2.0585
 6663TIP3   OH241547   0.623   5.614   8.243  0.5757 -0.3952  0.3694
 6663TIP3    H141548   0.603   5.566   8.163  1.1276 -1.0419  0.6164
 6663TIP3    H241549   0.714   5.640   8.234  1.2477 -2.1806  1.6410
 6664TIP3   OH241550   1.307   4.033   0.872  0.5131  0.0699  0.2681
 6664TIP3    H141551   1.265   4.115   0.844  1.4660  1.4352  2.4850
 6664TIP3    H241552   1.394   4.037   0.834  0.0997 -0.6433 -0.7857
 6665TIP3   OH241553   3.325   4.539   8.553 -0.2894  0.0864 -0.1879
 6665TIP3    H141554   3.277   4.460   8.574 -0.9561  0.4701 -0.2413
 6665TIP3    H241555   3.261   4.610   8.562  0.3748  0.6541  0.1671
 6666TIP3   OH241556   4.544   0.163   2.005  0.5065 -0.3901 -0.0335
 6666TIP3    H141557   4.597   0.234   2.040 -0.8991 -0.1048  1.6843
 6666TIP3    H241558   4.515   0.193   1.919  0.1070  1.0658  0.5756
 6667TIP3   OH241559   5.804   3.846   0.933  0.0771 -0.1335 -0.1127
 6667TIP3    H141560   5.803   3.775   0.868 -1.8289  0.0074 -0.2968
 6667TIP3    H241561   5.861   3.912   0.894 -1.3945  0.1603 -1.9694
 6668TIP3   OH241562   2.459   2.976   1.918  0.3547  0.0591  0.4597
 6668TIP3    H141563   2.409   2.952   1.839  0.3355  0.5388  0.3209
 6668TIP3    H241564   2.490   3.065   1.900 -1.1341  0.8770  1.7048
 6669TIP3   OH241565   4.683   2.740   2.186 -0.8220 -0.1746  0.3571
 6669TIP3    H141566   4.649   2.754   2.097  0.8417  1.7050 -0.0721
 6669TIP3    H241567   4.717   2.651   2.184 -1.6968 -0.5142 -0.5750
 6670TIP3   OH241568   5.928   2.510   0.689 -0.2134 -0.4371 -0.2640
 6670TIP3    H141569   5.873   2.588   0.676  1.3136  0.9700  1.2073
 6670TIP3    H241570   5.868   2.443   0.720 -1.2344  0.8242  0.5722
 6671TIP3   OH241571   2.442   4.109   2.334 -0.0177 -0.5779  0.3746
 6671TIP3    H141572   2.474   4.112   2.244 -1.3251 -1.2292 -0.1479
 6671TIP3    H241573   2.355   4.070   2.327 -1.1136  1.4610  1.6712
 6672TIP3   OH241574   3.825   0.459   2.914  0.1277 -0.1717 -0.1580
 6672TIP3    H141575   3.789   0.388   2.861  1.6911  0.1223 -1.7247
 6672TIP3    H241576   3.914   0.431   2.935 -0.2753 -0.0470  1.9646
 6673TIP3   OH241577   6.357   1.012   1.414 -0.0345 -0.2206  0.0377
 6673TIP3    H141578   6.397   1.016   1.501 -0.4741  0.1968  0.2264
 6673TIP3    H241579   6.269   0.976   1.430 -1.0403  2.0741  0.1276
 6674TIP3   OH241580   6.075   5.534   8.969  0.5650  0.5353  0.2699
 6674TIP3    H141581   6.067   5.588   9.048  1.7990  2.7135 -0.9989
 6674TIP3    H241582   5.988   5.498   8.956 -0.1468  1.6790  1.5749
 6675TIP3   OH241583   4.439   0.106   1.071 -0.4257 -0.3808  0.0462
 6675TIP3    H141584   4.502   0.056   1.122  1.5307  2.1521  0.3311
 6675TIP3    H241585   4.401   0.168   1.134 -1.1051 -0.0090 -0.7110
 6676TIP3   OH241586   5.412   3.915   7.521  0.3238  0.4093 -0.0495
 6676TIP3    H141587   5.391   4.002   7.556  1.1016 -0.0819  1.7808
 6676TIP3    H241588   5.507   3.908   7.530  0.3632 -0.3303 -0.9259
 6677TIP3   OH241589   1.155   4.652   7.584  0.7041 -0.1319  0.2707
 6677TIP3    H141590   1.246   4.675   7.568  0.5478  0.8232  0.6573
 6677TIP3    H241591   1.150   4.558   7.568  1.7667 -0.2026  0.3231
 6678TIP3   OH241592   6.204   5.066   2.058 -0.4633 -0.3921  0.4958
 6678TIP3    H141593   6.121   5.091   2.098  0.1763 -0.0808  1.6791
 6678TIP3    H241594   6.227   4.984   2.100  0.9291  0.6579  1.8902
 6679TIP3   OH241595   2.032   5.150   1.982  0.2539 -0.0141 -0.1920
 6679TIP3    H141596   2.033   5.062   2.021  1.7826  0.2979  0.5421
 6679TIP3    H241597   1.945   5.185   2.003 -0.2887 -1.2424 -0.2967
 6680TIP3   OH241598   2.696   6.703   0.057 -0.1098 -0.2664 -0.5236
 6680TIP3    H141599   2.658   6.644   0.122  0.8140  0.4358  0.6974
 6680TIP3    H241600   2.674   6.791   0.088  1.9360  0.1430 -0.0834
 6681TIP3   OH241601   1.484   0.127   7.207  0.1277  0.1417 -0.0879
 6681TIP3    H141602   1.422   0.065   7.167 -0.8598  1.0499 -0.0015
 6681TIP3    H241603   1.429   0.187   7.257  0.8962  2.0191 -1.3936
 6682TIP3   OH241604   6.660   2.810   8.634 -0.1600 -0.1255 -0.3863
 6682TIP3    H141605   6.680   2.717   8.638 -0.6139 -0.2538 -1.0268
 6682TIP3    H241606   6.640   2.834   8.724 -0.8460 -0.8238 -0.3461
 6683TIP3   OH241607   5.190   0.675   0.697  0.7235 -0.3801 -0.1187
 6683TIP3    H141608   5.139   0.653   0.619  0.4660 -3.0117  0.6778
 6683TIP3    H241609   5.270   0.623   0.689  0.3929 -1.2443  1.6221
 6684TIP3   OH241610   1.746   6.694   8.972 -0.0213  0.2083 -0.1266
 6684TIP3    H141611   1.840   6.694   8.950 -0.1769  2.0584 -1.0063
 6684TIP3    H241612   1.734   6.775   9.022 -0.8645 -0.8502  1.4505
 6685TIP3   OH241613   2.815   5.877   2.524 -0.3232  0.7204 -0.1551
 6685TIP3    H141614   2.827   5.804   2.585  0.6735  0.7444 -0.3069
 6685TIP3    H241615   2.808   5.954   2.581 -1.4216  0.5207  0.0078
 6686TIP3   OH241616   1.413   6.146   1.724 -0.3449 -0.2294  0.3652
 6686TIP3    H141617   1.452   6.224   1.684  2.0823 -2.0788 -1.0921
 6686TIP3    H241618   1.332   6.132   1.674  1.3609 -1.0216 -2.3759
 6687TIP3   OH241619   3.146   2.545   1.790 -0.1705 -0.0176  0.0619
 6687TIP3    H141620   3.074   2.482   1.781  0.5190 -1.1405  1.9169
 6687TIP3    H241621   3.223   2.498   1.760 -0.1049  1.1490 -1.8103
 6688TIP3   OH241622   0.745   1.582   7.348 -0.7423 -0.5054  0.3542
 6688TIP3    H141623   0.659   1.547   7.326  0.2419 -1.9354 -1.5219
 6688TIP3    H241624   0.807   1.526   7.301  1.0619  2.7317 -1.5403
 6689TIP3   OH241625   2.570   1.189   8.710  0.1738  0.1030 -0.1332
 6689TIP3    H141626   2.612   1.205   8.626  0.2722 -0.1665 -0.1348
 6689TIP3    H241627   2.635   1.215   8.775  0.4773 -0.6345 -0.1320
 6690TIP3   OH241628   0.912   6.702   0.059 -0.0451 -0.0456  0.1834
 6690TIP3    H141629   1.003   6.673   0.068  0.6227  1.5698 -0.9690
 6690TIP3    H241630   0.863   6.623   0.038  1.3631 -0.6863 -0.7945
 6691TIP3   OH241631   4.500   0.576   1.654 -0.3802  0.1126 -0.5316
 6691TIP3    H141632   4.472   0.649   1.600 -1.9715 -1.5267 -2.0475
 6691TIP3    H241633   4.593   0.567   1.636 -0.0639  1.9683 -0.0065
 6692TIP3   OH241634   4.702   4.256   7.829 -0.6072  0.1934  0.2330
 6692TIP3    H141635   4.677   4.322   7.764 -0.5165  1.3280  1.3012
 6692TIP3    H241636   4.793   4.276   7.850 -1.0506  0.7775  1.7362
 6693TIP3   OH241637   5.554   4.448   2.676 -0.1010 -0.1630 -0.2764
 6693TIP3    H141638   5.556   4.514   2.746 -1.6079  1.1395 -1.3681
 6693TIP3    H241639   5.497   4.379   2.710  0.0179 -0.0402  0.1849
 6694TIP3   OH241640   4.732   1.797   8.549 -0.2769  0.2477  0.4761
 6694TIP3    H141641   4.693   1.813   8.464  1.7821  1.2382 -0.3634
 6694TIP3    H241642   4.778   1.879   8.570  2.4837 -1.2334  0.6913
 6695TIP3   OH241643   0.300   0.428   8.425  0.7934  0.2433 -0.7036
 6695TIP3    H141644   0.245   0.497   8.388  0.0170  0.4203  0.6637
 6695TIP3    H241645   0.238   0.357   8.444  0.5074  1.2185  2.8107
 6696TIP3   OH241646   6.539   6.314   0.056 -0.2605 -0.4123  0.1072
 6696TIP3    H141647   6.623   6.347   0.087 -0.1379 -0.4808 -0.1512
 6696TIP3    H241648   6.514   6.247   0.121 -0.2423 -0.2090  0.3248
 6697TIP3   OH241649   5.630   0.827   1.599 -0.0773 -0.2988 -0.3520
 6697TIP3    H141650   5.580   0.909   1.600  0.3761 -0.0193 -0.3420
 6697TIP3    H241651   5.612   0.789   1.513 -0.9315 -0.5987 -0.0583
 6698TIP3   OH241652   3.162   2.924   8.157 -0.0184  0.1471 -0.4786
 6698TIP3    H141653   3.166   3.006   8.107  0.3747  0.3057 -0.1853
 6698TIP3    H241654   3.235   2.872   8.123  0.4568  0.3900  0.1710
 6699TIP3   OH241655   0.052   3.340   7.826 -0.6681 -0.0251  0.0096
 6699TIP3    H141656   0.008   3.288   7.759 -1.1980 -0.7807  0.9121
 6699TIP3    H241657   0.145   3.324   7.811 -0.7895 -0.3815 -0.3865
 6700TIP3   OH241658   5.508   5.650   7.952  0.1884  0.0107  0.0857
 6700TIP3    H141659   5.525   5.654   7.858 -0.8079 -0.5645 -0.1379
 6700TIP3    H241660   5.559   5.722   7.989  2.4795 -1.1948 -0.5784
 6701TIP3   OH241661   2.469   4.369   8.621 -0.3711  0.0153  0.1501
 6701TIP3    H141662   2.385   4.390   8.662 -1.2072 -2.0184 -0.4050
 6701TIP3    H241663   2.453   4.376   8.527  0.7399  1.7917  0.0448
 6702TIP3   OH241664   6.401   4.453   7.389 -0.2114  0.2543 -0.0266
 6702TIP3    H141665   6.452   4.377   7.360  0.7025  0.0831  1.9144
 6702TIP3    H241666   6.311   4.421   7.394 -0.0432 -0.3159 -0.4916
 6703TIP3   OH241667   4.632   6.093   0.172  0.0565 -0.0730 -0.9814
 6703TIP3    H141668   4.592   6.010   0.199  0.6200 -0.0275  0.0610
 6703TIP3    H241669   4.708   6.068   0.120  0.0332 -0.2107 -0.9495
 6704TIP3   OH241670   2.285   0.771   8.512 -0.1500 -0.0568  0.6062
 6704TIP3    H141671   2.331   0.809   8.438 -2.9788  1.0099 -0.7649
 6704TIP3    H241672   2.272   0.679   8.489 -0.3104  0.0842  0.1326
 6705TIP3   OH241673   4.300   4.342   2.324  0.7206 -0.1945  0.0914
 6705TIP3    H141674   4.207   4.365   2.325  0.9023  0.8189  3.0665
 6705TIP3    H241675   4.341   4.410   2.271 -0.0343  0.3516  0.1878
 6706TIP3   OH241676   0.117   3.866   0.286  0.1447  0.2392  0.2374
 6706TIP3    H141677   0.085   3.802   0.350 -1.9011 -0.8628 -1.7330
 6706TIP3    H241678   0.078   3.949   0.314 -2.1308 -0.5329 -0.3993
 6707TIP3   OH241679   5.174   3.402   8.929  0.2671 -0.3391  0.0482
 6707TIP3    H141680   5.263   3.385   8.960  0.6182 -0.7077 -1.1045
 6707TIP3    H241681   5.144   3.317   8.896 -0.0387  0.0548 -0.7089
 6708TIP3   OH241682   6.594   3.267   0.750 -0.0249 -0.0656 -0.0117
 6708TIP3    H141683   6.591   3.201   0.681 -1.1965 -0.6857  0.6069
 6708TIP3    H241684   6.671   3.319   0.730  0.6842 -1.3574 -0.7576
 6709TIP3   OH241685   4.969   6.456   2.247 -0.6207  0.4370  0.6007
 6709TIP3    H141686   5.029   6.405   2.192  1.4318  2.6253  0.6786
 6709TIP3    H241687   4.884   6.414   2.234  0.6767 -2.0997 -0.4088
 6710TIP3   OH241688   0.717   3.044   0.925 -0.7784 -0.2958 -0.0041
 6710TIP3    H141689   0.728   3.081   0.837  2.0441  0.2732  0.4672
 6710TIP3    H241690   0.646   3.095   0.963 -0.2455  1.3376 -1.0614
 6711TIP3   OH241691   3.393   1.684   0.981 -0.4007  0.1587  0.1107
 6711TIP3    H141692   3.421   1.755   0.923 -1.7220 -0.4139 -1.3309
 6711TIP3    H241693   3.454   1.613   0.962 -0.7582  0.0119 -0.5106
 6712TIP3   OH241694   4.415   5.528   0.439  0.5680 -0.1711 -0.3892
 6712TIP3    H141695   4.348   5.491   0.496  0.7675 -0.5485 -0.3994
 6712TIP3    H241696   4.464   5.588   0.495 -0.0029  0.3771 -0.4727
 6713TIP3   OH241697   1.159   3.394   8.440 -0.5156  0.9449 -0.8244
 6713TIP3    H141698   1.076   3.438   8.455  0.0899  2.6304 -2.0798
 6713TIP3    H241699   1.177   3.407   8.347  0.6871 -0.2320 -0.7939
 6714TIP3   OH241700   1.990   3.923   8.743 -0.1058 -0.0883  0.0709
 6714TIP3    H141701   1.987   3.879   8.828  1.6263 -1.0470 -0.3276
 6714TIP3    H241702   2.077   3.962   8.739 -0.2138  0.0591 -1.2109
 6715TIP3   OH241703   1.878   5.966   0.059  0.8079 -0.1979 -0.2704
 6715TIP3    H141704   1.940   6.005   0.119  0.1609 -0.7039  0.7537
 6715TIP3    H241705   1.884   5.872   0.075 -1.4130 -0.1732  1.0968
 6716TIP3   OH241706   3.243   1.916   1.964 -0.2734 -0.3576 -0.6566
 6716TIP3    H141707   3.326   1.874   1.943 -0.9676 -2.9359  1.2568
 6716TIP3    H241708   3.265   1.984   2.027  0.4341 -0.9299 -0.2658
 6717TIP3   OH241709   2.046   6.679   3.059 -0.6526  0.6849 -0.3312
 6717TIP3    H141710   1.998   6.721   3.129 -0.6328 -0.5900  0.4768
 6717TIP3    H241711   2.131   6.658   3.098 -1.0239 -0.9987 -0.3793
 6718TIP3   OH241712   6.153   5.753   2.178 -0.4438 -0.5921 -0.3770
 6718TIP3    H141713   6.134   5.838   2.139  0.1233 -0.8543 -1.2494
 6718TIP3    H241714   6.237   5.764   2.223  0.7937 -1.2520 -2.3987
 6719TIP3   OH241715   6.558   0.474   1.476  0.6134 -0.0198  0.3965
 6719TIP3    H141716   6.611   0.539   1.428  0.1041  0.3154  0.2842
 6719TIP3    H241717   6.591   0.479   1.565 -0.7027  1.8032  0.8361
 6720TIP3   OH241718   1.708   1.534   0.703  0.2646  0.6475 -0.4860
 6720TIP3    H141719   1.746   1.508   0.619 -0.0745 -2.1450  0.1083
 6720TIP3    H241720   1.775   1.588   0.744  1.1637  0.6175 -1.8342
 6721TIP3   OH241721   2.209   3.885   8.391 -0.2809  0.3177  0.6726
 6721TIP3    H141722   2.209   3.793   8.366 -0.6856  0.2749  0.8209
 6721TIP3    H241723   2.263   3.928   8.325 -0.1766 -0.0097  0.5440
 6722TIP3   OH241724   1.645   1.273   1.680  0.1876 -0.2521 -0.0337
 6722TIP3    H141725   1.613   1.362   1.694 -1.5459 -0.8804  0.2856
 6722TIP3    H241726   1.612   1.224   1.755  0.1747 -1.3901 -0.7592
 6723TIP3   OH241727   5.070   3.078   0.972 -0.4131  0.4069 -0.1028
 6723TIP3    H141728   5.056   3.044   1.060 -0.6171  1.6771  0.3711
 6723TIP3    H241729   5.164   3.097   0.968 -0.2694 -0.3450 -0.4233
 6724TIP3   OH241730   5.298   4.101   1.209 -0.1865  0.3505 -0.2657
 6724TIP3    H141731   5.360   4.156   1.161  1.8308 -0.0556  1.7069
 6724TIP3    H241732   5.344   4.017   1.220 -1.6774 -0.4554  0.0431
 6725TIP3   OH241733   1.595   3.713   1.607 -0.1803  0.1695 -0.3116
 6725TIP3    H141734   1.519   3.713   1.549  0.3456 -1.5237 -1.0693
 6725TIP3    H241735   1.664   3.754   1.556  0.2954 -1.3625 -0.9698
 6726TIP3   OH241736   0.363   5.156   7.261  0.5104  0.3315 -0.2993
 6726TIP3    H141737   0.442   5.145   7.208  0.5835 -1.1295  0.0843
 6726TIP3    H241738   0.308   5.081   7.238 -0.7065  1.2174 -0.4147
 6727TIP3   OH241739   2.386   3.693   0.060 -0.8718  0.1938 -0.5784
 6727TIP3    H141740   2.302   3.680   0.105  0.2861  1.5210  2.1342
 6727TIP3    H241741   2.433   3.611   0.074 -1.1502 -0.0332 -0.9200
 6728TIP3   OH241742   1.717   2.660   2.458  0.1154 -0.2805  0.1257
 6728TIP3    H141743   1.674   2.694   2.380 -2.5013  0.3878  1.7197
 6728TIP3    H241744   1.725   2.736   2.516  0.8823 -0.9848  0.9771
 6729TIP3   OH241745   2.936   5.781   0.264  0.4281 -0.0224 -0.5927
 6729TIP3    H141746   3.005   5.814   0.321  1.1099 -0.0758 -1.3773
 6729TIP3    H241747   2.912   5.855   0.209  0.4410 -0.2324 -0.8832
 6730TIP3   OH241748   0.572   1.724   0.238  0.1737  0.0625 -0.4898
 6730TIP3    H141749   0.643   1.766   0.287 -0.1637  0.2488 -0.1644
 6730TIP3    H241750   0.531   1.665   0.300 -1.4586  1.6679  0.0279
 6731TIP3   OH241751   0.644   6.286   8.190 -0.0888 -0.3271 -0.3564
 6731TIP3    H141752   0.580   6.357   8.187 -0.8717 -1.0058 -0.4589
 6731TIP3    H241753   0.669   6.272   8.099 -0.2984 -0.4864 -0.3920
 6732TIP3   OH241754   6.630   1.297   0.815 -0.1201  0.0142 -0.2663
 6732TIP3    H141755   6.687   1.273   0.889 -2.6785 -0.0677  1.8168
 6732TIP3    H241756   6.616   1.215   0.768  0.9506 -0.0871 -0.4301
 6733TIP3   OH241757   0.779   0.878   2.573 -0.2830 -0.6517  0.0809
 6733TIP3    H141758   0.737   0.953   2.532 -0.1068 -0.2198  0.6870
 6733TIP3    H241759   0.860   0.865   2.524  0.5574  0.6544  1.0700
 6734TIP3   OH241760   5.114   3.275   1.207  0.6228  0.5974  0.4872
 6734TIP3    H141761   5.167   3.202   1.174 -1.7908 -1.6886  1.3910
 6734TIP3    H241762   5.129   3.275   1.301  0.9449  1.6243  0.4493
 6735TIP3   OH241763   4.397   2.707   0.727  0.4027 -0.0833  0.4772
 6735TIP3    H141764   4.329   2.689   0.661 -0.1447  0.7064  0.8097
 6735TIP3    H241765   4.424   2.797   0.709  0.5003  0.0170  1.1182
 6736TIP3   OH241766   3.222   4.976   3.065 -0.1376 -0.4499 -0.0394
 6736TIP3    H141767   3.156   4.993   3.132 -0.0970  1.8440 -0.5146
 6736TIP3    H241768   3.286   4.920   3.109 -2.0160 -2.2621  0.6132
 6737TIP3   OH241769   1.106   6.029   2.771 -0.0549 -0.3421 -0.6083
 6737TIP3    H141770   1.135   6.065   2.687 -1.5469 -0.5954 -1.2623
 6737TIP3    H241771   1.092   6.105   2.827  0.0274 -0.1152 -0.8977
 6738TIP3   OH241772   2.166   0.217   1.347 -0.3104  0.1170 -0.0180
 6738TIP3    H141773   2.086   0.266   1.364  0.3266  1.4430 -0.6504
 6738TIP3    H241774   2.167   0.148   1.413 -2.1261 -0.1369 -0.2122
 6739TIP3   OH241775   6.413   4.235   1.935  0.2493  0.0755 -0.0428
 6739TIP3    H141776   6.342   4.205   1.992  0.6778 -2.3024 -0.6570
 6739TIP3    H241777   6.481   4.264   1.995 -0.4707  0.4758  0.5917
 6740TIP3   OH241778   0.174   5.771   3.401  0.3604 -0.3154 -0.1237
 6740TIP3    H141779   0.251   5.822   3.375  2.4699 -3.0072  0.4150
 6740TIP3    H241780   0.195   5.738   3.488 -2.0519 -0.0511  0.6306
 6741TIP3   OH241781   3.301   0.755   2.594  0.1217  0.2475  0.8076
 6741TIP3    H141782   3.290   0.850   2.603 -0.6250  0.3687 -1.0970
 6741TIP3    H241783   3.307   0.739   2.500  0.5011 -1.5889  1.0915
 6742TIP3   OH241784   1.026   2.308   8.482 -0.1672  0.8049  0.1107
 6742TIP3    H141785   0.933   2.292   8.464 -0.4906  0.4215  1.9659
 6742TIP3    H241786   1.070   2.230   8.447 -0.5987  0.6851 -0.1858
 6743TIP3   OH241787   4.734   0.423   1.543 -0.8056 -0.2142 -0.4932
 6743TIP3    H141788   4.710   0.345   1.592 -2.1122 -0.2615 -1.1797
 6743TIP3    H241789   4.719   0.400   1.451  0.8383  0.1414 -0.8842
 6744TIP3   OH241790   5.635   3.015   1.619 -0.3137  0.0691 -0.2339
 6744TIP3    H141791   5.676   3.058   1.694 -0.3664 -0.1028 -0.1052
 6744TIP3    H241792   5.629   2.923   1.644 -0.6573  0.0688 -0.3021
 6745TIP3   OH241793   0.382   4.692   8.554 -0.4766  0.9811 -0.2190
 6745TIP3    H141794   0.360   4.666   8.465 -1.8905  0.7398  0.1632
 6745TIP3    H241795   0.302   4.673   8.604  0.8193 -0.4137  1.4281
 6746TIP3   OH241796   5.510   6.692   1.850  0.5491  0.0257 -0.0114
 6746TIP3    H141797   5.475   6.734   1.929  2.7525  1.0867  0.4663
 6746TIP3    H241798   5.520   6.600   1.874 -0.3909  0.0123  0.3599
 6747TIP3   OH241799   5.637   4.991   8.976 -0.7546 -0.3760 -0.1812
 6747TIP3    H141800   5.710   4.982   9.037 -0.5250  0.7279 -0.2743
 6747TIP3    H241801   5.572   4.929   9.008 -0.5552  0.0183  1.0697
 6748TIP3   OH241802   5.622   1.906   7.797  0.6670 -0.7252  0.5149
 6748TIP3    H141803   5.589   1.989   7.833  2.3028  1.0104 -1.7104
 6748TIP3    H241804   5.674   1.869   7.868  1.6076  1.2302  0.9309
 6749TIP3   OH241805   2.752   3.558   2.182 -0.2126  0.2713 -0.2377
 6749TIP3    H141806   2.661   3.584   2.195 -0.4449  0.4829 -1.9729
 6749TIP3    H241807   2.800   3.641   2.178 -0.0474  0.1875 -0.0339
 6750TIP3   OH241808   5.878   3.162   1.523 -0.3171  0.6384 -0.5034
 6750TIP3    H141809   5.881   3.104   1.599  1.3234  0.2394 -0.8431
 6750TIP3    H241810   5.962   3.208   1.524  0.3571 -0.4130 -2.8478
 6751TIP3   OH241811   4.288   2.816   7.623  0.2953 -0.0799 -0.0506
 6751TIP3    H141812   4.195   2.797   7.636 -0.0080  0.5820 -1.1191
 6751TIP3    H241813   4.306   2.891   7.680  0.6372 -1.2792  1.5005
 6752TIP3   OH241814   1.872   5.792   2.860 -0.8633  0.3302 -0.5857
 6752TIP3    H141815   1.803   5.746   2.812 -0.0593 -0.3370 -1.1318
 6752TIP3    H241816   1.912   5.850   2.794 -1.1646  1.0292 -0.1691
 6753TIP3   OH241817   5.493   1.885   8.920  0.0781  0.2659  0.0960
 6753TIP3    H141818   5.532   1.806   8.958 -0.4291  0.2587  0.6089
 6753TIP3    H241819   5.426   1.851   8.860 -0.5624  0.3160  0.7797
 6754TIP3   OH241820   5.950   2.958   1.331 -0.5771  0.3409  0.1662
 6754TIP3    H141821   5.856   2.939   1.332 -0.6156  0.0840  3.2098
 6754TIP3    H241822   5.960   3.030   1.394  1.4255 -0.8250  1.2944
 6755TIP3   OH241823   2.268   5.581   1.097  0.1261  0.5146 -0.1365
 6755TIP3    H141824   2.302   5.667   1.121  1.2820  0.4956 -1.5770
 6755TIP3    H241825   2.260   5.584   1.002 -2.7409  0.0471 -0.0025
 6756TIP3   OH241826   3.541   5.849   2.908 -0.0455 -0.3843  0.0774
 6756TIP3    H141827   3.564   5.922   2.966 -0.7639 -1.1007  1.3057
 6756TIP3    H241828   3.551   5.885   2.819  1.0320  0.7555  0.6187
 6757TIP3   OH241829   1.560   3.985   3.055  0.2853  0.4718  0.0394
 6757TIP3    H141830   1.589   3.972   2.964 -1.0620 -0.3061 -0.3011
 6757TIP3    H241831   1.626   3.939   3.108  1.1278  0.9990 -0.5229
 6758TIP3   OH241832   5.535   4.186   0.315  0.4296 -0.2056  0.1369
 6758TIP3    H141833   5.563   4.094   0.321 -0.8356 -0.6384 -0.2303
 6758TIP3    H241834   5.470   4.195   0.385  0.3762  0.3377  0.0158
 6759TIP3   OH241835   0.277   5.182   8.548 -0.5744  0.0537  0.1898
 6759TIP3    H141836   0.210   5.245   8.572  0.0677 -0.0546  2.6165
 6759TIP3    H241837   0.348   5.234   8.513 -0.2881  0.6789  1.6112
 6760TIP3   OH241838   0.309   3.491   7.416 -0.3796  0.2272 -0.0332
 6760TIP3    H141839   0.224   3.446   7.416 -0.4987  0.4408 -0.4181
 6760TIP3    H241840   0.287   3.583   7.407 -0.0787  0.1793 -1.7217
 6761TIP3   OH241841   2.033   0.311   0.385  0.0529  0.1747 -0.0072
 6761TIP3    H141842   2.008   0.250   0.455  0.3800 -0.6539 -0.5946
 6761TIP3    H241843   1.972   0.384   0.394  0.1599  0.1376  1.2122
 6762TIP3   OH241844   6.133   1.705   1.433  0.2199 -0.5932 -0.0528
 6762TIP3    H141845   6.059   1.760   1.456 -0.0168 -1.4128  1.2185
 6762TIP3    H241846   6.193   1.713   1.507  1.8934  0.8283 -1.4729
 6763TIP3   OH241847   5.707   1.975   3.175 -0.4740 -0.0699  0.3622
 6763TIP3    H141848   5.693   1.881   3.167  0.0501 -0.0863 -0.5432
 6763TIP3    H241849   5.801   1.984   3.192 -0.6387  0.2614  1.1394
 6764TIP3   OH241850   6.328   1.500   0.880 -0.7309  0.2577  0.1594
 6764TIP3    H141851   6.359   1.557   0.809 -3.3655  2.2949  0.4831
 6764TIP3    H241852   6.408   1.472   0.925  0.7870  2.4992 -0.9442
 6765TIP3   OH241853   3.286   5.298   0.497  0.1511  0.0796  0.4449
 6765TIP3    H141854   3.325   5.297   0.584 -0.3742 -0.7663  0.6875
 6765TIP3    H241855   3.200   5.337   0.510  0.8327  1.8116 -0.0617
 6766TIP3   OH241856   2.606   2.023   0.515 -0.1386 -0.2549 -0.2907
 6766TIP3    H141857   2.594   2.008   0.421  0.3629 -2.2012 -0.0947
 6766TIP3    H241858   2.668   2.095   0.520  0.8608 -0.9815 -1.4916
 6767TIP3   OH241859   0.208   5.470   2.600  0.2065 -0.2127  0.4703
 6767TIP3    H141860   0.274   5.517   2.549  1.1043 -0.2668  1.5380
 6767TIP3    H241861   0.129   5.522   2.589  1.0299  1.2610  1.1380
 6768TIP3   OH241862   3.183   2.813   1.653  0.6474  0.1414  0.0464
 6768TIP3    H141863   3.185   2.735   1.708 -0.7565  1.5550  2.2623
 6768TIP3    H241864   3.230   2.879   1.704 -2.4737  2.0883  0.6382
 6769TIP3   OH241865   5.160   6.197   1.160  0.1856 -0.1600 -0.2527
 6769TIP3    H141866   5.137   6.279   1.205 -0.1200 -0.6487  0.5011
 6769TIP3    H241867   5.107   6.130   1.203  1.3456 -0.9568 -0.0012
 6770TIP3   OH241868   2.848   5.056   8.983  0.3289 -0.7806  0.1746
 6770TIP3    H141869   2.793   5.118   9.031  1.1377 -0.1884  0.3524
 6770TIP3    H241870   2.875   4.993   9.050  3.0229  1.0956  1.0506
 6771TIP3   OH241871   3.256   3.149   0.785  0.0272  0.0985 -0.5224
 6771TIP3    H141872   3.280   3.241   0.799 -0.2385  0.1868 -0.6472
 6771TIP3    H241873   3.311   3.121   0.712 -1.2572  0.7220 -1.7884
 6772TIP3   OH241874   0.017   2.539   8.671 -0.9148 -0.1284  0.1315
 6772TIP3    H141875  -0.054   2.497   8.720 -0.5382  0.8624  1.6071
 6772TIP3    H241876   0.093   2.533   8.730 -0.9936  3.1353  0.7536
 6773TIP3   OH241877   1.023   3.366   1.553  0.1021  0.4884 -0.2148
 6773TIP3    H141878   0.973   3.288   1.529  0.1843  0.2942  0.2337
 6773TIP3    H241879   0.979   3.438   1.508 -0.8523  0.3841  0.5205
 6774TIP3   OH241880   3.905   5.687   1.551 -0.2248  0.0513  0.7276
 6774TIP3    H141881   3.841   5.624   1.585 -1.0127 -0.0476 -0.8520
 6774TIP3    H241882   3.865   5.773   1.567 -1.1915 -0.0402 -1.0257
 6775TIP3   OH241883   0.332   2.071   8.209 -0.4950  0.0072 -0.7459
 6775TIP3    H141884   0.280   2.132   8.158  0.1904 -0.2286 -1.7570
 6775TIP3    H241885   0.419   2.111   8.212 -0.5600  0.1063  0.4132
 6776TIP3   OH241886   6.520   3.155   0.285  0.6659 -0.1037 -0.1455
 6776TIP3    H141887   6.427   3.171   0.303  0.5800  0.5648 -1.1515
 6776TIP3    H241888   6.520   3.090   0.215  0.9652 -0.3790  0.1066
 6777TIP3   OH241889   4.311   5.000   8.936 -0.0576 -0.6061  0.3193
 6777TIP3    H141890   4.365   5.065   8.892  1.2095 -1.4414  0.5812
 6777TIP3    H241891   4.293   5.038   9.023  0.3573 -0.4432  0.3362
 6778TIP3   OH241892   3.253   4.175   1.201 -0.1668  0.2600  0.4014
 6778TIP3    H141893   3.289   4.202   1.286  1.3166  1.5692 -0.5864
 6778TIP3    H241894   3.206   4.253   1.169  0.1898  0.1417 -0.4375
 6779TIP3   OH241895   2.926   5.874   8.660  0.0533 -0.1080  0.2309
 6779TIP3    H141896   2.850   5.819   8.678  0.6371 -1.8428 -2.0611
 6779TIP3    H241897   2.891   5.946   8.607  0.0390 -1.3973 -1.6254
 6780TIP3   OH241898   5.842   1.777   0.363  0.2931  0.4165 -0.0417
 6780TIP3    H141899   5.789   1.837   0.415 -1.9018  0.1569 -1.8346
 6780TIP3    H241900   5.851   1.820   0.278 -1.4624 -1.7236 -1.4244
 6781TIP3   OH241901   3.309   3.612   2.451 -0.6486  0.4833 -0.4784
 6781TIP3    H141902   3.278   3.524   2.469 -1.1650  0.8414  0.4557
 6781TIP3    H241903   3.385   3.600   2.394  0.9127 -0.7296  1.7008
 6782TIP3   OH241904   0.444   4.670   2.889 -0.5790  0.0816  0.4517
 6782TIP3    H141905   0.483   4.758   2.885  0.7700 -0.4346  1.4247
 6782TIP3    H241906   0.488   4.628   2.963 -1.3766 -1.3459  0.1480
 6783TIP3   OH241907   1.496   3.573   2.313 -0.0454  0.3790 -0.1768
 6783TIP3    H141908   1.505   3.583   2.218  1.1007  0.3990 -0.0809
 6783TIP3    H241909   1.496   3.478   2.327  0.6140  0.3812 -0.1352
 6784TIP3   OH241910   3.402   6.597   2.728 -0.4308  0.3183  0.4082
 6784TIP3    H141911   3.429   6.682   2.763  4.4361 -0.9215  0.4495
 6784TIP3    H241912   3.389   6.542   2.805  3.2789 -0.5618  0.5945
 6785TIP3   OH241913   5.225   1.921   7.922  0.0070  0.4771  0.2887
 6785TIP3    H141914   5.214   1.909   8.017 -1.6589  2.4239  0.4107
 6785TIP3    H241915   5.311   1.884   7.903  0.9694  1.2395  2.7888
 6786TIP3   OH241916   0.813   0.609   2.457 -0.4444  0.6899  0.4152
 6786TIP3    H141917   0.785   0.651   2.538 -2.9892  0.9897 -0.5347
 6786TIP3    H241918   0.748   0.540   2.442 -0.7011  1.3567 -1.8873
 6787TIP3   OH241919   5.560   5.818   2.294  0.2432  0.7248 -0.1750
 6787TIP3    H141920   5.592   5.732   2.266 -0.3615  0.0551  1.1220
 6787TIP3    H241921   5.576   5.875   2.219  1.4950 -0.3089 -0.7200
 6788TIP3   OH241922   4.146   1.400   2.251 -0.6813  0.0856 -0.0014
 6788TIP3    H141923   4.092   1.323   2.235  0.8541 -0.8248 -0.9728
 6788TIP3    H241924   4.150   1.444   2.166  0.7190 -0.2814 -0.1441
 6789TIP3   OH241925   3.419   4.561   1.448  0.1850  0.0557 -0.2433
 6789TIP3    H141926   3.393   4.500   1.380 -0.9186 -0.1086  0.2939
 6789TIP3    H241927   3.340   4.614   1.464  0.7159  0.7314  0.2294
 6790TIP3   OH241928   6.607   6.218   8.142 -0.0893  1.2444  0.0119
 6790TIP3    H141929   6.691   6.256   8.118 -0.1701  0.9444 -0.7778
 6790TIP3    H241930   6.556   6.219   8.061 -0.2689 -0.1006  0.0869
 6791TIP3   OH241931   1.592   2.973   8.371 -0.1838  0.5569  0.5441
 6791TIP3    H141932   1.673   3.022   8.384 -0.9184  1.6015  1.3569
 6791TIP3    H241933   1.580   2.970   8.276  1.3750 -0.6083  0.3465
 6792TIP3   OH241934   4.353   5.924   3.315 -0.7211  0.1121 -0.0494
 6792TIP3    H141935   4.435   5.881   3.291 -0.3479  1.3321 -1.1116
 6792TIP3    H241936   4.368   5.959   3.402  0.0571  0.6964 -0.4098
 6793TIP3   OH241937   6.248   5.691   8.364 -0.6558  0.2863 -0.4205
 6793TIP3    H141938   6.316   5.691   8.432 -2.0715  1.2035  1.0713
 6793TIP3    H241939   6.234   5.598   8.345  0.8453  0.0734 -0.6057
 6794TIP3   OH241940   4.173   4.814   1.905 -0.2993  0.0114  0.2537
 6794TIP3    H141941   4.085   4.841   1.881 -0.4114 -1.5856 -1.3012
 6794TIP3    H241942   4.183   4.843   1.996 -1.8826  1.4650  0.0043
 6795TIP3   OH241943   4.827   6.473   1.174 -0.0690  0.3364 -0.1955
 6795TIP3    H141944   4.909   6.443   1.214  0.6246 -0.3594 -2.0022
 6795TIP3    H241945   4.766   6.400   1.186  0.8169 -0.8453 -2.2411
 6796TIP3   OH241946   1.562   1.213   0.263  0.1353  0.1478  0.4373
 6796TIP3    H141947   1.606   1.244   0.184  1.2670  2.2172  1.8092
 6796TIP3    H241948   1.626   1.157   0.305  0.2499  0.5785  0.8361
 6797TIP3   OH241949   5.642   5.005   0.357  0.3643 -0.5722  0.2191
 6797TIP3    H141950   5.547   5.002   0.350  0.2581  2.3544 -1.6132
 6797TIP3    H241951   5.659   5.065   0.430  0.4883  3.3351 -2.6910
 6798TIP3   OH241952   4.750   0.467   2.797  0.0406 -0.1218 -0.2061
 6798TIP3    H141953   4.690   0.515   2.740  1.4783  4.5734  1.6718
 6798TIP3    H241954   4.693   0.412   2.851 -1.8116 -0.7399 -2.6179
 6799TIP3   OH241955   5.806   2.081   1.313 -0.0662 -0.2617  0.1583
 6799TIP3    H141956   5.738   2.037   1.263  0.7542 -1.1384 -0.2122
 6799TIP3    H241957   5.794   2.048   1.403  2.5713 -4.0165 -0.6228
 6800TIP3   OH241958   0.144   5.869   2.696  0.3740 -0.0443  0.1180
 6800TIP3    H141959   0.127   5.944   2.753 -1.5918 -2.3732  2.8993
 6800TIP3    H241960   0.203   5.813   2.746 -1.3009 -2.1213 -0.0954
 6801TIP3   OH241961   0.094   6.321   3.058 -0.2430  0.2669  0.0001
 6801TIP3    H141962   0.017   6.344   3.006 -0.9966  0.0187  0.9713
 6801TIP3    H241963   0.144   6.402   3.064 -0.4256  0.4322 -0.6400
 6802TIP3   OH241964   2.723   0.189   2.044  0.1746 -0.6384 -0.1202
 6802TIP3    H141965   2.665   0.241   1.988  0.2408  0.6965  0.9948
 6802TIP3    H241966   2.672   0.111   2.065 -1.9051  1.1228  1.9852
 6803TIP3   OH241967   1.744   5.706   2.130 -0.0460 -0.9825 -0.4380
 6803TIP3    H141968   1.833   5.695   2.163  0.0713  3.2971  1.3544
 6803TIP3    H241969   1.688   5.678   2.202  0.0410  0.7809  0.3617
 6804TIP3   OH241970   2.920   1.162   1.850  0.1725 -0.6480 -0.2015
 6804TIP3    H141971   2.842   1.116   1.820 -1.5198  2.8850 -1.8104
 6804TIP3    H241972   2.949   1.212   1.774  2.7912 -0.2259  0.9690
 6805TIP3   OH241973   2.465   5.214   3.595  0.1444  0.0792 -0.2055
 6805TIP3    H141974   2.522   5.238   3.522  0.3597  1.6386  0.4289
 6805TIP3    H241975   2.383   5.260   3.578  0.7823  1.9790  1.3789
 6806TIP3   OH241976   4.314   1.036   2.589 -0.1364  0.0954  0.2609
 6806TIP3    H141977   4.225   1.015   2.617 -0.0778  0.1208  0.4692
 6806TIP3    H241978   4.368   0.966   2.627 -0.3154 -1.0787 -1.5422
 6807TIP3   OH241979   1.606   3.468   1.749  0.0529  0.7885 -0.3528
 6807TIP3    H141980   1.524   3.417   1.744 -0.9240  2.0816  1.4142
 6807TIP3    H241981   1.585   3.551   1.705  1.1536  0.3229 -1.8391
 6808TIP3   OH241982   6.090   4.804   2.780  0.2390 -0.4860 -0.0508
 6808TIP3    H141983   6.019   4.800   2.844  0.3770 -1.7484  0.0438
 6808TIP3    H241984   6.086   4.720   2.734  1.8065 -0.6850  0.1152
 6809TIP3   OH241985   2.251   3.948   2.973 -0.3020 -0.4214  0.0128
 6809TIP3    H141986   2.172   3.951   3.027  0.0612 -1.1448  0.6063
 6809TIP3    H241987   2.322   3.935   3.036  0.1969 -0.6219 -0.5857
 6810TIP3   OH241988   5.423   1.582   7.923 -0.4170 -0.5850  0.2422
 6810TIP3    H141989   5.507   1.616   7.955 -0.5138  0.0350 -0.1517
 6810TIP3    H241990   5.411   1.623   7.838 -0.1837 -2.1922 -0.6130
 6811TIP3   OH241991   3.734   0.097   8.148 -0.2443 -0.2733 -0.7457
 6811TIP3    H141992   3.719   0.003   8.151 -1.1115 -0.1345  0.9655
 6811TIP3    H241993   3.684   0.127   8.072  0.1054 -1.1918 -1.3457
 6812TIP3   OH241994   4.055   2.746   0.914  0.2149 -0.2485  0.3347
 6812TIP3    H141995   3.987   2.767   0.978 -1.4460 -0.0537 -1.4048
 6812TIP3    H241996   4.105   2.676   0.955 -2.5921 -2.1821  0.7223
 6813TIP3   OH241997   2.158   0.103   8.304  0.1404 -0.4326 -0.5200
 6813TIP3    H141998   2.132   0.195   8.297  0.2849 -0.1673  1.7426
 6813TIP3    H241999   2.126   0.063   8.223  0.3809  1.6579 -1.7271
 6814TIP3   OH242000   3.791   0.807   1.309  0.1908 -0.4533 -0.4749
 6814TIP3    H142001   3.720   0.840   1.365  1.5962 -1.4143  1.9728
 6814TIP3    H242002   3.790   0.713   1.321  1.2771 -0.5764 -1.2128
 6815TIP3   OH242003   2.492   0.603   1.050  0.0503  0.5768  0.5906
 6815TIP3    H142004   2.446   0.650   1.120  0.4443 -0.0581  1.2875
 6815TIP3    H242005   2.530   0.527   1.093  0.3531  0.2062 -0.3115
 6816TIP3   OH242006   2.901   3.175   8.031  0.8059 -0.1953 -0.1911
 6816TIP3    H142007   2.955   3.152   7.956  1.5429 -0.6103  0.4452
 6816TIP3    H242008   2.851   3.096   8.051 -0.9938  0.5570 -1.5305
 6817TIP3   OH242009   2.711   3.346   0.282  0.2755 -0.2555 -0.2588
 6817TIP3    H142010   2.806   3.341   0.271  0.3146  0.5318 -0.3549
 6817TIP3    H242011   2.698   3.344   0.377  0.5362  1.5215 -0.1472
 6818TIP3   OH242012   3.402   5.896   1.980  0.3250  0.2672 -0.8172
 6818TIP3    H142013   3.404   5.801   1.980 -1.7653  0.1446  0.8400
 6818TIP3    H242014   3.479   5.922   1.930  1.5168 -2.2535 -0.4367
 6819TIP3   OH242015   4.481   4.497   2.891  0.2551 -0.3378 -0.8942
 6819TIP3    H142016   4.544   4.482   2.962 -0.1358 -0.5519 -0.5875
 6819TIP3    H242017   4.430   4.416   2.887 -1.9883  0.8683  0.8619
 6820TIP3   OH242018   1.270   1.372   8.345  0.1806 -0.1245  0.3407
 6820TIP3    H142019   1.237   1.283   8.354 -1.0217  0.2566 -0.2017
 6820TIP3    H242020   1.203   1.427   8.384 -0.3232  0.7271 -1.5852
 6821TIP3   OH242021   3.274   6.428   2.397  0.4912  0.0693  0.1124
 6821TIP3    H142022   3.364   6.399   2.380  0.0386 -1.0818 -0.4084
 6821TIP3    H242023   3.246   6.376   2.472  0.1726  0.2730  0.1374
 6822TIP3   OH242024   5.403   3.646   8.561 -0.3685  0.1765  0.5566
 6822TIP3    H142025   5.447   3.615   8.482  0.5255 -0.3983  1.2653
 6822TIP3    H242026   5.314   3.610   8.554 -0.2563  0.0146 -0.1164
 6823TIP3   OH242027   4.775   2.789   2.770 -0.0646  0.0638  0.3042
 6823TIP3    H142028   4.760   2.869   2.822  0.8320  0.8034 -0.5451
 6823TIP3    H242029   4.851   2.748   2.810  0.0737  0.1513  0.1280
 6824TIP3   OH242030   3.207   1.938   0.693  0.3831  0.1825  0.3363
 6824TIP3    H142031   3.139   1.933   0.760 -0.8897 -2.0920 -0.9896
 6824TIP3    H242032   3.289   1.939   0.742 -0.4488 -2.5399  2.0025
 6825TIP3   OH242033   4.150   0.066   0.641 -0.0440  0.2365 -0.5046
 6825TIP3    H142034   4.174  -0.006   0.582  0.2770  1.5242 -2.0399
 6825TIP3    H242035   4.057   0.052   0.658 -0.2255 -0.0294 -1.5828
 6826TIP3   OH242036   6.273   4.581   8.477  0.6256  0.3499 -0.1259
 6826TIP3    H142037   6.196   4.539   8.514  0.0174 -0.7362 -2.4818
 6826TIP3    H242038   6.300   4.645   8.544 -1.5997 -0.0468  1.2363
 6827TIP3   OH242039   2.115   0.886   7.845 -0.0251 -0.1240 -0.0542
 6827TIP3    H142040   2.171   0.811   7.863 -1.3051 -1.2785 -0.6824
 6827TIP3    H242041   2.050   0.885   7.916  0.1586  0.6198  0.1328
 6828TIP3   OH242042   5.970   1.999   1.107  0.1616 -0.5439 -0.4661
 6828TIP3    H142043   5.934   2.023   1.193  0.1195 -1.0052 -0.3560
 6828TIP3    H242044   6.020   1.919   1.123  4.0579  1.7343  0.0968
 6829TIP3   OH242045   1.886   6.300   8.140  0.1554 -0.7141  0.4094
 6829TIP3    H142046   1.901   6.389   8.107  0.6284 -0.7235  0.5916
 6829TIP3    H242047   1.820   6.264   8.081 -0.5199 -0.0271  0.7145
 6830TIP3   OH242048   2.711   1.819   8.405  0.6369  0.2609  0.3119
 6830TIP3    H142049   2.781   1.796   8.344  0.5136 -0.6905  0.5151
 6830TIP3    H242050   2.756   1.847   8.485  0.7862  0.7095  0.0760
 6831TIP3   OH242051   3.499   2.795   3.444 -1.0606  0.3752  0.0227
 6831TIP3    H142052   3.422   2.790   3.388  0.7523 -1.6837 -2.5447
 6831TIP3    H242053   3.555   2.861   3.403  0.6391 -1.7166 -1.2791
 6832TIP3   OH242054   6.313   0.112   8.063 -0.6918 -0.1282 -0.0743
 6832TIP3    H142055   6.321   0.145   7.974 -2.7121  0.2222 -0.1695
 6832TIP3    H242056   6.276   0.024   8.053 -0.0563 -0.4622  0.4050
 6833TIP3   OH242057   1.317   4.404   8.166 -0.0018 -0.3021  0.1823
 6833TIP3    H142058   1.379   4.446   8.225 -0.5036  2.3306 -1.0272
 6833TIP3    H242059   1.232   4.413   8.209  0.1185 -1.9374  0.8262
 6834TIP3   OH242060   5.242   6.215   0.617  0.4027 -0.3239 -0.2652
 6834TIP3    H142061   5.207   6.186   0.701 -0.8970 -0.9382 -0.9774
 6834TIP3    H242062   5.254   6.134   0.568 -1.3921  0.1419 -1.5899
 6835TIP3   OH242063   3.392   2.276   0.306 -0.2007 -0.3465  0.9050
 6835TIP3    H142064   3.402   2.182   0.317 -0.4108 -0.1924  2.6469
 6835TIP3    H242065   3.450   2.315   0.372 -0.2795  0.7416  0.3564
 6836TIP3   OH242066   0.180   3.314   8.310  0.3473  0.2660 -0.4390
 6836TIP3    H142067   0.155   3.231   8.270 -1.9764  1.3244 -1.3845
 6836TIP3    H242068   0.262   3.338   8.266  0.9451 -1.3927 -0.2930
 6837TIP3   OH242069   1.763   3.227   3.351 -0.2514 -0.5508  0.4546
 6837TIP3    H142070   1.801   3.151   3.395 -0.6868 -0.0383  1.7772
 6837TIP3    H242071   1.693   3.191   3.297 -0.1317 -1.1410  0.6857
 6838TIP3   OH242072   0.585   2.216   2.174 -0.3303 -0.6505 -0.5580
 6838TIP3    H142073   0.566   2.144   2.113  0.1323  0.5707 -2.1956
 6838TIP3    H242074   0.631   2.173   2.246 -1.0616 -2.1776 -0.9445
 6839TIP3   OH242075   5.075   5.531   0.896  0.3256 -0.4686 -0.1034
 6839TIP3    H142076   5.112   5.605   0.848  1.7025 -1.2984 -0.3610
 6839TIP3    H242077   5.089   5.553   0.988 -0.7181  0.3078 -0.1125
 6840TIP3   OH242078   5.378   3.243   8.406  0.1949  0.8468 -0.2021
 6840TIP3    H142079   5.344   3.219   8.319  1.8989 -0.3721 -0.5782
 6840TIP3    H242080   5.417   3.162   8.440  0.3770  1.5389  1.3196
 6841TIP3   OH242081   4.703   2.727   2.469  0.8567  0.0866  0.3965
 6841TIP3    H142082   4.685   2.633   2.475  2.3637 -0.2731 -0.2442
 6841TIP3    H242083   4.694   2.747   2.376  1.1178  0.4530  0.4492
 6842TIP3   OH242084   2.366   5.189   0.647  0.0400 -0.4938  0.2978
 6842TIP3    H142085   2.440   5.247   0.630 -0.0685  0.2033  2.0195
 6842TIP3    H242086   2.327   5.222   0.727 -3.3787  0.3930 -1.5427
 6843TIP3   OH242087   2.856   1.183   0.776 -0.6742  0.0243 -0.6228
 6843TIP3    H142088   2.816   1.183   0.863 -1.1693 -0.0578 -0.8520
 6843TIP3    H242089   2.802   1.243   0.725  1.1052  2.1504 -0.1935
 6844TIP3   OH242090   2.752   3.423   2.814  0.6972 -0.6390 -0.0115
 6844TIP3    H142091   2.798   3.505   2.796 -1.4580  0.0632 -3.4175
 6844TIP3    H242092   2.665   3.450   2.844  1.0306 -1.8247  2.2275
 6845TIP3   OH242093   6.045   4.715   1.066 -0.2172  0.3916 -0.3189
 6845TIP3    H142094   6.088   4.710   1.152  1.1760 -0.8062 -1.0444
 6845TIP3    H242095   5.990   4.636   1.063 -0.2428  0.4197 -0.5478
 6846TIP3   OH242096   2.740   2.902   2.779 -0.5605 -0.1216 -0.2072
 6846TIP3    H142097   2.751   2.857   2.695 -2.6662 -2.1844  0.5290
 6846TIP3    H242098   2.646   2.904   2.793 -0.2591 -0.3834  2.3643
 6847TIP3   OH242099   3.973   0.970   3.388  0.2794 -0.5188 -0.3365
 6847TIP3    H142100   3.911   1.042   3.407  2.4002  1.9530 -2.0841
 6847TIP3    H242101   3.917   0.899   3.357 -1.8865  0.5527  0.7954
 6848TIP3   OH242102   1.824   3.783   1.123 -0.2466 -0.7349  0.1146
 6848TIP3    H142103   1.824   3.836   1.043 -0.8600  1.0511  1.2447
 6848TIP3    H242104   1.819   3.693   1.092  2.1178 -0.2803 -1.9382
 6849TIP3   OH242105   2.991   4.248   1.953  0.0705  0.0386  0.1200
 6849TIP3    H142106   3.036   4.314   1.900  1.1692 -0.3401  0.5522
 6849TIP3    H242107   2.916   4.221   1.899  0.4627  0.5467 -0.7048
 6850TIP3   OH242108   3.989   3.337   7.717  0.5126  0.4464  0.2228
 6850TIP3    H142109   3.947   3.321   7.632 -1.7448 -2.7532  1.7083
 6850TIP3    H242110   4.079   3.306   7.706  0.3794  0.4572 -1.0891
 6851TIP3   OH242111   5.676   6.383   1.855 -0.1423 -0.4742 -0.8182
 6851TIP3    H142112   5.733   6.322   1.808 -0.3606 -0.0810 -1.6018
 6851TIP3    H242113   5.667   6.458   1.797  1.1572  0.8908  0.6639
 6852TIP3   OH242114   0.367   1.060   8.867  0.1208 -0.0068 -0.4838
 6852TIP3    H142115   0.403   0.973   8.848 -0.0654 -0.2780  0.3233
 6852TIP3    H242116   0.296   1.071   8.804 -1.6120 -1.6029  1.0641
 6853TIP3   OH242117   4.693   5.911   2.384  0.1829  0.3308 -0.1068
 6853TIP3    H142118   4.709   6.003   2.404 -0.6737  0.4103  0.2626
 6853TIP3    H242119   4.780   5.872   2.378  0.5337  0.7373  1.7505
 6854TIP3   OH242120   6.376   5.913   1.207 -0.2301 -0.2623 -0.3991
 6854TIP3    H142121   6.378   6.000   1.167 -1.1752  0.1837  0.4772
 6854TIP3    H242122   6.403   5.853   1.136 -1.3626  0.5555 -1.5623
 6855TIP3   OH242123   4.064   1.480   0.843  0.0130  0.7492  0.0985
 6855TIP3    H142124   4.148   1.526   0.852  0.0429  0.6431  0.3667
 6855TIP3    H242125   4.011   1.538   0.789  0.5665  0.4053 -0.8397
 6856TIP3   OH242126   3.654   0.642   1.040  0.0425  0.5875 -0.2259
 6856TIP3    H142127   3.659   0.601   0.954  2.3349 -0.2440  0.2120
 6856TIP3    H242128   3.711   0.719   1.033 -1.3072  1.6322  0.0094
 6857TIP3   OH242129   2.942   3.456   0.916  0.1719  0.5607  0.1661
 6857TIP3    H142130   2.932   3.454   1.011  0.9848  2.6199  0.3418
 6857TIP3    H242131   2.864   3.501   0.884 -0.8926 -1.5297 -0.3397
 6858TIP3   OH242132   1.238   0.250   8.194  0.1053 -0.4874  0.2658
 6858TIP3    H142133   1.321   0.206   8.178  1.1931  1.4210  0.3707
 6858TIP3    H242134   1.174   0.199   8.144  1.5078 -1.3638 -0.7270
 6859TIP3   OH242135   1.949   2.337   3.513 -0.5563  0.1579 -0.1031
 6859TIP3    H142136   1.942   2.432   3.513  1.5589  0.3762  0.8842
 6859TIP3    H242137   1.897   2.309   3.590 -2.1013  0.3634 -1.0277
 6860TIP3   OH242138   6.242   2.216   0.110  0.7552  0.0215  0.3498
 6860TIP3    H142139   6.172   2.219   0.045  3.0250 -0.9632 -2.3073
 6860TIP3    H242140   6.222   2.138   0.162 -0.0980 -0.2690 -0.3914
 6861TIP3   OH242141   3.851   3.345   2.643  0.0053  0.8466 -0.3478
 6861TIP3    H142142   3.841   3.268   2.699  0.1073  3.1650  3.2316
 6861TIP3    H242143   3.944   3.344   2.618  0.0787 -0.0294 -0.0961
 6862TIP3   OH242144   6.295   2.720   1.055  0.2264 -0.8129 -0.4125
 6862TIP3    H142145   6.243   2.645   1.084 -0.3388 -0.9824 -1.7843
 6862TIP3    H242146   6.360   2.732   1.124  0.1728 -2.4090 -0.0448
 6863TIP3   OH242147   4.207   5.578   8.035  0.3143  0.0462  0.3103
 6863TIP3    H142148   4.225   5.538   7.950 -1.8592 -1.4681  0.4843
 6863TIP3    H242149   4.240   5.668   8.027  1.0891 -0.3672 -1.7401
 6864TIP3   OH242150   0.795   5.416   2.692 -0.2409  0.0624 -0.3805
 6864TIP3    H142151   0.734   5.426   2.765  0.7273 -0.1647  0.4926
 6864TIP3    H242152   0.858   5.351   2.722  0.7750  0.7211 -1.0138
 6865TIP3   OH242153   1.357   4.484   7.896  0.7147 -0.5008  0.1274
 6865TIP3    H142154   1.351   4.469   7.990  0.0012 -0.1334  0.1494
 6865TIP3    H242155   1.339   4.399   7.856 -0.8667 -0.2620  0.2909
 6866TIP3   OH242156   4.473   6.513   1.649  0.0331 -0.2282  0.0057
 6866TIP3    H142157   4.547   6.473   1.694 -0.5939 -1.4848 -0.0590
 6866TIP3    H242158   4.513   6.571   1.584  0.9484  0.3725  1.0691
 6867TIP3   OH242159   5.698   6.657   2.483 -0.5680  0.0051 -0.7238
 6867TIP3    H142160   5.718   6.566   2.509  0.6478  0.4374 -0.0445
 6867TIP3    H242161   5.645   6.691   2.555  1.2778  0.6400  0.4201
 6868TIP3   OH242162   6.106   3.415   2.760 -0.3067  0.9866  0.0981
 6868TIP3    H142163   6.035   3.435   2.821  0.2469 -0.1160  1.1527
 6868TIP3    H242164   6.162   3.492   2.762  0.5016  0.4308  2.2020
 6869TIP3   OH242165   1.965   3.632   8.123 -0.2874 -0.2623 -0.4096
 6869TIP3    H142166   1.975   3.650   8.030 -0.6349 -2.5729 -0.9733
 6869TIP3    H242167   1.875   3.598   8.131 -0.9298  1.5985  1.1207
 6870TIP3   OH242168   0.306   6.259   0.024  0.3536 -0.0921 -0.3143
 6870TIP3    H142169   0.355   6.299   0.096  0.1555 -0.1866 -0.1218
 6870TIP3    H242170   0.232   6.317   0.010  1.4345  0.9973 -1.7924
 6871TIP3   OH242171   5.205   3.688   0.554 -0.2684  0.0023 -0.3239
 6871TIP3    H142172   5.146   3.710   0.481 -0.0379 -2.0904 -1.2020
 6871TIP3    H242173   5.284   3.656   0.512  0.7235  0.7927  0.8777
 6872TIP3   OH242174   1.496   1.559   3.011 -0.1532 -0.2004  0.0550
 6872TIP3    H142175   1.515   1.612   2.933  0.7269 -0.9053 -0.2265
 6872TIP3    H242176   1.452   1.481   2.977  1.2468 -1.0417  0.1162
 6873TIP3   OH242177   0.318   2.026   1.386  0.0891 -0.3720  0.3846
 6873TIP3    H142178   0.333   2.024   1.291 -0.3451  0.4047  0.2872
 6873TIP3    H242179   0.302   1.935   1.410  1.2387 -0.7207 -0.1076
 6874TIP3   OH242180   5.367   4.534   7.766  0.6299  0.1447 -0.5550
 6874TIP3    H142181   5.357   4.624   7.734  0.7517  0.7746  1.0796
 6874TIP3    H242182   5.290   4.520   7.821  1.0450 -0.4431 -0.1226
 6875TIP3   OH242183   1.955   4.778   0.158 -0.1072  0.4684  0.3644
 6875TIP3    H142184   2.039   4.789   0.202  1.9119 -0.1585 -2.9408
 6875TIP3    H242185   1.947   4.854   0.100 -0.7094 -0.5211 -0.9264
 6876TIP3   OH242186   5.876   2.133   2.939  1.1019 -0.0051 -0.4584
 6876TIP3    H142187   5.912   2.078   3.009  2.0310  2.5336  1.1752
 6876TIP3    H242188   5.952   2.179   2.903  0.0755  2.3804  0.2566
 6877TIP3   OH242189   0.204   3.294   2.175 -0.1446  0.0623 -0.0925
 6877TIP3    H142190   0.110   3.310   2.166 -0.2742 -0.1981  0.7376
 6877TIP3    H242191   0.242   3.380   2.194 -0.3270  0.0360  0.4075
 6878TIP3   OH242192   2.152   3.085   0.013 -0.2263  0.4955  0.0280
 6878TIP3    H142193   2.224   3.118   0.067 -0.0181 -0.0643  0.1019
 6878TIP3    H242194   2.194   3.031  -0.053 -0.7079 -2.6106  2.0456
 6879TIP3   OH242195   6.016   4.497   0.584 -0.0858 -0.5244 -0.4944
 6879TIP3    H142196   6.062   4.532   0.507 -1.6806 -1.2243 -1.8115
 6879TIP3    H242197   6.023   4.567   0.649 -0.6657  1.0790 -2.0644
 6880TIP3   OH242198   1.213   5.189   0.979  0.1235 -0.6262  0.3095
 6880TIP3    H142199   1.248   5.115   1.028 -0.0109  0.4912  2.1871
 6880TIP3    H242200   1.200   5.258   1.044 -2.8188  0.0079 -0.7587
 6881TIP3   OH242201   1.610   5.399   0.907 -0.3294 -0.1428 -0.3287
 6881TIP3    H142202   1.584   5.388   0.816  1.1885  0.0195 -0.8136
 6881TIP3    H242203   1.677   5.332   0.921 -0.5776 -0.1903  0.6812
 6882TIP3   OH242204   3.561   2.003   2.781 -0.7148 -0.0292  0.1713
 6882TIP3    H142205   3.572   2.018   2.875  1.2338 -2.0176  0.3487
 6882TIP3    H242206   3.634   2.050   2.740  0.6980 -2.1471  0.0695
 6883TIP3   OH242207   2.529   0.308   1.893  0.0508 -0.3751  0.6276
 6883TIP3    H142208   2.449   0.341   1.934  0.6305  0.2112  1.3060
 6883TIP3    H242209   2.537   0.359   1.812 -1.3373 -1.8475 -0.4809
 6884TIP3   OH242210   2.015   2.053   2.959 -0.3370 -0.0579 -0.0983
 6884TIP3    H142211   1.940   2.109   2.974 -0.2403  0.4433 -1.3832
 6884TIP3    H242212   2.057   2.089   2.881  1.1294 -0.4409  0.4789
 6885TIP3   OH242213   0.362   2.771   0.026 -0.0228  0.1506  0.2994
 6885TIP3    H142214   0.276   2.814   0.020 -0.9094 -1.5052  0.5771
 6885TIP3    H242215   0.425   2.840   0.005 -1.2545  2.0760  2.4762
 6886TIP3   OH242216   4.211   3.930   8.405 -0.4148  1.1914 -0.1087
 6886TIP3    H142217   4.238   3.839   8.415 -1.2987  0.7605 -1.2845
 6886TIP3    H242218   4.141   3.927   8.340 -1.7886  2.4955  1.2353
 6887TIP3   OH242219   5.234   1.346   3.212 -0.2867  0.2646  0.3004
 6887TIP3    H142220   5.302   1.329   3.277  0.7295 -1.4743 -1.1384
 6887TIP3    H242221   5.154   1.310   3.250 -0.2097  1.2941  1.5047
 6888TIP3   OH242222   0.919   1.381   1.459  0.5981 -0.0641  0.1641
 6888TIP3    H142223   0.964   1.357   1.540  0.5512  2.1643  0.9049
 6888TIP3    H242224   0.945   1.471   1.443  0.2210 -0.2938 -2.0842
 6889TIP3   OH242225   2.641   1.438   0.880 -0.3871  0.6740 -0.9199
 6889TIP3    H142226   2.732   1.423   0.855 -0.4898 -0.9481 -0.3891
 6889TIP3    H242227   2.605   1.489   0.808  0.6282  0.3345 -1.6878
 6890TIP3   OH242228   5.381   2.069   1.750 -0.1057 -0.3094 -0.7363
 6890TIP3    H142229   5.365   2.092   1.842 -0.0415  0.6915 -0.9680
 6890TIP3    H242230   5.390   2.153   1.705  1.0781 -0.8023 -1.4549
 6891TIP3   OH242231   3.131   3.271   1.161  0.5179  0.4706  0.2001
 6891TIP3    H142232   3.181   3.260   1.242  0.8149  2.2818  0.3134
 6891TIP3    H242233   3.065   3.337   1.183  1.0599  1.5343 -1.2083
 6892TIP3   OH242234   2.518   4.697   1.314  0.0077 -0.5302 -0.2459
 6892TIP3    H142235   2.525   4.792   1.322  1.2066 -0.6434  0.1420
 6892TIP3    H242236   2.431   4.677   1.350  0.2635  0.2882  0.8765
 6893TIP3   OH242237   2.547   4.268   3.049 -0.0587  0.2529  0.2441
 6893TIP3    H142238   2.507   4.191   3.008 -2.1796  2.0221 -1.2515
 6893TIP3    H242239   2.610   4.299   2.984 -0.1722  0.5481  0.2775
 6894TIP3   OH242240   6.392   5.264   2.985  0.4068  0.3667  0.2693
 6894TIP3    H142241   6.332   5.327   3.025 -2.8111 -2.0049 -0.3607
 6894TIP3    H242242   6.380   5.276   2.891  2.0535  0.7552  0.0802
 6895TIP3   OH242243   2.402   0.486   2.056  0.0503 -0.8811 -0.5048
 6895TIP3    H142244   2.418   0.528   2.141 -0.9089 -0.9974 -0.2583
 6895TIP3    H242245   2.398   0.558   1.994 -1.3884 -0.5915 -0.1139
 6896TIP3   OH242246   5.123   5.426   2.487  0.6969 -0.3325  0.5359
 6896TIP3    H142247   5.169   5.502   2.521  0.9176  0.0556 -0.5908
 6896TIP3    H242248   5.164   5.351   2.531  1.6209  0.0921  0.4278
 6897TIP3   OH242249   5.461   3.508   8.302  0.4253  0.5222 -0.0765
 6897TIP3    H142250   5.469   3.481   8.210  2.7803  1.2912 -0.1812
 6897TIP3    H242251   5.423   3.432   8.346 -2.8984  0.9019 -1.9657
 6898TIP3   OH242252   5.513   5.131   2.525 -0.2104 -0.1328  0.3072
 6898TIP3    H142253   5.599   5.134   2.567 -0.6714 -0.0583  1.2849
 6898TIP3    H242254   5.502   5.218   2.486  0.7320 -0.5941 -1.0543
 6899TIP3   OH242255   4.673   1.853   6.990 -0.3118 -0.3828  0.1554
 6899TIP3    H142256   4.728   1.837   6.913 -0.2819  1.7835 -0.3232
 6899TIP3    H242257   4.730   1.834   7.065  0.5215  0.0648 -0.3499
 6900TIP3   OH242258   6.225   5.974   2.457  0.2415 -0.3807  0.4379
 6900TIP3    H142259   6.187   5.890   2.431  1.1391 -1.0829  1.2989
 6900TIP3    H242260   6.293   5.991   2.393  1.7205 -1.5694  1.6218
 6901TIP3   OH242261   5.892   5.586   8.681 -0.5131  0.1611  0.6251
 6901TIP3    H142262   5.861   5.526   8.750 -0.2322 -0.1738  0.4638
 6901TIP3    H242263   5.924   5.663   8.729  1.0198 -0.6586  0.9897
 6902TIP3   OH242264   3.806   2.990   0.229  0.3479  0.0562  0.1767
 6902TIP3    H142265   3.775   2.910   0.271  0.8370 -0.3600 -0.2425
 6902TIP3    H242266   3.775   3.060   0.286 -0.9591 -0.3579  0.0100
 6903TIP3   OH242267   3.008   1.569   8.410  0.2919  0.3907 -0.1724
 6903TIP3    H142268   3.092   1.522   8.405 -0.9344 -2.0782  0.8438
 6903TIP3    H242269   2.951   1.512   8.461 -2.8857  0.6483 -3.0660
 6904TIP3   OH242270   5.013   5.452   0.317 -0.3938 -0.2560 -0.1089
 6904TIP3    H142271   4.925   5.471   0.285 -0.3116 -1.5154 -1.1679
 6904TIP3    H242272   5.009   5.360   0.345  0.3485 -0.0482  0.7326
 6905TIP3   OH242273   3.026   0.653   0.637 -0.0922 -0.3357  0.1510
 6905TIP3    H142274   2.943   0.622   0.675  0.1638  0.9672  1.8895
 6905TIP3    H242275   3.085   0.578   0.646 -1.1624 -1.4462 -1.5364
 6906TIP3   OH242276   4.600   1.703   3.200  0.4485  1.1474  0.1103
 6906TIP3    H142277   4.604   1.638   3.270 -0.3656  0.8869 -0.0699
 6906TIP3    H242278   4.684   1.747   3.203  1.6285 -0.9023 -0.7081
 6907TIP3   OH242279   1.950   5.122   0.426 -0.1726 -0.7052  0.0554
 6907TIP3    H142280   2.015   5.090   0.489  0.4870 -0.7756 -0.6526
 6907TIP3    H242281   1.914   5.201   0.466  1.5295  0.2727 -0.2657
 6908TIP3   OH242282   0.401   3.060   8.218 -0.3993 -0.2625 -0.1420
 6908TIP3    H142283   0.451   3.025   8.144  1.2930  0.8274  0.4431
 6908TIP3    H242284   0.339   3.121   8.178 -0.0421 -0.2757 -0.7201
 6909TIP3   OH242285   4.513   1.982   2.052  0.4286  0.8153 -0.2180
 6909TIP3    H142286   4.518   1.941   1.966 -0.2900  1.5692 -0.6342
 6909TIP3    H242287   4.512   1.908   2.113  0.2326  0.2435 -0.8904
 6910TIP3   OH242288   6.314   0.277   0.674  0.4115  0.8522  0.6056
 6910TIP3    H142289   6.311   0.241   0.763  1.3048 -2.8632 -0.6533
 6910TIP3    H242290   6.408   0.288   0.656  0.2672  1.0774 -0.0360
 6911TIP3   OH242291   5.803   1.704   2.263 -0.3549  0.0593  0.1314
 6911TIP3    H142292   5.811   1.668   2.175  1.9999  0.3356  0.1820
 6911TIP3    H242293   5.784   1.796   2.250 -1.4777 -0.1817 -0.0445
 6912TIP3   OH242294   6.552   1.573   8.475 -0.5653 -0.3433 -0.3332
 6912TIP3    H142295   6.537   1.645   8.415 -1.3536 -1.8123 -1.9786
 6912TIP3    H242296   6.518   1.604   8.559 -0.8601  1.1862 -0.9932
 6913TIP3   OH242297   4.502   3.264   0.589 -0.1395 -0.1829  0.7574
 6913TIP3    H142298   4.472   3.309   0.668  0.8870  0.1450  0.9809
 6913TIP3    H242299   4.448   3.299   0.519  2.0770  3.1849  0.5176
 6914TIP3   OH242300   1.198   5.937   7.795  0.4069 -0.4333  0.0199
 6914TIP3    H142301   1.176   5.934   7.702  1.1981  0.4211 -0.2190
 6914TIP3    H242302   1.190   6.030   7.818  0.2184 -0.6365  0.8102
 6915TIP3   OH242303   4.010   3.636   1.181  0.4542  0.4413 -0.5055
 6915TIP3    H142304   3.947   3.604   1.246 -1.3530  0.3458 -2.2156
 6915TIP3    H242305   4.006   3.731   1.189  0.6015  0.4189 -0.1508
 6916TIP3   OH242306   0.681   3.416   8.426  0.6278 -0.2682  0.2361
 6916TIP3    H142307   0.691   3.356   8.353  0.9908 -2.0797  1.7068
 6916TIP3    H242308   0.612   3.477   8.398  1.1760 -0.5282 -1.8111
 6917TIP3   OH242309   3.543   1.358   0.626 -0.3374  0.6642  0.1235
 6917TIP3    H142310   3.513   1.396   0.543 -1.1811 -1.1402 -0.4303
 6917TIP3    H242311   3.462   1.331   0.671  0.2435 -1.3461  0.0467
 6918TIP3   OH242312   6.388   6.000   2.003 -0.4684  0.4009 -0.3291
 6918TIP3    H142313   6.334   6.041   2.071  0.2358  0.9274 -0.0769
 6918TIP3    H242314   6.468   5.975   2.049 -0.4971 -0.3824 -0.7015
 6919TIP3   OH242315   1.161   6.135   1.589  0.4175  0.4844 -0.0589
 6919TIP3    H142316   1.069   6.150   1.570  0.6923  2.5285 -0.0184
 6919TIP3    H242317   1.168   6.041   1.605 -1.4923  0.1662 -0.8748
 6920TIP3   OH242318   4.123   3.697   2.390  0.0417 -0.7825 -0.7379
 6920TIP3    H142319   4.180   3.636   2.344  0.0570 -0.4293 -1.1922
 6920TIP3    H242320   4.165   3.709   2.476  0.4882 -0.7596 -0.9558
 6921TIP3   OH242321   3.262   2.216   7.805  0.4265  0.0901 -0.1518
 6921TIP3    H142322   3.306   2.136   7.830 -0.1517 -0.3218 -0.4182
 6921TIP3    H242323   3.332   2.274   7.774  0.8364 -0.3326 -0.0228
 6922TIP3   OH242324   3.622   4.416   2.843  0.6972  0.2428  0.0953
 6922TIP3    H142325   3.648   4.330   2.811 -3.1454 -0.1140 -2.6694
 6922TIP3    H242326   3.551   4.399   2.904  2.4481  1.4285  2.6502
 6923TIP3   OH242327   4.378   3.613   2.811 -0.4977 -0.2882 -0.4682
 6923TIP3    H142328   4.457   3.564   2.786 -0.7233 -0.0871 -1.6336
 6923TIP3    H242329   4.403   3.660   2.890  0.9824  0.7843 -1.5248
 6924TIP3   OH242330   3.495   3.099   1.895  0.6800  0.0596 -0.7708
 6924TIP3    H142331   3.429   3.103   1.965  0.8427  0.4615 -0.6371
 6924TIP3    H242332   3.507   3.191   1.869  2.4897  0.2014  0.4136
 6925TIP3   OH242333   4.862   0.491   8.001 -0.7040  0.0597 -0.1210
 6925TIP3    H142334   4.948   0.480   7.961 -0.7684 -1.6310  0.1628
 6925TIP3    H242335   4.860   0.429   8.073 -2.3694 -0.3448 -0.4572
 6926TIP3   OH242336   4.530   1.334   1.095 -0.2222  0.2912 -0.0013
 6926TIP3    H142337   4.486   1.301   1.174 -0.7870 -0.4418 -0.6095
 6926TIP3    H242338   4.516   1.266   1.030  1.8292  0.0221 -0.2311
 6927TIP3   OH242339   1.528   2.402   0.058  0.6998 -0.3064  0.2123
 6927TIP3    H142340   1.547   2.321   0.106  1.1121 -0.3884 -0.0890
 6927TIP3    H242341   1.462   2.446   0.112  0.0258 -1.1210  0.0734
 6928TIP3   OH242342   3.354   6.085   1.082  0.5972  0.1607 -0.0572
 6928TIP3    H142343   3.402   6.071   1.000 -0.4938 -1.3026 -0.4952
 6928TIP3    H242344   3.303   6.164   1.067  1.7248  0.9052 -0.1158
 6929TIP3   OH242345   0.720   4.485   1.326  0.3329 -0.0362  0.0416
 6929TIP3    H142346   0.690   4.440   1.248 -1.8017 -0.8065  1.2200
 6929TIP3    H242347   0.667   4.448   1.397  2.8499 -0.1231  2.0554
 6930TIP3   OH242348   2.419   0.048   7.342  0.2928 -0.3512  0.0873
 6930TIP3    H142349   2.492   0.009   7.295 -0.0917 -1.7985  0.6286
 6930TIP3    H242350   2.425   0.011   7.430  0.8770  2.1357  1.1565
 6931TIP3   OH242351   1.745   1.619   2.763 -0.2804 -0.1336  0.5548
 6931TIP3    H142352   1.787   1.702   2.740 -1.1955 -0.3455 -2.2841
 6931TIP3    H242353   1.655   1.643   2.785 -0.5050 -0.3437 -0.1193
 6932TIP3   OH242354   5.500   5.039   1.202 -0.0388 -0.4818 -0.3985
 6932TIP3    H142355   5.479   4.955   1.242  0.8834  0.4843  2.3407
 6932TIP3    H242356   5.421   5.091   1.211  1.0773  0.8953  3.7050
 6933TIP3   OH242357   5.074   2.496   8.119  0.4656 -0.3202 -0.0510
 6933TIP3    H142358   5.045   2.439   8.047  0.7156  0.6064 -0.8989
 6933TIP3    H242359   5.165   2.516   8.099  1.6112 -2.6551  2.2371
 6934TIP3   OH242360   2.172   2.106   1.711 -0.7168  0.0168  0.0565
 6934TIP3    H142361   2.140   2.015   1.712 -1.5644  0.1957 -2.5664
 6934TIP3    H242362   2.268   2.097   1.714 -0.6619 -1.1727 -2.4678
 6935TIP3   OH242363   6.398   0.273   8.280 -0.0157 -0.2998 -0.3222
 6935TIP3    H142364   6.359   0.214   8.215 -0.0444  1.3791 -1.9046
 6935TIP3    H242365   6.331   0.340   8.294  1.2743  1.2381 -1.1989
 6936TIP3   OH242366   4.424   0.095   7.381 -1.2049 -0.4598  0.8182
 6936TIP3    H142367   4.440   0.176   7.430 -2.3618  1.2234 -1.3891
 6936TIP3    H242368   4.329   0.089   7.375 -1.1149 -1.4098  0.0246
 6937TIP3   OH242369   6.085   3.089   1.139 -0.1028  0.1170 -0.8113
 6937TIP3    H142370   6.048   3.168   1.177 -1.8518 -0.3902 -1.3516
 6937TIP3    H242371   6.059   3.019   1.199  0.0590 -0.2386 -1.1510
 6938TIP3   OH242372   3.566   4.445   0.521  0.1241  0.3863  0.4018
 6938TIP3    H142373   3.546   4.357   0.487  0.6015  0.2235  0.5330
 6938TIP3    H242374   3.527   4.446   0.608  2.7696 -0.8248  1.6773
 6939TIP3   OH242375   3.337   1.395   0.418 -0.0929 -0.0130 -0.2259
 6939TIP3    H142376   3.300   1.315   0.455 -1.3736 -0.4437 -2.2211
 6939TIP3    H242377   3.379   1.366   0.337  1.5531  1.0147  0.2304
 6940TIP3   OH242378   6.335   2.038   3.002 -0.4760 -0.5809 -0.3166
 6940TIP3    H142379   6.373   2.117   2.963 -0.2925  0.4060  1.7433
 6940TIP3    H242380   6.290   2.069   3.081 -1.9342 -2.3101 -0.4081
 6941TIP3   OH242381   0.170   2.207   1.980  0.0656 -0.1405  0.9852
 6941TIP3    H142382   0.207   2.135   2.032  0.7682 -0.4884  0.0342
 6941TIP3    H242383   0.239   2.273   1.980  1.4180 -1.3607 -1.9913
 6942TIP3   OH242384   5.272   2.705   1.174  0.2857  0.0565  0.1806
 6942TIP3    H142385   5.222   2.645   1.118  0.6716  0.7275 -0.9179
 6942TIP3    H242386   5.342   2.652   1.211 -0.6895 -0.6830  1.0274
 6943TIP3   OH242387   5.052   1.319   0.963  0.5462  0.3052 -0.1584
 6943TIP3    H142388   5.053   1.384   1.033 -1.7539  0.4019 -0.1421
 6943TIP3    H242389   5.001   1.360   0.893  0.2460 -0.9387 -0.7000
 6944TIP3   OH242390   1.193   3.521   0.115 -0.1066 -0.6225 -0.4426
 6944TIP3    H142391   1.225   3.578   0.045  1.4643  1.3123  1.6937
 6944TIP3    H242392   1.269   3.467   0.139  0.2308  0.5793  1.4215
 6945TIP3   OH242393   4.662   3.729   2.511 -0.2450  0.2630 -0.3515
 6945TIP3    H142394   4.691   3.805   2.561 -1.2492  1.5701 -1.6775
 6945TIP3    H242395   4.708   3.736   2.428  1.8264 -2.1768  0.4400
 6946TIP3   OH242396   0.163   3.006   0.405  0.1588  0.0116 -0.4956
 6946TIP3    H142397   0.214   2.937   0.447 -0.6414  1.0129  2.3490
 6946TIP3    H242398   0.227   3.057   0.356  1.1867 -1.1787 -0.4484
 6947TIP3   OH242399   0.698   0.602   1.668  0.6120 -0.2216  0.1265
 6947TIP3    H142400   0.792   0.587   1.669  0.8250  0.9188 -0.8659
 6947TIP3    H242401   0.677   0.625   1.759  0.8712 -2.6365  0.8664
 6948TIP3   OH242402   0.479   6.462   2.177  0.5235 -0.0478  0.2358
 6948TIP3    H142403   0.420   6.531   2.146  0.1249  0.3067  1.7216
 6948TIP3    H242404   0.565   6.505   2.181  0.0781  0.7822  2.2972
 6949TIP3   OH242405   2.766   3.690   3.332 -0.3020 -0.2838 -0.2383
 6949TIP3    H142406   2.687   3.642   3.359 -0.2004 -1.0178 -1.2035
 6949TIP3    H242407   2.733   3.772   3.295 -0.5458 -0.1112  0.3499
 6950TIP3   OH242408   3.581   0.932   2.523  0.2761 -0.0879 -0.2529
 6950TIP3    H142409   3.495   0.891   2.517  0.0750  0.3168 -0.2101
 6950TIP3    H242410   3.594   0.974   2.438 -0.2370  1.1206  0.2323
 6951TIP3   OH242411   6.008   3.997   0.799 -0.7621  0.1833 -0.3696
 6951TIP3    H142412   6.059   4.071   0.767 -1.4870  0.3623 -1.1463
 6951TIP3    H242413   6.048   3.921   0.756 -0.7940  0.2564 -0.5285
 6952TIP3   OH242414   1.326   6.297   1.446 -0.2854  0.1920  0.7543
 6952TIP3    H142415   1.336   6.238   1.371  0.7749 -1.3771  2.0463
 6952TIP3    H242416   1.268   6.250   1.506  0.0711  0.7322  1.5448
 6953TIP3   OH242417   4.629   6.132   2.747  0.4491  0.1320 -0.9229
 6953TIP3    H142418   4.626   6.172   2.834  3.0323 -2.0017  0.2597
 6953TIP3    H242419   4.610   6.205   2.687 -0.4958  1.8629  1.3145
 6954TIP3   OH242420   3.756   4.682   0.880  0.0188  0.1800  0.6645
 6954TIP3    H142421   3.665   4.668   0.906 -0.8123  1.3062 -1.4194
 6954TIP3    H242422   3.789   4.594   0.860 -1.3310 -0.0540 -0.7097
 6955TIP3   OH242423   4.411   2.025   8.484  0.4127  0.1105  0.3652
 6955TIP3    H142424   4.411   2.021   8.580 -0.9246 -1.3611  0.3368
 6955TIP3    H242425   4.490   1.977   8.459  0.1555 -0.5009  0.7094
 6956TIP3   OH242426   3.589   5.368   1.827 -0.1682 -0.1756  0.1264
 6956TIP3    H142427   3.520   5.307   1.804 -0.5470 -0.3474  1.6426
 6956TIP3    H242428   3.577   5.385   1.921  1.8994 -0.2962  0.4611
 6957TIP3   OH242429   2.314   5.147   8.355  0.0455  0.3031 -0.0566
 6957TIP3    H142430   2.382   5.099   8.306 -0.3189 -0.5061  0.2127
 6957TIP3    H242431   2.241   5.155   8.294 -0.3612 -0.5946  0.2901
 6958TIP3   OH242432   2.713   1.803   7.638 -0.1771  0.2385  0.5115
 6958TIP3    H142433   2.793   1.835   7.680  0.7087 -1.4879  0.2399
 6958TIP3    H242434   2.739   1.721   7.595 -1.6296  0.6892 -1.3568
 6959TIP3   OH242435   3.284   4.518   2.893  0.2868 -0.5771  0.6792
 6959TIP3    H142436   3.196   4.485   2.910  0.9205 -1.6783  1.9293
 6959TIP3    H242437   3.325   4.451   2.838  0.9847 -1.0301  1.7366
 6960TIP3   OH242438   0.988   5.815   1.668 -0.3858  0.8480  0.3106
 6960TIP3    H142439   0.944   5.872   1.606 -0.3085  1.0288  0.4224
 6960TIP3    H242440   0.949   5.729   1.653  0.6249  0.5794 -0.9748
 6961TIP3   OH242441   4.745   0.082   7.641 -0.1462 -0.2759 -0.0175
 6961TIP3    H142442   4.789   0.014   7.691  3.2852  1.1721 -0.8153
 6961TIP3    H242443   4.749   0.051   7.550  1.9456  1.0967 -0.4616
 6962TIP3   OH242444   6.633   2.111   2.710 -0.7138 -0.1441  0.0933
 6962TIP3    H142445   6.711   2.057   2.718 -1.0670 -1.0918 -2.1198
 6962TIP3    H242446   6.619   2.147   2.798  2.5566  0.5976  0.4552
 6963TIP3   OH242447   1.804   0.462   0.898  0.0842 -0.3976 -0.0284
 6963TIP3    H142448   1.738   0.529   0.880 -0.1511 -0.3985  0.7795
 6963TIP3    H242449   1.775   0.386   0.847  0.9599  0.4330 -1.8489
 6964TIP3   OH242450   6.342   3.889   8.928  0.0326  0.3302 -0.4185
 6964TIP3    H142451   6.381   3.943   8.860 -0.2381  0.4778 -0.4572
 6964TIP3    H242452   6.393   3.809   8.927  0.1135  0.3831 -0.7073
 6965TIP3   OH242453   0.436   4.071   8.117  0.1138  0.2864  0.4326
 6965TIP3    H142454   0.349   4.103   8.093  0.1489 -0.1456 -0.2821
 6965TIP3    H242455   0.487   4.150   8.133  0.6434  0.7075 -2.8261
 6966TIP3   OH242456   2.330   5.654   1.635 -0.2104 -0.1949 -0.2335
 6966TIP3    H142457   2.272   5.718   1.593 -0.4540  0.3100  0.8479
 6966TIP3    H242458   2.271   5.590   1.674  0.0111 -0.5619 -0.4918
 6967TIP3   OH242459   4.800   5.965   0.016 -0.1050  0.5775 -0.4219
 6967TIP3    H142460   4.803   5.869   0.013  2.1437  0.5869 -0.3942
 6967TIP3    H242461   4.873   5.993  -0.039  0.6452  2.2206  1.2761
 6968TIP3   OH242462   6.239   3.484   2.312 -0.7772 -0.3674  0.6426
 6968TIP3    H142463   6.150   3.451   2.319  0.0449 -3.6401 -1.4904
 6968TIP3    H242464   6.294   3.405   2.318  1.7396  1.1185 -0.9429
 6969TIP3   OH242465   5.149   6.616   8.956  0.0202 -0.2307 -0.0054
 6969TIP3    H142466   5.127   6.571   9.037  0.3906  0.4931  0.5083
 6969TIP3    H242467   5.073   6.671   8.937  0.8274  1.3467  1.1136
 6970TIP3   OH242468   5.228   4.921   8.374 -0.2196  0.1323  0.2918
 6970TIP3    H142469   5.250   5.003   8.329 -0.2911  1.8258  3.1319
 6970TIP3    H242470   5.312   4.885   8.400 -0.2689  0.3569  0.7687
 6971TIP3   OH242471   4.136   1.375   0.349 -0.2996  0.1648 -0.0869
 6971TIP3    H142472   4.133   1.369   0.445  0.1667  1.0510 -0.0026
 6971TIP3    H242473   4.062   1.322   0.319  1.0498 -2.3235  0.6413
 6972TIP3   OH242474   3.525   0.000   8.401 -0.4956 -0.1107 -0.2136
 6972TIP3    H142475   3.449   0.052   8.377 -0.0501  0.0641 -1.3149
 6972TIP3    H242476   3.503  -0.089   8.375 -0.7290 -0.2544  0.4456
 6973TIP3   OH242477   5.790   5.960   2.893  0.6455 -0.0908 -1.0757
 6973TIP3    H142478   5.871   5.930   2.935  1.0765  1.2849 -0.8986
 6973TIP3    H242479   5.740   6.002   2.962 -0.4726 -1.3497 -1.0760
 6974TIP3   OH242480   3.785   6.667   8.477 -0.3355 -0.0789 -0.0316
 6974TIP3    H142481   3.714   6.697   8.421  0.2444 -1.1470 -1.3893
 6974TIP3    H242482   3.863   6.709   8.442  0.0877 -1.0468 -0.2609
 6975TIP3   OH242483   3.968   6.521   0.478 -0.1522 -0.1124  0.6223
 6975TIP3    H142484   3.937   6.435   0.450  0.4346  0.6285 -2.7140
 6975TIP3    H242485   3.890   6.576   0.478 -0.0696  0.0235 -0.3073
 6976TIP3   OH242486   6.673   1.569   8.742  0.5905 -0.2867 -0.2500
 6976TIP3    H142487   6.665   1.565   8.837  1.4090 -1.4478 -0.2082
 6976TIP3    H242488   6.627   1.491   8.710  1.1425 -0.4205 -0.7377
 6977TIP3   OH242489   2.813   0.429   8.942  0.2897  0.4749  0.0720
 6977TIP3    H142490   2.908   0.438   8.928  0.4731  0.2587  1.0945
 6977TIP3    H242491   2.793   0.493   9.011 -0.0833 -0.3271  0.7258
 6978TIP3   OH242492   0.942   0.060   1.693 -0.2694 -0.8398 -0.0885
 6978TIP3    H142493   0.949   0.048   1.788  0.9827 -1.3255 -0.2242
 6978TIP3    H242494   0.905   0.148   1.683 -0.7960 -0.9443  0.8510
 6979TIP3   OH242495   4.452   5.913   8.559 -0.0298 -0.5567 -0.7052
 6979TIP3    H142496   4.522   5.863   8.517  1.5903  0.2585  0.8833
 6979TIP3    H242497   4.493   5.949   8.638 -1.3964  2.4197 -1.2397
 6980TIP3   OH242498   2.803   0.378   7.745 -0.5234  0.1652  0.2393
 6980TIP3    H142499   2.711   0.356   7.760 -0.9690  0.7379 -1.4418
 6980TIP3    H242500   2.848   0.347   7.823 -1.8277 -2.0178  0.1941
 6981TIP3   OH242501   4.504   1.199   7.985  0.2020 -0.2217  0.5034
 6981TIP3    H142502   4.437   1.132   7.968 -0.5738  0.5583  0.4252
 6981TIP3    H242503   4.481   1.271   7.926  1.2165 -0.0043  0.3542
 6982TIP3   OH242504   4.865   4.928   0.836  0.0193 -0.1145 -0.1399
 6982TIP3    H142505   4.907   4.862   0.892 -2.0264 -1.1726  0.2502
 6982TIP3    H242506   4.914   5.008   0.852  1.0958 -0.9962  1.2021
 6983TIP3   OH242507   6.396   2.666   2.933  0.1359 -0.6645  0.1472
 6983TIP3    H142508   6.310   2.634   2.959 -1.1134  0.7980 -1.8545
 6983TIP3    H242509   6.417   2.618   2.853  0.1002  0.5470 -0.6198
 6984TIP3   OH242510   0.608   3.936   0.951 -0.0230 -0.5365 -0.5514
 6984TIP3    H142511   0.567   3.880   1.017  0.0585  0.0952  0.0463
 6984TIP3    H242512   0.677   3.983   0.998 -2.0089  2.3498 -0.2308
 6985TIP3   OH242513   3.063   0.250   2.126  0.4653  0.1797 -0.1819
 6985TIP3    H142514   3.051   0.170   2.074  0.8857  1.3605 -2.1978
 6985TIP3    H242515   3.108   0.310   2.067  1.9077  1.2786  1.9259
 6986TIP3   OH242516   0.890   6.616   1.252 -0.2834  0.1876  0.0386
 6986TIP3    H142517   0.831   6.607   1.177 -1.5470  1.1938  0.8758
 6986TIP3    H242518   0.832   6.634   1.326  1.1198  2.4341  0.6897
 6987TIP3   OH242519   0.865   4.190   0.487  0.2422 -0.7727 -0.4880
 6987TIP3    H142520   0.848   4.132   0.413  1.8580 -0.5632 -1.0732
 6987TIP3    H242521   0.961   4.193   0.493  0.1530  0.1387  0.8821
 6988TIP3   OH242522   4.388   2.007   3.452 -0.8002  0.3161 -0.3749
 6988TIP3    H142523   4.303   2.039   3.483 -0.3671  1.5945 -0.4675
 6988TIP3    H242524   4.400   1.923   3.498 -1.7491  0.5038  0.2399
 6989TIP3   OH242525   4.299   0.513   8.022 -0.3556  0.0533  0.3737
 6989TIP3    H142526   4.226   0.509   7.960 -0.7315  1.6859  0.6808
 6989TIP3    H242527   4.363   0.570   7.981 -1.8501  3.6695  2.6274
 6990TIP3   OH242528   3.491   3.687   0.012  0.2481  0.2447  0.1147
 6990TIP3    H142529   3.530   3.606  -0.021  0.3909 -0.5048  2.0251
 6990TIP3    H242530   3.397   3.675  -0.004  0.3252 -0.0215 -0.1682
 6991TIP3   OH242531   2.927   2.570   0.956 -0.4993 -0.2846 -0.9631
 6991TIP3    H142532   2.895   2.636   1.017 -0.1638 -1.4909  0.5851
 6991TIP3    H242533   2.882   2.490   0.981  1.4250 -1.3501 -0.6958
 6992TIP3   OH242534   1.667   5.301   0.542  0.6873  0.3741  0.0150
 6992TIP3    H142535   1.632   5.240   0.607  0.0269 -0.6586 -1.2592
 6992TIP3    H242536   1.762   5.295   0.550  0.6409 -1.1104 -0.3222
 6993TIP3   OH242537   4.667   5.292   7.553  0.2112  0.3587 -0.2714
 6993TIP3    H142538   4.664   5.343   7.472 -0.2466 -0.1172 -0.5584
 6993TIP3    H242539   4.600   5.332   7.608  0.4832  0.6455 -0.1432
 6994TIP3   OH242540   0.247   5.975   1.125 -0.1562 -0.4014 -0.2697
 6994TIP3    H142541   0.264   6.037   1.054  0.1484 -0.5819 -0.3551
 6994TIP3    H242542   0.282   5.892   1.094 -0.7449 -0.6618 -0.2354
 6995TIP3   OH242543   0.750   6.612   0.997 -0.5298  0.2130 -0.4341
 6995TIP3    H142544   0.731   6.537   0.940  3.1475 -1.0826 -0.2168
 6995TIP3    H242545   0.772   6.683   0.938  0.3011 -0.2223 -0.6574
 6996TIP3   OH242546   1.096   2.253   1.256 -0.0715  0.2153  0.4672
 6996TIP3    H142547   1.082   2.291   1.343 -1.2364  0.8482  0.0166
 6996TIP3    H242548   1.021   2.196   1.243 -1.6958  2.5603 -1.3966
 6997TIP3   OH242549   5.777   2.278   7.898 -0.6097 -0.0608 -0.0219
 6997TIP3    H142550   5.838   2.204   7.896 -0.8578 -0.2686  0.0339
 6997TIP3    H242551   5.833   2.355   7.891 -0.2390 -0.1948  1.2331
 6998TIP3   OH242552   1.606   3.403   1.211 -0.8117 -1.0555  0.5340
 6998TIP3    H142553   1.531   3.352   1.180  0.0434 -1.8223 -0.3728
 6998TIP3    H242554   1.624   3.464   1.140  0.0903 -1.6343  0.2485
 6999TIP3   OH242555   2.471   1.475   1.098  0.0570 -0.2165  0.7364
 6999TIP3    H142556   2.521   1.496   1.176 -0.3389 -0.9312  1.1982
 6999TIP3    H242557   2.537   1.456   1.031  0.4043  1.1811  0.6563
 7000TIP3   OH242558   2.886   2.016   8.903 -0.2696 -0.4288  0.1265
 7000TIP3    H142559   2.845   2.089   8.856 -0.8136 -0.8523 -0.0797
 7000TIP3    H242560   2.980   2.030   8.892 -0.3815 -0.5992 -1.2289
 7001TIP3   OH242561   0.743   1.140   0.911 -0.4343 -0.0380  0.4233
 7001TIP3    H142562   0.667   1.188   0.880 -1.3767 -1.7205  0.0491
 7001TIP3    H242563   0.782   1.198   0.978 -0.6719  1.8501 -0.9720
 7002TIP3   OH242564   1.002   5.171   7.707  0.1019  0.4180  0.5988
 7002TIP3    H142565   0.985   5.253   7.660 -1.0627 -0.4709 -0.5934
 7002TIP3    H242566   0.992   5.103   7.640 -2.9565 -1.0137  2.3214
 7003TIP3   OH242567   4.691   4.723   1.490  0.2980  0.4667 -0.1772
 7003TIP3    H142568   4.624   4.692   1.429 -0.2887  0.4420  0.4654
 7003TIP3    H242569   4.672   4.676   1.571  2.0757 -0.7572 -0.4153
 7004TIP3   OH242570   6.246   5.820   1.870 -0.2605 -0.1897  0.8202
 7004TIP3    H142571   6.205   5.773   1.943  1.8811 -1.1673  1.4588
 7004TIP3    H242572   6.308   5.880   1.911  0.9128 -0.6794 -0.1503
 7005TIP3   OH242573   5.748   1.461   1.302 -0.1908 -0.2115  0.0940
 7005TIP3    H142574   5.682   1.422   1.358 -0.3225  1.2345  1.0103
 7005TIP3    H242575   5.831   1.450   1.349  0.2137 -1.7646 -0.9175
 7006TIP3   OH242576   0.876   5.687   3.371 -0.0241 -0.1397  0.0263
 7006TIP3    H142577   0.910   5.649   3.452  0.6242  1.4787  0.5595
 7006TIP3    H242578   0.934   5.653   3.302  0.5106 -0.1496  0.4749
 7007TIP3   OH242579   1.385   5.744   0.503  0.6465  0.0568  0.2576
 7007TIP3    H142580   1.454   5.696   0.549 -0.6812 -0.8315  1.3617
 7007TIP3    H242581   1.325   5.677   0.471 -0.2505  0.8677  0.1899
 7008TIP3   OH242582   3.078   5.830   7.781  0.3328  0.3867 -0.2212
 7008TIP3    H142583   3.160   5.859   7.820 -0.3735  0.7874  1.0101
 7008TIP3    H242584   3.069   5.739   7.809  0.1483  0.4768  0.0198
 7009TIP3   OH242585   6.275   3.954   0.576 -0.0808 -0.2430  0.8306
 7009TIP3    H142586   6.317   4.038   0.552 -0.3229 -0.6987 -1.4582
 7009TIP3    H242587   6.292   3.945   0.669  2.3954  1.0261  0.5993
 7010TIP3   OH242588   4.522   1.252   7.281 -0.3109  0.0793  0.5359
 7010TIP3    H142589   4.479   1.230   7.364 -1.3667 -0.3822 -0.1051
 7010TIP3    H242590   4.457   1.305   7.235  0.4293  0.6823  0.1595
 7011TIP3   OH242591   2.345   4.665   0.373 -0.8208 -0.0001 -0.6005
 7011TIP3    H142592   2.347   4.636   0.464 -1.8624 -0.3460 -0.6718
 7011TIP3    H242593   2.376   4.589   0.323 -1.6722 -0.3392 -0.6351
 7012TIP3   OH242594   5.790   4.231   3.308  0.2674 -0.4103 -0.3050
 7012TIP3    H142595   5.704   4.238   3.350  1.2599 -0.1508  1.8055
 7012TIP3    H242596   5.791   4.142   3.272 -0.8843 -0.4157 -0.3727
 7013TIP3   OH242597   6.194   1.724   1.139  0.8650 -0.6840 -0.2329
 7013TIP3    H142598   6.135   1.730   1.063  0.3787  1.0177  0.2386
 7013TIP3    H242599   6.282   1.720   1.100  0.5862 -0.5520 -0.8981
 7014TIP3   OH242600   0.388   3.047   2.227 -0.0344  0.2545 -0.0186
 7014TIP3    H142601   0.478   3.069   2.248  0.0876 -0.3619  0.1146
 7014TIP3    H242602   0.338   3.125   2.251  0.8016  1.8877 -2.9965
 7015TIP3   OH242603   4.106   2.198   8.644  0.1888 -1.1794  0.2061
 7015TIP3    H142604   4.202   2.196   8.639  0.1363 -0.8829 -1.7289
 7015TIP3    H242605   4.086   2.290   8.665  0.3152 -1.1367  0.1453
 7016TIP3   OH242606   3.311   5.565   3.008 -0.2576 -0.1417  0.0601
 7016TIP3    H142607   3.223   5.572   2.972 -0.0850 -0.8644 -0.5291
 7016TIP3    H242608   3.312   5.626   3.082 -0.9708  0.5280 -0.4764
 7017TIP3   OH242609   4.274   2.418   2.129  0.2982 -0.3788 -0.1757
 7017TIP3    H142610   4.365   2.406   2.102  0.6839 -0.9371  1.2395
 7017TIP3    H242611   4.224   2.359   2.073  0.5902  0.9812 -1.9534
 7018TIP3   OH242612   3.102   5.905   2.645  0.6265 -0.2220  0.0988
 7018TIP3    H142613   3.042   5.979   2.638  1.6358  0.7456  1.2590
 7018TIP3    H242614   3.165   5.918   2.574 -0.0488 -0.8144 -0.6315
 7019TIP3   OH242615   6.163   0.537   8.858  0.3731 -0.0100 -0.1640
 7019TIP3    H142616   6.213   0.600   8.910 -1.1804 -0.7516  2.3787
 7019TIP3    H242617   6.230   0.487   8.811  1.7716  1.6189 -0.0131
 7020TIP3   OH242618   4.818   2.680   3.091 -0.3310 -0.1666  0.8778
 7020TIP3    H142619   4.892   2.740   3.097 -0.5163 -0.0748  2.8781
 7020TIP3    H242620   4.748   2.724   3.138 -1.3206 -0.7830  0.0359
 7021TIP3   OH242621   1.996   1.136   1.274  0.2467  0.1319  0.5958
 7021TIP3    H142622   1.914   1.181   1.256 -0.2623 -0.7203  0.7241
 7021TIP3    H242623   2.055   1.205   1.304 -0.1748  0.8843 -0.2508
 7022TIP3   OH242624   4.510   2.474   1.942  0.4348 -0.3499 -0.5499
 7022TIP3    H142625   4.570   2.517   1.881 -0.4218  1.7916  0.0035
 7022TIP3    H242626   4.437   2.536   1.950 -0.7544 -1.8323  0.5480
 7023TIP3   OH242627   5.425   3.274   1.783 -0.1179  0.1949 -0.5857
 7023TIP3    H142628   5.477   3.228   1.849 -0.2338  0.4735 -0.2961
 7023TIP3    H242629   5.481   3.279   1.706 -0.1027 -0.4257 -0.6157
 7024TIP3   OH242630   1.327   3.807   2.986 -0.0937 -0.2024 -0.0231
 7024TIP3    H142631   1.374   3.741   2.935  0.7603  0.9560 -0.7934
 7024TIP3    H242632   1.393   3.875   3.004 -0.8260  0.2419  1.1380
 7025TIP3   OH242633   6.086   5.367   3.385  0.0133  0.3729 -0.6396
 7025TIP3    H142634   6.154   5.373   3.453 -0.7256  1.7244  0.0287
 7025TIP3    H242635   6.005   5.357   3.434 -0.3246 -0.9767 -1.4304
 7026TIP3   OH242636   3.594   3.464   8.906 -0.4453  0.1898  0.2727
 7026TIP3    H142637   3.662   3.470   8.839  0.2086 -0.3740  0.8710
 7026TIP3    H242638   3.620   3.390   8.961 -2.8216 -1.6790 -0.9023
 7027TIP3   OH242639   0.900   1.838   2.223 -0.4580 -0.1685 -0.5232
 7027TIP3    H142640   0.995   1.841   2.238 -0.5382  2.8300  0.0704
 7027TIP3    H242641   0.883   1.909   2.161 -2.4656  0.5785  0.7493
 7028TIP3   OH242642   3.721   2.639   8.404 -0.6343 -0.0233 -0.0434
 7028TIP3    H142643   3.655   2.642   8.473 -1.5095 -0.2935 -0.8462
 7028TIP3    H242644   3.756   2.550   8.408 -1.1316 -0.2376 -0.3456
 7029TIP3   OH242645   0.892   4.125   1.766  0.9574  0.5410 -0.8539
 7029TIP3    H142646   0.871   4.085   1.850 -0.2727  1.3917 -0.7275
 7029TIP3    H242647   0.979   4.091   1.744  0.5322 -1.1073 -0.1239
 7030TIP3   OH242648   0.893   6.224   0.802  0.1940  0.2334 -0.1594
 7030TIP3    H142649   0.906   6.156   0.736  0.0234 -0.6884  0.7298
 7030TIP3    H242650   0.940   6.192   0.879  0.6219  1.4181  0.0964
 7031TIP3   OH242651   0.603   1.804   1.220 -0.0682  0.3353 -0.2295
 7031TIP3    H142652   0.575   1.724   1.265 -1.6646  1.0697  0.1558
 7031TIP3    H242653   0.616   1.868   1.290  3.0394 -0.0077 -0.3440
 7032TIP3   OH242654   3.962   0.645   8.208  0.1606  0.4612 -0.9154
 7032TIP3    H142655   4.051   0.678   8.208  1.2573 -2.2118  0.1206
 7032TIP3    H242656   3.941   0.629   8.116  1.3934 -0.4262 -1.0525
 7033TIP3   OH242657   2.242   1.636   7.761 -0.3227 -0.0047  0.3433
 7033TIP3    H142658   2.229   1.673   7.848 -1.9796  1.6266 -0.5260
 7033TIP3    H242659   2.208   1.546   7.767  0.2438 -0.1565  1.5271
 7034TIP3   OH242660   3.685   4.899   2.590  0.3239  0.1590  0.3676
 7034TIP3    H142661   3.757   4.940   2.639  1.8379 -1.8450 -0.0409
 7034TIP3    H242662   3.689   4.807   2.615 -2.5522  0.0580  0.7745
 7035TIP3   OH242663   4.625   4.327   8.987  0.1861 -0.6519 -0.2675
 7035TIP3    H142664   4.718   4.334   8.965  1.1874 -3.6651  2.1632
 7035TIP3    H242665   4.598   4.243   8.950 -1.5472  0.0130 -0.6322
 7036TIP3   OH242666   5.608   6.284   1.451 -0.0072  0.0138 -0.2366
 7036TIP3    H142667   5.552   6.245   1.518  0.0881  1.9783  1.0415
 7036TIP3    H242668   5.562   6.363   1.423  1.6424  1.1443  0.1366
 7037TIP3   OH242669   0.518   5.016   2.275 -0.4614  0.6097 -0.1854
 7037TIP3    H142670   0.594   4.988   2.223 -0.3421 -1.3335  0.9236
 7037TIP3    H242671   0.556   5.057   2.352 -0.4250 -1.4465  0.9596
 7038TIP3   OH242672   4.819   0.066   0.856 -0.0142 -0.5644 -0.0218
 7038TIP3    H142673   4.768   0.145   0.836  1.6287  0.9659  1.4393
 7038TIP3    H242674   4.906   0.085   0.821 -0.2795 -3.0785 -2.3901
 7039TIP3   OH242675   0.728   2.094   0.057  0.4919 -0.2293  0.0156
 7039TIP3    H142676   0.738   2.088   0.151 -0.8332 -2.5146  0.0755
 7039TIP3    H242677   0.660   2.161   0.044 -2.3749 -2.6984  1.0355
 7040TIP3   OH242678   0.440   5.528   8.608  0.0491 -0.1935 -0.0487
 7040TIP3    H142679   0.468   5.443   8.576 -1.6672  0.3499 -3.3806
 7040TIP3    H242680   0.383   5.508   8.683  0.8977 -1.8171  0.2067
 7041TIP3   OH242681   6.164   4.799   0.512 -0.2662 -0.3051 -0.1333
 7041TIP3    H142682   6.235   4.864   0.506  2.8930 -3.4093  0.1048
 7041TIP3    H242683   6.145   4.793   0.605  0.1340 -0.3515 -0.0501
 7042TIP3   OH242684   2.265   4.759   0.687 -0.5731  0.2060  0.1295
 7042TIP3    H142685   2.236   4.754   0.778 -0.1547 -1.2859  0.2007
 7042TIP3    H242686   2.276   4.668   0.660 -0.5171  0.6284 -1.3668
 7043TIP3   OH242687   3.399   2.020   1.517  0.2099  0.1814  0.1048
 7043TIP3    H142688   3.349   1.972   1.451  0.1042  3.4447 -2.4645
 7043TIP3    H242689   3.334   2.054   1.578 -0.1713  0.2809 -0.3534
 7044TIP3   OH242690   3.656   3.340   0.629  0.5087  0.2764 -0.1053
 7044TIP3    H142691   3.722   3.394   0.585 -0.6871  1.4695 -0.4897
 7044TIP3    H242692   3.657   3.369   0.720  0.5501  0.2576 -0.0999
 7045TIP3   OH242693   0.676   4.993   1.662 -0.9414  0.2968 -0.2504
 7045TIP3    H142694   0.648   5.045   1.586 -0.8483 -0.2905 -0.6872
 7045TIP3    H242695   0.631   4.909   1.652 -0.0414 -0.1940 -0.2683
 7046TIP3   OH242696   6.381   4.589   0.985 -0.4172 -0.0623 -0.0941
 7046TIP3    H142697   6.349   4.650   0.919 -1.0615  0.4912  0.7175
 7046TIP3    H242698   6.453   4.636   1.028  0.5424 -0.7275 -0.9049
 7047TIP3   OH242699   5.504   3.802   0.579  0.0870 -0.1407  0.1266
 7047TIP3    H142700   5.409   3.809   0.575 -0.2730 -1.3722  3.3732
 7047TIP3    H242701   5.527   3.840   0.664  2.5386  0.2535 -0.6404
 7048TIP3   OH242702   2.860   4.707   1.987  0.0865  0.4571 -0.4458
 7048TIP3    H142703   2.910   4.626   1.989  0.5963  0.6839  3.1177
 7048TIP3    H242704   2.769   4.679   1.994  0.3034  0.0917  1.6392
 7049TIP3   OH242705   2.847   0.556   2.202 -0.0048  0.1692  0.5417
 7049TIP3    H142706   2.789   0.479   2.208 -1.8483  1.4951  0.6793
 7049TIP3    H242707   2.921   0.534   2.259 -0.4669 -1.4972  0.5772
 7050TIP3   OH242708   0.352   0.202   1.525 -0.6719 -0.0358  0.3426
 7050TIP3    H142709   0.284   0.268   1.515 -1.8869 -0.9639  1.9770
 7050TIP3    H242710   0.314   0.122   1.489 -0.3623 -0.5027  1.0254
 7051TIP3   OH242711   5.506   6.257   2.482  0.0573 -0.8745 -0.2483
 7051TIP3    H142712   5.436   6.283   2.421  0.0983 -0.4138 -0.1082
 7051TIP3    H242713   5.510   6.329   2.545  1.5318 -0.2584 -0.9942
 7052TIP3   OH242714   2.368   3.198   0.199  0.5617 -0.5310  0.2717
 7052TIP3    H142715   2.398   3.242   0.279 -0.8895 -0.2431  0.6806
 7052TIP3    H242716   2.341   3.111   0.228  1.3881 -0.9541 -0.1752
 7053TIP3   OH242717   4.001   3.092   1.560 -0.5034 -0.0418 -0.2748
 7053TIP3    H142718   3.989   3.186   1.546  0.1589 -0.2753 -3.1254
 7053TIP3    H242719   3.914   3.054   1.543 -0.9900  0.0558  1.7309
 7054TIP3   OH242720   1.599   1.279   1.389 -0.3105  0.1438 -0.6549
 7054TIP3    H142721   1.595   1.194   1.346 -0.8904 -0.3168  0.2980
 7054TIP3    H242722   1.642   1.262   1.473 -0.0835  0.8654 -0.6118
 7055LIG      O42723   5.597   0.785   1.053 -0.0061  0.6957  0.3108
 7055LIG      N42724   5.986   0.957   0.987 -0.2360  0.3930  0.0613
 7055LIG     C142725   5.471   0.982   1.008 -0.2673  0.5259  0.4346
 7055LIG     C242726   5.595   0.899   0.967  0.1684 -1.0085 -0.8189
 7055LIG     C342727   5.338   0.899   0.999 -0.0460 -0.0030  0.1204
 7055LIG     C442728   5.490   1.052   1.146 -0.7017  0.4423  0.7782
 7055LIG     C542729   5.730   0.973   0.990  0.0776 -0.7277 -0.5861
 7055LIG     C642730   5.217   0.982   1.037  0.4673 -0.6113  0.3303
 7055LIG     C742731   5.367   1.131   1.177 -0.3098  0.3187 -0.7106
 7055LIG     C842732   5.233   1.053   1.173  0.1819  0.4470  0.1262
 7055LIG     C942733   5.856   0.889   0.958  0.2156 -0.5299 -0.1719
 7055LIG    C1042734   5.591   0.855   0.812 -0.0592  0.5514 -0.2160
 7055LIG    C1142735   6.093   0.873   0.983 -0.3727 -0.0129 -0.3180
 7055LIG    C1242736   6.006   1.094   0.931 -0.2345  0.3523 -0.2258
 7055LIG    C1342737   6.124   0.839   0.835  0.0076  0.5827  0.3800
 7055LIG    C1442738   6.038   1.067   0.778  0.2760  0.0442  1.0285
 7055LIG    C1542739   6.152   0.966   0.757 -0.4389  0.7145  0.8312
 7055LIG    C1642740   5.584   0.958   0.712  0.6518 -0.1516  0.6506
 7055LIG    C1742741   5.574   0.722   0.770  0.7029  0.6593 -0.3264
 7055LIG    C1842742   5.558   0.925   0.578  0.4454  0.0371  0.0577
 7055LIG    C1942743   5.565   0.688   0.635  0.4177 -0.5570 -0.3672
 7055LIG    C2042744   5.554   0.786   0.538  0.3803 -0.3171 -0.3504
 7055LIG     H142745   5.460   1.057   0.927 -0.0638 -2.0744 -2.1992
 7055LIG     H242746   5.337   0.815   1.073  0.2804 -0.1237 -0.0115
 7055LIG     H342747   5.313   0.861   0.897  1.2314  1.4538 -0.7738
 7055LIG     H442748   5.572   1.127   1.146 -0.5060  0.2585 -0.7431
 7055LIG     H542749   5.491   0.983   1.233  4.0979 -2.5647 -1.2366
 7055LIG     H642750   5.734   0.999   1.098 -1.6809 -2.0578 -0.1469
 7055LIG     H742751   5.737   1.073   0.942  1.4345 -0.5435 -0.0391
 7055LIG     H842752   5.126   0.920   1.022  0.2192 -0.1911  0.0969
 7055LIG     H942753   5.200   1.067   0.968 -0.1155 -1.7719 -0.9980
 7055LIG    H1042754   5.355   1.216   1.107  0.4093 -0.9302 -2.4194
 7055LIG    H1142755   5.381   1.175   1.278  2.9279 -0.0285 -0.9126
 7055LIG    H1242756   5.226   0.968   1.245 -0.6999 -0.2233 -0.7247
 7055LIG    H1342757   5.149   1.124   1.189 -0.1759  0.5724 -2.0474
 7055LIG    H1442758   5.853   0.796   1.020 -0.3166  0.2927  1.0709
 7055LIG    H1542759   5.848   0.858   0.852  2.4794 -0.6720 -0.3377
 7055LIG    H1642760   6.062   0.787   1.046  0.5093 -0.4057 -0.4105
 7055LIG    H1742761   6.180   0.926   1.026 -1.0842  2.4359 -1.6793
 7055LIG    H1842762   6.090   1.141   0.985 -1.3929 -0.6030  2.5680
 7055LIG    H1942763   5.919   1.163   0.943  1.0758  1.7789  1.5144
 7055LIG    H2042764   5.503   0.771   1.065 -0.1121  2.5452  2.1804
 7055LIG    H2142765   6.041   0.781   0.789 -0.3692 -1.1932  3.0775
 7055LIG    H2242766   6.217   0.778   0.836  0.1271  0.7409 -0.2406
 7055LIG    H2342767   6.045   1.163   0.723 -1.2043 -0.0991  0.5571
 7055LIG    H2442768   5.948   1.016   0.737  1.4705 -2.5561  1.3928
 7055LIG    H2542769   6.156   0.942   0.649 -1.5909  1.6712  0.5491
 7055LIG    H2642770   6.242   1.019   0.794 -0.7287  2.6369 -1.0061
 7055LIG    H2742771   5.581   1.062   0.742  2.1161  0.9102 -2.4162
 7055LIG    H2842772   5.582   0.644   0.845  0.7216  1.5349  0.5926
 7055LIG    H2942773   5.553   0.999   0.500  1.3297  0.0784  0.0287
 7055LIG    H3042774   5.555   0.586   0.600 -2.4149 -1.2978  2.1685
 7055LIG    H3142775   5.553   0.757   0.434 -0.3423  1.2863 -0.8234
   6.72270   6.72270   9.01931
