Title
42775
    1SAPS     N    1   6.743   3.552   8.469 -0.1573  0.0630  0.0269
    1SAPS   HN1    2   6.765   3.643   8.515  2.3872 -1.4360  2.0574
    1SAPS   HN2    3   6.798   3.480   8.519  2.5767  1.7336 -0.3778
    1SAPS   HN3    4   6.779   3.550   8.371 -0.2592  0.0615 -0.0103
    1SAPS   C12    5   6.601   3.531   8.456  0.6705 -0.4181 -0.1738
    1SAPS  H12A    6   6.563   3.495   8.551  0.1181  1.5530  0.3846
    1SAPS   C13    7   6.517   3.657   8.430  0.2285 -0.0535 -0.0512
    1SAPS  O13A    8   6.573   3.753   8.371  0.1633 -0.2862  0.3889
    1SAPS  O13B    9   6.400   3.661   8.472  0.1000  0.0382 -0.5494
    1SAPS   C11   10   6.575   3.436   8.337 -0.4681  0.2038  0.0495
    1SAPS  H11A   11   6.630   3.341   8.353  0.1438  0.3047 -1.3191
    1SAPS  H11B   12   6.612   3.485   8.243 -1.1781 -1.8045 -1.3339
    1SAPS     P   13   6.390   3.346   8.170 -0.4660 -0.2463 -0.0203
    1SAPS   O13   14   6.450   3.212   8.150 -0.0326 -0.2898  0.1736
    1SAPS   O14   15   6.246   3.360   8.171  0.1465 -0.1357 -0.3011
    1SAPS   O12   16   6.436   3.403   8.312 -0.2376 -0.1870 -0.0888
    1SAPS   O11   17   6.452   3.432   8.055  0.1005 -0.1934 -0.8407
    1SAPS    C1   18   6.377   3.521   7.976 -0.8768 -0.6018 -0.4662
    1SAPS    HA   19   6.291   3.568   8.028 -1.1855 -0.3276 -1.2178
    1SAPS    HB   20   6.448   3.605   7.959 -0.1331 -0.7530  1.5784
    1SAPS    C2   21   6.328   3.473   7.838  0.7585  0.0058 -0.4162
    1SAPS    HS   22   6.258   3.393   7.868  2.5385 -1.1866  0.8091
    1SAPS   O21   23   6.437   3.421   7.750  0.4035  0.1445 -0.1400
    1SAPS   C21   24   6.460   3.293   7.755  0.4879 -0.1582 -0.1984
    1SAPS   O22   25   6.400   3.214   7.822  0.3650  0.6174 -0.0538
    1SAPS   C22   26   6.549   3.260   7.648  0.1810 -0.3836  0.7207
    1SAPS   H2R   27   6.478   3.263   7.562  1.3324  0.1800 -0.2446
    1SAPS   H2S   28   6.622   3.343   7.637 -0.6911  0.2220 -0.9622
    1SAPS    C3   29   6.254   3.581   7.755 -0.5444 -0.2819 -0.1486
    1SAPS    HX   30   6.339   3.644   7.720 -0.4581  0.4554  1.3045
    1SAPS    HY   31   6.191   3.643   7.821  0.8224 -0.5182  1.4651
    1SAPS   O31   32   6.171   3.519   7.659 -0.2205  0.2652 -0.5274
    1SAPS   C31   33   6.216   3.519   7.537  0.8844  0.2965  0.1379
    1SAPS   O32   34   6.331   3.527   7.503 -0.1248 -0.0978  0.3474
    1SAPS   C32   35   6.096   3.519   7.442 -0.0997  0.5850 -0.0057
    1SAPS   H2X   36   6.019   3.596   7.465 -0.5955 -0.0809  0.6209
    1SAPS   H2Y   37   6.060   3.415   7.453  2.2198 -0.3391 -0.5706
    1SAPS   C23   38   6.605   3.124   7.648 -0.3885  0.3583  0.6255
    1SAPS   H3R   39   6.529   3.043   7.641  1.2614 -1.2266  0.3260
    1SAPS   H3S   40   6.663   3.100   7.740 -0.4132 -0.3879  0.4505
    1SAPS   C24   41   6.697   3.101   7.521 -0.2399  0.0860 -0.4305
    1SAPS   H4R   42   6.761   3.013   7.544  1.2700  1.1479 -0.4327
    1SAPS   H4S   43   6.756   3.195   7.516  1.6631 -0.7126  3.5453
    1SAPS   C25   44   6.630   3.066   7.390 -0.0147  0.2500 -0.0411
    1SAPS   H5R   45   6.595   2.961   7.388 -1.0928  0.5969  0.0974
    1SAPS   C26   46   6.633   3.143   7.275 -0.1662 -0.1984  0.0086
    1SAPS   H6R   47   6.586   3.103   7.183  1.3329 -2.3584  0.0946
    1SAPS   C27   48   6.696   3.279   7.254 -0.3978  0.3294  0.0994
    1SAPS   H7R   49   6.768   3.299   7.337 -1.6198  1.4856  0.9228
    1SAPS   H7S   50   6.623   3.359   7.279 -1.8612 -0.5700 -1.1627
    1SAPS   C28   51   6.747   3.326   7.123  0.1142  0.2089  0.2022
    1SAPS   H8R   52   6.855   3.320   7.105  0.2290 -0.7252  1.1308
    1SAPS   C29   53   6.679   3.342   7.010 -0.4261  0.0247 -0.8675
    1SAPS   H9R   54   6.741   3.367   6.923 -0.9500 -0.6230 -1.4355
    1SAPS  C210   55   6.532   3.345   6.991  0.0469  0.5557 -0.4273
    1SAPS  H10R   56   6.534   3.416   6.905  2.7237 -1.6733 -2.3963
    1SAPS  H10S   57   6.494   3.398   7.081 -1.0084 -1.4449  0.3494
    1SAPS  C211   58   6.462   3.218   6.954 -0.0224  0.2017  0.1597
    1SAPS  H11R   59   6.375   3.202   7.020  0.8813 -2.3075  0.8387
    1SAPS  C212   60   6.479   3.122   6.855  0.2638 -0.3556 -0.2097
    1SAPS  H12R   61   6.399   3.049   6.841 -0.8895  0.1090  3.0127
    1SAPS  C213   62   6.593   3.122   6.755 -0.1438  1.1378 -0.1967
    1SAPS  H13R   63   6.614   3.019   6.721 -1.3198  1.7238 -3.0411
    1SAPS  H13S   64   6.685   3.159   6.804 -1.1106  1.8347  1.1701
    1SAPS  C214   65   6.566   3.204   6.633  0.0433  0.0367  0.0113
    1SAPS  H14R   66   6.482   3.275   6.632  0.5451  0.6403 -1.4232
    1SAPS  C215   67   6.631   3.194   6.510  0.3118 -0.5322 -1.1005
    1SAPS  H15R   68   6.614   3.267   6.430  2.3189 -2.0455 -3.0649
    1SAPS  C216   69   6.739   3.097   6.479 -0.6811  0.1563  0.4645
    1SAPS  H16R   70   6.693   3.014   6.421  1.2752 -0.3431 -0.4577
    1SAPS  H16S   71   6.784   3.059   6.573 -2.5764  1.0747  1.7977
    1SAPS  C217   72   6.836   3.146   6.371  0.4732  0.2495  0.0868
    1SAPS  H17R   73   6.774   3.191   6.290  1.5159  1.9934  0.2043
    1SAPS  H17S   74   6.896   3.060   6.334 -0.4012 -0.1841 -0.3621
    1SAPS  C218   75   6.938   3.245   6.432  0.4274 -1.0391  0.5523
    1SAPS  H18R   76   7.006   3.192   6.502 -0.4313 -2.6433  0.2047
    1SAPS  H18S   77   6.877   3.314   6.494 -0.4461 -2.5930  1.4652
    1SAPS  C219   78   7.019   3.310   6.311 -0.1269 -0.4328 -0.3325
    1SAPS  H19R   79   7.093   3.383   6.352  2.2666 -2.4597 -0.8021
    1SAPS  H19S   80   6.953   3.387   6.265 -0.9025 -0.8411  0.0840
    1SAPS  C220   81   7.079   3.212   6.217  0.2064 -0.4348 -0.4507
    1SAPS  H20R   82   7.137   3.261   6.136 -0.3284 -0.6415 -0.9631
    1SAPS  H20S   83   6.995   3.157   6.170 -1.0699  1.9628 -1.1872
    1SAPS  H20T   84   7.151   3.140   6.261  2.8724  2.3313  0.1015
    1SAPS   C33   85   6.139   3.542   7.300  0.2289 -0.4768 -0.9553
    1SAPS   H3X   86   6.209   3.459   7.279 -0.0571 -0.5597 -1.6151
    1SAPS   H3Y   87   6.199   3.630   7.269  3.8983 -3.7977 -4.4721
    1SAPS   C34   88   6.016   3.549   7.206 -0.2217  0.1316  0.6929
    1SAPS   H4X   89   5.949   3.629   7.243  1.3789  1.6790  0.3421
    1SAPS   H4Y   90   5.959   3.454   7.212 -0.1547  0.0682  0.3709
    1SAPS   C35   91   6.057   3.556   7.050  0.3399 -0.1813  0.3271
    1SAPS   H5X   92   6.105   3.656   7.039  0.0897  0.1969  2.2654
    1SAPS   H5Y   93   5.969   3.561   6.982  1.4866  1.5512 -1.1398
    1SAPS   C36   94   6.142   3.432   7.012  0.5750 -0.8987  0.4118
    1SAPS   H6X   95   6.101   3.343   7.065 -2.0652 -1.6411 -2.5825
    1SAPS   H6Y   96   6.248   3.447   7.042  0.5564  3.0250 -0.9280
    1SAPS   C37   97   6.139   3.403   6.864  0.0459 -0.6310  0.5793
    1SAPS   H7X   98   6.034   3.391   6.831 -0.4278 -0.1145  1.8629
    1SAPS   H7Y   99   6.192   3.306   6.854  1.7504  0.4765 -3.3967
    1SAPS   C38  100   6.212   3.507   6.771  0.2037 -0.9766 -0.3895
    1SAPS   H8X  101   6.319   3.518   6.799  0.0771  1.7809 -0.7001
    1SAPS   H8Y  102   6.168   3.609   6.776  4.1781  0.9441 -0.1603
    1SAPS   C39  103   6.201   3.467   6.620  0.0902 -0.2549  0.8340
    1SAPS   H9X  104   6.094   3.485   6.596 -0.1905 -2.6654  0.0099
    1SAPS   H9Y  105   6.223   3.362   6.592  1.9536  0.8895 -2.6238
    1SAPS  C310  106   6.298   3.552   6.540 -0.2096 -0.3650 -0.5252
    1SAPS  H10X  107   6.403   3.533   6.568 -0.1020 -2.6905 -2.2116
    1SAPS  H10Y  108   6.277   3.655   6.574  0.9926  0.0725 -1.0598
    1SAPS  C311  109   6.284   3.532   6.388  0.2202  0.0026  0.4682
    1SAPS  H11X  110   6.297   3.619   6.321  1.0460 -0.4411  0.0323
    1SAPS  H11Y  111   6.183   3.492   6.364 -0.2589  0.0703  2.2397
    1SAPS  C312  112   6.392   3.434   6.340  0.7519  0.7339  0.9290
    1SAPS  H12X  113   6.367   3.330   6.371 -0.3006  0.1521 -1.5831
    1SAPS  H12Y  114   6.482   3.478   6.389  0.2360  2.2972  0.5331
    1SAPS  C313  115   6.394   3.435   6.182  0.2156  0.0758 -0.0287
    1SAPS  H13X  116   6.419   3.532   6.135 -0.8923  1.3979  1.9625
    1SAPS  H13Y  117   6.290   3.418   6.148  0.5595  1.3243 -1.8488
    1SAPS  C314  118   6.492   3.328   6.133  0.0600  0.4223  0.3272
    1SAPS  H14X  119   6.472   3.234   6.189 -0.0182  0.4746  0.3859
    1SAPS  H14Y  120   6.600   3.346   6.153  0.1273 -0.1860  0.5159
    1SAPS  C315  121   6.474   3.300   5.980 -0.4798 -0.3436  0.3272
    1SAPS  H15X  122   6.512   3.378   5.911 -2.2127  0.4104  0.1815
    1SAPS  H15Y  123   6.365   3.301   5.957 -0.2318 -0.3091 -0.9410
    1SAPS  C316  124   6.540   3.166   5.938 -0.3043 -0.5768 -0.0772
    1SAPS  H16X  125   6.472   3.080   5.959 -3.3198  1.5995 -0.2689
    1SAPS  H16Y  126   6.629   3.158   6.005 -0.2231 -0.6155 -0.1893
    1SAPS  C317  127   6.578   3.162   5.795 -0.1026 -0.1645  0.1279
    1SAPS  H17X  128   6.484   3.170   5.737 -0.8778  0.1516  1.4113
    1SAPS  H17Y  129   6.625   3.062   5.780 -0.1904 -0.1508 -0.2404
    1SAPS  C318  130   6.687   3.262   5.750  0.0674  0.0869 -0.1850
    1SAPS  H18X  131   6.746   3.216   5.667  2.1117  1.2871  0.5117
    1SAPS  H18Y  132   6.770   3.265   5.824  0.9190  2.6056 -1.1237
    1SAPS  H18Z  133   6.666   3.369   5.730  0.1284  0.1468  0.0671
    2SAPS     N  134   1.108   6.166   8.190  0.0281 -0.2218 -0.1620
    2SAPS   HN1  135   1.210   6.149   8.178  0.1346  0.4354 -0.2190
    2SAPS   HN2  136   1.056   6.079   8.166  2.4136 -1.6439 -0.5507
    2SAPS   HN3  137   1.086   6.252   8.136  1.0412  0.2552  0.1608
    2SAPS   C12  138   1.089   6.195   8.329 -0.1655  0.5930  0.7762
    2SAPS  H12A  139   1.138   6.114   8.381 -0.8895 -0.8211 -0.6512
    2SAPS   C13  140   1.149   6.329   8.392  0.1992 -0.2772  0.3780
    2SAPS  O13A  141   1.223   6.391   8.313  0.1799 -0.3132  0.0911
    2SAPS  O13B  142   1.167   6.337   8.514  0.5132 -0.5061 -0.1336
    2SAPS   C11  143   0.944   6.188   8.365 -0.4352  0.2980  0.0222
    2SAPS  H11A  144   0.897   6.266   8.302  1.0671  0.1076 -1.3818
    2SAPS  H11B  145   0.927   6.203   8.474 -0.5433  0.6307 -0.0382
    2SAPS     P  146   0.770   6.001   8.305 -0.0440  0.2412 -0.0591
    2SAPS   O13  147   0.748   5.863   8.350 -0.4313  0.4686 -0.0427
    2SAPS   O14  148   0.669   6.103   8.346 -0.1315 -0.1796  0.0294
    2SAPS   O12  149   0.907   6.051   8.351 -1.1007  0.1073  0.1694
    2SAPS   O11  150   0.781   6.000   8.140  0.8019  0.0851  0.2874
    2SAPS    C1  151   0.668   5.971   8.064 -0.4752 -0.2151  0.9933
    2SAPS    HA  152   0.631   5.868   8.086  1.3263 -1.0927  0.1460
    2SAPS    HB  153   0.586   6.044   8.077 -1.8566 -0.8018 -3.0264
    2SAPS    C2  154   0.713   5.975   7.911  0.2821  0.0558 -0.0656
    2SAPS    HS  155   0.619   5.949   7.859  0.4452 -1.5016  0.3692
    2SAPS   O21  156   0.821   5.892   7.870 -0.4989  0.1347  0.2556
    2SAPS   C21  157   0.796   5.766   7.858  0.3251 -0.1389 -0.0320
    2SAPS   O22  158   0.687   5.713   7.880  0.3487  0.1100 -0.5118
    2SAPS   C22  159   0.923   5.689   7.811 -0.0879  0.1487 -0.0948
    2SAPS   H2R  160   0.989   5.760   7.758  0.6694  0.4193  1.1809
    2SAPS   H2S  161   0.964   5.654   7.909 -1.9826  1.2300  1.1533
    2SAPS    C3  162   0.755   6.119   7.868 -0.9706 -0.2056  0.1391
    2SAPS    HX  163   0.837   6.158   7.932  1.1833 -1.4291 -1.7424
    2SAPS    HY  164   0.669   6.183   7.897 -0.9072 -0.6046  1.2619
    2SAPS   O31  165   0.810   6.125   7.731 -0.7753 -0.2923 -0.5408
    2SAPS   C31  166   0.731   6.098   7.634 -0.2666 -0.0944  0.2337
    2SAPS   O32  167   0.606   6.098   7.639 -0.5603 -0.0243  0.3891
    2SAPS   C32  168   0.817   6.083   7.506  0.1408  0.0749  0.0711
    2SAPS   H2X  169   0.885   5.995   7.512  0.3413  0.2984  1.7675
    2SAPS   H2Y  170   0.883   6.172   7.497 -1.3780  1.3214  0.6829
    2SAPS   C23  171   0.895   5.561   7.728 -0.1974 -0.5285  0.3353
    2SAPS   H3R  172   0.820   5.495   7.777 -0.1848 -1.3061 -0.6752
    2SAPS   H3S  173   0.988   5.502   7.727 -1.0180 -1.8775  1.0063
    2SAPS   C24  174   0.836   5.586   7.581 -0.1027  0.5718 -0.5391
    2SAPS   H4R  175   0.737   5.630   7.608  0.3069  0.4911  1.2387
    2SAPS   H4S  176   0.796   5.493   7.535  0.4780 -0.4189  0.8946
    2SAPS   C25  177   0.928   5.660   7.488 -0.0165 -1.0439  0.2897
    2SAPS   H5R  178   1.029   5.684   7.523  0.6996  0.6250 -2.5946
    2SAPS   C26  179   0.901   5.673   7.356 -0.4642 -0.0233 -0.0166
    2SAPS   H6R  180   0.976   5.718   7.289  0.4639 -1.7458 -0.1958
    2SAPS   C27  181   0.775   5.635   7.288  0.8378  0.1981 -0.3363
    2SAPS   H7R  182   0.700   5.717   7.285  0.5784 -0.0652 -2.1739
    2SAPS   H7S  183   0.725   5.562   7.355  1.8444 -0.0804  0.1359
    2SAPS   C28  184   0.776   5.575   7.149 -0.1094 -0.5608  0.0669
    2SAPS   H8R  185   0.769   5.465   7.148 -0.6331 -0.5331  0.5610
    2SAPS   C29  186   0.797   5.643   7.038 -0.2841  0.2834  0.2521
    2SAPS   H9R  187   0.773   5.585   6.948 -1.0831 -0.0648  0.6787
    2SAPS  C210  188   0.812   5.797   7.023 -0.0833  0.7909  0.1750
    2SAPS  H10R  189   0.807   5.849   7.121  0.8641  0.8243  0.2121
    2SAPS  H10S  190   0.731   5.832   6.956  1.3760 -1.1370 -2.8185
    2SAPS  C211  191   0.944   5.826   6.959 -0.2579  0.8729  0.2505
    2SAPS  H11R  192   1.032   5.771   6.996 -0.6796 -1.2200 -1.6291
    2SAPS  C212  193   0.959   5.900   6.849 -0.3197  0.5986  0.1939
    2SAPS  H12R  194   1.063   5.914   6.816 -0.3727 -1.3639 -0.9212
    2SAPS  C213  195   0.858   5.981   6.768 -0.0288 -0.9452  0.4724
    2SAPS  H13R  196   0.823   6.064   6.833 -0.9562 -1.3746  0.5352
    2SAPS  H13S  197   0.778   5.912   6.734 -0.5169 -0.9259  1.5572
    2SAPS  C214  198   0.919   6.030   6.633  0.1238 -0.5447  0.1096
    2SAPS  H14R  199   0.961   6.131   6.648  2.0799 -1.6114  2.4459
    2SAPS  C215  200   0.913   5.965   6.513 -1.0115  0.6370  0.9763
    2SAPS  H15R  201   0.963   6.004   6.423 -0.8501 -0.9277  0.3479
    2SAPS  C216  202   0.847   5.836   6.485  0.1540 -0.3582 -0.2341
    2SAPS  H16R  203   0.737   5.847   6.497 -0.1342 -3.2263  0.5928
    2SAPS  H16S  204   0.876   5.762   6.562  0.8400  0.7806  0.6412
    2SAPS  C217  205   0.870   5.789   6.345 -0.1465  0.3200 -0.8030
    2SAPS  H17R  206   0.828   5.687   6.333  0.9677 -0.0471 -1.7722
    2SAPS  H17S  207   0.978   5.777   6.323 -0.4339  1.2637 -3.0249
    2SAPS  C218  208   0.806   5.871   6.231  0.8305  0.2521 -0.5770
    2SAPS  H18R  209   0.812   5.978   6.259 -1.6907  0.0579  1.1282
    2SAPS  H18S  210   0.696   5.853   6.230  1.0333 -1.4022  0.9108
    2SAPS  C219  211   0.879   5.866   6.092 -0.3879 -0.0202  0.0163
    2SAPS  H19R  212   0.848   5.772   6.041  2.5495 -0.1056 -1.8227
    2SAPS  H19S  213   0.989   5.863   6.107 -0.2325 -0.4426 -1.1088
    2SAPS  C220  214   0.826   5.976   6.003  0.3791  0.1434  0.2706
    2SAPS  H20R  215   0.715   5.980   5.998  0.4499  0.7401 -2.9404
    2SAPS  H20S  216   0.865   5.959   5.900 -0.2780  0.6716 -0.0771
    2SAPS  H20T  217   0.857   6.079   6.030  1.1819 -0.1874  0.6268
    2SAPS   C33  218   0.738   6.058   7.368 -0.4893 -0.4174  0.0274
    2SAPS   H3X  219   0.674   5.968   7.381 -0.5302 -0.4594 -0.4713
    2SAPS   H3Y  220   0.814   6.044   7.289 -0.8091  0.0447 -0.3766
    2SAPS   C34  221   0.640   6.175   7.335 -0.3867 -0.3008 -0.6185
    2SAPS   H4X  222   0.702   6.266   7.341 -0.5500 -0.2634  0.5624
    2SAPS   H4Y  223   0.555   6.174   7.407 -1.7824 -2.2817 -2.1610
    2SAPS   C35  224   0.590   6.154   7.189 -0.0143 -0.2908 -0.0197
    2SAPS   H5X  225   0.506   6.228   7.191 -0.4414 -0.7855  0.7667
    2SAPS   H5Y  226   0.548   6.056   7.161  1.1158 -1.0308  0.7916
    2SAPS   C36  227   0.689   6.207   7.085 -0.3765 -0.7894  1.0761
    2SAPS   H6X  228   0.753   6.118   7.068 -1.0255 -1.0276 -0.2714
    2SAPS   H6Y  229   0.755   6.285   7.126  1.7075 -2.6616  1.4620
    2SAPS   C37  230   0.616   6.251   6.954 -0.0533 -0.5118 -0.0960
    2SAPS   H7X  231   0.693   6.286   6.882 -1.9671  0.1327 -1.8984
    2SAPS   H7Y  232   0.555   6.338   6.985  1.1399  0.7434 -1.1384
    2SAPS   C38  233   0.528   6.143   6.882 -0.1267 -0.5240 -0.9414
    2SAPS   H8X  234   0.438   6.148   6.946 -0.0976  1.2331 -1.0000
    2SAPS   H8Y  235   0.573   6.041   6.882 -1.1358 -0.9777 -0.8427
    2SAPS   C39  236   0.484   6.194   6.745  0.3601 -0.1408  0.0808
    2SAPS   H9X  237   0.462   6.302   6.755 -0.0316 -0.3766  2.2538
    2SAPS   H9Y  238   0.378   6.167   6.723  0.6701 -1.2305 -0.1731
    2SAPS  C310  239   0.585   6.165   6.636 -0.2088 -0.1259  0.2107
    2SAPS  H10X  240   0.592   6.059   6.603 -0.1734 -0.6915  1.9464
    2SAPS  H10Y  241   0.684   6.202   6.670  1.1723  0.2603 -3.7231
    2SAPS  C311  242   0.554   6.234   6.510  0.0403  0.0718  0.4513
    2SAPS  H11X  243   0.536   6.341   6.532  0.8330  0.6212 -1.4324
    2SAPS  H11Y  244   0.459   6.191   6.470  0.5344 -0.4407 -0.1864
    2SAPS  C312  245   0.668   6.224   6.400 -0.0493  0.6326 -0.7668
    2SAPS  H12X  246   0.679   6.114   6.387 -2.4136 -0.1091  2.2702
    2SAPS  H12Y  247   0.764   6.265   6.438 -0.1790 -0.0557  0.3480
    2SAPS  C313  248   0.649   6.294   6.270  0.2071  0.1305  0.3711
    2SAPS  H13X  249   0.574   6.221   6.232  0.5248 -0.6263  1.1598
    2SAPS  H13Y  250   0.742   6.292   6.209  1.2685 -1.9795  1.9469
    2SAPS  C314  251   0.580   6.436   6.277 -0.7171 -0.1491 -0.7601
    2SAPS  H14X  252   0.659   6.487   6.337  0.0637 -1.7475 -0.3840
    2SAPS  H14Y  253   0.486   6.432   6.337  0.4783 -3.0499  1.1594
    2SAPS  C315  254   0.545   6.485   6.141  0.1105 -0.4764  0.7005
    2SAPS  H15X  255   0.616   6.449   6.063 -0.8204 -1.6992  0.3844
    2SAPS  H15Y  256   0.540   6.595   6.151  1.2925 -0.3036 -0.2540
    2SAPS  C316  257   0.404   6.442   6.093  0.0717  0.4651  0.0532
    2SAPS  H16X  258   0.337   6.492   6.165  2.1291  2.8627  0.4239
    2SAPS  H16Y  259   0.398   6.331   6.100 -0.2484  0.4137 -0.8369
    2SAPS  C317  260   0.354   6.472   5.953 -1.0965  0.8598 -0.0424
    2SAPS  H17X  261   0.259   6.417   5.944 -0.1338 -0.7964 -0.5461
    2SAPS  H17Y  262   0.426   6.420   5.885  0.6271  1.5065  1.1949
    2SAPS  C318  263   0.352   6.622   5.919 -0.8215 -0.1765  0.3476
    2SAPS  H18X  264   0.281   6.634   5.835 -1.8870 -0.5216  1.1688
    2SAPS  H18Y  265   0.453   6.666   5.905 -0.4236 -0.8309  1.0049
    2SAPS  H18Z  266   0.313   6.678   6.007  0.0360  1.8749 -0.5369
    3SAPS     N  267   6.703   3.993   8.330  0.2203  0.4347  0.1035
    3SAPS   HN1  268   6.662   4.065   8.392 -0.9058  1.5107 -1.8067
    3SAPS   HN2  269   6.671   4.011   8.232 -1.9719 -0.2457  0.6275
    3SAPS   HN3  270   6.683   3.892   8.346  0.5120  0.4164  0.3394
    3SAPS   C12  271   6.852   3.994   8.337  0.0552 -0.2847  0.0899
    3SAPS  H12A  272   6.885   4.094   8.311 -2.3051  1.0632  1.8872
    3SAPS   C13  273   6.916   3.986   8.482  0.3764 -0.1345  0.5594
    3SAPS  O13A  274   6.842   3.963   8.580  0.1948 -0.0972 -0.1344
    3SAPS  O13B  275   7.043   3.985   8.493 -0.1764  0.1529  0.4513
    3SAPS   C11  276   6.910   3.898   8.236  0.0304 -0.0802 -0.3991
    3SAPS  H11A  277   7.020   3.912   8.230 -0.1690  1.9459 -0.0241
    3SAPS  H11B  278   6.885   3.928   8.132  3.4146 -1.4060 -1.7266
    3SAPS     P  279   6.950   3.646   8.196  0.3369 -0.1765 -0.2583
    3SAPS   O13  280   7.097   3.679   8.213  0.1364  0.0550 -0.7104
    3SAPS   O14  281   6.908   3.517   8.248  0.4446  0.1497 -0.6073
    3SAPS   O12  282   6.870   3.759   8.266 -0.1868 -0.1861 -0.2912
    3SAPS   O11  283   6.902   3.678   8.050 -0.0812  1.0109 -0.2868
    3SAPS    C1  284   6.778   3.635   8.007  0.2495  0.1122  0.0046
    3SAPS    HA  285   6.755   3.528   8.026 -0.3620  0.1286 -0.5820
    3SAPS    HB  286   6.697   3.690   8.060 -1.6470 -1.2649 -1.3312
    3SAPS    C2  287   6.767   3.664   7.858 -0.4035  0.2561  1.0359
    3SAPS    HS  288   6.669   3.628   7.820  0.1996  2.1690 -2.7882
    3SAPS   O21  289   6.876   3.616   7.783 -0.0784 -1.2811 -0.4794
    3SAPS   C21  290   6.899   3.485   7.772  0.1895  0.3811  0.2004
    3SAPS   O22  291   6.818   3.403   7.806  0.3413  0.7143  0.0069
    3SAPS   C22  292   7.032   3.456   7.704 -0.0645  0.8262 -0.6455
    3SAPS   H2R  293   7.057   3.542   7.637 -1.0429  0.3975 -1.5913
    3SAPS   H2S  294   7.101   3.461   7.791 -1.6002  1.8334  0.5708
    3SAPS    C3  295   6.759   3.814   7.820 -0.0572  0.5237 -0.1839
    3SAPS    HX  296   6.838   3.873   7.872  0.6629 -1.6514  1.3309
    3SAPS    HY  297   6.659   3.847   7.855 -0.3773  0.9521 -1.4545
    3SAPS   O31  298   6.767   3.832   7.674 -0.0406  0.1812 -0.6243
    3SAPS   C31  299   6.885   3.871   7.614 -0.5170  0.3041 -0.6378
    3SAPS   O32  300   6.981   3.922   7.668  0.2134 -0.3002  0.3463
    3SAPS   C32  301   6.871   3.837   7.465 -0.6939  0.1909 -0.2034
    3SAPS   H2X  302   6.940   3.907   7.413 -0.5028 -1.0099 -1.6791
    3SAPS   H2Y  303   6.774   3.875   7.428 -0.1476  1.2093 -0.6292
    3SAPS   C23  304   7.028   3.321   7.627 -0.4040 -0.2888 -0.6439
    3SAPS   H3R  305   6.950   3.344   7.551 -1.0954  1.5510  0.5566
    3SAPS   H3S  306   6.994   3.241   7.695 -2.3976  1.2634  0.2840
    3SAPS   C24  307   7.149   3.289   7.534 -0.4434 -0.3631 -0.6238
    3SAPS   H4R  308   7.153   3.368   7.455 -1.2930 -1.2812 -1.6114
    3SAPS   H4S  309   7.139   3.187   7.493  0.7281  0.2945 -2.7131
    3SAPS   C25  310   7.287   3.309   7.603  0.7454 -0.0366  0.3476
    3SAPS   H5R  311   7.298   3.390   7.677  2.7774  0.0640 -0.0079
    3SAPS   C26  312   7.401   3.243   7.574 -0.6584  1.1174 -0.0798
    3SAPS   H6R  313   7.491   3.271   7.630  0.1483 -1.5170  0.0613
    3SAPS   C27  314   7.410   3.116   7.484 -0.4777  0.3194  0.3810
    3SAPS   H7R  315   7.456   3.148   7.388  0.1679  0.8035  0.8389
    3SAPS   H7S  316   7.314   3.072   7.452 -0.8221  0.6695  0.9105
    3SAPS   C28  317   7.513   3.013   7.537 -0.0219 -0.4718  0.2700
    3SAPS   H8R  318   7.585   3.055   7.608  0.4766  0.4072 -0.7350
    3SAPS   C29  319   7.503   2.880   7.524  0.8648  0.2132  0.0720
    3SAPS   H9R  320   7.596   2.831   7.558  1.9808  2.3313  0.2191
    3SAPS  C210  321   7.399   2.807   7.428 -0.1661 -1.1675 -0.1308
    3SAPS  H10R  322   7.450   2.725   7.375  0.7897  0.8544 -2.5474
    3SAPS  H10S  323   7.371   2.880   7.349 -1.7896  0.6483  1.9691
    3SAPS  C211  324   7.277   2.762   7.503 -0.0008  0.8861 -0.1348
    3SAPS  H11R  325   7.297   2.723   7.603  0.7546 -0.3132 -0.7325
    3SAPS  C212  326   7.153   2.769   7.460 -0.1286  0.0280  0.0700
    3SAPS  H12R  327   7.067   2.732   7.517 -0.7475 -0.0302 -0.8811
    3SAPS  C213  328   7.099   2.819   7.329  0.2849 -0.2397  0.3325
    3SAPS  H13R  329   7.031   2.748   7.276  0.0656  0.9982 -1.1038
    3SAPS  H13S  330   7.186   2.830   7.261 -0.6419 -0.5458 -0.9399
    3SAPS  C214  331   7.026   2.956   7.337 -0.1500  0.4631 -0.0926
    3SAPS  H14R  332   6.956   2.978   7.420  0.6770  4.7863 -0.3118
    3SAPS  C215  333   7.047   3.061   7.254 -0.0852 -0.4566  0.4706
    3SAPS  H15R  334   6.981   3.148   7.264  1.0439  0.3016  1.6146
    3SAPS  C216  335   7.137   3.077   7.132  0.0167  0.4585 -0.7793
    3SAPS  H16R  336   7.164   2.979   7.088  0.9520  0.9763 -1.3724
    3SAPS  H16S  337   7.230   3.131   7.159 -1.0316  2.0485 -0.2239
    3SAPS  C217  338   7.071   3.152   7.019 -0.8201 -0.7492 -0.5360
    3SAPS  H17R  339   7.028   3.247   7.058 -2.7911 -1.5766 -0.6061
    3SAPS  H17S  340   6.994   3.091   6.967 -1.4778 -1.2429  0.9585
    3SAPS  C218  341   7.177   3.187   6.903  0.3067 -0.9970 -0.3922
    3SAPS  H18R  342   7.214   3.099   6.845  1.8531  1.1011 -2.7809
    3SAPS  H18S  343   7.266   3.229   6.953 -0.2874 -2.0474  1.6795
    3SAPS  C219  344   7.108   3.274   6.800 -0.0767  0.4624  0.8205
    3SAPS  H19R  345   7.021   3.216   6.762  1.2475 -1.2180  0.1822
    3SAPS  H19S  346   7.076   3.366   6.854  0.6995 -0.3657  2.7841
    3SAPS  C220  347   7.201   3.306   6.683 -0.0460  0.0360 -0.3295
    3SAPS  H20R  348   7.172   3.395   6.622  0.6936 -0.5105 -1.5187
    3SAPS  H20S  349   7.214   3.225   6.607 -1.6924  0.0604 -0.6646
    3SAPS  H20T  350   7.301   3.336   6.722  1.2406 -2.9331 -1.0399
    3SAPS   C33  351   6.900   3.688   7.433  0.2653  0.1046 -0.0689
    3SAPS   H3X  352   6.852   3.614   7.501 -1.1186 -0.1900 -1.3135
    3SAPS   H3Y  353   7.006   3.670   7.462  0.2349  1.2012  0.8221
    3SAPS   C34  354   6.878   3.644   7.294 -0.2769  0.5766  0.9829
    3SAPS   H4X  355   6.770   3.626   7.277  0.0895 -2.4847  1.4512
    3SAPS   H4Y  356   6.928   3.552   7.257  0.9080  1.9375 -0.9825
    3SAPS   C35  357   6.926   3.755   7.189 -0.0309  0.8078 -0.0541
    3SAPS   H5X  358   6.858   3.842   7.204 -1.4814 -0.2535 -0.2858
    3SAPS   H5Y  359   7.032   3.780   7.210  0.1036 -1.7590  3.1605
    3SAPS   C36  360   6.912   3.702   7.040 -0.4166 -0.1266  0.0643
    3SAPS   H6X  361   6.807   3.666   7.033  0.1185 -1.5610 -1.1878
    3SAPS   H6Y  362   6.979   3.613   7.039 -1.8907 -1.3012  1.0319
    3SAPS   C37  363   6.955   3.798   6.938 -0.6663  0.9713  0.0657
    3SAPS   H7X  364   7.051   3.848   6.965 -0.2676 -0.1941  0.9102
    3SAPS   H7Y  365   6.878   3.878   6.931 -0.5639  0.9060 -3.1802
    3SAPS   C38  366   6.979   3.729   6.802  0.5547  0.1378 -0.3065
    3SAPS   H8X  367   7.066   3.661   6.817  1.2128  0.6937 -1.4322
    3SAPS   H8Y  368   7.021   3.798   6.724 -0.9355  0.5451 -0.7842
    3SAPS   C39  369   6.858   3.649   6.746 -0.0886 -0.2108 -0.3119
    3SAPS   H9X  370   6.772   3.717   6.730 -0.2041 -0.5841 -1.3248
    3SAPS   H9Y  371   6.830   3.576   6.825 -3.2639  2.3034  1.0791
    3SAPS  C310  372   6.886   3.557   6.629 -0.2664  0.1805  0.7319
    3SAPS  H10X  373   6.802   3.484   6.624 -0.2670  0.2206  0.0930
    3SAPS  H10Y  374   6.980   3.499   6.643 -0.4747 -0.9331 -1.8693
    3SAPS  C311  375   6.886   3.624   6.491  0.0619  0.7648  1.0473
    3SAPS  H11X  376   6.978   3.594   6.436 -1.0780  0.0979 -0.5692
    3SAPS  H11Y  377   6.890   3.733   6.512  2.0106  0.7912  0.7964
    3SAPS  C312  378   6.781   3.601   6.382 -0.1761  0.4784  0.6840
    3SAPS  H12X  379   6.685   3.636   6.427 -0.6115  1.0294 -0.6316
    3SAPS  H12Y  380   6.766   3.494   6.357 -0.3468  0.9346 -1.3177
    3SAPS  C313  381   6.803   3.678   6.251  0.2732  0.3629 -0.1455
    3SAPS  H13X  382   6.893   3.630   6.207 -0.0427 -0.9912  0.6432
    3SAPS  H13Y  383   6.823   3.785   6.275  1.8015  0.0913 -0.1211
    3SAPS  C314  384   6.680   3.683   6.155 -0.6510 -0.0037  0.4209
    3SAPS  H14X  385   6.607   3.739   6.218 -0.5949 -1.8451  2.2219
    3SAPS  H14Y  386   6.641   3.582   6.131 -0.1508 -0.7693  2.6348
    3SAPS  C315  387   6.716   3.759   6.027  0.1266  0.4884  0.0548
    3SAPS  H15X  388   6.765   3.689   5.956 -1.1136  0.1100 -0.4566
    3SAPS  H15Y  389   6.791   3.837   6.052 -1.7496  1.8884  1.6276
    3SAPS  C316  390   6.602   3.829   5.960  0.0545  0.5922  0.0075
    3SAPS  H16X  391   6.525   3.851   6.036  0.3046  3.5000 -0.4829
    3SAPS  H16Y  392   6.551   3.770   5.880 -1.0633  2.2062 -0.5182
    3SAPS  C317  393   6.630   3.964   5.897 -0.1303  0.1149 -0.5139
    3SAPS  H17X  394   6.710   3.944   5.822 -1.6244 -0.1326 -2.1048
    3SAPS  H17Y  395   6.674   4.035   5.969  0.4116  0.7277 -1.4301
    3SAPS  C318  396   6.506   4.020   5.839  0.1077  0.5240  0.7809
    3SAPS  H18X  397   6.431   4.045   5.917 -2.0568 -0.8474 -0.7159
    3SAPS  H18Y  398   6.456   3.948   5.770  1.9427 -0.9520  0.9303
    3SAPS  H18Z  399   6.531   4.109   5.776 -0.4735  0.8314  0.9786
    4SAPS     N  400   3.694   2.812   7.857  1.0138 -0.6997  0.3479
    4SAPS   HN1  401   3.621   2.847   7.791  1.4677 -0.6527 -0.1359
    4SAPS   HN2  402   3.775   2.874   7.838  1.5229 -1.1758  0.9454
    4SAPS   HN3  403   3.735   2.719   7.832  2.6198  0.6192 -2.4917
    4SAPS   C12  404   3.635   2.824   7.994  0.1720  0.2778  0.4272
    4SAPS  H12A  405   3.708   2.783   8.061  1.5055  0.4631 -0.8597
    4SAPS   C13  406   3.610   2.973   8.024  0.0498  0.0696  0.8826
    4SAPS  O13A  407   3.627   3.058   7.931  0.3381 -0.6564 -0.0611
    4SAPS  O13B  408   3.537   2.998   8.123  0.3528  0.1043 -0.2849
    4SAPS   C11  409   3.505   2.743   7.998  0.0513  0.2164 -0.0371
    4SAPS  H11A  410   3.443   2.771   7.910 -3.3332 -0.4057  1.9599
    4SAPS  H11B  411   3.449   2.762   8.092 -0.4022  0.7569 -0.4076
    4SAPS     P  412   3.432   2.495   8.049  0.3446  0.1210  0.0674
    4SAPS   O13  413   3.507   2.380   8.091  0.4195 -0.2006  0.3845
    4SAPS   O14  414   3.350   2.560   8.152  0.0685 -0.0474 -0.8729
    4SAPS   O12  415   3.530   2.603   7.985 -0.3463  0.0024 -0.3199
    4SAPS   O11  416   3.324   2.461   7.928 -0.1447  0.5717  0.8457
    4SAPS    C1  417   3.361   2.489   7.788  0.3657 -1.0121  0.0432
    4SAPS    HA  418   3.268   2.493   7.727  0.5994  2.3971 -0.2492
    4SAPS    HB  419   3.413   2.585   7.775 -0.6927  0.0367  2.6577
    4SAPS    C2  420   3.453   2.371   7.727  1.1326 -0.8126 -0.2298
    4SAPS    HS  421   3.544   2.366   7.790  1.2585  1.9104 -0.0921
    4SAPS   O21  422   3.479   2.391   7.587  0.3057 -0.0860  0.1984
    4SAPS   C21  423   3.605   2.372   7.547  0.1594 -0.5466  0.5003
    4SAPS   O22  424   3.692   2.319   7.616  0.2748  0.1921  0.1620
    4SAPS   C22  425   3.626   2.416   7.400 -0.2302  0.6068  0.3249
    4SAPS   H2R  426   3.601   2.327   7.338 -0.8830  1.4332 -0.6278
    4SAPS   H2S  427   3.561   2.503   7.376 -0.6223  0.6380  1.4065
    4SAPS    C3  428   3.382   2.228   7.735 -0.4264 -1.3496  0.2940
    4SAPS    HX  429   3.295   2.248   7.669 -1.3400  1.2859  2.1312
    4SAPS    HY  430   3.339   2.210   7.835  0.7206 -0.9271  0.8860
    4SAPS   O31  431   3.472   2.126   7.686  0.7721 -0.2728 -0.4132
    4SAPS   C31  432   3.431   2.000   7.694  0.0525 -0.4432 -1.4430
    4SAPS   O32  433   3.319   1.963   7.730  0.1418  0.2205  0.3154
    4SAPS   C32  434   3.545   1.910   7.676 -0.2341  0.2565  0.8791
    4SAPS   H2X  435   3.604   1.922   7.770  0.7385  1.9567  0.0962
    4SAPS   H2Y  436   3.614   1.938   7.593  1.1832  0.0535  1.9459
    4SAPS   C23  437   3.771   2.439   7.366 -0.6704  0.5280 -0.1403
    4SAPS   H3R  438   3.832   2.355   7.408 -1.1818  0.4890  0.5410
    4SAPS   H3S  439   3.810   2.527   7.421  1.3722 -0.0143 -0.6289
    4SAPS   C24  440   3.796   2.463   7.219 -0.1310 -0.6673 -0.0164
    4SAPS   H4R  441   3.753   2.380   7.157 -0.2123  0.5801 -1.7077
    4SAPS   H4S  442   3.906   2.461   7.206 -0.2178 -2.0270 -0.8560
    4SAPS   C25  443   3.733   2.590   7.179 -0.1624  0.1815 -0.9136
    4SAPS   H5R  444   3.693   2.645   7.265  0.2178  0.4554 -0.9078
    4SAPS   C26  445   3.745   2.654   7.064  0.2689  0.4107 -0.3503
    4SAPS   H6R  446   3.691   2.749   7.050 -0.7808 -0.1773 -0.3815
    4SAPS   C27  447   3.824   2.610   6.942 -0.0550  0.4842  0.0387
    4SAPS   H7R  448   3.760   2.579   6.857 -1.2001  1.2147  0.6121
    4SAPS   H7S  449   3.870   2.509   6.955  0.6377  0.3618 -2.7790
    4SAPS   C28  450   3.920   2.716   6.895 -0.3753 -0.0360  0.3798
    4SAPS   H8R  451   4.019   2.733   6.940 -0.3567  2.9226 -0.4983
    4SAPS   C29  452   3.877   2.816   6.812 -0.6092 -0.4152 -0.5508
    4SAPS   H9R  453   3.951   2.896   6.795 -1.6476  1.1038  1.5839
    4SAPS  C210  454   3.750   2.829   6.735  0.0935  0.2488 -0.6171
    4SAPS  H10R  455   3.719   2.935   6.732  2.0820  0.9752  1.5287
    4SAPS  H10S  456   3.674   2.782   6.801  2.0353  0.5670  2.0003
    4SAPS  C211  457   3.761   2.769   6.600  0.2608  0.0765  0.4877
    4SAPS  H11R  458   3.788   2.663   6.610  2.0200  0.3408 -0.8574
    4SAPS  C212  459   3.755   2.822   6.471  0.1030 -0.0625 -0.2663
    4SAPS  H12R  460   3.765   2.752   6.387  1.3993  0.0462 -0.2126
    4SAPS  C213  461   3.721   2.961   6.424 -0.3253 -0.1057  0.4954
    4SAPS  H13R  462   3.711   2.958   6.313  2.0803 -1.3925  0.2297
    4SAPS  H13S  463   3.800   3.031   6.459  0.3601  0.7124 -2.3849
    4SAPS  C214  464   3.594   3.007   6.475  0.4138 -0.5045  0.0814
    4SAPS  H14R  465   3.553   2.963   6.567  0.4852 -0.5649  0.0848
    4SAPS  C215  466   3.536   3.115   6.426 -0.1154  0.0002  0.0116
    4SAPS  H15R  467   3.437   3.149   6.459  0.3815  1.1283  0.3880
    4SAPS  C216  468   3.586   3.198   6.324  0.0945 -0.4585 -0.3395
    4SAPS  H16R  469   3.697   3.191   6.331 -0.0486 -1.7098  2.0084
    4SAPS  H16S  470   3.564   3.303   6.353 -1.9642 -1.3237  1.5970
    4SAPS  C217  471   3.535   3.168   6.184  0.4428  0.1585 -0.0346
    4SAPS  H17R  472   3.437   3.219   6.173  1.4361  1.8726 -1.7057
    4SAPS  H17S  473   3.537   3.059   6.161  0.9758  0.2586 -0.4936
    4SAPS  C218  474   3.617   3.242   6.076  0.6282  0.3845 -0.0734
    4SAPS  H18R  475   3.717   3.194   6.082 -0.6923 -2.8169 -1.3494
    4SAPS  H18S  476   3.631   3.348   6.107  0.6056 -0.0011  1.2956
    4SAPS  C219  477   3.559   3.226   5.939 -0.4232 -0.1784 -0.2863
    4SAPS  H19R  478   3.453   3.260   5.946  0.1756  1.6357  0.5784
    4SAPS  H19S  479   3.539   3.117   5.933 -0.9693 -0.0268 -1.6651
    4SAPS  C220  480   3.634   3.279   5.826 -0.1820 -0.4704  1.2703
    4SAPS  H20R  481   3.582   3.369   5.788  2.6251 -0.6615 -3.8889
    4SAPS  H20S  482   3.636   3.199   5.749 -1.2149 -0.7689  1.5366
    4SAPS  H20T  483   3.739   3.305   5.851  0.3613  1.9873 -2.6571
    4SAPS   C33  484   3.494   1.763   7.660  0.0434  0.1042  0.3266
    4SAPS   H3X  485   3.427   1.734   7.744  1.0776 -2.6770  0.3161
    4SAPS   H3Y  486   3.586   1.704   7.678  0.7037  0.8509 -0.5476
    4SAPS   C34  487   3.444   1.730   7.522 -0.2860  0.5208  0.3153
    4SAPS   H4X  488   3.533   1.718   7.456  0.6485  1.7305  1.3181
    4SAPS   H4Y  489   3.388   1.812   7.473  0.7472  0.6517 -0.6915
    4SAPS   C35  490   3.358   1.599   7.514 -0.0431 -0.0680  0.1981
    4SAPS   H5X  491   3.283   1.608   7.596 -1.7538  1.0482 -1.4043
    4SAPS   H5Y  492   3.426   1.512   7.526  1.8855  1.5598  1.8359
    4SAPS   C36  493   3.289   1.593   7.375  0.1518  0.2364 -1.2826
    4SAPS   H6X  494   3.260   1.693   7.337  0.3078  0.3069 -1.2184
    4SAPS   H6Y  495   3.196   1.535   7.396 -0.2488  1.3011  0.0584
    4SAPS   C37  496   3.375   1.515   7.273  0.1855  0.4088 -0.2770
    4SAPS   H7X  497   3.359   1.407   7.298  1.1436 -0.1839 -2.0607
    4SAPS   H7Y  498   3.483   1.533   7.290  0.6652 -2.2108 -0.0952
    4SAPS   C38  499   3.345   1.538   7.121  0.1481  0.3711 -0.5486
    4SAPS   H8X  500   3.375   1.637   7.079 -1.2725  0.6789 -0.8820
    4SAPS   H8Y  501   3.238   1.527   7.093 -0.0375  0.8242 -0.0392
    4SAPS   C39  502   3.432   1.438   7.037  0.2155  0.1919 -0.1965
    4SAPS   H9X  503   3.413   1.333   7.066 -0.6559  0.4155  0.0581
    4SAPS   H9Y  504   3.542   1.445   7.053  0.5686  2.4742 -2.8665
    4SAPS  C310  505   3.405   1.461   6.895 -0.7755  0.4076  0.3223
    4SAPS  H10X  506   3.423   1.568   6.874 -1.9770  1.5052  4.0394
    4SAPS  H10Y  507   3.299   1.440   6.871 -0.7544  0.3196  0.3028
    4SAPS  C311  508   3.498   1.378   6.801  0.2750 -0.9979  0.0277
    4SAPS  H11X  509   3.484   1.277   6.844 -1.4822 -0.7656  0.0722
    4SAPS  H11Y  510   3.605   1.403   6.822 -0.1833 -0.0256  1.3806
    4SAPS  C312  511   3.461   1.395   6.653 -0.5811 -0.1514  0.4577
    4SAPS  H12X  512   3.456   1.504   6.632  0.1254  0.0514  1.2906
    4SAPS  H12Y  513   3.368   1.342   6.622 -1.3281  0.1911  1.9873
    4SAPS  C313  514   3.566   1.338   6.555 -0.5054 -0.4024  0.0485
    4SAPS  H13X  515   3.579   1.231   6.582 -0.0151  0.0843  1.8892
    4SAPS  H13Y  516   3.663   1.391   6.570 -1.9472  2.6999 -0.7191
    4SAPS  C314  517   3.537   1.360   6.412  0.1703 -0.6541 -0.0413
    4SAPS  H14X  518   3.515   1.469   6.421  0.7149 -0.6587  1.6927
    4SAPS  H14Y  519   3.443   1.308   6.385  0.4558 -0.3097 -1.8408
    4SAPS  C315  520   3.652   1.330   6.318 -0.1951  0.4596 -0.3815
    4SAPS  H15X  521   3.655   1.220   6.309 -1.4900  0.5109 -2.1075
    4SAPS  H15Y  522   3.751   1.357   6.360 -0.0961  0.0494 -0.3483
    4SAPS  C316  523   3.639   1.401   6.179 -0.1824 -0.0472 -0.8981
    4SAPS  H16X  524   3.683   1.503   6.178 -0.1356 -0.0688 -1.1373
    4SAPS  H16Y  525   3.529   1.411   6.164 -0.2658 -0.3669 -0.5181
    4SAPS  C317  526   3.714   1.328   6.069  0.1068 -0.4488 -0.4099
    4SAPS  H17X  527   3.695   1.218   6.068 -3.9617  0.1260 -0.2594
    4SAPS  H17Y  528   3.824   1.334   6.088  0.1516  1.7472 -1.1305
    4SAPS  C318  529   3.686   1.391   5.934 -0.4209 -0.0166  0.4368
    4SAPS  H18X  530   3.712   1.498   5.928 -1.2455  0.1211 -1.7023
    4SAPS  H18Y  531   3.577   1.374   5.918 -0.1519 -0.2664 -1.3874
    4SAPS  H18Z  532   3.752   1.351   5.854 -1.3361  0.0119 -0.3483
    5SAPS     N  533   6.464   5.743   8.113 -0.2714 -0.3068 -0.7449
    5SAPS   HN1  534   6.475   5.846   8.107 -1.3266 -0.1034  0.3983
    5SAPS   HN2  535   6.531   5.695   8.049 -1.8123 -2.5984 -0.7739
    5SAPS   HN3  536   6.367   5.732   8.077 -1.2546  1.8333  1.0548
    5SAPS   C12  537   6.509   5.702   8.251  0.1159 -0.6341  0.0793
    5SAPS  H12A  538   6.446   5.749   8.325  2.3960  0.9427  1.1464
    5SAPS   C13  539   6.513   5.550   8.265 -0.7660 -0.1408  0.2203
    5SAPS  O13A  540   6.491   5.469   8.171  0.3868 -0.0619  0.4311
    5SAPS  O13B  541   6.536   5.516   8.384  0.3252  0.4103 -0.8792
    5SAPS   C11  542   6.652   5.762   8.268  0.1326 -0.6102 -0.1695
    5SAPS  H11A  543   6.719   5.704   8.201 -0.2822 -0.9571 -0.2930
    5SAPS  H11B  544   6.681   5.727   8.369  1.8602 -0.8649 -0.7283
    5SAPS     P  545   6.798   5.975   8.214  0.0754  0.0762  0.2475
    5SAPS   O13  546   6.796   6.113   8.262  0.0459  0.2738 -0.7866
    5SAPS   O14  547   6.915   5.896   8.250  0.3960  0.0423  0.2389
    5SAPS   O12  548   6.658   5.906   8.256  0.1261  0.4261 -0.4392
    5SAPS   O11  549   6.775   5.968   8.066  0.0981  0.2545  0.1380
    5SAPS    C1  550   6.690   6.040   7.985 -0.3454  0.3112 -0.7770
    5SAPS    HA  551   6.611   5.971   7.948  0.3870  0.9480 -3.7607
    5SAPS    HB  552   6.632   6.118   8.039 -2.9538 -1.6900 -0.4902
    5SAPS    C2  553   6.773   6.101   7.873  0.2518 -0.2072 -0.4883
    5SAPS    HS  554   6.704   6.169   7.820  0.4749 -0.5602 -1.2447
    5SAPS   O21  555   6.823   5.997   7.790 -0.2727  0.0383  0.0335
    5SAPS   C21  556   6.749   5.963   7.685 -0.0550  0.1928 -0.6882
    5SAPS   O22  557   6.638   5.996   7.665  0.5115 -0.8070  0.1017
    5SAPS   C22  558   6.826   5.870   7.592  0.5104  0.3500 -0.2386
    5SAPS   H2R  559   6.926   5.911   7.565  0.4507 -0.0423 -1.1036
    5SAPS   H2S  560   6.830   5.770   7.639 -0.6616  1.0986  1.5379
    5SAPS    C3  561   6.883   6.193   7.924 -0.1198 -0.4039  0.1592
    5SAPS    HX  562   6.956   6.135   7.984 -0.7383 -1.0718  0.2834
    5SAPS    HY  563   6.843   6.259   8.004  0.3296  0.0265  0.0288
    5SAPS   O31  564   6.939   6.270   7.817 -0.1106  0.2827  0.0302
    5SAPS   C31  565   7.075   6.299   7.829  0.0386 -0.0599 -0.4493
    5SAPS   O32  566   7.144   6.246   7.916 -0.0705  0.2039  0.2881
    5SAPS   C32  567   7.106   6.396   7.717  0.1022 -0.8282  0.6372
    5SAPS   H2X  568   7.101   6.496   7.766  1.5265 -0.0411 -0.7029
    5SAPS   H2Y  569   7.025   6.389   7.642 -0.4916  3.1170  0.7050
    5SAPS   C23  570   6.743   5.846   7.464  0.5057  0.1764 -0.0312
    5SAPS   H3R  571   6.730   5.946   7.417  0.4467  0.9208  1.5295
    5SAPS   H3S  572   6.645   5.803   7.495 -0.6396  1.5136 -1.6097
    5SAPS   C24  573   6.800   5.767   7.348  0.0191  0.5311 -0.1096
    5SAPS   H4R  574   6.908   5.792   7.332  0.4750 -1.7488 -0.9628
    5SAPS   H4S  575   6.737   5.774   7.258  0.1319 -0.6322 -0.3018
    5SAPS   C25  576   6.807   5.628   7.388 -0.0039 -0.3896 -0.6522
    5SAPS   H5R  577   6.811   5.625   7.498  0.4517  1.1649 -0.6112
    5SAPS   C26  578   6.793   5.514   7.319  0.4526 -0.8129  0.7214
    5SAPS   H6R  579   6.806   5.415   7.365 -2.1030 -1.3195  0.5041
    5SAPS   C27  580   6.758   5.507   7.171 -0.1722 -0.2501 -0.0257
    5SAPS   H7R  581   6.714   5.406   7.154 -0.4233 -0.4422  1.6039
    5SAPS   H7S  582   6.845   5.521   7.103 -0.8787  1.3897 -0.6310
    5SAPS   C28  583   6.650   5.600   7.117 -0.1818  0.6678 -0.4672
    5SAPS   H8R  584   6.570   5.621   7.189 -1.1694 -0.3349 -1.2326
    5SAPS   C29  585   6.645   5.665   6.999 -0.1562  0.1152 -0.0722
    5SAPS   H9R  586   6.564   5.738   6.987  0.1205  0.8534  2.0472
    5SAPS  C210  587   6.745   5.663   6.892  0.3344 -0.1437  0.4204
    5SAPS  H10R  588   6.672   5.661   6.809 -0.2469 -1.6781  0.9271
    5SAPS  H10S  589   6.810   5.572   6.898  0.5921  0.0988  1.6946
    5SAPS  C211  590   6.828   5.790   6.904  0.6355  0.1319  0.3416
    5SAPS  H11R  591   6.850   5.826   7.006 -2.3887  0.7966  0.8572
    5SAPS  C212  592   6.868   5.871   6.801  0.1932 -0.8316 -0.0759
    5SAPS  H12R  593   6.939   5.952   6.822 -1.2498  0.1652  1.2266
    5SAPS  C213  594   6.842   5.852   6.655  0.1942 -0.4230  0.1388
    5SAPS  H13R  595   6.749   5.903   6.624 -1.2685 -1.6726  2.1900
    5SAPS  H13S  596   6.813   5.746   6.640 -0.1034 -0.3660  0.3083
    5SAPS  C214  597   6.971   5.888   6.580  0.0386 -0.1098  0.1304
    5SAPS  H14R  598   7.056   5.829   6.617  0.0322  0.3841  0.9479
    5SAPS  C215  599   6.979   5.984   6.487 -0.4122  0.6042 -0.2594
    5SAPS  H15R  600   7.079   6.011   6.450 -1.4563  1.4691 -2.6446
    5SAPS  C216  601   6.871   6.071   6.420 -0.6443  0.2592  0.7677
    5SAPS  H16R  602   6.900   6.178   6.421  0.9719 -0.0460 -1.9692
    5SAPS  H16S  603   6.787   6.051   6.489  0.8415 -1.7293  2.1188
    5SAPS  C217  604   6.852   6.024   6.278  0.0104 -0.9654  0.3448
    5SAPS  H17R  605   6.835   5.915   6.273  3.3960 -1.6071  0.8676
    5SAPS  H17S  606   6.947   6.048   6.226  0.1146 -2.0381  0.0382
    5SAPS  C218  607   6.752   6.100   6.182 -0.2587  0.5278 -0.6602
    5SAPS  H18R  608   6.760   6.210   6.190 -2.5600  0.6569  0.7455
    5SAPS  H18S  609   6.645   6.077   6.201  0.1808 -1.5068 -0.4143
    5SAPS  C219  610   6.784   6.056   6.037  0.9597  0.6779 -0.5127
    5SAPS  H19R  611   6.886   6.091   6.014  1.0918 -0.3871 -1.7104
    5SAPS  H19S  612   6.712   6.104   5.968 -2.3992 -2.6016  0.3375
    5SAPS  C220  613   6.782   5.902   6.014  0.3522 -0.1612 -0.0698
    5SAPS  H20R  614   6.687   5.856   6.047  0.4437  1.3770  2.5952
    5SAPS  H20S  615   6.865   5.856   6.071 -1.2687 -1.7914  1.0690
    5SAPS  H20T  616   6.802   5.890   5.905  1.1874  1.1497 -0.0960
    5SAPS   C33  617   7.252   6.377   7.670  0.6219  0.6212 -0.7362
    5SAPS   H3X  618   7.255   6.295   7.595  0.0561 -0.3736  0.2841
    5SAPS   H3Y  619   7.315   6.359   7.760  1.2866 -0.3790 -1.3715
    5SAPS   C34  620   7.291   6.510   7.605 -0.4454 -0.4802  0.6220
    5SAPS   H4X  621   7.301   6.592   7.679 -4.7587 -1.0443  2.1309
    5SAPS   H4Y  622   7.210   6.531   7.532 -1.7207 -1.2607  1.7449
    5SAPS   C35  623   7.419   6.488   7.521 -0.4163  0.3282 -0.3268
    5SAPS   H5X  624   7.399   6.396   7.463 -1.1115  1.2282 -1.5791
    5SAPS   H5Y  625   7.503   6.469   7.590  0.2748 -3.2263 -1.9484
    5SAPS   C36  626   7.458   6.591   7.415 -0.0350 -0.1455  0.6549
    5SAPS   H6X  627   7.482   6.681   7.475 -0.0624 -0.1633  0.6913
    5SAPS   H6Y  628   7.378   6.602   7.338  2.7324  0.0799 -2.3839
    5SAPS   C37  629   7.591   6.546   7.347 -0.8400 -0.9248 -0.8462
    5SAPS   H7X  630   7.589   6.459   7.278 -0.3607  0.3112 -2.4639
    5SAPS   H7Y  631   7.663   6.540   7.432 -2.6098  1.9527  1.0540
    5SAPS   C38  632   7.638   6.649   7.245 -0.8517  0.4208  0.4122
    5SAPS   H8X  633   7.749   6.651   7.245 -0.7516  1.8794  3.8477
    5SAPS   H8Y  634   7.603   6.752   7.265 -0.7087  0.4652  0.4326
    5SAPS   C39  635   7.587   6.608   7.106 -0.1835 -0.1929 -0.2653
    5SAPS   H9X  636   7.476   6.598   7.109 -0.1540 -0.3923  0.5655
    5SAPS   H9Y  637   7.615   6.505   7.074 -0.0923  0.7229 -3.4418
    5SAPS  C310  638   7.640   6.691   6.991  0.3217 -0.1320 -0.5613
    5SAPS  H10X  639   7.749   6.687   6.971  0.1466  2.5148 -2.4868
    5SAPS  H10Y  640   7.622   6.799   7.010 -1.0708 -0.3309 -0.6297
    5SAPS  C311  641   7.566   6.654   6.860 -0.1253 -0.4850 -0.0752
    5SAPS  H11X  642   7.457   6.673   6.870  0.1221  0.7623  0.4564
    5SAPS  H11Y  643   7.583   6.546   6.842 -1.0968 -0.6699  0.0523
    5SAPS  C312  644   7.628   6.744   6.745  0.2891 -0.5010 -0.2784
    5SAPS  H12X  645   7.738   6.729   6.738  0.0513 -1.4035 -3.4138
    5SAPS  H12Y  646   7.622   6.853   6.766  3.6997 -0.1989 -0.3949
    5SAPS  C313  647   7.580   6.707   6.601 -0.0845 -0.5579 -0.3063
    5SAPS  H13X  648   7.477   6.665   6.603 -1.1279  1.8171  0.4988
    5SAPS  H13Y  649   7.655   6.642   6.552 -0.2248  1.1137 -2.9510
    5SAPS  C314  650   7.562   6.841   6.518 -0.2497  0.4250  0.4383
    5SAPS  H14X  651   7.664   6.886   6.514 -0.2551  0.4156  0.1022
    5SAPS  H14Y  652   7.485   6.898   6.572  1.1214  2.9021 -0.0698
    5SAPS  C315  653   7.535   6.818   6.370 -0.3778  0.5988  0.7023
    5SAPS  H15X  654   7.451   6.748   6.353  0.2274 -0.5427  2.1969
    5SAPS  H15Y  655   7.624   6.772   6.321 -1.8935 -0.6287 -1.0486
    5SAPS  C316  656   7.497   6.948   6.305  0.1029  0.3424  0.1175
    5SAPS  H16X  657   7.564   7.029   6.342  0.4803  0.6960 -1.3018
    5SAPS  H16Y  658   7.395   6.970   6.345 -0.7089 -0.1751 -1.5703
    5SAPS  C317  659   7.473   6.956   6.153 -0.6409 -0.3136 -0.2841
    5SAPS  H17X  660   7.397   7.032   6.125  0.9407  1.8294  0.8704
    5SAPS  H17Y  661   7.427   6.858   6.129 -2.0266  0.3799 -0.5417
    5SAPS  C318  662   7.597   6.985   6.071  0.0228 -0.0041  1.1749
    5SAPS  H18X  663   7.675   6.907   6.085  1.5572  1.1404 -0.4997
    5SAPS  H18Y  664   7.647   7.082   6.095 -0.9874  1.4653 -2.0277
    5SAPS  H18Z  665   7.565   6.980   5.964  1.7963  0.1768  0.6009
    6SAPS     N  666   2.705   4.460   7.751 -0.5079  0.1643 -0.6576
    6SAPS   HN1  667   2.757   4.547   7.772  1.0560 -1.0540  0.8314
    6SAPS   HN2  668   2.703   4.460   7.647  0.2059  1.8966 -0.6943
    6SAPS   HN3  669   2.607   4.464   7.787 -0.1084  0.6616  0.4087
    6SAPS   C12  670   2.773   4.346   7.807 -0.1868 -0.0285 -0.7112
    6SAPS  H12A  671   2.795   4.363   7.912  0.1636  0.5263 -0.8714
    6SAPS   C13  672   2.696   4.217   7.795  0.7330  0.3049  0.7455
    6SAPS  O13A  673   2.609   4.205   7.704  0.2835  0.3772 -0.0210
    6SAPS  O13B  674   2.732   4.115   7.862 -0.5266 -0.0351  0.5494
    6SAPS   C11  675   2.917   4.331   7.746  0.0080  0.6781  0.8123
    6SAPS  H11A  676   2.909   4.293   7.641  0.2941 -2.0460  1.6919
    6SAPS  H11B  677   2.965   4.249   7.804  0.0723  0.4850  0.4961
    6SAPS     P  678   3.151   4.430   7.738  0.2490 -0.4184 -0.5065
    6SAPS   O13  679   3.217   4.560   7.773 -0.0771 -0.2845 -0.2931
    6SAPS   O14  680   3.195   4.317   7.819  0.6462  0.2831 -0.0281
    6SAPS   O12  681   2.994   4.444   7.749 -0.4393  0.0864  0.2375
    6SAPS   O11  682   3.175   4.390   7.589  0.1424 -0.0384 -0.5627
    6SAPS    C1  683   3.125   4.474   7.487 -0.1789  0.0393  0.6055
    6SAPS    HA  684   3.020   4.445   7.464  0.0297  0.6960 -1.4087
    6SAPS    HB  685   3.123   4.583   7.508 -1.3278 -0.0736  1.1551
    6SAPS    C2  686   3.215   4.453   7.355  0.1612 -0.3729 -0.3682
    6SAPS    HS  687   3.204   4.547   7.297  0.1246  0.1047  0.3965
    6SAPS   O21  688   3.179   4.330   7.291  0.0921 -0.5539 -0.3876
    6SAPS   C21  689   3.064   4.342   7.221 -0.2049 -0.6302 -0.5093
    6SAPS   O22  690   3.006   4.450   7.210  0.0863  0.4812 -0.3334
    6SAPS   C22  691   3.019   4.214   7.143 -0.6814 -0.2036 -0.6814
    6SAPS   H2R  692   3.114   4.178   7.099 -0.1501 -1.6615  1.4959
    6SAPS   H2S  693   2.993   4.146   7.227  0.0830  0.0688 -0.2120
    6SAPS    C3  694   3.368   4.442   7.393  0.2012 -0.3244 -0.1123
    6SAPS    HX  695   3.387   4.341   7.435  2.3353  0.2480  0.4312
    6SAPS    HY  696   3.381   4.504   7.484  0.5252  1.5169 -1.3693
    6SAPS   O31  697   3.454   4.477   7.287 -0.6823 -0.2762 -0.1603
    6SAPS   C31  698   3.584   4.440   7.288  1.0269 -0.1587 -0.3415
    6SAPS   O32  699   3.635   4.362   7.365 -0.1379  0.2463 -0.3778
    6SAPS   C32  700   3.642   4.507   7.161  0.3490 -0.0968 -0.4428
    6SAPS   H2X  701   3.652   4.616   7.180  1.2587 -0.2559  0.0400
    6SAPS   H2Y  702   3.565   4.498   7.081  1.4415  0.1136 -1.5506
    6SAPS   C23  703   2.911   4.243   7.042  0.5738 -0.1159  0.0555
    6SAPS   H3R  704   2.836   4.315   7.084  1.2677 -0.0022  1.1476
    6SAPS   H3S  705   2.856   4.148   7.028 -0.0136  0.4398 -1.6319
    6SAPS   C24  706   2.964   4.278   6.905  0.1842  0.2897  0.3967
    6SAPS   H4R  707   3.033   4.197   6.872 -2.0760  0.1366 -4.9171
    6SAPS   H4S  708   3.039   4.360   6.902  0.8526 -0.2880  0.8861
    6SAPS   C25  709   2.850   4.290   6.808 -0.5201 -0.6079 -0.1691
    6SAPS   H5R  710   2.755   4.265   6.856  0.8549 -1.0737  2.5069
    6SAPS   C26  711   2.859   4.329   6.680 -0.3582  0.4834 -0.0042
    6SAPS   H6R  712   2.769   4.347   6.619 -1.3383 -0.6257  1.0656
    6SAPS   C27  713   2.977   4.366   6.599 -0.2812 -0.2618  0.1176
    6SAPS   H7R  714   3.071   4.366   6.659  1.9228  2.3797 -3.0006
    6SAPS   H7S  715   2.971   4.474   6.573 -1.6722 -1.0142 -3.1124
    6SAPS   C28  716   2.999   4.280   6.480 -0.0297 -0.5458 -0.2183
    6SAPS   H8R  717   3.088   4.220   6.501  0.2271 -0.0531  0.1199
    6SAPS   C29  718   2.947   4.298   6.355 -0.0365 -0.3748  0.1618
    6SAPS   H9R  719   2.965   4.215   6.284  1.5422  0.0084  0.0733
    6SAPS  C210  720   2.836   4.385   6.309  0.4091  0.1173 -0.2702
    6SAPS  H10R  721   2.773   4.410   6.397  0.8566 -1.6821  0.6037
    6SAPS  H10S  722   2.775   4.327   6.238 -0.7868 -0.8399  1.4707
    6SAPS  C211  723   2.887   4.510   6.238 -0.6244 -0.3319  0.4013
    6SAPS  H11R  724   2.955   4.573   6.296 -0.4323 -0.5560  0.4192
    6SAPS  C212  725   2.862   4.557   6.114  0.3754 -0.4011  0.5669
    6SAPS  H12R  726   2.917   4.648   6.087 -0.0472  0.4631  2.4342
    6SAPS  C213  727   2.776   4.499   6.011  0.2170  0.2414  0.2561
    6SAPS  H13R  728   2.709   4.418   6.047 -0.9777  0.5230 -1.2720
    6SAPS  H13S  729   2.836   4.455   5.928 -1.2642 -3.0002  0.7410
    6SAPS  C214  730   2.693   4.614   5.962  0.0272  0.1494 -0.1848
    6SAPS  H14R  731   2.681   4.701   6.029 -0.1498  0.3216 -0.4394
    6SAPS  C215  732   2.597   4.611   5.870  0.4230  0.2575  0.6322
    6SAPS  H15R  733   2.543   4.701   5.838 -0.6975 -0.0247  1.6762
    6SAPS  C216  734   2.559   4.496   5.787 -0.3397  0.3269 -0.3920
    6SAPS  H16R  735   2.449   4.481   5.787 -0.5955  1.9140 -1.4119
    6SAPS  H16S  736   2.604   4.405   5.833 -1.4288  0.7763  1.6815
    6SAPS  C217  737   2.600   4.498   5.647  0.0237 -0.6001  0.5913
    6SAPS  H17R  738   2.557   4.581   5.587  0.7067  0.4635  1.5259
    6SAPS  H17S  739   2.554   4.406   5.605 -1.6866  0.7561 -0.6785
    6SAPS  C218  740   2.754   4.495   5.622 -1.1739 -0.6310 -0.2083
    6SAPS  H18R  741   2.794   4.411   5.681 -1.3701 -0.5407  0.0599
    6SAPS  H18S  742   2.808   4.587   5.654 -0.6169 -0.3490 -1.8752
    6SAPS  C219  743   2.792   4.489   5.471  0.1911 -0.3011 -0.0659
    6SAPS  H19R  744   2.719   4.552   5.418  0.7030  0.5998  0.2768
    6SAPS  H19S  745   2.768   4.384   5.442  1.1278 -1.7012  3.5715
    6SAPS  C220  746   2.942   4.516   5.437 -0.2771 -0.4596 -0.2469
    6SAPS  H20R  747   2.971   4.622   5.453  0.2906 -0.6797  0.2447
    6SAPS  H20S  748   2.965   4.482   5.333  2.1200 -0.5444  0.2380
    6SAPS  H20T  749   3.004   4.445   5.496  0.3041  1.1021  1.0954
    6SAPS   C33  750   3.783   4.446   7.117  0.2979  0.0259 -0.3115
    6SAPS   H3X  751   3.769   4.340   7.088 -1.7636  0.4770 -1.1626
    6SAPS   H3Y  752   3.861   4.459   7.194  0.6326  0.9506 -0.7925
    6SAPS   C34  753   3.843   4.512   6.993 -0.0029 -0.7575 -0.4699
    6SAPS   H4X  754   3.938   4.458   6.973  0.6473  0.1908 -0.0166
    6SAPS   H4Y  755   3.870   4.617   7.018  1.0635 -1.0064 -0.5214
    6SAPS   C35  756   3.768   4.522   6.867  0.2398  0.2385 -1.1899
    6SAPS   H5X  757   3.705   4.613   6.878  0.8799  0.4903  0.7482
    6SAPS   H5Y  758   3.712   4.428   6.847  0.4903 -0.0662 -0.5129
    6SAPS   C36  759   3.855   4.526   6.737 -0.0428  0.1964  0.4882
    6SAPS   H6X  760   3.915   4.433   6.730 -0.0908  0.1743  0.3741
    6SAPS   H6Y  761   3.932   4.604   6.758  0.9242 -0.5663 -0.1905
    6SAPS   C37  762   3.796   4.559   6.606  0.2319 -0.0403 -0.8090
    6SAPS   H7X  763   3.743   4.656   6.621 -0.4281 -0.5083 -0.0351
    6SAPS   H7Y  764   3.714   4.488   6.584  0.3589 -0.5697  0.3636
    6SAPS   C38  765   3.897   4.564   6.489 -0.2774 -0.2344  0.7925
    6SAPS   H8X  766   3.915   4.459   6.459 -1.2871 -0.2415  0.1512
    6SAPS   H8Y  767   3.999   4.600   6.514 -0.2979  1.5753 -1.4471
    6SAPS   C39  768   3.855   4.648   6.362 -0.2016 -0.4939  0.0091
    6SAPS   H9X  769   3.859   4.755   6.391  0.0607 -0.6945  0.7305
    6SAPS   H9Y  770   3.750   4.622   6.337 -0.1830 -0.8309  0.2795
    6SAPS  C310  771   3.958   4.642   6.246 -0.1409 -0.4144 -0.1111
    6SAPS  H10X  772   3.958   4.538   6.209 -1.4232 -0.9319  1.2480
    6SAPS  H10Y  773   4.059   4.673   6.280 -0.5971  2.0307 -0.7813
    6SAPS  C311  774   3.931   4.754   6.145 -0.0704  0.0881  0.4523
    6SAPS  H11X  775   3.999   4.724   6.063  0.5766 -2.0754  1.6955
    6SAPS  H11Y  776   3.956   4.854   6.185  0.1125  0.1211  0.2576
    6SAPS  C312  777   3.784   4.743   6.096 -0.7758 -0.1090 -0.1615
    6SAPS  H12X  778   3.704   4.738   6.173 -0.1481 -1.4156  0.4445
    6SAPS  H12Y  779   3.779   4.640   6.055  0.2904 -0.5078  0.6455
    6SAPS  C313  780   3.749   4.841   5.990  0.1517  0.3679 -0.1590
    6SAPS  H13X  781   3.738   4.942   6.036  0.3811  0.9826 -1.3964
    6SAPS  H13Y  782   3.651   4.802   5.956  1.3576 -2.3614 -0.7802
    6SAPS  C314  783   3.853   4.856   5.878  0.2380 -0.2307 -0.1711
    6SAPS  H14X  784   3.889   4.757   5.842  0.5147  0.1652 -1.0282
    6SAPS  H14Y  785   3.937   4.919   5.915 -0.1491  0.0452  0.2346
    6SAPS  C315  786   3.796   4.927   5.767  0.7832  0.5285  0.3355
    6SAPS  H15X  787   3.776   5.033   5.793 -0.7531  0.2494  0.3956
    6SAPS  H15Y  788   3.707   4.873   5.728  0.0374 -0.1742  2.8167
    6SAPS  C316  789   3.896   4.929   5.652  0.0610  0.4118  0.5287
    6SAPS  H16X  790   3.933   4.826   5.632 -0.6535  0.2883 -0.2174
    6SAPS  H16Y  791   3.983   4.994   5.677  1.1733  1.1128 -4.1205
    6SAPS  C317  792   3.843   4.970   5.516  0.4354 -0.2185 -0.5104
    6SAPS  H17X  793   3.793   4.884   5.466  0.0481  0.4190 -1.2363
    6SAPS  H17Y  794   3.919   5.007   5.443 -2.2453  1.0986 -2.8318
    6SAPS  C318  795   3.737   5.088   5.508  0.2943 -0.4007 -0.0629
    6SAPS  H18X  796   3.708   5.109   5.403 -0.2620 -2.2027 -0.2959
    6SAPS  H18Y  797   3.776   5.176   5.564 -0.0864 -0.9359  1.0577
    6SAPS  H18Z  798   3.645   5.060   5.562  0.5556 -0.2665  0.4644
    7SAPS     N  799   6.089   4.246   8.030 -0.1761  0.6453 -0.6425
    7SAPS   HN1  800   5.998   4.281   8.066  0.2958  1.7963 -0.5218
    7SAPS   HN2  801   6.164   4.317   8.022 -0.5049  1.1543  0.5302
    7SAPS   HN3  802   6.072   4.203   7.937 -1.1668  1.2234 -0.7423
    7SAPS   C12  803   6.150   4.139   8.126  0.0566  0.1582  0.2507
    7SAPS  H12A  804   6.172   4.180   8.224  1.8911  3.5984 -1.4161
    7SAPS   C13  805   6.050   4.016   8.130  0.0493 -0.7116 -0.0888
    7SAPS  O13A  806   5.952   4.009   8.055  0.1885  0.2115  0.4871
    7SAPS  O13B  807   6.071   3.925   8.213 -0.3500 -0.5955  0.6965
    7SAPS   C11  808   6.275   4.097   8.058 -0.9473 -0.7862  0.3847
    7SAPS  H11A  809   6.257   4.078   7.950  3.0275 -1.8081 -0.2522
    7SAPS  H11B  810   6.314   4.010   8.115 -1.8853 -0.6990  1.1675
    7SAPS     P  811   6.525   4.190   8.051  0.1298  0.4767  0.2020
    7SAPS   O13  812   6.588   4.314   8.100 -0.2557 -0.2110 -0.3680
    7SAPS   O14  813   6.572   4.062   8.111  0.0728  0.2219  0.4446
    7SAPS   O12  814   6.372   4.203   8.070 -0.1478 -0.3667  0.0185
    7SAPS   O11  815   6.534   4.183   7.894  0.1797 -0.2522 -0.4544
    7SAPS    C1  816   6.524   4.297   7.810  0.0375 -0.0331 -0.5070
    7SAPS    HA  817   6.421   4.313   7.773  0.7018 -1.1648 -3.0793
    7SAPS    HB  818   6.550   4.392   7.863 -0.2408 -0.2699  0.0570
    7SAPS    C2  819   6.630   4.284   7.698 -0.1878  0.1661 -0.5689
    7SAPS    HS  820   6.622   4.367   7.626  0.2144  0.3684 -0.3833
    7SAPS   O21  821   6.619   4.157   7.629 -0.1033 -0.3890 -0.6361
    7SAPS   C21  822   6.515   4.150   7.544  0.5012  0.0646 -0.5412
    7SAPS   O22  823   6.450   4.248   7.508  0.3279 -0.2002 -0.4405
    7SAPS   C22  824   6.492   4.013   7.493  0.3423 -0.0605  0.6117
    7SAPS   H2R  825   6.586   3.980   7.445  0.5907  3.0412 -1.3299
    7SAPS   H2S  826   6.457   3.945   7.574 -0.0370  0.5371  0.9641
    7SAPS    C3  827   6.778   4.298   7.758  0.3820  0.7407  0.3368
    7SAPS    HX  828   6.791   4.219   7.834  3.0716  1.1702  0.4277
    7SAPS    HY  829   6.772   4.396   7.811 -1.5040  0.1974  1.1932
    7SAPS   O31  830   6.888   4.290   7.658  0.0111  0.7714 -0.0007
    7SAPS   C31  831   7.005   4.271   7.702  0.1558  0.2726 -0.1033
    7SAPS   O32  832   7.038   4.261   7.821 -0.4905 -0.3359 -0.3845
    7SAPS   C32  833   7.100   4.285   7.581 -0.2512  0.0841 -0.2416
    7SAPS   H2X  834   7.184   4.215   7.602 -0.5842 -0.7897 -1.7117
    7SAPS   H2Y  835   7.150   4.385   7.580  1.1679 -0.5624  1.4023
    7SAPS   C23  836   6.404   4.000   7.371  0.1816 -0.2764  0.4580
    7SAPS   H3R  837   6.451   4.054   7.286  1.3244 -1.0674  0.5681
    7SAPS   H3S  838   6.303   4.044   7.384 -0.9722 -2.8723  1.0239
    7SAPS   C24  839   6.387   3.851   7.323  0.1075  0.0142 -0.8208
    7SAPS   H4R  840   6.296   3.856   7.260 -1.1277  0.5601  0.9200
    7SAPS   H4S  841   6.358   3.803   7.419  0.7833  0.5358 -0.3397
    7SAPS   C25  842   6.501   3.792   7.248 -0.5874  0.5232  0.5079
    7SAPS   H5R  843   6.590   3.751   7.298  0.0941  0.6207 -0.5802
    7SAPS   C26  844   6.504   3.761   7.114  0.2214 -0.5702  0.1353
    7SAPS   H6R  845   6.587   3.703   7.070  0.2310  0.1658 -0.8491
    7SAPS   C27  846   6.393   3.796   7.020 -0.7102 -0.2087  0.1079
    7SAPS   H7R  847   6.299   3.778   7.077 -0.5851 -1.9917 -0.1755
    7SAPS   H7S  848   6.382   3.732   6.930  0.2254  2.4008 -1.9840
    7SAPS   C28  849   6.400   3.934   6.953  0.8194 -0.5159  0.3772
    7SAPS   H8R  850   6.310   3.990   6.981 -0.0186 -0.8775 -1.4737
    7SAPS   C29  851   6.479   3.979   6.852 -0.1001 -0.0061 -0.0314
    7SAPS   H9R  852   6.455   4.081   6.817  0.2242 -0.0366 -0.3427
    7SAPS  C210  853   6.605   3.921   6.789 -0.2696 -0.1759  0.2878
    7SAPS  H10R  854   6.583   3.820   6.748 -0.6953  0.6639 -1.6447
    7SAPS  H10S  855   6.690   3.916   6.861  0.5168 -3.0530 -0.7019
    7SAPS  C211  856   6.675   3.995   6.678 -0.5851 -0.0100  0.0355
    7SAPS  H11R  857   6.781   4.010   6.702 -0.8823  1.8321  0.3535
    7SAPS  C212  858   6.618   4.029   6.560 -0.5861  0.5927  0.6016
    7SAPS  H12R  859   6.678   4.084   6.486  2.2109 -2.1859  0.5828
    7SAPS  C213  860   6.476   4.004   6.517 -0.0676  0.5458 -0.6372
    7SAPS  H13R  861   6.405   4.057   6.585  0.3405 -0.7641  0.8843
    7SAPS  H13S  862   6.464   3.897   6.544  0.8238  1.0251  1.9908
    7SAPS  C214  863   6.437   4.023   6.371 -0.7372  0.0118 -0.8706
    7SAPS  H14R  864   6.396   3.938   6.314 -2.2879  0.8988 -1.1272
    7SAPS  C215  865   6.463   4.130   6.297  0.5288  0.7107 -0.7771
    7SAPS  H15R  866   6.429   4.125   6.192  0.0402  0.0578 -0.5994
    7SAPS  C216  867   6.519   4.265   6.353  0.1180  0.4288  0.5494
    7SAPS  H16R  868   6.527   4.259   6.464 -0.9875 -0.3553  0.5952
    7SAPS  H16S  869   6.448   4.349   6.337 -1.0537 -0.0894  2.7198
    7SAPS  C217  870   6.656   4.299   6.289  0.4080  0.1181  0.3911
    7SAPS  H17R  871   6.720   4.211   6.268  0.6490  0.6506 -1.1637
    7SAPS  H17S  872   6.712   4.363   6.361  1.6466  0.0319 -0.4624
    7SAPS  C218  873   6.641   4.380   6.154 -0.0901 -0.3399 -0.1031
    7SAPS  H18R  874   6.597   4.477   6.189 -0.8577 -1.2572  1.6145
    7SAPS  H18S  875   6.578   4.348   6.069 -0.6488  2.7636 -1.0104
    7SAPS  C219  876   6.783   4.414   6.093  0.5347  0.4554 -0.2518
    7SAPS  H19R  877   6.845   4.435   6.183  0.2552 -0.5421  0.1849
    7SAPS  H19S  878   6.778   4.506   6.030  2.4668  1.6756  1.2585
    7SAPS  C220  879   6.851   4.310   5.996 -0.6475 -0.2741 -0.1756
    7SAPS  H20R  880   6.864   4.209   6.042  1.1554 -0.6262 -1.3450
    7SAPS  H20S  881   6.954   4.338   5.967 -1.6907  3.3011 -0.8121
    7SAPS  H20T  882   6.779   4.290   5.915 -1.8016  3.1650 -0.1301
    7SAPS   C33  883   7.029   4.248   7.447  0.8603 -0.5007  0.4703
    7SAPS   H3X  884   6.956   4.324   7.412  1.6486  0.1077  0.1035
    7SAPS   H3Y  885   6.973   4.154   7.467  0.7947 -0.4572  0.4890
    7SAPS   C34  886   7.122   4.219   7.326  0.1465  0.5032 -0.3321
    7SAPS   H4X  887   7.184   4.130   7.350 -1.7871 -1.0198 -0.7827
    7SAPS   H4Y  888   7.182   4.306   7.290 -0.4055  0.5944 -1.0393
    7SAPS   C35  889   7.045   4.179   7.200 -0.5049 -0.1624 -0.6741
    7SAPS   H5X  890   6.975   4.263   7.182 -3.3380 -1.9201  1.2621
    7SAPS   H5Y  891   6.970   4.104   7.232 -0.3332 -0.5926 -1.2814
    7SAPS   C36  892   7.129   4.156   7.070  0.5617 -0.0779 -0.3614
    7SAPS   H6X  893   7.174   4.245   7.021 -0.7325  0.1376 -1.2168
    7SAPS   H6Y  894   7.058   4.126   6.989 -0.1108  1.7046 -0.4677
    7SAPS   C37  895   7.222   4.035   7.090  0.4484 -0.1522 -0.0329
    7SAPS   H7X  896   7.162   3.953   7.134  1.6174 -0.1859  1.5743
    7SAPS   H7Y  897   7.297   4.067   7.165 -0.6538  1.5793  0.3900
    7SAPS   C38  898   7.288   3.986   6.956  0.2753  0.6427  0.2461
    7SAPS   H8X  899   7.351   4.069   6.920  1.1242  0.4674  1.2873
    7SAPS   H8Y  900   7.218   3.958   6.874  0.5767  1.5545 -0.3354
    7SAPS   C39  901   7.380   3.864   6.985  0.0719  0.1672  0.0885
    7SAPS   H9X  902   7.319   3.778   7.021  3.4281 -1.9530  1.2176
    7SAPS   H9Y  903   7.449   3.873   7.071  0.4458  0.2102 -0.2166
    7SAPS  C310  904   7.465   3.819   6.861  0.4152 -0.8360 -0.1144
    7SAPS  H10X  905   7.524   3.733   6.900  2.1207 -1.0598 -2.9645
    7SAPS  H10Y  906   7.539   3.898   6.838 -2.3174  1.9778  0.1076
    7SAPS  C311  907   7.384   3.788   6.731 -0.3212  0.3636  0.2677
    7SAPS  H11X  908   7.347   3.883   6.687 -0.1962  0.9889  1.4944
    7SAPS  H11Y  909   7.298   3.719   6.744 -1.5439  1.5326 -1.2628
    7SAPS  C312  910   7.485   3.714   6.636 -0.2917 -0.1902  0.6221
    7SAPS  H12X  911   7.538   3.631   6.687  0.3803 -0.9474 -1.2407
    7SAPS  H12Y  912   7.565   3.785   6.607  0.2284 -1.1993 -0.4893
    7SAPS  C313  913   7.405   3.665   6.514 -0.5219 -0.0358  0.3097
    7SAPS  H13X  914   7.327   3.740   6.488 -1.8373 -1.2569  0.6085
    7SAPS  H13Y  915   7.343   3.578   6.546 -2.4349  1.5736  1.1885
    7SAPS  C314  916   7.490   3.630   6.388 -0.2606 -0.4085  0.2672
    7SAPS  H14X  917   7.573   3.564   6.423 -0.4636 -0.3082  0.9686
    7SAPS  H14Y  918   7.526   3.732   6.364 -1.2938 -0.7838 -3.5022
    7SAPS  C315  919   7.408   3.575   6.280 -0.5503  0.8553  0.4803
    7SAPS  H15X  920   7.435   3.636   6.191  1.5923 -1.0994 -0.2997
    7SAPS  H15Y  921   7.301   3.597   6.298 -0.2324  1.0725  2.2221
    7SAPS  C316  922   7.419   3.423   6.234 -0.8997 -0.6096  0.7769
    7SAPS  H16X  923   7.361   3.409   6.141 -0.2464  0.4667  0.1896
    7SAPS  H16Y  924   7.375   3.349   6.305 -1.3361 -1.8627 -0.7472
    7SAPS  C317  925   7.567   3.405   6.205  0.4052  0.1454 -0.4545
    7SAPS  H17X  926   7.615   3.423   6.303  1.4727  1.3151 -1.1633
    7SAPS  H17Y  927   7.594   3.477   6.125  2.9374 -2.1948 -1.8501
    7SAPS  C318  928   7.610   3.267   6.146 -1.2285  0.4102  0.7620
    7SAPS  H18X  929   7.719   3.253   6.167 -1.0306 -1.7759 -1.3268
    7SAPS  H18Y  930   7.595   3.271   6.036 -0.9421 -0.7078  0.6741
    7SAPS  H18Z  931   7.552   3.179   6.180  0.4178 -1.2705 -0.5333
    8SAPS     N  932   3.350   6.817   8.578 -0.0481  0.1548 -0.1717
    8SAPS   HN1  933   3.262   6.795   8.527 -0.9965  2.0570  0.5364
    8SAPS   HN2  934   3.432   6.756   8.560 -0.2859 -0.8550  1.8592
    8SAPS   HN3  935   3.331   6.785   8.675 -1.3367 -0.8649 -0.7226
    8SAPS   C12  936   3.389   6.962   8.570 -0.1097 -0.1890  0.2826
    8SAPS  H12A  937   3.412   6.989   8.469  2.1635 -0.0203  0.7976
    8SAPS   C13  938   3.279   7.062   8.608 -0.2919  0.5338 -0.0550
    8SAPS  O13A  939   3.160   7.022   8.617  0.0010 -0.1806  0.5476
    8SAPS  O13B  940   3.313   7.181   8.636 -0.2236  0.4258 -0.1235
    8SAPS   C11  941   3.518   6.973   8.656 -0.7441  0.0496  0.0096
    8SAPS  H11A  942   3.501   6.921   8.753 -0.2557  1.0397  0.6318
    8SAPS  H11B  943   3.537   7.081   8.669 -1.2509  0.0364  0.9688
    8SAPS     P  944   3.743   6.856   8.668 -0.1543  0.1802  0.3157
    8SAPS   O13  945   3.776   6.952   8.778  0.1102 -0.1227 -0.2670
    8SAPS   O14  946   3.701   6.720   8.717 -0.1076  0.1099  0.1741
    8SAPS   O12  947   3.626   6.915   8.583 -0.1846  0.1637 -0.0451
    8SAPS   O11  948   3.869   6.845   8.569 -0.5820  0.1307 -0.3328
    8SAPS    C1  949   3.875   6.926   8.449  0.2342 -0.3206  0.5422
    8SAPS    HA  950   3.843   7.030   8.475  1.1462 -0.4380  2.2964
    8SAPS    HB  951   3.983   6.928   8.423  0.8014 -1.8552  2.4971
    8SAPS    C2  952   3.788   6.885   8.329 -0.2319  0.3294  0.1344
    8SAPS    HS  953   3.682   6.905   8.356 -0.9322  0.2679 -2.3014
    8SAPS   O21  954   3.804   6.747   8.299 -0.2102  0.0894  0.0753
    8SAPS   C21  955   3.691   6.683   8.262 -0.5835  0.1008  0.4528
    8SAPS   O22  956   3.577   6.719   8.298 -0.4600 -0.6052  0.5140
    8SAPS   C22  957   3.738   6.566   8.186 -0.4262  0.1095 -0.0623
    8SAPS   H2R  958   3.804   6.608   8.107 -0.1558  2.4595  1.3388
    8SAPS   H2S  959   3.804   6.497   8.242 -0.4948 -0.9509 -1.2404
    8SAPS    C3  960   3.816   6.968   8.198  0.0549 -1.1318  0.6477
    8SAPS    HX  961   3.924   6.951   8.178 -0.0467  0.8414 -2.1513
    8SAPS    HY  962   3.785   7.072   8.221  1.2634 -0.9112  1.3504
    8SAPS   O31  963   3.746   6.913   8.084 -0.7373 -0.6422  0.0711
    8SAPS   C31  964   3.770   6.988   7.973 -0.6348 -0.2620 -0.1402
    8SAPS   O32  965   3.848   7.081   7.970  0.6065 -0.2111  0.4505
    8SAPS   C32  966   3.690   6.924   7.855 -0.2057  0.1078 -0.2106
    8SAPS   H2X  967   3.583   6.952   7.869  0.1886  1.4985  0.1942
    8SAPS   H2Y  968   3.702   6.814   7.868 -1.0137  0.0363 -0.0323
    8SAPS   C23  969   3.624   6.484   8.122 -0.3711  0.0467  0.3101
    8SAPS   H3R  970   3.536   6.478   8.189  1.4713 -0.0581  2.8419
    8SAPS   H3S  971   3.666   6.383   8.106 -0.3429  0.4169 -2.4584
    8SAPS   C24  972   3.582   6.541   7.986  0.4582  0.0894  0.0681
    8SAPS   H4R  973   3.672   6.547   7.922  0.5504 -0.5106  0.1320
    8SAPS   H4S  974   3.538   6.642   8.001 -0.0147 -0.1929  0.6342
    8SAPS   C25  975   3.467   6.463   7.929  0.8382 -0.0657  0.5220
    8SAPS   H5R  976   3.408   6.408   8.004 -1.1758 -0.3315 -1.1493
    8SAPS   C26  977   3.447   6.452   7.799  0.1248  0.6530 -0.3667
    8SAPS   H6R  978   3.369   6.385   7.759 -0.2374  1.5266 -1.1620
    8SAPS   C27  979   3.523   6.528   7.692 -0.3798  0.0483 -0.6094
    8SAPS   H7R  980   3.590   6.469   7.628  2.2378  1.1376  0.9754
    8SAPS   H7S  981   3.595   6.600   7.737  2.1689 -2.5514 -0.2782
    8SAPS   C28  982   3.415   6.604   7.613  0.1241  0.0667 -0.1854
    8SAPS   H8R  983   3.337   6.658   7.669 -0.2211 -2.1355  1.5913
    8SAPS   C29  984   3.418   6.616   7.475 -0.0090  0.0003  0.3821
    8SAPS   H9R  985   3.347   6.683   7.424  0.4484 -0.6990 -1.2412
    8SAPS  C210  986   3.516   6.549   7.382  0.8010 -0.2232  0.1314
    8SAPS  H10R  987   3.616   6.563   7.428  0.9651 -0.5500 -0.1203
    8SAPS  H10S  988   3.509   6.603   7.286 -2.0021 -0.6335  0.0098
    8SAPS  C211  989   3.487   6.402   7.368  0.2748  0.0161 -0.8235
    8SAPS  H11R  990   3.500   6.335   7.454 -3.6750 -0.6253 -0.5606
    8SAPS  C212  991   3.447   6.336   7.258  0.0049  0.4382 -0.3505
    8SAPS  H12R  992   3.440   6.226   7.252  2.0878  0.0938  2.0205
    8SAPS  C213  993   3.401   6.405   7.132  0.6001 -0.2028 -0.6557
    8SAPS  H13R  994   3.475   6.419   7.051  0.5057 -1.3057 -0.9477
    8SAPS  H13S  995   3.364   6.507   7.156 -1.1063 -1.6541  4.0154
    8SAPS  C214  996   3.281   6.324   7.076  0.1480 -0.7898 -0.1834
    8SAPS  H14R  997   3.258   6.230   7.127 -1.4533  0.8067  2.2792
    8SAPS  C215  998   3.195   6.372   6.985  0.1038 -0.1348 -0.4276
    8SAPS  H15R  999   3.126   6.291   6.957 -3.3012  2.1267  0.7615
    8SAPS  C216 1000   3.178   6.500   6.912 -1.1519  0.3591 -0.1388
    8SAPS  H16R 1001   3.259   6.575   6.927 -1.6490  0.8760 -0.0170
    8SAPS  H16S 1002   3.083   6.555   6.928 -1.0455  0.1713  1.1940
    8SAPS  C217 1003   3.186   6.470   6.756 -0.2563 -0.1671 -0.0139
    8SAPS  H17R 1004   3.105   6.395   6.740  0.2004 -0.4382 -1.1155
    8SAPS  H17S 1005   3.288   6.433   6.734  1.7786  2.6161  3.5498
    8SAPS  C218 1006   3.158   6.589   6.669 -0.5233  1.3314  0.1152
    8SAPS  H18R 1007   3.214   6.680   6.698  0.7777  0.3457  0.8231
    8SAPS  H18S 1008   3.049   6.608   6.673 -0.4781  1.3567  1.5153
    8SAPS  C219 1009   3.194   6.551   6.515 -0.2280  0.3715 -1.1485
    8SAPS  H19R 1010   3.160   6.446   6.507 -0.7357  0.4644 -0.2532
    8SAPS  H19S 1011   3.303   6.565   6.494 -0.3983  1.0601 -1.6267
    8SAPS  C220 1012   3.138   6.653   6.417  0.9539 -0.5906 -0.1022
    8SAPS  H20R 1013   3.180   6.636   6.315  0.4365 -0.3840 -0.3514
    8SAPS  H20S 1014   3.165   6.755   6.452 -1.2185 -0.0836  0.2098
    8SAPS  H20T 1015   3.028   6.643   6.406  1.0212 -2.2582  0.3833
    8SAPS   C33 1016   3.740   6.953   7.710  0.3623  0.0725 -0.1044
    8SAPS   H3X 1017   3.848   6.931   7.697  1.1486  2.5373  1.6494
    8SAPS   H3Y 1018   3.735   7.064   7.709  1.7030  0.2603  2.6990
    8SAPS   C34 1019   3.645   6.909   7.592  0.3227  0.2671 -0.3444
    8SAPS   H4X 1020   3.546   6.957   7.605 -0.2525 -1.2575  1.2691
    8SAPS   H4Y 1021   3.629   6.800   7.604 -1.0922  0.3238 -1.4535
    8SAPS   C35 1022   3.704   6.932   7.461 -0.2633  0.0820 -0.1409
    8SAPS   H5X 1023   3.771   6.846   7.441  0.2132  0.2793  0.5997
    8SAPS   H5Y 1024   3.759   7.027   7.450  1.9981 -1.1750 -0.2192
    8SAPS   C36 1025   3.605   6.928   7.340  0.4484 -0.8189  0.7683
    8SAPS   H6X 1026   3.527   7.007   7.343  1.6838  0.4536  0.4576
    8SAPS   H6Y 1027   3.539   6.838   7.352 -2.8892  1.7356  3.6931
    8SAPS   C37 1028   3.672   6.894   7.200 -1.0138  0.3255 -0.0579
    8SAPS   H7X 1029   3.715   6.793   7.216  1.4377  1.4791  1.0440
    8SAPS   H7Y 1030   3.753   6.969   7.191  0.3306 -1.0489  0.3240
    8SAPS   C38 1031   3.567   6.899   7.086  0.0339 -0.0345  0.9387
    8SAPS   H8X 1032   3.571   7.002   7.046 -1.2466  0.3147  1.6547
    8SAPS   H8Y 1033   3.463   6.868   7.108  0.3703 -4.2135 -2.0792
    8SAPS   C39 1034   3.612   6.800   6.979 -0.2206 -0.4070 -0.6986
    8SAPS   H9X 1035   3.640   6.704   7.027 -0.5150 -0.7097 -1.1287
    8SAPS   H9Y 1036   3.706   6.843   6.939  1.0586  0.5229  2.8641
    8SAPS  C310 1037   3.504   6.773   6.867 -0.3418 -0.1228 -0.5525
    8SAPS  H10X 1038   3.415   6.726   6.913 -0.3825  2.0429  1.7888
    8SAPS  H10Y 1039   3.542   6.700   6.792  0.5791  0.6627 -0.8693
    8SAPS  C311 1040   3.459   6.893   6.787  0.0839  0.2826 -0.1310
    8SAPS  H11X 1041   3.405   6.960   6.858  0.9899 -0.3846  1.2432
    8SAPS  H11Y 1042   3.387   6.860   6.709 -1.3954  4.2501 -0.7313
    8SAPS  C312 1043   3.572   6.965   6.706 -0.3832  0.1675  0.0556
    8SAPS  H12X 1044   3.648   7.006   6.775 -1.7075  1.1693  0.9710
    8SAPS  H12Y 1045   3.519   7.054   6.664 -0.8764 -0.6239 -1.0539
    8SAPS  C313 1046   3.637   6.875   6.591 -0.6103 -0.6148 -0.5093
    8SAPS  H13X 1047   3.556   6.800   6.580 -0.9314 -0.5150  0.9522
    8SAPS  H13Y 1048   3.721   6.824   6.643  0.2591  1.9478  0.7594
    8SAPS  C314 1049   3.686   6.945   6.462  0.7253 -0.5162 -0.1897
    8SAPS  H14X 1050   3.766   7.018   6.487  0.4833  0.5329 -2.2297
    8SAPS  H14Y 1051   3.596   6.996   6.422  2.4750  1.9975 -1.1806
    8SAPS  C315 1052   3.749   6.848   6.364  0.7931  0.0785 -0.2538
    8SAPS  H15X 1053   3.673   6.777   6.326  0.7141  0.0289 -0.0029
    8SAPS  H15Y 1054   3.812   6.785   6.430 -0.0472 -0.6869 -0.1679
    8SAPS  C316 1055   3.847   6.899   6.266  0.8207 -0.3422  1.1860
    8SAPS  H16X 1056   3.887   6.827   6.192  1.7400  2.0840 -0.8488
    8SAPS  H16Y 1057   3.934   6.952   6.311 -1.3206  2.2334  2.6282
    8SAPS  C317 1058   3.778   7.009   6.173 -0.1987  0.6801 -0.1528
    8SAPS  H17X 1059   3.745   7.089   6.242  0.6977  0.8074  0.1399
    8SAPS  H17Y 1060   3.685   6.961   6.135  0.8293 -2.5586  1.1300
    8SAPS  C318 1061   3.863   7.074   6.063 -0.2551 -0.2997 -0.3108
    8SAPS  H18X 1062   3.892   7.001   5.984  2.0349 -0.4612  0.5930
    8SAPS  H18Y 1063   3.954   7.122   6.105  0.6482 -1.3557 -1.0122
    8SAPS  H18Z 1064   3.793   7.148   6.019  0.1478  0.0700 -0.3367
    9SAPS     N 1065   1.620   3.375   8.104  0.5481  0.3600 -0.3158
    9SAPS   HN1 1066   1.712   3.408   8.139 -0.2725  2.4252  0.0249
    9SAPS   HN2 1067   1.623   3.281   8.060  0.9089 -0.1150  0.6959
    9SAPS   HN3 1068   1.582   3.440   8.032 -1.7824  0.1772  0.6438
    9SAPS   C12 1069   1.514   3.369   8.207  0.3940 -0.1582 -0.6807
    9SAPS  H12A 1070   1.552   3.302   8.283 -0.7292 -0.3757 -0.2963
    9SAPS   C13 1071   1.488   3.509   8.276 -0.5443 -0.0711  0.1591
    9SAPS  O13A 1072   1.554   3.611   8.242 -0.0474  0.4855  1.2874
    9SAPS  O13B 1073   1.403   3.509   8.368 -0.5066 -0.6848  0.6456
    9SAPS   C11 1074   1.379   3.302   8.144 -0.6454 -0.4789 -0.1120
    9SAPS  H11A 1075   1.298   3.325   8.217  0.4008 -2.0559  1.6339
    9SAPS  H11B 1076   1.396   3.193   8.136  0.1771 -0.4493  0.9681
    9SAPS     P 1077   1.216   3.343   7.946 -0.3738 -0.2278  0.0763
    9SAPS   O13 1078   1.213   3.230   7.851  0.0496 -0.3979 -0.1767
    9SAPS   O14 1079   1.111   3.346   8.048  0.7847 -0.0521 -0.0753
    9SAPS   O12 1080   1.357   3.364   8.017 -0.1555  0.0981  0.0447
    9SAPS   O11 1081   1.192   3.476   7.865  0.2411  0.4533  0.4392
    9SAPS    C1 1082   1.289   3.573   7.865 -0.6529 -0.2185 -0.1307
    9SAPS    HA 1083   1.235   3.667   7.841 -1.1769 -1.0646 -2.4985
    9SAPS    HB 1084   1.336   3.584   7.965  1.1455 -1.7865 -0.7515
    9SAPS    C2 1085   1.374   3.564   7.741  0.1466  0.5699 -0.5245
    9SAPS    HS 1086   1.420   3.463   7.747 -0.2765  0.3789 -0.4827
    9SAPS   O21 1087   1.474   3.662   7.735 -0.2604 -0.1036  0.2185
    9SAPS   C21 1088   1.568   3.648   7.826  0.5038 -0.3227 -0.2596
    9SAPS   O22 1089   1.579   3.549   7.905  0.0499 -0.2508  0.3670
    9SAPS   C22 1090   1.664   3.762   7.807  0.2100 -0.5761 -0.0725
    9SAPS   H2R 1091   1.662   3.789   7.699 -1.2993  1.9719  0.5203
    9SAPS   H2S 1092   1.627   3.852   7.860 -0.1530 -0.3301 -0.7287
    9SAPS    C3 1093   1.291   3.576   7.619  0.1873  1.3799 -0.3896
    9SAPS    HX 1094   1.253   3.679   7.607 -3.3675  0.4184  1.2859
    9SAPS    HY 1095   1.199   3.514   7.629 -0.3601  1.1894 -4.7221
    9SAPS   O31 1096   1.369   3.539   7.501 -0.3341  0.2380 -0.1546
    9SAPS   C31 1097   1.296   3.506   7.397 -0.0024  0.0494  0.3410
    9SAPS   O32 1098   1.176   3.514   7.391 -0.2117 -0.2041  0.1526
    9SAPS   C32 1099   1.382   3.478   7.281  0.3708  0.2562  0.8442
    9SAPS   H2X 1100   1.426   3.378   7.303  0.4347 -1.2296 -4.6850
    9SAPS   H2Y 1101   1.461   3.556   7.267  1.2889 -1.0148 -1.7257
    9SAPS   C23 1102   1.810   3.737   7.852 -0.0221 -0.2570 -0.4189
    9SAPS   H3R 1103   1.806   3.733   7.963 -1.4495  0.8184 -0.3979
    9SAPS   H3S 1104   1.872   3.826   7.823  0.8831 -0.8433 -0.3258
    9SAPS   C24 1105   1.866   3.610   7.782 -0.3911 -0.3250 -0.3161
    9SAPS   H4R 1106   1.784   3.537   7.769 -1.7974  0.4450  3.1581
    9SAPS   H4S 1107   1.940   3.569   7.855 -0.2463 -0.4079 -0.5071
    9SAPS   C25 1108   1.936   3.647   7.649 -0.2372 -0.2598  0.7982
    9SAPS   H5R 1109   2.030   3.704   7.657 -0.0349 -0.0324 -2.0701
    9SAPS   C26 1110   1.890   3.630   7.521  0.0333 -0.2952 -0.7939
    9SAPS   H6R 1111   1.939   3.681   7.438 -0.1974 -0.9220 -1.3223
    9SAPS   C27 1112   1.767   3.545   7.483 -0.9212  0.0780 -0.5691
    9SAPS   H7R 1113   1.696   3.534   7.567 -3.6974 -1.4376 -2.9633
    9SAPS   H7S 1114   1.794   3.441   7.455 -0.1383  0.2653 -0.5517
    9SAPS   C28 1115   1.682   3.608   7.380 -0.3747  0.4049 -0.5571
    9SAPS   H8R 1116   1.587   3.657   7.408  0.4140  0.8610  1.4436
    9SAPS   C29 1117   1.718   3.633   7.254 -0.2318  0.6887  0.2435
    9SAPS   H9R 1118   1.642   3.665   7.181 -1.9896 -1.6064  0.9726
    9SAPS  C210 1119   1.853   3.590   7.189  0.4949 -0.7577 -0.6735
    9SAPS  H10R 1120   1.821   3.537   7.096 -0.1618 -4.9650  1.7220
    9SAPS  H10S 1121   1.908   3.516   7.250  3.3589 -0.4048 -2.6147
    9SAPS  C211 1122   1.936   3.719   7.160 -0.2239  1.5627 -0.8729
    9SAPS  H11R 1123   1.981   3.771   7.246 -0.7470  1.5339 -0.5764
    9SAPS  C212 1124   1.969   3.779   7.042  1.0467 -0.4602  0.4935
    9SAPS  H12R 1125   2.024   3.873   7.028 -0.4347  0.3278 -0.2788
    9SAPS  C213 1126   1.915   3.739   6.909 -0.1665 -0.1238  0.0711
    9SAPS  H13R 1127   1.908   3.828   6.843 -0.0838 -0.0331  0.1842
    9SAPS  H13S 1128   1.810   3.702   6.908 -0.0006 -0.5977 -0.3832
    9SAPS  C214 1129   1.997   3.627   6.845  0.6476 -0.1263  0.0458
    9SAPS  H14R 1130   2.061   3.571   6.915 -1.2941 -0.0018  2.0143
    9SAPS  C215 1131   1.985   3.583   6.724  0.2481  0.7700  0.6881
    9SAPS  H15R 1132   2.036   3.487   6.707 -0.0158  0.1576  3.0392
    9SAPS  C216 1133   1.886   3.626   6.612  0.5704 -0.2359 -0.3726
    9SAPS  H16R 1134   1.855   3.728   6.640  0.6208 -0.3453  0.0814
    9SAPS  H16S 1135   1.808   3.547   6.604  2.4989 -2.2306 -0.5150
    9SAPS  C217 1136   1.956   3.636   6.471 -0.3947 -0.3957 -0.3887
    9SAPS  H17R 1137   2.014   3.730   6.479  0.0821 -0.7538  0.5531
    9SAPS  H17S 1138   1.881   3.653   6.390  0.2834  2.4730 -0.5180
    9SAPS  C218 1139   2.049   3.518   6.430  0.0515  0.1171  0.4109
    9SAPS  H18R 1140   1.980   3.431   6.431 -1.0797  0.9954  0.6557
    9SAPS  H18S 1141   2.126   3.501   6.508  2.0651  1.5457 -1.1651
    9SAPS  C219 1142   2.115   3.536   6.296  0.2851 -0.5170  0.5765
    9SAPS  H19R 1143   2.159   3.439   6.268  1.0455  0.5958 -2.5082
    9SAPS  H19S 1144   2.200   3.607   6.303 -1.3002  1.3134  3.1110
    9SAPS  C220 1145   2.026   3.583   6.174 -0.3782  0.1759  0.3928
    9SAPS  H20R 1146   2.084   3.586   6.079  0.0950 -1.5299  0.5976
    9SAPS  H20S 1147   1.987   3.686   6.187 -0.2360  0.0743  1.7203
    9SAPS  H20T 1148   1.949   3.503   6.167  0.9694 -1.4981  3.1312
    9SAPS   C33 1149   1.298   3.454   7.148  0.1843  0.2327 -0.0892
    9SAPS   H3X 1150   1.248   3.550   7.127 -1.7352 -0.4658  0.9961
    9SAPS   H3Y 1151   1.220   3.376   7.159 -0.6361  1.0271 -0.1959
    9SAPS   C34 1152   1.393   3.416   7.036 -0.4946  0.2263 -0.0041
    9SAPS   H4X 1153   1.438   3.319   7.068 -2.7208 -0.7601  0.3295
    9SAPS   H4Y 1154   1.471   3.494   7.029 -0.9006  0.4855 -2.5261
    9SAPS   C35 1155   1.317   3.389   6.904 -0.3397 -0.1004 -0.0372
    9SAPS   H5X 1156   1.264   3.479   6.866 -1.2091 -0.8169 -0.5659
    9SAPS   H5Y 1157   1.235   3.318   6.927  1.2777 -1.7679  0.8752
    9SAPS   C36 1158   1.413   3.322   6.802  0.6437  0.3723  0.0090
    9SAPS   H6X 1159   1.431   3.218   6.836  0.1514  0.5390  0.8070
    9SAPS   H6Y 1160   1.513   3.371   6.805  0.4086  0.8430  0.4436
    9SAPS   C37 1161   1.353   3.327   6.662 -0.4394  0.4692 -0.2970
    9SAPS   H7X 1162   1.325   3.431   6.636 -1.2748 -0.0754 -1.6782
    9SAPS   H7Y 1163   1.264   3.260   6.658  0.4237 -0.9428  1.9258
    9SAPS   C38 1164   1.444   3.283   6.549  0.0219  0.4355 -0.0575
    9SAPS   H8X 1165   1.510   3.201   6.585 -1.7467 -1.1279 -0.1948
    9SAPS   H8Y 1166   1.513   3.366   6.522 -1.7416  2.1240  0.4518
    9SAPS   C39 1167   1.378   3.234   6.425 -0.5356  0.4750  0.0836
    9SAPS   H9X 1168   1.309   3.313   6.389 -0.8148 -0.6311 -1.8924
    9SAPS   H9Y 1169   1.317   3.145   6.452 -1.8745  1.4642  0.4569
    9SAPS  C310 1170   1.478   3.185   6.319  0.0416 -0.0810 -0.5212
    9SAPS  H10X 1171   1.531   3.096   6.360  0.1775  0.1808 -0.1361
    9SAPS  H10Y 1172   1.555   3.262   6.300 -1.4224  1.5576 -0.0963
    9SAPS  C311 1173   1.408   3.143   6.189  0.0866 -0.2035  0.3304
    9SAPS  H11X 1174   1.371   3.237   6.144  2.0451 -0.0465 -1.0372
    9SAPS  H11Y 1175   1.322   3.076   6.211 -0.2786  0.3487  0.6152
    9SAPS  C312 1176   1.509   3.083   6.086  0.2103  0.2170 -0.3412
    9SAPS  H12X 1177   1.454   3.019   6.014 -1.2873 -0.2599  1.1486
    9SAPS  H12Y 1178   1.568   3.013   6.149  2.2236 -1.1818 -3.5655
    9SAPS  C313 1179   1.608   3.180   6.018  0.4532 -0.1484 -0.8549
    9SAPS  H13X 1180   1.679   3.219   6.094 -0.0631 -0.9109  0.0406
    9SAPS  H13Y 1181   1.561   3.274   5.981  2.1723  0.6315 -1.1376
    9SAPS  C314 1182   1.662   3.107   5.895  0.0016 -0.8440 -0.0937
    9SAPS  H14X 1183   1.583   3.083   5.821  0.6246 -0.7233 -0.8107
    9SAPS  H14Y 1184   1.708   3.013   5.931 -1.5840 -1.9380 -0.8166
    9SAPS  C315 1185   1.756   3.191   5.803 -0.4525 -0.1565  0.7794
    9SAPS  H15X 1186   1.822   3.123   5.744  2.4805  1.1860  2.2720
    9SAPS  H15Y 1187   1.822   3.260   5.859  0.4696  0.8345 -1.4049
    9SAPS  C316 1188   1.684   3.267   5.690 -0.2875 -0.9482  0.0159
    9SAPS  H16X 1189   1.626   3.202   5.621 -0.2007 -1.7965  0.7188
    9SAPS  H16Y 1190   1.771   3.309   5.635  0.3443  0.6137  2.0774
    9SAPS  C317 1191   1.596   3.381   5.739  0.5672 -0.6521 -0.0215
    9SAPS  H17X 1192   1.657   3.452   5.798 -0.0870 -0.0699 -0.0313
    9SAPS  H17Y 1193   1.504   3.350   5.793 -1.7420  1.0542 -2.6775
    9SAPS  C318 1194   1.550   3.470   5.619 -0.5644 -0.9937  0.1723
    9SAPS  H18X 1195   1.629   3.547   5.606 -0.5305 -0.7698  1.5259
    9SAPS  H18Y 1196   1.461   3.523   5.657  0.6334  1.4339 -0.2298
    9SAPS  H18Z 1197   1.539   3.403   5.531 -0.4906 -1.8056  0.7671
   10SAPS     N 1198   2.541   5.756   8.126  0.5869  0.3170  0.6006
   10SAPS   HN1 1199   2.451   5.801   8.100  0.0376 -0.6691  0.7509
   10SAPS   HN2 1200   2.610   5.789   8.056  0.3974 -0.0772  0.2266
   10SAPS   HN3 1201   2.531   5.654   8.110  0.1930  0.8155 -3.4182
   10SAPS   C12 1202   2.569   5.790   8.261 -0.6231 -0.1740 -0.2019
   10SAPS  H12A 1203   2.485   5.749   8.314 -0.8817 -0.3297 -0.7288
   10SAPS   C13 1204   2.694   5.718   8.320  0.0940  0.4594 -0.1447
   10SAPS  O13A 1205   2.758   5.637   8.242 -0.3289 -0.6107  0.0255
   10SAPS  O13B 1206   2.721   5.745   8.440  0.2867 -0.2706  0.1960
   10SAPS   C11 1207   2.587   5.946   8.289 -0.8006  1.2828  0.5146
   10SAPS  H11A 1208   2.691   5.983   8.274  1.3214 -3.8867  0.3919
   10SAPS  H11B 1209   2.568   5.954   8.398 -0.1691  1.2629  0.6330
   10SAPS     P 1210   2.456   6.167   8.257 -0.2937  0.0490 -0.0613
   10SAPS   O13 1211   2.313   6.176   8.286  0.3162 -0.1669  0.7052
   10SAPS   O14 1212   2.539   6.225   8.362 -0.5198  0.1869  0.3626
   10SAPS   O12 1213   2.486   6.013   8.213  0.1546  0.1194 -0.4580
   10SAPS   O11 1214   2.485   6.245   8.128  0.1955  0.4682 -0.0686
   10SAPS    C1 1215   2.468   6.181   7.998  0.4411 -0.6462 -0.3955
   10SAPS    HA 1216   2.503   6.249   7.917  1.9841  2.0074  2.3290
   10SAPS    HB 1217   2.532   6.091   7.991  0.3969 -0.8998  1.8417
   10SAPS    C2 1218   2.323   6.135   7.964  0.2126  1.2033 -0.0031
   10SAPS    HS 1219   2.291   6.066   8.045 -1.1477  0.2945 -1.2638
   10SAPS   O21 1220   2.335   6.073   7.833 -0.0489 -0.2994 -0.8960
   10SAPS   C21 1221   2.371   5.943   7.843  0.4112 -0.9862 -0.3627
   10SAPS   O22 1222   2.381   5.880   7.944 -0.6877  0.0698  0.0619
   10SAPS   C22 1223   2.396   5.896   7.703  0.8942 -0.3144  0.4500
   10SAPS   H2R 1224   2.465   5.810   7.718  3.8553  1.8852  0.5437
   10SAPS   H2S 1225   2.302   5.855   7.661 -0.0844  1.7954  0.4196
   10SAPS    C3 1226   2.221   6.246   7.956  0.2674 -0.2678 -0.0182
   10SAPS    HX 1227   2.210   6.295   8.055 -0.4094 -0.4173 -0.0109
   10SAPS    HY 1228   2.121   6.207   7.925  0.1331 -0.4030  0.5826
   10SAPS   O31 1229   2.266   6.350   7.859  0.2638  0.5508 -0.7839
   10SAPS   C31 1230   2.237   6.320   7.737 -0.2490 -0.3129  0.3681
   10SAPS   O32 1231   2.156   6.241   7.689 -0.5214  0.3843  0.1839
   10SAPS   C32 1232   2.318   6.415   7.645 -0.1486 -0.4602  0.0844
   10SAPS   H2X 1233   2.388   6.464   7.716  0.4531 -1.6835  0.3512
   10SAPS   H2Y 1234   2.247   6.490   7.603 -0.1619 -1.0073 -0.8822
   10SAPS   C23 1235   2.463   6.007   7.615 -0.5899 -0.0638 -0.0666
   10SAPS   H3R 1236   2.546   6.057   7.670  1.1688  0.1776 -2.7548
   10SAPS   H3S 1237   2.387   6.082   7.584  0.7355  1.6075  0.5954
   10SAPS   C24 1238   2.514   5.950   7.482 -0.4471 -0.6237  0.7215
   10SAPS   H4R 1239   2.423   5.918   7.426 -2.2002  1.5303  2.1541
   10SAPS   H4S 1240   2.581   5.862   7.487  2.1204  0.7558 -3.5863
   10SAPS   C25 1241   2.584   6.057   7.401 -0.0909 -0.0622  0.5221
   10SAPS   H5R 1242   2.655   6.118   7.458 -1.3967 -0.4528  2.6928
   10SAPS   C26 1243   2.555   6.090   7.271  0.0483 -0.0175 -0.0689
   10SAPS   H6R 1244   2.608   6.171   7.218 -1.1012  0.1748 -0.9460
   10SAPS   C27 1245   2.453   6.020   7.188 -0.0439  0.7951  0.4354
   10SAPS   H7R 1246   2.350   6.061   7.183  0.0420  0.8877 -1.9869
   10SAPS   H7S 1247   2.429   5.920   7.231 -1.5831  0.3471 -1.3257
   10SAPS   C28 1248   2.503   6.005   7.044 -0.3742 -0.3258  0.3133
   10SAPS   H8R 1249   2.598   5.950   7.037  0.5469  1.2789 -0.4408
   10SAPS   C29 1250   2.446   6.058   6.936 -0.7938 -0.2742  0.4566
   10SAPS   H9R 1251   2.494   6.046   6.838  1.3550 -2.4952  1.6683
   10SAPS  C210 1252   2.330   6.145   6.930  0.1790 -0.6639  0.8828
   10SAPS  H10R 1253   2.262   6.141   7.017 -0.2018  0.1618  0.6338
   10SAPS  H10S 1254   2.258   6.113   6.852  1.6205 -1.5795 -0.1257
   10SAPS  C211 1255   2.376   6.276   6.885  0.4726 -0.1035  0.5740
   10SAPS  H11R 1256   2.402   6.348   6.964  0.5150  2.1857 -1.4092
   10SAPS  C212 1257   2.393   6.313   6.752 -0.7248 -1.0153 -0.0186
   10SAPS  H12R 1258   2.436   6.413   6.735 -1.8402 -0.8566 -2.1521
   10SAPS  C213 1259   2.380   6.227   6.631  0.3543  0.2960  1.0510
   10SAPS  H13R 1260   2.366   6.120   6.657  1.5538 -0.0648  0.3231
   10SAPS  H13S 1261   2.479   6.224   6.581 -0.0191 -1.7992  0.3673
   10SAPS  C214 1262   2.271   6.277   6.545  0.3868  0.0914 -0.4277
   10SAPS  H14R 1263   2.188   6.316   6.605  1.8164  2.2018  0.2525
   10SAPS  C215 1264   2.263   6.281   6.407  0.7620  0.3507 -0.2560
   10SAPS  H15R 1265   2.177   6.335   6.364  0.4843 -0.1790 -0.3748
   10SAPS  C216 1266   2.375   6.247   6.312 -0.9253  0.8640 -0.1161
   10SAPS  H16R 1267   2.335   6.161   6.254  0.7694  0.6307 -0.9908
   10SAPS  H16S 1268   2.466   6.203   6.358 -2.0389 -1.3077  0.1486
   10SAPS  C217 1269   2.416   6.340   6.196 -0.3525 -0.1857  0.2639
   10SAPS  H17R 1270   2.497   6.292   6.137  0.0219  0.5639  0.1640
   10SAPS  H17S 1271   2.468   6.432   6.230 -2.1044  0.8562  0.2382
   10SAPS  C218 1272   2.297   6.388   6.115 -0.0942 -0.5989 -0.0193
   10SAPS  H18R 1273   2.240   6.451   6.186  0.4182 -1.6952  1.4002
   10SAPS  H18S 1274   2.231   6.301   6.096 -0.6544 -0.4805  1.2812
   10SAPS  C219 1275   2.333   6.472   5.993 -0.1200  0.3062 -0.7978
   10SAPS  H19R 1276   2.387   6.405   5.923  0.2694 -0.1613 -0.0590
   10SAPS  H19S 1277   2.403   6.550   6.028 -1.5098  1.7759 -1.1609
   10SAPS  C220 1278   2.209   6.532   5.922  0.6764  0.0122 -0.3138
   10SAPS  H20R 1279   2.152   6.589   5.998  0.7274  0.1625 -0.3888
   10SAPS  H20S 1280   2.155   6.446   5.875  0.6117 -0.5866  0.8238
   10SAPS  H20T 1281   2.238   6.600   5.839 -0.9101  1.0002 -0.0855
   10SAPS   C33 1282   2.388   6.335   7.534  0.0113  0.8085  0.5272
   10SAPS   H3X 1283   2.310   6.291   7.469  1.0851 -0.8860  0.3372
   10SAPS   H3Y 1284   2.461   6.262   7.576  0.8765  0.9487 -0.6852
   10SAPS   C34 1285   2.483   6.426   7.445  0.2218 -0.1096  1.0371
   10SAPS   H4X 1286   2.555   6.360   7.393  0.5931 -0.0009  1.4029
   10SAPS   H4Y 1287   2.531   6.497   7.516 -0.5008  0.0429  1.3902
   10SAPS   C35 1288   2.407   6.515   7.340 -0.4790 -0.4915 -0.0806
   10SAPS   H5X 1289   2.359   6.606   7.382  2.1216  0.9249 -0.0075
   10SAPS   H5Y 1290   2.330   6.447   7.299 -1.7603  0.1708  1.1345
   10SAPS   C36 1291   2.492   6.557   7.222  0.1413  0.3269 -0.4022
   10SAPS   H6X 1292   2.546   6.481   7.160  1.0992 -0.8131  1.7400
   10SAPS   H6Y 1293   2.563   6.633   7.262 -0.8987  0.8567  0.4652
   10SAPS   C37 1294   2.400   6.638   7.123  0.6274 -0.1174  0.3212
   10SAPS   H7X 1295   2.322   6.684   7.188  1.3428  0.0945  1.0401
   10SAPS   H7Y 1296   2.351   6.562   7.058  0.3044 -1.1843  1.7783
   10SAPS   C38 1297   2.468   6.738   7.038  0.3247 -0.9178  0.3019
   10SAPS   H8X 1298   2.577   6.738   7.059  0.1144  0.9243  1.6923
   10SAPS   H8Y 1299   2.435   6.840   7.069  0.7781 -0.0779 -1.7427
   10SAPS   C39 1300   2.435   6.729   6.886 -0.1518 -0.0898  0.3070
   10SAPS   H9X 1301   2.326   6.722   6.864  0.0972 -1.5391 -0.5528
   10SAPS   H9Y 1302   2.483   6.642   6.837 -0.5195 -1.1182  1.6935
   10SAPS  C310 1303   2.507   6.841   6.814  0.1422 -0.9016  0.1478
   10SAPS  H10X 1304   2.616   6.820   6.813  0.3424  0.1040  0.1058
   10SAPS  H10Y 1305   2.478   6.933   6.870 -1.0005 -0.4594 -1.1232
   10SAPS  C311 1306   2.464   6.862   6.670  0.0390 -0.5183  0.1733
   10SAPS  H11X 1307   2.525   6.948   6.636  0.2591 -0.2909  1.1056
   10SAPS  H11Y 1308   2.361   6.903   6.678  0.5962  1.0312 -0.2193
   10SAPS  C312 1309   2.471   6.747   6.577  0.1467  0.5784  0.2672
   10SAPS  H12X 1310   2.408   6.663   6.613 -1.5606  0.2260 -3.1323
   10SAPS  H12Y 1311   2.572   6.700   6.573  0.9984  2.3577  0.0867
   10SAPS  C313 1312   2.417   6.779   6.439  0.4605  0.7127 -0.0210
   10SAPS  H13X 1313   2.311   6.810   6.447  0.4667  0.7452 -0.0662
   10SAPS  H13Y 1314   2.414   6.684   6.381 -1.1479  0.4257  0.4901
   10SAPS  C314 1315   2.497   6.883   6.363  0.0425  0.3883  0.0001
   10SAPS  H14X 1316   2.601   6.869   6.399 -0.6701  0.6707  2.2922
   10SAPS  H14Y 1317   2.465   6.975   6.415  2.1455 -0.5733  3.2983
   10SAPS  C315 1318   2.482   6.875   6.213  0.4023  0.1230 -0.1950
   10SAPS  H15X 1319   2.373   6.877   6.190 -0.4459 -0.2602  3.2182
   10SAPS  H15Y 1320   2.517   6.777   6.173 -0.9776  0.0909 -1.4129
   10SAPS  C316 1321   2.554   6.983   6.144 -0.2249 -0.2156  0.5900
   10SAPS  H16X 1322   2.659   6.982   6.180 -0.2909 -0.6796  0.7803
   10SAPS  H16Y 1323   2.507   7.078   6.177 -1.0542 -0.4498  0.1029
   10SAPS  C317 1324   2.553   6.968   5.994 -0.8871 -0.0486  0.5625
   10SAPS  H17X 1325   2.453   6.947   5.952  0.1867 -1.2738 -1.5979
   10SAPS  H17Y 1326   2.619   6.885   5.959 -0.8223 -0.1629  0.9514
   10SAPS  C318 1327   2.610   7.097   5.933 -0.0642  0.4158  0.3736
   10SAPS  H18X 1328   2.712   7.110   5.975  0.0554  1.2867 -0.1635
   10SAPS  H18Y 1329   2.563   7.193   5.963 -3.5067 -0.8889 -0.3729
   10SAPS  H18Z 1330   2.622   7.084   5.824 -0.5045 -0.0214  0.3743
   11SAPS     N 1331   3.512   3.141   3.502 -0.0013  0.6068  0.5798
   11SAPS   HN1 1332   3.610   3.173   3.491  0.9601 -2.5806 -1.3492
   11SAPS   HN2 1333   3.457   3.216   3.549  0.6875  0.2871  1.9427
   11SAPS   HN3 1334   3.516   3.055   3.561 -1.9153 -1.5189 -2.1235
   11SAPS   C12 1335   3.476   3.098   3.370 -0.3589 -0.0855 -0.3073
   11SAPS  H12A 1336   3.377   3.054   3.367  0.8019 -2.9102 -1.0810
   11SAPS   C13 1337   3.486   3.215   3.269 -0.1795  0.3239 -0.1102
   11SAPS  O13A 1338   3.550   3.320   3.288 -0.3472  0.0831  0.2543
   11SAPS  O13B 1339   3.427   3.194   3.154 -0.4277  0.1019 -0.2107
   11SAPS   C11 1340   3.560   2.965   3.328 -0.1356  0.3093  0.5699
   11SAPS  H11A 1341   3.516   2.915   3.239 -0.0081 -1.6412  1.5654
   11SAPS  H11B 1342   3.558   2.885   3.404  0.9948  0.7329  1.0689
   11SAPS     P 1343   3.816   2.902   3.311 -0.1454 -0.3769 -0.2114
   11SAPS   O13 1344   3.799   2.809   3.195  0.0099 -0.6051  0.1805
   11SAPS   O14 1345   3.946   2.970   3.322 -0.3871  0.5843 -0.7521
   11SAPS   O12 1346   3.697   3.003   3.310  0.1736  0.3189  0.2900
   11SAPS   O11 1347   3.796   2.824   3.448 -0.3213  0.3526  0.0236
   11SAPS    C1 1348   3.838   2.881   3.569  0.0017  0.7663 -1.0923
   11SAPS    HA 1349   3.946   2.900   3.587 -0.1202  1.0332 -0.6475
   11SAPS    HB 1350   3.779   2.975   3.579  1.5983  1.7606 -0.7563
   11SAPS    C2 1351   3.805   2.792   3.687  0.0634 -1.2071  0.2727
   11SAPS    HS 1352   3.874   2.705   3.684  3.1052  1.0646 -1.8904
   11SAPS   O21 1353   3.673   2.731   3.678 -0.4977 -0.0904  0.2589
   11SAPS   C21 1354   3.564   2.808   3.686 -0.2953 -0.0186 -0.6552
   11SAPS   O22 1355   3.561   2.928   3.683 -0.3972 -1.1362  0.5185
   11SAPS   C22 1356   3.433   2.721   3.720 -0.2743 -0.1838 -0.7714
   11SAPS   H2R 1357   3.374   2.707   3.627 -0.6953 -1.7660 -0.2840
   11SAPS   H2S 1358   3.449   2.621   3.765 -2.9231  0.2270  1.3750
   11SAPS    C3 1359   3.829   2.856   3.828  0.1059  0.1613 -0.7674
   11SAPS    HX 1360   3.745   2.928   3.844 -2.2813 -2.1782 -1.8727
   11SAPS    HY 1361   3.930   2.900   3.839  0.3467 -0.4374 -0.5633
   11SAPS   O31 1362   3.811   2.755   3.932 -0.0755  0.1216 -0.1685
   11SAPS   C31 1363   3.839   2.783   4.054  0.2651 -0.0276  0.0417
   11SAPS   O32 1364   3.883   2.892   4.090 -0.1685 -0.0768  0.1181
   11SAPS   C32 1365   3.803   2.669   4.148  0.3522 -0.1453  0.1581
   11SAPS   H2X 1366   3.867   2.584   4.116 -0.8913 -1.2658  0.6143
   11SAPS   H2Y 1367   3.700   2.636   4.126  0.6955 -1.9570  1.0723
   11SAPS   C23 1368   3.344   2.801   3.811 -0.1653 -0.1467 -0.1227
   11SAPS   H3R 1369   3.255   2.740   3.836  1.4811 -1.9862  1.5533
   11SAPS   H3S 1370   3.302   2.892   3.762  0.8880  0.0029 -0.7727
   11SAPS   C24 1371   3.409   2.835   3.942  0.1161 -0.1844 -0.4208
   11SAPS   H4R 1372   3.493   2.905   3.920 -0.7489  1.1880  0.4583
   11SAPS   H4S 1373   3.458   2.749   3.992  1.2790  0.9082  0.3709
   11SAPS   C25 1374   3.310   2.912   4.027 -0.3459  0.0936 -0.2726
   11SAPS   H5R 1375   3.206   2.896   3.993  0.0846  0.6066 -1.8819
   11SAPS   C26 1376   3.333   2.951   4.150  0.7412  0.3426 -0.4138
   11SAPS   H6R 1377   3.245   2.990   4.205  0.4657 -0.0676 -0.5578
   11SAPS   C27 1378   3.465   2.957   4.218  0.5095  0.3197  0.3018
   11SAPS   H7R 1379   3.540   2.999   4.147  0.8545 -0.4818  0.1868
   11SAPS   H7S 1380   3.496   2.852   4.235 -0.0198 -0.2461 -1.8722
   11SAPS   C28 1381   3.478   3.043   4.339 -0.1646 -0.0863 -0.5499
   11SAPS   H8R 1382   3.547   3.127   4.330 -0.4409  0.0745 -1.2595
   11SAPS   C29 1383   3.441   3.005   4.465 -0.1551  0.0237  0.1283
   11SAPS   H9R 1384   3.454   3.076   4.547  0.1983  1.9714 -1.5346
   11SAPS  C210 1385   3.357   2.884   4.498 -0.3041 -0.2486 -0.1974
   11SAPS  H10R 1386   3.397   2.799   4.439  0.1605 -0.8352  0.9276
   11SAPS  H10S 1387   3.252   2.888   4.461 -0.4170 -2.9775 -0.3426
   11SAPS  C211 1388   3.371   2.849   4.645  0.2760  0.6217 -0.0300
   11SAPS  H11R 1389   3.464   2.795   4.667  0.4019  0.9813  0.3309
   11SAPS  C212 1390   3.298   2.867   4.755  0.2146  0.2571  0.1382
   11SAPS  H12R 1391   3.346   2.839   4.850  1.8866 -0.6495 -0.9404
   11SAPS  C213 1392   3.174   2.945   4.784 -0.0683 -0.3703  0.3355
   11SAPS  H13R 1393   3.114   2.970   4.694 -0.4614 -0.8396  0.4643
   11SAPS  H13S 1394   3.201   3.048   4.816  0.0632 -0.7671  1.5228
   11SAPS  C214 1395   3.086   2.864   4.880  0.7145  0.1254 -0.5757
   11SAPS  H14R 1396   3.019   2.790   4.834  0.7579  0.2193 -0.7887
   11SAPS  C215 1397   3.082   2.865   5.010  0.1549 -0.1749  0.1243
   11SAPS  H15R 1398   3.018   2.793   5.062 -0.4005  0.7593  0.7576
   11SAPS  C216 1399   3.168   2.946   5.101  0.0319  0.1401  0.9455
   11SAPS  H16R 1400   3.101   3.026   5.139 -0.5105  0.0537  0.1941
   11SAPS  H16S 1401   3.241   3.008   5.044 -0.6756  0.9387  0.8902
   11SAPS  C217 1402   3.254   2.864   5.200  0.8388  0.4754  0.2799
   11SAPS  H17R 1403   3.325   2.939   5.240  1.2592  0.0894  0.2560
   11SAPS  H17S 1404   3.297   2.778   5.146 -0.1106  0.8933 -1.2201
   11SAPS  C218 1405   3.156   2.822   5.311 -0.4657  0.2025  0.0719
   11SAPS  H18R 1406   3.093   2.738   5.275 -1.8925  0.2329  2.2618
   11SAPS  H18S 1407   3.089   2.905   5.343 -0.7033 -0.2376  0.7384
   11SAPS  C219 1408   3.240   2.774   5.429  0.1617 -0.4638 -0.5120
   11SAPS  H19R 1409   3.294   2.853   5.485 -1.7776 -1.4424  3.0287
   11SAPS  H19S 1410   3.319   2.703   5.397  0.0169 -0.8032 -0.1157
   11SAPS  C220 1411   3.157   2.706   5.536  0.0117 -0.0421  0.1699
   11SAPS  H20R 1412   3.060   2.755   5.559  1.0220  2.2705 -0.2169
   11SAPS  H20S 1413   3.215   2.710   5.630 -0.5105 -0.7406  0.5320
   11SAPS  H20T 1414   3.138   2.599   5.512  0.9844  0.0323 -1.0320
   11SAPS   C33 1415   3.830   2.705   4.303  0.7929 -0.3223 -0.6468
   11SAPS   H3X 1416   3.767   2.794   4.325  0.0469 -1.1314  0.6434
   11SAPS   H3Y 1417   3.936   2.716   4.333  0.8444 -1.0237 -0.5495
   11SAPS   C34 1418   3.769   2.594   4.391 -0.6548 -0.0722  0.6526
   11SAPS   H4X 1419   3.838   2.507   4.381 -0.6824  0.1176 -1.5243
   11SAPS   H4Y 1420   3.678   2.554   4.341 -0.6098 -0.1839  0.6600
   11SAPS   C35 1421   3.754   2.630   4.535 -0.4699 -0.1155 -0.7505
   11SAPS   H5X 1422   3.705   2.730   4.542 -0.3147 -0.0524 -0.5337
   11SAPS   H5Y 1423   3.851   2.645   4.588 -0.3936 -2.0817 -0.2810
   11SAPS   C36 1424   3.675   2.531   4.623 -0.1975  0.1070 -0.2471
   11SAPS   H6X 1425   3.731   2.435   4.628  0.2918  0.4451  1.2308
   11SAPS   H6Y 1426   3.583   2.503   4.567 -1.0242 -0.8346  1.4962
   11SAPS   C37 1427   3.645   2.585   4.767  0.0395  1.0229  0.1389
   11SAPS   H7X 1428   3.613   2.688   4.742  1.2774  1.1666 -0.9131
   11SAPS   H7Y 1429   3.732   2.592   4.835 -0.6253  0.2865  1.1038
   11SAPS   C38 1430   3.541   2.503   4.846 -0.8966  0.1438  0.0798
   11SAPS   H8X 1431   3.578   2.399   4.852  1.4990  0.8973 -0.3349
   11SAPS   H8Y 1432   3.448   2.494   4.786  0.0476 -0.6495 -1.3031
   11SAPS   C39 1433   3.514   2.563   4.993  0.4635  0.3934  0.1457
   11SAPS   H9X 1434   3.456   2.493   5.056 -0.8423  0.0023 -1.4187
   11SAPS   H9Y 1435   3.449   2.652   4.978 -0.1215  0.0015  0.3460
   11SAPS  C310 1436   3.639   2.580   5.083  0.5123 -0.6567 -0.7648
   11SAPS  H10X 1437   3.606   2.627   5.178  0.9503 -0.2775 -0.7967
   11SAPS  H10Y 1438   3.716   2.643   5.034 -0.7485  1.5873 -0.0057
   11SAPS  C311 1439   3.704   2.441   5.128  0.0703 -0.2754 -0.0875
   11SAPS  H11X 1440   3.688   2.357   5.057  0.3993  1.4498 -2.3133
   11SAPS  H11Y 1441   3.665   2.407   5.227  1.5253  0.6098  0.8259
   11SAPS  C312 1442   3.857   2.455   5.114  0.6319 -0.7207 -0.2285
   11SAPS  H12X 1443   3.903   2.545   5.160  1.0818 -0.9268 -0.2666
   11SAPS  H12Y 1444   3.880   2.459   5.005 -0.9703  4.7051 -0.6339
   11SAPS  C313 1445   3.927   2.334   5.177  0.6509 -0.2857 -1.7128
   11SAPS  H13X 1446   4.035   2.327   5.151  0.9551 -1.8026 -0.2131
   11SAPS  H13Y 1447   3.867   2.244   5.151 -1.4852  0.5662 -0.0567
   11SAPS  C314 1448   3.935   2.328   5.330  0.9810 -0.4559 -0.1122
   11SAPS  H14X 1449   3.830   2.313   5.364  0.3458  3.1719 -0.0630
   11SAPS  H14Y 1450   3.967   2.430   5.360 -0.6875 -0.5189  2.1411
   11SAPS  C315 1451   4.035   2.233   5.380  0.4299 -0.3106 -0.3383
   11SAPS  H15X 1452   4.132   2.264   5.336  0.7038  0.6694  0.8829
   11SAPS  H15Y 1453   4.009   2.131   5.344  1.6736 -0.1183 -1.9068
   11SAPS  C316 1454   4.059   2.234   5.533 -0.2633 -0.0731 -0.7759
   11SAPS  H16X 1455   3.963   2.252   5.586 -0.2786 -2.9759  0.4023
   11SAPS  H16Y 1456   4.132   2.315   5.553  0.6153 -0.5304 -1.9476
   11SAPS  C317 1457   4.106   2.094   5.584  0.3243  0.1810  0.3003
   11SAPS  H17X 1458   4.162   2.039   5.506  0.6791 -0.2178  0.8236
   11SAPS  H17Y 1459   4.022   2.027   5.610 -1.1386  1.8808  0.1446
   11SAPS  C318 1460   4.200   2.094   5.705  0.0288 -0.1666  0.1024
   11SAPS  H18X 1461   4.137   2.128   5.791  1.5110 -1.8850  1.9658
   11SAPS  H18Y 1462   4.283   2.166   5.694  0.0461 -0.2498 -0.3140
   11SAPS  H18Z 1463   4.245   1.994   5.722  0.3672 -0.0560 -0.1609
   12SAPS     N 1464   2.386   3.233   3.464 -0.0350 -0.3228  0.9234
   12SAPS   HN1 1465   2.404   3.331   3.494 -1.8496  0.5911 -0.7930
   12SAPS   HN2 1466   2.377   3.167   3.544 -0.9491 -1.5445 -0.1455
   12SAPS   HN3 1467   2.467   3.193   3.412  1.4065  0.9383  2.1073
   12SAPS   C12 1468   2.268   3.227   3.370 -0.2176 -0.2602 -0.0317
   12SAPS  H12A 1469   2.178   3.246   3.427 -0.7783 -1.5481 -0.4428
   12SAPS   C13 1470   2.267   3.328   3.253 -0.0087 -0.6047  0.2168
   12SAPS  O13A 1471   2.379   3.366   3.210 -0.3140 -0.6192 -0.1724
   12SAPS  O13B 1472   2.159   3.352   3.187 -0.8090  0.4176 -0.6231
   12SAPS   C11 1473   2.280   3.083   3.310 -0.1290  0.6986 -0.1112
   12SAPS  H11A 1474   2.374   3.066   3.253 -0.8824 -0.9108 -0.9211
   12SAPS  H11B 1475   2.200   3.060   3.237 -0.8824  0.6238  0.7180
   12SAPS     P 1476   2.136   2.916   3.454  0.0545  0.0475  0.1694
   12SAPS   O13 1477   2.039   3.025   3.495  0.1567  0.4835  0.1551
   12SAPS   O14 1478   2.082   2.815   3.359 -0.0405  0.1654  0.2429
   12SAPS   O12 1479   2.274   2.974   3.401 -0.3818  0.4117  0.3711
   12SAPS   O11 1480   2.171   2.841   3.590 -0.2970 -0.1548 -0.1444
   12SAPS    C1 1481   2.298   2.828   3.642  0.7952  0.4909 -0.0635
   12SAPS    HA 1482   2.369   2.785   3.568 -0.9102  1.8722 -2.6492
   12SAPS    HB 1483   2.336   2.923   3.685 -0.3733  0.4480  1.1294
   12SAPS    C2 1484   2.280   2.726   3.759  0.2149 -0.7971 -0.5794
   12SAPS    HS 1485   2.230   2.636   3.717 -1.0469  0.2071 -1.3065
   12SAPS   O21 1486   2.199   2.789   3.862  0.2742 -0.2318 -0.6371
   12SAPS   C21 1487   2.129   2.694   3.934  0.2826 -0.2505  0.6388
   12SAPS   O22 1488   2.136   2.575   3.920  0.0805 -0.0855 -0.3268
   12SAPS   C22 1489   2.038   2.766   4.030 -0.0916  0.8808  0.0471
   12SAPS   H2R 1490   2.097   2.784   4.122 -0.7506 -0.0822  0.6685
   12SAPS   H2S 1491   2.016   2.867   3.988  0.0040  0.7610 -0.2952
   12SAPS    C3 1492   2.423   2.700   3.809  0.5099  0.0189  0.7531
   12SAPS    HX 1493   2.474   2.798   3.816  1.2837 -0.2265 -1.1019
   12SAPS    HY 1494   2.482   2.645   3.733 -2.6713 -1.1967 -1.0209
   12SAPS   O31 1495   2.426   2.628   3.932  0.3408  0.3455  0.0365
   12SAPS   C31 1496   2.454   2.499   3.941  0.0114  0.3695  0.4370
   12SAPS   O32 1497   2.485   2.426   3.846  0.4732  0.0967  0.0752
   12SAPS   C32 1498   2.468   2.462   4.092  0.3371  0.1063  0.1477
   12SAPS   H2X 1499   2.560   2.511   4.129 -0.4510  4.2612 -2.7091
   12SAPS   H2Y 1500   2.485   2.354   4.114  1.8266 -0.0188 -1.3987
   12SAPS   C23 1501   1.911   2.684   4.067 -0.2722 -0.1066 -0.4805
   12SAPS   H3R 1502   1.952   2.599   4.126 -0.4304  0.3629  0.3300
   12SAPS   H3S 1503   1.863   2.662   3.969 -0.1787  2.5041 -1.2013
   12SAPS   C24 1504   1.815   2.763   4.158 -0.6504 -0.4060 -0.4512
   12SAPS   H4R 1505   1.749   2.687   4.204 -0.2935 -0.0263  0.7293
   12SAPS   H4S 1506   1.749   2.831   4.100 -0.2858  2.0014  1.7310
   12SAPS   C25 1507   1.886   2.853   4.262 -0.1617  0.5212 -0.1907
   12SAPS   H5R 1508   1.958   2.926   4.220  2.3786 -0.7664  1.6129
   12SAPS   C26 1509   1.864   2.841   4.396 -0.4359 -0.3326  0.4929
   12SAPS   H6R 1510   1.903   2.916   4.467 -0.7675  0.5163 -0.2000
   12SAPS   C27 1511   1.764   2.743   4.445 -0.1255  0.8003 -0.1000
   12SAPS   H7R 1512   1.805   2.642   4.426 -0.4947  0.6415 -0.0466
   12SAPS   H7S 1513   1.671   2.741   4.385 -1.0340  0.7392  1.2697
   12SAPS   C28 1514   1.731   2.767   4.592  0.0518 -0.2736 -0.0254
   12SAPS   H8R 1515   1.730   2.874   4.620  1.1060 -0.0397 -0.7849
   12SAPS   C29 1516   1.676   2.676   4.672 -0.0653  0.1095  0.0535
   12SAPS   H9R 1517   1.670   2.695   4.780  1.4951 -0.7393  0.3231
   12SAPS  C210 1518   1.669   2.529   4.632 -0.8536 -0.1431  0.5375
   12SAPS  H10R 1519   1.776   2.499   4.620 -0.2904  2.7149 -3.6416
   12SAPS  H10S 1520   1.616   2.527   4.535 -1.6509 -3.5630  0.9209
   12SAPS  C211 1521   1.594   2.436   4.727  0.2165  0.2037  0.0093
   12SAPS  H11R 1522   1.506   2.382   4.689 -0.8755  0.8491  1.5208
   12SAPS  C212 1523   1.616   2.417   4.860  0.0275  0.0334 -0.4849
   12SAPS  H12R 1524   1.545   2.348   4.908  0.4479  0.9929  1.6511
   12SAPS  C213 1525   1.725   2.478   4.939 -0.6247  1.4129 -0.0512
   12SAPS  H13R 1526   1.797   2.532   4.873  0.3100  0.1511 -0.1030
   12SAPS  H13S 1527   1.775   2.386   4.974 -4.0538 -0.9148 -0.8296
   12SAPS  C214 1528   1.674   2.556   5.054 -0.4839  0.0678 -0.3450
   12SAPS  H14R 1529   1.605   2.641   5.037  0.9045  1.1991 -0.5368
   12SAPS  C215 1530   1.685   2.525   5.178 -0.0305 -0.1827 -0.3999
   12SAPS  H15R 1531   1.630   2.587   5.251  1.7226 -1.1287  1.8444
   12SAPS  C216 1532   1.763   2.403   5.243 -0.2482 -0.3860  0.3511
   12SAPS  H16R 1533   1.819   2.445   5.330 -1.7876  1.0704  0.6963
   12SAPS  H16S 1534   1.836   2.355   5.175  0.5009  3.6852 -2.0276
   12SAPS  C217 1535   1.657   2.295   5.279  0.7351 -0.2331  0.7500
   12SAPS  H17R 1536   1.595   2.268   5.190  2.8123 -0.3158 -0.7543
   12SAPS  H17S 1537   1.599   2.336   5.364 -0.0461 -0.9882  0.5958
   12SAPS  C218 1538   1.713   2.158   5.330 -0.3030 -0.8099 -0.2484
   12SAPS  H18R 1539   1.788   2.106   5.266  1.0938 -0.2688  0.9030
   12SAPS  H18S 1540   1.624   2.092   5.338 -1.2513  0.6159  1.5701
   12SAPS  C219 1541   1.788   2.165   5.464  0.6212 -0.5020  0.1052
   12SAPS  H19R 1542   1.711   2.190   5.541 -0.5614  0.4657 -1.3148
   12SAPS  H19S 1543   1.866   2.244   5.461  0.9523 -0.7877  0.9027
   12SAPS  C220 1544   1.866   2.039   5.497  0.3442 -0.4839  0.5258
   12SAPS  H20R 1545   1.943   2.009   5.422  0.6824 -1.4592  1.2479
   12SAPS  H20S 1546   1.795   1.956   5.517  1.3156 -1.0857  1.6049
   12SAPS  H20T 1547   1.916   2.057   5.595  0.2365  1.1991  0.3023
   12SAPS   C33 1548   2.356   2.520   4.175  0.1703  0.3708 -0.5368
   12SAPS   H3X 1549   2.282   2.441   4.199  1.7954 -0.4353  2.3208
   12SAPS   H3Y 1550   2.311   2.609   4.125 -0.6793  0.5620  0.5232
   12SAPS   C34 1551   2.404   2.575   4.316  0.3305 -0.4540  0.9336
   12SAPS   H4X 1552   2.473   2.662   4.318 -0.2198 -0.0213  1.5144
   12SAPS   H4Y 1553   2.440   2.490   4.378 -0.3244  0.5104  2.6989
   12SAPS   C35 1554   2.285   2.615   4.392 -0.1669 -0.8457  0.4640
   12SAPS   H5X 1555   2.213   2.532   4.378 -1.3313 -0.1167  1.8290
   12SAPS   H5Y 1556   2.242   2.705   4.342 -0.1798 -1.4795 -0.6951
   12SAPS   C36 1557   2.301   2.624   4.543 -0.0941 -0.1956 -0.2073
   12SAPS   H6X 1558   2.379   2.701   4.554  0.3265 -0.2770 -2.2666
   12SAPS   H6Y 1559   2.334   2.531   4.594  0.5969 -0.3848 -0.9764
   12SAPS   C37 1560   2.177   2.672   4.623 -0.1589  0.0512 -0.6388
   12SAPS   H7X 1561   2.091   2.610   4.589 -0.9453  1.3949 -1.1952
   12SAPS   H7Y 1562   2.153   2.773   4.584 -0.8455 -0.3508 -1.2921
   12SAPS   C38 1563   2.189   2.673   4.776 -0.0137 -0.6763 -0.0394
   12SAPS   H8X 1564   2.249   2.757   4.816 -1.0853 -1.1095  2.7181
   12SAPS   H8Y 1565   2.238   2.576   4.802  1.6852  0.3179  0.6497
   12SAPS   C39 1566   2.049   2.672   4.850 -0.6544 -0.4032  1.1130
   12SAPS   H9X 1567   1.996   2.582   4.810 -1.3022  0.3143  0.2997
   12SAPS   H9Y 1568   1.992   2.762   4.818  1.7146  0.2559 -1.7600
   12SAPS  C310 1569   2.049   2.647   5.003 -0.1229  0.7779  0.2301
   12SAPS  H10X 1570   2.102   2.552   5.027  1.4726  1.9290  1.5215
   12SAPS  H10Y 1571   1.947   2.629   5.043  0.1919  0.6476  0.9922
   12SAPS  C311 1572   2.116   2.765   5.085 -0.8736  0.7833  0.2309
   12SAPS  H11X 1573   2.073   2.860   5.045  1.0997  1.3189 -0.7491
   12SAPS  H11Y 1574   2.225   2.767   5.066 -0.9791  1.9400 -0.4015
   12SAPS  C312 1575   2.085   2.768   5.233 -0.5195  0.1063  0.3499
   12SAPS  H12X 1576   2.105   2.663   5.263  0.2197 -0.2828 -1.4140
   12SAPS  H12Y 1577   1.977   2.783   5.256 -0.3591  0.6707  0.7511
   12SAPS  C313 1578   2.171   2.870   5.299 -0.1255  0.2888 -0.0791
   12SAPS  H13X 1579   2.139   2.967   5.255 -0.4732 -0.1529 -0.8135
   12SAPS  H13Y 1580   2.280   2.866   5.281 -0.0132  0.3784  0.5519
   12SAPS  C314 1581   2.148   2.887   5.452 -0.1500 -0.4255 -0.5667
   12SAPS  H14X 1582   2.194   2.809   5.516  1.9729  1.4105  0.2848
   12SAPS  H14Y 1583   2.041   2.870   5.478  0.4504 -1.4922  1.4452
   12SAPS  C315 1584   2.196   3.020   5.509  0.4792  0.5242  0.8640
   12SAPS  H15X 1585   2.128   3.093   5.460  0.0272 -1.3720 -1.4788
   12SAPS  H15Y 1586   2.302   3.028   5.476  0.1055 -0.1220 -0.5284
   12SAPS  C316 1587   2.192   3.016   5.657 -0.3361  0.0360  0.4574
   12SAPS  H16X 1588   2.270   2.953   5.706 -0.3089  0.2574  0.7001
   12SAPS  H16Y 1589   2.099   2.970   5.697  0.3628  0.6596  3.0082
   12SAPS  C317 1590   2.207   3.162   5.711 -0.2116 -0.1049  0.1849
   12SAPS  H17X 1591   2.138   3.235   5.664  1.6469  2.9010  1.7533
   12SAPS  H17Y 1592   2.307   3.209   5.697 -0.1595  0.6577  2.6308
   12SAPS  C318 1593   2.185   3.168   5.861  0.1639 -0.3570 -0.5620
   12SAPS  H18X 1594   2.192   3.271   5.901  0.6487 -0.2617 -0.8866
   12SAPS  H18Y 1595   2.256   3.104   5.918 -0.6891 -0.0035  0.9722
   12SAPS  H18Z 1596   2.081   3.129   5.876 -0.1088  0.4692 -0.2494
   13SAPS     N 1597   4.879   1.045   3.703  0.0209  0.3062  0.0304
   13SAPS   HN1 1598   4.905   1.090   3.793 -1.9811  2.3204 -0.3121
   13SAPS   HN2 1599   4.776   1.038   3.692  0.0822  0.9161 -1.0909
   13SAPS   HN3 1600   4.916   0.948   3.691  2.6090  1.0727  0.9803
   13SAPS   C12 1601   4.919   1.128   3.587 -0.4326  0.1356 -0.2179
   13SAPS  H12A 1602   5.026   1.137   3.593 -0.2405 -1.1059 -1.3318
   13SAPS   C13 1603   4.896   1.044   3.452  0.5622 -0.2774  0.2158
   13SAPS  O13A 1604   4.844   0.929   3.446  0.3340  0.3813 -0.5514
   13SAPS  O13B 1605   4.938   1.098   3.349  0.8236 -0.6503 -0.5099
   13SAPS   C11 1606   4.857   1.272   3.598 -0.3898 -0.7948 -0.5517
   13SAPS  H11A 1607   4.750   1.255   3.577 -0.1671 -2.2242 -0.6192
   13SAPS  H11B 1608   4.901   1.325   3.511 -0.7396 -0.1295 -0.3290
   13SAPS     P 1609   4.909   1.496   3.721 -0.1730 -0.4202 -0.4201
   13SAPS   O13 1610   4.945   1.564   3.594 -0.2813 -0.0981 -0.4111
   13SAPS   O14 1611   4.789   1.555   3.790 -0.4399 -0.1539  0.3755
   13SAPS   O12 1612   4.879   1.336   3.724  0.0811 -0.1832 -0.7519
   13SAPS   O11 1613   5.032   1.521   3.819 -0.5240  0.0919  0.7527
   13SAPS    C1 1614   5.131   1.426   3.858 -0.6919 -0.2911  0.6741
   13SAPS    HA 1615   5.129   1.334   3.796 -0.7189 -1.1539  1.9083
   13SAPS    HB 1616   5.231   1.473   3.846 -1.3948  1.4673  1.4561
   13SAPS    C2 1617   5.129   1.378   4.009 -0.2637  0.3704 -0.3395
   13SAPS    HS 1618   5.174   1.277   4.019 -0.5366  0.3662  0.9563
   13SAPS   O21 1619   4.995   1.371   4.051 -0.2768  0.0981 -0.2892
   13SAPS   C21 1620   4.921   1.270   4.009 -0.3016 -0.1872 -0.0659
   13SAPS   O22 1621   4.957   1.183   3.937  0.1526  0.9704  0.3704
   13SAPS   C22 1622   4.784   1.266   4.076 -0.4766 -0.1919 -0.7223
   13SAPS   H2R 1623   4.806   1.282   4.184 -0.0448  0.9256 -0.9588
   13SAPS   H2S 1624   4.725   1.351   4.036 -0.0518 -0.1867 -1.3641
   13SAPS    C3 1625   5.207   1.482   4.100  0.4389  0.7754 -0.5947
   13SAPS    HX 1626   5.204   1.580   4.049  1.2754  1.2816  0.3059
   13SAPS    HY 1627   5.312   1.447   4.091  0.3086  0.1829  0.0975
   13SAPS   O31 1628   5.172   1.476   4.237  0.2006  0.1214 -0.7388
   13SAPS   C31 1629   5.083   1.573   4.275 -0.9523  0.5620 -0.7897
   13SAPS   O32 1630   5.021   1.646   4.207  0.4498  0.1990 -0.9632
   13SAPS   C32 1631   5.073   1.567   4.431  0.8013 -0.5345  0.0129
   13SAPS   H2X 1632   4.994   1.643   4.448  2.0726  1.4672 -2.4291
   13SAPS   H2Y 1633   5.172   1.596   4.470 -0.0179  0.0951  1.7588
   13SAPS   C23 1634   4.710   1.132   4.064  0.7401  0.3350 -0.1329
   13SAPS   H3R 1635   4.767   1.047   4.108 -1.6437 -0.3489  1.8309
   13SAPS   H3S 1636   4.704   1.116   3.954  1.6746  2.2170 -0.4876
   13SAPS   C24 1637   4.563   1.135   4.111  0.2103  0.7010 -0.1783
   13SAPS   H4R 1638   4.506   1.216   4.060 -0.0645  0.8779  0.4111
   13SAPS   H4S 1639   4.555   1.152   4.220 -3.1731 -0.1186 -0.1972
   13SAPS   C25 1640   4.493   1.005   4.076  0.1938  0.2779 -0.2249
   13SAPS   H5R 1641   4.537   0.939   4.000 -2.1479 -0.6848 -0.8528
   13SAPS   C26 1642   4.379   0.959   4.134  0.2488  0.1013  0.9758
   13SAPS   H6R 1643   4.343   0.864   4.091 -1.0413  1.9315 -2.3625
   13SAPS   C27 1644   4.297   1.027   4.242 -0.2161 -0.1194 -0.6986
   13SAPS   H7R 1645   4.282   1.134   4.214 -1.0145 -0.1049 -0.2346
   13SAPS   H7S 1646   4.346   1.026   4.341  0.9799 -1.2117 -1.2659
   13SAPS   C28 1647   4.162   0.967   4.256  0.6060  0.3279  0.2156
   13SAPS   H8R 1648   4.124   0.899   4.178 -0.3980  1.9524 -0.7643
   13SAPS   C29 1649   4.076   0.994   4.360 -0.5289  0.3209  0.2294
   13SAPS   H9R 1650   3.979   0.943   4.359 -0.4524  0.1485  0.8245
   13SAPS  C210 1651   4.090   1.107   4.461 -0.3229  0.0798  0.3660
   13SAPS  H10R 1652   4.077   1.209   4.418 -1.3867 -0.6922 -1.2437
   13SAPS  H10S 1653   4.194   1.098   4.499  0.2095  0.7187 -0.8962
   13SAPS  C211 1654   3.998   1.096   4.586  0.8919 -0.6410 -0.1048
   13SAPS  H11R 1655   3.922   1.175   4.595  1.6378  0.2460 -1.1666
   13SAPS  C212 1656   4.017   1.014   4.690 -0.2843  0.5479  0.3317
   13SAPS  H12R 1657   3.943   1.016   4.771 -0.6182 -1.2325  0.1200
   13SAPS  C213 1658   4.115   0.899   4.702  0.3577 -1.3573 -0.4537
   13SAPS  H13R 1659   4.155   0.911   4.804  1.0292 -0.2330 -0.8292
   13SAPS  H13S 1660   4.197   0.916   4.629 -0.0536  0.6093 -0.5201
   13SAPS  C214 1661   4.043   0.771   4.690  0.3364 -0.3933 -0.0765
   13SAPS  H14R 1662   3.959   0.754   4.759  1.7390 -1.6510  1.4203
   13SAPS  C215 1663   4.073   0.661   4.614 -0.9381  0.0396  0.2699
   13SAPS  H15R 1664   4.005   0.575   4.612 -2.1563  0.9400 -3.1350
   13SAPS  C216 1665   4.195   0.644   4.515  0.2791 -0.7664 -0.3183
   13SAPS  H16R 1666   4.281   0.590   4.561  0.1854 -2.4781 -2.0495
   13SAPS  H16S 1667   4.225   0.745   4.481  0.0880  0.0787  1.8452
   13SAPS  C217 1668   4.152   0.553   4.397 -0.4030  0.3087 -0.2306
   13SAPS  H17R 1669   4.064   0.599   4.348  0.5421  0.9877 -1.3491
   13SAPS  H17S 1670   4.119   0.459   4.446 -0.5868  1.3453  1.6935
   13SAPS  C218 1671   4.266   0.543   4.297 -0.3175 -0.2071  0.6196
   13SAPS  H18R 1672   4.350   0.479   4.332  0.7284  0.4732 -0.5726
   13SAPS  H18S 1673   4.303   0.647   4.290 -0.7805 -0.0612  0.2354
   13SAPS  C219 1674   4.225   0.492   4.156  0.5352 -0.6081  0.6983
   13SAPS  H19R 1675   4.313   0.508   4.091 -1.4662  3.0664 -1.4681
   13SAPS  H19S 1676   4.150   0.561   4.111  2.2284 -0.1176 -1.4984
   13SAPS  C220 1677   4.183   0.351   4.152  0.3015  0.2536  0.1966
   13SAPS  H20R 1678   4.273   0.300   4.193  1.6375  1.9349 -0.5233
   13SAPS  H20S 1679   4.150   0.308   4.055  0.3099  1.7660 -0.5055
   13SAPS  H20T 1680   4.101   0.336   4.226  1.9986 -0.6003  1.9862
   13SAPS   C33 1681   5.026   1.425   4.496 -0.9243 -0.7017  0.4384
   13SAPS   H3X 1682   5.118   1.365   4.482 -1.3766 -1.6727  1.4458
   13SAPS   H3Y 1683   4.937   1.387   4.442 -0.8577 -0.5618  0.2303
   13SAPS   C34 1684   4.999   1.435   4.643 -0.8467 -0.4627  0.1458
   13SAPS   H4X 1685   4.908   1.499   4.648 -1.5961 -1.4412 -0.6368
   13SAPS   H4Y 1686   5.081   1.484   4.700 -0.8957 -0.7046  0.4244
   13SAPS   C35 1687   4.967   1.306   4.711 -0.0057 -0.1102  0.4804
   13SAPS   H5X 1688   5.048   1.236   4.680 -0.3862  0.3233 -1.5954
   13SAPS   H5Y 1689   4.878   1.260   4.665 -0.1726  1.1970 -0.5472
   13SAPS   C36 1690   4.940   1.340   4.856  0.3284 -0.0443 -0.6962
   13SAPS   H6X 1691   4.867   1.423   4.867  0.4912 -0.2424  2.8069
   13SAPS   H6Y 1692   5.033   1.378   4.903  1.7503 -3.2516 -0.6376
   13SAPS   C37 1693   4.882   1.216   4.922 -0.0808 -0.6198 -0.2244
   13SAPS   H7X 1694   4.941   1.126   4.894  1.0054 -0.5529  1.7213
   13SAPS   H7Y 1695   4.780   1.184   4.892 -0.3541  0.3986 -0.4052
   13SAPS   C38 1696   4.888   1.248   5.071 -0.1047  0.1674 -0.2912
   13SAPS   H8X 1697   4.811   1.326   5.090 -0.0447  0.1831 -0.1153
   13SAPS   H8Y 1698   4.987   1.287   5.103  1.0776 -1.9996 -1.0710
   13SAPS   C39 1699   4.852   1.123   5.165 -0.2927  0.2104  0.2627
   13SAPS   H9X 1700   4.936   1.055   5.141 -0.2891 -0.1771  1.3224
   13SAPS   H9Y 1701   4.753   1.081   5.140 -1.1815  2.0639  0.4633
   13SAPS  C310 1702   4.848   1.158   5.314  0.0866 -0.4515  0.3004
   13SAPS  H10X 1703   4.936   1.222   5.339  0.0505 -1.0884  2.2914
   13SAPS  H10Y 1704   4.862   1.066   5.376  2.2081  0.6498  1.5967
   13SAPS  C311 1705   4.725   1.236   5.355  0.4783 -0.1345 -0.1890
   13SAPS  H11X 1706   4.678   1.272   5.261  2.5294  1.5440 -0.6610
   13SAPS  H11Y 1707   4.766   1.325   5.408 -0.4254  1.4149 -1.9781
   13SAPS  C312 1708   4.632   1.162   5.457  0.2802  0.0806  0.2218
   13SAPS  H12X 1709   4.689   1.114   5.540  0.7754 -2.4839 -1.4938
   13SAPS  H12Y 1710   4.571   1.082   5.409  0.4074 -0.9551  1.7160
   13SAPS  C313 1711   4.527   1.266   5.512  0.4080  0.3916  0.4826
   13SAPS  H13X 1712   4.433   1.210   5.534  1.5195 -0.7208  2.7348
   13SAPS  H13Y 1713   4.508   1.334   5.426  2.3454  0.6085  0.1900
   13SAPS  C314 1714   4.576   1.361   5.622 -0.0705 -0.4243  0.5915
   13SAPS  H14X 1715   4.621   1.454   5.581  1.8808 -0.8063  1.7781
   13SAPS  H14Y 1716   4.643   1.311   5.695  0.2713  0.7306  1.0982
   13SAPS  C315 1717   4.456   1.410   5.708 -0.1447  0.4545  0.0167
   13SAPS  H15X 1718   4.428   1.317   5.761 -0.6714 -0.2066 -1.3843
   13SAPS  H15Y 1719   4.372   1.441   5.643  0.5500  2.3498 -0.0527
   13SAPS  C316 1720   4.486   1.533   5.798 -0.4822 -0.6386 -0.4838
   13SAPS  H16X 1721   4.556   1.606   5.752  0.1501 -0.9053  0.0369
   13SAPS  H16Y 1722   4.522   1.501   5.898 -1.1459 -1.5749 -0.5307
   13SAPS  C317 1723   4.361   1.628   5.838 -0.7136  0.7053 -0.8384
   13SAPS  H17X 1724   4.271   1.574   5.874  0.4006  0.5325  1.9556
   13SAPS  H17Y 1725   4.332   1.674   5.741  0.7449  0.9057 -1.2111
   13SAPS  C318 1726   4.394   1.745   5.926  0.0811  0.1459 -0.1988
   13SAPS  H18X 1727   4.489   1.791   5.889 -0.5523  0.8695 -0.9645
   13SAPS  H18Y 1728   4.399   1.714   6.032  0.1584  0.1527 -0.2000
   13SAPS  H18Z 1729   4.319   1.827   5.916  1.6465  1.8052  0.9653
   14SAPS     N 1730   5.094   5.175   3.761 -0.0711 -0.6814 -0.5471
   14SAPS   HN1 1731   5.062   5.079   3.787  1.2897 -1.4593 -1.5964
   14SAPS   HN2 1732   5.061   5.194   3.664  1.2461  0.2532 -0.8258
   14SAPS   HN3 1733   5.197   5.176   3.765 -0.0827 -1.4937  1.5178
   14SAPS   C12 1734   5.041   5.277   3.855  0.3695  0.7477  0.5977
   14SAPS  H12A 1735   5.069   5.249   3.955  2.2942  0.9710  0.1540
   14SAPS   C13 1736   5.086   5.427   3.824 -0.3219 -0.0256  0.1859
   14SAPS  O13A 1737   5.150   5.432   3.718 -0.0688 -0.4701 -0.8692
   14SAPS  O13B 1738   5.030   5.519   3.882 -0.5455 -0.3091 -0.1573
   14SAPS   C11 1739   4.886   5.275   3.846  0.3017  0.3318 -0.7564
   14SAPS  H11A 1740   4.851   5.326   3.754 -0.8441  0.6190 -0.1822
   14SAPS  H11B 1741   4.850   5.342   3.927 -0.0926 -0.1311 -0.5438
   14SAPS     P 1742   4.721   5.088   3.751 -0.4500 -0.3556  0.0495
   14SAPS   O13 1743   4.610   5.181   3.774 -0.7961 -0.2643  0.7210
   14SAPS   O14 1744   4.775   5.074   3.614 -0.2179  0.3015 -0.3381
   14SAPS   O12 1745   4.827   5.145   3.847 -0.2393 -0.1970 -1.4576
   14SAPS   O11 1746   4.690   4.949   3.815 -0.7921  0.0041  0.4500
   14SAPS    C1 1747   4.793   4.855   3.852  0.2528  0.1930  0.4084
   14SAPS    HA 1748   4.843   4.817   3.760  0.8795 -0.5847  1.0539
   14SAPS    HB 1749   4.869   4.909   3.913  0.4031  0.4032  0.0386
   14SAPS    C2 1750   4.751   4.726   3.931 -0.0935  0.7192 -0.6030
   14SAPS    HS 1751   4.711   4.647   3.864  0.4266  0.0125 -0.1077
   14SAPS   O21 1752   4.648   4.759   4.033 -0.0637  0.2632 -0.1824
   14SAPS   C21 1753   4.531   4.770   3.985 -0.0471 -0.3534  0.3354
   14SAPS   O22 1754   4.486   4.726   3.881 -0.0402 -0.3895 -0.3678
   14SAPS   C22 1755   4.453   4.867   4.076  0.4046  0.4830  0.1490
   14SAPS   H2R 1756   4.427   4.801   4.160  0.6567  0.2612  0.0529
   14SAPS   H2S 1757   4.529   4.947   4.093  1.0486  0.1960 -1.2097
   14SAPS    C3 1758   4.878   4.657   3.998 -0.1699 -0.3541  0.7074
   14SAPS    HX 1759   4.899   4.709   4.094 -2.1722 -0.2758  1.1503
   14SAPS    HY 1760   4.963   4.676   3.930 -0.2550  1.8968  1.1604
   14SAPS   O31 1761   4.844   4.523   4.032 -0.2175 -0.2809  0.4129
   14SAPS   C31 1762   4.880   4.432   3.947  0.4600  0.2593 -0.9763
   14SAPS   O32 1763   4.932   4.449   3.839  0.0697  0.4448  1.2083
   14SAPS   C32 1764   4.833   4.294   4.008  0.4300  0.3175  0.0083
   14SAPS   H2X 1765   4.919   4.225   3.998  0.2474  0.2745 -1.4549
   14SAPS   H2Y 1766   4.746   4.254   3.953  1.2093 -0.4572 -0.6779
   14SAPS   C23 1767   4.322   4.928   4.012 -0.1361  0.4140  0.2280
   14SAPS   H3R 1768   4.255   4.843   3.986 -0.8497  0.1766  2.6545
   14SAPS   H3S 1769   4.354   4.974   3.916 -0.1821  1.1598  0.5677
   14SAPS   C24 1770   4.267   5.033   4.119  0.0738 -0.6141  1.0583
   14SAPS   H4R 1771   4.327   5.126   4.116 -3.2612  1.8816  3.3749
   14SAPS   H4S 1772   4.279   4.993   4.222 -0.7443  1.6159  2.0647
   14SAPS   C25 1773   4.127   5.056   4.068  0.2443  0.4909  0.3651
   14SAPS   H5R 1774   4.123   5.114   3.974 -0.2604 -0.0854  0.0263
   14SAPS   C26 1775   4.020   5.003   4.127 -0.7120 -0.4995 -0.0447
   14SAPS   H6R 1776   3.920   5.006   4.082  0.2191 -1.1420 -2.2477
   14SAPS   C27 1777   4.030   4.927   4.259  0.2892  0.5800  0.6266
   14SAPS   H7R 1778   3.939   4.946   4.320 -0.7149  1.4424 -1.0800
   14SAPS   H7S 1779   4.114   4.965   4.321 -0.7003  0.8129  1.8734
   14SAPS   C28 1780   4.031   4.784   4.240  0.2580 -0.3180 -0.5037
   14SAPS   H8R 1781   3.992   4.757   4.140 -1.5070  1.9741 -0.5293
   14SAPS   C29 1782   4.064   4.687   4.330  0.0542  0.5909 -0.0509
   14SAPS   H9R 1783   4.056   4.582   4.297  1.1665  0.1138  1.0968
   14SAPS  C210 1784   4.074   4.710   4.483 -0.0369 -0.0082  0.7427
   14SAPS  H10R 1785   4.030   4.808   4.513 -0.7822  0.1292 -0.7097
   14SAPS  H10S 1786   4.181   4.715   4.511 -0.0402 -0.3471  0.8281
   14SAPS  C211 1787   4.008   4.600   4.565  0.0114 -0.2409  0.4143
   14SAPS  H11R 1788   3.950   4.526   4.508  0.7589  0.8110 -1.8517
   14SAPS  C212 1789   4.005   4.606   4.700 -0.2634  0.5503 -0.3234
   14SAPS  H12R 1790   3.969   4.522   4.762  1.6188 -0.3811 -0.3946
   14SAPS  C213 1791   4.065   4.724   4.781  0.4909 -0.6161  0.1891
   14SAPS  H13R 1792   3.986   4.776   4.839 -0.4261  0.2621 -1.7857
   14SAPS  H13S 1793   4.086   4.812   4.716  2.0744 -1.4948 -0.5437
   14SAPS  C214 1794   4.187   4.694   4.875  0.4602  0.4396  0.0431
   14SAPS  H14R 1795   4.287   4.696   4.829  2.0295 -0.9110  3.1197
   14SAPS  C215 1796   4.172   4.679   5.006 -0.4500 -0.0610 -0.0975
   14SAPS  H15R 1797   4.262   4.664   5.067  0.5417  1.4081 -1.1430
   14SAPS  C216 1798   4.046   4.675   5.085  0.6881  0.3249  0.2123
   14SAPS  H16R 1799   4.047   4.587   5.153  1.5344 -1.3401 -1.8468
   14SAPS  H16S 1800   3.961   4.673   5.013  2.8920  0.2543 -2.5415
   14SAPS  C217 1801   4.015   4.801   5.171 -0.9795  1.1311  0.1907
   14SAPS  H17R 1802   4.100   4.805   5.243  0.0012  1.0165 -0.9199
   14SAPS  H17S 1803   3.919   4.789   5.225 -0.4806  0.0705  0.8824
   14SAPS  C218 1804   4.008   4.928   5.087  0.7498 -0.5096  0.3608
   14SAPS  H18R 1805   3.926   4.918   5.013  2.3652 -0.4123 -1.5218
   14SAPS  H18S 1806   4.089   4.936   5.011 -1.0054 -0.0031 -1.5535
   14SAPS  C219 1807   4.007   5.058   5.171  0.3808 -0.3919 -0.2099
   14SAPS  H19R 1808   4.097   5.059   5.236  0.3610 -1.9932 -0.1215
   14SAPS  H19S 1809   3.923   5.040   5.242  0.4479  1.4222  0.3665
   14SAPS  C220 1810   3.982   5.190   5.106  0.0615  0.5578 -0.6431
   14SAPS  H20R 1811   3.961   5.271   5.178  0.0053  0.0362 -0.0668
   14SAPS  H20S 1812   3.896   5.173   5.037 -0.7453 -1.3978  0.7353
   14SAPS  H20T 1813   4.065   5.217   5.037  1.9950 -0.4346  1.1685
   14SAPS   C33 1814   4.812   4.296   4.165 -0.5806  0.7649  0.2461
   14SAPS   H3X 1815   4.702   4.309   4.174 -0.6497  0.7159 -0.4214
   14SAPS   H3Y 1816   4.875   4.373   4.214  0.2186  0.0765  0.3209
   14SAPS   C34 1817   4.839   4.169   4.246  0.0824  0.1595 -0.1595
   14SAPS   H4X 1818   4.948   4.145   4.244  0.0390 -0.4493  1.7861
   14SAPS   H4Y 1819   4.775   4.088   4.204 -0.4262  0.1827  0.5452
   14SAPS   C35 1820   4.795   4.187   4.393  0.2295 -0.7219 -0.4179
   14SAPS   H5X 1821   4.767   4.294   4.403  2.2453 -0.2461  0.7180
   14SAPS   H5Y 1822   4.883   4.179   4.461 -1.0446  1.4477  1.6477
   14SAPS   C36 1823   4.679   4.098   4.427  0.0836  0.2532  0.2267
   14SAPS   H6X 1824   4.705   3.998   4.384  0.7337  0.6350 -0.3039
   14SAPS   H6Y 1825   4.594   4.143   4.371  0.4964  3.0453  1.6736
   14SAPS   C37 1826   4.647   4.107   4.570 -0.5474 -0.1776  0.2966
   14SAPS   H7X 1827   4.606   4.210   4.576 -0.6366 -0.0459 -1.8432
   14SAPS   H7Y 1828   4.740   4.093   4.628  0.1288 -0.4622 -0.8259
   14SAPS   C38 1829   4.545   4.001   4.609 -0.0804  0.3356  0.2129
   14SAPS   H8X 1830   4.587   3.902   4.636 -2.1369 -0.4725  0.6604
   14SAPS   H8Y 1831   4.484   3.988   4.516  1.9026 -0.1221 -1.0847
   14SAPS   C39 1832   4.461   4.050   4.727 -0.2373  0.0423  0.1227
   14SAPS   H9X 1833   4.395   3.963   4.750  0.3728 -0.6395 -0.6560
   14SAPS   H9Y 1834   4.390   4.130   4.698 -2.8478 -1.3323  2.2598
   14SAPS  C310 1835   4.536   4.078   4.853  0.4182 -0.5086 -0.3192
   14SAPS  H10X 1836   4.615   4.148   4.818 -0.7668  0.7709 -0.5500
   14SAPS  H10Y 1837   4.582   3.987   4.897  0.4071 -2.0434 -3.2174
   14SAPS  C311 1838   4.450   4.150   4.963 -0.3574 -0.2848 -0.1433
   14SAPS  H11X 1839   4.407   4.244   4.922  0.9067  0.0290 -0.8194
   14SAPS  H11Y 1840   4.530   4.173   5.037 -0.1572  1.4375 -0.8674
   14SAPS  C312 1841   4.347   4.068   5.036 -0.5534 -0.1138 -0.2935
   14SAPS  H12X 1842   4.404   3.999   5.101 -1.2335 -3.3791 -2.8813
   14SAPS  H12Y 1843   4.280   4.022   4.960 -2.1987  0.3129  0.8416
   14SAPS  C313 1844   4.256   4.151   5.134  0.1796  0.3489  0.4554
   14SAPS  H13X 1845   4.226   4.246   5.085  2.0282  0.1534 -1.1742
   14SAPS  H13Y 1846   4.323   4.169   5.221  0.2922 -1.1863  0.7123
   14SAPS  C314 1847   4.131   4.071   5.167  0.3778  1.0943 -0.9012
   14SAPS  H14X 1848   4.173   3.970   5.186  1.3303  1.4274 -1.1986
   14SAPS  H14Y 1849   4.057   4.052   5.086 -1.0652 -0.4001  0.6565
   14SAPS  C315 1850   4.056   4.124   5.294 -0.2392  0.4336  0.4060
   14SAPS  H15X 1851   4.008   4.220   5.265 -2.1612 -0.6276 -0.1264
   14SAPS  H15Y 1852   4.137   4.150   5.366  1.0433 -0.9637 -0.4795
   14SAPS  C316 1853   3.962   4.023   5.354  0.5061 -1.0673  0.2616
   14SAPS  H16X 1854   4.002   3.920   5.349 -0.8824 -1.7426  2.0579
   14SAPS  H16Y 1855   3.867   4.023   5.296 -0.6107  2.1163  1.8539
   14SAPS  C317 1856   3.921   4.060   5.505 -0.4940 -0.4472  0.1270
   14SAPS  H17X 1857   3.868   4.158   5.506  1.8413  0.9351 -1.7319
   14SAPS  H17Y 1858   4.013   4.070   5.566 -0.7664  3.5137  0.1401
   14SAPS  C318 1859   3.842   3.954   5.569 -0.0583  0.1039  0.5562
   14SAPS  H18X 1860   3.893   3.857   5.591 -0.5376 -0.0149  1.1869
   14SAPS  H18Y 1861   3.764   3.926   5.494  0.7985 -0.6734 -0.0689
   14SAPS  H18Z 1862   3.804   3.993   5.666  0.1100  0.4964  0.4653
   15SAPS     N 1863   0.479   3.751   2.996 -0.5052  0.0328  0.2503
   15SAPS   HN1 1864   0.395   3.773   3.053  1.2008 -0.1180  3.0355
   15SAPS   HN2 1865   0.451   3.776   2.899  0.7126  2.9431  0.5203
   15SAPS   HN3 1866   0.504   3.651   3.007  2.1827  0.7176  1.4421
   15SAPS   C12 1867   0.595   3.834   3.033 -0.3847 -0.5969  0.8584
   15SAPS  H12A 1868   0.679   3.783   2.989 -0.2993  0.1862  0.0968
   15SAPS   C13 1869   0.600   3.977   2.977 -0.2773  0.2366  0.3812
   15SAPS  O13A 1870   0.505   4.028   2.907 -0.0475 -0.1602  0.4700
   15SAPS  O13B 1871   0.708   4.042   2.991  0.1286  0.1518  0.5775
   15SAPS   C11 1872   0.605   3.839   3.190 -0.7164 -0.5852  0.7580
   15SAPS  H11A 1873   0.510   3.879   3.232 -0.7393 -0.7464  0.8579
   15SAPS  H11B 1874   0.683   3.912   3.223 -0.8066 -0.8594  1.6033
   15SAPS     P 1875   0.744   3.639   3.284 -0.2310  0.0273 -0.1658
   15SAPS   O13 1876   0.745   3.511   3.212 -0.2455  0.5510 -0.0516
   15SAPS   O14 1877   0.859   3.730   3.271  0.1287 -0.2426  0.0602
   15SAPS   O12 1878   0.612   3.715   3.247 -0.6927  0.1367 -0.3237
   15SAPS   O11 1879   0.719   3.613   3.437 -0.6743  0.0731  0.3809
   15SAPS    C1 1880   0.658   3.721   3.513  0.1544  0.3426 -0.5107
   15SAPS    HA 1881   0.725   3.809   3.508  2.5088 -1.2019  1.2110
   15SAPS    HB 1882   0.555   3.740   3.475 -1.2214 -3.2109  0.9501
   15SAPS    C2 1883   0.634   3.701   3.668 -0.4202 -0.0999  1.1520
   15SAPS    HS 1884   0.611   3.799   3.715  1.4851  0.2460  1.4452
   15SAPS   O21 1885   0.759   3.649   3.720  0.0228 -0.4004 -0.4515
   15SAPS   C21 1886   0.859   3.736   3.729 -0.0001 -0.2739 -0.0241
   15SAPS   O22 1887   0.867   3.857   3.697 -0.2878 -0.2833 -0.0883
   15SAPS   C22 1888   0.982   3.667   3.796 -0.8302 -0.3158 -0.7793
   15SAPS   H2R 1889   1.042   3.613   3.720  1.1046  0.5268  0.1081
   15SAPS   H2S 1890   1.049   3.750   3.826  0.3541 -1.0441 -1.3715
   15SAPS    C3 1891   0.522   3.602   3.702 -0.3973  0.3434 -0.8907
   15SAPS    HX 1892   0.555   3.503   3.664 -0.2041  0.9044 -2.2312
   15SAPS    HY 1893   0.428   3.633   3.652 -2.8534 -1.2487  2.3341
   15SAPS   O31 1894   0.490   3.610   3.846  0.5295 -0.4638  0.3952
   15SAPS   C31 1895   0.488   3.503   3.914 -0.6108  0.1645  0.4095
   15SAPS   O32 1896   0.506   3.388   3.875 -0.0675  0.1319 -0.1040
   15SAPS   C32 1897   0.475   3.534   4.067 -1.0038  0.2375  0.5839
   15SAPS   H2X 1898   0.378   3.587   4.078 -0.6927  1.0576 -0.4798
   15SAPS   H2Y 1899   0.563   3.599   4.085  0.8561 -1.5352 -1.5281
   15SAPS   C23 1900   0.933   3.569   3.911  0.3730  0.1805 -0.2375
   15SAPS   H3R 1901   0.871   3.487   3.868 -0.9303  0.1014  1.6918
   15SAPS   H3S 1902   0.876   3.629   3.984 -0.3763 -1.1187  0.2790
   15SAPS   C24 1903   1.057   3.509   3.982 -0.4951  0.0094 -0.0144
   15SAPS   H4R 1904   1.131   3.476   3.906  1.3476  0.9919  1.2644
   15SAPS   H4S 1905   1.015   3.429   4.046  2.0675 -1.6294 -0.2523
   15SAPS   C25 1906   1.132   3.608   4.069  0.1337  0.3923  0.0543
   15SAPS   H5R 1907   1.202   3.675   4.017 -0.1632  0.3665 -0.3881
   15SAPS   C26 1908   1.110   3.619   4.201  0.1316 -0.0857 -0.2546
   15SAPS   H6R 1909   1.164   3.698   4.256  1.1709 -1.5644  0.9250
   15SAPS   C27 1910   1.021   3.533   4.286  0.2967 -0.5519 -0.2760
   15SAPS   H7R 1911   1.071   3.512   4.383 -1.1031 -0.8817  0.3983
   15SAPS   H7S 1912   1.000   3.436   4.238 -1.8514  0.9670 -2.6499
   15SAPS   C28 1913   0.890   3.590   4.313 -0.5678 -0.0283 -0.1753
   15SAPS   H8R 1914   0.869   3.676   4.247  0.6172  0.1637 -0.3295
   15SAPS   C29 1915   0.795   3.545   4.397 -0.8236  0.3422  0.3259
   15SAPS   H9R 1916   0.700   3.598   4.416 -3.4856 -3.8113 -0.0489
   15SAPS  C210 1917   0.822   3.423   4.485  0.2024 -0.6011  0.5679
   15SAPS  H10R 1918   0.930   3.418   4.512  0.6130 -0.1378 -0.8428
   15SAPS  H10S 1919   0.798   3.330   4.429 -0.0013 -0.4087  0.3335
   15SAPS  C211 1920   0.730   3.403   4.601  0.5014 -0.1134  0.5591
   15SAPS  H11R 1921   0.641   3.341   4.583  1.0722 -1.3471  1.7752
   15SAPS  C212 1922   0.763   3.444   4.723  0.1777  0.8809  0.6734
   15SAPS  H12R 1923   0.697   3.412   4.806  0.1309 -1.8739 -0.3258
   15SAPS  C213 1924   0.882   3.520   4.770 -0.2828 -0.0198  0.3399
   15SAPS  H13R 1925   0.970   3.457   4.741  0.1434  0.3301  0.8582
   15SAPS  H13S 1926   0.890   3.515   4.880  0.8461 -0.5622  0.2482
   15SAPS  C214 1927   0.913   3.659   4.719  0.2552  0.5291 -0.2177
   15SAPS  H14R 1928   0.960   3.668   4.620 -1.7563  0.1911 -1.2443
   15SAPS  C215 1929   0.905   3.764   4.791 -0.5558  0.3567  0.3002
   15SAPS  H15R 1930   0.924   3.860   4.740 -1.3209  0.9063  1.0198
   15SAPS  C216 1931   0.852   3.769   4.934 -0.1092 -0.0443 -0.5647
   15SAPS  H16R 1932   0.806   3.672   4.964 -0.9139 -0.4370 -2.8760
   15SAPS  H16S 1933   0.769   3.843   4.938 -0.6809 -0.7207  1.8283
   15SAPS  C217 1934   0.967   3.813   5.032 -0.2744 -0.3236  0.6143
   15SAPS  H17R 1935   0.933   3.793   5.135  0.6174 -2.5143  0.5343
   15SAPS  H17S 1936   0.999   3.920   5.031 -0.4432 -0.2386  2.2374
   15SAPS  C218 1937   1.093   3.731   5.030 -0.7708  0.5870 -0.2923
   15SAPS  H18R 1938   1.154   3.756   4.941 -1.0440 -1.2740 -1.0329
   15SAPS  H18S 1939   1.082   3.621   5.033  0.9631  0.3709 -0.6704
   15SAPS  C219 1940   1.193   3.764   5.144  0.6589 -0.0911  0.3551
   15SAPS  H19R 1941   1.130   3.744   5.233 -0.9255 -1.0213 -0.9117
   15SAPS  H19S 1942   1.206   3.875   5.140  1.2648 -0.0742  1.9315
   15SAPS  C220 1943   1.314   3.676   5.149 -0.5022  0.0140  0.1768
   15SAPS  H20R 1944   1.373   3.695   5.241 -1.0636  1.5571  0.2602
   15SAPS  H20S 1945   1.377   3.686   5.058 -3.5311  0.6822 -2.0331
   15SAPS  H20T 1946   1.287   3.568   5.153 -0.0123 -0.1490 -0.6874
   15SAPS   C33 1947   0.467   3.405   4.151  0.5340 -0.4194  0.7102
   15SAPS   H3X 1948   0.554   3.338   4.140  0.2440 -0.9563  1.5213
   15SAPS   H3Y 1949   0.382   3.338   4.126  1.0691 -1.1899  0.9212
   15SAPS   C34 1950   0.443   3.423   4.304  0.1187  0.2618  0.7613
   15SAPS   H4X 1951   0.519   3.491   4.347  0.7577  1.9446 -2.6434
   15SAPS   H4Y 1952   0.451   3.321   4.346  1.3882 -1.7602 -3.8174
   15SAPS   C35 1953   0.299   3.472   4.338  0.1162 -0.3084 -0.1862
   15SAPS   H5X 1954   0.226   3.408   4.283 -0.5765  0.4591 -0.1637
   15SAPS   H5Y 1955   0.302   3.582   4.321  0.9522 -0.0933  1.2283
   15SAPS   C36 1956   0.268   3.457   4.485  0.6441  1.0198  0.2533
   15SAPS   H6X 1957   0.273   3.348   4.510  1.1238  1.0812  0.4494
   15SAPS   H6Y 1958   0.169   3.501   4.506  0.1520  0.8844 -1.6278
   15SAPS   C37 1959   0.369   3.528   4.576 -0.6640  0.8306 -0.3710
   15SAPS   H7X 1960   0.403   3.626   4.537  0.9873  0.6126  0.3969
   15SAPS   H7Y 1961   0.467   3.474   4.581 -1.0892  0.0251 -0.5632
   15SAPS   C38 1962   0.310   3.543   4.715 -0.0162  0.4221 -0.5015
   15SAPS   H8X 1963   0.265   3.449   4.752 -0.2836  1.3074  1.5666
   15SAPS   H8Y 1964   0.230   3.620   4.720  0.8241  1.2748  4.3970
   15SAPS   C39 1965   0.419   3.589   4.814 -0.3472 -0.0193  0.2826
   15SAPS   H9X 1966   0.481   3.671   4.774  3.1753 -3.0688 -1.1054
   15SAPS   H9Y 1967   0.484   3.500   4.827  1.4490  1.5428  3.0533
   15SAPS  C310 1968   0.366   3.617   4.956  0.4964 -0.1562 -0.0935
   15SAPS  H10X 1969   0.286   3.542   4.972 -0.3475  0.6317 -0.5524
   15SAPS  H10Y 1970   0.319   3.717   4.949  1.5194  0.3589  0.0937
   15SAPS  C311 1971   0.467   3.637   5.070  0.4630  0.2434  0.8219
   15SAPS  H11X 1972   0.409   3.681   5.154 -0.1891  1.7222 -0.3608
   15SAPS  H11Y 1973   0.533   3.715   5.027  2.5337 -1.5379  0.5797
   15SAPS  C312 1974   0.554   3.515   5.097 -0.5567  0.0394 -0.5538
   15SAPS  H12X 1975   0.634   3.510   5.020  0.9188  1.8972  0.7770
   15SAPS  H12Y 1976   0.500   3.418   5.090 -0.3390 -0.0581 -0.9652
   15SAPS  C313 1977   0.618   3.529   5.234 -0.1097  0.7411 -0.0577
   15SAPS  H13X 1978   0.539   3.491   5.301 -0.8435  0.9026 -0.8124
   15SAPS  H13Y 1979   0.646   3.633   5.261 -0.8221  0.8711  0.1954
   15SAPS  C314 1980   0.748   3.446   5.237  0.3466  0.1584  0.0343
   15SAPS  H14X 1981   0.799   3.477   5.144 -0.8491 -1.1744 -1.1044
   15SAPS  H14Y 1982   0.724   3.338   5.222  0.5487 -0.2389  2.2002
   15SAPS  C315 1983   0.832   3.475   5.368  0.6192 -1.1329  0.7688
   15SAPS  H15X 1984   0.880   3.574   5.354 -0.8511 -0.7045 -2.0914
   15SAPS  H15Y 1985   0.909   3.395   5.376 -0.3569 -1.9578  2.5283
   15SAPS  C316 1986   0.745   3.479   5.496  0.4805 -0.3066 -0.3103
   15SAPS  H16X 1987   0.661   3.407   5.483  0.3030  0.2661 -3.0148
   15SAPS  H16Y 1988   0.706   3.579   5.525 -1.6524 -1.7005  2.0213
   15SAPS  C317 1989   0.824   3.416   5.621  0.3784 -0.2592 -0.7377
   15SAPS  H17X 1990   0.923   3.466   5.625  0.3343 -0.1555 -0.9436
   15SAPS  H17Y 1991   0.845   3.309   5.602  4.4054 -0.3582  2.6081
   15SAPS  C318 1992   0.760   3.423   5.754 -0.7778  0.4328  0.0981
   15SAPS  H18X 1993   0.766   3.526   5.795  2.7286  0.1837  0.5080
   15SAPS  H18Y 1994   0.809   3.357   5.829  1.0502  3.4769  1.7854
   15SAPS  H18Z 1995   0.655   3.390   5.744  0.1189 -1.9348 -4.0197
   16SAPS     N 1996   2.912   5.221   2.767  0.7817  0.2577  0.2425
   16SAPS   HN1 1997   2.851   5.142   2.797  1.5546  0.1138  1.5035
   16SAPS   HN2 1998   2.868   5.275   2.690 -0.2974 -0.4046  0.3767
   16SAPS   HN3 1999   2.999   5.171   2.739 -0.4497 -1.7930 -0.1655
   16SAPS   C12 2000   2.957   5.315   2.873 -0.1724 -0.0076  0.3377
   16SAPS  H12A 2001   3.049   5.361   2.841 -0.0995  0.6206  1.4175
   16SAPS   C13 2002   2.853   5.423   2.905 -0.3797  0.3182 -0.3538
   16SAPS  O13A 2003   2.739   5.416   2.850  0.1987 -0.5583  0.0195
   16SAPS  O13B 2004   2.881   5.517   2.987  0.4141  0.1929  0.4225
   16SAPS   C11 2005   2.984   5.230   3.007  0.0595 -0.1594  0.1222
   16SAPS  H11A 2006   2.886   5.184   3.033  0.8706 -2.1154 -0.0919
   16SAPS  H11B 2007   3.021   5.301   3.084  1.2928 -1.3638  0.6855
   16SAPS     P 2008   3.054   4.971   3.023  0.1882 -0.1387  0.0539
   16SAPS   O13 2009   2.936   4.911   2.956  0.8277 -0.5467 -0.4461
   16SAPS   O14 2010   3.179   4.894   3.013  0.1849 -0.5128  0.5927
   16SAPS   O12 2011   3.080   5.126   2.980  0.5966 -0.1218 -0.2619
   16SAPS   O11 2012   3.028   4.997   3.177 -0.8168 -0.1697  0.1977
   16SAPS    C1 2013   3.134   5.000   3.268 -0.3870  0.1226  0.4696
   16SAPS    HA 2014   3.195   4.907   3.263 -0.8082 -0.2138  1.3291
   16SAPS    HB 2015   3.215   5.066   3.233  0.0597 -0.0760  1.1167
   16SAPS    C2 2016   3.106   5.036   3.418  0.3265 -0.5313 -0.2128
   16SAPS    HS 2017   3.193   4.999   3.477 -0.5169  0.5854  1.8598
   16SAPS   O21 2018   2.985   4.977   3.478 -0.4543 -0.1883  0.0043
   16SAPS   C21 2019   2.992   4.845   3.478  0.3710 -0.1354 -0.1843
   16SAPS   O22 2020   3.078   4.777   3.427 -0.4507  0.1646  0.1321
   16SAPS   C22 2021   2.856   4.791   3.525 -0.2960  0.4553 -0.9081
   16SAPS   H2R 2022   2.796   4.880   3.552  0.0718  0.3726  0.2193
   16SAPS   H2S 2023   2.801   4.754   3.436 -1.2492 -0.1973 -0.0588
   16SAPS    C3 2024   3.095   5.190   3.431 -0.2334  0.1940 -0.0794
   16SAPS    HX 2025   3.020   5.243   3.368  0.5765  0.6871 -0.6474
   16SAPS    HY 2026   3.192   5.229   3.393  0.7102 -0.9997  1.0322
   16SAPS   O31 2027   3.093   5.220   3.570 -0.3214 -0.1299  0.3062
   16SAPS   C31 2028   2.988   5.287   3.613  0.5932 -0.6539 -0.7000
   16SAPS   O32 2029   2.900   5.332   3.542 -0.6975  0.6469  0.1228
   16SAPS   C32 2030   2.999   5.307   3.763 -0.2203  0.5792 -0.1432
   16SAPS   H2X 2031   2.994   5.415   3.789  0.6885  0.4992  0.4221
   16SAPS   H2Y 2032   3.102   5.279   3.794 -0.1528  1.6124  0.6021
   16SAPS   C23 2033   2.868   4.691   3.647  0.1323  0.0620  0.5691
   16SAPS   H3R 2034   2.935   4.613   3.606  0.8166  0.0521  1.6518
   16SAPS   H3S 2035   2.766   4.656   3.674  0.4943  0.5398  2.8046
   16SAPS   C24 2036   2.932   4.755   3.777  0.7318 -0.8757 -0.1326
   16SAPS   H4R 2037   3.041   4.777   3.774  0.8964 -1.6271  0.1828
   16SAPS   H4S 2038   2.942   4.676   3.854  1.6302 -0.2262  0.4440
   16SAPS   C25 2039   2.838   4.868   3.818 -0.4051 -0.5289  1.2364
   16SAPS   H5R 2040   2.844   4.958   3.756  0.4005 -0.7946  0.9149
   16SAPS   C26 2041   2.752   4.870   3.915 -0.0333  0.5723 -0.0400
   16SAPS   H6R 2042   2.694   4.963   3.928 -0.7852 -0.0603  1.2977
   16SAPS   C27 2043   2.722   4.762   4.019 -0.2230 -0.6047 -0.2841
   16SAPS   H7R 2044   2.798   4.682   4.017  0.7220  0.2294  0.7157
   16SAPS   H7S 2045   2.622   4.723   3.989 -0.7554  2.6614 -3.5437
   16SAPS   C28 2046   2.729   4.812   4.161  0.4382  0.4458  0.4921
   16SAPS   H8R 2047   2.819   4.778   4.215  1.5194 -2.3806 -2.7277
   16SAPS   C29 2048   2.625   4.877   4.224 -1.3220  0.3480  0.2750
   16SAPS   H9R 2049   2.637   4.902   4.330  0.1684 -2.3600  0.8265
   16SAPS  C210 2050   2.499   4.937   4.156 -0.9501 -0.8227  0.1684
   16SAPS  H10R 2051   2.519   4.956   4.048  3.5508  2.8693  1.3128
   16SAPS  H10S 2052   2.495   5.044   4.186  0.9411 -0.5966 -0.2304
   16SAPS  C211 2053   2.367   4.871   4.178  0.0923 -0.3004 -0.4830
   16SAPS  H11R 2054   2.324   4.801   4.105  0.8619 -1.7186  0.3825
   16SAPS  C212 2055   2.289   4.895   4.286 -0.3753  0.9010 -0.0602
   16SAPS  H12R 2056   2.191   4.847   4.300 -0.8519  2.4281  2.3706
   16SAPS  C213 2057   2.316   4.975   4.402 -0.4227 -0.2422  0.0117
   16SAPS  H13R 2058   2.261   5.072   4.404  0.7970  0.4680  1.4713
   16SAPS  H13S 2059   2.421   5.013   4.401 -0.0446 -1.2622 -0.8737
   16SAPS  C214 2060   2.324   4.898   4.532 -0.7395  0.7232 -0.4354
   16SAPS  H14R 2061   2.415   4.837   4.541 -1.8559 -0.8340  0.7043
   16SAPS  C215 2062   2.231   4.883   4.629  0.7473 -0.5928  0.0665
   16SAPS  H15R 2063   2.272   4.831   4.717  3.2734 -1.2256 -1.3723
   16SAPS  C216 2064   2.088   4.929   4.639 -0.2073 -0.0278  0.5529
   16SAPS  H16R 2065   2.065   5.025   4.587  0.7362 -1.0860 -1.9922
   16SAPS  H16S 2066   2.052   4.916   4.743 -0.9592 -2.6527  0.0409
   16SAPS  C217 2067   1.995   4.823   4.571  0.2771  0.5762  0.0217
   16SAPS  H17R 2068   2.029   4.721   4.599 -0.1574  0.9013  1.8221
   16SAPS  H17S 2069   2.015   4.837   4.462  1.3964 -0.0773  0.1266
   16SAPS  C218 2070   1.850   4.844   4.601  0.0971 -0.0428  0.6511
   16SAPS  H18R 2071   1.823   4.951   4.586 -2.8670 -0.9390 -1.3603
   16SAPS  H18S 2072   1.831   4.812   4.706 -2.9268 -2.1253 -0.3879
   16SAPS  C219 2073   1.757   4.767   4.521 -0.3105 -0.6997 -0.1862
   16SAPS  H19R 2074   1.762   4.663   4.562  0.1361 -0.2504  0.9614
   16SAPS  H19S 2075   1.798   4.764   4.418  0.5119 -0.9516  0.1354
   16SAPS  C220 2076   1.618   4.811   4.522  0.0025  0.5127 -0.1650
   16SAPS  H20R 2077   1.598   4.906   4.466  0.7822  1.2099  0.7121
   16SAPS  H20S 2078   1.585   4.831   4.626 -1.6571 -0.5671 -0.4415
   16SAPS  H20T 2079   1.547   4.729   4.499 -0.3892  0.9118 -0.4262
   16SAPS   C33 2080   2.887   5.231   3.843 -0.4772  0.0898 -0.0788
   16SAPS   H3X 2081   2.900   5.121   3.833 -1.1015 -0.1259  1.2732
   16SAPS   H3Y 2082   2.790   5.252   3.793 -0.9483  0.3940  0.9425
   16SAPS   C34 2083   2.886   5.274   3.991  0.1861 -0.2098  0.2889
   16SAPS   H4X 2084   2.867   5.383   3.984  2.0931  0.0564 -2.2926
   16SAPS   H4Y 2085   2.984   5.256   4.040  0.2304  1.2755  0.7803
   16SAPS   C35 2086   2.782   5.202   4.081 -0.1249  0.9200  0.0126
   16SAPS   H5X 2087   2.810   5.095   4.096 -1.8687  0.2220 -1.2903
   16SAPS   H5Y 2088   2.688   5.217   4.024  0.7508  0.4988 -1.6023
   16SAPS   C36 2089   2.759   5.250   4.224 -0.0481  0.2648  0.0387
   16SAPS   H6X 2090   2.660   5.215   4.260  0.9572 -1.2596  1.4635
   16SAPS   H6Y 2091   2.748   5.360   4.218 -1.3975  0.1927  0.8304
   16SAPS   C37 2092   2.867   5.207   4.321 -0.4588  0.0983  0.4393
   16SAPS   H7X 2093   2.967   5.251   4.300 -0.5047  0.4242  0.8827
   16SAPS   H7Y 2094   2.876   5.098   4.300  0.3396  0.1987  0.1998
   16SAPS   C38 2095   2.834   5.227   4.468  0.6230  1.1440 -0.1919
   16SAPS   H8X 2096   2.783   5.324   4.483 -0.6527  0.4245  0.3820
   16SAPS   H8Y 2097   2.920   5.224   4.538 -1.3311 -3.2290  2.4275
   16SAPS   C39 2098   2.752   5.107   4.518  0.0140 -0.2520 -0.0111
   16SAPS   H9X 2099   2.815   5.019   4.493 -0.6077 -0.6129 -0.3336
   16SAPS   H9Y 2100   2.657   5.097   4.461  0.4222 -1.5464 -0.4838
   16SAPS  C310 2101   2.725   5.126   4.676 -0.0789 -0.2748  0.5104
   16SAPS  H10X 2102   2.682   5.227   4.695 -0.7569 -0.9671  3.1526
   16SAPS  H10Y 2103   2.826   5.122   4.722  2.0303 -3.1569 -3.7976
   16SAPS  C311 2104   2.618   5.027   4.727 -0.5220 -0.1113  1.4953
   16SAPS  H11X 2105   2.652   4.929   4.688 -1.5795  0.7746 -2.0218
   16SAPS  H11Y 2106   2.520   5.045   4.679  0.9959  1.0649 -1.4827
   16SAPS  C312 2107   2.604   5.021   4.877 -0.0084 -0.4195  0.3541
   16SAPS  H12X 2108   2.572   5.115   4.929  0.4933  1.2076 -2.0905
   16SAPS  H12Y 2109   2.705   5.009   4.922  0.7187  0.0341 -1.0883
   16SAPS  C313 2110   2.524   4.900   4.931  0.3770  0.1817 -0.5150
   16SAPS  H13X 2111   2.540   4.800   4.886  2.2184  0.2473 -0.0674
   16SAPS  H13Y 2112   2.416   4.924   4.919 -0.1240 -2.1974 -1.4888
   16SAPS  C314 2113   2.541   4.881   5.084  0.3075 -0.1251  0.2257
   16SAPS  H14X 2114   2.522   4.983   5.124  1.5865  0.4224 -0.5187
   16SAPS  H14Y 2115   2.642   4.852   5.118  0.5105 -0.7635 -0.8832
   16SAPS  C315 2116   2.443   4.766   5.155 -0.2460  0.7349  0.7564
   16SAPS  H15X 2117   2.433   4.694   5.071 -0.4913  0.0502  1.3654
   16SAPS  H15Y 2118   2.344   4.815   5.169  0.0009  2.4203 -2.3878
   16SAPS  C316 2119   2.507   4.694   5.271 -0.0960  0.5471 -0.2717
   16SAPS  H16X 2120   2.509   4.772   5.350 -1.9603  0.5496 -0.1735
   16SAPS  H16Y 2121   2.603   4.647   5.241  0.4524  2.0170 -0.9341
   16SAPS  C317 2122   2.407   4.588   5.331 -0.2665  0.1930 -0.4238
   16SAPS  H17X 2123   2.329   4.630   5.398 -0.4133  3.2302 -2.2957
   16SAPS  H17Y 2124   2.475   4.527   5.393  2.0009 -0.0461 -2.9797
   16SAPS  C318 2125   2.355   4.484   5.238  0.1184  0.1730 -0.2550
   16SAPS  H18X 2126   2.303   4.405   5.295 -0.4130  0.3382 -0.5065
   16SAPS  H18Y 2127   2.443   4.452   5.178  3.3289  1.5138  3.3998
   16SAPS  H18Z 2128   2.284   4.536   5.170  0.7820  1.6145  0.1203
   17SAPS     N 2129   6.648   2.091   3.524  0.2733 -1.0720  0.1335
   17SAPS   HN1 2130   6.680   1.993   3.511  1.3976 -0.8171  0.9082
   17SAPS   HN2 2131   6.614   2.106   3.621 -0.1528  1.6009 -0.3556
   17SAPS   HN3 2132   6.566   2.102   3.461 -0.1753 -0.8489  0.7523
   17SAPS   C12 2133   6.762   2.176   3.501 -0.5923 -0.1445  0.4079
   17SAPS  H12A 2134   6.795   2.169   3.398  0.9790 -1.2237  0.9628
   17SAPS   C13 2135   6.759   2.329   3.531  0.7744  0.4598 -0.3530
   17SAPS  O13A 2136   6.640   2.377   3.517 -0.1001 -0.1077  0.3083
   17SAPS  O13B 2137   6.862   2.394   3.509  0.2441  0.4587  0.5961
   17SAPS   C11 2138   6.872   2.124   3.596 -0.8197 -0.8306 -0.7686
   17SAPS  H11A 2139   6.862   2.146   3.704 -1.7084 -0.7023 -0.8698
   17SAPS  H11B 2140   6.964   2.172   3.554  0.0391 -0.9520  0.9132
   17SAPS     P 2141   7.036   1.910   3.588 -0.0180  0.1154  0.3742
   17SAPS   O13 2142   7.007   1.770   3.620 -0.1874  0.0087 -0.3304
   17SAPS   O14 2143   7.121   1.927   3.472  0.6464  0.2580 -0.1123
   17SAPS   O12 2144   6.896   1.985   3.574 -0.2433  0.8140  0.0911
   17SAPS   O11 2145   7.101   1.981   3.705  0.0812  0.3220 -0.6480
   17SAPS    C1 2146   7.224   1.939   3.773  0.5301 -0.3007  0.2472
   17SAPS    HA 2147   7.264   1.841   3.738  1.1723  0.6087 -1.7358
   17SAPS    HB 2148   7.300   2.019   3.757  0.3377 -0.2849 -0.6551
   17SAPS    C2 2149   7.201   1.924   3.927  0.5641  0.5961  0.0992
   17SAPS    HS 2150   7.142   1.831   3.946  0.2430  1.0676  1.5496
   17SAPS   O21 2151   7.134   2.040   3.986  0.2845  0.0051  0.0873
   17SAPS   C21 2152   7.004   2.042   3.992 -0.4420 -0.0139  0.3534
   17SAPS   O22 2153   6.930   1.954   3.952 -0.1722 -0.1099 -0.2809
   17SAPS   C22 2154   6.952   2.165   4.066 -0.2896 -0.3496 -0.0549
   17SAPS   H2R 2155   7.029   2.195   4.141  0.3429 -1.8380 -0.0808
   17SAPS   H2S 2156   6.964   2.247   3.992  2.1918 -1.6918 -1.2634
   17SAPS    C3 2157   7.337   1.904   3.995  0.0031  0.4451 -0.6778
   17SAPS    HX 2158   7.409   1.969   3.941  0.3281  1.6271  1.0779
   17SAPS    HY 2159   7.372   1.800   3.979 -0.8322 -0.2939  1.7465
   17SAPS   O31 2160   7.327   1.936   4.137 -0.6936 -0.0226  0.1704
   17SAPS   C31 2161   7.379   2.051   4.162 -0.1880  0.0954  0.4637
   17SAPS   O32 2162   7.415   2.138   4.084  0.4511 -0.3545  0.1369
   17SAPS   C32 2163   7.387   2.055   4.319 -0.2711  0.1158  0.4953
   17SAPS   H2X 2164   7.448   1.969   4.354  1.5317  0.5723 -1.3019
   17SAPS   H2Y 2165   7.284   2.030   4.350 -0.8547  0.6895 -0.8995
   17SAPS   C23 2166   6.811   2.161   4.122  0.5356  0.5016  0.0266
   17SAPS   H3R 2167   6.755   2.080   4.070  0.7387 -0.5037  1.2947
   17SAPS   H3S 2168   6.761   2.260   4.119 -0.7389 -0.0135  2.0253
   17SAPS   C24 2169   6.818   2.125   4.270 -0.2729  0.2583 -0.3442
   17SAPS   H4R 2170   6.710   2.132   4.295  0.1999 -0.4069  2.2124
   17SAPS   H4S 2171   6.862   2.214   4.320  0.6178  0.2930 -1.1479
   17SAPS   C25 2172   6.872   1.995   4.324  0.7682  0.1082 -0.1274
   17SAPS   H5R 2173   6.839   1.909   4.264  1.5053 -1.3639  1.4978
   17SAPS   C26 2174   6.963   1.967   4.418  0.5951  0.0840 -0.5939
   17SAPS   H6R 2175   6.984   1.864   4.452  0.2486  0.3004  0.2840
   17SAPS   C27 2176   7.024   2.071   4.504  0.4296  0.3185 -0.5030
   17SAPS   H7R 2177   7.045   2.164   4.447 -0.4392  1.5921  1.1741
   17SAPS   H7S 2178   7.129   2.043   4.529 -0.1592  0.7892  2.9774
   17SAPS   C28 2179   6.953   2.093   4.635  0.6272  0.0641 -0.0609
   17SAPS   H8R 2180   6.856   2.144   4.639  0.0262 -1.0314 -0.0361
   17SAPS   C29 2181   6.999   2.057   4.760  0.3272 -0.3042  0.6666
   17SAPS   H9R 2182   6.933   2.068   4.847 -0.7200  0.1913 -0.1595
   17SAPS  C210 2183   7.126   1.992   4.801 -0.0294 -1.1192  0.0594
   17SAPS  H10R 2184   7.191   1.961   4.716  2.3340  1.1576  0.9102
   17SAPS  H10S 2185   7.091   1.897   4.848 -1.2817 -1.7336 -1.9511
   17SAPS  C211 2186   7.208   2.078   4.889 -0.3821  0.1628  0.7173
   17SAPS  H11R 2187   7.237   2.170   4.838 -0.6628  0.5340  1.2190
   17SAPS  C212 2188   7.251   2.058   5.020 -0.1673 -0.0905 -0.1287
   17SAPS  H12R 2189   7.304   2.138   5.074 -1.7944 -0.3206  1.9418
   17SAPS  C213 2190   7.221   1.941   5.110  0.6369  0.0330 -0.4836
   17SAPS  H13R 2191   7.285   1.855   5.080  1.4527  0.2672  0.5371
   17SAPS  H13S 2192   7.117   1.910   5.089 -0.2848  2.5867 -0.0574
   17SAPS  C214 2193   7.238   1.966   5.257 -0.8070 -0.4064 -0.2857
   17SAPS  H14R 2194   7.292   1.884   5.307 -1.1029  0.8439  2.2698
   17SAPS  C215 2195   7.201   2.069   5.337  0.5454 -0.1066  0.4001
   17SAPS  H15R 2196   7.225   2.067   5.445 -0.0313  0.1283  0.5376
   17SAPS  C216 2197   7.113   2.188   5.305 -0.1235 -0.2661  0.1625
   17SAPS  H16R 2198   7.033   2.172   5.230  1.3366  0.1659 -1.5614
   17SAPS  H16S 2199   7.167   2.276   5.264  2.7830 -0.9387  2.1676
   17SAPS  C217 2200   7.046   2.240   5.439  0.1260  0.1036  0.4887
   17SAPS  H17R 2201   7.117   2.274   5.517 -1.6030  2.3548  1.2214
   17SAPS  H17S 2202   6.976   2.160   5.470 -0.7226  0.4658 -0.4139
   17SAPS  C218 2203   6.966   2.365   5.413  0.1492 -0.0290 -0.1741
   17SAPS  H18R 2204   6.887   2.341   5.340 -0.6165 -1.8114  1.1604
   17SAPS  H18S 2205   7.033   2.451   5.391  0.2686 -0.1025 -0.1019
   17SAPS  C219 2206   6.889   2.412   5.536  0.2086 -0.2465  0.1034
   17SAPS  H19R 2207   6.819   2.331   5.565 -1.4578  0.5685 -1.4229
   17SAPS  H19S 2208   6.824   2.500   5.513 -0.8031 -0.4759  1.8819
   17SAPS  C220 2209   6.973   2.449   5.662 -0.1557 -0.5181 -0.4451
   17SAPS  H20R 2210   7.051   2.372   5.683  2.6967  2.5447  1.2257
   17SAPS  H20S 2211   6.912   2.461   5.754 -1.0001 -0.7100 -0.9705
   17SAPS  H20T 2212   7.025   2.547   5.652  0.1926 -0.5779  0.6575
   17SAPS   C33 2213   7.443   2.184   4.379 -0.1971  0.4022  0.2248
   17SAPS   H3X 2214   7.395   2.273   4.332 -0.7432 -0.1859 -0.3462
   17SAPS   H3Y 2215   7.549   2.196   4.349  0.5179 -4.1614  0.2672
   17SAPS   C34 2216   7.420   2.192   4.529 -0.4647 -0.0041 -0.1361
   17SAPS   H4X 2217   7.311   2.184   4.545 -1.2282  2.3391 -3.0632
   17SAPS   H4Y 2218   7.452   2.290   4.570 -2.0074  0.2366  0.5542
   17SAPS   C35 2219   7.503   2.078   4.602 -0.7325 -0.5092  0.1701
   17SAPS   H5X 2220   7.593   2.055   4.541 -1.4348 -2.0829 -0.3057
   17SAPS   H5Y 2221   7.438   1.989   4.612  0.1475 -1.0572  1.2680
   17SAPS   C36 2222   7.550   2.119   4.742 -0.1554 -0.4565  0.6045
   17SAPS   H6X 2223   7.470   2.173   4.798 -0.7971 -0.8853  0.1190
   17SAPS   H6Y 2224   7.635   2.189   4.730  0.3085 -1.0295  0.4900
   17SAPS   C37 2225   7.587   1.993   4.812  0.3214 -0.1244  0.2668
   17SAPS   H7X 2226   7.660   1.936   4.751 -0.5641 -2.3743  1.1808
   17SAPS   H7Y 2227   7.495   1.932   4.825 -0.0538  0.4334  0.2775
   17SAPS   C38 2228   7.643   2.020   4.951  0.1023 -0.5315  1.2609
   17SAPS   H8X 2229   7.586   2.112   4.977  1.1337  0.4331  0.2019
   17SAPS   H8Y 2230   7.750   2.049   4.939  0.1160 -0.8862  0.4508
   17SAPS   C39 2231   7.622   1.916   5.055  0.4277  0.3088  0.1914
   17SAPS   H9X 2232   7.695   1.836   5.031 -0.2194 -0.2656  0.1043
   17SAPS   H9Y 2233   7.521   1.873   5.038  0.1876  0.3078  1.5160
   17SAPS  C310 2234   7.655   1.981   5.191  0.3079  0.1716 -1.5654
   17SAPS  H10X 2235   7.580   2.061   5.209  0.4100 -0.1965  0.7555
   17SAPS  H10Y 2236   7.753   2.033   5.198  0.5671 -0.5298  3.4693
   17SAPS  C311 2237   7.628   1.880   5.306 -0.1208 -0.5985  0.5836
   17SAPS  H11X 2238   7.661   1.779   5.274 -2.4144 -0.6149 -2.2406
   17SAPS  H11Y 2239   7.519   1.863   5.325 -0.3149 -0.4453 -0.3265
   17SAPS  C312 2240   7.705   1.916   5.438  0.1281 -0.5499  0.1143
   17SAPS  H12X 2241   7.815   1.905   5.423  0.1774 -1.4857  1.0895
   17SAPS  H12Y 2242   7.673   1.848   5.519  0.7106  2.4076  3.0554
   17SAPS  C313 2243   7.671   2.059   5.498 -0.3633  0.5527 -0.2674
   17SAPS  H13X 2244   7.695   2.132   5.418  1.9513 -0.6289 -0.7675
   17SAPS  H13Y 2245   7.750   2.076   5.574 -1.4090  2.5698  0.4158
   17SAPS  C314 2246   7.537   2.089   5.558 -0.0095 -0.2804 -0.3250
   17SAPS  H14X 2247   7.467   2.074   5.472  0.7828 -1.6782 -0.7557
   17SAPS  H14Y 2248   7.532   2.190   5.603 -2.6432 -1.1083  1.5052
   17SAPS  C315 2249   7.490   2.003   5.671 -0.4123  0.1547  0.4946
   17SAPS  H15X 2250   7.574   1.999   5.743 -0.8702  3.0486  1.3004
   17SAPS  H15Y 2251   7.458   1.901   5.640 -1.5747  0.9083 -0.9021
   17SAPS  C316 2252   7.369   2.064   5.747 -0.3022 -0.4769 -0.1991
   17SAPS  H16X 2253   7.286   2.060   5.673  0.5014 -1.8523 -1.0824
   17SAPS  H16Y 2254   7.395   2.169   5.773 -0.5346 -0.8532  1.6618
   17SAPS  C317 2255   7.335   1.984   5.872  0.4407  0.3772  0.1185
   17SAPS  H17X 2256   7.411   1.998   5.952  0.8650  0.5984 -0.3153
   17SAPS  H17Y 2257   7.346   1.880   5.837 -0.5364  1.6315 -4.5986
   17SAPS  C318 2258   7.196   2.020   5.927  0.0138  0.8155 -0.4000
   17SAPS  H18X 2259   7.162   1.946   6.003 -1.4374  2.3316  0.4923
   17SAPS  H18Y 2260   7.122   2.024   5.845  1.7181 -1.6674 -2.2160
   17SAPS  H18Z 2261   7.200   2.123   5.967  1.5237  0.6377 -0.0526
   18SAPS     N 2262   5.957   1.958   3.576  0.4449  0.4960 -0.1413
   18SAPS   HN1 2263   5.901   2.031   3.625  0.8427  0.6238  0.1274
   18SAPS   HN2 2264   6.058   1.978   3.590  0.6006 -1.2283  1.8016
   18SAPS   HN3 2265   5.941   1.958   3.474  2.6054 -1.1695 -0.5651
   18SAPS   C12 2266   5.940   1.813   3.630  1.3130 -0.0174 -0.3391
   18SAPS  H12A 2267   5.834   1.790   3.635  0.6102  2.6138 -1.2014
   18SAPS   C13 2268   5.994   1.708   3.528  0.2826 -0.0221  0.4370
   18SAPS  O13A 2269   6.031   1.744   3.411  1.1226  0.2034 -0.0821
   18SAPS  O13B 2270   5.959   1.591   3.553 -0.1905 -0.3220 -0.1895
   18SAPS   C11 2271   6.012   1.794   3.765  0.4732  1.0999 -0.0789
   18SAPS  H11A 2272   6.120   1.811   3.744  0.4599  0.1867 -0.9562
   18SAPS  H11B 2273   6.016   1.688   3.799  0.3722  1.3148  0.6073
   18SAPS     P 2274   5.875   1.863   3.971 -0.1496  0.5395  0.2674
   18SAPS   O13 2275   5.892   1.960   4.080 -0.3829 -0.4909  0.0871
   18SAPS   O14 2276   5.742   1.832   3.912  0.4466  0.2853  0.0509
   18SAPS   O12 2277   5.981   1.896   3.866 -0.1006  0.0633 -0.0694
   18SAPS   O11 2278   5.925   1.722   4.022  0.4900 -0.6976 -0.7075
   18SAPS    C1 2279   6.059   1.717   4.077  0.7693  0.4550  0.2942
   18SAPS    HA 2280   6.118   1.639   4.023 -0.7944 -0.3538 -0.3336
   18SAPS    HB 2281   6.115   1.812   4.074 -0.4943  1.3077  1.9487
   18SAPS    C2 2282   6.057   1.670   4.226  0.3252  0.3576  1.3899
   18SAPS    HS 2283   6.159   1.631   4.247  1.6870  2.4752 -0.6903
   18SAPS   O21 2284   5.948   1.573   4.248 -0.6032  0.6677 -0.0944
   18SAPS   C21 2285   5.963   1.451   4.192  0.8560 -0.1708 -0.5324
   18SAPS   O22 2286   6.066   1.407   4.141 -0.2102  0.3188  0.1340
   18SAPS   C22 2287   5.832   1.365   4.206 -0.2281 -0.1915 -0.3594
   18SAPS   H2R 2288   5.762   1.404   4.282 -0.6868 -0.3482 -0.6999
   18SAPS   H2S 2289   5.779   1.378   4.110  0.3815  1.0972 -0.5535
   18SAPS    C3 2290   6.028   1.791   4.323 -0.2958  0.5027  0.0152
   18SAPS    HX 2291   5.923   1.825   4.310 -0.9504 -1.0815  0.8320
   18SAPS    HY 2292   6.099   1.872   4.295  0.9253 -0.1748  1.0238
   18SAPS   O31 2293   6.060   1.747   4.456 -0.2733 -0.4505 -0.5923
   18SAPS   C31 2294   6.015   1.820   4.550  0.2050 -0.3877 -0.0687
   18SAPS   O32 2295   5.937   1.915   4.529  0.3099  0.4490 -0.1044
   18SAPS   C32 2296   6.062   1.764   4.684  0.8610  0.5118 -0.3863
   18SAPS   H2X 2297   6.119   1.669   4.675  0.6500  0.4521 -1.1342
   18SAPS   H2Y 2298   5.966   1.745   4.736  1.6676 -0.5778  0.7811
   18SAPS   C23 2299   5.852   1.216   4.232 -1.0090  0.1164 -0.5284
   18SAPS   H3R 2300   5.919   1.167   4.158  0.1347  0.2923  0.3791
   18SAPS   H3S 2301   5.753   1.166   4.224 -0.6022 -0.4977 -2.1214
   18SAPS   C24 2302   5.931   1.191   4.365  0.7301 -0.4434  0.6149
   18SAPS   H4R 2303   6.026   1.249   4.362  1.2113 -1.2723 -0.9295
   18SAPS   H4S 2304   5.954   1.082   4.357 -2.4730 -1.0420 -3.4512
   18SAPS   C25 2305   5.855   1.205   4.491 -0.4635 -0.2905  1.0248
   18SAPS   H5R 2306   5.759   1.151   4.501 -1.5389  1.4900  0.8217
   18SAPS   C26 2307   5.886   1.291   4.590 -0.1337  0.0888  0.3660
   18SAPS   H6R 2308   5.821   1.301   4.678  1.3547 -0.0112  1.5039
   18SAPS   C27 2309   6.002   1.381   4.596  0.0630 -0.7871  0.4633
   18SAPS   H7R 2310   5.962   1.480   4.625 -0.7632 -1.0133  0.1330
   18SAPS   H7S 2311   6.043   1.399   4.495 -1.2725 -0.1979  0.0071
   18SAPS   C28 2312   6.114   1.327   4.677  0.2750 -0.4139 -0.7044
   18SAPS   H8R 2313   6.185   1.259   4.627  1.3473  0.5196 -0.5079
   18SAPS   C29 2314   6.128   1.351   4.806  0.0576 -0.1644  0.1679
   18SAPS   H9R 2315   6.201   1.298   4.869 -0.1939 -1.8283 -0.8862
   18SAPS  C210 2316   6.037   1.432   4.895  0.1273 -0.3605 -1.0974
   18SAPS  H10R 2317   5.990   1.518   4.842  1.0421  0.8267 -0.0512
   18SAPS  H10S 2318   6.098   1.492   4.966 -1.6695  0.8851 -0.5211
   18SAPS  C211 2319   5.937   1.347   4.981  0.1872 -0.4851 -0.6552
   18SAPS  H11R 2320   5.868   1.282   4.926 -0.2224 -0.6355  0.0260
   18SAPS  C212 2321   5.926   1.339   5.118 -0.4304 -0.1792 -0.0504
   18SAPS  H12R 2322   5.850   1.272   5.160 -1.1481 -0.3608 -1.5798
   18SAPS  C213 2323   6.006   1.425   5.213  0.0081 -0.4643 -0.2228
   18SAPS  H13R 2324   6.111   1.438   5.179  0.3413 -0.8638  0.6207
   18SAPS  H13S 2325   6.005   1.380   5.315 -0.2165 -0.1374 -0.0788
   18SAPS  C214 2326   5.950   1.568   5.208 -0.3581 -0.0404  0.2408
   18SAPS  H14R 2327   5.927   1.606   5.108  0.1961  0.0006  0.1277
   18SAPS  C215 2328   5.909   1.649   5.311 -0.6958  0.0969  0.4913
   18SAPS  H15R 2329   5.896   1.756   5.289  2.1367  0.2517 -0.7957
   18SAPS  C216 2330   5.922   1.617   5.455  0.3717 -0.4750 -0.1715
   18SAPS  H16R 2331   5.905   1.509   5.471 -1.3681 -0.3944 -1.1440
   18SAPS  H16S 2332   5.856   1.687   5.512  1.1404 -0.5176  0.8037
   18SAPS  C217 2333   6.053   1.640   5.528 -0.4872  0.3342  0.3978
   18SAPS  H17R 2334   6.084   1.744   5.502  1.0100 -0.1595  0.0840
   18SAPS  H17S 2335   6.136   1.578   5.487 -1.0655  1.1338 -2.1400
   18SAPS  C218 2336   6.054   1.626   5.678  0.5171 -0.1543 -0.6307
   18SAPS  H18R 2337   6.056   1.521   5.716  0.7190  0.5075  1.3264
   18SAPS  H18S 2338   5.961   1.675   5.712 -0.2311  0.0104 -2.8026
   18SAPS  C219 2339   6.168   1.714   5.731 -0.0354  0.3072  0.2133
   18SAPS  H19R 2340   6.148   1.744   5.836 -0.5244 -0.3701  0.3184
   18SAPS  H19S 2341   6.191   1.799   5.664  0.6915 -0.8504 -1.0540
   18SAPS  C220 2342   6.299   1.640   5.751  0.3234  0.5300  0.7778
   18SAPS  H20R 2343   6.326   1.616   5.645  0.2900  2.6978  0.2316
   18SAPS  H20S 2344   6.295   1.549   5.814  2.1187  0.6300  1.1005
   18SAPS  H20T 2345   6.374   1.712   5.790  0.3920  2.1829 -2.0610
   18SAPS   C33 2346   6.134   1.878   4.754  0.3866  0.1839  0.1510
   18SAPS   H3X 2347   6.062   1.960   4.776  0.4325  0.2755 -0.0409
   18SAPS   H3Y 2348   6.206   1.923   4.682  1.8328 -0.7739  0.9639
   18SAPS   C34 2349   6.220   1.823   4.872  0.9469  0.3650 -1.2639
   18SAPS   H4X 2350   6.294   1.746   4.844  1.6353  0.6780 -0.3748
   18SAPS   H4Y 2351   6.146   1.763   4.930  2.0662  0.4621  0.3408
   18SAPS   C35 2352   6.284   1.923   4.954  0.9037 -0.1949  0.5798
   18SAPS   H5X 2353   6.196   1.970   5.005  0.4238  0.8822 -1.1496
   18SAPS   H5Y 2354   6.328   1.992   4.880 -2.5664  1.8779  0.2001
   18SAPS   C36 2355   6.361   1.864   5.068 -0.2273 -0.4779 -0.4553
   18SAPS   H6X 2356   6.407   1.948   5.124  0.2285 -0.9479 -0.1094
   18SAPS   H6Y 2357   6.439   1.798   5.023  0.3285  1.1594 -1.9784
   18SAPS   C37 2358   6.280   1.789   5.170 -0.3406 -0.2656 -0.2159
   18SAPS   H7X 2359   6.214   1.710   5.129  0.0991 -0.3709 -0.7393
   18SAPS   H7Y 2360   6.220   1.873   5.212  1.6724  1.6833 -1.0222
   18SAPS   C38 2361   6.377   1.730   5.279  0.3061 -0.0506 -0.2751
   18SAPS   H8X 2362   6.323   1.720   5.376  0.8213 -2.1033 -0.1553
   18SAPS   H8Y 2363   6.460   1.804   5.283  1.5873 -1.5141  1.4535
   18SAPS   C39 2364   6.425   1.588   5.249  0.4778  0.3222 -0.5499
   18SAPS   H9X 2365   6.458   1.564   5.146  0.8042 -0.7665 -0.2035
   18SAPS   H9Y 2366   6.329   1.533   5.252 -0.4173  1.8263 -0.7560
   18SAPS  C310 2367   6.523   1.534   5.358 -0.1808  0.4152  0.4207
   18SAPS  H10X 2368   6.497   1.570   5.460 -0.3959  2.4895 -0.3122
   18SAPS  H10Y 2369   6.620   1.586   5.341  0.8653 -0.9650  1.9068
   18SAPS  C311 2370   6.543   1.388   5.348 -0.0417 -0.5171 -0.1662
   18SAPS  H11X 2371   6.549   1.366   5.239 -0.3315  0.2257 -0.3363
   18SAPS  H11Y 2372   6.448   1.338   5.373 -0.9659  0.6672 -1.1793
   18SAPS  C312 2373   6.674   1.339   5.423  0.5020  0.1050 -0.2542
   18SAPS  H12X 2374   6.680   1.365   5.531  3.2749 -2.1138  0.2599
   18SAPS  H12Y 2375   6.761   1.386   5.372 -0.5879  1.9768 -0.4699
   18SAPS  C313 2376   6.683   1.186   5.417 -0.1061 -0.3852  0.2652
   18SAPS  H13X 2377   6.666   1.153   5.313  0.5218 -0.5931  0.2205
   18SAPS  H13Y 2378   6.595   1.151   5.475 -0.2795 -1.2881 -0.5273
   18SAPS  C314 2379   6.817   1.126   5.476 -0.0203  0.5038 -0.3245
   18SAPS  H14X 2380   6.908   1.178   5.439  1.6569 -2.1391 -0.1784
   18SAPS  H14Y 2381   6.827   1.023   5.437  1.6186  0.8190 -0.8476
   18SAPS  C315 2382   6.818   1.123   5.628  0.5930  0.1405  0.2125
   18SAPS  H15X 2383   6.812   1.231   5.653  1.1398  0.7063 -1.8707
   18SAPS  H15Y 2384   6.921   1.097   5.662  0.1183 -0.5641  1.1270
   18SAPS  C316 2385   6.704   1.048   5.696  0.3739 -0.3525  0.5750
   18SAPS  H16X 2386   6.616   1.115   5.697  0.3251 -0.3044 -1.6228
   18SAPS  H16Y 2387   6.741   1.024   5.798  0.3899  0.6754  0.8211
   18SAPS  C317 2388   6.668   0.914   5.637  0.3795 -0.1194 -0.5399
   18SAPS  H17X 2389   6.765   0.868   5.607  0.7388 -0.1401  0.6158
   18SAPS  H17Y 2390   6.596   0.933   5.555 -0.7686  1.5929  0.7795
   18SAPS  C318 2391   6.613   0.815   5.734  0.4751 -0.0437  0.0838
   18SAPS  H18X 2392   6.683   0.811   5.820  1.5750 -0.2504 -0.8112
   18SAPS  H18Y 2393   6.582   0.713   5.702 -1.6708 -0.0903  1.9665
   18SAPS  H18Z 2394   6.516   0.858   5.767 -1.3014 -2.1537 -1.9773
   19SAPS     N 2395   6.158   2.095   3.958 -0.1948 -0.4682 -0.7674
   19SAPS   HN1 2396   6.248   2.047   3.978  0.2828  1.8935  4.2154
   19SAPS   HN2 2397   6.131   2.119   4.055  1.4738 -0.5699 -0.2468
   19SAPS   HN3 2398   6.082   2.036   3.918 -1.4152  0.7228 -0.2891
   19SAPS   C12 2399   6.166   2.219   3.887  0.0892  0.0993  0.4800
   19SAPS  H12A 2400   6.245   2.284   3.921  0.5079 -0.0427 -0.2002
   19SAPS   C13 2401   6.182   2.195   3.729 -0.3383  0.8237 -0.2918
   19SAPS  O13A 2402   6.189   2.076   3.689 -0.2076  0.2235  0.1278
   19SAPS  O13B 2403   6.183   2.295   3.660 -0.3406 -0.1001  0.1080
   19SAPS   C11 2404   6.025   2.296   3.894  0.8045 -0.9179  0.0112
   19SAPS  H11A 2405   6.038   2.395   3.845 -0.2512 -0.9433 -0.3369
   19SAPS  H11B 2406   6.008   2.327   4.000 -0.3032 -1.5639  0.0425
   19SAPS     P 2407   5.780   2.281   3.792  0.5674  0.3316  0.5541
   19SAPS   O13 2408   5.812   2.407   3.724  0.6716  0.1695 -0.2646
   19SAPS   O14 2409   5.722   2.175   3.710  0.1044  0.0505 -0.2839
   19SAPS   O12 2410   5.915   2.220   3.854  0.2120  0.2650  0.2462
   19SAPS   O11 2411   5.681   2.304   3.907 -0.2535 -0.1372  0.3636
   19SAPS    C1 2412   5.670   2.234   4.028 -0.4970 -0.3554  0.4539
   19SAPS    HA 2413   5.680   2.126   4.008 -0.5394 -0.7829  2.4929
   19SAPS    HB 2414   5.751   2.267   4.097  1.5818 -1.3472 -1.4003
   19SAPS    C2 2415   5.527   2.256   4.081  0.3239  0.5440  0.1615
   19SAPS    HS 2416   5.505   2.364   4.064  0.1004  0.5377  0.3917
   19SAPS   O21 2417   5.526   2.218   4.220 -0.4212 -0.6141  0.1150
   19SAPS   C21 2418   5.592   2.307   4.305  0.0379  0.1761  0.0573
   19SAPS   O22 2419   5.640   2.414   4.273  0.2250  0.1562  0.3123
   19SAPS   C22 2420   5.589   2.254   4.450 -0.1406  0.0951 -0.0531
   19SAPS   H2R 2421   5.486   2.217   4.474  0.3866 -0.4931  1.4041
   19SAPS   H2S 2422   5.650   2.164   4.429  2.5690  2.0560 -1.1415
   19SAPS    C3 2423   5.427   2.168   3.998 -0.0906 -0.0259 -0.4562
   19SAPS    HX 2424   5.462   2.062   4.001 -0.6689 -0.2056  0.1892
   19SAPS    HY 2425   5.443   2.201   3.893  1.9580  1.0696  0.1455
   19SAPS   O31 2426   5.290   2.169   4.050  0.4662 -0.5083 -0.0097
   19SAPS   C31 2427   5.202   2.073   4.012 -0.3083 -0.1707  0.2530
   19SAPS   O32 2428   5.230   1.981   3.937  0.6541  0.2261  0.0048
   19SAPS   C32 2429   5.076   2.100   4.092  0.3130  0.4310  0.5065
   19SAPS   H2X 2430   4.996   2.073   4.020  2.1406 -2.4646 -0.6425
   19SAPS   H2Y 2431   5.063   2.207   4.114  0.4668  0.7126 -0.6712
   19SAPS   C23 2432   5.659   2.348   4.546  0.5724 -0.3015  0.3514
   19SAPS   H3R 2433   5.620   2.452   4.536  2.2412  0.1287 -3.8476
   19SAPS   H3S 2434   5.769   2.356   4.531  0.7067  0.5364  1.6064
   19SAPS   C24 2435   5.628   2.301   4.684 -0.6270 -0.0346  0.7699
   19SAPS   H4R 2436   5.518   2.298   4.704 -0.8630  1.2228 -0.2401
   19SAPS   H4S 2437   5.672   2.366   4.762  0.1805  0.9282 -0.4704
   19SAPS   C25 2438   5.692   2.163   4.699  0.5925  1.0828 -0.6141
   19SAPS   H5R 2439   5.761   2.124   4.623  2.3432  2.4341  0.2192
   19SAPS   C26 2440   5.664   2.075   4.801 -0.0340 -0.6793  0.1888
   19SAPS   H6R 2441   5.721   1.980   4.803 -0.5582 -1.0541 -1.2958
   19SAPS   C27 2442   5.585   2.110   4.924  0.8446  0.0717  0.1269
   19SAPS   H7R 2443   5.538   2.017   4.960  3.7437 -1.5007  0.1489
   19SAPS   H7S 2444   5.498   2.173   4.897  1.5603  1.8248  1.6813
   19SAPS   C28 2445   5.661   2.192   5.022 -0.3507  0.0007  0.1442
   19SAPS   H8R 2446   5.623   2.294   5.036 -2.1228 -0.6642  0.3510
   19SAPS   C29 2447   5.757   2.155   5.104 -0.2251 -0.1633 -0.1392
   19SAPS   H9R 2448   5.817   2.231   5.157 -0.2024  0.3178 -0.8439
   19SAPS  C210 2449   5.811   2.011   5.118  0.1473  0.0200 -0.2514
   19SAPS  H10R 2450   5.836   1.979   5.014  0.1850 -1.7559  0.2761
   19SAPS  H10S 2451   5.734   1.938   5.151 -0.0361  0.6995  0.8685
   19SAPS  C211 2452   5.922   2.005   5.214  0.1168 -0.1274 -0.3875
   19SAPS  H11R 2453   6.021   2.008   5.166  1.7187 -0.5763  2.6111
   19SAPS  C212 2454   5.921   2.016   5.349  0.7593  0.5426 -0.7062
   19SAPS  H12R 2455   6.020   2.023   5.396  0.7175  0.2791 -0.5805
   19SAPS  C213 2456   5.801   2.032   5.448 -0.6473 -0.4581  0.2149
   19SAPS  H13R 2457   5.744   1.942   5.418  0.7327 -1.2397 -0.1519
   19SAPS  H13S 2458   5.743   2.122   5.418  1.5323 -0.7644 -6.6020
   19SAPS  C214 2459   5.832   2.029   5.600 -0.0663 -0.4065  0.6363
   19SAPS  H14R 2460   5.930   2.071   5.629 -0.9666  2.7951 -0.5894
   19SAPS  C215 2461   5.764   1.966   5.698 -0.8899 -0.0019 -0.3982
   19SAPS  H15R 2462   5.812   1.968   5.798  2.0074 -0.8273 -1.6693
   19SAPS  C216 2463   5.631   1.905   5.687 -0.1043  0.4454 -0.3855
   19SAPS  H16R 2464   5.625   1.824   5.611  0.9493  0.3190 -0.3590
   19SAPS  H16S 2465   5.565   1.979   5.638 -0.4506 -0.6996 -1.6998
   19SAPS  C217 2466   5.571   1.860   5.823  0.4874 -0.1211  1.2062
   19SAPS  H17R 2467   5.470   1.814   5.816 -0.0369  0.8618  1.9154
   19SAPS  H17S 2468   5.575   1.955   5.880  1.1961  0.4147  0.3014
   19SAPS  C218 2469   5.664   1.754   5.889  0.5915  0.2377  0.3633
   19SAPS  H18R 2470   5.763   1.799   5.909  0.5874 -0.8333  3.3459
   19SAPS  H18S 2471   5.662   1.663   5.826 -1.4741 -1.0804  2.1548
   19SAPS  C219 2472   5.614   1.704   6.028  0.7379  0.0181 -0.1099
   19SAPS  H19R 2473   5.680   1.620   6.056 -1.1431 -1.4273  0.1415
   19SAPS  H19S 2474   5.512   1.660   6.022  0.5323  0.4262  0.3180
   19SAPS  C220 2475   5.609   1.813   6.133 -1.0330  0.1108  0.4672
   19SAPS  H20R 2476   5.598   1.909   6.079  0.6549 -0.2738 -0.6323
   19SAPS  H20S 2477   5.702   1.801   6.193 -1.0407  1.0669  0.6837
   19SAPS  H20T 2478   5.522   1.795   6.200 -1.3982 -0.0117 -0.0386
   19SAPS   C33 2479   5.053   2.018   4.219 -0.0255 -0.3611 -0.0276
   19SAPS   H3X 2480   5.133   2.031   4.295  0.2456 -1.1832 -0.1548
   19SAPS   H3Y 2481   5.050   1.908   4.204 -1.1217 -0.5825  1.6040
   19SAPS   C34 2482   4.921   2.064   4.296  0.5227  0.1241 -0.2251
   19SAPS   H4X 2483   4.842   2.086   4.221 -1.0917 -2.2648  0.6667
   19SAPS   H4Y 2484   4.940   2.162   4.343 -0.6561  0.5468 -0.5984
   19SAPS   C35 2485   4.870   1.964   4.405 -0.0483  0.3661  0.0045
   19SAPS   H5X 2486   4.882   1.857   4.382 -0.1192  0.1822  0.7870
   19SAPS   H5Y 2487   4.760   1.979   4.407 -0.1222 -0.2536  0.7759
   19SAPS   C36 2488   4.928   1.973   4.542  0.2092  0.8054 -0.8049
   19SAPS   H6X 2489   4.906   2.073   4.585  0.3325 -0.4985  2.6039
   19SAPS   H6Y 2490   5.037   1.955   4.548  0.1336  0.6225  0.1464
   19SAPS   C37 2491   4.881   1.860   4.639  0.4685  1.1203 -0.5182
   19SAPS   H7X 2492   4.886   1.756   4.602  0.3788  0.7145  0.5644
   19SAPS   H7Y 2493   4.771   1.864   4.651  0.7513  1.7713  2.8938
   19SAPS   C38 2494   4.941   1.869   4.778 -0.1191 -0.0924  0.4070
   19SAPS   H8X 2495   4.907   1.962   4.828  1.0646  0.4272  0.2716
   19SAPS   H8Y 2496   5.051   1.884   4.770  0.3555 -2.1920  2.0597
   19SAPS   C39 2497   4.898   1.752   4.862  0.0225 -0.0342 -0.0121
   19SAPS   H9X 2498   4.929   1.659   4.811  0.6780 -0.1740  0.6266
   19SAPS   H9Y 2499   4.788   1.757   4.875 -0.0659  0.2163 -0.7733
   19SAPS  C310 2500   4.949   1.760   5.005  0.8612  0.5270  0.0339
   19SAPS  H10X 2501   4.939   1.866   5.037 -1.2176  0.7472 -1.1487
   19SAPS  H10Y 2502   5.057   1.735   5.007  0.6817 -0.3495 -0.4964
   19SAPS  C311 2503   4.880   1.659   5.106  0.1913 -0.2080  0.3221
   19SAPS  H11X 2504   4.899   1.556   5.070  0.8877  0.1981 -0.5284
   19SAPS  H11Y 2505   4.772   1.676   5.086  0.3174  0.6064  0.2825
   19SAPS  C312 2506   4.922   1.666   5.249 -0.0863 -0.5840  0.2390
   19SAPS  H12X 2507   4.842   1.637   5.321  0.4484 -0.9681  0.6950
   19SAPS  H12Y 2508   4.944   1.770   5.279  0.7641 -0.9406  0.8915
   19SAPS  C313 2509   5.033   1.574   5.290  0.0399  0.2290  0.3498
   19SAPS  H13X 2510   5.121   1.584   5.224  1.4939 -2.0638  1.8151
   19SAPS  H13Y 2511   5.007   1.466   5.288  1.4632 -0.1377 -2.0744
   19SAPS  C314 2512   5.087   1.613   5.428 -0.3369  0.0656  0.4298
   19SAPS  H14X 2513   5.101   1.723   5.417  2.3920 -0.3337 -1.1086
   19SAPS  H14Y 2514   5.188   1.567   5.440 -0.2225 -0.1354 -1.0552
   19SAPS  C315 2515   5.005   1.585   5.549  0.5706 -0.6501  0.7930
   19SAPS  H15X 2516   4.994   1.475   5.556 -0.6331 -0.5375  0.9203
   19SAPS  H15Y 2517   4.899   1.617   5.536  0.4416 -1.5496 -0.6470
   19SAPS  C316 2518   5.074   1.639   5.673 -0.5606  0.2448  0.5847
   19SAPS  H16X 2519   5.031   1.738   5.702  1.0359  0.9992  0.4489
   19SAPS  H16Y 2520   5.182   1.649   5.652 -0.3939 -0.3386  1.1537
   19SAPS  C317 2521   5.044   1.541   5.788  0.7822  0.5770 -0.1474
   19SAPS  H17X 2522   5.058   1.435   5.760 -0.8857 -0.3043  2.0278
   19SAPS  H17Y 2523   4.936   1.540   5.811  0.9474 -3.6967  1.3133
   19SAPS  C318 2524   5.120   1.577   5.917  0.2041 -0.6311  0.2725
   19SAPS  H18X 2525   5.089   1.675   5.960 -2.2373 -1.1141 -0.2630
   19SAPS  H18Y 2526   5.226   1.592   5.885  0.1212  0.7086  0.5567
   19SAPS  H18Z 2527   5.116   1.509   6.005  2.2127  1.1123  1.8092
   20SAPS     N 2528   5.135   0.576   3.252  0.2684 -0.5075 -0.5802
   20SAPS   HN1 2529   5.236   0.598   3.247  0.5885 -1.3942  1.2604
   20SAPS   HN2 2530   5.092   0.554   3.159 -1.8319 -1.9433  0.6435
   20SAPS   HN3 2531   5.083   0.663   3.278 -0.8129 -1.8050  1.8773
   20SAPS   C12 2532   5.099   0.485   3.367  0.4067 -0.6385 -0.2207
   20SAPS  H12A 2533   4.992   0.491   3.379  0.6612  0.8468  1.8361
   20SAPS   C13 2534   5.123   0.336   3.351  0.3723  0.8288  0.3152
   20SAPS  O13A 2535   5.137   0.297   3.230  0.1922 -0.1048  0.2011
   20SAPS  O13B 2536   5.100   0.256   3.445 -0.1548  0.3568 -0.5890
   20SAPS   C11 2537   5.167   0.526   3.506  0.2677 -0.4156  0.3008
   20SAPS  H11A 2538   5.272   0.544   3.474 -0.2982  2.6625 -0.1458
   20SAPS  H11B 2539   5.154   0.444   3.580  0.2062 -0.9853 -0.3314
   20SAPS     P 2540   4.989   0.658   3.632  0.3895 -0.0396  0.0844
   20SAPS   O13 2541   4.950   0.795   3.659 -0.0578  0.0151  0.2626
   20SAPS   O14 2542   4.900   0.554   3.582 -0.0524 -0.0943 -0.2638
   20SAPS   O12 2543   5.122   0.651   3.544  0.1412 -0.4234  0.3859
   20SAPS   O11 2544   5.045   0.596   3.761  0.5267 -0.6533 -0.3455
   20SAPS    C1 2545   5.151   0.650   3.833 -0.3261  0.0835 -0.3751
   20SAPS    HA 2546   5.247   0.594   3.819 -1.2860 -1.3319 -1.6835
   20SAPS    HB 2547   5.186   0.750   3.801 -2.5355  1.4551  1.2589
   20SAPS    C2 2548   5.111   0.655   3.988 -0.5452  0.0130 -0.4038
   20SAPS    HS 2549   5.190   0.701   4.050  0.3692 -3.0574  0.9093
   20SAPS   O21 2550   5.087   0.518   4.020  0.3951 -1.2774  0.5639
   20SAPS   C21 2551   5.107   0.490   4.154  0.8407 -0.0379  0.1129
   20SAPS   O22 2552   5.159   0.566   4.229  0.1897 -0.3711  0.6862
   20SAPS   C22 2553   5.035   0.369   4.189 -0.0584 -0.1925  0.7213
   20SAPS   H2R 2554   4.940   0.364   4.132  0.5749  0.1853 -0.3962
   20SAPS   H2S 2555   5.097   0.279   4.169 -2.0459 -1.1877 -1.5124
   20SAPS    C3 2556   4.976   0.733   4.007 -0.4332 -0.5007 -0.2289
   20SAPS    HX 2557   4.904   0.663   3.959 -0.0966 -1.4278  0.5953
   20SAPS    HY 2558   4.989   0.825   3.946  2.0499 -1.2839 -1.0222
   20SAPS   O31 2559   4.939   0.745   4.146 -0.2195  0.7979 -0.0787
   20SAPS   C31 2560   4.967   0.860   4.208 -0.1582 -0.5606 -0.1434
   20SAPS   O32 2561   5.036   0.953   4.161  0.4589  0.3987 -0.2442
   20SAPS   C32 2562   4.881   0.859   4.330  0.1116 -0.3270 -0.2235
   20SAPS   H2X 2563   4.917   0.791   4.411  0.1713 -1.0652 -0.8663
   20SAPS   H2Y 2564   4.783   0.822   4.294 -0.0266 -1.9241  1.6199
   20SAPS   C23 2565   4.993   0.367   4.339  0.5090  0.1876  0.6326
   20SAPS   H3R 2566   5.074   0.388   4.412  1.3275 -0.0026 -0.1970
   20SAPS   H3S 2567   4.964   0.262   4.359 -1.3913  0.0676 -2.0841
   20SAPS   C24 2568   4.874   0.463   4.374 -0.0163  0.2109 -0.5903
   20SAPS   H4R 2569   4.860   0.548   4.305  0.9658  0.3369 -0.6469
   20SAPS   H4S 2570   4.895   0.516   4.469 -2.1838 -0.2493  0.2072
   20SAPS   C25 2571   4.739   0.398   4.385 -0.0958 -0.2196 -0.2304
   20SAPS   H5R 2572   4.693   0.381   4.286 -1.4116  3.3500 -0.3553
   20SAPS   C26 2573   4.667   0.372   4.499  0.0381  0.4246  0.1310
   20SAPS   H6R 2574   4.581   0.305   4.486  2.2427 -2.7851  1.0830
   20SAPS   C27 2575   4.699   0.391   4.646  0.8985 -0.1369 -0.1694
   20SAPS   H7R 2576   4.614   0.354   4.707  1.0228 -0.0058  0.0824
   20SAPS   H7S 2577   4.693   0.502   4.659 -1.5894 -0.2832  0.5388
   20SAPS   C28 2578   4.830   0.316   4.671  0.2771  0.2014  0.8792
   20SAPS   H8R 2579   4.904   0.312   4.590 -1.8399  1.0045 -1.2044
   20SAPS   C29 2580   4.867   0.280   4.792 -0.2693 -0.8301 -0.0704
   20SAPS   H9R 2581   4.963   0.229   4.811 -0.7947 -2.8038 -2.2722
   20SAPS  C210 2582   4.792   0.288   4.920  0.6217 -0.1781 -0.0292
   20SAPS  H10R 2583   4.723   0.375   4.911  0.9534  0.0497 -0.3921
   20SAPS  H10S 2584   4.860   0.307   5.006  1.1769  1.5628 -0.8100
   20SAPS  C211 2585   4.717   0.161   4.949 -0.2206 -0.5459  0.6078
   20SAPS  H11R 2586   4.683   0.103   4.862  0.7447 -0.2154 -0.0006
   20SAPS  C212 2587   4.680   0.113   5.068 -0.6679  0.5299  0.3189
   20SAPS  H12R 2588   4.620   0.021   5.070 -0.7941  0.6085  0.1618
   20SAPS  C213 2589   4.706   0.173   5.208 -0.4970  0.5352 -0.3169
   20SAPS  H13R 2590   4.768   0.265   5.205 -0.1811  0.4054  1.2773
   20SAPS  H13S 2591   4.761   0.098   5.270 -3.3606 -1.4066  0.0362
   20SAPS  C214 2592   4.573   0.219   5.264 -0.0535  0.5148  0.6128
   20SAPS  H14R 2593   4.528   0.304   5.210 -1.4476 -0.9005 -0.5665
   20SAPS  C215 2594   4.521   0.183   5.381  0.6742  0.5790  0.3820
   20SAPS  H15R 2595   4.421   0.221   5.406  0.0419 -0.7887  0.0630
   20SAPS  C216 2596   4.577   0.078   5.477 -0.5204 -0.1422  0.9110
   20SAPS  H16R 2597   4.678   0.043   5.448 -0.7162 -0.0764  0.1253
   20SAPS  H16S 2598   4.514  -0.014   5.472  2.6335 -2.4005 -0.3425
   20SAPS  C217 2599   4.586   0.125   5.625  0.2054 -0.1650 -0.4168
   20SAPS  H17R 2600   4.625   0.048   5.695 -1.4299 -1.8641 -1.2703
   20SAPS  H17S 2601   4.484   0.150   5.663  0.5657 -0.1631  0.5523
   20SAPS  C218 2602   4.675   0.246   5.644 -0.6870 -0.3028 -0.6309
   20SAPS  H18R 2603   4.635   0.334   5.589  0.7839  1.3688  0.8600
   20SAPS  H18S 2604   4.772   0.200   5.613 -0.9890 -0.2356 -1.7199
   20SAPS  C219 2605   4.699   0.280   5.792  0.6557  0.0347 -0.3441
   20SAPS  H19R 2606   4.784   0.350   5.809  0.4703  0.2311 -0.2197
   20SAPS  H19S 2607   4.735   0.181   5.826  2.7761  1.0837  0.6923
   20SAPS  C220 2608   4.575   0.326   5.871  0.7295  0.1033 -0.4760
   20SAPS  H20R 2609   4.592   0.326   5.981 -0.7764  0.4568 -0.2238
   20SAPS  H20S 2610   4.486   0.265   5.845  0.7705  0.5683 -1.7668
   20SAPS  H20T 2611   4.549   0.431   5.846 -0.3661  0.3376  1.4756
   20SAPS   C33 2612   4.865   0.999   4.394  0.0217  0.0566 -0.4265
   20SAPS   H3X 2613   4.822   1.065   4.316  1.0000 -1.9917 -2.8294
   20SAPS   H3Y 2614   4.965   1.039   4.421  1.1412 -0.8795 -2.9126
   20SAPS   C34 2615   4.780   1.011   4.526 -0.2951 -0.3006  0.4378
   20SAPS   H4X 2616   4.772   1.122   4.531  2.7173  0.0944 -0.8751
   20SAPS   H4Y 2617   4.842   0.969   4.608 -0.0106 -1.9850 -0.5961
   20SAPS   C35 2618   4.641   0.951   4.525 -0.1603  0.3725 -0.3189
   20SAPS   H5X 2619   4.636   0.846   4.490 -0.7234  1.0490 -2.4387
   20SAPS   H5Y 2620   4.578   1.003   4.450  2.0274 -0.1365 -2.6586
   20SAPS   C36 2621   4.574   0.963   4.664 -0.2292  0.5317 -0.0404
   20SAPS   H6X 2622   4.474   0.918   4.648 -0.9912  1.4530  1.7750
   20SAPS   H6Y 2623   4.557   1.067   4.698 -0.7259  0.6511 -0.6436
   20SAPS   C37 2624   4.643   0.878   4.783  0.3214 -0.9858  0.3557
   20SAPS   H7X 2625   4.724   0.936   4.831 -0.3361  0.3623 -0.1066
   20SAPS   H7Y 2626   4.681   0.784   4.739 -0.7012 -1.0429 -0.4483
   20SAPS   C38 2627   4.547   0.844   4.892 -0.0588  0.0230 -0.2030
   20SAPS   H8X 2628   4.475   0.775   4.842  0.6999 -0.4002 -0.7303
   20SAPS   H8Y 2629   4.488   0.933   4.922 -0.8601 -0.6030  0.1337
   20SAPS   C39 2630   4.623   0.787   5.010  0.0533 -0.1108 -0.2100
   20SAPS   H9X 2631   4.719   0.842   5.024  1.0180 -2.1101  1.3980
   20SAPS   H9Y 2632   4.659   0.688   4.975  1.7804  0.7767 -1.1048
   20SAPS  C310 2633   4.554   0.760   5.145 -0.3340 -0.3493 -0.3717
   20SAPS  H10X 2634   4.634   0.717   5.209  0.6305  0.6224 -0.8854
   20SAPS  H10Y 2635   4.484   0.675   5.133  0.0578 -0.4925 -1.9128
   20SAPS  C311 2636   4.483   0.881   5.216 -0.4071  0.7176  0.2799
   20SAPS  H11X 2637   4.381   0.897   5.175 -0.1753 -0.0804 -0.6456
   20SAPS  H11Y 2638   4.547   0.970   5.198 -0.0665  0.8521  1.9341
   20SAPS  C312 2639   4.463   0.845   5.370  0.4038  0.3143  0.9381
   20SAPS  H12X 2640   4.425   0.945   5.401 -0.7411 -0.3735  1.8708
   20SAPS  H12Y 2641   4.563   0.823   5.413 -0.3191 -0.2536  2.4046
   20SAPS  C313 2642   4.367   0.727   5.390 -0.5149 -0.2792 -0.1253
   20SAPS  H13X 2643   4.397   0.627   5.352  0.0768 -0.5024  0.9052
   20SAPS  H13Y 2644   4.274   0.738   5.330 -1.4151 -0.5368  1.1765
   20SAPS  C314 2645   4.311   0.717   5.536  0.3094 -0.0241  0.7640
   20SAPS  H14X 2646   4.230   0.641   5.540  0.5475 -0.7026 -3.3825
   20SAPS  H14Y 2647   4.258   0.813   5.556  0.6502 -0.0850  2.0492
   20SAPS  C315 2648   4.414   0.706   5.642 -0.1856  0.3642 -0.5492
   20SAPS  H15X 2649   4.497   0.654   5.589 -1.2806 -0.3046 -1.6536
   20SAPS  H15Y 2650   4.387   0.640   5.727  0.3627  1.8424  0.8348
   20SAPS  C316 2651   4.470   0.837   5.695 -0.8441  0.8571 -0.5174
   20SAPS  H16X 2652   4.420   0.932   5.667 -0.6818  1.9762  2.5832
   20SAPS  H16Y 2653   4.571   0.854   5.653 -0.9244  0.1267 -1.0412
   20SAPS  C317 2654   4.481   0.838   5.850  0.3332  0.2563  0.2375
   20SAPS  H17X 2655   4.544   0.754   5.886  4.4132  2.9547  0.0248
   20SAPS  H17Y 2656   4.376   0.832   5.885 -1.6609 -0.2498 -5.0267
   20SAPS  C318 2657   4.553   0.969   5.896  0.4122  0.0775 -0.1630
   20SAPS  H18X 2658   4.474   1.047   5.883  0.9520  1.0508  1.9824
   20SAPS  H18Y 2659   4.634   0.988   5.823  1.0017 -0.7366  0.2672
   20SAPS  H18Z 2660   4.595   0.976   5.999  0.1457  0.1693 -0.0585
   21CHL1    C3 2661   2.880   2.383   7.084 -0.2940  0.7247  0.0080
   21CHL1    H3 2662   2.972   2.326   7.110  0.9064  2.1929 -0.8293
   21CHL1    O3 2663   2.855   2.476   7.180  0.2022 -0.2745 -0.1896
   21CHL1   H3' 2664   2.819   2.416   7.246 -1.2761  2.1679  1.3502
   21CHL1    C4 2665   2.919   2.464   6.964  0.6159 -0.5061  0.4459
   21CHL1   H4A 2666   2.831   2.527   6.942  0.0765 -1.8581 -1.5764
   21CHL1   H4B 2667   3.010   2.524   6.988 -0.2416  0.5280  1.1617
   21CHL1    C5 2668   2.946   2.375   6.837  0.2180  0.1353  0.2962
   21CHL1    C6 2669   3.058   2.383   6.762  1.3820 -0.3312 -0.1183
   21CHL1    H6 2670   3.137   2.457   6.781 -0.6826  2.3064 -1.0576
   21CHL1    C7 2671   3.078   2.301   6.639 -0.4802  0.4853  0.0959
   21CHL1   H7A 2672   3.111   2.381   6.569 -2.9506  1.0795 -0.4888
   21CHL1   H7B 2673   3.156   2.222   6.629  0.3845  1.1200  1.4559
   21CHL1    C8 2674   2.952   2.234   6.582  0.4888  0.0881  0.0156
   21CHL1    H8 2675   2.880   2.311   6.545  0.9280 -0.3631 -1.8903
   21CHL1   C14 2676   2.981   2.143   6.467  0.3736 -0.1886  0.2883
   21CHL1   H14 2677   3.059   2.070   6.495 -0.2410 -0.8413  0.3347
   21CHL1   C15 2678   3.057   2.203   6.349 -0.5270 -0.2598 -0.9522
   21CHL1  H15A 2679   3.023   2.300   6.307  1.9966  0.1005 -2.4144
   21CHL1  H15B 2680   3.166   2.220   6.367 -0.5606  1.7018 -2.3054
   21CHL1   C16 2681   3.039   2.094   6.247 -0.1583  0.8250 -0.0019
   21CHL1  H16A 2682   3.024   2.134   6.144  2.2390 -0.0510 -0.7581
   21CHL1  H16B 2683   3.128   2.027   6.240 -2.2483 -1.9883 -1.4091
   21CHL1   C17 2684   2.935   1.995   6.298  0.0233 -0.1946  0.6722
   21CHL1   H17 2685   2.995   1.918   6.351 -0.3623 -0.7488  0.3211
   21CHL1   C13 2686   2.867   2.064   6.409  0.5285 -0.3433 -0.4365
   21CHL1   C18 2687   2.752   2.159   6.350  0.1187 -0.2856  0.4759
   21CHL1  H18A 2688   2.727   2.249   6.409  0.4226  0.1494 -0.0474
   21CHL1  H18B 2689   2.786   2.192   6.249 -1.3677  0.3470  0.1575
   21CHL1  H18C 2690   2.664   2.093   6.334  1.1256 -1.0172 -2.7335
   21CHL1   C12 2691   2.817   1.975   6.528  0.8738 -0.5334 -0.3964
   21CHL1  H12A 2692   2.731   1.914   6.491 -1.3030  2.6618 -1.0256
   21CHL1  H12B 2693   2.902   1.907   6.550 -0.8930 -3.1316 -1.0287
   21CHL1   C11 2694   2.776   2.060   6.655 -0.5127  0.0202  0.2388
   21CHL1  H11A 2695   2.683   2.118   6.635 -0.8217 -0.3439  0.5760
   21CHL1  H11B 2696   2.755   1.994   6.742  2.3337  1.2080  1.9388
   21CHL1    C9 2697   2.885   2.164   6.699  0.5917  0.2815  0.1486
   21CHL1    H9 2698   2.962   2.106   6.754 -0.0863 -1.9421 -1.0877
   21CHL1   C10 2699   2.835   2.270   6.808  0.0332  0.4954 -0.1220
   21CHL1   C19 2700   2.703   2.343   6.757 -0.4595  0.1396 -0.2942
   21CHL1  H19A 2701   2.729   2.394   6.661  2.8257  0.3229  0.5479
   21CHL1  H19B 2702   2.622   2.270   6.741  1.0061 -1.2200 -1.9858
   21CHL1  H19C 2703   2.665   2.421   6.826 -0.6580  0.7969 -1.1301
   21CHL1    C1 2704   2.801   2.198   6.941 -0.5111  0.2852  1.0964
   21CHL1   H1A 2705   2.702   2.153   6.919 -0.5051  0.8902 -0.2309
   21CHL1   H1B 2706   2.883   2.130   6.974  0.3108  0.9189  0.3965
   21CHL1    C2 2707   2.767   2.292   7.059 -0.3533  0.3747 -0.2389
   21CHL1   H2A 2708   2.749   2.228   7.148 -3.3355 -0.9933 -1.6641
   21CHL1   H2B 2709   2.663   2.329   7.043 -1.2018 -2.3487 -1.7140
   21CHL1   C20 2710   2.848   1.940   6.184  0.4377  1.0478 -0.3703
   21CHL1   H20 2711   2.778   2.016   6.143  0.8515  1.4133 -0.4082
   21CHL1   C21 2712   2.772   1.820   6.239  0.2300 -0.4091 -0.9750
   21CHL1  H21A 2713   2.725   1.761   6.158 -0.5655 -1.2130  0.0463
   21CHL1  H21B 2714   2.681   1.850   6.295 -0.2866 -1.2639 -1.3448
   21CHL1  H21C 2715   2.827   1.743   6.295 -2.7922 -0.2650  2.5938
   21CHL1   C22 2716   2.932   1.888   6.056  0.4654 -0.0480  0.4543
   21CHL1  H22A 2717   2.965   1.981   6.004  0.5637 -0.5663 -0.4298
   21CHL1  H22B 2718   3.026   1.834   6.083  0.8043  0.8915  1.2017
   21CHL1   C23 2719   2.870   1.791   5.964  0.5681 -0.2719 -0.2123
   21CHL1  H23A 2720   2.868   1.698   6.024  1.8289  1.3476  2.5161
   21CHL1  H23B 2721   2.770   1.824   5.929 -0.2435 -2.6330 -0.2988
   21CHL1   C24 2722   2.952   1.772   5.831  0.4690  0.6512  0.2957
   21CHL1  H24A 2723   2.942   1.872   5.783 -3.6436  0.1865 -0.1734
   21CHL1  H24B 2724   3.056   1.740   5.852  0.3414  0.7270  1.0536
   21CHL1   C25 2725   2.873   1.659   5.758  0.0498 -0.0702 -0.2832
   21CHL1   H25 2726   2.826   1.596   5.837  1.2205  2.2305  2.4012
   21CHL1   C26 2727   2.746   1.706   5.684 -0.1427  0.0842  0.4282
   21CHL1  H26A 2728   2.709   1.615   5.633  3.3556 -1.5918  0.5504
   21CHL1  H26B 2729   2.670   1.740   5.757 -1.4850 -1.3029 -0.2788
   21CHL1  H26C 2730   2.754   1.791   5.613 -2.0361  0.3026  0.4327
   21CHL1   C27 2731   2.963   1.585   5.664  0.2964  0.3140  0.0210
   21CHL1  H27A 2732   2.901   1.503   5.621 -0.7365  0.9796  0.1944
   21CHL1  H27B 2733   2.999   1.649   5.581 -0.5902  2.0971  0.9474
   21CHL1  H27C 2734   3.049   1.548   5.723 -1.9132 -3.3373  1.3204
   22CHL1    C3 2735   3.895   3.193   7.176 -0.2082  0.0196 -0.7475
   22CHL1    H3 2736   3.997   3.149   7.180  0.8275  2.2981  1.1990
   22CHL1    O3 2737   3.834   3.175   7.304 -0.1002  0.3794  0.2498
   22CHL1   H3' 2738   3.907   3.197   7.363 -0.3402  0.0383  0.6841
   22CHL1    C4 2739   3.923   3.345   7.157 -0.1692  0.2175  0.4906
   22CHL1   H4A 2740   3.833   3.405   7.182 -0.5857 -0.2578  0.1633
   22CHL1   H4B 2741   3.994   3.389   7.230 -1.1138  1.1816  0.8499
   22CHL1    C5 2742   3.959   3.387   7.011 -0.1493  0.2984  0.1588
   22CHL1    C6 2743   4.062   3.464   6.984  0.6943 -0.1507 -0.8637
   22CHL1    H6 2744   4.119   3.503   7.069 -0.6758  0.1734 -0.0497
   22CHL1    C7 2745   4.101   3.512   6.853 -0.8021  0.1907 -0.3277
   22CHL1   H7A 2746   4.134   3.618   6.856 -0.3736  0.0876 -1.0870
   22CHL1   H7B 2747   4.189   3.452   6.822  1.6029  2.0346  2.3971
   22CHL1    C8 2748   3.991   3.490   6.750 -0.5769 -0.6876  0.3953
   22CHL1    H8 2749   3.903   3.555   6.766  1.7579  2.7796  0.2218
   22CHL1   C14 2750   4.061   3.495   6.617 -0.4388 -0.0307 -0.1482
   22CHL1   H14 2751   4.138   3.415   6.617  0.5834  0.9332 -0.1134
   22CHL1   C15 2752   4.144   3.617   6.581  0.2736 -0.3026  0.1781
   22CHL1  H15A 2753   4.099   3.719   6.592  0.1225 -0.2900 -0.5029
   22CHL1  H15B 2754   4.239   3.640   6.634 -0.0014  0.3097  0.4220
   22CHL1   C16 2755   4.167   3.624   6.426 -0.4231  0.2094 -0.3871
   22CHL1  H16A 2756   4.129   3.713   6.372  0.4385  2.4498  2.4264
   22CHL1  H16B 2757   4.275   3.620   6.401  0.6230  1.2066  3.2699
   22CHL1   C17 2758   4.088   3.499   6.382  0.4149  0.0179  0.2205
   22CHL1   H17 2759   4.152   3.409   6.397 -0.5736 -0.3645  2.6037
   22CHL1   C13 2760   3.981   3.471   6.490 -0.2550  0.6728  0.5645
   22CHL1   C18 2761   3.873   3.579   6.478 -0.0573  0.2869  0.0306
   22CHL1  H18A 2762   3.921   3.679   6.468  1.5125 -0.4211  0.2514
   22CHL1  H18B 2763   3.808   3.563   6.389  1.8759  0.2457 -1.4280
   22CHL1  H18C 2764   3.802   3.592   6.563  1.1879  1.8837  0.8827
   22CHL1   C12 2765   3.925   3.329   6.511 -0.0342 -0.3471 -0.3334
   22CHL1  H12A 2766   3.857   3.317   6.425 -0.9476 -3.3985  0.6545
   22CHL1  H12B 2767   4.002   3.249   6.502  0.7618  0.5794 -2.1195
   22CHL1   C11 2768   3.852   3.312   6.637  0.7913  0.0339 -0.2695
   22CHL1  H11A 2769   3.758   3.371   6.638 -1.2895 -3.0497  1.8092
   22CHL1  H11B 2770   3.820   3.207   6.650 -1.1969  0.7304  0.8049
   22CHL1    C9 2771   3.940   3.346   6.760 -0.1527 -0.3390  0.5796
   22CHL1    H9 2772   4.030   3.282   6.758  0.7741  0.9286  0.3299
   22CHL1   C10 2773   3.877   3.323   6.901  0.4017  0.1434  0.0674
   22CHL1   C19 2774   3.738   3.403   6.915 -0.0209  1.3180  0.6990
   22CHL1  H19A 2775   3.683   3.371   7.007  1.1735  1.1345  1.3764
   22CHL1  H19B 2776   3.757   3.512   6.908 -0.5164  1.2801 -2.5789
   22CHL1  H19C 2777   3.681   3.376   6.824  3.7136  1.4860 -1.8731
   22CHL1    C1 2778   3.858   3.177   6.925 -0.0292  0.2297  0.1493
   22CHL1   H1A 2779   3.799   3.123   6.848 -1.5313  0.3078  1.2005
   22CHL1   H1B 2780   3.954   3.121   6.921 -0.0765  0.1360  0.3515
   22CHL1    C2 2781   3.807   3.137   7.070  0.4188 -0.1653  0.6486
   22CHL1   H2A 2782   3.792   3.027   7.076  0.9155 -0.3219 -0.6529
   22CHL1   H2B 2783   3.702   3.174   7.080 -0.3696 -2.3703  1.1009
   22CHL1   C20 2784   4.064   3.500   6.232 -0.0821 -0.3843 -0.1549
   22CHL1   H20 2785   4.009   3.590   6.195  0.2162 -0.4933 -0.8772
   22CHL1   C21 2786   3.972   3.389   6.185  0.0334  0.1191 -0.5661
   22CHL1  H21A 2787   3.960   3.390   6.075  0.1736  0.0444 -0.5836
   22CHL1  H21B 2788   3.874   3.402   6.236 -0.5257 -2.5525 -0.8174
   22CHL1  H21C 2789   4.000   3.287   6.220  0.9926  1.0168  1.4687
   22CHL1   C22 2790   4.194   3.485   6.152 -0.5117  0.0035  0.2768
   22CHL1  H22A 2791   4.277   3.541   6.200  0.6151 -1.7086  0.4175
   22CHL1  H22B 2792   4.200   3.374   6.152 -4.3258 -0.3516  0.7593
   22CHL1   C23 2793   4.209   3.537   6.005 -0.8860  0.6013 -0.4675
   22CHL1  H23A 2794   4.305   3.497   5.967 -0.2401  0.2454  1.4024
   22CHL1  H23B 2795   4.132   3.481   5.948  0.0948 -0.6246 -0.6273
   22CHL1   C24 2796   4.196   3.687   5.989  0.6028 -0.3298 -0.1111
   22CHL1  H24A 2797   4.102   3.731   6.028  0.3885 -1.5570  0.8005
   22CHL1  H24B 2798   4.269   3.735   6.058  0.5978 -2.4538  1.4469
   22CHL1   C25 2799   4.208   3.735   5.838 -0.4364  0.5818 -0.2927
   22CHL1   H25 2800   4.309   3.695   5.814 -1.1266 -0.8218 -0.9904
   22CHL1   C26 2801   4.108   3.666   5.739 -0.6731  0.2129  0.4204
   22CHL1  H26A 2802   4.084   3.568   5.784  2.7778 -0.6416  0.6172
   22CHL1  H26B 2803   4.013   3.725   5.743 -0.2661  0.8319  1.2346
   22CHL1  H26C 2804   4.130   3.659   5.630 -1.0011  0.1473  0.3570
   22CHL1   C27 2805   4.212   3.891   5.824  0.0169 -0.3526 -0.1942
   22CHL1  H27A 2806   4.126   3.940   5.875  0.9602  1.8448 -0.5932
   22CHL1  H27B 2807   4.301   3.935   5.874 -1.2849 -0.6195  2.5009
   22CHL1  H27C 2808   4.207   3.918   5.716  0.4430  0.3531 -0.0423
   23CHL1    C3 2809   2.263   4.021   7.186 -0.2026 -0.2801  0.5771
   23CHL1    H3 2810   2.170   3.969   7.153  0.8797 -0.2634 -2.7987
   23CHL1    O3 2811   2.270   4.024   7.331 -0.3924  0.7409  0.3289
   23CHL1   H3' 2812   2.341   4.083   7.355  1.2916 -1.4087  0.9162
   23CHL1    C4 2813   2.387   3.948   7.122 -0.0478  0.1386  0.1552
   23CHL1   H4A 2814   2.482   3.974   7.173  0.8488 -2.9421  0.2511
   23CHL1   H4B 2815   2.377   3.843   7.157 -0.5804  0.3653  0.7047
   23CHL1    C5 2816   2.381   3.967   6.976  0.0288  0.2145  0.1554
   23CHL1    C6 2817   2.368   3.859   6.896  0.6483  0.1232 -0.5850
   23CHL1    H6 2818   2.364   3.760   6.944  0.6195  1.1761  1.6970
   23CHL1    C7 2819   2.375   3.870   6.747 -0.0680  1.1649  0.8194
   23CHL1   H7A 2820   2.431   3.778   6.719 -1.4274  0.1841  1.2182
   23CHL1   H7B 2821   2.267   3.857   6.723  0.6011  0.0076 -1.9923
   23CHL1    C8 2822   2.426   4.005   6.682  0.2125  0.1207 -0.1307
   23CHL1    H8 2823   2.537   4.011   6.686  0.2382 -0.5114  0.0976
   23CHL1   C14 2824   2.389   4.017   6.534  0.6067  0.9381  0.6131
   23CHL1   H14 2825   2.279   4.026   6.524  0.1825 -3.9946 -2.1984
   23CHL1   C15 2826   2.409   3.892   6.442 -0.0754  0.1753  0.6916
   23CHL1  H15A 2827   2.514   3.857   6.449 -0.3643 -0.4595  2.2428
   23CHL1  H15B 2828   2.343   3.807   6.469  3.2840 -2.7632  0.4008
   23CHL1   C16 2829   2.388   3.961   6.303 -1.0424  0.0925 -0.5683
   23CHL1  H16A 2830   2.475   3.935   6.239  0.0417  2.2793 -0.0813
   23CHL1  H16B 2831   2.295   3.936   6.249 -1.5671 -0.5042  0.5714
   23CHL1   C17 2832   2.377   4.117   6.324 -0.1431  0.0167  0.3447
   23CHL1   H17 2833   2.269   4.143   6.338  0.0043  0.9352 -0.0948
   23CHL1   C13 2834   2.436   4.147   6.468 -0.1464  0.1890 -0.3988
   23CHL1   C18 2835   2.596   4.137   6.465 -0.6454 -0.1994  0.7829
   23CHL1  H18A 2836   2.651   4.148   6.561  1.7179 -0.4350 -0.4832
   23CHL1  H18B 2837   2.620   4.045   6.407 -0.2952  0.1437  0.3846
   23CHL1  H18C 2838   2.626   4.230   6.413 -0.9247 -0.3426  0.3595
   23CHL1   C12 2839   2.373   4.264   6.547 -0.0840  0.2861  0.3567
   23CHL1  H12A 2840   2.403   4.363   6.506 -0.0142 -0.9542 -2.9000
   23CHL1  H12B 2841   2.262   4.255   6.541 -0.0352  0.3275 -0.7724
   23CHL1   C11 2842   2.399   4.254   6.692 -0.2726 -0.9297 -0.4165
   23CHL1  H11A 2843   2.505   4.282   6.710 -0.7727  0.2941  0.8685
   23CHL1  H11B 2844   2.343   4.331   6.751  0.2110 -1.4483  0.7485
   23CHL1    C9 2845   2.364   4.120   6.761 -0.2741  0.3449 -0.5581
   23CHL1    H9 2846   2.257   4.095   6.745 -0.4813  0.3028  0.8155
   23CHL1   C10 2847   2.388   4.109   6.916 -0.1836 -0.1936 -0.1094
   23CHL1   C19 2848   2.523   4.175   6.954 -0.2796 -0.0616 -0.2598
   23CHL1  H19A 2849   2.551   4.147   7.058  0.1403 -1.8535 -0.8131
   23CHL1  H19B 2850   2.596   4.137   6.879 -2.4759 -1.1456 -1.9638
   23CHL1  H19C 2851   2.512   4.284   6.941  0.5586 -0.0903 -1.3846
   23CHL1    C1 2852   2.271   4.193   6.989 -0.3750 -0.1385 -0.1005
   23CHL1   H1A 2853   2.288   4.301   6.967  0.8024 -0.3006 -0.0552
   23CHL1   H1B 2854   2.169   4.171   6.952 -0.2210  1.3162 -1.5225
   23CHL1    C2 2855   2.271   4.170   7.145 -0.1001 -0.3272  0.2228
   23CHL1   H2A 2856   2.180   4.222   7.182 -0.5654  0.0289 -1.3539
   23CHL1   H2B 2857   2.366   4.201   7.193  0.5759 -1.0994 -0.5695
   23CHL1   C20 2858   2.421   4.198   6.203  0.2627  0.2525 -0.6405
   23CHL1   H20 2859   2.531   4.186   6.187  0.5225  1.3748  0.2070
   23CHL1   C21 2860   2.394   4.346   6.224  0.3759 -0.1607 -0.5859
   23CHL1  H21A 2861   2.415   4.403   6.130 -1.0060  1.4644  0.0449
   23CHL1  H21B 2862   2.454   4.388   6.307 -2.2153 -0.2793  1.4498
   23CHL1  H21C 2863   2.288   4.361   6.250  0.3744 -0.7072 -0.2720
   23CHL1   C22 2864   2.359   4.159   6.067 -0.1300 -0.3798  0.3217
   23CHL1  H22A 2865   2.248   4.164   6.071 -0.4119  0.5136 -4.0326
   23CHL1  H22B 2866   2.394   4.238   5.998  0.5600 -1.9680 -1.2117
   23CHL1   C23 2867   2.413   4.030   6.001  0.1187 -0.5895  0.2092
   23CHL1  H23A 2868   2.364   3.942   6.047  0.7852 -0.8497  0.4286
   23CHL1  H23B 2869   2.381   4.024   5.895 -3.1055  1.5880  0.9013
   23CHL1   C24 2870   2.568   4.002   6.003  0.2489 -0.2693  0.3767
   23CHL1  H24A 2871   2.608   3.998   6.107 -0.2374  0.8095  0.6290
   23CHL1  H24B 2872   2.596   3.908   5.952 -2.8315 -0.5620 -1.0332
   23CHL1   C25 2873   2.657   4.099   5.933 -0.4389 -0.5094 -0.1073
   23CHL1   H25 2874   2.632   4.200   5.972 -1.2418 -0.5784 -0.4179
   23CHL1   C26 2875   2.801   4.073   5.972 -0.4136 -0.7196 -0.2348
   23CHL1  H26A 2876   2.873   4.154   5.949 -0.6014 -0.6408 -0.5479
   23CHL1  H26B 2877   2.818   4.050   6.079 -1.3745  0.6448  0.2320
   23CHL1  H26C 2878   2.824   3.977   5.920 -3.4050 -1.3917 -0.4979
   23CHL1   C27 2879   2.631   4.109   5.784  0.2052  0.2335 -0.0587
   23CHL1  H27A 2880   2.527   4.137   5.757 -0.3974 -0.9837  0.8520
   23CHL1  H27B 2881   2.705   4.178   5.739  1.5011 -1.5136 -0.7323
   23CHL1  H27C 2882   2.668   4.015   5.737 -1.5002 -0.4486 -0.1154
   24CHL1    C3 2883   2.109   5.041   7.213 -0.2313  0.3825 -0.2581
   24CHL1    H3 2884   2.211   5.013   7.181 -0.5789 -0.7012 -0.4619
   24CHL1    O3 2885   2.111   5.064   7.350 -0.1460  0.3879  0.2388
   24CHL1   H3' 2886   2.025   5.101   7.374 -0.6395 -0.9988  0.7189
   24CHL1    C4 2887   2.085   5.179   7.139  0.3086  0.1196  0.8413
   24CHL1   H4A 2888   1.998   5.238   7.174  0.6706 -0.0194  2.0224
   24CHL1   H4B 2889   2.175   5.238   7.163 -0.0589  0.5594  1.1410
   24CHL1    C5 2890   2.064   5.162   6.990 -0.0705  0.5843 -0.1959
   24CHL1    C6 2891   2.135   5.223   6.909  0.3020  0.3085  0.2883
   24CHL1    H6 2892   2.218   5.285   6.948  1.0948  1.4865 -2.9453
   24CHL1    C7 2893   2.110   5.215   6.760 -0.0932  0.7068  0.0661
   24CHL1   H7A 2894   2.136   5.304   6.700  1.6337  0.1253 -0.1127
   24CHL1   H7B 2895   2.166   5.128   6.718 -1.8474 -0.4730  0.0532
   24CHL1    C8 2896   1.966   5.173   6.717  0.5518  0.1197 -0.4029
   24CHL1    H8 2897   1.889   5.244   6.753 -0.6614 -1.5096  0.3700
   24CHL1   C14 2898   1.943   5.153   6.567 -0.1375 -0.4891 -0.1311
   24CHL1   H14 2899   2.026   5.084   6.543  0.8861  0.5867  0.2272
   24CHL1   C15 2900   1.958   5.265   6.466 -0.0627 -0.1322 -0.0908
   24CHL1  H15A 2901   1.917   5.360   6.506 -0.3223  0.6518 -2.0939
   24CHL1  H15B 2902   2.066   5.282   6.446  0.3292  0.6345  2.4100
   24CHL1   C16 2903   1.876   5.222   6.348 -0.6612 -0.2036  0.7115
   24CHL1  H16A 2904   1.800   5.300   6.328  0.7260  1.8201  2.8736
   24CHL1  H16B 2905   1.948   5.213   6.263  0.0604  1.4717  1.1180
   24CHL1   C17 2906   1.804   5.087   6.379 -0.2018  0.7540 -0.2071
   24CHL1   H17 2907   1.871   5.002   6.357  0.0026  1.2689 -1.6967
   24CHL1   C13 2908   1.810   5.089   6.531  0.3262 -0.1373  0.4059
   24CHL1   C18 2909   1.693   5.180   6.577  0.5913  0.6984  0.3158
   24CHL1  H18A 2910   1.681   5.192   6.687 -1.9506  1.3586  0.0465
   24CHL1  H18B 2911   1.701   5.286   6.545 -0.8369  0.9395  0.6749
   24CHL1  H18C 2912   1.596   5.140   6.541  0.5978  0.0905  0.9539
   24CHL1   C12 2913   1.805   4.946   6.605 -0.2728  1.2720  0.9707
   24CHL1  H12A 2914   1.709   4.895   6.580 -0.2138  0.5452  2.1415
   24CHL1  H12B 2915   1.894   4.884   6.580  0.2481  2.2077  0.4827
   24CHL1   C11 2916   1.799   4.971   6.753 -0.3845  0.6558 -0.0824
   24CHL1  H11A 2917   1.705   5.022   6.780  0.0646  1.4948 -0.0672
   24CHL1  H11B 2918   1.792   4.874   6.806  0.1467  1.8061  2.2229
   24CHL1    C9 2919   1.929   5.045   6.796  0.8895  0.0583  0.2938
   24CHL1    H9 2920   2.001   4.964   6.772  0.7270 -1.3549  3.9116
   24CHL1   C10 2921   1.946   5.066   6.953  0.1545 -0.5379  0.1896
   24CHL1   C19 2922   1.807   5.121   7.005  0.3857 -0.4105  1.0797
   24CHL1  H19A 2923   1.721   5.053   6.991 -0.2770  0.6851 -0.3887
   24CHL1  H19B 2924   1.805   5.146   7.114 -2.5558 -0.3481  1.0826
   24CHL1  H19C 2925   1.785   5.219   6.957  0.2340 -0.5438  0.8804
   24CHL1    C1 2926   1.978   4.932   7.015 -0.3528 -0.2021  0.2810
   24CHL1   H1A 2927   1.900   4.856   6.992 -0.3964 -0.7034  1.9705
   24CHL1   H1B 2928   2.082   4.906   6.984  0.7034  0.3841  3.0522
   24CHL1    C2 2929   2.002   4.932   7.173 -0.3828 -0.4474 -0.6724
   24CHL1   H2A 2930   2.039   4.833   7.207 -1.2924 -0.8451 -0.8024
   24CHL1   H2B 2931   1.906   4.959   7.221 -0.2977 -3.0787  1.1500
   24CHL1   C20 2932   1.674   5.060   6.298  0.1704  0.2226  0.0115
   24CHL1   H20 2933   1.584   5.097   6.353  1.9709  2.9702  1.3690
   24CHL1   C21 2934   1.665   4.909   6.274 -0.1868 -0.2389 -0.4004
   24CHL1  H21A 2935   1.760   4.865   6.239  0.0600  0.3617 -0.4984
   24CHL1  H21B 2936   1.584   4.876   6.205  0.4847 -2.3679 -0.2437
   24CHL1  H21C 2937   1.656   4.864   6.375 -1.0941  0.2909 -0.2259
   24CHL1   C22 2938   1.662   5.129   6.161  0.7250  0.7061  0.2580
   24CHL1  H22A 2939   1.707   5.231   6.164  4.3168 -0.7265  0.9414
   24CHL1  H22B 2940   1.724   5.065   6.094 -1.9421 -2.8913  0.9161
   24CHL1   C23 2941   1.521   5.141   6.101 -0.2263  0.1255 -0.1668
   24CHL1  H23A 2942   1.496   5.034   6.083 -0.9910  0.2026  0.3884
   24CHL1  H23B 2943   1.454   5.160   6.187 -0.3232 -0.7782 -0.0283
   24CHL1   C24 2944   1.501   5.226   5.979 -0.7258  0.9062  1.1273
   24CHL1  H24A 2945   1.520   5.332   6.009 -2.8156  1.3797  0.9485
   24CHL1  H24B 2946   1.574   5.193   5.902 -0.7922  0.0797  1.4107
   24CHL1   C25 2947   1.349   5.214   5.927  0.1213 -0.8504 -0.0730
   24CHL1   H25 2948   1.281   5.225   6.014 -0.8560  2.1512 -1.1036
   24CHL1   C26 2949   1.319   5.333   5.834  0.7338  0.4158  0.9240
   24CHL1  H26A 2950   1.219   5.322   5.787  0.4326  0.7941  1.4689
   24CHL1  H26B 2951   1.328   5.435   5.879  3.2096  0.0479  1.4073
   24CHL1  H26C 2952   1.395   5.323   5.754  1.3985  3.1772  1.1023
   24CHL1   C27 2953   1.321   5.085   5.848 -0.1420 -0.1813  0.1248
   24CHL1  H27A 2954   1.385   5.079   5.758  0.0504 -0.1859  0.2633
   24CHL1  H27B 2955   1.333   5.001   5.920  1.7840 -0.6029 -0.6253
   24CHL1  H27C 2956   1.219   5.082   5.803 -0.8958  3.5729  1.1925
   25CHL1    C3 2957   1.197   4.363   7.115 -0.2156  0.2781 -0.0403
   25CHL1    H3 2958   1.088   4.385   7.123 -0.0130  1.3192 -0.0593
   25CHL1    O3 2959   1.266   4.382   7.236 -0.0228 -0.2521 -0.3592
   25CHL1   H3' 2960   1.247   4.475   7.251  0.0088 -0.1743 -0.7967
   25CHL1    C4 2961   1.226   4.215   7.068  0.1797 -0.2665 -0.6952
   25CHL1   H4A 2962   1.334   4.194   7.085 -0.2179 -0.9506  1.2555
   25CHL1   H4B 2963   1.173   4.146   7.138 -1.9353  1.5068 -0.4580
   25CHL1    C5 2964   1.195   4.180   6.926  0.4000 -0.1869 -0.2359
   25CHL1    C6 2965   1.120   4.075   6.892  0.4426  0.1570 -0.5237
   25CHL1    H6 2966   1.074   4.012   6.971  0.1470  1.7203  0.5941
   25CHL1    C7 2967   1.066   4.053   6.754 -0.4952  0.3204 -0.4700
   25CHL1   H7A 2968   1.070   3.944   6.732 -0.7024 -0.4657  2.8342
   25CHL1   H7B 2969   0.961   4.089   6.750 -0.3846  0.5366 -1.5455
   25CHL1    C8 2970   1.159   4.118   6.651  0.2741  0.4644  0.1433
   25CHL1    H8 2971   1.259   4.069   6.646  1.1755  2.3377 -1.4865
   25CHL1   C14 2972   1.089   4.104   6.515 -0.2907  0.3784 -0.2862
   25CHL1   H14 2973   0.993   4.158   6.522 -0.6441 -0.2839  0.0851
   25CHL1   C15 2974   1.058   3.960   6.465 -0.0798 -0.4420  0.1942
   25CHL1  H15A 2975   1.128   3.877   6.488 -1.3108 -2.3778 -2.5118
   25CHL1  H15B 2976   0.955   3.931   6.495  0.0367 -0.1070  0.9460
   25CHL1   C16 2977   1.053   3.974   6.308 -0.5589  0.0312  0.1669
   25CHL1  H16A 2978   1.144   3.924   6.268  1.4728  2.7271  1.1260
   25CHL1  H16B 2979   0.965   3.926   6.259 -1.8631  0.4473  1.9957
   25CHL1   C17 2980   1.073   4.128   6.280  0.5412  0.1718 -0.2228
   25CHL1   H17 2981   0.977   4.183   6.295  1.7667  3.1009 -2.1639
   25CHL1   C13 2982   1.160   4.173   6.403  0.2869 -0.2681  0.2437
   25CHL1   C18 2983   1.303   4.125   6.385 -0.0125 -0.3139  0.6539
   25CHL1  H18A 2984   1.368   4.185   6.317 -1.4965  0.7363  0.1029
   25CHL1  H18B 2985   1.355   4.144   6.481  0.8687  0.9745 -0.0258
   25CHL1  H18C 2986   1.316   4.019   6.357 -0.7167  0.1223 -1.5385
   25CHL1   C12 2987   1.157   4.325   6.437 -0.4962  0.3494 -0.1041
   25CHL1  H12A 2988   1.197   4.392   6.358 -0.8213  1.7843  0.9144
   25CHL1  H12B 2989   1.054   4.363   6.453  0.7195  2.9914  2.1100
   25CHL1   C11 2990   1.228   4.359   6.573 -0.1465  0.0756 -0.4957
   25CHL1  H11A 2991   1.337   4.355   6.554  0.1145 -0.2021  0.9968
   25CHL1  H11B 2992   1.213   4.467   6.595  2.2164  1.3081 -3.9542
   25CHL1    C9 2993   1.169   4.266   6.685 -1.1337 -0.3364 -0.3384
   25CHL1    H9 2994   1.067   4.309   6.698 -0.6554  1.0998 -1.1266
   25CHL1   C10 2995   1.234   4.288   6.823  0.7463  0.6236 -0.6878
   25CHL1   C19 2996   1.389   4.262   6.809 -0.1326  0.2312  0.8836
   25CHL1  H19A 2997   1.451   4.285   6.898  0.5250  0.0563  0.4766
   25CHL1  H19B 2998   1.421   4.161   6.778  0.8594  0.4396  1.1974
   25CHL1  H19C 2999   1.437   4.334   6.739 -0.8551  1.2503  1.4074
   25CHL1    C1 3000   1.210   4.429   6.874  0.2144  0.0676 -0.1438
   25CHL1   H1A 3001   1.257   4.503   6.806 -0.0380  0.8325  0.4923
   25CHL1   H1B 3002   1.100   4.447   6.873  0.1301  1.5273  4.7827
   25CHL1    C2 3003   1.258   4.455   7.019  0.6670 -0.0085  0.1614
   25CHL1   H2A 3004   1.228   4.562   7.029  0.2302 -0.1150  0.0490
   25CHL1   H2B 3005   1.369   4.454   7.013  0.7430  2.5410  0.0722
   25CHL1   C20 3006   1.116   4.157   6.142 -0.3188 -0.2479 -0.0464
   25CHL1   H20 3007   1.214   4.107   6.128  0.7759  1.9647 -0.5884
   25CHL1   C21 3008   1.139   4.302   6.114  0.4633 -0.1667 -0.2573
   25CHL1  H21A 3009   1.118   4.332   6.009  1.0674  0.2850 -0.2550
   25CHL1  H21B 3010   1.245   4.330   6.133  0.1701  0.5022  0.4205
   25CHL1  H21C 3011   1.071   4.357   6.182 -0.5224 -1.0006 -0.5444
   25CHL1   C22 3012   1.034   4.107   6.024  1.0766  0.3662 -0.3490
   25CHL1  H22A 3013   1.088   4.129   5.929  2.2258 -0.9990 -0.0510
   25CHL1  H22B 3014   1.033   3.997   6.034 -1.6853 -0.0493 -3.6299
   25CHL1   C23 3015   0.886   4.161   6.017 -0.5073  0.2914  0.3979
   25CHL1  H23A 3016   0.842   4.133   6.115  1.6965 -0.5185  1.2157
   25CHL1  H23B 3017   0.886   4.272   6.017  1.9899  0.3619  1.6814
   25CHL1   C24 3018   0.805   4.116   5.895  0.3399 -0.7774 -0.3072
   25CHL1  H24A 3019   0.848   4.173   5.810  0.7752  0.6211  0.8176
   25CHL1  H24B 3020   0.836   4.009   5.889 -0.1098 -0.9706  0.6806
   25CHL1   C25 3021   0.655   4.145   5.904  0.9017  0.4552 -0.1915
   25CHL1   H25 3022   0.604   4.085   5.826 -1.9394 -0.8770  2.4736
   25CHL1   C26 3023   0.583   4.095   6.026 -0.5667  0.4530  0.0339
   25CHL1  H26A 3024   0.596   3.985   6.039  0.7842  0.8201  2.6226
   25CHL1  H26B 3025   0.623   4.140   6.120 -1.5881  1.1046  0.1722
   25CHL1  H26C 3026   0.473   4.109   6.025 -0.5279  1.1632 -2.8453
   25CHL1   C27 3027   0.627   4.289   5.891 -0.1187  0.2598  0.1328
   25CHL1  H27A 3028   0.673   4.341   5.978 -2.1894  0.3728  1.2297
   25CHL1  H27B 3029   0.682   4.328   5.804  0.1448 -0.6220 -0.1065
   25CHL1  H27C 3030   0.519   4.315   5.896  0.1381  1.1917  1.9148
   26CHL1    C3 3031   0.826   4.275   7.339 -0.0365 -1.0308 -0.4334
   26CHL1    H3 3032   0.935   4.296   7.344  0.0842 -1.7798  0.4272
   26CHL1    O3 3033   0.791   4.226   7.472 -0.2009 -0.2524  0.3814
   26CHL1   H3' 3034   0.825   4.136   7.463 -0.8516 -0.4182 -0.5735
   26CHL1    C4 3035   0.761   4.414   7.312  0.5179 -0.0639  0.0936
   26CHL1   H4A 3036   0.652   4.402   7.329  0.6588 -1.4694  0.1389
   26CHL1   H4B 3037   0.809   4.489   7.379 -1.6041 -0.0867  1.7698
   26CHL1    C5 3038   0.774   4.451   7.162  0.3572 -0.7375  0.8528
   26CHL1    C6 3039   0.830   4.567   7.125  0.1228 -0.4556  0.1992
   26CHL1    H6 3040   0.877   4.635   7.198 -0.2798 -0.4524  0.4591
   26CHL1    C7 3041   0.841   4.616   6.982  0.0547  0.0027 -0.2542
   26CHL1   H7A 3042   0.811   4.723   6.977  1.2826  0.5223  2.0066
   26CHL1   H7B 3043   0.942   4.603   6.938  0.5297  2.0094  0.0975
   26CHL1    C8 3044   0.753   4.538   6.882 -0.5292  0.4790  0.6456
   26CHL1    H8 3045   0.652   4.575   6.910 -0.6207 -1.3395  2.9612
   26CHL1   C14 3046   0.798   4.569   6.738 -0.1515  0.4376 -0.4740
   26CHL1   H14 3047   0.905   4.543   6.732  0.0037  0.2036  2.0420
   26CHL1   C15 3048   0.780   4.712   6.690  0.1436  0.0497  0.3944
   26CHL1  H15A 3049   0.692   4.759   6.740  1.5958 -0.0434  3.3104
   26CHL1  H15B 3050   0.876   4.756   6.728  0.1679 -0.2575  0.6971
   26CHL1   C16 3051   0.762   4.712   6.541 -0.0509  0.2336 -0.3256
   26CHL1  H16A 3052   0.676   4.768   6.498  1.3619  3.5046  0.8343
   26CHL1  H16B 3053   0.849   4.760   6.492 -0.2791 -0.0520 -1.0113
   26CHL1   C17 3054   0.758   4.562   6.512  0.1312  0.6401  0.2196
   26CHL1   H17 3055   0.863   4.528   6.495 -0.5716 -0.7312 -1.6147
   26CHL1   C13 3056   0.717   4.479   6.638 -0.2193 -0.3358 -0.6205
   26CHL1   C18 3057   0.565   4.486   6.661 -0.2682 -0.5029 -0.5281
   26CHL1  H18A 3058   0.537   4.469   6.768  2.9662 -0.4622  0.4212
   26CHL1  H18B 3059   0.518   4.585   6.641 -0.2273 -0.8624 -2.6134
   26CHL1  H18C 3060   0.510   4.419   6.592  0.2991  1.1322 -2.6855
   26CHL1   C12 3061   0.758   4.334   6.660  1.0529 -0.3930  0.3414
   26CHL1  H12A 3062   0.714   4.263   6.588  1.8362 -0.6773  0.1347
   26CHL1  H12B 3063   0.868   4.327   6.646  1.1689  1.2574  0.2366
   26CHL1   C11 3064   0.719   4.287   6.799 -0.2446  0.0761  0.0699
   26CHL1  H11A 3065   0.609   4.281   6.811 -0.2623 -0.2815 -0.2363
   26CHL1  H11B 3066   0.752   4.183   6.820  1.6803  0.9263  1.4579
   26CHL1    C9 3067   0.768   4.387   6.910  0.4107 -0.4089 -0.9411
   26CHL1    H9 3068   0.878   4.372   6.907  0.8453  1.0749  2.5855
   26CHL1   C10 3069   0.733   4.346   7.061  0.6938  0.0356 -0.0092
   26CHL1   C19 3070   0.577   4.330   7.064 -0.0272 -0.2635  0.1661
   26CHL1  H19A 3071   0.531   4.313   7.163 -2.7191  0.8756 -0.7976
   26CHL1  H19B 3072   0.522   4.423   7.037 -1.8992 -1.2910  0.3015
   26CHL1  H19C 3073   0.532   4.256   6.995 -2.7686 -0.2694  1.8092
   26CHL1    C1 3074   0.804   4.211   7.098 -0.1523 -0.5833 -0.1564
   26CHL1   H1A 3075   0.772   4.126   7.035 -0.2290 -1.4344  1.0064
   26CHL1   H1B 3076   0.913   4.214   7.079 -0.3117 -0.9045 -1.1550
   26CHL1    C2 3077   0.780   4.165   7.246  0.1405 -0.3231 -0.2700
   26CHL1   H2A 3078   0.822   4.064   7.267  1.9626  0.5579  0.5338
   26CHL1   H2B 3079   0.671   4.155   7.261  0.0008 -1.6401 -1.8209
   26CHL1   C20 3080   0.674   4.536   6.380 -0.9338  0.1686  0.4086
   26CHL1   H20 3081   0.566   4.561   6.394 -1.1604 -1.2476  1.4390
   26CHL1   C21 3082   0.684   4.383   6.333  0.1969 -0.0823  0.1710
   26CHL1  H21A 3083   0.658   4.384   6.225  0.6173 -1.1548  0.0453
   26CHL1  H21B 3084   0.615   4.312   6.383  0.2730 -1.2848 -1.3572
   26CHL1  H21C 3085   0.791   4.356   6.343  0.4704  1.3396  1.4116
   26CHL1   C22 3086   0.717   4.628   6.258  0.4957 -0.0508  0.3302
   26CHL1  H22A 3087   0.632   4.613   6.188  0.4971 -0.5586  0.4329
   26CHL1  H22B 3088   0.711   4.737   6.283 -0.7521  0.1351 -0.6540
   26CHL1   C23 3089   0.850   4.594   6.182 -0.3125  0.4218  0.2445
   26CHL1  H23A 3090   0.944   4.576   6.239 -0.2443 -0.1646 -0.0395
   26CHL1  H23B 3091   0.843   4.494   6.133  0.4090  0.6624 -0.3604
   26CHL1   C24 3092   0.887   4.706   6.080  0.8623 -0.8900 -0.2323
   26CHL1  H24A 3093   0.881   4.802   6.134  0.5676 -0.1616 -1.5196
   26CHL1  H24B 3094   0.985   4.690   6.030  2.3164  2.9582  0.9911
   26CHL1   C25 3095   0.781   4.723   5.961 -0.0784 -0.0422  0.4393
   26CHL1   H25 3096   0.681   4.738   6.006 -0.3459 -2.1671  0.6616
   26CHL1   C26 3097   0.816   4.838   5.864 -0.9238  0.1683  0.3812
   26CHL1  H26A 3098   0.909   4.819   5.806 -1.0481 -1.1156  0.5844
   26CHL1  H26B 3099   0.727   4.833   5.798 -1.6581 -1.8345  1.4452
   26CHL1  H26C 3100   0.821   4.935   5.918  2.2426  0.7149 -0.6479
   26CHL1   C27 3101   0.769   4.592   5.883  0.1357 -0.2347 -0.5175
   26CHL1  H27A 3102   0.701   4.614   5.797  0.0020  0.0267 -0.3435
   26CHL1  H27B 3103   0.864   4.556   5.837  0.5983  0.1381  0.1450
   26CHL1  H27C 3104   0.730   4.521   5.959 -0.1653  0.1047 -0.3515
   27CHL1    C3 3105   2.323   2.336   7.405 -0.3891  0.7346 -0.0495
   27CHL1    H3 3106   2.380   2.432   7.409 -0.3765  0.6825  1.1574
   27CHL1    O3 3107   2.320   2.282   7.530  0.3513 -0.5255 -0.0959
   27CHL1   H3' 3108   2.264   2.332   7.590 -0.5514 -1.1007 -0.4299
   27CHL1    C4 3109   2.182   2.344   7.350 -0.2180 -0.3666  0.1908
   27CHL1   H4A 3110   2.130   2.247   7.364 -3.9309  1.1251 -1.6760
   27CHL1   H4B 3111   2.119   2.408   7.416  1.0856  1.2123 -0.0090
   27CHL1    C5 3112   2.184   2.389   7.206  0.2082  0.4986  0.7709
   27CHL1    C6 3113   2.109   2.494   7.167 -0.4566 -0.3777 -0.2648
   27CHL1    H6 3114   2.045   2.556   7.232 -1.7481 -0.5223 -1.3550
   27CHL1    C7 3115   2.092   2.527   7.021 -0.3976 -0.0221 -0.1933
   27CHL1   H7A 3116   1.986   2.556   7.004 -0.9006  0.7282  3.3957
   27CHL1   H7B 3117   2.155   2.618   7.007 -0.3703  0.1664  1.0906
   27CHL1    C8 3118   2.143   2.421   6.919  0.9126 -0.4244  0.3042
   27CHL1    H8 3119   2.056   2.355   6.901  0.6565  0.0670 -0.2971
   27CHL1   C14 3120   2.182   2.482   6.788  0.3675 -0.6024  0.0908
   27CHL1   H14 3121   2.269   2.550   6.806 -0.6638  1.1903 -1.3089
   27CHL1   C15 3122   2.088   2.589   6.725  0.1543  0.4821  0.6792
   27CHL1  H15A 3123   1.981   2.560   6.726 -0.1962  1.7506  0.5937
   27CHL1  H15B 3124   2.089   2.691   6.769 -0.5328  1.1225 -0.7348
   27CHL1   C16 3125   2.129   2.594   6.573 -0.0021  0.0454 -0.2256
   27CHL1  H16A 3126   2.040   2.588   6.506  1.2805 -0.8949 -1.9225
   27CHL1  H16B 3127   2.173   2.692   6.547 -1.3998  0.1534 -2.4654
   27CHL1   C17 3128   2.241   2.490   6.555  0.4775 -0.5775  0.5985
   27CHL1   H17 3129   2.334   2.540   6.590  0.6514  0.0556 -0.6940
   27CHL1   C13 3130   2.219   2.387   6.677 -0.1710 -0.1817 -0.0665
   27CHL1   C18 3131   2.102   2.297   6.643  0.0169  0.5609  0.3363
   27CHL1  H18A 3132   2.066   2.248   6.736  1.1500  0.5943  0.8004
   27CHL1  H18B 3133   2.017   2.350   6.595  0.0769  0.4434  0.0992
   27CHL1  H18C 3134   2.139   2.219   6.573  1.0610  2.0389 -0.8285
   27CHL1   C12 3135   2.342   2.312   6.716 -0.4035  0.5738 -0.1646
   27CHL1  H12A 3136   2.367   2.226   6.650  0.0424 -0.3161  1.1143
   27CHL1  H12B 3137   2.430   2.379   6.720  1.7451 -1.9005 -1.9354
   27CHL1   C11 3138   2.316   2.249   6.855 -0.2489 -1.0942  0.1662
   27CHL1  H11A 3139   2.261   2.153   6.848  1.2025 -1.9135 -0.6016
   27CHL1  H11B 3140   2.414   2.213   6.893 -1.1653 -0.8115  3.0220
   27CHL1    C9 3141   2.268   2.348   6.971  0.6663  0.1211 -0.1090
   27CHL1    H9 3142   2.349   2.424   6.977 -0.4070  1.6215 -2.7644
   27CHL1   C10 3143   2.260   2.285   7.110 -0.2215 -0.2882  0.0094
   27CHL1   C19 3144   2.186   2.152   7.103  0.4852  0.7013 -0.0233
   27CHL1  H19A 3145   2.249   2.080   7.047  0.3103 -1.7005  2.6416
   27CHL1  H19B 3146   2.184   2.117   7.209 -1.6499 -0.9573 -0.5324
   27CHL1  H19C 3147   2.085   2.165   7.059  0.5345  1.7911  0.1524
   27CHL1    C1 3148   2.402   2.271   7.173  0.2509 -0.3423 -0.8897
   27CHL1   H1A 3149   2.460   2.191   7.123 -0.1620 -1.4871  0.4294
   27CHL1   H1B 3150   2.457   2.367   7.161 -0.3139  0.5145  2.3871
   27CHL1    C2 3151   2.406   2.236   7.321  0.3957 -0.0014 -0.3872
   27CHL1   H2A 3152   2.510   2.216   7.355  0.8784  1.2609 -1.0508
   27CHL1   H2B 3153   2.354   2.138   7.325  0.8126 -0.2359  3.3529
   27CHL1   C20 3154   2.265   2.431   6.420  0.9040  0.3728 -0.0340
   27CHL1   H20 3155   2.184   2.357   6.399  0.2241  0.4127  2.2365
   27CHL1   C21 3156   2.398   2.358   6.409  0.4170  0.2434  0.6055
   27CHL1  H21A 3157   2.436   2.342   6.306  0.0523 -1.4902  0.7067
   27CHL1  H21B 3158   2.391   2.257   6.454 -1.0404  0.9659  2.1301
   27CHL1  H21C 3159   2.478   2.420   6.456  0.9437 -0.4690  0.6634
   27CHL1   C22 3160   2.266   2.533   6.304  0.2639  0.1205 -0.0327
   27CHL1  H22A 3161   2.215   2.629   6.325  2.4850  1.1742  0.9077
   27CHL1  H22B 3162   2.372   2.566   6.294  0.2818 -0.1032 -0.6287
   27CHL1   C23 3163   2.248   2.463   6.167  0.5627 -0.7831 -0.0203
   27CHL1  H23A 3164   2.323   2.384   6.143 -0.5126 -1.7258 -0.3818
   27CHL1  H23B 3165   2.147   2.418   6.162  0.4400 -0.7546  1.7464
   27CHL1   C24 3166   2.253   2.562   6.048  0.6415 -0.2988  0.4370
   27CHL1  H24A 3167   2.209   2.657   6.084 -0.1454 -0.3787 -0.2786
   27CHL1  H24B 3168   2.357   2.585   6.019  0.5604 -0.1778  0.2420
   27CHL1   C25 3169   2.178   2.517   5.924  0.2010 -0.9389 -0.2547
   27CHL1   H25 3170   2.073   2.497   5.954  0.7189 -3.0319  0.3224
   27CHL1   C26 3171   2.184   2.625   5.817 -0.2162 -0.5947  0.0847
   27CHL1  H26A 3172   2.096   2.690   5.834 -0.1187 -0.4739  0.1274
   27CHL1  H26B 3173   2.280   2.681   5.821 -0.6379  0.2065 -0.5979
   27CHL1  H26C 3174   2.181   2.586   5.713  0.4681  1.3859 -0.7406
   27CHL1   C27 3175   2.239   2.386   5.874 -0.5250  0.4790  0.1187
   27CHL1  H27A 3176   2.209   2.302   5.940 -1.0830  0.2609 -0.3989
   27CHL1  H27B 3177   2.349   2.387   5.865 -0.5537 -0.8377 -0.6036
   27CHL1  H27C 3178   2.200   2.376   5.771  2.2579 -1.3244 -0.8827
   28CHL1    C3 3179   1.002   0.102   7.517 -0.2781  0.4848 -0.7839
   28CHL1    H3 3180   0.930   0.018   7.524  0.2831  0.0973  0.5794
   28CHL1    O3 3181   1.028   0.125   7.657 -0.0990 -0.5090  0.3254
   28CHL1   H3' 3182   1.087   0.201   7.658  0.8804 -1.2247  1.9483
   28CHL1    C4 3183   1.134   0.063   7.450  0.0680 -0.3642  0.6371
   28CHL1   H4A 3184   1.216   0.136   7.467 -0.2972  0.4915 -0.9934
   28CHL1   H4B 3185   1.159  -0.038   7.489 -0.1592 -0.5711  0.2587
   28CHL1    C5 3186   1.114   0.051   7.301 -0.0656 -0.3728 -0.0074
   28CHL1    C6 3187   1.153  -0.056   7.233  0.9685  0.1537  0.1602
   28CHL1    H6 3188   1.198  -0.142   7.285 -0.8222 -1.3588 -0.6637
   28CHL1    C7 3189   1.151  -0.062   7.087 -0.3246  0.7203 -0.7126
   28CHL1   H7A 3190   1.247  -0.113   7.061 -0.3154 -0.2291  1.0517
   28CHL1   H7B 3191   1.064  -0.123   7.055 -0.1596  0.8124 -1.3517
   28CHL1    C8 3192   1.143   0.073   7.013 -0.2871 -0.3236 -1.3377
   28CHL1    H8 3193   1.241   0.125   7.023 -0.3702 -0.3414 -0.2562
   28CHL1   C14 3194   1.112   0.054   6.867 -0.5977 -0.1036  0.2465
   28CHL1   H14 3195   1.014   0.006   6.849 -1.0139  0.7899  0.0673
   28CHL1   C15 3196   1.212  -0.043   6.795  0.0882 -0.3808  0.1504
   28CHL1  H15A 3197   1.313  -0.024   6.838 -0.7202  1.4161  1.4020
   28CHL1  H15B 3198   1.194  -0.151   6.815 -3.6150 -0.1043 -0.9044
   28CHL1   C16 3199   1.203  -0.005   6.646 -0.4818 -0.7004 -0.3524
   28CHL1  H16A 3200   1.307   0.002   6.606 -0.9390  1.6177 -1.3098
   28CHL1  H16B 3201   1.148  -0.087   6.595  0.1445 -0.2077 -1.8878
   28CHL1   C17 3202   1.111   0.117   6.647  0.1764 -0.2288  0.6850
   28CHL1   H17 3203   1.002   0.091   6.646 -0.2272  1.4003 -0.2556
   28CHL1   C13 3204   1.119   0.184   6.784 -0.4917  0.7738  0.2507
   28CHL1   C18 3205   1.252   0.252   6.794  0.1110 -0.7209 -0.5993
   28CHL1  H18A 3206   1.332   0.176   6.777  1.0660  0.0088  0.4939
   28CHL1  H18B 3207   1.248   0.337   6.722 -1.1007 -0.7982 -0.6417
   28CHL1  H18C 3208   1.276   0.287   6.896  0.4480 -0.1285 -0.8799
   28CHL1   C12 3209   1.006   0.275   6.843  0.6273  0.6462 -0.6560
   28CHL1  H12A 3210   1.031   0.373   6.799  0.7161  1.2234  0.6442
   28CHL1  H12B 3211   0.905   0.256   6.799 -0.6906 -2.1341  3.0204
   28CHL1   C11 3212   1.017   0.293   6.997 -0.0699  0.0002 -0.3705
   28CHL1  H11A 3213   1.113   0.348   7.000  0.0454 -0.2373  0.3982
   28CHL1  H11B 3214   0.930   0.356   7.023  0.0291  0.9421 -2.1748
   28CHL1    C9 3215   1.033   0.164   7.078 -0.4918  0.8854 -0.0473
   28CHL1    H9 3216   0.941   0.104   7.059 -0.7231  1.2662 -0.1602
   28CHL1   C10 3217   1.054   0.177   7.235  0.1225 -0.1782  0.0805
   28CHL1   C19 3218   1.165   0.294   7.246 -0.1100 -0.3513  0.5291
   28CHL1  H19A 3219   1.189   0.315   7.352 -1.2122 -0.9116  0.9029
   28CHL1  H19B 3220   1.263   0.276   7.196  0.1660  3.4722 -0.6239
   28CHL1  H19C 3221   1.125   0.388   7.203 -2.0254 -0.7731  1.2925
   28CHL1    C1 3222   0.921   0.222   7.313  0.1746 -0.1537  0.1375
   28CHL1   H1A 3223   0.881   0.319   7.278 -1.8702 -0.0670  2.4881
   28CHL1   H1B 3224   0.849   0.138   7.302 -0.9519  1.0263 -2.0389
   28CHL1    C2 3225   0.931   0.227   7.465 -0.3206  0.0881 -0.1430
   28CHL1   H2A 3226   0.837   0.254   7.519  1.1332  2.9183  1.2157
   28CHL1   H2B 3227   1.007   0.306   7.484  0.0181 -0.8792  3.2548
   28CHL1   C20 3228   1.141   0.203   6.523  0.2462  0.2313 -0.0302
   28CHL1   H20 3229   1.233   0.266   6.527 -0.8981  2.1309 -1.7908
   28CHL1   C21 3230   1.029   0.306   6.512  0.7958  0.4298 -0.0001
   28CHL1  H21A 3231   0.934   0.252   6.495  1.2404 -0.5282  0.5140
   28CHL1  H21B 3232   1.045   0.371   6.423 -0.1804  0.2993 -0.2798
   28CHL1  H21C 3233   1.032   0.376   6.599  0.0313 -0.8373  1.0767
   28CHL1   C22 3234   1.166   0.121   6.397  0.2669  0.0032 -0.1417
   28CHL1  H22A 3235   1.244   0.043   6.411  0.4510  0.2692  0.3257
   28CHL1  H22B 3236   1.076   0.056   6.389  0.6224 -0.9900  2.6497
   28CHL1   C23 3237   1.212   0.211   6.284  0.1741  0.6409 -0.5002
   28CHL1  H23A 3238   1.125   0.276   6.260  0.5547  1.8104  1.0709
   28CHL1  H23B 3239   1.297   0.281   6.302  2.0147 -1.2899 -1.2210
   28CHL1   C24 3240   1.255   0.130   6.164 -0.4655 -0.2314  1.1542
   28CHL1  H24A 3241   1.339   0.063   6.190 -0.2609 -0.4306  0.0214
   28CHL1  H24B 3242   1.169   0.078   6.117 -1.0473  1.4688  0.2363
   28CHL1   C25 3243   1.310   0.224   6.059  0.5053 -0.4950 -0.2880
   28CHL1   H25 3244   1.380   0.294   6.110 -1.0258  1.1403 -0.3302
   28CHL1   C26 3245   1.401   0.143   5.956 -0.1428 -0.3941  0.4292
   28CHL1  H26A 3246   1.438   0.210   5.875 -0.6814 -0.9778 -0.3104
   28CHL1  H26B 3247   1.482   0.091   6.009  1.1345 -0.1883 -1.2308
   28CHL1  H26C 3248   1.332   0.074   5.902 -0.1148  0.5493 -0.8830
   28CHL1   C27 3249   1.213   0.294   5.982  0.5258  0.5609  0.5551
   28CHL1  H27A 3250   1.138   0.228   5.933 -0.4027 -0.0502  2.6998
   28CHL1  H27B 3251   1.163   0.371   6.042 -0.1754 -0.0640  0.7839
   28CHL1  H27C 3252   1.253   0.354   5.897 -1.9444  1.8889  0.2720
   29CHL1    C3 3253   2.550   4.616   7.089 -0.7515 -0.3939 -0.4221
   29CHL1    H3 3254   2.526   4.510   7.065 -2.2221 -0.7086  2.1213
   29CHL1    O3 3255   2.604   4.624   7.220 -0.6973  0.1000  0.0302
   29CHL1   H3' 3256   2.543   4.671   7.277 -0.8460  1.2280 -1.0199
   29CHL1    C4 3257   2.647   4.675   6.987  0.5699 -0.0627  0.9229
   29CHL1   H4A 3258   2.674   4.777   7.021  0.2951  0.5039 -0.4922
   29CHL1   H4B 3259   2.733   4.605   6.996  0.9107  0.4034  1.3090
   29CHL1    C5 3260   2.591   4.678   6.848 -0.1940 -0.1598  0.0140
   29CHL1    C6 3261   2.653   4.610   6.752 -0.1110 -0.6855  0.0226
   29CHL1    H6 3262   2.749   4.561   6.774 -0.7786 -1.3458  1.5743
   29CHL1    C7 3263   2.604   4.600   6.610  0.0748 -0.1829 -0.1867
   29CHL1   H7A 3264   2.682   4.606   6.532  0.6606 -3.2990  0.0131
   29CHL1   H7B 3265   2.563   4.497   6.595 -0.9078  0.1042  0.4159
   29CHL1    C8 3266   2.494   4.701   6.578  0.4673 -0.0823  0.2888
   29CHL1    H8 3267   2.540   4.802   6.573  0.1951  0.1088  1.4301
   29CHL1   C14 3268   2.427   4.672   6.437 -0.2626  0.3160 -1.0113
   29CHL1   H14 3269   2.379   4.572   6.435 -0.4300  0.2757  1.5809
   29CHL1   C15 3270   2.534   4.686   6.327  0.0040  0.6186  0.2578
   29CHL1  H15A 3271   2.603   4.772   6.339 -0.5407  0.7946  2.6933
   29CHL1  H15B 3272   2.607   4.603   6.316  1.1069  1.7517 -1.4231
   29CHL1   C16 3273   2.456   4.719   6.195 -0.0167 -0.5552 -0.3034
   29CHL1  H16A 3274   2.487   4.816   6.153 -1.4862  0.8704  1.6828
   29CHL1  H16B 3275   2.461   4.639   6.119 -0.9607 -1.6334  0.7197
   29CHL1   C17 3276   2.307   4.737   6.248  0.1894 -0.4955 -0.0147
   29CHL1   H17 3277   2.254   4.640   6.236  1.3910 -1.1620 -0.0700
   29CHL1   C13 3278   2.325   4.772   6.395  0.4853 -0.0393  0.0960
   29CHL1   C18 3279   2.371   4.924   6.405  0.8911  0.1721  0.0060
   29CHL1  H18A 3280   2.431   4.962   6.320  2.6139  0.5847  1.3457
   29CHL1  H18B 3281   2.277   4.981   6.421  0.3078 -0.9343  0.6511
   29CHL1  H18C 3282   2.427   4.937   6.500  1.2360  0.5554 -0.2500
   29CHL1   C12 3283   2.210   4.740   6.495 -0.2842  0.4192  0.2874
   29CHL1  H12A 3284   2.117   4.796   6.468 -0.2155 -0.3652 -1.8107
   29CHL1  H12B 3285   2.184   4.633   6.482  1.2778  0.2597 -2.2522
   29CHL1   C11 3286   2.253   4.768   6.641  0.7327  0.5961  0.7554
   29CHL1  H11A 3287   2.274   4.877   6.653  1.9531  0.9389 -3.0534
   29CHL1  H11B 3288   2.176   4.737   6.715  1.5603 -1.3729  0.8418
   29CHL1    C9 3289   2.391   4.702   6.687  0.4753  0.1273  0.3868
   29CHL1    H9 3290   2.357   4.597   6.699  1.0829 -0.0088  0.9616
   29CHL1   C10 3291   2.451   4.742   6.825  0.2422  0.2254  0.5164
   29CHL1   C19 3292   2.463   4.900   6.834 -0.1924  0.4787  0.7646
   29CHL1  H19A 3293   2.506   4.936   6.738 -0.2056 -1.2888  0.0425
   29CHL1  H19B 3294   2.361   4.944   6.841 -0.0095  1.3202 -1.1549
   29CHL1  H19C 3295   2.521   4.936   6.921 -0.8600  0.9010  1.0381
   29CHL1    C1 3296   2.361   4.692   6.941  0.3536  0.7487  0.0806
   29CHL1   H1A 3297   2.264   4.745   6.934  1.0938  1.9245 -2.1170
   29CHL1   H1B 3298   2.345   4.584   6.922 -0.0571  0.5780  1.3266
   29CHL1    C2 3299   2.414   4.679   7.090 -0.2924 -0.4787  0.7695
   29CHL1   H2A 3300   2.345   4.608   7.140 -1.2044 -0.3721 -0.3130
   29CHL1   H2B 3301   2.430   4.774   7.145  0.2320 -0.7904  1.1687
   29CHL1   C20 3302   2.222   4.831   6.157 -0.1788 -0.4492  0.4574
   29CHL1   H20 3303   2.285   4.922   6.148 -0.8873  0.0195  0.1502
   29CHL1   C21 3304   2.092   4.872   6.220  1.2680  0.2853  0.5897
   29CHL1  H21A 3305   2.041   4.779   6.253 -1.1053  0.9052 -1.0673
   29CHL1  H21B 3306   2.026   4.922   6.145 -1.1263 -2.1357  0.9396
   29CHL1  H21C 3307   2.100   4.951   6.297  0.3168 -0.5463  1.5696
   29CHL1   C22 3308   2.201   4.791   6.010  0.5044 -0.2405 -0.3645
   29CHL1  H22A 3309   2.153   4.872   5.952  1.7369 -0.0214 -1.1143
   29CHL1  H22B 3310   2.298   4.776   5.957  0.9096 -1.6920  0.7030
   29CHL1   C23 3311   2.109   4.675   5.979 -0.5195  0.3678 -0.0001
   29CHL1  H23A 3312   2.058   4.650   6.075 -0.8751  0.6931 -0.1028
   29CHL1  H23B 3313   2.024   4.704   5.914 -1.7312 -0.7711  1.0230
   29CHL1   C24 3314   2.182   4.563   5.906 -0.3287  0.3835  0.2318
   29CHL1  H24A 3315   2.222   4.622   5.821  1.6023  1.1216  1.6044
   29CHL1  H24B 3316   2.262   4.523   5.971 -0.3803 -0.3285 -0.1311
   29CHL1   C25 3317   2.090   4.448   5.861  0.5066  0.4155  0.1797
   29CHL1   H25 3318   2.003   4.493   5.810  0.5574 -0.3803 -0.6233
   29CHL1   C26 3319   2.161   4.357   5.756 -0.0578 -0.8581  0.1790
   29CHL1  H26A 3320   2.201   4.426   5.678 -2.9829  1.0407  0.1908
   29CHL1  H26B 3321   2.251   4.303   5.793 -0.5909 -2.2795 -0.5539
   29CHL1  H26C 3322   2.095   4.284   5.706  0.8800 -1.4412 -0.2436
   29CHL1   C27 3323   2.033   4.373   5.983  0.2984 -0.2825 -0.1102
   29CHL1  H27A 3324   1.985   4.280   5.946 -0.9590  0.4439 -0.3272
   29CHL1  H27B 3325   2.117   4.352   6.053  1.7052  0.3170 -1.5661
   29CHL1  H27C 3326   1.952   4.426   6.038 -3.6564 -2.7054 -3.0652
   30CHL1    C3 3327   4.655   5.293   7.217  0.3480 -0.7479  0.5576
   30CHL1    H3 3328   4.764   5.292   7.198  0.3045  0.4447  0.1331
   30CHL1    O3 3329   4.641   5.283   7.359  0.3262 -0.3222 -0.2213
   30CHL1   H3' 3330   4.645   5.189   7.377  2.4956 -0.6077 -1.7929
   30CHL1    C4 3331   4.600   5.424   7.166  0.2522 -0.1493  0.0917
   30CHL1   H4A 3332   4.499   5.446   7.205  0.1359  0.7781 -0.6734
   30CHL1   H4B 3333   4.672   5.496   7.211 -0.0017 -1.1646  2.2413
   30CHL1    C5 3334   4.596   5.442   7.016 -0.0367  0.1649 -0.9273
   30CHL1    C6 3335   4.648   5.553   6.951 -0.3061  0.2978 -0.3904
   30CHL1    H6 3336   4.693   5.629   7.015  0.6347  0.1927 -0.9148
   30CHL1    C7 3337   4.648   5.574   6.798  0.2997 -0.0320 -0.1658
   30CHL1   H7A 3338   4.616   5.679   6.784  0.1279 -0.1105 -0.3770
   30CHL1   H7B 3339   4.750   5.571   6.753  0.7221 -0.9322  0.8099
   30CHL1    C8 3340   4.549   5.471   6.723  0.0625 -0.6033  0.1145
   30CHL1    H8 3341   4.448   5.511   6.746  0.8134  0.2930  1.9790
   30CHL1   C14 3342   4.586   5.457   6.571 -0.4035  0.8153 -0.4256
   30CHL1   H14 3343   4.681   5.399   6.569 -1.2982 -0.6828 -1.3366
   30CHL1   C15 3344   4.613   5.577   6.480 -0.3276  0.3202 -0.1291
   30CHL1  H15A 3345   4.530   5.644   6.513 -1.0470 -0.6569  0.0852
   30CHL1  H15B 3346   4.708   5.631   6.498  0.4686 -1.4468  1.2064
   30CHL1   C16 3347   4.592   5.532   6.336  0.3686  0.0922  0.2151
   30CHL1  H16A 3348   4.519   5.599   6.285 -0.4719 -0.9263  0.0550
   30CHL1  H16B 3349   4.687   5.537   6.278 -1.1914  0.3758 -2.4836
   30CHL1   C17 3350   4.558   5.387   6.349 -0.4890  0.4777  0.2835
   30CHL1   H17 3351   4.652   5.328   6.349  0.2236  1.5243 -1.6212
   30CHL1   C13 3352   4.492   5.369   6.489 -0.2004  0.1734 -0.1341
   30CHL1   C18 3353   4.343   5.426   6.484  0.4692  0.2926  0.1128
   30CHL1  H18A 3354   4.304   5.434   6.587  3.2592  0.5860  1.2127
   30CHL1  H18B 3355   4.336   5.527   6.438  1.4895  0.3031 -0.0404
   30CHL1  H18C 3356   4.289   5.342   6.434  0.9798  0.8058 -1.3789
   30CHL1   C12 3357   4.499   5.228   6.553  0.0249 -0.4505 -0.3152
   30CHL1  H12A 3358   4.415   5.170   6.509  0.3748 -0.8603 -0.4530
   30CHL1  H12B 3359   4.596   5.181   6.525  0.3906  0.6521 -0.9294
   30CHL1   C11 3360   4.471   5.225   6.703  0.2367  0.4461  0.1348
   30CHL1  H11A 3361   4.362   5.230   6.725 -0.1397 -1.3053 -1.1189
   30CHL1  H11B 3362   4.488   5.122   6.740 -0.6283  0.4524  0.5992
   30CHL1    C9 3363   4.553   5.328   6.784  0.0369  0.1515  0.2538
   30CHL1    H9 3364   4.658   5.292   6.773 -0.5318 -1.1110 -1.6655
   30CHL1   C10 3365   4.535   5.317   6.941  0.2757  0.2415 -1.2578
   30CHL1   C19 3366   4.382   5.306   6.976  0.7550  0.1407  0.3473
   30CHL1  H19A 3367   4.365   5.331   7.083 -1.5806  1.4249 -0.2610
   30CHL1  H19B 3368   4.326   5.382   6.918  0.1444 -0.7141 -0.2047
   30CHL1  H19C 3369   4.343   5.204   6.953 -0.1930  0.0610  2.1197
   30CHL1    C1 3370   4.609   5.192   6.996  0.1441 -0.1265  0.5118
   30CHL1   H1A 3371   4.574   5.097   6.951 -0.0610  0.1396  0.0993
   30CHL1   H1B 3372   4.717   5.208   6.978 -0.6811  2.7376 -3.1147
   30CHL1    C2 3373   4.595   5.167   7.146  0.4431  0.2508  0.3724
   30CHL1   H2A 3374   4.652   5.078   7.178  2.4612  1.5102  0.4657
   30CHL1   H2B 3375   4.487   5.172   7.173 -0.1216 -0.0178 -1.6731
   30CHL1   C20 3376   4.480   5.337   6.229 -0.3241  0.1624 -0.1348
   30CHL1   H20 3377   4.379   5.383   6.221 -0.5826 -0.7277 -2.7831
   30CHL1   C21 3378   4.440   5.190   6.241  0.3570  0.7367 -0.1328
   30CHL1  H21A 3379   4.533   5.135   6.270  0.9759  0.3191 -2.6596
   30CHL1  H21B 3380   4.391   5.145   6.152 -0.9253  0.3641  0.7386
   30CHL1  H21C 3381   4.357   5.165   6.310 -0.6035 -0.6602 -1.7104
   30CHL1   C22 3382   4.555   5.349   6.092 -0.0217 -0.1882 -0.2691
   30CHL1  H22A 3383   4.483   5.314   6.016 -1.9776  3.2725 -0.2237
   30CHL1  H22B 3384   4.587   5.453   6.068 -1.6099  0.7288  1.3334
   30CHL1   C23 3385   4.678   5.264   6.075  0.5902  0.4789 -0.0697
   30CHL1  H23A 3386   4.735   5.261   6.170  0.1442 -0.6411  0.1783
   30CHL1  H23B 3387   4.638   5.161   6.060 -1.8111  1.3447 -0.1073
   30CHL1   C24 3388   4.770   5.304   5.960  0.1473 -0.7369 -0.4156
   30CHL1  H24A 3389   4.770   5.415   5.963 -2.1434 -0.6628 -0.9920
   30CHL1  H24B 3390   4.871   5.258   5.969  0.7311  0.3048 -1.4228
   30CHL1   C25 3391   4.715   5.273   5.824  1.0630  0.5143  0.3155
   30CHL1   H25 3392   4.606   5.294   5.827  0.8986 -0.3188  0.2885
   30CHL1   C26 3393   4.783   5.356   5.717  0.5247  0.8298 -0.2786
   30CHL1  H26A 3394   4.788   5.459   5.757 -1.6407  0.6597  0.5526
   30CHL1  H26B 3395   4.885   5.322   5.689  0.8183  2.8454 -1.9000
   30CHL1  H26C 3396   4.716   5.362   5.629 -0.3750  1.0814  0.4077
   30CHL1   C27 3397   4.724   5.119   5.797  0.2235  0.1888  0.0819
   30CHL1  H27A 3398   4.668   5.090   5.706  2.4002 -0.6368 -1.0536
   30CHL1  H27B 3399   4.831   5.099   5.776  0.0314  0.8470 -1.6845
   30CHL1  H27C 3400   4.680   5.062   5.881 -0.3977  0.2357 -0.2089
   31CHL1    C3 3401   2.832   5.132   7.383  0.1806 -0.5543 -0.0648
   31CHL1    H3 3402   2.766   5.215   7.416  1.2583  0.9870 -1.6738
   31CHL1    O3 3403   2.873   5.077   7.510  0.3865 -0.4419 -0.4976
   31CHL1   H3' 3404   2.897   4.984   7.503  1.9619 -0.0082 -1.2969
   31CHL1    C4 3405   2.732   5.048   7.308 -0.1914 -0.1687  0.1041
   31CHL1   H4A 3406   2.776   4.948   7.294  0.1461 -0.0753  0.4740
   31CHL1   H4B 3407   2.638   5.033   7.366 -0.7197  1.1550 -0.3486
   31CHL1    C5 3408   2.688   5.113   7.179 -0.1332  0.7131 -0.0634
   31CHL1    C6 3409   2.558   5.143   7.154  0.2930 -0.3404  0.6864
   31CHL1    H6 3410   2.484   5.119   7.231  1.0437  0.4738  1.6865
   31CHL1    C7 3411   2.506   5.200   7.030  0.3875  0.1472  0.5954
   31CHL1   H7A 3412   2.407   5.155   7.005 -0.9304  2.8983  0.4822
   31CHL1   H7B 3413   2.489   5.310   7.040 -1.2957 -0.2709  3.8894
   31CHL1    C8 3414   2.614   5.194   6.916  0.3025 -0.3974  0.2308
   31CHL1    H8 3415   2.625   5.096   6.865  1.9531 -0.2796  0.2958
   31CHL1   C14 3416   2.582   5.298   6.802  0.0485  0.2791 -0.7694
   31CHL1   H14 3417   2.586   5.401   6.843 -0.4955 -0.4744  1.3414
   31CHL1   C15 3418   2.441   5.278   6.750 -0.2349  0.0144  0.6147
   31CHL1  H15A 3419   2.422   5.169   6.750  2.0801 -0.4474  1.3235
   31CHL1  H15B 3420   2.373   5.332   6.820 -0.0015 -0.7344  1.4306
   31CHL1   C16 3421   2.457   5.340   6.614  0.1978  0.0225 -0.5251
   31CHL1  H16A 3422   2.422   5.261   6.544 -0.4972  0.2525 -0.4379
   31CHL1  H16B 3423   2.391   5.427   6.595 -0.2434  0.1455  1.4082
   31CHL1   C17 3424   2.600   5.386   6.591  0.0881 -0.3686  0.0980
   31CHL1   H17 3425   2.614   5.492   6.620 -1.2325 -0.1339 -0.0633
   31CHL1   C13 3426   2.683   5.292   6.688  0.4018 -0.2578  0.1966
   31CHL1   C18 3427   2.693   5.151   6.626  0.7083  0.0842  0.2017
   31CHL1  H18A 3428   2.734   5.081   6.701 -1.0323  0.8882  1.9663
   31CHL1  H18B 3429   2.597   5.118   6.582  0.1929  1.1358  0.5089
   31CHL1  H18C 3430   2.759   5.160   6.536  1.5194  0.7817  0.8480
   31CHL1   C12 3431   2.816   5.344   6.736 -0.5366 -0.3854  0.2689
   31CHL1  H12A 3432   2.891   5.326   6.656 -0.7599  2.1243 -0.5798
   31CHL1  H12B 3433   2.792   5.448   6.766 -0.1142 -0.1916 -0.0573
   31CHL1   C11 3434   2.862   5.266   6.859  0.5924 -0.7855  0.4214
   31CHL1  H11A 3435   2.895   5.170   6.814  2.7796  0.1961 -0.1748
   31CHL1  H11B 3436   2.952   5.315   6.902  0.8684  0.6336 -1.6210
   31CHL1    C9 3437   2.753   5.231   6.968  0.9926 -0.4640  0.3484
   31CHL1    H9 3438   2.736   5.331   7.012  1.3684 -0.7851  1.2504
   31CHL1   C10 3439   2.801   5.146   7.078 -0.1200 -0.3536 -0.3522
   31CHL1   C19 3440   2.860   5.013   7.029  0.2434 -0.6392 -0.2268
   31CHL1  H19A 3441   2.779   4.946   6.992 -0.2562  1.1039 -2.5631
   31CHL1  H19B 3442   2.930   5.026   6.944 -1.0795 -3.5235 -1.9132
   31CHL1  H19C 3443   2.924   4.964   7.106  0.0140  0.7205  0.8667
   31CHL1    C1 3444   2.916   5.222   7.156  0.9910 -1.0788  0.5799
   31CHL1   H1A 3445   3.012   5.213   7.100  0.8793  0.0118  0.1879
   31CHL1   H1B 3446   2.891   5.330   7.172  1.0536 -1.1868  1.4797
   31CHL1    C2 3447   2.950   5.174   7.300 -0.2423  0.0415 -0.5662
   31CHL1   H2A 3448   3.016   5.245   7.355  0.0659 -1.0387  0.4830
   31CHL1   H2B 3449   3.005   5.078   7.288  2.7700  1.6294 -0.4954
   31CHL1   C20 3450   2.635   5.386   6.435  0.0246 -0.3191 -0.7186
   31CHL1   H20 3451   2.634   5.280   6.402 -0.5765 -1.0797  1.5927
   31CHL1   C21 3452   2.777   5.442   6.406  0.2388  0.3066 -0.1463
   31CHL1  H21A 3453   2.805   5.466   6.301 -1.4293 -0.2851 -0.7596
   31CHL1  H21B 3454   2.843   5.361   6.444  2.2207  2.3742  1.0067
   31CHL1  H21C 3455   2.787   5.536   6.464 -0.0027 -1.0195  2.1851
   31CHL1   C22 3456   2.543   5.468   6.346 -0.3367  0.5717  0.2434
   31CHL1  H22A 3457   2.526   5.566   6.395 -1.8256  1.5096 -1.9367
   31CHL1  H22B 3458   2.589   5.482   6.246  0.2718  1.0806  0.5835
   31CHL1   C23 3459   2.409   5.405   6.316  0.1421  0.6898 -1.2782
   31CHL1  H23A 3460   2.341   5.390   6.402 -1.0312 -1.1421 -2.4350
   31CHL1  H23B 3461   2.356   5.475   6.248  1.6301  1.0530 -2.1246
   31CHL1   C24 3462   2.403   5.264   6.255 -0.2380  0.2148  0.6442
   31CHL1  H24A 3463   2.472   5.205   6.319 -0.1077 -0.0324  0.2793
   31CHL1  H24B 3464   2.302   5.218   6.261 -0.5140  0.4912 -1.1179
   31CHL1   C25 3465   2.451   5.266   6.110 -0.5681  0.2253  1.0500
   31CHL1   H25 3466   2.547   5.322   6.106  0.7655 -1.9225  1.4212
   31CHL1   C26 3467   2.464   5.132   6.053  0.1026  0.3936 -0.3680
   31CHL1  H26A 3468   2.511   5.132   5.953  1.1191 -0.7161  0.0758
   31CHL1  H26B 3469   2.533   5.070   6.115 -0.4365  0.6428  0.5020
   31CHL1  H26C 3470   2.364   5.085   6.043 -0.0579  0.8195 -0.7766
   31CHL1   C27 3471   2.343   5.342   6.024  0.3627 -0.4163 -0.1896
   31CHL1  H27A 3472   2.346   5.451   6.043  1.4524 -0.7649  1.9573
   31CHL1  H27B 3473   2.378   5.325   5.920 -2.1570  0.7141 -1.3002
   31CHL1  H27C 3474   2.243   5.294   6.019  0.3041 -0.4434  1.1054
   32CHL1    C3 3475   4.709   2.512   7.459 -0.5050 -0.1124  0.7557
   32CHL1    H3 3476   4.737   2.405   7.464  0.2698 -0.1640 -2.5510
   32CHL1    O3 3477   4.647   2.544   7.585  0.1729  0.3087  0.0699
   32CHL1   H3' 3478   4.592   2.620   7.565 -0.9577 -0.0478  1.6101
   32CHL1    C4 3479   4.823   2.609   7.432 -0.0480 -0.7347 -0.8741
   32CHL1   H4A 3480   4.786   2.713   7.444  3.5015  0.6007 -0.2404
   32CHL1   H4B 3481   4.888   2.583   7.518 -2.0122 -0.9943  0.5928
   32CHL1    C5 3482   4.894   2.583   7.298 -0.2255  0.3468 -0.0829
   32CHL1    C6 3483   5.025   2.561   7.286  0.8261  0.6390 -0.1220
   32CHL1    H6 3484   5.083   2.550   7.379 -0.0622  0.3748  0.4117
   32CHL1    C7 3485   5.085   2.545   7.149 -0.1087 -0.2609  0.2076
   32CHL1   H7A 3486   5.181   2.598   7.137  0.4648 -1.1649  0.6726
   32CHL1   H7B 3487   5.110   2.437   7.142 -0.5718 -0.6667  3.1943
   32CHL1    C8 3488   4.995   2.584   7.032 -0.2570  0.3132  0.2851
   32CHL1    H8 3489   5.003   2.695   7.036  2.5738  0.1861  0.2206
   32CHL1   C14 3490   5.058   2.538   6.894 -0.2981  0.1315 -0.4098
   32CHL1   H14 3491   5.062   2.427   6.898 -0.3780  0.0866 -1.4718
   32CHL1   C15 3492   5.211   2.572   6.867  0.9101  0.3610 -0.1283
   32CHL1  H15A 3493   5.218   2.679   6.898 -1.0755  0.0504  1.6591
   32CHL1  H15B 3494   5.282   2.519   6.934  0.1604 -0.0310  0.3714
   32CHL1   C16 3495   5.222   2.552   6.719 -0.5063  0.6945  0.1580
   32CHL1  H16A 3496   5.253   2.648   6.673 -1.2251  0.3958 -0.9860
   32CHL1  H16B 3497   5.300   2.474   6.706 -0.0819  1.2951 -1.0273
   32CHL1   C17 3498   5.085   2.500   6.664  0.5653 -0.5113  0.0142
   32CHL1   H17 3499   5.074   2.391   6.682  2.9743 -0.8159  0.0170
   32CHL1   C13 3500   4.989   2.564   6.754  0.0152 -0.2750 -1.0152
   32CHL1   C18 3501   4.969   2.723   6.740  0.2003 -0.0833 -1.1246
   32CHL1  H18A 3502   4.896   2.749   6.661 -2.8401  0.4545  1.6542
   32CHL1  H18B 3503   4.922   2.772   6.828  3.7863 -0.2489  1.0864
   32CHL1  H18C 3504   5.067   2.772   6.719  0.1962 -0.4193 -1.9539
   32CHL1   C12 3505   4.847   2.502   6.785 -0.2357  0.4155 -0.1055
   32CHL1  H12A 3506   4.784   2.517   6.694  0.5831 -1.5446 -1.0685
   32CHL1  H12B 3507   4.864   2.393   6.794 -2.1934 -0.1771 -2.2928
   32CHL1   C11 3508   4.770   2.544   6.915 -0.0324 -0.3172 -0.4184
   32CHL1  H11A 3509   4.732   2.647   6.897 -1.0439 -0.6626 -0.3585
   32CHL1  H11B 3510   4.688   2.468   6.915 -0.0049 -0.3660 -1.5289
   32CHL1    C9 3511   4.851   2.528   7.045  0.6506 -0.3315  0.2516
   32CHL1    H9 3512   4.864   2.418   7.058 -1.3439 -0.4534  1.7105
   32CHL1   C10 3513   4.798   2.584   7.174 -0.8526 -0.6120  1.3703
   32CHL1   C19 3514   4.741   2.731   7.142  0.9092 -0.7625 -0.0673
   32CHL1  H19A 3515   4.700   2.779   7.233  1.5528  0.3296 -0.3308
   32CHL1  H19B 3516   4.827   2.801   7.126  0.7688  0.3325  3.1731
   32CHL1  H19C 3517   4.662   2.747   7.066 -0.6731  1.6829  1.9164
   32CHL1    C1 3518   4.667   2.493   7.217 -0.0759 -0.4178  0.6342
   32CHL1   H1A 3519   4.583   2.487   7.144  1.4354  0.3793 -1.2644
   32CHL1   H1B 3520   4.698   2.387   7.219 -1.1761 -0.7529  2.5512
   32CHL1    C2 3521   4.602   2.513   7.348 -0.0133 -0.4628 -0.5688
   32CHL1   H2A 3522   4.525   2.433   7.356 -1.4684  0.7614 -1.6371
   32CHL1   H2B 3523   4.545   2.609   7.348 -0.3346 -0.6131  1.3495
   32CHL1   C20 3524   5.070   2.532   6.512  1.0730 -0.1272 -0.2536
   32CHL1   H20 3525   5.052   2.642   6.504  2.2203  0.0646 -0.5245
   32CHL1   C21 3526   4.952   2.442   6.465  1.2245 -0.2442  0.0131
   32CHL1  H21A 3527   4.989   2.338   6.476 -0.0035 -0.4905  2.5368
   32CHL1  H21B 3528   4.928   2.457   6.358 -1.0773  2.4348  0.7951
   32CHL1  H21C 3529   4.860   2.464   6.524  1.2163  1.1799 -0.4989
   32CHL1   C22 3530   5.194   2.508   6.424 -0.1483  0.2709  0.5649
   32CHL1  H22A 3531   5.289   2.562   6.444  0.6382  0.2011 -2.4803
   32CHL1  H22B 3532   5.216   2.400   6.437 -0.5871  0.1505  0.3464
   32CHL1   C23 3533   5.165   2.540   6.275  0.4750 -0.2954 -0.0941
   32CHL1  H23A 3534   5.109   2.455   6.229  0.1340 -0.7000  1.0442
   32CHL1  H23B 3535   5.098   2.628   6.261 -0.2341 -0.8441 -0.2346
   32CHL1   C24 3536   5.293   2.559   6.190  0.0667 -0.2044  1.0009
   32CHL1  H24A 3537   5.370   2.613   6.249  3.6864 -1.5635 -2.0397
   32CHL1  H24B 3538   5.336   2.457   6.191  1.5439  0.3533 -0.3251
   32CHL1   C25 3539   5.267   2.622   6.054 -0.3653 -0.1853 -0.4465
   32CHL1   H25 3540   5.191   2.702   6.067  1.1618  1.6957 -2.3091
   32CHL1   C26 3541   5.395   2.681   5.989 -0.1206 -0.0631  0.1779
   32CHL1  H26A 3542   5.457   2.593   5.962 -0.1028 -0.1109  0.3719
   32CHL1  H26B 3543   5.381   2.743   5.897  2.6910  1.8763  0.9138
   32CHL1  H26C 3544   5.451   2.757   6.048  0.6624 -0.4586 -0.0408
   32CHL1   C27 3545   5.198   2.537   5.941 -0.3279  0.0910  0.1955
   32CHL1  H27A 3546   5.088   2.528   5.951 -0.2489 -0.0877  0.9290
   32CHL1  H27B 3547   5.224   2.580   5.841 -0.7644  0.9122  0.4219
   32CHL1  H27C 3548   5.233   2.432   5.934  0.0802  0.1460  1.3262
   33CHL1    C3 3549   2.218   0.164   7.321 -0.3207 -0.2496  0.0468
   33CHL1    H3 3550   2.319   0.130   7.289  0.5330  1.0147  1.2666
   33CHL1    O3 3551   2.221   0.138   7.460  0.0328 -0.1705  0.4650
   33CHL1   H3' 3552   2.128   0.149   7.483 -0.8024 -1.3516 -1.9705
   33CHL1    C4 3553   2.182   0.318   7.296 -0.4186  0.3129  0.2038
   33CHL1   H4A 3554   2.086   0.345   7.346 -0.3032  1.4724 -0.1677
   33CHL1   H4B 3555   2.257   0.373   7.357 -0.9044  0.0194  1.0873
   33CHL1    C5 3556   2.185   0.351   7.148 -0.2677  0.2115 -0.4730
   33CHL1    C6 3557   2.262   0.453   7.106 -0.4259  0.6592 -0.7123
   33CHL1    H6 3558   2.317   0.509   7.183  0.1011 -1.2052  0.3242
   33CHL1    C7 3559   2.260   0.498   6.963 -0.6037  0.7699 -0.6865
   33CHL1   H7A 3560   2.250   0.608   6.963 -3.3437  0.6107  1.1074
   33CHL1   H7B 3561   2.362   0.481   6.922 -0.6483  0.5819 -0.7202
   33CHL1    C8 3562   2.156   0.433   6.870 -0.4027  0.0349 -0.7471
   33CHL1    H8 3563   2.063   0.486   6.898 -0.6240 -1.0751  0.7244
   33CHL1   C14 3564   2.195   0.442   6.723  0.1792  0.2179 -0.5261
   33CHL1   H14 3565   2.288   0.380   6.717  0.0075  0.0992 -3.4395
   33CHL1   C15 3566   2.224   0.581   6.663  0.4784  0.1865  0.2761
   33CHL1  H15A 3567   2.150   0.654   6.702  0.7982  0.2516  0.7777
   33CHL1  H15B 3568   2.323   0.618   6.696  1.8619 -2.2352 -0.8391
   33CHL1   C16 3569   2.213   0.554   6.512  0.3375  0.1725 -0.1051
   33CHL1  H16A 3570   2.132   0.610   6.461  0.7659  1.3922  0.5082
   33CHL1  H16B 3571   2.306   0.584   6.458  0.1164  1.2474  0.0859
   33CHL1   C17 3572   2.180   0.402   6.495 -0.0810  0.2447 -0.6632
   33CHL1   H17 3573   2.277   0.349   6.508  0.1175  0.5650 -0.8126
   33CHL1   C13 3574   2.106   0.369   6.623 -0.4025  0.1425  0.1736
   33CHL1   C18 3575   1.967   0.444   6.614 -0.0418  0.4038  0.1168
   33CHL1  H18A 3576   1.970   0.547   6.572  1.1040  1.1502  1.9019
   33CHL1  H18B 3577   1.898   0.376   6.561  0.8327 -3.0741  3.0355
   33CHL1  H18C 3578   1.920   0.460   6.713 -0.2557 -1.4653  0.3494
   33CHL1   C12 3579   2.094   0.221   6.664  0.0827  0.6217 -0.1869
   33CHL1  H12A 3580   2.011   0.180   6.602  0.4447 -0.0870 -0.2115
   33CHL1  H12B 3581   2.189   0.167   6.645 -1.6171 -2.8471  0.2949
   33CHL1   C11 3582   2.049   0.207   6.811  0.2867  0.6749 -0.0086
   33CHL1  H11A 3583   1.945   0.247   6.811 -0.4041 -1.0093 -1.1835
   33CHL1  H11B 3584   2.055   0.098   6.827  0.4449  0.7723  0.6182
   33CHL1    C9 3585   2.135   0.287   6.913 -0.9623  0.0000 -0.1727
   33CHL1    H9 3586   2.232   0.233   6.910 -2.2239 -2.3723 -0.0328
   33CHL1   C10 3587   2.098   0.259   7.056 -0.5458 -0.5798  0.0263
   33CHL1   C19 3588   1.946   0.297   7.077 -0.1515 -0.3160  0.0676
   33CHL1  H19A 3589   1.917   0.399   7.044 -2.4875 -0.4834  1.4310
   33CHL1  H19B 3590   1.879   0.220   7.033  0.0528 -0.7349  0.4806
   33CHL1  H19C 3591   1.917   0.300   7.184 -0.2211 -0.0298  0.0399
   33CHL1    C1 3592   2.111   0.113   7.097 -0.4944  0.5744 -0.6065
   33CHL1   H1A 3593   2.028   0.050   7.059 -1.7486  0.5583  1.9053
   33CHL1   H1B 3594   2.212   0.078   7.067  0.6873  0.0302  3.4209
   33CHL1    C2 3595   2.105   0.079   7.247 -0.4617  0.0828  0.0591
   33CHL1   H2A 3596   2.114  -0.030   7.268 -0.3231 -0.1784 -1.3119
   33CHL1   H2B 3597   2.001   0.112   7.270 -0.6741  0.4022 -1.2743
   33CHL1   C20 3598   2.123   0.373   6.352  0.3158  0.1331  0.4924
   33CHL1   H20 3599   2.016   0.401   6.353  0.4825  0.7717  0.8934
   33CHL1   C21 3600   2.144   0.223   6.323 -0.4177  0.4735  0.4482
   33CHL1  H21A 3601   2.094   0.164   6.402  2.4007  0.8108  2.6641
   33CHL1  H21B 3602   2.253   0.201   6.327 -0.5467 -0.4315 -0.6123
   33CHL1  H21C 3603   2.114   0.190   6.222  0.7329 -0.1901  0.2991
   33CHL1   C22 3604   2.193   0.463   6.247 -0.3770  0.2360  0.3419
   33CHL1  H22A 3605   2.135   0.558   6.251 -1.7398 -0.6121  2.0886
   33CHL1  H22B 3606   2.302   0.482   6.261  0.0820 -2.5668  1.1557
   33CHL1   C23 3607   2.174   0.408   6.103 -0.2335 -0.4998 -0.0068
   33CHL1  H23A 3608   2.236   0.317   6.096 -1.0563 -1.2952  2.1309
   33CHL1  H23B 3609   2.064   0.402   6.088 -0.7419  3.2543  1.0128
   33CHL1   C24 3610   2.225   0.514   6.004 -0.5020 -1.2102  0.0812
   33CHL1  H24A 3611   2.174   0.611   6.024  1.0349 -0.1909 -0.7319
   33CHL1  H24B 3612   2.335   0.520   6.012 -0.6450 -0.6428  2.2705
   33CHL1   C25 3613   2.190   0.492   5.847 -0.7261  0.8170 -1.0089
   33CHL1   H25 3614   2.216   0.385   5.831  0.4636  1.4552 -4.2098
   33CHL1   C26 3615   2.042   0.517   5.824 -0.1541 -0.2124 -0.6350
   33CHL1  H26A 3616   2.019   0.489   5.719  0.7748 -1.8701 -0.4296
   33CHL1  H26B 3617   1.971   0.463   5.890 -0.3213  1.3427  0.5271
   33CHL1  H26C 3618   2.020   0.623   5.849 -0.2037 -0.8659  2.5094
   33CHL1   C27 3619   2.280   0.584   5.760  0.2491  0.0970 -0.1870
   33CHL1  H27A 3620   2.265   0.687   5.798 -0.2412  0.5213 -1.4824
   33CHL1  H27B 3621   2.388   0.562   5.750  0.0600  0.0892 -3.5739
   33CHL1  H27C 3622   2.253   0.582   5.652 -0.4385 -1.2909 -0.0162
   34CHL1    C3 3623   4.636   3.374   7.492 -0.2617  0.0469  0.5580
   34CHL1    H3 3624   4.610   3.273   7.530  0.9707 -0.8744 -0.9027
   34CHL1    O3 3625   4.679   3.456   7.600 -0.6392 -0.1453 -0.5504
   34CHL1   H3' 3626   4.721   3.532   7.559 -0.8278 -0.3814 -1.1936
   34CHL1    C4 3627   4.737   3.356   7.383  0.0209 -0.4673  0.7803
   34CHL1   H4A 3628   4.769   3.460   7.362 -1.4179  0.2056  1.7216
   34CHL1   H4B 3629   4.826   3.310   7.430 -0.9666 -1.8389  1.3756
   34CHL1    C5 3630   4.690   3.279   7.258 -0.6446 -0.1812 -0.3694
   34CHL1    C6 3631   4.765   3.184   7.203 -0.2757  0.5759 -0.0642
   34CHL1    H6 3632   4.862   3.166   7.252 -0.3733 -0.4185 -0.2135
   34CHL1    C7 3633   4.729   3.110   7.080  0.1484  0.1616  0.0922
   34CHL1   H7A 3634   4.815   3.104   7.010 -0.3928 -1.1629 -0.4983
   34CHL1   H7B 3635   4.698   3.007   7.107  0.6526  0.0651  0.3175
   34CHL1    C8 3636   4.609   3.183   7.007  0.1021  0.5683 -0.6087
   34CHL1    H8 3637   4.650   3.273   6.958 -0.3212  1.6222  0.9088
   34CHL1   C14 3638   4.560   3.084   6.897  0.0935  0.3424  0.3428
   34CHL1   H14 3639   4.529   2.996   6.958  1.6130 -1.1765 -0.9948
   34CHL1   C15 3640   4.656   3.033   6.789 -0.1840  0.0799 -0.1394
   34CHL1  H15A 3641   4.707   3.121   6.745 -1.6456  2.0332  1.8020
   34CHL1  H15B 3642   4.728   2.961   6.831 -2.7369 -1.5322  1.7889
   34CHL1   C16 3643   4.559   2.975   6.680  0.4864 -0.7045  0.1641
   34CHL1  H16A 3644   4.582   3.018   6.580  0.4711  0.2430  0.5543
   34CHL1  H16B 3645   4.576   2.866   6.676 -2.3812 -1.2508  0.7165
   34CHL1   C17 3646   4.415   3.002   6.736 -0.0815  0.0560 -0.1050
   34CHL1   H17 3647   4.393   2.911   6.797 -0.8768 -0.3592 -0.9714
   34CHL1   C13 3648   4.431   3.123   6.831 -0.8393 -0.2664 -0.5374
   34CHL1   C18 3649   4.466   3.245   6.744  0.0207  0.4389  0.1701
   34CHL1  H18A 3650   4.515   3.322   6.808 -0.8722  2.5603 -1.5726
   34CHL1  H18B 3651   4.532   3.232   6.656  0.0373 -0.2779  0.2785
   34CHL1  H18C 3652   4.366   3.277   6.709 -1.0957 -2.5835  0.2550
   34CHL1   C12 3653   4.321   3.153   6.934  0.2518 -0.4697  0.2926
   34CHL1  H12A 3654   4.232   3.195   6.883  0.9231  2.1068  1.0914
   34CHL1  H12B 3655   4.285   3.059   6.980  1.4287 -1.6719 -1.1344
   34CHL1   C11 3656   4.369   3.261   7.035 -0.0606  0.1992 -0.0591
   34CHL1  H11A 3657   4.370   3.353   6.973  1.3627  1.1301  1.2744
   34CHL1  H11B 3658   4.285   3.270   7.107  1.3570  0.5725  1.6276
   34CHL1    C9 3659   4.497   3.220   7.109  0.6095  0.0610 -0.3438
   34CHL1    H9 3660   4.473   3.129   7.167 -0.4837  0.3808 -0.2745
   34CHL1   C10 3661   4.549   3.323   7.210 -0.1261 -0.2303  0.4098
   34CHL1   C19 3662   4.564   3.465   7.143  0.4165  0.2163 -0.2454
   34CHL1  H19A 3663   4.633   3.467   7.055 -0.0171  1.3353 -0.5765
   34CHL1  H19B 3664   4.466   3.507   7.112 -0.1384  0.2250  1.4536
   34CHL1  H19C 3665   4.606   3.530   7.222 -0.6349  0.5536  0.0461
   34CHL1    C1 3666   4.447   3.356   7.326 -0.1788  0.1165 -0.3579
   34CHL1   H1A 3667   4.350   3.395   7.287 -0.4554 -0.2800 -0.0723
   34CHL1   H1B 3668   4.421   3.254   7.364  2.3774 -0.9666 -1.3506
   34CHL1    C2 3669   4.498   3.435   7.446 -0.7973  0.3470  0.1844
   34CHL1   H2A 3670   4.431   3.417   7.533  0.2512  1.4451  1.2547
   34CHL1   H2B 3671   4.501   3.543   7.421  4.0310  0.1494 -1.1544
   34CHL1   C20 3672   4.304   3.016   6.634  0.1948  0.5794  0.2247
   34CHL1   H20 3673   4.316   3.118   6.591  4.3377  1.8079  3.5902
   34CHL1   C21 3674   4.163   2.998   6.692 -0.1521 -0.4125  0.4331
   34CHL1  H21A 3675   4.148   2.907   6.754  3.2534 -0.4410  1.4200
   34CHL1  H21B 3676   4.087   2.989   6.611 -1.2266 -0.9285  1.4729
   34CHL1  H21C 3677   4.140   3.093   6.745 -0.5492 -1.4650  2.2418
   34CHL1   C22 3678   4.306   2.926   6.511  1.0586  0.1527 -0.3100
   34CHL1  H22A 3679   4.411   2.917   6.475  0.3268 -1.5011 -2.2320
   34CHL1  H22B 3680   4.269   2.826   6.540  2.2207 -0.2086 -0.0482
   34CHL1   C23 3681   4.227   2.986   6.392 -0.2741 -0.4416 -0.5365
   34CHL1  H23A 3682   4.125   3.011   6.427  0.8065  1.3900  1.5417
   34CHL1  H23B 3683   4.282   3.082   6.382  1.5737 -1.3338  0.4981
   34CHL1   C24 3684   4.232   2.899   6.265 -0.0091 -0.6151 -0.6282
   34CHL1  H24A 3685   4.338   2.881   6.235  0.5431 -0.4573  1.1205
   34CHL1  H24B 3686   4.184   2.800   6.279  0.4724 -0.8180 -0.3880
   34CHL1   C25 3687   4.142   2.947   6.148 -0.4399  0.0257  1.4448
   34CHL1   H25 3688   4.167   2.874   6.067  1.0081 -0.6384  2.4455
   34CHL1   C26 3689   3.994   2.938   6.186  0.3570 -0.0501  0.3727
   34CHL1  H26A 3690   3.965   3.029   6.243  1.1067 -0.1762  0.9764
   34CHL1  H26B 3691   3.932   2.936   6.094 -0.7880  0.8766  1.1015
   34CHL1  H26C 3692   3.974   2.853   6.254 -0.9833  0.6207  0.8617
   34CHL1   C27 3693   4.173   3.084   6.091 -0.1876 -0.4397  0.1469
   34CHL1  H27A 3694   4.179   3.154   6.177 -2.7261  0.5477 -0.3817
   34CHL1  H27B 3695   4.265   3.084   6.029 -1.2490  1.2967 -1.5310
   34CHL1  H27C 3696   4.087   3.123   6.032  0.7037  1.5736  0.0784
   35CHL1    C3 3697   6.075   5.272   7.465  0.1773  0.2187 -0.6197
   35CHL1    H3 3698   6.179   5.235   7.448 -0.0739 -0.3786 -0.8938
   35CHL1    O3 3699   6.019   5.227   7.590 -0.1309  0.3241  0.2404
   35CHL1   H3' 3700   6.084   5.243   7.659  0.2802 -0.5573  0.0804
   35CHL1    C4 3701   6.069   5.429   7.476  0.5362  0.7555 -0.4077
   35CHL1   H4A 3702   5.968   5.442   7.519  0.5665 -1.1329  0.3166
   35CHL1   H4B 3703   6.138   5.470   7.552  1.9884  0.7932 -1.7023
   35CHL1    C5 3704   6.087   5.494   7.335 -0.1403 -0.0200 -0.5414
   35CHL1    C6 3705   6.199   5.569   7.305  0.2689  0.0605  0.0482
   35CHL1    H6 3706   6.275   5.599   7.379  0.8865 -0.5640 -0.3215
   35CHL1    C7 3707   6.226   5.631   7.172  0.2201 -0.8271  0.4800
   35CHL1   H7A 3708   6.248   5.739   7.187 -1.4919 -0.4992  0.8846
   35CHL1   H7B 3709   6.311   5.571   7.134  0.1840  0.1120 -1.2240
   35CHL1    C8 3710   6.102   5.622   7.077  0.3716 -0.9180 -0.2048
   35CHL1    H8 3711   6.031   5.695   7.122  2.4056  1.0354 -0.0058
   35CHL1   C14 3712   6.151   5.652   6.942 -0.2854  0.1722 -0.1161
   35CHL1   H14 3713   6.230   5.574   6.931 -1.1015 -0.6759 -0.0843
   35CHL1   C15 3714   6.220   5.786   6.920 -0.8307  0.1741 -0.0110
   35CHL1  H15A 3715   6.149   5.868   6.947  0.4243  0.8187  1.5075
   35CHL1  H15B 3716   6.313   5.800   6.980 -0.2890  0.4337 -0.8811
   35CHL1   C16 3717   6.251   5.789   6.768  0.1203  0.0891 -0.2642
   35CHL1  H16A 3718   6.236   5.894   6.735 -0.7154  0.3160  0.7771
   35CHL1  H16B 3719   6.357   5.758   6.755  0.4816  0.8440  0.7647
   35CHL1   C17 3720   6.154   5.679   6.711 -0.0627 -0.0165 -0.0277
   35CHL1   H17 3721   6.219   5.594   6.684  1.3560  0.4148  1.8753
   35CHL1   C13 3722   6.061   5.629   6.828 -0.0182 -0.1707  0.5914
   35CHL1   C18 3723   5.930   5.713   6.843  0.0446 -0.4900  0.2996
   35CHL1  H18A 3724   5.945   5.823   6.840 -0.8478 -0.1656  3.5947
   35CHL1  H18B 3725   5.847   5.680   6.777 -0.8520  0.2844  1.0082
   35CHL1  H18C 3726   5.895   5.702   6.948  0.6697  0.8559  0.6749
   35CHL1   C12 3727   6.022   5.482   6.827 -0.3069  0.1370  0.0549
   35CHL1  H12A 3728   5.962   5.446   6.741 -0.4400 -0.2398  0.3010
   35CHL1  H12B 3729   6.107   5.412   6.817 -0.7053 -0.2719 -0.5675
   35CHL1   C11 3730   5.949   5.446   6.960 -0.5541  0.1156 -0.3951
   35CHL1  H11A 3731   5.845   5.486   6.959 -0.7349 -0.0716  2.2714
   35CHL1  H11B 3732   5.937   5.335   6.956  0.1370 -0.0511  1.3585
   35CHL1    C9 3733   6.045   5.483   7.086 -0.0336  0.0098  0.4216
   35CHL1    H9 3734   6.139   5.426   7.070 -0.9019 -1.4105  0.1550
   35CHL1   C10 3735   6.000   5.440   7.227  0.3856 -0.2798 -0.0948
   35CHL1   C19 3736   5.850   5.495   7.235 -0.5339  0.1469 -0.5681
   35CHL1  H19A 3737   5.813   5.477   7.338 -0.9607  2.3784 -0.2687
   35CHL1  H19B 3738   5.859   5.604   7.218 -0.5028  0.4461  1.1840
   35CHL1  H19C 3739   5.772   5.448   7.171 -0.0242 -1.2150 -0.2281
   35CHL1    C1 3740   6.010   5.284   7.217 -0.1348 -0.1923 -0.7325
   35CHL1   H1A 3741   5.943   5.240   7.139  0.9547 -0.4052 -1.5856
   35CHL1   H1B 3742   6.114   5.261   7.186  0.0891  0.3405 -0.3680
   35CHL1    C2 3743   5.984   5.212   7.350 -0.1109 -0.3737 -0.1028
   35CHL1   H2A 3744   6.005   5.104   7.338 -1.1976 -0.3579 -2.6472
   35CHL1   H2B 3745   5.879   5.236   7.376  0.5274  2.1813  0.4304
   35CHL1   C20 3746   6.092   5.721   6.584  0.0806 -0.0675  0.1774
   35CHL1   H20 3747   6.018   5.803   6.590  0.8976  0.5837  2.4977
   35CHL1   C21 3748   6.014   5.609   6.514 -0.0585  0.3618  0.1099
   35CHL1  H21A 3749   5.917   5.589   6.564 -0.1824  0.9748  0.1234
   35CHL1  H21B 3750   6.070   5.513   6.521 -1.5599 -0.5037  0.6529
   35CHL1  H21C 3751   6.004   5.627   6.405 -1.0472  1.1156  0.3137
   35CHL1   C22 3752   6.200   5.769   6.477 -0.3091  0.1572  0.1317
   35CHL1  H22A 3753   6.278   5.835   6.521 -1.0965  0.8617  0.4832
   35CHL1  H22B 3754   6.248   5.689   6.416 -0.8906  0.7261 -1.1065
   35CHL1   C23 3755   6.136   5.864   6.370 -0.0929  0.1745 -0.1853
   35CHL1  H23A 3756   6.047   5.820   6.320 -0.4422  2.4720 -1.7765
   35CHL1  H23B 3757   6.094   5.950   6.426  1.5286 -0.1958  1.7256
   35CHL1   C24 3758   6.241   5.904   6.256  0.1835  0.1649  0.3095
   35CHL1  H24A 3759   6.325   5.958   6.306  0.8207  1.8096 -2.3506
   35CHL1  H24B 3760   6.294   5.823   6.201 -0.1875 -0.7745  1.2878
   35CHL1   C25 3761   6.182   6.015   6.166  0.0122 -0.8968 -0.5746
   35CHL1   H25 3762   6.178   6.110   6.223 -1.0896 -0.5998 -1.1102
   35CHL1   C26 3763   6.261   6.035   6.039  0.9643 -0.1779 -0.3868
   35CHL1  H26A 3764   6.368   6.058   6.055  0.4653  3.3823 -1.1909
   35CHL1  H26B 3765   6.260   5.948   5.971 -0.2896  0.5059 -1.2756
   35CHL1  H26C 3766   6.218   6.119   5.980  0.6340 -1.1142 -1.5172
   35CHL1   C27 3767   6.033   6.005   6.129  0.3595 -0.3222  0.1198
   35CHL1  H27A 3768   6.014   6.090   6.059  1.7874 -0.3270 -0.2986
   35CHL1  H27B 3769   6.013   5.904   6.086  1.5038 -1.0044  1.1284
   35CHL1  H27C 3770   5.968   6.013   6.219  0.9248  1.7209  0.3970
   36CHL1    C3 3771   2.287   2.705   7.535  0.5097  0.0177 -0.5987
   36CHL1    H3 3772   2.223   2.628   7.488 -1.0322 -0.2687  1.7982
   36CHL1    O3 3773   2.271   2.686   7.671  0.3747  0.5669 -0.1841
   36CHL1   H3' 3774   2.256   2.592   7.685  2.1274  0.2858  0.0329
   36CHL1    C4 3775   2.436   2.696   7.494  0.0705 -0.3155 -0.1687
   36CHL1   H4A 3776   2.498   2.779   7.534 -1.1053  0.1246  0.8222
   36CHL1   H4B 3777   2.483   2.604   7.535 -1.8518 -0.8368  1.0177
   36CHL1    C5 3778   2.458   2.716   7.344  0.2039  0.0793 -0.3858
   36CHL1    C6 3779   2.514   2.630   7.264  0.6249  0.5898  0.2103
   36CHL1    H6 3780   2.564   2.538   7.299  1.2481  0.2424 -1.4714
   36CHL1    C7 3781   2.547   2.645   7.113 -0.3634  0.0488  0.3641
   36CHL1   H7A 3782   2.654   2.620   7.094 -0.2357 -1.1652  2.3511
   36CHL1   H7B 3783   2.498   2.565   7.055 -0.7594 -0.5102  1.4453
   36CHL1    C8 3784   2.509   2.786   7.063  0.3555 -0.0859  0.3190
   36CHL1    H8 3785   2.592   2.855   7.086 -0.5162  1.4612 -0.9607
   36CHL1   C14 3786   2.493   2.784   6.914 -0.3099  0.5819  0.5348
   36CHL1   H14 3787   2.411   2.709   6.903  0.8615 -0.5210 -1.1157
   36CHL1   C15 3788   2.601   2.723   6.825  0.3808  0.3493 -0.1237
   36CHL1  H15A 3789   2.701   2.771   6.828  1.3834 -1.2253 -3.6885
   36CHL1  H15B 3790   2.617   2.617   6.853  2.4093  0.5617 -0.3175
   36CHL1   C16 3791   2.550   2.755   6.692  0.5362 -0.1726  0.3518
   36CHL1  H16A 3792   2.632   2.769   6.619 -0.5040  0.8564 -0.6541
   36CHL1  H16B 3793   2.493   2.667   6.657  1.0632 -0.7417  0.8945
   36CHL1   C17 3794   2.435   2.863   6.696 -0.4845 -0.2089 -0.1776
   36CHL1   H17 3795   2.337   2.814   6.677 -0.2241 -1.0720  0.5987
   36CHL1   C13 3796   2.433   2.906   6.846 -0.3888  0.2919  0.2353
   36CHL1   C18 3797   2.546   3.014   6.859 -0.3353 -0.2248  0.1726
   36CHL1  H18A 3798   2.503   3.110   6.821  0.9864  0.1240 -0.5035
   36CHL1  H18B 3799   2.560   3.044   6.965 -4.1925  3.6440 -0.1364
   36CHL1  H18C 3800   2.645   3.002   6.809  0.0194  1.0753  0.5247
   36CHL1   C12 3801   2.300   2.943   6.916  0.5049  0.2929 -0.5465
   36CHL1  H12A 3802   2.249   3.031   6.871 -1.5105 -0.0145  0.9963
   36CHL1  H12B 3803   2.241   2.851   6.896  0.0675  0.5854 -0.6203
   36CHL1   C11 3804   2.319   2.965   7.071  0.0342 -0.0117 -0.1476
   36CHL1  H11A 3805   2.388   3.051   7.085 -2.4787  2.4617 -1.8322
   36CHL1  H11B 3806   2.228   2.994   7.126 -0.3894  1.4960 -1.5682
   36CHL1    C9 3807   2.381   2.840   7.134 -0.5592  0.4437  0.5711
   36CHL1    H9 3808   2.307   2.759   7.121  0.0378 -0.2302  1.2464
   36CHL1   C10 3809   2.403   2.850   7.287  0.0236 -0.1429 -0.2465
   36CHL1   C19 3810   2.497   2.968   7.336 -0.7312  0.2609 -0.7819
   36CHL1  H19A 3811   2.511   2.972   7.446 -2.2473  1.1958 -0.5894
   36CHL1  H19B 3812   2.590   2.967   7.277  1.1353 -0.9318  1.9630
   36CHL1  H19C 3813   2.453   3.068   7.319  0.8051  0.9009 -1.1145
   36CHL1    C1 3814   2.263   2.871   7.349  1.2361  0.5380  0.3784
   36CHL1   H1A 3815   2.227   2.973   7.325  1.6426  0.4680 -0.5775
   36CHL1   H1B 3816   2.190   2.805   7.297  0.3511  0.7919  1.2485
   36CHL1    C2 3817   2.247   2.850   7.503  0.5765 -1.0299  0.3355
   36CHL1   H2A 3818   2.139   2.867   7.524  0.2463 -1.4764 -0.8843
   36CHL1   H2B 3819   2.293   2.932   7.562  0.2268 -0.6739  0.1237
   36CHL1   C20 3820   2.455   2.965   6.587 -0.0491  0.0424 -0.0103
   36CHL1   H20 3821   2.541   3.030   6.615 -0.4199  0.7978 -0.5650
   36CHL1   C21 3822   2.337   3.069   6.589  0.4866  0.0208  0.5024
   36CHL1  H21A 3823   2.357   3.156   6.523  1.1567  0.0617  0.7593
   36CHL1  H21B 3824   2.323   3.110   6.692  0.0194  1.6564 -0.1776
   36CHL1  H21C 3825   2.239   3.032   6.553  1.1342 -0.2492 -1.0478
   36CHL1   C22 3826   2.473   2.908   6.445 -0.4891  0.2705 -0.6628
   36CHL1  H22A 3827   2.575   2.863   6.443 -0.0485  0.9185  2.3976
   36CHL1  H22B 3828   2.396   2.828   6.441  1.1605 -1.6021  1.3934
   36CHL1   C23 3829   2.466   3.014   6.331  0.1872 -0.5207 -0.4394
   36CHL1  H23A 3830   2.371   3.071   6.336  0.8822  0.7143 -1.0479
   36CHL1  H23B 3831   2.547   3.088   6.346  0.8442 -1.6857  2.3306
   36CHL1   C24 3832   2.488   2.935   6.198  0.2987  0.9641 -0.8678
   36CHL1  H24A 3833   2.583   2.877   6.200 -0.9141 -1.2021 -2.8400
   36CHL1  H24B 3834   2.404   2.863   6.193 -0.1639  1.2224  1.6778
   36CHL1   C25 3835   2.478   3.017   6.069 -0.5119  1.0364  0.1017
   36CHL1   H25 3836   2.389   3.082   6.082 -1.8289 -0.4682 -0.8212
   36CHL1   C26 3837   2.603   3.106   6.049 -0.0440 -0.1615 -0.4380
   36CHL1  H26A 3838   2.690   3.044   6.019  1.1229  0.8955  0.6699
   36CHL1  H26B 3839   2.568   3.183   5.976 -2.9785 -0.2372  0.7592
   36CHL1  H26C 3840   2.608   3.155   6.149 -2.0796 -0.6302 -0.0712
   36CHL1   C27 3841   2.459   2.924   5.949  0.4485 -0.5476 -0.2445
   36CHL1  H27A 3842   2.463   2.983   5.855  3.3640  1.7962  1.1680
   36CHL1  H27B 3843   2.543   2.852   5.948 -0.3662 -1.8341  3.9401
   36CHL1  H27C 3844   2.360   2.875   5.945  1.1091 -2.0038  0.5629
   37CHL1    C3 3845   3.438   5.330   7.229 -0.9136  0.6984  0.0301
   37CHL1    H3 3846   3.476   5.432   7.249  0.4535  0.1221  0.4719
   37CHL1    O3 3847   3.453   5.259   7.348  0.2027 -0.1161 -0.2730
   37CHL1   H3' 3848   3.439   5.169   7.319 -1.2033 -0.8526  2.4083
   37CHL1    C4 3849   3.296   5.339   7.184  0.2239 -0.0155  0.4219
   37CHL1   H4A 3850   3.255   5.236   7.183 -1.0049  0.4427 -0.6136
   37CHL1   H4B 3851   3.243   5.405   7.256  0.4391  5.0571 -3.4478
   37CHL1    C5 3852   3.270   5.399   7.047 -0.3600  0.3532 -0.6179
   37CHL1    C6 3853   3.187   5.502   7.035 -0.5186  0.0908  0.4974
   37CHL1    H6 3854   3.126   5.537   7.120 -0.0876  0.7186  0.5569
   37CHL1    C7 3855   3.150   5.563   6.904 -0.1703  0.6001  0.1851
   37CHL1   H7A 3856   3.039   5.570   6.900 -0.0525  4.0486  0.2133
   37CHL1   H7B 3857   3.180   5.670   6.898 -0.1233  0.5085 -1.7782
   37CHL1    C8 3858   3.209   5.486   6.781  0.2146  0.4863 -0.4254
   37CHL1    H8 3859   3.135   5.407   6.758  1.1347 -1.2164  2.0494
   37CHL1   C14 3860   3.210   5.580   6.663 -0.1062  0.7800 -0.2419
   37CHL1   H14 3861   3.282   5.660   6.689  0.9322 -0.1258 -0.2901
   37CHL1   C15 3862   3.083   5.659   6.629  0.7682 -0.1905  0.4342
   37CHL1  H15A 3863   2.990   5.602   6.648  0.6997 -0.0367  0.5687
   37CHL1  H15B 3864   3.089   5.753   6.688  3.1068 -1.2343  2.0300
   37CHL1   C16 3865   3.109   5.703   6.480 -0.0723  0.1982  0.4325
   37CHL1  H16A 3866   3.029   5.660   6.416 -1.1810  1.3941  0.9726
   37CHL1  H16B 3867   3.112   5.814   6.471 -2.0896  0.3767  1.4756
   37CHL1   C17 3868   3.244   5.643   6.441  0.3173 -0.4940 -0.2572
   37CHL1   H17 3869   3.317   5.725   6.458 -0.5796  0.4661 -0.8828
   37CHL1   C13 3870   3.268   5.522   6.528  1.0594 -0.0610 -0.8045
   37CHL1   C18 3871   3.172   5.398   6.483  0.0392 -0.2068 -0.5173
   37CHL1  H18A 3872   3.073   5.442   6.458  0.4389  0.1414 -1.5554
   37CHL1  H18B 3873   3.219   5.348   6.395  1.2081  0.8628 -0.5307
   37CHL1  H18C 3874   3.158   5.323   6.563 -1.4028  0.9671  0.4009
   37CHL1   C12 3875   3.409   5.463   6.559 -0.0066 -0.3310 -0.5933
   37CHL1  H12A 3876   3.442   5.399   6.474  1.1807 -1.1516  0.4407
   37CHL1  H12B 3877   3.476   5.551   6.569 -0.7981  0.2840 -0.6371
   37CHL1   C11 3878   3.412   5.368   6.679 -0.0019 -0.1620  0.2799
   37CHL1  H11A 3879   3.362   5.272   6.653  2.7612 -2.2103  1.9377
   37CHL1  H11B 3880   3.511   5.322   6.702 -0.2301 -0.9947 -0.3630
   37CHL1    C9 3881   3.345   5.427   6.808 -0.5038  0.3811  0.0845
   37CHL1    H9 3882   3.404   5.516   6.839  0.5275 -0.1650 -0.2540
   37CHL1   C10 3883   3.359   5.338   6.933 -0.5503 -0.3682  0.0555
   37CHL1   C19 3884   3.309   5.199   6.899  0.4358  0.2189 -0.0038
   37CHL1  H19A 3885   3.378   5.126   6.853 -1.2843 -0.9496 -0.8239
   37CHL1  H19B 3886   3.279   5.140   6.988  0.6771  0.3330  0.1543
   37CHL1  H19C 3887   3.217   5.197   6.837 -0.3705  0.4552  1.1528
   37CHL1    C1 3888   3.504   5.334   6.987 -0.4138  0.4023 -0.0501
   37CHL1   H1A 3889   3.562   5.274   6.914 -1.7769  1.0489 -1.7407
   37CHL1   H1B 3890   3.540   5.439   6.988 -2.3782  1.1561  2.4924
   37CHL1    C2 3891   3.520   5.259   7.120 -0.0234 -0.0128  0.9794
   37CHL1   H2A 3892   3.630   5.265   7.140  0.3604 -0.1279 -0.9616
   37CHL1   H2B 3893   3.492   5.152   7.113 -0.6595  0.2159 -0.0630
   37CHL1   C20 3894   3.253   5.617   6.292  0.3931  0.0295 -0.1292
   37CHL1   H20 3895   3.179   5.538   6.266  0.0771  0.4328 -0.4755
   37CHL1   C21 3896   3.389   5.574   6.250 -0.4287 -0.5473  1.2748
   37CHL1  H21A 3897   3.452   5.664   6.264 -0.0981 -0.6905  0.7006
   37CHL1  H21B 3898   3.383   5.539   6.145 -2.4616 -0.7244  1.4094
   37CHL1  H21C 3899   3.434   5.495   6.314 -0.1883 -0.6845  0.9338
   37CHL1   C22 3900   3.211   5.746   6.215 -0.3448 -0.6012 -0.0948
   37CHL1  H22A 3901   3.124   5.799   6.258 -0.3420 -2.3060  2.1956
   37CHL1  H22B 3902   3.306   5.803   6.224  1.8424 -3.6695 -1.7359
   37CHL1   C23 3903   3.188   5.724   6.065 -0.2899  0.2571  0.0373
   37CHL1  H23A 3904   3.294   5.715   6.031 -0.3946 -0.2827 -0.1547
   37CHL1  H23B 3905   3.135   5.628   6.046  0.5757 -0.3505  0.5706
   37CHL1   C24 3906   3.136   5.836   5.984  0.4182 -0.1746  0.5819
   37CHL1  H24A 3907   3.029   5.847   6.009  0.7206  0.0198  1.8613
   37CHL1  H24B 3908   3.183   5.935   5.999 -1.2564  0.7354 -0.0260
   37CHL1   C25 3909   3.124   5.811   5.829  1.0863 -0.1434 -0.4607
   37CHL1   H25 3910   3.224   5.809   5.780  1.0797 -0.9017 -0.4482
   37CHL1   C26 3911   3.053   5.672   5.800  0.0770  0.0289  0.5344
   37CHL1  H26A 3912   3.110   5.590   5.849 -0.5466  0.6927  2.4940
   37CHL1  H26B 3913   2.949   5.663   5.837 -0.3266  0.0157 -0.5775
   37CHL1  H26C 3914   3.042   5.647   5.692 -1.8274  2.6201  0.0317
   37CHL1   C27 3915   3.048   5.924   5.751 -0.5839  0.4359 -0.2617
   37CHL1  H27A 3916   2.944   5.936   5.789 -1.4994 -0.7227 -2.2270
   37CHL1  H27B 3917   3.095   6.024   5.759  0.8035 -0.1149 -1.1387
   37CHL1  H27C 3918   3.037   5.896   5.644  1.2410 -2.0403  0.1284
   38CHL1    C3 3919   5.440   6.101   7.445 -0.0249  0.5906  0.3929
   38CHL1    H3 3920   5.469   6.205   7.419  1.2603 -0.1606 -1.3528
   38CHL1    O3 3921   5.418   6.083   7.583 -0.0316 -1.1228 -0.1894
   38CHL1   H3' 3922   5.373   6.000   7.593 -1.0149 -0.5843 -0.0471
   38CHL1    C4 3923   5.313   6.061   7.368 -0.0115 -0.1738 -0.1031
   38CHL1   H4A 3924   5.278   5.971   7.423  0.0399  0.1744  0.5043
   38CHL1   H4B 3925   5.240   6.141   7.395  1.1105  1.0256 -0.5225
   38CHL1    C5 3926   5.328   6.042   7.221 -0.0252 -0.3275 -0.1257
   38CHL1    C6 3927   5.253   6.113   7.132  0.5599 -0.3572  0.4813
   38CHL1    H6 3928   5.169   6.173   7.171 -0.3894  0.0360 -2.0007
   38CHL1    C7 3929   5.264   6.112   6.981  0.3759 -0.0950  0.2089
   38CHL1   H7A 3930   5.166   6.111   6.929  0.2641  2.2488  0.2590
   38CHL1   H7B 3931   5.313   6.208   6.953 -1.5377  1.3440  1.5015
   38CHL1    C8 3932   5.352   5.996   6.940 -0.0055  0.5647 -0.2759
   38CHL1    H8 3933   5.291   5.905   6.955 -0.5062  0.6731 -1.5146
   38CHL1   C14 3934   5.393   5.989   6.794 -0.1562 -0.3432 -0.3323
   38CHL1   H14 3935   5.465   6.072   6.783  1.1451 -1.3311  0.4361
   38CHL1   C15 3936   5.282   6.002   6.695  0.8817 -0.5475  0.2322
   38CHL1  H15A 3937   5.188   5.951   6.725 -0.1838  0.0259 -1.9304
   38CHL1  H15B 3938   5.265   6.108   6.669  1.6295 -0.8267 -1.5425
   38CHL1   C16 3939   5.341   5.945   6.558  0.1551  0.3484 -0.7571
   38CHL1  H16A 3940   5.269   5.873   6.513  0.9201 -0.5250 -0.6225
   38CHL1  H16B 3941   5.343   6.031   6.488 -0.6224  1.0833  0.1060
   38CHL1   C17 3942   5.478   5.881   6.597  0.3558 -0.4339 -0.0106
   38CHL1   H17 3943   5.538   5.970   6.572 -1.3077  0.3116 -1.6328
   38CHL1   C13 3944   5.473   5.864   6.748  0.2043  0.3882 -0.3978
   38CHL1   C18 3945   5.389   5.735   6.774 -0.3194 -0.2514  0.2623
   38CHL1  H18A 3946   5.371   5.711   6.881 -1.2672 -2.8553 -0.3967
   38CHL1  H18B 3947   5.286   5.752   6.734 -0.8368 -0.8182  1.3203
   38CHL1  H18C 3948   5.440   5.644   6.736 -0.4072 -0.2305  0.0924
   38CHL1   C12 3949   5.601   5.870   6.818  0.1732 -0.4688  0.2065
   38CHL1  H12A 3950   5.658   5.779   6.789 -3.2133 -2.6409 -0.2119
   38CHL1  H12B 3951   5.652   5.963   6.787 -0.8753 -0.3885 -1.4301
   38CHL1   C11 3952   5.586   5.870   6.973  0.7308 -0.2227  0.6551
   38CHL1  H11A 3953   5.551   5.768   6.999  0.8459  0.1424  2.3712
   38CHL1  H11B 3954   5.688   5.871   7.017  2.3995  0.9599 -2.9054
   38CHL1    C9 3955   5.480   5.975   7.028  0.4874  0.3422 -0.1466
   38CHL1    H9 3956   5.541   6.068   7.024  1.6982 -0.4572 -1.2606
   38CHL1   C10 3957   5.444   5.950   7.177  0.2331  0.4838  0.0595
   38CHL1   C19 3958   5.411   5.802   7.209 -0.8186 -0.0067 -0.0109
   38CHL1  H19A 3959   5.332   5.755   7.145 -0.9865  0.3898 -0.0992
   38CHL1  H19B 3960   5.499   5.738   7.190 -1.8902 -0.8616 -2.7384
   38CHL1  H19C 3961   5.386   5.785   7.316  1.4863  0.5191  0.6602
   38CHL1    C1 3962   5.570   5.990   7.261  0.5118  0.5707 -0.1291
   38CHL1   H1A 3963   5.640   5.904   7.249 -0.6246 -0.2504 -1.1521
   38CHL1   H1B 3964   5.607   6.086   7.221 -0.2782  0.8053 -0.3177
   38CHL1    C2 3965   5.546   6.006   7.409 -0.8391 -0.6814  0.5411
   38CHL1   H2A 3966   5.644   6.028   7.457 -0.1272 -2.2430 -0.1307
   38CHL1   H2B 3967   5.533   5.910   7.464 -2.5535  0.9327  3.2100
   38CHL1   C20 3968   5.536   5.776   6.507  0.8278  0.1166  0.2690
   38CHL1   H20 3969   5.495   5.674   6.524 -0.2850  0.8418  2.2930
   38CHL1   C21 3970   5.686   5.769   6.518 -0.1257 -0.3643 -0.2774
   38CHL1  H21A 3971   5.736   5.726   6.428  0.1571  0.1323 -0.3609
   38CHL1  H21B 3972   5.699   5.687   6.593  1.0641 -0.5793 -0.6856
   38CHL1  H21C 3973   5.739   5.864   6.538  0.7175  0.0942 -3.9582
   38CHL1   C22 3974   5.507   5.807   6.356 -0.4557 -0.5555 -0.0234
   38CHL1  H22A 3975   5.531   5.720   6.291  0.8857 -2.2129  2.5259
   38CHL1  H22B 3976   5.397   5.820   6.342 -0.3392  0.9029  0.2706
   38CHL1   C23 3977   5.574   5.935   6.303  0.3120 -0.5220  0.2250
   38CHL1  H23A 3978   5.543   6.015   6.374  1.7408 -0.0143  0.3200
   38CHL1  H23B 3979   5.685   5.936   6.297  0.3223  2.4295 -0.2435
   38CHL1   C24 3980   5.513   5.985   6.167  0.4046  0.7591  0.3856
   38CHL1  H24A 3981   5.544   5.906   6.095 -0.0524 -1.0360  2.0662
   38CHL1  H24B 3982   5.403   5.982   6.182  0.4334  1.0546  0.6504
   38CHL1   C25 3983   5.562   6.123   6.129  0.1571 -0.6829  0.0870
   38CHL1   H25 3984   5.545   6.131   6.020 -0.4798 -0.5749  0.1912
   38CHL1   C26 3985   5.489   6.236   6.206 -0.0547  0.0561  0.6446
   38CHL1  H26A 3986   5.529   6.331   6.164 -1.7769  0.1652 -0.8705
   38CHL1  H26B 3987   5.380   6.240   6.184  0.1078  0.9933 -0.0978
   38CHL1  H26C 3988   5.504   6.224   6.315 -0.5240 -2.0189  0.5104
   38CHL1   C27 3989   5.717   6.130   6.134  0.2224  0.1264  0.0309
   38CHL1  H27A 3990   5.767   6.033   6.113 -0.5025 -0.2933  0.1989
   38CHL1  H27B 3991   5.745   6.208   6.060 -2.0625  1.0806  0.1105
   38CHL1  H27C 3992   5.750   6.153   6.238  0.1018  0.7529 -0.0683
   39CHL1    C3 3993   6.262   4.419   7.122  0.3866 -0.5011 -0.2005
   39CHL1    H3 3994   6.358   4.404   7.177  0.1687 -1.3006 -0.0258
   39CHL1    O3 3995   6.163   4.382   7.212  0.0548  0.8895 -0.9271
   39CHL1   H3' 3996   6.203   4.404   7.297  2.0073 -2.3220 -0.8601
   39CHL1    C4 3997   6.235   4.573   7.093 -0.2062  0.4038 -0.7113
   39CHL1   H4A 3998   6.133   4.586   7.050 -0.7597 -0.6236  0.2519
   39CHL1   H4B 3999   6.232   4.639   7.182 -0.5420  1.0762 -1.2036
   39CHL1    C5 4000   6.327   4.622   6.984  1.0767  0.1237 -0.0739
   39CHL1    C6 4001   6.395   4.735   7.003  0.5454  0.1506 -0.1625
   39CHL1    H6 4002   6.364   4.799   7.087 -0.4273 -0.3158 -0.1568
   39CHL1    C7 4003   6.502   4.786   6.905  0.5780  0.2307  0.1976
   39CHL1   H7A 4004   6.500   4.897   6.902  0.9763  0.2992  1.6680
   39CHL1   H7B 4005   6.599   4.741   6.936  0.2567  0.9643  2.4159
   39CHL1    C8 4006   6.464   4.735   6.764  0.1432 -0.0334 -0.6152
   39CHL1    H8 4007   6.371   4.790   6.739  1.5350  2.2832 -0.9596
   39CHL1   C14 4008   6.576   4.780   6.677  0.5563  0.1569 -0.2750
   39CHL1   H14 4009   6.666   4.729   6.718  0.6221 -0.4273 -1.1048
   39CHL1   C15 4010   6.613   4.930   6.665 -0.3975  0.3744  0.3281
   39CHL1  H15A 4011   6.520   4.988   6.651  0.2713  1.3702 -0.0916
   39CHL1  H15B 4012   6.665   4.970   6.755 -0.4919 -0.2045  0.6471
   39CHL1   C16 4013   6.691   4.942   6.533  0.3225  0.3967  0.4495
   39CHL1  H16A 4014   6.640   5.015   6.466 -1.0204  1.8801  2.9117
   39CHL1  H16B 4015   6.794   4.981   6.547  1.4760 -2.1914 -0.2975
   39CHL1   C17 4016   6.678   4.798   6.463  0.0296  0.2035 -0.3564
   39CHL1   H17 4017   6.765   4.739   6.501 -2.4801 -2.1477  2.2981
   39CHL1   C13 4018   6.555   4.731   6.531  0.0478  0.2696  0.1851
   39CHL1   C18 4019   6.426   4.793   6.473  0.4693  0.2466  0.5355
   39CHL1  H18A 4020   6.338   4.778   6.539 -0.5517 -1.2453 -1.0448
   39CHL1  H18B 4021   6.438   4.901   6.453  1.3312 -0.2398 -2.0029
   39CHL1  H18C 4022   6.401   4.744   6.376  0.9442 -0.2722  0.6680
   39CHL1   C12 4023   6.563   4.579   6.540  0.0478 -0.5671 -0.5185
   39CHL1  H12A 4024   6.564   4.530   6.441  0.5152  1.5392 -1.6041
   39CHL1  H12B 4025   6.652   4.543   6.595  0.7600 -1.3362 -2.1367
   39CHL1   C11 4026   6.446   4.520   6.626 -0.7094 -0.0714  0.4846
   39CHL1  H11A 4027   6.350   4.530   6.571  0.2643 -1.1652 -1.5154
   39CHL1  H11B 4028   6.462   4.412   6.645  1.4429  0.7510  4.4343
   39CHL1    C9 4029   6.443   4.584   6.764  0.3134 -0.0380  1.1763
   39CHL1    H9 4030   6.542   4.546   6.799  1.2746  1.4023  0.1206
   39CHL1   C10 4031   6.337   4.529   6.857  0.1150  0.0459  0.2892
   39CHL1   C19 4032   6.204   4.552   6.781  0.0596  0.1029 -0.8523
   39CHL1  H19A 4033   6.197   4.653   6.735  1.3600 -0.4965 -2.4580
   39CHL1  H19B 4034   6.200   4.486   6.692  3.7379  0.4056 -1.4070
   39CHL1  H19C 4035   6.111   4.524   6.835 -0.5997  3.4047 -0.0033
   39CHL1    C1 4036   6.361   4.382   6.880  0.3393  0.0438 -0.0093
   39CHL1   H1A 4037   6.341   4.331   6.784 -0.6200 -0.4678  0.4504
   39CHL1   H1B 4038   6.466   4.361   6.910  0.8367 -1.5071 -2.5983
   39CHL1    C2 4039   6.258   4.334   6.991  0.4531 -0.2293 -0.6477
   39CHL1   H2A 4040   6.287   4.234   7.030  0.0614  0.4106  1.4080
   39CHL1   H2B 4041   6.153   4.332   6.954  0.0356  1.7941  0.3003
   39CHL1   C20 4042   6.678   4.796   6.309 -0.4825 -0.7667  0.5488
   39CHL1   H20 4043   6.610   4.713   6.277 -1.2103 -0.0098  0.0996
   39CHL1   C21 4044   6.816   4.759   6.250  0.1581 -0.4384 -0.6291
   39CHL1  H21A 4045   6.862   4.675   6.306 -0.4864 -1.0862 -1.0548
   39CHL1  H21B 4046   6.885   4.845   6.266  0.1179 -0.2154 -1.5850
   39CHL1  H21C 4047   6.813   4.735   6.141  2.7688 -1.3227 -0.5842
   39CHL1   C22 4048   6.617   4.927   6.240 -0.1281 -0.9060  0.0047
   39CHL1  H22A 4049   6.532   4.972   6.297 -0.5227 -0.2949 -1.0467
   39CHL1  H22B 4050   6.685   5.012   6.260 -3.1478  1.6980  0.1003
   39CHL1   C23 4051   6.568   4.923   6.097  0.2091 -0.1576 -0.1304
   39CHL1  H23A 4052   6.628   4.843   6.049  0.4037  0.2468 -0.5705
   39CHL1  H23B 4053   6.462   4.892   6.094  0.8019 -2.5228  1.3049
   39CHL1   C24 4054   6.600   5.059   6.027  0.4731  0.2346 -0.8762
   39CHL1  H24A 4055   6.520   5.129   6.059  1.3620  0.5514  0.7325
   39CHL1  H24B 4056   6.698   5.095   6.065  1.1120 -3.6700  1.7706
   39CHL1   C25 4057   6.615   5.037   5.873 -0.3094  0.4847  0.7138
   39CHL1   H25 4058   6.622   5.142   5.836 -1.3407  0.4696  0.4657
   39CHL1   C26 4059   6.745   4.965   5.832  0.2749  0.2913 -0.0123
   39CHL1  H26A 4060   6.742   4.860   5.868 -0.0452  0.3407  0.1076
   39CHL1  H26B 4061   6.762   4.969   5.723  2.9473  0.1019  0.3402
   39CHL1  H26C 4062   6.832   5.021   5.873  1.0223 -0.0085 -1.1492
   39CHL1   C27 4063   6.495   4.970   5.799  0.4545  0.9879 -1.3652
   39CHL1  H27A 4064   6.506   4.861   5.813 -1.4486  0.9622  0.3757
   39CHL1  H27B 4065   6.397   4.997   5.844 -0.3000  0.2959 -2.5238
   39CHL1  H27C 4066   6.497   4.989   5.689 -1.0253 -3.0015 -2.2668
   40CHL1    C3 4067   5.265   4.415   7.118 -0.3390  0.0781  0.1680
   40CHL1    H3 4068   5.376   4.412   7.129 -0.2086 -0.9626 -1.1251
   40CHL1    O3 4069   5.198   4.357   7.225  0.2059 -0.0633  0.0045
   40CHL1   H3' 4070   5.108   4.389   7.215 -1.0807 -1.6259  4.5315
   40CHL1    C4 4071   5.230   4.563   7.113 -0.3920  0.0545  0.0577
   40CHL1   H4A 4072   5.119   4.566   7.113 -0.3790  0.9398  0.1941
   40CHL1   H4B 4073   5.261   4.609   7.210 -1.1931  1.6038 -0.3822
   40CHL1    C5 4074   5.279   4.628   6.985  0.2439 -0.4985  0.0375
   40CHL1    C6 4075   5.345   4.745   6.995  0.4141 -0.1786 -0.9286
   40CHL1    H6 4076   5.369   4.789   7.093 -1.5157 -2.4425  0.6767
   40CHL1    C7 4077   5.387   4.829   6.878 -0.1140 -0.1777 -0.2008
   40CHL1   H7A 4078   5.369   4.935   6.908 -0.2938 -0.6397  1.4772
   40CHL1   H7B 4079   5.498   4.833   6.875 -0.1421  2.8119 -0.1922
   40CHL1    C8 4080   5.338   4.773   6.745 -0.2559  0.3188 -0.5913
   40CHL1    H8 4081   5.241   4.825   6.728  0.6050  1.4637 -2.4038
   40CHL1   C14 4082   5.426   4.819   6.630 -0.1423  0.0628  0.0814
   40CHL1   H14 4083   5.522   4.768   6.654  1.5997  2.0047 -2.3582
   40CHL1   C15 4084   5.468   4.963   6.605 -0.2602  0.1342 -0.3449
   40CHL1  H15A 4085   5.392   5.041   6.628 -0.1110 -0.2973  1.8811
   40CHL1  H15B 4086   5.550   4.987   6.677 -0.4237 -0.1638 -0.0567
   40CHL1   C16 4087   5.532   4.965   6.466  0.2667 -0.1871 -0.0902
   40CHL1  H16A 4088   5.499   5.054   6.409  1.3143 -1.1427 -2.2920
   40CHL1  H16B 4089   5.642   4.978   6.458  0.2294  0.4003  0.2517
   40CHL1   C17 4090   5.498   4.829   6.395 -0.4231  0.5054  0.1682
   40CHL1   H17 4091   5.592   4.769   6.397 -0.4243  0.4617 -0.7254
   40CHL1   C13 4092   5.390   4.765   6.489 -0.0646 -0.6822  0.3642
   40CHL1   C18 4093   5.263   4.829   6.446  0.3893  0.3310 -0.0573
   40CHL1  H18A 4094   5.267   4.939   6.451  0.3608  0.3594 -0.6100
   40CHL1  H18B 4095   5.232   4.800   6.343  3.0528 -0.6754 -0.6671
   40CHL1  H18C 4096   5.175   4.794   6.504  0.6664 -0.0558  0.1363
   40CHL1   C12 4097   5.389   4.610   6.495  0.4707 -0.4151 -0.7344
   40CHL1  H12A 4098   5.360   4.562   6.399 -1.1594 -3.0360  0.9322
   40CHL1  H12B 4099   5.493   4.575   6.514  0.3051  0.3616  2.0399
   40CHL1   C11 4100   5.293   4.555   6.604 -0.2658 -0.5184  0.0800
   40CHL1  H11A 4101   5.186   4.564   6.574 -0.6930  2.8209  2.1147
   40CHL1  H11B 4102   5.320   4.447   6.608 -0.7700 -0.9353 -3.8546
   40CHL1    C9 4103   5.326   4.619   6.746  0.6982 -0.5113  0.3458
   40CHL1    H9 4104   5.431   4.585   6.750  0.4716 -1.4612 -1.0265
   40CHL1   C10 4105   5.246   4.557   6.856  0.5192 -0.6123  0.5279
   40CHL1   C19 4106   5.092   4.569   6.835  0.0543  0.3966 -0.1728
   40CHL1  H19A 4107   5.068   4.677   6.822  0.4595  0.3068 -1.8971
   40CHL1  H19B 4108   5.058   4.517   6.743 -3.1319  0.3715  0.8944
   40CHL1  H19C 4109   5.035   4.530   6.922  0.4039  0.6430  0.1674
   40CHL1    C1 4110   5.274   4.409   6.871 -0.3451 -1.0350 -1.1623
   40CHL1   H1A 4111   5.225   4.352   6.789 -3.9270  2.6002 -1.8422
   40CHL1   H1B 4112   5.384   4.393   6.875  0.4879  3.1595 -2.5757
   40CHL1    C2 4113   5.218   4.338   6.994  0.0197  0.3398 -0.3018
   40CHL1   H2A 4114   5.251   4.232   6.998  0.5443  0.5413  2.4245
   40CHL1   H2B 4115   5.107   4.328   6.993 -0.1851  1.8898  1.6562
   40CHL1   C20 4116   5.469   4.837   6.243 -0.0335  0.3971 -0.3178
   40CHL1   H20 4117   5.379   4.902   6.240 -0.3830  0.0427  1.4701
   40CHL1   C21 4118   5.429   4.699   6.182  0.0278  0.3724  0.3022
   40CHL1  H21A 4119   5.417   4.711   6.072 -1.3516 -0.5230  0.3208
   40CHL1  H21B 4120   5.331   4.661   6.218 -1.5498 -0.1250 -3.8671
   40CHL1  H21C 4121   5.503   4.619   6.203  0.9091  0.4119 -2.2217
   40CHL1   C22 4122   5.577   4.916   6.158  0.2414  0.0506 -0.3758
   40CHL1  H22A 4123   5.543   4.950   6.058  0.4654 -2.0595 -1.2333
   40CHL1  H22B 4124   5.605   5.006   6.217  0.1029 -0.0868 -0.0998
   40CHL1   C23 4125   5.712   4.845   6.139  1.0282  0.2354  0.1406
   40CHL1  H23A 4126   5.754   4.807   6.234  4.1590 -0.8262 -1.5286
   40CHL1  H23B 4127   5.700   4.755   6.076  2.1583  2.1284 -3.0280
   40CHL1   C24 4128   5.826   4.931   6.074 -0.4065  0.3321 -0.5623
   40CHL1  H24A 4129   5.785   4.977   5.981 -3.4867 -1.4306 -0.2127
   40CHL1  H24B 4130   5.851   5.016   6.140 -2.7298  0.6723 -0.0508
   40CHL1   C25 4131   5.958   4.851   6.047  0.0315  0.6170  0.0476
   40CHL1   H25 4132   5.925   4.759   5.995  0.6745  0.8220 -0.7349
   40CHL1   C26 4133   6.059   4.935   5.962  0.7503  0.5195 -0.1446
   40CHL1  H26A 4134   6.098   5.022   6.019 -0.9726  1.0669  0.2546
   40CHL1  H26B 4135   6.142   4.873   5.923  0.5133  0.3406 -0.3720
   40CHL1  H26C 4136   6.002   4.972   5.874  0.9342  0.6790 -0.1967
   40CHL1   C27 4137   6.034   4.815   6.173  0.4293 -0.3745  0.1521
   40CHL1  H27A 4138   6.046   4.902   6.240  0.0394 -0.4592  0.3331
   40CHL1  H27B 4139   5.971   4.737   6.221 -3.4277  1.8106 -0.9619
   40CHL1  H27C 4140   6.130   4.767   6.143  1.0625  1.9976 -1.9008
   41CHL1    C3 4141   0.212   6.178   7.346  0.5436  0.3486  0.5218
   41CHL1    H3 4142   0.318   6.162   7.319  0.5322  1.4605 -0.2651
   41CHL1    O3 4143   0.179   6.122   7.474 -0.3276  0.1521 -0.9737
   41CHL1   H3' 4144   0.098   6.172   7.491 -0.9868 -1.3437  0.5890
   41CHL1    C4 4145   0.193   6.329   7.342 -0.2000 -0.0208  0.6610
   41CHL1   H4A 4146   0.087   6.351   7.364 -0.4589 -0.9618  0.3713
   41CHL1   H4B 4147   0.246   6.377   7.427 -1.1080 -0.3633  1.4324
   41CHL1    C5 4148   0.211   6.388   7.208  0.0026  0.5834  0.2676
   41CHL1    C6 4149   0.302   6.489   7.192 -0.5934  0.7955  0.9397
   41CHL1    H6 4150   0.357   6.527   7.280  1.2319 -0.0090  0.1916
   41CHL1    C7 4151   0.319   6.566   7.065 -0.0336  0.6465  0.1213
   41CHL1   H7A 4152   0.315   6.675   7.082 -1.3487  0.4972  0.9374
   41CHL1   H7B 4153   0.418   6.546   7.019  0.1003  0.1861  0.5993
   41CHL1    C8 4154   0.207   6.534   6.960 -0.4028  0.2514  0.0301
   41CHL1    H8 4155   0.120   6.596   6.991 -0.0300  0.6636  0.2771
   41CHL1   C14 4156   0.245   6.591   6.823  0.3250  0.2332  0.2038
   41CHL1   H14 4157   0.336   6.533   6.797  0.0020 -0.3495  0.3552
   41CHL1   C15 4158   0.296   6.738   6.806  1.3216  0.3747  0.0421
   41CHL1  H15A 4159   0.226   6.798   6.868  0.5368  0.9577 -1.3563
   41CHL1  H15B 4160   0.403   6.733   6.838  0.7337  0.1876  2.1015
   41CHL1   C16 4161   0.282   6.755   6.652  0.0188  0.6682  0.2149
   41CHL1  H16A 4162   0.218   6.840   6.619  1.6349  2.6771  1.9702
   41CHL1  H16B 4163   0.385   6.778   6.619  0.2187 -0.0468  0.3243
   41CHL1   C17 4164   0.226   6.615   6.591 -0.7904 -0.7195 -0.0904
   41CHL1   H17 4165   0.320   6.561   6.565  1.8975  2.6419  1.8378
   41CHL1   C13 4166   0.149   6.555   6.705  0.3528  0.2581 -0.0963
   41CHL1   C18 4167   0.013   6.638   6.728 -0.7580 -0.2552  0.7389
   41CHL1  H18A 4168  -0.043   6.617   6.822 -3.6704  1.1390 -0.5618
   41CHL1  H18B 4169   0.043   6.744   6.736  0.2389 -0.3254 -1.4820
   41CHL1  H18C 4170  -0.054   6.622   6.641 -1.9110 -1.7938  1.8545
   41CHL1   C12 4171   0.118   6.401   6.702  0.2871  0.1122  0.0435
   41CHL1  H12A 4172   0.039   6.383   6.626  0.0438  0.4376  0.2164
   41CHL1  H12B 4173   0.216   6.355   6.678  1.1045  1.3127  0.9656
   41CHL1   C11 4174   0.080   6.344   6.836 -0.4120  0.5939  0.5681
   41CHL1  H11A 4175  -0.019   6.392   6.852 -0.6438  0.0653  0.7453
   41CHL1  H11B 4176   0.067   6.234   6.825  0.8283  0.3385  1.4148
   41CHL1    C9 4177   0.173   6.383   6.959  1.0162 -0.7246  0.5773
   41CHL1    H9 4178   0.268   6.325   6.947  0.1432 -1.8523 -1.4768
   41CHL1   C10 4179   0.127   6.331   7.101 -0.1464 -0.1726  0.1770
   41CHL1   C19 4180  -0.023   6.369   7.122 -0.3714 -1.0780  0.4714
   41CHL1  H19A 4181  -0.062   6.336   7.220  0.4747 -0.2950  1.0940
   41CHL1  H19B 4182  -0.044   6.478   7.116  1.4577 -0.6744  0.7508
   41CHL1  H19C 4183  -0.083   6.322   7.041  2.1707 -1.8513 -1.0850
   41CHL1    C1 4184   0.136   6.176   7.106  0.2437  0.0778  0.2482
   41CHL1   H1A 4185   0.052   6.134   7.047 -0.5394 -0.3729  1.6445
   41CHL1   H1B 4186   0.233   6.148   7.058  0.3701  0.2272  0.4118
   41CHL1    C2 4187   0.118   6.115   7.245  0.1915  0.2903 -1.0192
   41CHL1   H2A 4188   0.134   6.005   7.240  0.8758  0.2660  1.0364
   41CHL1   H2B 4189   0.014   6.130   7.280  0.1124 -0.3858 -0.9565
   41CHL1   C20 4190   0.160   6.639   6.463  0.2716  0.4044 -0.1213
   41CHL1   H20 4191   0.064   6.693   6.474 -0.7459 -1.7305  2.6257
   41CHL1   C21 4192   0.132   6.504   6.386 -0.2659 -0.4228  0.2145
   41CHL1  H21A 4193   0.221   6.439   6.379  0.7579  0.6652  2.2523
   41CHL1  H21B 4194   0.101   6.529   6.281  0.1983  0.9856  0.3867
   41CHL1  H21C 4195   0.055   6.436   6.427 -1.2139  0.0657 -0.6905
   41CHL1   C22 4196   0.262   6.715   6.372 -0.3687  0.8291 -0.6446
   41CHL1  H22A 4197   0.325   6.791   6.423  0.0717 -0.2013  0.4120
   41CHL1  H22B 4198   0.328   6.642   6.320 -0.1172  1.3270 -1.0334
   41CHL1   C23 4199   0.178   6.796   6.264 -0.5474 -0.5558  0.2522
   41CHL1  H23A 4200   0.116   6.729   6.200  0.4295 -0.6445 -0.6255
   41CHL1  H23B 4201   0.106   6.869   6.307  0.5614  0.1949  0.8784
   41CHL1   C24 4202   0.272   6.881   6.185 -0.3204  0.4573  0.0225
   41CHL1  H24A 4203   0.310   6.965   6.247  3.3044 -0.7782 -0.2434
   41CHL1  H24B 4204   0.358   6.817   6.154  0.1978  1.3508 -0.4531
   41CHL1   C25 4205   0.217   6.932   6.049  0.4845 -0.3073  0.0004
   41CHL1   H25 4206   0.167   6.852   5.991 -1.8336  1.3775 -0.4767
   41CHL1   C26 4207   0.102   7.035   6.069 -0.4733  0.7799  0.6505
   41CHL1  H26A 4208   0.035   6.995   6.148  0.6007 -0.0205  1.1952
   41CHL1  H26B 4209   0.137   7.131   6.113  2.2003  0.3502 -0.3185
   41CHL1  H26C 4210   0.047   7.053   5.974 -3.2095 -4.0150  0.9957
   41CHL1   C27 4211   0.322   6.992   5.953  0.7167  0.3715  0.7748
   41CHL1  H27A 4212   0.373   7.087   5.980 -0.9523  1.5073  0.1298
   41CHL1  H27B 4213   0.404   6.928   5.915 -0.6704 -0.9262 -0.1836
   41CHL1  H27C 4214   0.259   7.024   5.866 -0.5078 -0.3951  1.3496
   42CHL1    C3 4215   6.413   1.204   7.473 -0.2649  0.1205  0.4833
   42CHL1    H3 4216   6.364   1.304   7.467  0.6109  0.5886  0.9282
   42CHL1    O3 4217   6.394   1.166   7.605 -0.2625 -1.1051 -0.1635
   42CHL1   H3' 4218   6.484   1.175   7.639 -0.7962  1.7958  0.7807
   42CHL1    C4 4219   6.343   1.100   7.378 -0.3963  0.5470  0.3351
   42CHL1   H4A 4220   6.372   0.996   7.404  1.2773  1.1416  0.9732
   42CHL1   H4B 4221   6.235   1.094   7.407  0.1018 -0.7132  2.0683
   42CHL1    C5 4222   6.361   1.131   7.234  0.0403  0.4087 -0.2026
   42CHL1    C6 4223   6.259   1.138   7.144 -0.1427 -0.1182 -0.3356
   42CHL1    H6 4224   6.158   1.121   7.184 -0.7248  3.0712 -0.1083
   42CHL1    C7 4225   6.280   1.155   6.995  0.7677 -1.1489 -0.5551
   42CHL1   H7A 4226   6.242   1.061   6.949 -0.1987 -1.7564  1.3843
   42CHL1   H7B 4227   6.219   1.240   6.960 -0.5082 -2.1324 -0.8025
   42CHL1    C8 4228   6.428   1.166   6.944 -0.3079 -0.9766  0.6479
   42CHL1    H8 4229   6.468   1.063   6.931 -0.7514 -0.8815 -2.1149
   42CHL1   C14 4230   6.438   1.241   6.811 -0.1285 -0.6785  0.3762
   42CHL1   H14 4231   6.387   1.337   6.832  1.4362  0.7899 -1.9640
   42CHL1   C15 4232   6.364   1.185   6.694  0.0616  0.2827  0.5544
   42CHL1  H15A 4233   6.396   1.081   6.676 -2.1320 -0.5629  1.1818
   42CHL1  H15B 4234   6.254   1.187   6.711  0.2441 -1.0828  2.1011
   42CHL1   C16 4235   6.405   1.257   6.570 -0.0396 -0.5693 -0.4435
   42CHL1  H16A 4236   6.426   1.184   6.489 -1.3433 -1.0810 -0.3404
   42CHL1  H16B 4237   6.339   1.345   6.553  0.5504  1.4243  5.2853
   42CHL1   C17 4238   6.537   1.327   6.615  0.2139 -0.8054  0.7059
   42CHL1   H17 4239   6.512   1.435   6.629  4.8846  0.8405 -1.3645
   42CHL1   C13 4240   6.577   1.273   6.750  0.4190  0.6469 -0.5421
   42CHL1   C18 4241   6.660   1.150   6.738  0.0950  0.4685  0.3967
   42CHL1  H18A 4242   6.639   1.083   6.825 -1.7413  0.1471 -0.2364
   42CHL1  H18B 4243   6.642   1.099   6.641  0.6920  1.3668 -0.1890
   42CHL1  H18C 4244   6.769   1.168   6.736  0.1802  0.3214  1.9362
   42CHL1   C12 4245   6.642   1.366   6.857  0.1115  0.7969 -0.5246
   42CHL1  H12A 4246   6.743   1.401   6.829  0.6413 -0.6386 -0.5064
   42CHL1  H12B 4247   6.575   1.452   6.878 -0.7756 -0.2434  1.1389
   42CHL1   C11 4248   6.645   1.301   6.991  0.0907  0.3459 -0.9269
   42CHL1  H11A 4249   6.729   1.229   7.005 -1.9632 -1.8967  0.8992
   42CHL1  H11B 4250   6.670   1.376   7.068  3.1197 -2.5165  1.0963
   42CHL1    C9 4251   6.508   1.244   7.048  0.1174 -0.3927  0.4065
   42CHL1    H9 4252   6.442   1.333   7.053 -2.2138 -1.9527 -0.5600
   42CHL1   C10 4253   6.506   1.181   7.189  0.8423  0.3223  0.5825
   42CHL1   C19 4254   6.585   1.048   7.180 -0.2309 -0.1280  0.3807
   42CHL1  H19A 4255   6.588   0.997   7.279  2.8985  1.7177  1.3759
   42CHL1  H19B 4256   6.535   0.983   7.105 -3.5018  1.3724  1.1077
   42CHL1  H19C 4257   6.691   1.069   7.155  0.0830 -0.8856  1.0138
   42CHL1    C1 4258   6.569   1.278   7.289  0.3033 -0.3685 -0.6891
   42CHL1   H1A 4259   6.676   1.291   7.263 -0.2069  0.9541 -2.2631
   42CHL1   H1B 4260   6.522   1.377   7.271  2.0107  0.0734 -3.3042
   42CHL1    C2 4261   6.555   1.233   7.431 -0.0358 -0.0188 -0.4963
   42CHL1   H2A 4262   6.597   1.311   7.498  2.4499 -0.8460 -0.9888
   42CHL1   H2B 4263   6.603   1.139   7.465  2.4308  2.3406  3.3394
   42CHL1   C20 4264   6.641   1.340   6.502 -0.2521 -0.1134 -0.5149
   42CHL1   H20 4265   6.682   1.240   6.476 -0.4266 -0.6815  1.2668
   42CHL1   C21 4266   6.754   1.435   6.559  0.0527 -0.1577  0.5256
   42CHL1  H21A 4267   6.821   1.390   6.635  0.1871 -0.1727  0.3990
   42CHL1  H21B 4268   6.725   1.535   6.598  0.6884 -0.6919  2.4747
   42CHL1  H21C 4269   6.827   1.448   6.476  1.7728 -0.5892  1.9144
   42CHL1   C22 4270   6.585   1.394   6.366  0.7211 -0.8502 -1.1630
   42CHL1  H22A 4271   6.516   1.313   6.333  1.1092 -0.6203 -2.6084
   42CHL1  H22B 4272   6.511   1.475   6.383  0.3626 -1.3531 -0.2618
   42CHL1   C23 4273   6.683   1.422   6.258  0.2206  0.6070  0.1828
   42CHL1  H23A 4274   6.738   1.516   6.281  0.5605  0.4810 -0.0934
   42CHL1  H23B 4275   6.740   1.328   6.241 -1.7670 -0.2528 -2.4918
   42CHL1   C24 4276   6.611   1.465   6.132  0.5441 -0.8017 -0.2683
   42CHL1  H24A 4277   6.518   1.410   6.111  0.3638 -0.4921 -0.2904
   42CHL1  H24B 4278   6.571   1.569   6.141 -0.4802 -1.0933 -1.3059
   42CHL1   C25 4279   6.707   1.474   6.014 -0.3484  0.2922  0.3775
   42CHL1   H25 4280   6.752   1.374   5.996  2.8581  1.3605  1.7489
   42CHL1   C26 4281   6.641   1.522   5.892 -0.2309 -0.1835 -0.1170
   42CHL1  H26A 4282   6.606   1.626   5.908  1.8213  0.3523  1.2237
   42CHL1  H26B 4283   6.714   1.532   5.808  0.4805  1.9509  0.7042
   42CHL1  H26C 4284   6.557   1.453   5.866  0.0921 -1.1059  1.2195
   42CHL1   C27 4285   6.836   1.555   6.049 -0.2235 -0.8057 -0.4947
   42CHL1  H27A 4286   6.884   1.506   6.136 -0.1622  0.1741  0.0341
   42CHL1  H27B 4287   6.912   1.581   5.972  0.8462 -0.2739  0.7072
   42CHL1  H27C 4288   6.796   1.649   6.093  2.3867  0.2151 -0.0826
   43CHL1    C3 4289   2.126   0.646   7.541  0.3905 -0.0379 -0.6557
   43CHL1    H3 4290   2.205   0.581   7.497  1.2758 -0.7528  1.8028
   43CHL1    O3 4291   2.124   0.621   7.680 -0.0572 -0.0404  0.0983
   43CHL1   H3' 4292   2.150   0.697   7.732 -2.4245 -0.5645  2.2618
   43CHL1    C4 4293   2.142   0.794   7.510 -0.4803  0.6470  0.2997
   43CHL1   H4A 4294   2.058   0.848   7.558  0.3081  1.7657  0.4654
   43CHL1   H4B 4295   2.239   0.828   7.551 -1.1322  0.7561  1.8328
   43CHL1    C5 4296   2.128   0.821   7.360 -0.0181 -0.0661 -0.1256
   43CHL1    C6 4297   2.225   0.879   7.285 -0.2326  0.5698 -0.3920
   43CHL1    H6 4298   2.323   0.894   7.333 -2.0678 -0.2741  4.1760
   43CHL1    C7 4299   2.205   0.909   7.137 -0.3164  0.0570 -0.0477
   43CHL1   H7A 4300   2.237   1.011   7.107  0.4623 -0.6720 -1.7946
   43CHL1   H7B 4301   2.271   0.842   7.078 -1.5821  1.2180 -3.0168
   43CHL1    C8 4302   2.062   0.902   7.081 -0.0869  0.2014  0.0073
   43CHL1    H8 4303   2.008   0.994   7.112 -0.5317 -0.4571  1.2395
   43CHL1   C14 4304   2.072   0.898   6.932  0.5681  0.4043  0.1402
   43CHL1   H14 4305   2.117   0.803   6.897  0.5814  0.4882 -0.0705
   43CHL1   C15 4306   2.148   1.013   6.855  0.1005  0.0189 -0.0473
   43CHL1  H15A 4307   2.129   1.116   6.891  0.0818 -0.3553  1.0637
   43CHL1  H15B 4308   2.255   0.992   6.877 -0.4429 -1.4227  1.5042
   43CHL1   C16 4309   2.095   1.004   6.709  0.4128 -0.0691  0.0360
   43CHL1  H16A 4310   2.071   1.102   6.664  0.6564 -0.6703 -1.4915
   43CHL1  H16B 4311   2.175   0.969   6.640  0.1850  0.8126 -0.6920
   43CHL1   C17 4312   1.974   0.906   6.716  0.9108  0.2227  0.6393
   43CHL1   H17 4313   2.010   0.804   6.690  0.6745  0.2070  0.3824
   43CHL1   C13 4314   1.931   0.902   6.868 -0.7085  0.1224  0.5965
   43CHL1   C18 4315   1.850   1.025   6.903 -0.6029 -0.9785 -0.2936
   43CHL1  H18A 4316   1.921   1.109   6.888  0.5870 -1.8146  0.4523
   43CHL1  H18B 4317   1.760   1.043   6.841 -0.6622 -0.5271 -0.0797
   43CHL1  H18C 4318   1.819   1.021   7.010  0.0835  0.2465 -0.0356
   43CHL1   C12 4319   1.853   0.774   6.915  0.6547  0.6655 -0.4645
   43CHL1  H12A 4320   1.748   0.770   6.879  0.1122 -2.2045  1.1791
   43CHL1  H12B 4321   1.917   0.691   6.877  2.3767  2.5946 -2.0911
   43CHL1   C11 4322   1.856   0.761   7.071  0.0611 -0.4171  0.8739
   43CHL1  H11A 4323   1.787   0.846   7.094 -0.6199 -0.2428 -1.6173
   43CHL1  H11B 4324   1.817   0.660   7.096 -1.9822  0.4323  1.3682
   43CHL1    C9 4325   1.996   0.778   7.133 -0.2449 -0.4177  0.3782
   43CHL1    H9 4326   2.047   0.686   7.097 -2.6500 -1.1808 -1.2814
   43CHL1   C10 4327   1.995   0.773   7.293  0.1165  0.1110  0.5315
   43CHL1   C19 4328   1.881   0.853   7.352 -0.1581 -0.1200  0.0011
   43CHL1  H19A 4329   1.881   0.835   7.461  0.7604  0.0525  0.0365
   43CHL1  H19B 4330   1.869   0.960   7.324 -3.7134 -0.9068 -2.1430
   43CHL1  H19C 4331   1.791   0.800   7.313  0.3726 -1.1226  0.0939
   43CHL1    C1 4332   1.973   0.621   7.329 -0.0453 -0.3765  0.6203
   43CHL1   H1A 4333   1.871   0.587   7.301  0.3862 -2.0709  0.9743
   43CHL1   H1B 4334   2.045   0.555   7.276 -0.3720 -2.9949  3.1743
   43CHL1    C2 4335   1.991   0.597   7.481 -0.0118  0.0156  0.5441
   43CHL1   H2A 4336   1.991   0.488   7.502  1.2686  0.0354  0.7141
   43CHL1   H2B 4337   1.900   0.635   7.532 -0.2971 -1.2380  1.0088
   43CHL1   C20 4338   1.858   0.939   6.612  0.9792 -0.7798  0.5047
   43CHL1   H20 4339   1.818   1.039   6.637  3.3066  0.3176  0.1425
   43CHL1   C21 4340   1.751   0.829   6.611 -0.5311  0.6942 -0.2203
   43CHL1  H21A 4341   1.687   0.854   6.523  0.0892  1.2251 -0.5247
   43CHL1  H21B 4342   1.692   0.834   6.705  2.6959 -1.1214  2.0562
   43CHL1  H21C 4343   1.794   0.727   6.607  0.1052  0.9270  0.5280
   43CHL1   C22 4344   1.913   0.958   6.472  0.4013  0.9316  0.3805
   43CHL1  H22A 4345   1.822   0.966   6.408  1.2723  0.1148 -0.9979
   43CHL1  H22B 4346   1.986   1.041   6.465  0.1858  1.0529 -0.5593
   43CHL1   C23 4347   1.992   0.836   6.410  0.7849  0.3758  0.0858
   43CHL1  H23A 4348   2.074   0.808   6.479  3.0917  0.8200 -2.3384
   43CHL1  H23B 4349   1.921   0.750   6.402 -1.3958  2.0416  0.4547
   43CHL1   C24 4350   2.043   0.863   6.273  0.5996  0.8534 -0.2054
   43CHL1  H24A 4351   2.066   0.767   6.222 -2.1962  1.0138 -1.9810
   43CHL1  H24B 4352   1.963   0.917   6.218 -0.5559 -0.4585  0.1472
   43CHL1   C25 4353   2.167   0.955   6.279  0.2992 -0.0002 -0.4744
   43CHL1   H25 4354   2.157   1.018   6.369 -0.0674 -2.5759  1.4018
   43CHL1   C26 4355   2.303   0.884   6.318  0.4628 -1.3445 -0.4966
   43CHL1  H26A 4356   2.346   0.823   6.236  0.8303  0.5059 -1.7525
   43CHL1  H26B 4357   2.376   0.965   6.340 -1.0736  0.0624 -0.3642
   43CHL1  H26C 4358   2.282   0.833   6.414 -0.3141  0.5455  0.3999
   43CHL1   C27 4359   2.167   1.038   6.151  0.2725 -0.0863  0.7530
   43CHL1  H27A 4360   2.071   1.089   6.130 -0.4645 -1.5876  0.3536
   43CHL1  H27B 4361   2.246   1.115   6.163 -0.6741  1.1210 -0.5361
   43CHL1  H27C 4362   2.184   0.979   6.059 -0.9655  1.0477 -0.2321
   44CHL1    C3 4363   1.445   3.043   7.706 -1.0421  0.3335  1.0445
   44CHL1    H3 4364   1.357   3.014   7.644  0.4587  1.0635 -1.5911
   44CHL1    O3 4365   1.401   3.055   7.835 -0.0751 -0.6000 -0.2049
   44CHL1   H3' 4366   1.324   3.112   7.833 -0.0893 -0.6218 -1.1159
   44CHL1    C4 4367   1.568   2.952   7.694  0.3325 -0.1366 -0.8955
   44CHL1   H4A 4368   1.650   2.995   7.756  1.3172  0.5143 -2.5682
   44CHL1   H4B 4369   1.554   2.858   7.752  1.5622  0.4961  0.5125
   44CHL1    C5 4370   1.618   2.941   7.548  0.0221 -0.4793  0.9483
   44CHL1    C6 4371   1.638   2.823   7.483 -0.0692  0.0345  0.4118
   44CHL1    H6 4372   1.623   2.729   7.537  2.5576 -1.8078 -1.7580
   44CHL1    C7 4373   1.697   2.801   7.348 -0.0005  0.5086  0.6550
   44CHL1   H7A 4374   1.783   2.731   7.352 -0.6385 -0.2572  0.9612
   44CHL1   H7B 4375   1.624   2.747   7.285 -0.5557  1.2910  0.6078
   44CHL1    C8 4376   1.744   2.933   7.276  1.1161  0.4472  0.4173
   44CHL1    H8 4377   1.849   2.951   7.306  1.5013 -2.5069  1.1567
   44CHL1   C14 4378   1.744   2.913   7.125 -0.4453 -0.4976 -0.2346
   44CHL1   H14 4379   1.644   2.883   7.090 -1.2698 -0.8157  2.1933
   44CHL1   C15 4380   1.837   2.805   7.076  0.0996  0.0002  0.3699
   44CHL1  H15A 4381   1.939   2.835   7.110  0.0228  2.6757 -1.4944
   44CHL1  H15B 4382   1.805   2.699   7.089 -0.9117  0.3408  0.7492
   44CHL1   C16 4383   1.835   2.829   6.925 -0.0503 -0.4812  0.2494
   44CHL1  H16A 4384   1.935   2.831   6.876 -0.3865  0.3857 -0.4284
   44CHL1  H16B 4385   1.777   2.758   6.861 -0.0889  1.7017 -2.3183
   44CHL1   C17 4386   1.770   2.973   6.902 -0.2670 -0.5476  0.4138
   44CHL1   H17 4387   1.664   2.962   6.872 -0.0852  1.9992 -1.4986
   44CHL1   C13 4388   1.774   3.036   7.043  0.4968  0.2904  0.2987
   44CHL1   C18 4389   1.920   3.082   7.075 -0.6864 -0.1058  0.5921
   44CHL1  H18A 4390   1.919   3.109   7.183 -1.6315  1.6622  0.1756
   44CHL1  H18B 4391   2.002   3.011   7.052 -0.3465  0.6600 -0.6642
   44CHL1  H18C 4392   1.937   3.176   7.017  1.0157  0.7196  2.3177
   44CHL1   C12 4393   1.666   3.142   7.068  0.4796  0.5053 -0.8900
   44CHL1  H12A 4394   1.676   3.242   7.022 -0.9539  2.2355  2.2639
   44CHL1  H12B 4395   1.565   3.104   7.043  1.0424 -3.6151  2.0409
   44CHL1   C11 4396   1.673   3.169   7.224 -0.3334 -0.5683  0.0426
   44CHL1  H11A 4397   1.777   3.201   7.245 -0.8457  2.7552 -1.7324
   44CHL1  H11B 4398   1.592   3.244   7.235 -1.5723 -1.9451  0.7479
   44CHL1    C9 4399   1.645   3.049   7.313 -0.4304  0.0031 -0.5476
   44CHL1    H9 4400   1.547   3.005   7.285 -0.1955 -2.4251  2.0808
   44CHL1   C10 4401   1.638   3.075   7.472 -0.7884  0.0750 -0.1918
   44CHL1   C19 4402   1.765   3.138   7.524 -0.6007 -0.6846 -0.2432
   44CHL1  H19A 4403   1.841   3.057   7.525 -0.3203 -0.4564 -1.5876
   44CHL1  H19B 4404   1.805   3.218   7.460 -4.5607  2.0022  0.2551
   44CHL1  H19C 4405   1.757   3.183   7.625  2.1403 -0.0790 -0.2206
   44CHL1    C1 4406   1.523   3.173   7.504  0.3272  0.7379  0.0874
   44CHL1   H1A 4407   1.553   3.272   7.466 -0.5566  1.5777  1.4693
   44CHL1   H1B 4408   1.440   3.124   7.449  0.8295  1.1422 -1.0397
   44CHL1    C2 4409   1.473   3.181   7.645  0.1798  0.5503  0.5940
   44CHL1   H2A 4410   1.393   3.257   7.659 -4.3524 -3.0627 -2.8296
   44CHL1   H2B 4411   1.558   3.231   7.697  1.8394  0.1778 -1.6056
   44CHL1   C20 4412   1.851   3.051   6.786 -0.3172  0.1206 -0.2455
   44CHL1   H20 4413   1.952   3.066   6.829 -0.8939 -0.4345  1.3690
   44CHL1   C21 4414   1.770   3.180   6.759  0.4167  0.1687 -0.0246
   44CHL1  H21A 4415   1.732   3.191   6.655  1.6059 -0.0142 -0.4918
   44CHL1  H21B 4416   1.823   3.271   6.792 -0.7943  1.1579 -0.7054
   44CHL1  H21C 4417   1.675   3.180   6.817 -0.5843 -1.6818 -1.5518
   44CHL1   C22 4418   1.871   2.974   6.654  0.0578  0.2101 -0.1878
   44CHL1  H22A 4419   1.927   2.884   6.688 -1.4535 -0.9689 -0.7064
   44CHL1  H22B 4420   1.772   2.938   6.619 -0.3566  1.0090  0.1557
   44CHL1   C23 4421   1.939   3.042   6.538 -0.0400 -0.6560 -0.6695
   44CHL1  H23A 4422   1.881   3.131   6.505  2.7194  1.5052 -0.0633
   44CHL1  H23B 4423   2.037   3.085   6.569 -0.7497 -0.3851  1.3388
   44CHL1   C24 4424   1.964   2.947   6.417  0.3173 -0.0517 -0.2870
   44CHL1  H24A 4425   2.024   2.856   6.441  1.2306  0.4515 -0.6150
   44CHL1  H24B 4426   1.860   2.920   6.389 -0.5351  1.6989  1.0067
   44CHL1   C25 4427   2.032   3.013   6.299  0.0627 -0.3384  0.1252
   44CHL1   H25 4428   2.133   3.042   6.335 -0.8386 -0.7178  3.2753
   44CHL1   C26 4429   2.051   2.911   6.187  0.1262  0.0541 -0.2003
   44CHL1  H26A 4430   2.123   2.951   6.112  0.8866 -0.8132  0.0565
   44CHL1  H26B 4431   2.089   2.813   6.222 -1.5441 -0.6891 -0.4018
   44CHL1  H26C 4432   1.954   2.904   6.133  1.2556  0.5722 -2.3967
   44CHL1   C27 4433   1.984   3.142   6.238 -0.2208  0.5325  0.0039
   44CHL1  H27A 4434   1.879   3.121   6.206 -0.1778  0.4802 -0.1044
   44CHL1  H27B 4435   1.984   3.217   6.319 -1.0366 -0.2902  0.7918
   44CHL1  H27C 4436   2.037   3.188   6.152 -1.1289  2.2913  0.3420
   45CHL1    C3 4437   1.190   5.213   7.568  0.5308 -0.4287  1.0358
   45CHL1    H3 4438   1.138   5.116   7.558  0.1984 -0.1598 -0.0475
   45CHL1    O3 4439   1.205   5.232   7.708 -0.3074  0.1797 -0.0841
   45CHL1   H3' 4440   1.235   5.323   7.705 -2.3277  1.2085  3.9317
   45CHL1    C4 4441   1.325   5.209   7.496  0.0141 -0.1164  0.9547
   45CHL1   H4A 4442   1.387   5.295   7.530 -1.5069  0.4735  2.3913
   45CHL1   H4B 4443   1.365   5.111   7.530 -1.9396 -1.2172  0.2188
   45CHL1    C5 4444   1.311   5.219   7.343 -0.7345  0.8453  0.0691
   45CHL1    C6 4445   1.364   5.123   7.258  0.9177 -0.5915 -0.2966
   45CHL1    H6 4446   1.425   5.041   7.297  0.2784 -1.2032 -0.5571
   45CHL1    C7 4447   1.355   5.136   7.107  0.7764 -0.3101 -0.6490
   45CHL1   H7A 4448   1.448   5.105   7.055  2.3193 -0.1620  1.8680
   45CHL1   H7B 4449   1.275   5.071   7.068 -0.6120  1.1301 -0.3107
   45CHL1    C8 4450   1.317   5.279   7.053  0.2796  0.6788  0.3967
   45CHL1    H8 4451   1.411   5.335   7.069  0.4753  0.3533  0.3977
   45CHL1   C14 4452   1.274   5.272   6.908 -0.4649 -0.2078  0.4556
   45CHL1   H14 4453   1.179   5.216   6.901 -0.0200 -1.2010  1.8663
   45CHL1   C15 4454   1.360   5.193   6.809  0.1086  0.5202 -0.0924
   45CHL1  H15A 4455   1.470   5.207   6.818  0.2692 -1.0449  0.8803
   45CHL1  H15B 4456   1.349   5.082   6.816  2.3812  0.1850 -0.9892
   45CHL1   C16 4457   1.315   5.252   6.669 -1.2240 -0.7342  0.0380
   45CHL1  H16A 4458   1.409   5.281   6.617 -0.9971 -0.5464  0.5414
   45CHL1  H16B 4459   1.262   5.172   6.613  0.0393 -1.4461 -0.1697
   45CHL1   C17 4460   1.225   5.373   6.698  0.7504 -0.3926 -0.4585
   45CHL1   H17 4461   1.120   5.335   6.701  0.6581 -0.7323 -3.7886
   45CHL1   C13 4462   1.242   5.409   6.846  0.1867 -0.3125 -0.4624
   45CHL1   C18 4463   1.363   5.507   6.870  0.1307 -0.9871 -0.6577
   45CHL1  H18A 4464   1.383   5.525   6.978 -0.2407  1.6139 -0.9698
   45CHL1  H18B 4465   1.460   5.473   6.827  0.3064  0.9256 -1.8751
   45CHL1  H18C 4466   1.332   5.600   6.818 -0.7363 -2.1807 -2.3428
   45CHL1   C12 4467   1.116   5.453   6.927 -0.3565 -0.7214  0.8998
   45CHL1  H12A 4468   1.078   5.557   6.918  2.1415  0.4317  2.6247
   45CHL1  H12B 4469   1.038   5.375   6.911 -1.2234  0.3042 -0.1065
   45CHL1   C11 4470   1.142   5.459   7.082 -0.2657 -0.3922  0.3111
   45CHL1  H11A 4471   1.222   5.535   7.094  0.7210 -0.7890 -2.8240
   45CHL1  H11B 4472   1.049   5.498   7.127  1.4634  0.9749  2.9987
   45CHL1    C9 4473   1.198   5.327   7.136  0.2627 -0.2316  0.6128
   45CHL1    H9 4474   1.121   5.248   7.119 -0.3600  1.0096 -3.2601
   45CHL1   C10 4475   1.219   5.327   7.289 -0.4299  0.3360  0.4969
   45CHL1   C19 4476   1.296   5.461   7.320 -0.3819 -0.1538 -1.1263
   45CHL1  H19A 4477   1.403   5.465   7.289  0.0777 -0.0952  0.3806
   45CHL1  H19B 4478   1.248   5.559   7.297  1.3141  0.7105 -1.1681
   45CHL1  H19C 4479   1.299   5.460   7.431 -2.2114 -0.0282 -1.0413
   45CHL1    C1 4480   1.083   5.310   7.356  0.6201  0.1677 -0.8518
   45CHL1   H1A 4481   1.009   5.393   7.344  0.0281 -0.1207  0.5433
   45CHL1   H1B 4482   1.028   5.218   7.327 -1.0716  1.1725 -0.9991
   45CHL1    C2 4483   1.095   5.321   7.509 -0.6561  0.3972 -0.4335
   45CHL1   H2A 4484   0.998   5.297   7.557 -0.2724  2.7277  1.6639
   45CHL1   H2B 4485   1.129   5.424   7.533  1.4882 -0.4937  0.6522
   45CHL1   C20 4486   1.238   5.486   6.598  0.0569 -0.6202 -0.2210
   45CHL1   H20 4487   1.337   5.537   6.608  1.1957 -3.0676  2.8129
   45CHL1   C21 4488   1.124   5.586   6.617 -0.4712 -0.3683  0.0894
   45CHL1  H21A 4489   1.134   5.667   6.542 -1.9184 -0.0230  0.2402
   45CHL1  H21B 4490   1.111   5.630   6.718 -3.2854  0.5302 -0.5962
   45CHL1  H21C 4491   1.024   5.545   6.595 -0.3342 -1.0564  0.6911
   45CHL1   C22 4492   1.227   5.438   6.454  0.1042  0.0180  0.2709
   45CHL1  H22A 4493   1.219   5.530   6.391  1.8514 -1.0507 -1.6215
   45CHL1  H22B 4494   1.317   5.376   6.436 -0.3399 -0.7504  0.6336
   45CHL1   C23 4495   1.107   5.345   6.423  0.4202 -0.0455 -0.2055
   45CHL1  H23A 4496   1.111   5.265   6.500  0.0601  0.1510  0.0234
   45CHL1  H23B 4497   1.011   5.398   6.443 -0.0636 -1.2109  0.7719
   45CHL1   C24 4498   1.107   5.278   6.287  0.3452 -0.3104 -0.1863
   45CHL1  H24A 4499   1.169   5.321   6.206 -0.3102 -0.4132 -0.7590
   45CHL1  H24B 4500   1.145   5.174   6.298  0.2663 -0.2947  0.2721
   45CHL1   C25 4501   0.966   5.255   6.220  0.2874 -0.5462 -0.1746
   45CHL1   H25 4502   0.907   5.199   6.296  0.9907  2.2587  2.6511
   45CHL1   C26 4503   0.900   5.393   6.196  0.1415  0.2932  0.3483
   45CHL1  H26A 4504   0.804   5.390   6.140  1.5899  2.4909 -2.5252
   45CHL1  H26B 4505   0.875   5.444   6.291 -3.6664 -2.3535  0.9896
   45CHL1  H26C 4506   0.968   5.456   6.134  0.1049  1.0684  1.0718
   45CHL1   C27 4507   0.980   5.178   6.086  0.1695  0.2117  0.6738
   45CHL1  H27A 4508   1.050   5.216   6.009 -1.8593  0.6720 -1.0504
   45CHL1  H27B 4509   1.016   5.074   6.104  1.5418  0.5880  0.2345
   45CHL1  H27C 4510   0.885   5.168   6.029  1.0244  0.1556 -0.7877
   46CHL1    C3 4511   4.209   5.952   7.412 -0.0331 -0.0533  0.1131
   46CHL1    H3 4512   4.099   5.966   7.400 -0.2120 -0.0718  1.5937
   46CHL1    O3 4513   4.228   5.938   7.549  0.2025  0.2481 -0.2766
   46CHL1   H3' 4514   4.322   5.947   7.567 -0.0778  1.1422  0.8884
   46CHL1    C4 4515   4.265   5.828   7.335 -0.3179 -0.1304 -0.7799
   46CHL1   H4A 4516   4.364   5.825   7.386 -0.5404  0.8573 -0.2515
   46CHL1   H4B 4517   4.203   5.747   7.379  1.7435 -1.2453  0.2127
   46CHL1    C5 4518   4.275   5.823   7.185  0.9362  0.2665 -0.2755
   46CHL1    C6 4519   4.222   5.727   7.114 -0.4061 -0.4071 -0.2411
   46CHL1    H6 4520   4.175   5.648   7.174  0.7429 -0.2316  0.9199
   46CHL1    C7 4521   4.233   5.717   6.968  0.2121  0.0642  0.1524
   46CHL1   H7A 4522   4.290   5.627   6.934  0.5760  0.8864 -1.5676
   46CHL1   H7B 4523   4.131   5.707   6.927  0.5487  2.5664 -1.5281
   46CHL1    C8 4524   4.304   5.845   6.905 -0.2741 -0.1044 -0.0365
   46CHL1    H8 4525   4.411   5.814   6.898 -0.0277 -0.6899  3.8481
   46CHL1   C14 4526   4.260   5.867   6.760 -0.8236 -0.2641 -0.0374
   46CHL1   H14 4527   4.157   5.906   6.778  0.0170  2.1585 -0.1898
   46CHL1   C15 4528   4.250   5.745   6.672  0.5750 -0.2008  0.0685
   46CHL1  H15A 4529   4.337   5.679   6.695  1.1687  0.6775  0.4230
   46CHL1  H15B 4530   4.158   5.684   6.681  0.4768 -0.2427 -1.0502
   46CHL1   C16 4531   4.238   5.806   6.532 -0.8457  0.0278 -0.0544
   46CHL1  H16A 4532   4.329   5.756   6.492  0.7456  0.7265  2.4655
   46CHL1  H16B 4533   4.152   5.773   6.470 -0.8017  1.2881 -0.8250
   46CHL1   C17 4534   4.251   5.965   6.550  0.6594 -0.0756 -0.5349
   46CHL1   H17 4535   4.150   6.004   6.575  1.7194  1.6028  1.5023
   46CHL1   C13 4536   4.331   5.978   6.682  0.9243 -0.6547 -0.7294
   46CHL1   C18 4537   4.480   5.948   6.662 -0.1641 -0.7065  0.9792
   46CHL1  H18A 4538   4.534   6.035   6.618 -1.5405  0.7692  2.0849
   46CHL1  H18B 4539   4.532   5.938   6.760  0.0763 -0.2108  0.9068
   46CHL1  H18C 4540   4.495   5.846   6.620 -4.3448 -0.6469 -1.1113
   46CHL1   C12 4541   4.309   6.109   6.762  0.8635  0.6103 -0.7315
   46CHL1  H12A 4542   4.357   6.198   6.717 -1.2629  2.5733  0.6194
   46CHL1  H12B 4543   4.199   6.129   6.767 -0.0216 -3.6744  0.3621
   46CHL1   C11 4544   4.358   6.094   6.906  0.2716  0.2108  0.5390
   46CHL1  H11A 4545   4.468   6.094   6.917  0.4911  0.2672 -1.3062
   46CHL1  H11B 4546   4.330   6.185   6.962 -0.5490 -0.5983  1.4888
   46CHL1    C9 4547   4.298   5.971   6.981  0.0185 -0.3347  0.6877
   46CHL1    H9 4548   4.190   5.997   6.988 -0.1738 -1.2302  1.1486
   46CHL1   C10 4549   4.334   5.957   7.132  0.4922 -0.0770 -0.0031
   46CHL1   C19 4550   4.482   5.947   7.155 -0.7772  0.2966  0.0719
   46CHL1  H19A 4551   4.526   6.046   7.131 -0.2572 -0.1975 -1.1113
   46CHL1  H19B 4552   4.513   5.912   7.255 -1.6258  0.2589  0.3318
   46CHL1  H19C 4553   4.530   5.875   7.086  0.8325  0.6892  0.7452
   46CHL1    C1 4554   4.261   6.076   7.201 -0.4967 -0.0065  0.4317
   46CHL1   H1A 4555   4.300   6.171   7.159 -3.1274  1.6245  1.4017
   46CHL1   H1B 4556   4.155   6.080   7.169  0.2261 -0.1659 -2.2487
   46CHL1    C2 4557   4.274   6.080   7.357  0.1773 -0.0725  0.0608
   46CHL1   H2A 4558   4.226   6.169   7.402  1.6002  0.3063  0.8676
   46CHL1   H2B 4559   4.377   6.097   7.394 -0.4050  2.2043  0.7939
   46CHL1   C20 4560   4.300   6.051   6.438 -0.0220 -0.1458  0.8912
   46CHL1   H20 4561   4.358   6.139   6.473  0.0281  0.1222  0.1416
   46CHL1   C21 4562   4.168   6.092   6.362 -0.1389 -0.5387 -0.3011
   46CHL1  H21A 4563   4.089   6.133   6.429 -1.6790 -0.7571 -1.8942
   46CHL1  H21B 4564   4.140   5.995   6.316 -0.0405 -1.3658  1.3071
   46CHL1  H21C 4565   4.187   6.174   6.290  0.5160  1.2947  1.8446
   46CHL1   C22 4566   4.405   5.973   6.338  0.0047 -0.0306  0.1801
   46CHL1  H22A 4567   4.467   5.897   6.389 -0.6165 -2.6050 -2.5897
   46CHL1  H22B 4568   4.339   5.920   6.266  0.2714  2.8413 -2.3780
   46CHL1   C23 4569   4.503   6.074   6.275  0.2907  0.3016 -0.0218
   46CHL1  H23A 4570   4.439   6.141   6.213 -1.3553 -0.9040  0.3083
   46CHL1  H23B 4571   4.554   6.132   6.355 -0.9127 -0.2552  1.1842
   46CHL1   C24 4572   4.604   5.999   6.187  0.1626 -0.2868  0.7786
   46CHL1  H24A 4573   4.669   6.077   6.142  1.3054 -0.3733  2.2223
   46CHL1  H24B 4574   4.666   5.927   6.243 -1.3079 -1.4832  0.9381
   46CHL1   C25 4575   4.539   5.926   6.071 -0.4275 -0.3226 -0.3725
   46CHL1   H25 4576   4.441   5.883   6.101  0.4864 -1.5196  1.0428
   46CHL1   C26 4577   4.525   6.010   5.945 -0.4832  0.7399 -0.7613
   46CHL1  H26A 4578   4.625   6.045   5.915  1.2519 -1.6865  1.6766
   46CHL1  H26B 4579   4.501   5.942   5.861  0.9548  0.6728 -1.1432
   46CHL1  H26C 4580   4.447   6.087   5.964 -0.2846  1.1584 -1.6168
   46CHL1   C27 4581   4.620   5.801   6.040 -0.1866 -0.5372 -0.5960
   46CHL1  H27A 4582   4.730   5.813   6.031 -0.0425 -0.9947  0.4733
   46CHL1  H27B 4583   4.593   5.723   6.114  1.1926 -0.6684 -0.2058
   46CHL1  H27C 4584   4.574   5.749   5.954 -1.3336 -1.1324  0.3501
   47CHL1    C3 4585   3.801   3.865   7.168 -0.6848  0.5575  0.6854
   47CHL1    H3 4586   3.711   3.926   7.190 -0.2773  1.0127  1.0976
   47CHL1    O3 4587   3.849   3.798   7.280 -0.5176  0.0317  0.1872
   47CHL1   H3' 4588   3.781   3.731   7.293 -2.6927  1.9207 -0.7880
   47CHL1    C4 4589   3.785   3.755   7.058  0.4865  0.1341 -0.4211
   47CHL1   H4A 4590   3.880   3.698   7.057  2.1556  2.7336 -0.7321
   47CHL1   H4B 4591   3.699   3.695   7.094 -0.1495  0.7775 -0.8457
   47CHL1    C5 4592   3.764   3.811   6.917 -0.0839 -0.6258 -0.6465
   47CHL1    C6 4593   3.671   3.760   6.837  0.7573  0.1197  0.1339
   47CHL1    H6 4594   3.613   3.673   6.870  2.3605 -1.5143 -1.1161
   47CHL1    C7 4595   3.648   3.811   6.699  0.2927  0.1395  0.6025
   47CHL1   H7A 4596   3.642   3.723   6.631  1.8059 -1.1786  2.0766
   47CHL1   H7B 4597   3.550   3.863   6.692  0.0377 -0.2728  0.9935
   47CHL1    C8 4598   3.762   3.901   6.643 -0.8562 -0.0793 -0.0947
   47CHL1    H8 4599   3.848   3.838   6.610 -0.5521  0.0844  0.3842
   47CHL1   C14 4600   3.715   3.967   6.518 -0.5230  0.3506  0.7982
   47CHL1   H14 4601   3.626   4.020   6.558 -1.2818 -2.1021  2.7044
   47CHL1   C15 4602   3.666   3.879   6.399 -0.5279  0.7816 -0.1167
   47CHL1  H15A 4603   3.738   3.800   6.369 -0.2445  1.7954 -2.3046
   47CHL1  H15B 4604   3.567   3.829   6.411 -0.1993  0.4243  1.3106
   47CHL1   C16 4605   3.676   3.983   6.281  0.2168  0.1611 -0.1138
   47CHL1  H16A 4606   3.742   3.930   6.209  1.2923 -0.6169  1.3838
   47CHL1  H16B 4607   3.576   3.989   6.235 -0.4298 -0.9350  1.0930
   47CHL1   C17 4608   3.728   4.110   6.344 -0.7136 -0.6983 -0.3312
   47CHL1   H17 4609   3.647   4.165   6.396  0.8828  1.2342  0.2707
   47CHL1   C13 4610   3.810   4.067   6.465  0.4054  0.3677  0.4148
   47CHL1   C18 4611   3.939   3.997   6.414  0.0590 -0.4787 -0.1011
   47CHL1  H18A 4612   3.931   3.905   6.352  2.0199 -1.5214  1.0955
   47CHL1  H18B 4613   3.999   4.063   6.348  1.4251 -1.3502  0.2303
   47CHL1  H18C 4614   3.997   3.954   6.498 -1.3530 -1.2951  0.5016
   47CHL1   C12 4615   3.838   4.176   6.567  0.6064  0.4764 -0.1096
   47CHL1  H12A 4616   3.900   4.258   6.525 -0.0957  1.6206  1.0236
   47CHL1  H12B 4617   3.742   4.217   6.605  0.8868  2.0047 -0.9651
   47CHL1   C11 4618   3.909   4.113   6.689  0.2307  0.1094 -0.0385
   47CHL1  H11A 4619   4.006   4.065   6.663 -0.1711 -1.0608  0.5474
   47CHL1  H11B 4620   3.918   4.195   6.763 -1.4883  0.7475 -0.4869
   47CHL1    C9 4621   3.812   4.004   6.748  0.1294  0.3974  0.0692
   47CHL1    H9 4622   3.716   4.054   6.771  0.6220  1.7550 -0.7035
   47CHL1   C10 4623   3.861   3.931   6.878 -0.2187  0.3221 -0.8020
   47CHL1   C19 4624   4.005   3.871   6.855  0.5489 -0.0440 -0.1020
   47CHL1  H19A 4625   4.031   3.793   6.930 -1.7911 -0.2281  0.6082
   47CHL1  H19B 4626   4.014   3.820   6.757  0.5384  2.1109 -1.2869
   47CHL1  H19C 4627   4.076   3.956   6.871 -1.2902  1.5901 -0.2593
   47CHL1    C1 4628   3.867   4.040   6.991  0.4758  0.1920  0.2191
   47CHL1   H1A 4629   3.939   4.119   6.961  0.6629  0.1628  0.5812
   47CHL1   H1B 4630   3.769   4.092   6.992  0.0742 -0.5563  1.6258
   47CHL1    C2 4631   3.903   3.978   7.130 -0.3059  0.3719  0.3922
   47CHL1   H2A 4632   3.898   4.063   7.202  1.1444  1.3915 -0.6391
   47CHL1   H2B 4633   4.007   3.937   7.132  0.2242  1.6429 -0.1422
   47CHL1   C20 4634   3.782   4.214   6.234  0.2055  0.0972  0.3050
   47CHL1   H20 4635   3.858   4.277   6.284  0.5747  1.5050 -1.8933
   47CHL1   C21 4636   3.658   4.309   6.207  0.1469  0.3984 -0.4706
   47CHL1  H21A 4637   3.578   4.242   6.168  0.3550  0.7635 -1.5378
   47CHL1  H21B 4638   3.669   4.388   6.130  1.5498  0.2463 -0.4423
   47CHL1  H21C 4639   3.627   4.359   6.302 -1.0651 -2.0680  0.5253
   47CHL1   C22 4640   3.841   4.165   6.101 -0.0117  0.6680 -0.1792
   47CHL1  H22A 4641   3.924   4.095   6.123  0.9969  1.9959  0.3776
   47CHL1  H22B 4642   3.758   4.108   6.054  2.3311 -1.2362 -2.3082
   47CHL1   C23 4643   3.898   4.286   6.024  0.1525 -0.0209 -1.0025
   47CHL1  H23A 4644   3.819   4.363   6.014  1.2866  1.5322  1.1463
   47CHL1  H23B 4645   3.971   4.327   6.097 -0.7598  0.0047 -0.0843
   47CHL1   C24 4646   3.963   4.264   5.886 -0.1667  0.1768  0.7895
   47CHL1  H24A 4647   4.020   4.169   5.894  0.0102  0.0670 -1.2357
   47CHL1  H24B 4648   3.880   4.253   5.812  1.1335 -0.8959 -0.5862
   47CHL1   C25 4649   4.074   4.367   5.837  0.2911 -0.7262  0.5155
   47CHL1   H25 4650   4.146   4.347   5.919 -1.1282  1.6163  2.4968
   47CHL1   C26 4651   4.129   4.329   5.696  0.1015 -1.1037 -0.5264
   47CHL1  H26A 4652   4.144   4.219   5.694  0.7929 -1.0168 -0.6747
   47CHL1  H26B 4653   4.058   4.367   5.620  1.1071  0.1296 -0.8812
   47CHL1  H26C 4654   4.220   4.387   5.669 -1.4313  0.1084 -3.5012
   47CHL1   C27 4655   4.036   4.511   5.851  0.3061 -0.7155  0.5745
   47CHL1  H27A 4656   3.967   4.532   5.935  0.0102  1.5037 -0.1614
   47CHL1  H27B 4657   4.113   4.590   5.840 -2.2771  1.9228  0.3470
   47CHL1  H27C 4658   3.968   4.536   5.766  0.5179  0.6954  0.8054
   48CHL1    C3 4659   0.833   4.819   7.456  0.2097 -0.2986 -0.5727
   48CHL1    H3 4660   0.862   4.727   7.401  2.8998 -0.1961  0.5446
   48CHL1    O3 4661   0.849   4.779   7.586  0.0202  0.2773 -0.3030
   48CHL1   H3' 4662   0.850   4.857   7.643  1.1379  0.9467 -1.1750
   48CHL1    C4 4663   0.934   4.930   7.413  0.1006 -0.2765  0.3993
   48CHL1   H4A 4664   0.918   5.018   7.479  0.5199  0.6901 -0.7553
   48CHL1   H4B 4665   1.039   4.895   7.421  0.8077  0.3826 -3.9644
   48CHL1    C5 4666   0.913   4.965   7.268  0.1213  0.1189  0.1719
   48CHL1    C6 4667   1.001   4.948   7.170  0.0998 -0.3135  0.4812
   48CHL1    H6 4668   1.092   4.896   7.204 -1.5458 -2.6732  1.4995
   48CHL1    C7 4669   0.972   4.979   7.031  0.0180  0.0670  0.5773
   48CHL1   H7A 4670   1.056   5.039   6.990 -0.4077  0.7284  0.6609
   48CHL1   H7B 4671   0.955   4.889   6.968  1.5579 -1.0660  1.7271
   48CHL1    C8 4672   0.848   5.073   7.007 -0.1091  0.3542  0.6415
   48CHL1    H8 4673   0.867   5.175   7.046  1.1152  0.8959 -1.2367
   48CHL1   C14 4674   0.818   5.069   6.857  1.2160 -0.7533  0.0752
   48CHL1   H14 4675   0.804   4.962   6.833  0.5630 -0.4686 -0.8538
   48CHL1   C15 4676   0.925   5.116   6.755 -0.3848  0.6509 -0.0614
   48CHL1  H15A 4677   0.970   5.214   6.783 -0.5100  0.2660  1.6094
   48CHL1  H15B 4678   1.010   5.044   6.754 -0.7556  0.1664  1.2411
   48CHL1   C16 4679   0.844   5.134   6.623  0.0736 -0.1391 -0.3306
   48CHL1  H16A 4680   0.863   5.233   6.576  1.9100 -0.3886 -0.1566
   48CHL1  H16B 4681   0.868   5.052   6.553 -2.2667 -2.4107  1.2948
   48CHL1   C17 4682   0.694   5.114   6.666 -0.4279  0.2909 -0.1733
   48CHL1   H17 4683   0.665   5.008   6.652 -0.7717  0.2448  0.7640
   48CHL1   C13 4684   0.689   5.142   6.822  0.3396 -0.5172  0.7202
   48CHL1   C18 4685   0.699   5.293   6.840  0.3284  0.1403 -0.2900
   48CHL1  H18A 4686   0.736   5.310   6.943 -1.4130  0.3759  0.3313
   48CHL1  H18B 4687   0.763   5.347   6.767 -0.7451  0.9019 -0.7102
   48CHL1  H18C 4688   0.598   5.340   6.840  1.0687  1.8825  1.2067
   48CHL1   C12 4689   0.574   5.068   6.894  0.0461 -0.3664  0.6840
   48CHL1  H12A 4690   0.478   5.115   6.866  1.5148  1.3220 -1.8891
   48CHL1  H12B 4691   0.562   4.960   6.871  2.7525 -0.7020  0.4782
   48CHL1   C11 4692   0.600   5.072   7.047  0.0247 -0.1635 -0.7448
   48CHL1  H11A 4693   0.610   5.179   7.075  0.0661 -0.0941 -1.0302
   48CHL1  H11B 4694   0.508   5.033   7.096 -0.5508  1.0335 -0.8577
   48CHL1    C9 4695   0.736   5.009   7.089  0.1003  0.4084  0.2314
   48CHL1    H9 4696   0.730   4.901   7.062  1.4119  0.4792 -0.3874
   48CHL1   C10 4697   0.769   5.007   7.242 -1.0110 -0.1013 -0.2592
   48CHL1   C19 4698   0.750   5.148   7.305 -0.0191 -0.0871 -0.0745
   48CHL1  H19A 4699   0.643   5.171   7.287 -1.0945 -3.7789  0.8674
   48CHL1  H19B 4700   0.766   5.154   7.415  3.9411 -1.4354 -0.3950
   48CHL1  H19C 4701   0.821   5.219   7.257 -0.1778 -1.6928 -2.9220
   48CHL1    C1 4702   0.661   4.911   7.305  0.3613 -0.3048  0.1297
   48CHL1   H1A 4703   0.560   4.958   7.301 -0.0215 -1.1804 -1.4725
   48CHL1   H1B 4704   0.652   4.818   7.245 -2.8978  0.2221 -0.3840
   48CHL1    C2 4705   0.692   4.870   7.446  0.3560  1.0015 -0.3441
   48CHL1   H2A 4706   0.623   4.792   7.485 -0.0991  2.2458  1.4553
   48CHL1   H2B 4707   0.693   4.958   7.513  2.5285  1.0636 -0.3821
   48CHL1   C20 4708   0.587   5.201   6.582 -0.1187  0.5836  0.5665
   48CHL1   H20 4709   0.601   5.309   6.603  0.6682  0.7316 -0.6751
   48CHL1   C21 4710   0.440   5.156   6.616  0.3165 -0.3970  0.2231
   48CHL1  H21A 4711   0.402   5.233   6.687  0.9714 -1.3708  1.6593
   48CHL1  H21B 4712   0.375   5.166   6.526 -0.2212  2.9308  0.8530
   48CHL1  H21C 4713   0.414   5.064   6.672 -3.3831  1.6968  2.3446
   48CHL1   C22 4714   0.618   5.183   6.433 -0.0349 -0.9276  0.3137
   48CHL1  H22A 4715   0.534   5.238   6.386  1.8667  1.0549 -0.9478
   48CHL1  H22B 4716   0.713   5.236   6.410  0.0305  0.0573  2.6249
   48CHL1   C23 4717   0.615   5.044   6.369 -0.2477 -0.3157 -0.3437
   48CHL1  H23A 4718   0.713   4.997   6.390  1.3445  2.7366 -0.5266
   48CHL1  H23B 4719   0.535   4.988   6.423  2.7380 -3.3550  1.2812
   48CHL1   C24 4720   0.581   5.051   6.220 -0.0222  0.6148  0.7369
   48CHL1  H24A 4721   0.653   5.112   6.162 -2.9966  2.0834 -1.7149
   48CHL1  H24B 4722   0.604   4.946   6.191 -1.3813  0.9142 -1.6774
   48CHL1   C25 4723   0.441   5.089   6.177 -0.7270 -0.1106 -0.0387
   48CHL1   H25 4724   0.410   5.182   6.228 -2.0546 -2.1076  3.0794
   48CHL1   C26 4725   0.451   5.115   6.021  0.3562  0.3734 -0.1445
   48CHL1  H26A 4726   0.504   5.210   5.997  0.7993  0.4058  0.8855
   48CHL1  H26B 4727   0.510   5.035   5.972 -2.4561 -1.0829 -1.3240
   48CHL1  H26C 4728   0.351   5.112   5.973  1.8487 -0.7493 -3.4610
   48CHL1   C27 4729   0.334   4.978   6.204 -0.0517 -0.3217  0.0635
   48CHL1  H27A 4730   0.327   4.957   6.313  0.7866  0.7487  0.3455
   48CHL1  H27B 4731   0.240   5.007   6.154 -0.4132 -1.0924  0.2743
   48CHL1  H27C 4732   0.372   4.883   6.161 -0.1357  0.0625 -0.8896
   49CHL1    C3 4733   4.072   3.233   4.269 -0.1316 -0.1989 -0.3599
   49CHL1    H3 4734   4.152   3.170   4.315 -1.1179 -0.9510  0.3820
   49CHL1    O3 4735   4.097   3.263   4.131 -0.0279 -0.9559  0.6621
   49CHL1   H3' 4736   4.047   3.338   4.098  0.3088 -2.7388 -4.9412
   49CHL1    C4 4737   3.950   3.140   4.285  0.9491 -0.0534  0.4983
   49CHL1   H4A 4738   3.868   3.181   4.222  1.7056 -1.6076 -1.6329
   49CHL1   H4B 4739   3.983   3.042   4.245 -1.2698 -1.2157  1.3546
   49CHL1    C5 4740   3.911   3.135   4.430 -0.0078 -0.4149 -0.2617
   49CHL1    C6 4741   3.896   3.024   4.498 -0.1756  0.4833  0.0384
   49CHL1    H6 4742   3.911   2.929   4.445  0.7872 -0.1362  1.3548
   49CHL1    C7 4743   3.841   3.011   4.637 -0.1765 -0.2179  0.0767
   49CHL1   H7A 4744   3.775   2.922   4.647 -1.0949  0.6538  2.5882
   49CHL1   H7B 4745   3.922   2.989   4.710 -0.2018 -2.6512 -0.5419
   49CHL1    C8 4746   3.764   3.131   4.685  0.5161 -0.3535 -0.9745
   49CHL1    H8 4747   3.675   3.142   4.620 -0.1355 -1.8145 -0.3854
   49CHL1   C14 4748   3.738   3.129   4.832  0.2945 -0.3633 -0.4354
   49CHL1   H14 4749   3.836   3.133   4.885  0.0414  0.6549 -0.0029
   49CHL1   C15 4750   3.653   3.010   4.880  0.6467 -0.2226  0.0061
   49CHL1  H15A 4751   3.566   3.013   4.811 -0.2160 -1.7299  0.9882
   49CHL1  H15B 4752   3.703   2.911   4.878  3.4647  1.0832 -2.7655
   49CHL1   C16 4753   3.595   3.056   5.014  0.2290  0.5917 -0.0460
   49CHL1  H16A 4754   3.485   3.041   5.023  0.2706  0.4854  0.3280
   49CHL1  H16B 4755   3.623   2.995   5.102 -1.7153 -2.9037 -1.6509
   49CHL1   C17 4756   3.635   3.208   5.034 -0.7023 -0.1515 -0.0491
   49CHL1   H17 4757   3.725   3.210   5.099 -0.2759 -2.0996 -0.4948
   49CHL1   C13 4758   3.663   3.254   4.890 -0.2990 -0.8131 -0.1655
   49CHL1   C18 4759   3.532   3.281   4.819 -0.3350  0.2205  0.0200
   49CHL1  H18A 4760   3.477   3.363   4.870  3.6148  0.9461  3.6154
   49CHL1  H18B 4761   3.550   3.317   4.716 -1.9882  2.0901  0.3038
   49CHL1  H18C 4762   3.452   3.204   4.815 -0.2480  0.1211  0.1878
   49CHL1   C12 4763   3.757   3.377   4.872 -0.0741  0.6793 -0.8573
   49CHL1  H12A 4764   3.708   3.470   4.909  0.7520  1.3420 -1.3912
   49CHL1  H12B 4765   3.841   3.354   4.940 -0.9781  0.4018  0.2004
   49CHL1   C11 4766   3.806   3.392   4.730  0.0469  0.9616 -0.3045
   49CHL1  H11A 4767   3.720   3.436   4.675 -1.9520 -1.4742  0.6341
   49CHL1  H11B 4768   3.886   3.468   4.723  1.1032  0.1182  1.8222
   49CHL1    C9 4769   3.849   3.256   4.655 -0.1427 -0.4145  0.1773
   49CHL1    H9 4770   3.950   3.233   4.694 -0.1733  0.9111  1.0937
   49CHL1   C10 4771   3.880   3.273   4.497  0.6449 -0.0876 -0.0232
   49CHL1   C19 4772   3.749   3.335   4.435  0.2334 -0.0854  0.2814
   49CHL1  H19A 4773   3.654   3.283   4.457 -1.9192  2.1194 -2.9377
   49CHL1  H19B 4774   3.729   3.441   4.461  0.1564  0.4845 -1.9122
   49CHL1  H19C 4775   3.754   3.338   4.324 -0.4591  0.5139  0.2614
   49CHL1    C1 4776   4.003   3.367   4.483 -0.2139  0.3047 -0.0422
   49CHL1   H1A 4777   3.977   3.470   4.515  0.9135 -0.1389  2.6087
   49CHL1   H1B 4778   4.082   3.321   4.546 -0.1837 -0.8018 -0.8574
   49CHL1    C2 4779   4.058   3.371   4.334  0.4163 -0.3353  0.4390
   49CHL1   H2A 4780   4.151   3.432   4.340 -0.4136  0.9974  0.1051
   49CHL1   H2B 4781   3.988   3.425   4.267 -0.4645  0.8879  2.2622
   49CHL1   C20 4782   3.525   3.284   5.120  0.1370  1.4262  0.8013
   49CHL1   H20 4783   3.434   3.295   5.057  0.6485 -2.1452 -0.8035
   49CHL1   C21 4784   3.587   3.416   5.157  0.1203  0.0798  0.3318
   49CHL1  H21A 4785   3.530   3.476   5.232  1.8423  1.9697  0.1995
   49CHL1  H21B 4786   3.586   3.479   5.066  0.5861  0.4391  0.5701
   49CHL1  H21C 4787   3.693   3.406   5.187  0.9783  0.8238 -2.2002
   49CHL1   C22 4788   3.482   3.203   5.245 -0.4035 -0.5608 -0.7586
   49CHL1  H22A 4789   3.470   3.095   5.220 -0.2711 -0.8166  0.2557
   49CHL1  H22B 4790   3.561   3.222   5.320  0.3925 -0.3667 -1.6268
   49CHL1   C23 4791   3.347   3.254   5.309 -0.2583 -0.2334 -0.2816
   49CHL1  H23A 4792   3.373   3.360   5.327 -3.3657  0.6278 -0.1966
   49CHL1  H23B 4793   3.267   3.258   5.232  1.4053  0.0756 -2.0676
   49CHL1   C24 4794   3.324   3.194   5.441  0.2724  0.5061 -0.8977
   49CHL1  H24A 4795   3.309   3.084   5.437  1.1951 -0.0304  4.0224
   49CHL1  H24B 4796   3.417   3.205   5.502 -2.0388 -0.6135  3.1735
   49CHL1   C25 4797   3.205   3.253   5.519 -0.3836  0.6701  0.4381
   49CHL1   H25 4798   3.215   3.363   5.504 -2.0478  0.8743  0.6022
   49CHL1   C26 4799   3.067   3.224   5.460 -0.1168  0.0908 -0.2162
   49CHL1  H26A 4800   2.994   3.296   5.502  0.9897  1.5652 -0.7394
   49CHL1  H26B 4801   3.049   3.236   5.351 -1.6177 -0.2362 -0.0279
   49CHL1  H26C 4802   3.048   3.123   5.501  0.4073  0.6068  1.3722
   49CHL1   C27 4803   3.207   3.232   5.668 -0.3664 -0.3340  0.6368
   49CHL1  H27A 4804   3.121   3.283   5.717  1.9522  2.9214  1.7426
   49CHL1  H27B 4805   3.215   3.125   5.695  1.0708 -1.1586 -2.6200
   49CHL1  H27C 4806   3.294   3.293   5.703  1.7049  0.1344 -4.4969
   50CHL1    C3 4807   3.108   0.973   4.133  0.3929 -0.3903  0.0314
   50CHL1    H3 4808   3.013   1.022   4.162  0.8818 -1.0296  3.1201
   50CHL1    O3 4809   3.141   1.016   4.006 -0.1044 -0.0686 -0.1854
   50CHL1   H3' 4810   3.221   0.973   3.974  0.4490  1.6842 -1.3171
   50CHL1    C4 4811   3.220   1.012   4.232 -0.4265  0.0206  0.1261
   50CHL1   H4A 4812   3.317   0.970   4.196 -0.3076 -0.3373  0.8621
   50CHL1   H4B 4813   3.233   1.122   4.225 -0.4621  0.2100  2.4940
   50CHL1    C5 4814   3.190   0.973   4.371  0.0907  0.4861  0.1088
   50CHL1    C6 4815   3.191   1.064   4.472 -0.4891  0.3778  0.4975
   50CHL1    H6 4816   3.212   1.169   4.446  1.9532  0.0584  1.0135
   50CHL1    C7 4817   3.161   1.030   4.613 -0.6750  0.4372  0.1742
   50CHL1   H7A 4818   3.240   1.071   4.680 -0.6268 -0.1355  0.4710
   50CHL1   H7B 4819   3.059   1.067   4.636 -1.4015 -1.0557 -0.5225
   50CHL1    C8 4820   3.155   0.868   4.641  0.0407 -0.9903  0.5530
   50CHL1    H8 4821   3.260   0.836   4.653 -0.0262 -0.3542  4.1209
   50CHL1   C14 4822   3.073   0.826   4.765 -0.0210 -0.1445  0.4416
   50CHL1   H14 4823   2.967   0.849   4.740 -0.3739 -1.5496  0.5710
   50CHL1   C15 4824   3.102   0.909   4.888 -0.3753 -0.1499 -0.6618
   50CHL1  H15A 4825   3.210   0.934   4.890 -0.1814 -0.4043 -3.4695
   50CHL1  H15B 4826   3.051   1.007   4.886  0.2695  0.2255 -3.6910
   50CHL1   C16 4827   3.052   0.819   4.996  0.0886 -0.4895  0.3529
   50CHL1  H16A 4828   3.132   0.808   5.072  1.1416  2.2278 -0.2780
   50CHL1  H16B 4829   2.963   0.859   5.049 -1.0427 -2.3827 -0.0001
   50CHL1   C17 4830   3.006   0.687   4.930  0.0059 -0.0271 -0.0948
   50CHL1   H17 4831   2.898   0.701   4.907 -0.5850 -1.4276  1.5397
   50CHL1   C13 4832   3.082   0.677   4.800  0.0867 -0.2314  0.3045
   50CHL1   C18 4833   3.223   0.630   4.830 -0.2819 -0.1645  0.5773
   50CHL1  H18A 4834   3.291   0.618   4.742  1.1002 -2.6115  1.8600
   50CHL1  H18B 4835   3.270   0.701   4.901  2.1409 -0.7630 -0.3222
   50CHL1  H18C 4836   3.219   0.524   4.863 -1.8436 -0.0997  0.6345
   50CHL1   C12 4837   3.013   0.594   4.687  1.3423 -0.1999 -0.7143
   50CHL1  H12A 4838   3.001   0.484   4.696 -0.1897  0.1482  3.5260
   50CHL1  H12B 4839   2.915   0.642   4.667  1.0379  0.2667  1.6552
   50CHL1   C11 4840   3.089   0.632   4.553 -0.0746 -0.0508 -0.2712
   50CHL1  H11A 4841   3.190   0.587   4.564  1.1677  2.6967  0.5357
   50CHL1  H11B 4842   3.038   0.588   4.465 -0.2991  1.5977 -1.0169
   50CHL1    C9 4843   3.094   0.790   4.527 -0.0617  0.5031 -0.3865
   50CHL1    H9 4844   2.986   0.817   4.517 -0.7183 -1.6639  0.0863
   50CHL1   C10 4845   3.161   0.818   4.387  0.2388  0.2716  0.7009
   50CHL1   C19 4846   3.294   0.736   4.376 -0.0748 -0.1245  0.3793
   50CHL1  H19A 4847   3.366   0.767   4.298 -0.1888  1.0942  0.7418
   50CHL1  H19B 4848   3.350   0.736   4.472 -1.1897  0.0100  1.0552
   50CHL1  H19C 4849   3.266   0.633   4.345  1.9459 -0.1946 -1.3588
   50CHL1    C1 4850   3.064   0.770   4.278  0.4260  1.0749  0.5516
   50CHL1   H1A 4851   3.059   0.659   4.267 -0.5803  1.1790 -0.1468
   50CHL1   H1B 4852   2.958   0.795   4.299 -0.5127 -1.1900 -1.0161
   50CHL1    C2 4853   3.092   0.824   4.133  0.1999  0.3529 -0.4983
   50CHL1   H2A 4854   3.012   0.792   4.063  0.6312 -0.1739 -0.7596
   50CHL1   H2B 4855   3.189   0.774   4.110 -0.2883 -1.2070  0.6214
   50CHL1   C20 4856   3.020   0.567   5.031  0.4683  0.6357 -0.0668
   50CHL1   H20 4857   3.127   0.547   5.054 -0.0345 -0.6332  1.3726
   50CHL1   C21 4858   2.968   0.436   4.970  0.0800 -0.3933 -0.4191
   50CHL1  H21A 4859   3.024   0.420   4.875  0.8775 -0.4168  0.0475
   50CHL1  H21B 4860   2.857   0.430   4.958 -0.1339 -0.6369  1.3515
   50CHL1  H21C 4861   3.015   0.355   5.029  3.5018  1.3144 -0.5727
   50CHL1   C22 4862   2.941   0.581   5.161  0.0558  0.1362 -0.6236
   50CHL1  H22A 4863   2.971   0.680   5.204 -3.2676  1.1947 -0.4663
   50CHL1  H22B 4864   2.832   0.594   5.143 -0.0181 -0.4649 -0.6285
   50CHL1   C23 4865   2.958   0.484   5.280 -0.2137 -0.6556 -0.0266
   50CHL1  H23A 4866   2.918   0.386   5.245  0.1483 -0.2820 -1.5677
   50CHL1  H23B 4867   3.069   0.475   5.289 -0.3479 -3.4301 -0.1752
   50CHL1   C24 4868   2.894   0.539   5.414 -0.3367 -0.0056  0.5514
   50CHL1  H24A 4869   2.932   0.642   5.430  0.4525  0.3181 -2.8105
   50CHL1  H24B 4870   2.786   0.558   5.397 -0.1353 -0.5690 -1.6397
   50CHL1   C25 4871   2.909   0.433   5.528  0.7236 -0.4926  1.2020
   50CHL1   H25 4872   3.017   0.411   5.543  1.6065  0.7014 -2.3768
   50CHL1   C26 4873   2.840   0.487   5.652  0.7342 -0.3389  0.3219
   50CHL1  H26A 4874   2.847   0.597   5.666 -0.6286 -0.0272 -1.1528
   50CHL1  H26B 4875   2.732   0.466   5.638  0.9199 -0.3576 -1.2572
   50CHL1  H26C 4876   2.876   0.443   5.748 -0.0428  0.8722  1.2073
   50CHL1   C27 4877   2.831   0.306   5.487 -0.3542 -0.1004 -0.0030
   50CHL1  H27A 4878   2.885   0.251   5.407  0.1289 -1.0145  0.9390
   50CHL1  H27B 4879   2.814   0.243   5.577  3.2975  0.8820  1.5219
   50CHL1  H27C 4880   2.729   0.333   5.451 -1.1817 -2.2641  0.5200
   51CHL1    C3 4881   2.978   3.686   4.048 -0.0200 -0.7135 -0.3562
   51CHL1    H3 4882   2.975   3.583   4.090  2.8213 -0.1908  1.3735
   51CHL1    O3 4883   2.977   3.691   3.907 -0.0705  0.1923  0.1921
   51CHL1   H3' 4884   2.884   3.701   3.885 -0.5406 -0.4868  1.7170
   51CHL1    C4 4885   2.861   3.769   4.107 -0.3410  0.5130  0.5598
   51CHL1   H4A 4886   2.860   3.871   4.063  2.2417  0.1945 -0.3874
   51CHL1   H4B 4887   2.772   3.713   4.071  0.0820 -0.7966  1.4749
   51CHL1    C5 4888   2.859   3.797   4.255  0.7714  0.5821  0.6469
   51CHL1    C6 4889   2.753   3.770   4.334  0.4251  0.0341 -0.5520
   51CHL1    H6 4890   2.659   3.729   4.296  0.6939 -0.1521 -1.0192
   51CHL1    C7 4891   2.754   3.798   4.481 -0.1753  0.8812 -0.1737
   51CHL1   H7A 4892   2.656   3.837   4.513 -0.2388  0.1022  0.6281
   51CHL1   H7B 4893   2.779   3.710   4.544  1.1691  0.9883 -0.5239
   51CHL1    C8 4894   2.865   3.903   4.523  0.2593  0.8939  0.5676
   51CHL1    H8 4895   2.826   4.004   4.496 -1.5233 -0.1986 -1.1907
   51CHL1   C14 4896   2.878   3.902   4.674 -0.3623 -0.0046  0.0861
   51CHL1   H14 4897   2.904   3.798   4.704 -0.4338  0.6941  2.8231
   51CHL1   C15 4898   2.752   3.917   4.761 -0.1739 -1.2540  0.1293
   51CHL1  H15A 4899   2.687   4.000   4.726 -1.2974 -1.8144  0.8411
   51CHL1  H15B 4900   2.693   3.823   4.760 -1.2602 -0.5992  0.3068
   51CHL1   C16 4901   2.814   3.960   4.901  0.1619 -0.6470  0.1925
   51CHL1  H16A 4902   2.765   4.055   4.933 -0.6270 -1.0907  0.3237
   51CHL1  H16B 4903   2.783   3.881   4.972 -0.0091  0.5114  1.4488
   51CHL1   C17 4904   2.966   3.978   4.881 -0.2101  0.0501 -0.0915
   51CHL1   H17 4905   3.006   3.877   4.904 -0.4271  0.4066  2.0704
   51CHL1   C13 4906   2.981   4.008   4.734 -0.2987  0.4935  0.2752
   51CHL1   C18 4907   2.947   4.155   4.705 -0.7664 -0.9050 -0.2705
   51CHL1  H18A 4908   2.856   4.179   4.763 -1.3362  1.2158 -1.9280
   51CHL1  H18B 4909   3.034   4.222   4.726  0.0621 -1.0313 -2.9033
   51CHL1  H18C 4910   2.920   4.165   4.598 -2.8789 -1.3111  0.1779
   51CHL1   C12 4911   3.116   3.971   4.670 -0.1644 -0.2286  0.2884
   51CHL1  H12A 4912   3.190   4.050   4.696 -1.1792  0.6546  0.5371
   51CHL1  H12B 4913   3.156   3.875   4.708 -0.1765 -0.2739  0.1876
   51CHL1   C11 4914   3.106   3.971   4.511  0.0393  0.1073  0.2117
   51CHL1  H11A 4915   3.070   4.073   4.487 -0.8273 -0.3588 -0.5407
   51CHL1  H11B 4916   3.205   3.944   4.468 -0.7872 -1.6070 -0.7387
   51CHL1    C9 4917   2.998   3.869   4.464  0.3876 -0.7462 -0.5253
   51CHL1    H9 4918   3.024   3.771   4.507 -2.0746 -0.9965  0.5755
   51CHL1   C10 4919   2.995   3.854   4.309 -1.0317  0.2022  0.3927
   51CHL1   C19 4920   3.007   3.998   4.258 -0.0583 -0.0353  1.1038
   51CHL1  H19A 4921   2.997   4.001   4.147 -0.8267  1.2705  1.1972
   51CHL1  H19B 4922   2.946   4.076   4.307 -2.1575 -0.1555 -1.1280
   51CHL1  H19C 4923   3.105   4.048   4.275  0.2054 -0.3839  0.6612
   51CHL1    C1 4924   3.111   3.763   4.251  0.4064 -0.6371 -0.6629
   51CHL1   H1A 4925   3.210   3.796   4.288 -0.6518  0.2675  1.5688
   51CHL1   H1B 4926   3.110   3.663   4.299 -2.6478 -0.0779  0.7094
   51CHL1    C2 4927   3.117   3.745   4.102 -0.0475  0.3834 -0.0340
   51CHL1   H2A 4928   3.205   3.682   4.077 -1.3285 -1.6378  0.3012
   51CHL1   H2B 4929   3.138   3.845   4.060  2.7272 -0.1308 -0.0927
   51CHL1   C20 4930   3.027   4.078   4.985  0.3375  0.7991 -0.1244
   51CHL1   H20 4931   2.981   4.176   4.960 -3.5356 -0.5752  0.7399
   51CHL1   C21 4932   3.174   4.076   4.965 -0.1179  0.4690  0.3021
   51CHL1  H21A 4933   3.218   4.135   5.048  0.6126  0.2037  0.1104
   51CHL1  H21B 4934   3.192   4.131   4.870  1.0366 -1.2200 -0.5167
   51CHL1  H21C 4935   3.227   3.978   4.966 -1.6983 -0.4489 -0.8534
   51CHL1   C22 4936   2.969   4.046   5.123  0.7341  0.2691  0.0162
   51CHL1  H22A 4937   2.870   4.096   5.133  1.1677  1.3123 -0.6859
   51CHL1  H22B 4938   2.951   3.936   5.129  0.0760  0.3554 -0.2709
   51CHL1   C23 4939   3.055   4.072   5.246 -0.1250  0.7625  0.2372
   51CHL1  H23A 4940   3.145   4.008   5.242 -0.5278  0.2395 -1.4249
   51CHL1  H23B 4941   3.091   4.177   5.242 -0.9134  1.0271 -0.1846
   51CHL1   C24 4942   2.987   4.031   5.377  0.2959 -0.8636  0.0588
   51CHL1  H24A 4943   2.903   4.101   5.398  0.6304  0.3269 -2.1999
   51CHL1  H24B 4944   2.956   3.924   5.372 -0.7745 -0.5213 -1.1529
   51CHL1   C25 4945   3.081   4.039   5.499  0.1137  0.4592  0.1475
   51CHL1   H25 4946   3.169   3.982   5.462 -0.6148 -0.1189 -0.7363
   51CHL1   C26 4947   3.126   4.181   5.537 -0.6360  0.6575  0.6575
   51CHL1  H26A 4948   3.049   4.223   5.606  0.2079  0.9337  1.4539
   51CHL1  H26B 4949   3.225   4.193   5.586 -0.4871  1.5282  0.1675
   51CHL1  H26C 4950   3.133   4.255   5.454 -3.8244  3.5348  2.6662
   51CHL1   C27 4951   3.015   3.964   5.615 -0.4700  0.7194  0.0207
   51CHL1  H27A 4952   3.073   3.988   5.706 -2.6503  0.4623  1.5580
   51CHL1  H27B 4953   2.907   3.987   5.629 -0.8411 -0.4256 -0.7591
   51CHL1  H27C 4954   3.027   3.854   5.601 -2.6739  0.5827 -1.3726
   52CHL1    C3 4955   2.847   3.305   4.157  0.3805 -0.3407 -0.1797
   52CHL1    H3 4956   2.948   3.350   4.166 -0.5528  1.8308 -0.0027
   52CHL1    O3 4957   2.812   3.267   4.025  0.2568  0.3499 -0.4434
   52CHL1   H3' 4958   2.717   3.270   4.011 -0.0046 -1.1997  0.7582
   52CHL1    C4 4959   2.830   3.178   4.237 -0.2962 -0.6812 -0.7928
   52CHL1   H4A 4960   2.740   3.125   4.199 -0.1134 -0.7823 -1.0854
   52CHL1   H4B 4961   2.909   3.107   4.208 -0.7436 -0.6217 -2.2496
   52CHL1    C5 4962   2.832   3.202   4.388 -0.4535 -0.1238 -0.0272
   52CHL1    C6 4963   2.928   3.146   4.468  1.1343 -0.0495  0.1656
   52CHL1    H6 4964   2.997   3.073   4.424  0.9182  1.5892 -3.2333
   52CHL1    C7 4965   2.934   3.171   4.618  0.5273  0.1390  0.0799
   52CHL1   H7A 4966   2.941   3.079   4.680 -3.0485  0.3449  1.0484
   52CHL1   H7B 4967   3.019   3.235   4.647  0.9814 -1.4058  2.4356
   52CHL1    C8 4968   2.798   3.242   4.668 -0.4455 -0.0864 -0.5351
   52CHL1    H8 4969   2.720   3.164   4.660 -0.0866 -0.3512 -1.5757
   52CHL1   C14 4970   2.829   3.291   4.811 -0.0367  0.2178 -0.6634
   52CHL1   H14 4971   2.914   3.363   4.805 -1.3341  2.0509  1.6868
   52CHL1   C15 4972   2.864   3.190   4.922 -0.3572  0.4532  0.6653
   52CHL1  H15A 4973   2.784   3.114   4.912  0.3973 -0.2271 -0.3297
   52CHL1  H15B 4974   2.966   3.148   4.908 -0.8267  0.4262 -4.4923
   52CHL1   C16 4975   2.840   3.271   5.049 -0.3544  0.8110  0.2705
   52CHL1  H16A 4976   2.786   3.209   5.123 -2.3174 -0.1333 -1.8217
   52CHL1  H16B 4977   2.938   3.301   5.091  0.7135 -0.8334 -0.9417
   52CHL1   C17 4978   2.766   3.401   5.012  0.4269 -0.1611 -0.1288
   52CHL1   H17 4979   2.846   3.477   5.001  0.2828  0.1812  0.9849
   52CHL1   C13 4980   2.711   3.372   4.875  0.4935 -0.4595 -0.4432
   52CHL1   C18 4981   2.586   3.278   4.910 -0.2519 -0.2138 -0.7634
   52CHL1  H18A 4982   2.609   3.204   4.990  1.6275  1.4452  0.3045
   52CHL1  H18B 4983   2.502   3.345   4.938 -0.1920 -0.8354  1.0673
   52CHL1  H18C 4984   2.558   3.229   4.814 -0.8676  0.9287 -1.1815
   52CHL1   C12 4985   2.676   3.487   4.782  0.1387 -0.6609 -0.2534
   52CHL1  H12A 4986   2.587   3.544   4.815  0.5817 -0.8269  1.3155
   52CHL1  H12B 4987   2.764   3.555   4.781  0.4377 -1.0438 -0.4168
   52CHL1   C11 4988   2.653   3.453   4.638  1.0452  0.9213  0.5651
   52CHL1  H11A 4989   2.553   3.406   4.639  0.9851  1.0403  0.2583
   52CHL1  H11B 4990   2.640   3.538   4.568  0.3500 -0.1005 -0.5909
   52CHL1    C9 4991   2.761   3.364   4.579 -0.2362 -0.2143  0.6077
   52CHL1    H9 4992   2.860   3.415   4.572  0.3352 -1.3776 -0.1431
   52CHL1   C10 4993   2.726   3.309   4.435  0.3218 -0.0449 -0.7744
   52CHL1   C19 4994   2.576   3.265   4.442  0.1575 -0.1349 -0.3148
   52CHL1  H19A 4995   2.512   3.356   4.446  0.2082 -0.0529 -1.1940
   52CHL1  H19B 4996   2.540   3.208   4.354  1.8270 -2.5366  0.4655
   52CHL1  H19C 4997   2.554   3.203   4.532 -1.1355 -1.8092 -1.7113
   52CHL1    C1 4998   2.744   3.430   4.342 -0.3708 -0.9339 -0.6076
   52CHL1   H1A 4999   2.662   3.505   4.357 -1.5000 -2.1204 -0.6753
   52CHL1   H1B 5000   2.846   3.471   4.358 -0.9229  0.0975  0.4406
   52CHL1    C2 5001   2.741   3.404   4.197  0.4666 -0.7580 -0.1294
   52CHL1   H2A 5002   2.767   3.497   4.142 -0.7281  1.3762  2.6518
   52CHL1   H2B 5003   2.639   3.365   4.177  0.2960  0.2525 -1.4011
   52CHL1   C20 5004   2.684   3.463   5.129  0.1827 -0.3142 -0.2617
   52CHL1   H20 5005   2.618   3.386   5.174 -0.6805  0.5382 -0.0283
   52CHL1   C21 5006   2.596   3.580   5.084  0.5260 -0.1307 -0.1183
   52CHL1  H21A 5007   2.521   3.550   5.007  0.9521  0.8003 -0.9125
   52CHL1  H21B 5008   2.665   3.661   5.052  0.6443 -0.2476 -0.1616
   52CHL1  H21C 5009   2.544   3.618   5.175 -0.5365  1.4021 -1.3105
   52CHL1   C22 5010   2.771   3.514   5.248 -0.1517 -0.2807 -0.4570
   52CHL1  H22A 5011   2.845   3.433   5.266  2.2229  1.9165  0.3458
   52CHL1  H22B 5012   2.829   3.600   5.207 -1.5703  1.3756  0.8773
   52CHL1   C23 5013   2.694   3.558   5.371 -0.4094 -0.2165 -0.0481
   52CHL1  H23A 5014   2.750   3.629   5.435 -0.9138 -0.8622  1.1373
   52CHL1  H23B 5015   2.597   3.612   5.361 -0.0429  0.5428  0.4184
   52CHL1   C24 5016   2.658   3.434   5.459  0.0213  0.5186  0.3319
   52CHL1  H24A 5017   2.586   3.375   5.398 -0.5266 -0.4376  1.8514
   52CHL1  H24B 5018   2.746   3.366   5.461  1.0737  1.5767 -2.7555
   52CHL1   C25 5019   2.590   3.469   5.594  0.2907 -0.0473 -0.0556
   52CHL1   H25 5020   2.501   3.534   5.579  0.5631  0.2947 -0.2095
   52CHL1   C26 5021   2.529   3.343   5.666  0.1115 -0.2043  0.4822
   52CHL1  H26A 5022   2.475   3.295   5.580 -0.0916  0.4162  0.2592
   52CHL1  H26B 5023   2.614   3.284   5.706 -0.4175 -0.7627  0.8053
   52CHL1  H26C 5024   2.462   3.378   5.747  0.1772  2.9463 -0.7083
   52CHL1   C27 5025   2.693   3.546   5.677 -0.6754 -0.1678  0.2722
   52CHL1  H27A 5026   2.705   3.652   5.644  0.1251 -0.5444 -0.6844
   52CHL1  H27B 5027   2.674   3.556   5.786  2.1164 -0.1005  0.8217
   52CHL1  H27C 5028   2.791   3.497   5.662 -0.5614  0.1996 -0.2245
   53CHL1    C3 5029   0.282   2.609   4.277 -0.5088 -0.2490  0.4047
   53CHL1    H3 5030   0.354   2.691   4.297  0.2639 -1.2732  2.0899
   53CHL1    O3 5031   0.292   2.581   4.137 -0.2916 -0.0486 -0.0645
   53CHL1   H3' 5032   0.203   2.562   4.105 -1.6119  2.1187  1.9712
   53CHL1    C4 5033   0.311   2.489   4.367 -0.4716  0.5399  0.0663
   53CHL1   H4A 5034   0.235   2.416   4.331  2.3251 -1.6760 -1.8687
   53CHL1   H4B 5035   0.409   2.445   4.340 -0.7609  0.7623 -1.4894
   53CHL1    C5 5036   0.307   2.536   4.503  0.3979  0.1201  0.2278
   53CHL1    C6 5037   0.422   2.529   4.574  0.0430 -0.1673  0.2638
   53CHL1    H6 5038   0.515   2.497   4.526 -0.4550  1.3201 -1.8393
   53CHL1    C7 5039   0.422   2.576   4.718  0.0786 -0.3842 -0.1311
   53CHL1   H7A 5040   0.492   2.522   4.785 -1.1998  0.6709  2.1965
   53CHL1   H7B 5041   0.450   2.683   4.722  1.7299 -0.8325  1.5018
   53CHL1    C8 5042   0.283   2.579   4.790 -0.0286 -0.7813  0.0951
   53CHL1    H8 5043   0.255   2.474   4.812 -0.2407 -0.5764  0.8239
   53CHL1   C14 5044   0.295   2.660   4.922  0.4009 -0.3022  0.1195
   53CHL1   H14 5045   0.326   2.763   4.892 -2.3436  0.8805  1.0173
   53CHL1   C15 5046   0.395   2.617   5.035  0.9609 -0.0627  0.4060
   53CHL1  H15A 5047   0.391   2.506   5.033 -1.4101 -0.0132 -0.1132
   53CHL1  H15B 5048   0.501   2.643   5.011  0.5720  1.3908  0.1682
   53CHL1   C16 5049   0.346   2.687   5.156  0.4628 -0.7792 -1.1868
   53CHL1  H16A 5050   0.331   2.617   5.242 -1.8368  1.4549  0.3872
   53CHL1  H16B 5051   0.408   2.772   5.194 -0.7485  1.4721 -3.9568
   53CHL1   C17 5052   0.203   2.751   5.124  0.0038 -0.0520 -0.2516
   53CHL1   H17 5053   0.216   2.859   5.102 -0.9259  0.2747  0.7233
   53CHL1   C13 5054   0.157   2.683   4.994  0.1741  1.1794  0.3119
   53CHL1   C18 5055   0.114   2.538   5.025  0.9521 -0.0002 -1.1656
   53CHL1  H18A 5056   0.011   2.540   5.067  0.8805  0.6337 -1.3714
   53CHL1  H18B 5057   0.098   2.473   4.936  2.2789 -0.4823 -1.0656
   53CHL1  H18C 5058   0.165   2.483   5.106 -3.3055 -0.9984  1.1542
   53CHL1   C12 5059   0.064   2.772   4.896 -0.2651  0.3530 -0.3547
   53CHL1  H12A 5060  -0.032   2.773   4.953 -0.6925  0.1725 -1.0659
   53CHL1  H12B 5061   0.110   2.872   4.899 -0.9359  0.6499  1.0802
   53CHL1   C11 5062   0.050   2.706   4.755 -0.0576 -0.5505  0.0541
   53CHL1  H11A 5063  -0.011   2.613   4.756 -2.9336  1.2082 -0.9342
   53CHL1  H11B 5064  -0.001   2.780   4.690 -0.5096  1.7724  2.8713
   53CHL1    C9 5065   0.183   2.659   4.694  0.1796  0.5083 -0.0560
   53CHL1    H9 5066   0.238   2.754   4.677 -0.2110  0.9489  1.0498
   53CHL1   C10 5067   0.170   2.593   4.553 -0.8306 -0.1363  0.4980
   53CHL1   C19 5068   0.081   2.467   4.561 -0.0214 -0.1582  0.5084
   53CHL1  H19A 5069   0.067   2.404   4.470  1.9504 -0.3524  0.2841
   53CHL1  H19B 5070   0.133   2.392   4.624  1.3830  1.0452  0.8240
   53CHL1  H19C 5071  -0.020   2.470   4.606 -0.1291  1.4535  0.2161
   53CHL1    C1 5072   0.124   2.707   4.452 -0.2309  0.2511  0.8206
   53CHL1   H1A 5073   0.016   2.730   4.465 -0.6702 -0.5168 -1.0666
   53CHL1   H1B 5074   0.178   2.802   4.472  0.2409 -0.2532  2.0395
   53CHL1    C2 5075   0.145   2.663   4.304  0.3809 -0.0881 -0.6541
   53CHL1   H2A 5076   0.128   2.751   4.239 -0.5701  0.0198 -0.2783
   53CHL1   H2B 5077   0.065   2.589   4.282 -1.4923  1.5492  0.3260
   53CHL1   C20 5078   0.107   2.741   5.246  0.0055  0.7862 -0.6189
   53CHL1   H20 5079   0.093   2.636   5.279  0.2849  0.7439 -0.6309
   53CHL1   C21 5080  -0.036   2.800   5.209 -0.2923  0.4591  0.2496
   53CHL1  H21A 5081  -0.039   2.908   5.185 -1.5081 -0.1348 -2.6700
   53CHL1  H21B 5082  -0.092   2.794   5.305 -1.5619  1.6958 -0.3697
   53CHL1  H21C 5083  -0.084   2.734   5.134 -0.9560  1.3591 -0.1353
   53CHL1   C22 5084   0.172   2.814   5.369  0.3977 -0.2634 -0.1252
   53CHL1  H22A 5085   0.244   2.736   5.402  1.2040 -0.3389 -1.9171
   53CHL1  H22B 5086   0.231   2.904   5.342  0.2491  0.3803  1.6238
   53CHL1   C23 5087   0.089   2.844   5.495  0.6940  0.2738 -0.4075
   53CHL1  H23A 5088  -0.002   2.907   5.485  1.0804  0.8993 -0.0165
   53CHL1  H23B 5089   0.054   2.740   5.515  1.4769 -0.3099 -1.9360
   53CHL1   C24 5090   0.176   2.883   5.616 -0.4277 -0.0786 -0.0475
   53CHL1  H24A 5091   0.229   2.797   5.661 -0.4605  0.4099  0.9383
   53CHL1  H24B 5092   0.247   2.959   5.576 -2.4649  0.9283 -2.0162
   53CHL1   C25 5093   0.098   2.935   5.739 -0.3552  0.2216 -0.7109
   53CHL1   H25 5094   0.025   3.009   5.699 -4.8103 -1.1678  3.8265
   53CHL1   C26 5095  -0.000   2.834   5.802  0.2830  0.2102 -0.1357
   53CHL1  H26A 5096   0.060   2.749   5.842  0.6539  0.3231 -0.4401
   53CHL1  H26B 5097  -0.051   2.884   5.887  0.2642 -1.1212  0.6685
   53CHL1  H26C 5098  -0.067   2.794   5.722  1.6528  0.6716 -1.5646
   53CHL1   C27 5099   0.185   3.006   5.845 -0.0176 -0.5745 -0.0333
   53CHL1  H27A 5100   0.114   3.047   5.920 -1.1475 -0.4126 -1.1599
   53CHL1  H27B 5101   0.258   2.932   5.884  0.3497 -1.4332 -2.1946
   53CHL1  H27C 5102   0.245   3.091   5.808  1.7741 -1.5110  0.5931
   54CHL1    C3 5103   0.025   4.097   4.187 -1.2042 -0.3470  0.1045
   54CHL1    H3 5104   0.134   4.112   4.201 -1.1179 -2.0740  1.6644
   54CHL1    O3 5105  -0.011   4.068   4.051  0.1639  0.0570 -0.0803
   54CHL1   H3' 5106  -0.106   4.061   4.060  0.0749 -0.4622 -1.3425
   54CHL1    C4 5107  -0.025   3.979   4.269  0.2927 -0.1457  0.0086
   54CHL1   H4A 5108  -0.130   3.944   4.259  0.2175  0.4461 -1.5684
   54CHL1   H4B 5109   0.028   3.888   4.231  0.4631 -0.0413 -0.0074
   54CHL1    C5 5110  -0.002   4.013   4.418  0.4034  0.0741 -0.2639
   54CHL1    C6 5111   0.085   3.934   4.487 -0.5541  0.5396 -1.5525
   54CHL1    H6 5112   0.135   3.851   4.433  1.2031  0.4619  0.0684
   54CHL1    C7 5113   0.105   3.930   4.639  0.5641 -0.0170 -0.2511
   54CHL1   H7A 5114   0.105   3.831   4.688 -0.0574  0.3207  0.4452
   54CHL1   H7B 5115   0.208   3.972   4.651  0.7846 -0.7021  0.3459
   54CHL1    C8 5116   0.002   4.028   4.706  0.4752  0.4643  0.1931
   54CHL1    H8 5117  -0.093   3.969   4.705  0.4696  0.4568 -0.8443
   54CHL1   C14 5118   0.031   4.056   4.852  0.5409  0.0183  0.1018
   54CHL1   H14 5119   0.137   4.087   4.845  0.4004  0.3558 -0.7048
   54CHL1   C15 5120   0.007   3.941   4.955 -0.1619 -0.1875  0.2310
   54CHL1  H15A 5121  -0.086   3.889   4.923  0.1749  0.5117 -2.0430
   54CHL1  H15B 5122   0.087   3.864   4.953 -2.5840 -2.8433 -0.4448
   54CHL1   C16 5123  -0.012   4.013   5.093  0.6031  0.4430 -0.3692
   54CHL1  H16A 5124  -0.107   3.977   5.138  0.3623  0.7477 -0.6303
   54CHL1  H16B 5125   0.071   3.991   5.163  0.2403 -1.3433 -0.4506
   54CHL1   C17 5126  -0.025   4.166   5.066 -0.3271 -0.0214 -0.5546
   54CHL1   H17 5127   0.083   4.189   5.074 -0.5959  0.6117  2.1587
   54CHL1   C13 5128  -0.054   4.171   4.909 -0.2541 -0.0749 -0.0389
   54CHL1   C18 5129  -0.201   4.136   4.904  0.1355  0.1188  0.7248
   54CHL1  H18A 5130  -0.270   4.222   4.915 -2.4078 -1.3108 -2.5916
   54CHL1  H18B 5131  -0.222   4.086   4.807 -1.2658 -1.2906  1.6987
   54CHL1  H18C 5132  -0.229   4.060   4.981  0.3177 -1.3731 -0.6456
   54CHL1   C12 5133  -0.026   4.295   4.831 -1.1309  0.6475  0.6349
   54CHL1  H12A 5134  -0.088   4.379   4.870 -2.8007 -0.8083  1.2318
   54CHL1  H12B 5135   0.078   4.332   4.839 -0.8975 -0.1423  1.4157
   54CHL1   C11 5136  -0.075   4.280   4.685 -0.4399  0.1803  0.4767
   54CHL1  H11A 5137  -0.184   4.256   4.687 -0.0211 -2.0400 -0.4667
   54CHL1  H11B 5138  -0.063   4.372   4.625  1.1281 -0.1182  0.3072
   54CHL1    C9 5139  -0.002   4.163   4.622  0.7374  0.8047 -0.3215
   54CHL1    H9 5140   0.103   4.192   4.604  0.2777  1.0792 -2.9104
   54CHL1   C10 5141  -0.054   4.138   4.477  0.2445 -0.4106  0.1477
   54CHL1   C19 5142  -0.208   4.128   4.471 -0.3534 -0.0458 -0.0196
   54CHL1  H19A 5143  -0.250   4.230   4.472 -0.5569 -0.0999 -1.2861
   54CHL1  H19B 5144  -0.247   4.071   4.383  1.8065  0.3250 -1.2983
   54CHL1  H19C 5145  -0.249   4.072   4.557 -0.5795  0.2663  0.0776
   54CHL1    C1 5146  -0.012   4.255   4.378 -0.1450  0.0523 -0.1028
   54CHL1   H1A 5147  -0.057   4.355   4.394 -3.2646 -0.9229 -1.7804
   54CHL1   H1B 5148   0.097   4.270   4.390  0.0413 -1.9282  1.2497
   54CHL1    C2 5149  -0.048   4.227   4.229 -0.0676 -0.3096 -0.3951
   54CHL1   H2A 5150  -0.017   4.310   4.163 -0.6749  0.7243  0.5874
   54CHL1   H2B 5151  -0.158   4.213   4.219  0.0630 -0.8837 -1.1798
   54CHL1   C20 5152  -0.106   4.257   5.170  0.4134  0.4024 -0.4015
   54CHL1   H20 5153  -0.212   4.263   5.135  0.9673  1.3790 -2.0615
   54CHL1   C21 5154  -0.048   4.400   5.181  0.7552 -0.1788  0.7570
   54CHL1  H21A 5155  -0.084   4.459   5.094 -0.6829 -3.1421 -0.8016
   54CHL1  H21B 5156   0.062   4.396   5.168  0.7456  1.8521 -0.3557
   54CHL1  H21C 5157  -0.075   4.467   5.266 -0.8569  0.0697  0.0821
   54CHL1   C22 5158  -0.117   4.197   5.315  0.0724 -0.2739  0.3090
   54CHL1  H22A 5159  -0.189   4.260   5.370  0.2861  1.3150 -1.1642
   54CHL1  H22B 5160  -0.164   4.097   5.328  0.0128 -0.4846 -1.2923
   54CHL1   C23 5161   0.011   4.202   5.389 -0.5073  0.0140 -1.0474
   54CHL1  H23A 5162   0.099   4.161   5.335  0.7547  0.7030  0.3911
   54CHL1  H23B 5163   0.031   4.310   5.402 -2.6916  0.4942 -1.2620
   54CHL1   C24 5164  -0.007   4.143   5.529  1.0387  0.0903  0.6605
   54CHL1  H24A 5165  -0.089   4.195   5.582 -0.3515  1.0394 -2.2422
   54CHL1  H24B 5166  -0.024   4.034   5.515 -0.6564  0.3216  0.7900
   54CHL1   C25 5167   0.114   4.153   5.621 -0.0793 -0.6474 -0.6237
   54CHL1   H25 5168   0.206   4.130   5.563  0.3078 -1.0679  0.1405
   54CHL1   C26 5169   0.128   4.298   5.671 -0.2888 -0.0043  0.1105
   54CHL1  H26A 5170   0.039   4.335   5.725  1.0677  2.0532  1.0688
   54CHL1  H26B 5171   0.220   4.315   5.732  0.6996 -3.9957  0.0585
   54CHL1  H26C 5172   0.148   4.362   5.583  2.0344 -1.0454 -0.2082
   54CHL1   C27 5173   0.126   4.044   5.730  0.2256  0.3049  0.5099
   54CHL1  H27A 5174   0.122   3.945   5.679  2.2260 -0.1790  1.1920
   54CHL1  H27B 5175   0.220   4.037   5.789 -0.0599  1.0705  1.0824
   54CHL1  H27C 5176   0.039   4.042   5.799 -0.8548 -1.3116 -0.8155
   55CHL1    C3 5177   4.501   1.947   4.017 -0.1235  0.4910 -0.1608
   55CHL1    H3 5178   4.492   1.836   4.008 -1.3749  0.3653  1.9681
   55CHL1    O3 5179   4.548   2.000   3.890  0.5045 -0.0375 -0.2758
   55CHL1   H3' 5180   4.614   1.939   3.857  0.7624  1.1435 -2.0884
   55CHL1    C4 5181   4.349   1.986   4.029  0.5333 -0.4357 -0.2526
   55CHL1   H4A 5182   4.340   2.094   4.005  0.7281  0.0832  1.7569
   55CHL1   H4B 5183   4.293   1.935   3.948  2.0055 -0.4525 -1.2993
   55CHL1    C5 5184   4.292   1.946   4.168 -0.0889 -1.5234 -0.3762
   55CHL1    C6 5185   4.184   1.866   4.180  0.3936 -0.7085  0.3957
   55CHL1    H6 5186   4.140   1.842   4.083  0.3843  0.2022  0.1645
   55CHL1    C7 5187   4.115   1.835   4.305  0.5712 -0.2327  0.1160
   55CHL1   H7A 5188   4.013   1.876   4.287  1.0360  0.2726 -1.5357
   55CHL1   H7B 5189   4.115   1.725   4.318  2.4082 -0.2510  0.1856
   55CHL1    C8 5190   4.179   1.909   4.430  1.0136  0.4484 -0.1548
   55CHL1    H8 5191   4.134   2.010   4.436  0.8737  0.3409  0.7869
   55CHL1   C14 5192   4.127   1.854   4.570  0.3424 -0.5791  0.2784
   55CHL1   H14 5193   4.148   1.745   4.566 -1.4044 -0.9417  0.2792
   55CHL1   C15 5194   3.976   1.856   4.594  0.0674  0.0408 -0.1478
   55CHL1  H15A 5195   3.929   1.954   4.569 -3.6123 -1.4923  0.0399
   55CHL1  H15B 5196   3.924   1.779   4.532  0.1673  0.6691 -1.0249
   55CHL1   C16 5197   3.961   1.824   4.739 -0.5089  0.4427 -0.2930
   55CHL1  H16A 5198   3.903   1.905   4.790  0.5066  1.2188 -0.3320
   55CHL1  H16B 5199   3.926   1.723   4.768  0.3910 -0.1974 -1.3705
   55CHL1   C17 5200   4.110   1.829   4.797  0.0321 -0.0537  0.0718
   55CHL1   H17 5201   4.161   1.731   4.797 -0.0450 -0.0947 -0.2188
   55CHL1   C13 5202   4.185   1.915   4.696 -0.4777  0.8945  0.6762
   55CHL1   C18 5203   4.148   2.060   4.705  0.5996  0.0724 -0.4844
   55CHL1  H18A 5204   4.039   2.077   4.721  0.7653  0.1796  0.6478
   55CHL1  H18B 5205   4.216   2.114   4.774  0.2256  0.8674 -0.7155
   55CHL1  H18C 5206   4.177   2.116   4.613  1.0735 -1.4557 -1.2920
   55CHL1   C12 5207   4.336   1.897   4.672 -0.7409  0.3842  0.1820
   55CHL1  H12A 5208   4.397   1.925   4.760  0.6037 -1.0950 -0.2343
   55CHL1  H12B 5209   4.357   1.789   4.656 -2.3342 -0.1306  1.3104
   55CHL1   C11 5210   4.386   1.975   4.549 -0.3977 -0.2407  0.7323
   55CHL1  H11A 5211   4.364   2.084   4.556  1.0128  0.1446 -0.2638
   55CHL1  H11B 5212   4.497   1.966   4.553 -0.3878  0.2540  2.6895
   55CHL1    C9 5213   4.328   1.925   4.418  0.6019 -0.1998 -0.1593
   55CHL1    H9 5214   4.365   1.822   4.402  0.6004  0.1565 -2.9314
   55CHL1   C10 5215   4.370   2.001   4.290 -0.1297 -0.2957  0.0573
   55CHL1   C19 5216   4.334   2.149   4.291  0.1031 -0.2617  0.2327
   55CHL1  H19A 5217   4.381   2.201   4.205 -1.2061  2.0292  0.8190
   55CHL1  H19B 5218   4.225   2.167   4.291 -0.2695 -2.0734 -1.7082
   55CHL1  H19C 5219   4.386   2.197   4.377  0.5326 -0.3102  0.0056
   55CHL1    C1 5220   4.525   1.978   4.271 -0.3022 -0.1490 -0.6459
   55CHL1   H1A 5221   4.572   2.049   4.343  0.4302 -0.8575 -0.4050
   55CHL1   H1B 5222   4.554   1.881   4.317 -2.0999  0.5174  2.1484
   55CHL1    C2 5223   4.587   1.996   4.131  0.4583  0.7553  1.0456
   55CHL1   H2A 5224   4.689   1.953   4.131  0.0428 -0.5932 -2.4421
   55CHL1   H2B 5225   4.594   2.105   4.109  0.2119  0.8447  1.4066
   55CHL1   C20 5226   4.107   1.866   4.946  0.0562 -0.8774 -0.5814
   55CHL1   H20 5227   4.055   1.963   4.947  0.0912 -0.8585 -0.5123
   55CHL1   C21 5228   4.251   1.886   4.996 -0.7765 -0.1027 -0.6577
   55CHL1  H21A 5229   4.251   1.932   5.097  1.4907 -0.6325 -0.3515
   55CHL1  H21B 5230   4.296   1.968   4.937  0.2056  0.7933  1.2281
   55CHL1  H21C 5231   4.312   1.795   4.979 -0.2277 -0.1243  1.1529
   55CHL1   C22 5232   4.036   1.767   5.043 -0.4025  0.3883 -0.5173
   55CHL1  H22A 5233   3.938   1.724   5.014 -1.3113  1.6365  0.5583
   55CHL1  H22B 5234   4.114   1.689   5.042  2.3297  2.7943  2.1383
   55CHL1   C23 5235   4.016   1.815   5.194 -0.5115 -0.8230 -0.4003
   55CHL1  H23A 5236   4.112   1.860   5.228 -0.9340 -0.3676  0.1959
   55CHL1  H23B 5237   3.945   1.900   5.199 -0.2359 -0.5020 -1.6709
   55CHL1   C24 5238   3.968   1.709   5.291 -0.7726 -0.7959 -1.0326
   55CHL1  H24A 5239   3.864   1.680   5.265 -0.8830 -0.8554 -0.5395
   55CHL1  H24B 5240   4.035   1.621   5.293  0.1036 -0.1337  0.4219
   55CHL1   C25 5241   3.986   1.742   5.442  0.0152 -0.3786  0.3600
   55CHL1   H25 5242   3.927   1.835   5.457 -1.3884 -1.4848  2.1463
   55CHL1   C26 5243   3.908   1.634   5.515  0.8998  0.0949  0.3923
   55CHL1  H26A 5244   3.801   1.630   5.485  1.1283 -1.3147 -0.3058
   55CHL1  H26B 5245   3.942   1.529   5.501  0.6480 -0.1017  1.1994
   55CHL1  H26C 5246   3.919   1.658   5.623  0.0748  0.5045  0.3950
   55CHL1   C27 5247   4.133   1.748   5.486 -0.6367  0.3643  0.1434
   55CHL1  H27A 5248   4.172   1.645   5.478 -3.6312 -0.8141 -0.3458
   55CHL1  H27B 5249   4.196   1.816   5.423  2.2921 -0.7261  1.7078
   55CHL1  H27C 5250   4.126   1.782   5.591 -1.0442 -0.4466  0.3867
   56CHL1    C3 5251   5.453   1.753   4.130 -0.1892 -0.6143 -0.1568
   56CHL1    H3 5252   5.345   1.728   4.141 -0.7769  2.0437  1.1753
   56CHL1    O3 5253   5.489   1.787   3.999 -0.0308  0.5304  0.2746
   56CHL1   H3' 5254   5.585   1.786   4.000 -0.0251  1.4349  1.3714
   56CHL1    C4 5255   5.461   1.871   4.231  0.4054 -0.5278  0.0171
   56CHL1   H4A 5256   5.562   1.915   4.215 -0.0871  0.9413  0.6774
   56CHL1   H4B 5257   5.394   1.957   4.209  1.6827 -0.0911 -2.6121
   56CHL1    C5 5258   5.432   1.833   4.375 -0.0669  0.1447 -0.1634
   56CHL1    C6 5259   5.343   1.891   4.465 -0.1947  0.3228 -0.2456
   56CHL1    H6 5260   5.282   1.981   4.454 -2.0595 -0.4287  2.7854
   56CHL1    C7 5261   5.330   1.860   4.612  0.4030  0.0865  0.7477
   56CHL1   H7A 5262   5.314   1.957   4.664 -0.6385  0.9972 -1.1572
   56CHL1   H7B 5263   5.241   1.795   4.621  0.5646 -0.4541 -1.1281
   56CHL1    C8 5264   5.451   1.775   4.660 -0.1846  0.2722 -0.6243
   56CHL1    H8 5265   5.532   1.845   4.689 -0.4057  1.1495 -2.0301
   56CHL1   C14 5266   5.410   1.697   4.792  0.6000  0.2532 -0.6522
   56CHL1   H14 5267   5.338   1.621   4.754  0.9372 -0.4048 -0.0011
   56CHL1   C15 5268   5.338   1.775   4.905 -0.8515  0.0716 -0.3948
   56CHL1  H15A 5269   5.369   1.879   4.924  0.7224 -0.0200 -2.1768
   56CHL1  H15B 5270   5.231   1.788   4.879 -0.5059 -0.7210 -2.4137
   56CHL1   C16 5271   5.360   1.691   5.031  0.0888 -0.1368  0.5535
   56CHL1  H16A 5272   5.428   1.742   5.103 -0.7816  1.5611  0.2350
   56CHL1  H16B 5273   5.266   1.662   5.081  0.6008  0.2840  1.8113
   56CHL1   C17 5274   5.442   1.570   4.980  0.4975 -0.6276 -0.2847
   56CHL1   H17 5275   5.369   1.492   4.949  2.6653 -3.3785  1.0382
   56CHL1   C13 5276   5.518   1.624   4.860  0.2807  0.2389 -0.5449
   56CHL1   C18 5277   5.635   1.719   4.899 -0.0073 -0.8932 -0.2145
   56CHL1  H18A 5278   5.717   1.666   4.951  2.7871  0.2033 -3.2059
   56CHL1  H18B 5279   5.676   1.763   4.805 -2.4964  0.5933 -0.6931
   56CHL1  H18C 5280   5.597   1.799   4.966 -0.4959  2.2502 -3.8653
   56CHL1   C12 5281   5.565   1.516   4.761  0.3466  0.2204  0.4395
   56CHL1  H12A 5282   5.651   1.463   4.808 -1.5702 -0.6203  3.2772
   56CHL1  H12B 5283   5.486   1.445   4.728 -0.5824  2.0557 -1.5820
   56CHL1   C11 5284   5.600   1.571   4.624 -0.3282 -0.0224 -0.1496
   56CHL1  H11A 5285   5.695   1.624   4.643 -0.0007 -1.0834  1.3303
   56CHL1  H11B 5286   5.636   1.495   4.552 -0.7771  0.0609 -0.4720
   56CHL1    C9 5287   5.494   1.671   4.565  0.4182  0.1156  1.2544
   56CHL1    H9 5288   5.401   1.611   4.550 -0.9986  2.3695  0.5401
   56CHL1   C10 5289   5.523   1.718   4.416  0.4065  0.0134 -0.3875
   56CHL1   C19 5290   5.667   1.776   4.424  0.1300  0.5069  0.5664
   56CHL1  H19A 5291   5.677   1.866   4.490 -0.4307  0.3411  0.8817
   56CHL1  H19B 5292   5.745   1.709   4.466  0.7625  1.2400  0.5992
   56CHL1  H19C 5293   5.710   1.807   4.327  1.3504 -0.6997  0.6961
   56CHL1    C1 5294   5.507   1.599   4.315 -0.2205 -0.9302 -0.6830
   56CHL1   H1A 5295   5.578   1.521   4.349  0.2669  1.1663  3.8944
   56CHL1   H1B 5296   5.408   1.549   4.314 -1.1396  0.7756 -0.1371
   56CHL1    C2 5297   5.537   1.630   4.167 -0.6378 -0.7169 -0.0469
   56CHL1   H2A 5298   5.514   1.543   4.102  0.9253 -1.0210 -0.2274
   56CHL1   H2B 5299   5.641   1.662   4.144 -0.4709 -2.3929 -1.9159
   56CHL1   C20 5300   5.526   1.496   5.087  0.0391  0.0948 -0.7644
   56CHL1   H20 5301   5.632   1.530   5.094  0.7201 -2.1683  1.3152
   56CHL1   C21 5302   5.532   1.345   5.037  0.4229  0.5000 -0.7007
   56CHL1  H21A 5303   5.583   1.288   5.118 -0.1677  0.1510 -0.5685
   56CHL1  H21B 5304   5.582   1.323   4.941  1.0505 -1.5087  0.0324
   56CHL1  H21C 5305   5.433   1.295   5.042  0.5551  0.2880 -0.0356
   56CHL1   C22 5306   5.473   1.515   5.227  0.6963  0.2893 -0.7685
   56CHL1  H22A 5307   5.469   1.619   5.267 -2.0183 -0.4193  1.1181
   56CHL1  H22B 5308   5.372   1.471   5.238  1.4745 -1.6887 -0.9565
   56CHL1   C23 5309   5.542   1.438   5.347 -0.3615  0.6321  0.0692
   56CHL1  H23A 5310   5.518   1.331   5.327  1.5536  0.0780  0.5299
   56CHL1  H23B 5311   5.651   1.459   5.346 -0.6343  2.5116  2.2505
   56CHL1   C24 5312   5.501   1.480   5.489 -0.5791 -0.1639  0.1437
   56CHL1  H24A 5313   5.558   1.573   5.511  2.7140 -1.8300 -0.6248
   56CHL1  H24B 5314   5.394   1.509   5.478  0.5630  4.4553 -1.3322
   56CHL1   C25 5315   5.519   1.366   5.585  0.1549  0.1232 -0.2069
   56CHL1   H25 5316   5.474   1.274   5.544  2.4524 -1.7628  1.2397
   56CHL1   C26 5317   5.669   1.340   5.616  0.1481  1.0208 -0.1072
   56CHL1  H26A 5318   5.673   1.256   5.689 -0.6767 -0.3041 -1.5207
   56CHL1  H26B 5319   5.722   1.300   5.527  0.2068  0.0683  0.3426
   56CHL1  H26C 5320   5.707   1.443   5.630 -1.1335  1.7842 -1.9609
   56CHL1   C27 5321   5.444   1.404   5.718  0.5420 -0.6391  0.3235
   56CHL1  H27A 5322   5.489   1.497   5.761 -0.1176  0.0101 -0.3587
   56CHL1  H27B 5323   5.341   1.436   5.691 -0.0455 -1.9150  0.9847
   56CHL1  H27C 5324   5.442   1.327   5.798  1.1712  0.2197  1.1922
   57CHL1    C3 5325   0.385   4.440   4.240 -0.1376 -0.1690  0.2465
   57CHL1    H3 5326   0.308   4.361   4.249  0.7968 -1.1045  0.1775
   57CHL1    O3 5327   0.417   4.455   4.105  0.4006  0.0581  0.2615
   57CHL1   H3' 5328   0.510   4.444   4.088 -0.1838 -0.9707 -2.9348
   57CHL1    C4 5329   0.332   4.572   4.284 -0.3336  0.0384  0.7881
   57CHL1   H4A 5330   0.416   4.639   4.259  0.0683 -1.3463 -1.9604
   57CHL1   H4B 5331   0.240   4.607   4.232 -0.4106 -1.5039 -0.1908
   57CHL1    C5 5332   0.327   4.580   4.436  0.0281  0.1840  0.7479
   57CHL1    C6 5333   0.215   4.615   4.497  0.3116 -0.2692 -1.1670
   57CHL1    H6 5334   0.126   4.648   4.440  0.2752 -1.1631 -1.6379
   57CHL1    C7 5335   0.201   4.634   4.648 -0.6348  0.8517  0.3766
   57CHL1   H7A 5336   0.150   4.729   4.675 -0.9779  0.3931  1.4041
   57CHL1   H7B 5337   0.128   4.560   4.687 -0.5512 -0.1674 -1.3202
   57CHL1    C8 5338   0.337   4.614   4.719 -0.3496  0.3513  0.5489
   57CHL1    H8 5339   0.396   4.706   4.701  0.4718 -0.4011 -0.8000
   57CHL1   C14 5340   0.304   4.587   4.869 -0.5043  0.8035 -0.1332
   57CHL1   H14 5341   0.251   4.490   4.869  0.0208  0.4976 -0.9936
   57CHL1   C15 5342   0.215   4.694   4.936  0.2323 -0.0918  0.6584
   57CHL1  H15A 5343   0.247   4.798   4.912 -0.6070 -0.1362 -0.7255
   57CHL1  H15B 5344   0.108   4.685   4.909  0.2234 -2.2775  1.2258
   57CHL1   C16 5345   0.239   4.666   5.079 -0.0977  0.9073  0.0181
   57CHL1  H16A 5346   0.275   4.758   5.130 -0.6306 -0.1020  2.3103
   57CHL1  H16B 5347   0.136   4.640   5.114 -0.8578  1.9770 -1.3028
   57CHL1   C17 5348   0.343   4.552   5.098 -0.0252  0.1356  0.3777
   57CHL1   H17 5349   0.286   4.457   5.101 -0.6060  0.4145 -1.1406
   57CHL1   C13 5350   0.422   4.556   4.963 -0.1297  0.1946  0.1484
   57CHL1   C18 5351   0.521   4.681   4.978  0.4983 -0.5435  0.3624
   57CHL1  H18A 5352   0.471   4.775   5.009  0.4033 -0.7385  0.8120
   57CHL1  H18B 5353   0.599   4.667   5.056  0.4441 -0.8438  0.3652
   57CHL1  H18C 5354   0.576   4.686   4.882  0.4103 -1.2146  0.2710
   57CHL1   C12 5355   0.501   4.435   4.902  0.5732  0.2298  0.1843
   57CHL1  H12A 5356   0.597   4.424   4.958  1.1749  2.0607 -0.4245
   57CHL1  H12B 5357   0.434   4.348   4.922 -2.0550  1.5422 -2.2939
   57CHL1   C11 5358   0.528   4.456   4.750 -0.3177 -0.0250  0.1227
   57CHL1  H11A 5359   0.613   4.526   4.734  0.1687 -0.6406 -0.0600
   57CHL1  H11B 5360   0.569   4.357   4.721 -0.0734 -0.5331  2.0480
   57CHL1    C9 5361   0.407   4.492   4.654 -0.5681  0.7074 -0.7550
   57CHL1    H9 5362   0.334   4.410   4.673 -1.1998  1.4657  0.2182
   57CHL1   C10 5363   0.448   4.512   4.506 -0.4525  0.5233  1.0695
   57CHL1   C19 5364   0.568   4.611   4.497 -0.2691 -0.8988 -0.6769
   57CHL1  H19A 5365   0.570   4.668   4.402 -0.1052  1.6247  0.7674
   57CHL1  H19B 5366   0.566   4.683   4.582  0.2525 -2.4200  0.6959
   57CHL1  H19C 5367   0.652   4.540   4.516 -0.3692 -1.3488 -1.8573
   57CHL1    C1 5368   0.491   4.367   4.456 -0.3816 -0.4782  0.2247
   57CHL1   H1A 5369   0.581   4.339   4.514  0.1794 -0.6598 -0.7039
   57CHL1   H1B 5370   0.415   4.287   4.468 -0.5611 -0.2797  0.4131
   57CHL1    C2 5371   0.506   4.377   4.310 -0.3608  0.5138  0.3212
   57CHL1   H2A 5372   0.516   4.276   4.264 -0.1656 -0.8034  3.0564
   57CHL1   H2B 5373   0.589   4.444   4.280 -0.7181 -0.5934 -3.7420
   57CHL1   C20 5374   0.413   4.549   5.234  0.2688 -0.8241 -0.1021
   57CHL1   H20 5375   0.481   4.637   5.240 -1.5987  0.5830  2.0511
   57CHL1   C21 5376   0.489   4.418   5.252 -0.0299 -0.0483  0.1873
   57CHL1  H21A 5377   0.540   4.410   5.351  1.0300 -0.8574 -0.3995
   57CHL1  H21B 5378   0.556   4.414   5.164  0.0725 -1.5443  0.2963
   57CHL1  H21C 5379   0.418   4.334   5.233  0.6221 -0.8057  0.9906
   57CHL1   C22 5380   0.309   4.582   5.350  0.2822  0.0294  0.3290
   57CHL1  H22A 5381   0.251   4.675   5.333 -0.6114 -0.5743  0.0290
   57CHL1  H22B 5382   0.239   4.496   5.355 -0.8426  0.5111 -3.7401
   57CHL1   C23 5383   0.376   4.597   5.488 -0.7115  1.2165 -0.0711
   57CHL1  H23A 5384   0.431   4.505   5.517 -0.3996  1.1750 -0.7680
   57CHL1  H23B 5385   0.456   4.674   5.479  1.3818 -1.0638 -2.9721
   57CHL1   C24 5386   0.266   4.637   5.590 -0.9449  0.5446  0.5883
   57CHL1  H24A 5387   0.226   4.738   5.567 -1.5918  0.2673  0.4767
   57CHL1  H24B 5388   0.178   4.569   5.578 -1.2139  0.9830  0.0502
   57CHL1   C25 5389   0.320   4.639   5.732 -0.2140 -0.5943 -0.4437
   57CHL1   H25 5390   0.375   4.545   5.754 -0.3261 -0.6379 -0.3467
   57CHL1   C26 5391   0.423   4.755   5.762  0.5568 -0.4260 -0.1574
   57CHL1  H26A 5392   0.371   4.851   5.746  2.2317  0.4356 -0.6766
   57CHL1  H26B 5393   0.456   4.767   5.868 -3.2174  0.1032  1.1005
   57CHL1  H26C 5394   0.506   4.747   5.689  0.1665  1.1809 -0.8192
   57CHL1   C27 5395   0.192   4.645   5.832 -0.4865  0.0437  0.6628
   57CHL1  H27A 5396   0.115   4.567   5.816 -0.7156  0.3011  0.4911
   57CHL1  H27B 5397   0.239   4.625   5.931  3.0998  1.6830 -0.5343
   57CHL1  H27C 5398   0.137   4.740   5.814 -0.1151  0.0743 -0.3955
   58CHL1    C3 5399   2.281   1.878   3.964 -0.4571 -0.6095 -0.7109
   58CHL1    H3 5400   2.172   1.859   3.951 -0.8476  0.6853  0.5053
   58CHL1    O3 5401   2.339   1.864   3.832  0.2411 -0.8010  0.1247
   58CHL1   H3' 5402   2.433   1.852   3.848  0.3932  1.2379  1.0227
   58CHL1    C4 5403   2.300   2.014   4.025 -0.0979  0.1885 -0.1589
   58CHL1   H4A 5404   2.409   2.036   4.025  0.1575 -0.8809  1.5473
   58CHL1   H4B 5405   2.244   2.085   3.960 -0.5824 -0.7884 -0.8244
   58CHL1    C5 5406   2.247   2.036   4.166  1.2305  0.7421 -0.2915
   58CHL1    C6 5407   2.172   2.139   4.200  0.4175  0.3133 -1.0630
   58CHL1    H6 5408   2.130   2.186   4.110  0.7044 -0.6948 -1.7371
   58CHL1    C7 5409   2.118   2.176   4.337  0.5029 -0.2502 -0.3998
   58CHL1   H7A 5410   2.132   2.285   4.358  1.2305 -0.2497 -0.8436
   58CHL1   H7B 5411   2.009   2.156   4.340  0.1921  1.3341  1.2595
   58CHL1    C8 5412   2.187   2.094   4.448 -0.1924 -0.1172 -0.3545
   58CHL1    H8 5413   2.283   2.147   4.465  1.1737 -2.2175 -1.0966
   58CHL1   C14 5414   2.101   2.088   4.569 -0.1420 -0.1852 -0.2872
   58CHL1   H14 5415   2.006   2.031   4.553  0.0089 -0.1462 -1.4119
   58CHL1   C15 5416   2.039   2.219   4.613  0.3091  0.5557 -0.0050
   58CHL1  H15A 5417   2.120   2.295   4.622  0.1250  0.6924  0.6094
   58CHL1  H15B 5418   1.958   2.252   4.545 -0.5879  1.0467  1.2459
   58CHL1   C16 5419   2.001   2.190   4.757  0.4747  0.0455 -0.1294
   58CHL1  H16A 5420   2.051   2.271   4.815  1.2910  0.3890 -1.2755
   58CHL1  H16B 5421   1.895   2.203   4.788  0.6951 -0.0411  0.6946
   58CHL1   C17 5422   2.068   2.055   4.801 -0.5965 -0.2780  0.5680
   58CHL1   H17 5423   1.992   1.977   4.782  0.9818 -1.9353  0.8595
   58CHL1   C13 5424   2.171   2.023   4.692 -0.2604 -0.4421  0.2798
   58CHL1   C18 5425   2.305   2.091   4.724  0.1898 -0.6999 -0.4548
   58CHL1  H18A 5426   2.284   2.197   4.752  3.5514 -0.2258  0.7924
   58CHL1  H18B 5427   2.353   2.047   4.815 -0.6125  0.5940  0.6293
   58CHL1  H18C 5428   2.384   2.086   4.646 -0.2547 -0.1398 -0.9476
   58CHL1   C12 5429   2.203   1.878   4.645  0.5675 -0.6150 -0.2526
   58CHL1  H12A 5430   2.250   1.823   4.729  1.4075 -2.5601 -1.9112
   58CHL1  H12B 5431   2.107   1.828   4.620  0.2978 -0.2278 -0.0069
   58CHL1   C11 5432   2.287   1.865   4.522 -0.3361 -0.1482  0.3112
   58CHL1  H11A 5433   2.387   1.908   4.542 -0.5850  0.4104  0.3811
   58CHL1  H11B 5434   2.311   1.764   4.482  1.1929  0.7683 -1.2170
   58CHL1    C9 5435   2.226   1.945   4.407 -0.4497  0.5456 -0.6306
   58CHL1    H9 5436   2.127   1.895   4.402 -0.0867 -0.6315  2.0080
   58CHL1   C10 5437   2.298   1.937   4.266 -0.4462  0.2212 -0.5223
   58CHL1   C19 5438   2.455   1.960   4.288  0.8662 -0.1030  0.6016
   58CHL1  H19A 5439   2.494   1.887   4.361 -0.6852  0.3234  1.9374
   58CHL1  H19B 5440   2.514   1.939   4.196  0.7212  1.2015  0.1824
   58CHL1  H19C 5441   2.492   2.061   4.315  0.8513  0.5870 -1.6882
   58CHL1    C1 5442   2.274   1.794   4.202  0.4396  0.6687 -0.1568
   58CHL1   H1A 5443   2.322   1.714   4.263  0.1105 -0.5547 -1.4440
   58CHL1   H1B 5444   2.166   1.770   4.193  1.3349 -4.3848 -0.5811
   58CHL1    C2 5445   2.337   1.768   4.058 -0.1610 -0.4568  0.5513
   58CHL1   H2A 5446   2.305   1.669   4.019  0.5853 -0.5101  0.0677
   58CHL1   H2B 5447   2.447   1.758   4.068  0.0351 -1.9870 -2.2134
   58CHL1   C20 5448   2.111   2.038   4.952 -0.0176 -0.3241 -0.0357
   58CHL1   H20 5449   2.202   1.974   4.958  0.5366  0.4839  0.2612
   58CHL1   C21 5450   2.003   1.946   5.024  0.0457  0.5594 -0.3460
   58CHL1  H21A 5451   1.999   1.859   4.954  0.4252  0.5939 -0.4111
   58CHL1  H21B 5452   1.903   1.993   5.024  0.0935  0.6727  0.7049
   58CHL1  H21C 5453   2.022   1.910   5.127 -0.2002  3.8957  0.9874
   58CHL1   C22 5454   2.139   2.173   5.023 -0.3575  0.1836 -0.1505
   58CHL1  H22A 5455   2.217   2.221   4.960 -0.3729  1.2953  0.6514
   58CHL1  H22B 5456   2.046   2.234   5.020 -0.5269  0.4781  4.2297
   58CHL1   C23 5457   2.177   2.159   5.170  0.8430 -0.3009 -0.2759
   58CHL1  H23A 5458   2.115   2.088   5.228  2.5574 -1.2619  0.4590
   58CHL1  H23B 5459   2.272   2.102   5.176 -0.5599 -2.8056 -0.6472
   58CHL1   C24 5460   2.170   2.290   5.249 -0.1730 -0.0060 -0.4416
   58CHL1  H24A 5461   2.259   2.346   5.212 -0.5573 -0.3453 -1.9571
   58CHL1  H24B 5462   2.083   2.351   5.220  1.4675  2.7456  0.0823
   58CHL1   C25 5463   2.162   2.282   5.404 -0.0628  0.3535 -0.4654
   58CHL1   H25 5464   2.063   2.236   5.424  0.0473  0.7811  1.2164
   58CHL1   C26 5465   2.277   2.210   5.465 -0.6571 -0.4224 -0.2502
   58CHL1  H26A 5466   2.375   2.239   5.422 -0.2856 -4.0733 -2.1881
   58CHL1  H26B 5467   2.279   2.208   5.576  0.0726  2.2324 -0.1361
   58CHL1  H26C 5468   2.271   2.104   5.435  1.7999  0.0914 -2.9159
   58CHL1   C27 5469   2.149   2.418   5.477  0.5030 -1.0309 -0.0591
   58CHL1  H27A 5470   2.115   2.404   5.581  1.0046 -0.6337  0.1660
   58CHL1  H27B 5471   2.244   2.476   5.484 -1.1853  1.9082 -0.0533
   58CHL1  H27C 5472   2.083   2.486   5.419  1.3689  1.0279  1.2605
   59CHL1    C3 5473   1.525   6.090   3.891  0.2740 -0.2139 -0.7978
   59CHL1    H3 5474   1.417   6.114   3.901  0.1378 -0.7852 -0.8580
   59CHL1    O3 5475   1.579   6.055   3.762  0.6439 -0.0108  0.1301
   59CHL1   H3' 5476   1.642   6.123   3.739  1.4102 -1.5895 -2.9139
   59CHL1    C4 5477   1.598   6.205   3.956 -0.3735 -0.5014  0.2946
   59CHL1   H4A 5478   1.707   6.181   3.952 -0.0358 -0.1917  4.1146
   59CHL1   H4B 5479   1.578   6.284   3.880 -1.2544 -0.4543  0.5721
   59CHL1    C5 5480   1.581   6.234   4.103 -0.2699 -0.8845 -0.3682
   59CHL1    C6 5481   1.545   6.351   4.154 -0.4230 -0.3546  0.3698
   59CHL1    H6 5482   1.525   6.436   4.087  0.0747  0.0575  0.7320
   59CHL1    C7 5483   1.531   6.385   4.297 -0.6778  0.0221  0.0217
   59CHL1   H7A 5484   1.582   6.479   4.327  1.3307  0.1756 -3.3267
   59CHL1   H7B 5485   1.425   6.401   4.323 -0.4929  3.5083 -0.8871
   59CHL1    C8 5486   1.575   6.265   4.382 -0.8621 -0.1067 -0.1224
   59CHL1    H8 5487   1.686   6.269   4.380 -0.7776 -1.8636 -0.0761
   59CHL1   C14 5488   1.520   6.280   4.527 -0.2731  0.0856 -0.2592
   59CHL1   H14 5489   1.410   6.268   4.520 -0.3405 -0.2995  1.0889
   59CHL1   C15 5490   1.553   6.416   4.596  0.2069  1.2899 -0.0472
   59CHL1  H15A 5491   1.658   6.445   4.576 -0.0343  0.5469 -2.7324
   59CHL1  H15B 5492   1.494   6.500   4.555  2.8164  2.7218 -1.0848
   59CHL1   C16 5493   1.529   6.389   4.747  0.0993 -0.2440  0.7198
   59CHL1  H16A 5494   1.623   6.409   4.802 -0.1193  2.1164  0.3213
   59CHL1  H16B 5495   1.444   6.451   4.781  0.8477  1.4730 -0.3777
   59CHL1   C17 5496   1.491   6.240   4.762  0.1085 -0.0503  0.5032
   59CHL1   H17 5497   1.385   6.234   4.729 -0.2081 -0.1244  1.5084
   59CHL1   C13 5498   1.555   6.173   4.638  0.0987  0.0244 -0.4469
   59CHL1   C18 5499   1.709   6.165   4.654 -0.3511 -0.1629 -0.3408
   59CHL1  H18A 5500   1.753   6.263   4.683 -0.3877  0.0941 -1.1299
   59CHL1  H18B 5501   1.733   6.087   4.729  0.6494 -0.5698 -1.0584
   59CHL1  H18C 5502   1.754   6.121   4.562 -0.0828 -0.6470  0.0179
   59CHL1   C12 5503   1.504   6.036   4.585  0.4434 -1.0248 -0.5820
   59CHL1  H12A 5504   1.547   5.949   4.639  2.2384  0.2541  0.1276
   59CHL1  H12B 5505   1.394   6.051   4.574  0.4795  2.9696  2.2074
   59CHL1   C11 5506   1.542   6.007   4.440 -0.4045 -0.0215 -0.0270
   59CHL1  H11A 5507   1.648   5.973   4.449 -1.0068 -1.7353  0.9705
   59CHL1  H11B 5508   1.478   5.925   4.401 -0.5322  0.0382  0.0576
   59CHL1    C9 5509   1.528   6.130   4.336 -0.1642 -0.6811  0.7178
   59CHL1    H9 5510   1.417   6.137   4.333 -0.0925  0.3325 -0.1245
   59CHL1   C10 5511   1.588   6.107   4.194 -0.0417 -0.0221 -0.6227
   59CHL1   C19 5512   1.733   6.063   4.216  0.6818 -0.0093  0.1777
   59CHL1  H19A 5513   1.744   5.957   4.247  2.1441 -0.2690 -1.0909
   59CHL1  H19B 5514   1.793   6.083   4.125  0.8823  0.7635  0.4684
   59CHL1  H19C 5515   1.791   6.124   4.289  0.3214  0.8569 -0.2355
   59CHL1    C1 5516   1.505   5.989   4.127  0.4165 -0.4457  0.4782
   59CHL1   H1A 5517   1.534   5.892   4.173 -2.9924 -2.4193 -1.0922
   59CHL1   H1B 5518   1.396   6.010   4.137  0.7739  2.9428 -1.2823
   59CHL1    C2 5519   1.538   5.967   3.976  0.2281  0.4672 -0.3695
   59CHL1   H2A 5520   1.475   5.887   3.932  1.7597  0.9900 -3.9078
   59CHL1   H2B 5521   1.644   5.932   3.975 -0.2135 -1.0334  0.9835
   59CHL1   C20 5522   1.495   6.179   4.899  0.3029  0.4220  0.1007
   59CHL1   H20 5523   1.503   6.068   4.897  0.8195  0.4661 -0.8805
   59CHL1   C21 5524   1.374   6.224   4.983 -0.1231 -0.3335 -0.1030
   59CHL1  H21A 5525   1.391   6.325   5.025  0.3624 -0.3584 -0.2411
   59CHL1  H21B 5526   1.354   6.151   5.064  0.6059 -0.1291  0.2721
   59CHL1  H21C 5527   1.276   6.224   4.930  0.4352  3.1232 -1.3604
   59CHL1   C22 5528   1.625   6.222   4.974  0.2756 -0.0231  0.0527
   59CHL1  H22A 5529   1.716   6.200   4.915  0.6299  1.8795 -0.1888
   59CHL1  H22B 5530   1.622   6.332   4.991  1.4655  0.1427 -0.6940
   59CHL1   C23 5531   1.632   6.141   5.108 -0.0103 -1.0175  0.3717
   59CHL1  H23A 5532   1.546   6.154   5.178  1.0996  1.4877  1.3902
   59CHL1  H23B 5533   1.643   6.032   5.088  0.9806 -1.3989  2.5864
   59CHL1   C24 5534   1.756   6.172   5.186 -0.0014  0.5855  0.2899
   59CHL1  H24A 5535   1.848   6.145   5.129 -1.5951 -1.9471 -1.3127
   59CHL1  H24B 5536   1.748   6.282   5.191 -0.0339  0.6533 -0.8442
   59CHL1   C25 5537   1.769   6.115   5.335 -0.2425  0.7452  0.8446
   59CHL1   H25 5538   1.680   6.144   5.396 -0.3646  0.6430  0.7131
   59CHL1   C26 5539   1.751   5.965   5.331  0.2407  0.1554  0.0769
   59CHL1  H26A 5540   1.760   5.911   5.428  1.0885 -1.1192 -0.6794
   59CHL1  H26B 5541   1.655   5.941   5.282  0.1507  0.1397  0.2623
   59CHL1  H26C 5542   1.831   5.923   5.266 -0.5715 -0.5243 -0.4870
   59CHL1   C27 5543   1.891   6.166   5.411 -0.7737 -0.1843 -0.1570
   59CHL1  H27A 5544   1.900   6.122   5.512  0.7584  1.3409  0.4153
   59CHL1  H27B 5545   1.989   6.147   5.360  0.3973  2.0897  1.1139
   59CHL1  H27C 5546   1.892   6.276   5.421 -2.2301 -0.1795  0.1733
   60CHL1    C3 5547   1.389   3.040   3.855  0.7406  0.5698 -1.1591
   60CHL1    H3 5548   1.282   3.018   3.873  0.5736  0.9952 -1.5985
   60CHL1    O3 5549   1.412   3.009   3.721  0.4630  0.3813  0.2685
   60CHL1   H3' 5550   1.357   2.933   3.703 -1.0807  1.4503  0.3251
   60CHL1    C4 5551   1.424   3.185   3.900  0.3831  0.3652 -0.1085
   60CHL1   H4A 5552   1.530   3.212   3.877  0.1854  0.5058 -0.8865
   60CHL1   H4B 5553   1.361   3.253   3.838  0.4069  0.3850 -0.1113
   60CHL1    C5 5554   1.392   3.209   4.045 -0.7093  0.0460 -0.1041
   60CHL1    C6 5555   1.323   3.310   4.091 -0.0225  0.3683  0.3620
   60CHL1    H6 5556   1.286   3.390   4.025  1.6433  0.0040 -1.1016
   60CHL1    C7 5557   1.298   3.333   4.233  0.0027  0.4612 -0.0851
   60CHL1   H7A 5558   1.316   3.437   4.269 -3.7055  0.5142  2.1036
   60CHL1   H7B 5559   1.194   3.305   4.260 -0.3239  1.3917 -0.3203
   60CHL1    C8 5560   1.391   3.254   4.325 -0.2942  0.4189 -0.0211
   60CHL1    H8 5561   1.493   3.298   4.326  1.2548 -2.8493 -0.0673
   60CHL1   C14 5562   1.341   3.247   4.471  0.5188 -0.4475  0.8522
   60CHL1   H14 5563   1.247   3.187   4.467 -1.0287  1.6103  3.3303
   60CHL1   C15 5564   1.301   3.377   4.534 -0.4052  0.1483 -0.1824
   60CHL1  H15A 5565   1.383   3.452   4.533 -0.0684 -0.1297  1.5904
   60CHL1  H15B 5566   1.220   3.439   4.490  1.7063  2.2473 -1.3376
   60CHL1   C16 5567   1.271   3.348   4.683  0.1651  0.0366 -0.3081
   60CHL1  H16A 5568   1.335   3.414   4.745  1.2318 -1.5880  0.3791
   60CHL1  H16B 5569   1.167   3.366   4.717  0.4615 -1.4884  1.5411
   60CHL1   C17 5570   1.335   3.208   4.714 -0.6555 -0.0185 -0.1078
   60CHL1   H17 5571   1.262   3.124   4.717 -1.1350  0.4141  1.3178
   60CHL1   C13 5572   1.422   3.175   4.584  0.0298 -0.9012 -0.4827
   60CHL1   C18 5573   1.560   3.239   4.602  0.0801  0.4887  0.6834
   60CHL1  H18A 5574   1.615   3.188   4.683  0.2784 -2.8664 -1.3857
   60CHL1  H18B 5575   1.620   3.232   4.509 -1.0254  0.3356 -0.0355
   60CHL1  H18C 5576   1.548   3.343   4.640  0.4155  1.5183 -1.8297
   60CHL1   C12 5577   1.431   3.032   4.531 -0.0522  0.1285 -0.1712
   60CHL1  H12A 5578   1.490   2.969   4.600 -0.2155  0.8296  0.6325
   60CHL1  H12B 5579   1.326   2.995   4.524 -0.9352  2.0355  1.7277
   60CHL1   C11 5580   1.498   3.032   4.387 -0.6259  0.4051  0.2534
   60CHL1  H11A 5581   1.602   3.072   4.392 -0.3176 -0.4878  2.1994
   60CHL1  H11B 5582   1.511   2.928   4.352  3.2861  0.5077  0.9739
   60CHL1    C9 5583   1.414   3.110   4.282  0.6239  0.7627 -0.2099
   60CHL1    H9 5584   1.318   3.056   4.286  0.6259  0.8062  0.5506
   60CHL1   C10 5585   1.455   3.101   4.134  0.4745 -0.0384 -0.7187
   60CHL1   C19 5586   1.607   3.124   4.129 -0.5275  0.2262 -0.1604
   60CHL1  H19A 5587   1.634   3.226   4.163  1.3876  0.0104 -0.9441
   60CHL1  H19B 5588   1.671   3.055   4.187  1.1093  2.9020  1.4748
   60CHL1  H19C 5589   1.635   3.110   4.022 -0.3119 -0.4712 -0.0152
   60CHL1    C1 5590   1.423   2.955   4.085  0.7743  0.1147 -0.2911
   60CHL1   H1A 5591   1.485   2.885   4.145  0.6851  0.5435  0.3228
   60CHL1   H1B 5592   1.320   2.926   4.116  1.2565  0.3006  1.6642
   60CHL1    C2 5593   1.456   2.935   3.942 -0.1825  0.5713 -0.4034
   60CHL1   H2A 5594   1.420   2.837   3.903 -2.5975  1.5350 -0.7382
   60CHL1   H2B 5595   1.566   2.933   3.925 -0.2573  0.6622 -0.9103
   60CHL1   C20 5596   1.403   3.205   4.851 -0.2324  0.3980 -0.6748
   60CHL1   H20 5597   1.490   3.273   4.865  0.4233 -0.0872 -2.2273
   60CHL1   C21 5598   1.461   3.060   4.879 -0.4994 -0.3889 -0.4589
   60CHL1  H21A 5599   1.519   3.056   4.974 -1.0802 -0.6529 -0.1098
   60CHL1  H21B 5600   1.539   3.027   4.807  0.9768  1.0744  0.3915
   60CHL1  H21C 5601   1.376   2.988   4.880 -2.1421  1.4741  0.7381
   60CHL1   C22 5602   1.303   3.234   4.965 -0.0366 -0.3058  0.2111
   60CHL1  H22A 5603   1.268   3.340   4.964 -1.1444 -0.6650 -0.4726
   60CHL1  H22B 5604   1.212   3.170   4.959 -0.2319 -0.0025 -0.0968
   60CHL1   C23 5605   1.365   3.217   5.110  0.3757 -0.3501 -0.1976
   60CHL1  H23A 5606   1.411   3.118   5.133  0.6406  0.0178  0.9018
   60CHL1  H23B 5607   1.443   3.296   5.108  1.2293 -1.0559 -4.2385
   60CHL1   C24 5608   1.252   3.227   5.214  0.8403 -0.5413  0.5526
   60CHL1  H24A 5609   1.192   3.318   5.192 -0.0947 -1.1947  0.3112
   60CHL1  H24B 5610   1.176   3.148   5.201  0.1599  0.5019 -2.9111
   60CHL1   C25 5611   1.309   3.239   5.354 -0.1634 -0.1429 -0.6461
   60CHL1   H25 5612   1.397   3.306   5.356 -1.0238  1.0204  1.1833
   60CHL1   C26 5613   1.217   3.307   5.456  0.1911 -0.2844 -0.0177
   60CHL1  H26A 5614   1.259   3.307   5.559  1.4791  0.6791 -0.5162
   60CHL1  H26B 5615   1.190   3.410   5.426  2.3506 -0.1956 -1.9023
   60CHL1  H26C 5616   1.123   3.247   5.465 -0.0397  0.0800  0.0139
   60CHL1   C27 5617   1.344   3.099   5.398 -0.1128  0.4132 -0.0828
   60CHL1  H27A 5618   1.254   3.035   5.403 -0.0809  0.4844  3.3869
   60CHL1  H27B 5619   1.419   3.050   5.331  0.1197  0.4919  0.1162
   60CHL1  H27C 5620   1.385   3.095   5.501 -1.0054 -0.3598  0.2580
   61CHL1    C3 5621   6.844   1.554   4.193  0.3067  0.7186  1.2923
   61CHL1    H3 5622   6.806   1.642   4.250  2.8779  2.9118 -0.1837
   61CHL1    O3 5623   6.783   1.540   4.069  0.2979  0.6731  0.1838
   61CHL1   H3' 5624   6.838   1.476   4.024  0.7598  0.8068  0.5539
   61CHL1    C4 5625   6.998   1.578   4.183 -0.6770 -0.1859  0.7939
   61CHL1   H4A 5626   7.031   1.488   4.127 -0.6010 -0.9001  1.9458
   61CHL1   H4B 5627   7.023   1.668   4.122  2.6804 -0.8213  1.0214
   61CHL1    C5 5628   7.076   1.587   4.309 -0.4651  0.4163 -0.3622
   61CHL1    C6 5629   7.147   1.695   4.350 -0.5450  0.5125  0.2163
   61CHL1    H6 5630   7.147   1.776   4.276  0.7347 -0.9502 -1.4807
   61CHL1    C7 5631   7.221   1.704   4.482  0.3372  0.5019  0.2761
   61CHL1   H7A 5632   7.325   1.736   4.459  1.0200 -1.2997  0.7127
   61CHL1   H7B 5633   7.177   1.771   4.559 -1.1107  0.4616 -0.4687
   61CHL1    C8 5634   7.241   1.565   4.547 -0.0359  0.2412  0.1920
   61CHL1    H8 5635   7.324   1.516   4.491  0.5341  1.7978 -0.3793
   61CHL1   C14 5636   7.277   1.584   4.694  0.1905  0.3315 -0.3127
   61CHL1   H14 5637   7.199   1.643   4.746  1.3124  1.8907 -0.3357
   61CHL1   C15 5638   7.408   1.657   4.721 -0.3572 -0.2597 -0.2243
   61CHL1  H15A 5639   7.495   1.632   4.656 -1.3188  2.2456 -2.6502
   61CHL1  H15B 5640   7.394   1.765   4.701  2.6167  0.3552  0.4822
   61CHL1   C16 5641   7.448   1.626   4.865  0.0744 -0.9480 -0.3418
   61CHL1  H16A 5642   7.549   1.583   4.879  0.7676  0.7810  0.2954
   61CHL1  H16B 5643   7.446   1.717   4.930 -1.9879 -0.1735 -1.3861
   61CHL1   C17 5644   7.341   1.510   4.912 -0.5065  0.0474 -0.0166
   61CHL1   H17 5645   7.251   1.566   4.946 -0.6459 -0.7855  1.0220
   61CHL1   C13 5646   7.300   1.453   4.773  1.3389 -0.9292  0.2123
   61CHL1   C18 5647   7.418   1.363   4.723 -0.1011  0.0469 -0.7767
   61CHL1  H18A 5648   7.430   1.278   4.794  0.0999  1.0579  0.4509
   61CHL1  H18B 5649   7.390   1.329   4.621 -1.6125  2.4235 -1.2194
   61CHL1  H18C 5650   7.515   1.418   4.724 -1.0427  1.8004  0.9528
   61CHL1   C12 5651   7.171   1.369   4.766  0.4372  0.0355 -0.2657
   61CHL1  H12A 5652   7.205   1.269   4.799 -1.0826  0.6022  3.5557
   61CHL1  H12B 5653   7.093   1.415   4.830  0.9107 -0.6476  0.8130
   61CHL1   C11 5654   7.131   1.353   4.619 -0.6440  0.0913 -0.0745
   61CHL1  H11A 5655   7.207   1.283   4.579 -1.5067 -1.3235  0.6644
   61CHL1  H11B 5656   7.038   1.293   4.610 -0.2602 -0.6328  0.6523
   61CHL1    C9 5657   7.113   1.485   4.543 -0.7797  0.6409 -0.2169
   61CHL1    H9 5658   7.037   1.532   4.608 -1.3946 -0.7104  0.0845
   61CHL1   C10 5659   7.055   1.467   4.401 -0.3553  1.0714 -0.2004
   61CHL1   C19 5660   7.134   1.342   4.331 -0.0062  0.2898  0.5460
   61CHL1  H19A 5661   7.113   1.322   4.224 -0.7250  0.9227  0.5590
   61CHL1  H19B 5662   7.244   1.355   4.342  0.0792  0.3691 -0.3733
   61CHL1  H19C 5663   7.102   1.248   4.381  1.8816 -2.1196 -2.4012
   61CHL1    C1 5664   6.902   1.424   4.405  0.6787  0.5642  0.2091
   61CHL1   H1A 5665   6.883   1.325   4.452 -2.6648  0.9883 -0.0222
   61CHL1   H1B 5666   6.854   1.500   4.471  0.7591  1.3025 -0.5763
   61CHL1    C2 5667   6.829   1.420   4.272  0.2662 -0.8906 -0.1675
   61CHL1   H2A 5668   6.721   1.403   4.294  0.6408 -3.9631 -0.3177
   61CHL1   H2B 5669   6.866   1.338   4.207  2.6440 -0.1167  0.1397
   61CHL1   C20 5670   7.377   1.423   5.030 -1.0837 -0.3018 -0.2296
   61CHL1   H20 5671   7.456   1.349   5.002 -2.0813 -0.7915 -1.8622
   61CHL1   C21 5672   7.251   1.340   5.070 -0.0014 -0.5285  0.4983
   61CHL1  H21A 5673   7.229   1.254   5.003 -1.0505 -0.3081  0.5399
   61CHL1  H21B 5674   7.163   1.408   5.073  0.0637 -0.4176 -0.0528
   61CHL1  H21C 5675   7.265   1.297   5.171  0.0899 -0.0686  0.6845
   61CHL1   C22 5676   7.446   1.504   5.153 -0.1527 -0.3700  0.0645
   61CHL1  H22A 5677   7.535   1.555   5.110 -0.6446  0.2508 -0.2077
   61CHL1  H22B 5678   7.379   1.582   5.193 -0.3916 -0.0468 -0.9444
   61CHL1   C23 5679   7.502   1.411   5.263 -0.1933 -0.2634 -0.2763
   61CHL1  H23A 5680   7.419   1.358   5.314 -1.0031  1.5849  0.4135
   61CHL1  H23B 5681   7.561   1.328   5.219  0.0384 -0.8986  1.1717
   61CHL1   C24 5682   7.602   1.473   5.366 -1.0247 -0.2714 -0.3199
   61CHL1  H24A 5683   7.678   1.539   5.318  1.7224 -2.9006  0.1230
   61CHL1  H24B 5684   7.545   1.543   5.431  0.3616  3.6049 -2.8863
   61CHL1   C25 5685   7.679   1.381   5.466 -0.1402 -0.0429 -0.5146
   61CHL1   H25 5686   7.731   1.445   5.540 -3.1873 -0.5891  2.3383
   61CHL1   C26 5687   7.577   1.297   5.547  0.1750 -0.3510  0.2901
   61CHL1  H26A 5688   7.510   1.360   5.610  1.8537  1.6015  0.2267
   61CHL1  H26B 5689   7.523   1.230   5.477  0.3724 -0.7335  0.4957
   61CHL1  H26C 5690   7.640   1.234   5.614  1.0681  1.1424  0.9097
   61CHL1   C27 5691   7.778   1.295   5.382  0.0735 -0.6440  0.1533
   61CHL1  H27A 5692   7.844   1.353   5.314  1.5764 -3.0891 -0.6096
   61CHL1  H27B 5693   7.848   1.246   5.452  0.9880  1.0829  0.5120
   61CHL1  H27C 5694   7.718   1.222   5.323 -1.3911 -0.7674  1.7139
   62CHL1    C3 5695   2.201   0.693   4.230 -0.3287  0.1612 -0.7587
   62CHL1    H3 5696   2.271   0.616   4.268 -0.3503  0.5433  0.0873
   62CHL1    O3 5697   2.179   0.680   4.090 -0.6292 -0.8383 -0.0104
   62CHL1   H3' 5698   2.107   0.740   4.071  0.0887  0.5900  1.5693
   62CHL1    C4 5699   2.064   0.680   4.311 -0.5257 -0.2609  0.5082
   62CHL1   H4A 5700   1.996   0.757   4.269 -0.3136  0.0406  0.7173
   62CHL1   H4B 5701   2.013   0.583   4.292 -2.0956  0.1766  2.1170
   62CHL1    C5 5702   2.088   0.696   4.459 -0.3113  0.0310  0.1500
   62CHL1    C6 5703   2.063   0.606   4.554  0.9875 -0.6108  0.7254
   62CHL1    H6 5704   2.026   0.509   4.520  0.7151 -0.9273  1.9062
   62CHL1    C7 5705   2.088   0.618   4.696 -0.2519 -0.3569 -0.2279
   62CHL1   H7A 5706   2.009   0.575   4.761  0.6612  2.8710  3.3773
   62CHL1   H7B 5707   2.183   0.567   4.723  0.7907  0.8937 -1.3867
   62CHL1    C8 5708   2.104   0.767   4.737 -0.0236  0.0265 -0.2505
   62CHL1    H8 5709   2.001   0.809   4.730  0.1106  0.4479  0.2076
   62CHL1   C14 5710   2.143   0.774   4.883  0.0095  0.6537 -0.4098
   62CHL1   H14 5711   2.241   0.722   4.896  0.4638  1.3976 -0.7315
   62CHL1   C15 5712   2.051   0.703   4.987  0.3899  0.5423 -0.1166
   62CHL1  H15A 5713   1.946   0.724   4.956 -0.2273 -1.2705  0.6450
   62CHL1  H15B 5714   2.060   0.593   4.991 -2.5348  0.2638  2.2767
   62CHL1   C16 5715   2.100   0.753   5.125  0.6417 -0.3982 -0.5429
   62CHL1  H16A 5716   2.005   0.774   5.179  2.0761  1.2000  1.4680
   62CHL1  H16B 5717   2.162   0.679   5.178  2.1759  1.6860  0.7464
   62CHL1   C17 5718   2.183   0.889   5.096  0.3070  0.0355 -0.6818
   62CHL1   H17 5719   2.290   0.858   5.103 -0.0385 -1.1058 -0.1414
   62CHL1   C13 5720   2.154   0.914   4.944 -0.1777 -0.0508  0.1637
   62CHL1   C18 5721   2.026   0.999   4.923  0.3210 -0.5366  0.1355
   62CHL1  H18A 5722   1.943   0.955   4.982  0.6008 -0.1627  0.8216
   62CHL1  H18B 5723   2.042   1.104   4.955 -1.2121 -0.1765 -0.1684
   62CHL1  H18C 5724   1.996   1.009   4.816 -0.6821  1.0334  0.5193
   62CHL1   C12 5725   2.271   0.985   4.857  0.8461  0.2336  0.2960
   62CHL1  H12A 5726   2.292   1.086   4.898 -0.3598  1.8603 -2.7705
   62CHL1  H12B 5727   2.364   0.929   4.881  0.3667 -0.7120  0.0136
   62CHL1   C11 5728   2.236   0.979   4.702  0.2022 -0.0487 -0.0084
   62CHL1  H11A 5729   2.161   1.058   4.682  2.1808  2.1397  0.7485
   62CHL1  H11B 5730   2.325   1.024   4.652 -0.3423 -0.0817 -1.0275
   62CHL1    C9 5731   2.203   0.836   4.651  0.5578  0.4656 -0.7698
   62CHL1    H9 5732   2.298   0.779   4.654 -0.0068 -0.5139 -0.9042
   62CHL1   C10 5733   2.160   0.835   4.500 -0.1749  0.4395  0.2433
   62CHL1   C19 5734   2.054   0.945   4.470 -0.3509  0.3721 -0.4119
   62CHL1  H19A 5735   1.968   0.942   4.541 -0.3583  2.3408 -0.2842
   62CHL1  H19B 5736   2.107   1.043   4.475  1.1340 -0.4062 -0.5024
   62CHL1  H19C 5737   2.023   0.938   4.364  1.7304  0.1830 -1.0543
   62CHL1    C1 5738   2.289   0.850   4.405  0.1434 -0.2479  0.1928
   62CHL1   H1A 5739   2.330   0.951   4.424 -0.8665  0.0703  0.7414
   62CHL1   H1B 5740   2.367   0.780   4.443 -0.3615  0.2223  2.2251
   62CHL1    C2 5741   2.262   0.831   4.255  0.4144  0.0054 -0.0472
   62CHL1   H2A 5742   2.354   0.845   4.194 -0.0436  1.4092 -0.4544
   62CHL1   H2B 5743   2.190   0.910   4.225  1.1298  0.1432 -1.4652
   62CHL1   C20 5744   2.154   0.993   5.200  0.1146 -0.0738 -0.6488
   62CHL1   H20 5745   2.043   0.999   5.199 -0.0336 -2.1499 -0.6710
   62CHL1   C21 5746   2.227   1.128   5.169  0.2663 -0.3079  0.2023
   62CHL1  H21A 5747   2.177   1.195   5.095  2.2410  0.5037 -0.4615
   62CHL1  H21B 5748   2.328   1.098   5.133 -0.5479 -3.4998  0.3206
   62CHL1  H21C 5749   2.220   1.190   5.261 -1.9038 -0.9865  0.5551
   62CHL1   C22 5750   2.199   0.929   5.341  0.1431 -0.2230  0.0324
   62CHL1  H22A 5751   2.147   0.834   5.366 -2.0893  1.2494  1.4442
   62CHL1  H22B 5752   2.308   0.909   5.338  0.1304 -0.1584 -1.3694
   62CHL1   C23 5753   2.185   1.025   5.464  0.0186  1.0312 -0.0895
   62CHL1  H23A 5754   2.250   1.114   5.447  0.6848  0.7048  0.6571
   62CHL1  H23B 5755   2.077   1.050   5.470 -0.6420 -1.5671  0.2032
   62CHL1   C24 5756   2.225   0.951   5.595  0.4483  0.2358  0.4994
   62CHL1  H24A 5757   2.146   0.879   5.626  0.3246 -0.1376 -0.6345
   62CHL1  H24B 5758   2.320   0.894   5.591  1.6050  1.8703  2.5553
   62CHL1   C25 5759   2.241   1.039   5.721 -0.2776  0.0630  0.0789
   62CHL1   H25 5760   2.313   1.117   5.688 -1.4276  0.6625 -1.1061
   62CHL1   C26 5761   2.112   1.090   5.775 -0.3230  0.1976  0.5071
   62CHL1  H26A 5762   2.063   1.160   5.704 -0.2069 -0.7490 -0.5287
   62CHL1  H26B 5763   2.032   1.017   5.797 -0.9226  0.5614 -0.4079
   62CHL1  H26C 5764   2.128   1.153   5.865 -0.5223 -0.8996  1.3256
   62CHL1   C27 5765   2.313   0.960   5.829  0.4135 -0.0788 -0.0473
   62CHL1  H27A 5766   2.365   1.028   5.901  0.3914 -0.6363  0.5108
   62CHL1  H27B 5767   2.244   0.894   5.886  0.2942  0.8042  0.8653
   62CHL1  H27C 5768   2.392   0.893   5.788 -0.2503 -0.5670 -0.5436
   63CHL1    C3 5769   3.086   6.370   3.928  0.0582  0.3419  0.5299
   63CHL1    H3 5770   3.182   6.410   3.967  0.2715  0.2392  0.1149
   63CHL1    O3 5771   3.071   6.398   3.792  0.4201  0.3912 -0.1915
   63CHL1   H3' 5772   3.005   6.333   3.765 -0.4431  1.4936 -0.8475
   63CHL1    C4 5773   3.083   6.214   3.950  0.8503 -0.2536 -0.2091
   63CHL1   H4A 5774   2.995   6.163   3.903  1.5613 -2.1558  0.4222
   63CHL1   H4B 5775   3.169   6.170   3.896 -0.3482 -0.5893 -1.9209
   63CHL1    C5 5776   3.092   6.183   4.096  0.9763  0.5390  0.4616
   63CHL1    C6 5777   3.189   6.104   4.149 -0.7237 -0.2590 -0.2150
   63CHL1    H6 5778   3.271   6.070   4.084 -0.3128  0.5015 -0.1095
   63CHL1    C7 5779   3.190   6.057   4.293  0.0936 -0.4969  0.0444
   63CHL1   H7A 5780   3.208   5.948   4.296 -1.4386 -0.7656  2.6609
   63CHL1   H7B 5781   3.281   6.104   4.337 -0.7117  0.2819  0.9159
   63CHL1    C8 5782   3.060   6.093   4.374  0.4100 -0.2615  0.1800
   63CHL1    H8 5783   2.986   6.023   4.329 -0.1405 -1.0240  2.1856
   63CHL1   C14 5784   3.073   6.066   4.523  0.2244 -0.3369 -0.4329
   63CHL1   H14 5785   3.158   6.128   4.560 -0.5262 -0.6033  1.9251
   63CHL1   C15 5786   3.127   5.929   4.573 -0.4431 -0.4616  0.2114
   63CHL1  H15A 5787   3.067   5.848   4.527 -1.8645 -0.2247  1.5548
   63CHL1  H15B 5788   3.237   5.919   4.559 -0.2938 -1.2761  1.7038
   63CHL1   C16 5789   3.107   5.936   4.722 -0.4823  0.2744  0.0874
   63CHL1  H16A 5790   3.050   5.848   4.760 -0.4404  0.3112  0.2342
   63CHL1  H16B 5791   3.196   5.936   4.789 -1.1246 -1.1883  0.9821
   63CHL1   C17 5792   3.026   6.060   4.754 -0.0947 -1.2499  0.0409
   63CHL1   H17 5793   3.103   6.136   4.779 -0.4065 -0.2162 -1.9905
   63CHL1   C13 5794   2.963   6.101   4.615  0.3127 -0.1750  1.1180
   63CHL1   C18 5795   2.839   6.022   4.611  0.1861  0.4827  0.3553
   63CHL1  H18A 5796   2.857   5.915   4.635  1.1532  0.6468  0.4173
   63CHL1  H18B 5797   2.760   6.055   4.682  1.5224  0.5687  1.8515
   63CHL1  H18C 5798   2.793   6.043   4.512 -0.3621 -2.7187 -0.1913
   63CHL1   C12 5799   2.936   6.259   4.583 -0.0814 -0.6735  0.2835
   63CHL1  H12A 5800   2.843   6.295   4.631  0.6950  0.3064  1.0901
   63CHL1  H12B 5801   3.022   6.322   4.616 -1.0789  1.0122 -0.1862
   63CHL1   C11 5802   2.910   6.290   4.428  0.0062  0.2361 -0.8074
   63CHL1  H11A 5803   2.818   6.233   4.400  1.0923 -1.5012 -1.0034
   63CHL1  H11B 5804   2.894   6.399   4.415 -1.2108  0.2123  0.2146
   63CHL1    C9 5805   3.017   6.232   4.335  0.4651 -0.1702  0.0634
   63CHL1    H9 5806   3.107   6.297   4.344  1.2232 -1.1505 -0.3324
   63CHL1   C10 5807   2.978   6.248   4.184 -0.2136  0.8924  0.0838
   63CHL1   C19 5808   2.848   6.172   4.148  0.8251 -0.3267 -0.3867
   63CHL1  H19A 5809   2.849   6.075   4.201  1.2184  0.6209  1.4398
   63CHL1  H19B 5810   2.766   6.223   4.203  2.2317 -1.8904  3.4903
   63CHL1  H19C 5811   2.823   6.160   4.041 -3.7969 -0.8210  0.5682
   63CHL1    C1 5812   2.972   6.407   4.155  0.3168  0.2426 -0.0955
   63CHL1   H1A 5813   2.886   6.451   4.210  0.9776  0.9772  0.3632
   63CHL1   H1B 5814   3.057   6.458   4.205 -0.2908 -0.2450  1.5249
   63CHL1    C2 5815   2.961   6.434   3.997 -1.0900  0.6847  0.0505
   63CHL1   H2A 5816   2.955   6.542   3.969  2.7887  0.8181 -0.7977
   63CHL1   H2B 5817   2.868   6.385   3.960 -2.3988  3.2800 -0.4018
   63CHL1   C20 5818   2.940   6.055   4.877 -0.4737  0.0440  0.3588
   63CHL1   H20 5819   2.873   5.967   4.867 -0.1123 -0.3226  1.1067
   63CHL1   C21 5820   2.858   6.187   4.903 -0.3899 -0.9041  0.8279
   63CHL1  H21A 5821   2.927   6.272   4.921  0.8424 -1.8860  0.8811
   63CHL1  H21B 5822   2.796   6.188   4.995 -1.3530  2.1921  0.2652
   63CHL1  H21C 5823   2.799   6.217   4.814  1.3620  0.4758  0.0746
   63CHL1   C22 5824   3.025   6.033   5.009  0.9255  1.0505  0.1568
   63CHL1  H22A 5825   3.097   5.952   4.986 -0.3108  0.4110 -1.7079
   63CHL1  H22B 5826   3.074   6.130   5.031  1.5402  0.6541  0.5695
   63CHL1   C23 5827   2.931   5.991   5.130  0.0604  0.3916 -0.0686
   63CHL1  H23A 5828   2.889   6.090   5.162  1.6086  1.2552 -0.6130
   63CHL1  H23B 5829   2.845   5.937   5.084 -0.5634  0.9396  0.4222
   63CHL1   C24 5830   3.008   5.914   5.242 -0.3010  0.3377 -0.4427
   63CHL1  H24A 5831   2.942   5.903   5.330 -0.2574 -1.0109 -0.5672
   63CHL1  H24B 5832   3.033   5.809   5.215 -0.7705 -0.4765  2.0463
   63CHL1   C25 5833   3.146   5.969   5.295  0.3948  0.3858 -0.3448
   63CHL1   H25 5834   3.211   5.981   5.206 -0.7912  0.3299 -1.2477
   63CHL1   C26 5835   3.145   6.108   5.370 -0.2027  1.0949  0.7291
   63CHL1  H26A 5836   3.251   6.139   5.383  0.6221 -1.0734 -0.1790
   63CHL1  H26B 5837   3.095   6.181   5.303 -0.4278 -0.6312 -1.0733
   63CHL1  H26C 5838   3.090   6.100   5.466 -2.1170 -1.2394 -0.4371
   63CHL1   C27 5839   3.200   5.861   5.387 -0.3265 -0.0400  0.0787
   63CHL1  H27A 5840   3.290   5.894   5.444  0.6463 -1.0638 -0.8007
   63CHL1  H27B 5841   3.114   5.848   5.455 -0.3831 -0.4493 -0.0668
   63CHL1  H27C 5842   3.211   5.758   5.346 -0.4345 -0.0412  0.0529
   64CHL1    C3 5843   5.890   3.109   4.159  0.2777 -0.4216  0.7242
   64CHL1    H3 5844   5.877   3.212   4.200  0.0324  1.4252 -3.5271
   64CHL1    O3 5845   5.926   3.124   4.018 -0.2390 -0.2268  0.5468
   64CHL1   H3' 5846   5.939   3.035   3.986 -0.8891  0.1924 -1.0039
   64CHL1    C4 5847   5.989   3.010   4.219 -0.0174 -0.1513  0.0678
   64CHL1   H4A 5848   5.999   2.919   4.156  2.1158  0.3555 -0.4196
   64CHL1   H4B 5849   6.094   3.048   4.219  0.7886 -2.2606  0.6786
   64CHL1    C5 5850   5.957   2.971   4.361  0.0622 -0.2648 -0.6416
   64CHL1    C6 5851   6.056   2.982   4.460 -0.3257 -0.2343  0.5371
   64CHL1    H6 5852   6.158   3.011   4.431 -0.1622 -0.7866  0.5606
   64CHL1    C7 5853   6.032   2.946   4.600  0.3750  0.6468 -0.1353
   64CHL1   H7A 5854   6.112   2.879   4.638  0.8087  1.6008  0.6824
   64CHL1   H7B 5855   6.037   3.042   4.656 -0.7464 -0.4119  1.8511
   64CHL1    C8 5856   5.894   2.880   4.629  0.1623 -0.2674 -0.1709
   64CHL1    H8 5857   5.915   2.773   4.609 -1.2647 -0.3188 -1.6083
   64CHL1   C14 5858   5.861   2.896   4.779 -0.4078 -0.8142 -0.4323
   64CHL1   H14 5859   5.843   3.003   4.802 -0.8715 -0.9806 -0.0252
   64CHL1   C15 5860   5.964   2.848   4.883 -0.0317  0.4689  0.7433
   64CHL1  H15A 5861   6.025   2.762   4.848  0.5041  0.5922  1.3541
   64CHL1  H15B 5862   6.044   2.922   4.905 -0.4597  0.8388  1.0877
   64CHL1   C16 5863   5.884   2.822   5.006  0.0724 -0.1797  0.2543
   64CHL1  H16A 5864   5.910   2.717   5.034  0.4774 -0.3903 -0.8860
   64CHL1  H16B 5865   5.920   2.881   5.093  0.7040  1.2271 -0.9265
   64CHL1   C17 5866   5.735   2.838   4.968  0.5635 -1.0086  0.4238
   64CHL1   H17 5867   5.727   2.948   4.982  0.9901 -0.6616 -1.7309
   64CHL1   C13 5868   5.725   2.826   4.813  0.1262  0.3233 -0.3388
   64CHL1   C18 5869   5.726   2.669   4.792 -0.2021  0.7646 -0.1740
   64CHL1  H18A 5870   5.807   2.621   4.851 -0.8926 -0.4322 -0.1565
   64CHL1  H18B 5871   5.627   2.620   4.808 -0.7966  1.1689 -2.2165
   64CHL1  H18C 5872   5.744   2.651   4.683 -1.8387  2.1738 -0.7311
   64CHL1   C12 5873   5.616   2.895   4.739 -1.1561 -0.5185  0.2387
   64CHL1  H12A 5874   5.516   2.850   4.757 -2.1029  1.5150  0.3700
   64CHL1  H12B 5875   5.604   3.002   4.767 -3.3673 -0.5329 -0.4331
   64CHL1   C11 5876   5.641   2.893   4.585  0.2097  0.4981  0.0108
   64CHL1  H11A 5877   5.611   2.791   4.550 -0.0476  0.4600  0.3423
   64CHL1  H11B 5878   5.551   2.949   4.552 -1.0481 -1.2685  0.2748
   64CHL1    C9 5879   5.782   2.938   4.541 -0.6422 -0.2755 -0.2413
   64CHL1    H9 5880   5.776   3.048   4.555 -2.0100 -0.0845 -2.0181
   64CHL1   C10 5881   5.811   2.933   4.387 -0.8074  0.3894  0.4411
   64CHL1   C19 5882   5.797   2.789   4.342  0.4145 -0.4811  0.3221
   64CHL1  H19A 5883   5.812   2.777   4.233  1.0643 -0.8375  0.4466
   64CHL1  H19B 5884   5.861   2.723   4.404 -1.7003 -1.7629  1.2650
   64CHL1  H19C 5885   5.693   2.751   4.357  0.5027 -0.8525  0.0084
   64CHL1    C1 5886   5.706   3.021   4.317 -0.1892  0.6347 -0.0375
   64CHL1   H1A 5887   5.608   2.969   4.319 -0.7848  1.5457 -2.4711
   64CHL1   H1B 5888   5.694   3.115   4.376 -3.2558  0.6956 -0.5720
   64CHL1    C2 5889   5.742   3.056   4.167  0.5341  0.0842  0.4499
   64CHL1   H2A 5890   5.672   3.134   4.131 -0.4283  0.2695  2.5884
   64CHL1   H2B 5891   5.728   2.967   4.101  0.9327  0.3680 -0.0270
   64CHL1   C20 5892   5.640   2.762   5.064  0.3339 -0.5532  0.2925
   64CHL1   H20 5893   5.633   2.662   5.016  0.5485  0.3901 -1.8496
   64CHL1   C21 5894   5.497   2.822   5.042 -0.5197 -0.3957  1.1703
   64CHL1  H21A 5895   5.453   2.799   4.943  0.4305 -1.3521  0.9608
   64CHL1  H21B 5896   5.508   2.932   5.052  2.3215 -0.5991  1.0325
   64CHL1  H21C 5897   5.436   2.782   5.126 -0.7295 -1.8497  0.3631
   64CHL1   C22 5898   5.684   2.757   5.207 -0.0648 -0.5008  0.3196
   64CHL1  H22A 5899   5.792   2.734   5.220  0.2057 -0.9394 -2.2065
   64CHL1  H22B 5900   5.677   2.862   5.241  0.6431 -0.5996  0.7950
   64CHL1   C23 5901   5.614   2.654   5.297  0.6532 -0.0756 -0.2890
   64CHL1  H23A 5902   5.504   2.665   5.299  0.7354  0.7771  0.0985
   64CHL1  H23B 5903   5.626   2.553   5.251  0.9554 -1.2209  2.1072
   64CHL1   C24 5904   5.683   2.625   5.431  0.2459 -0.1055 -0.6129
   64CHL1  H24A 5905   5.793   2.632   5.419  0.3174 -1.5356 -1.0650
   64CHL1  H24B 5906   5.655   2.701   5.506 -1.9549 -0.7266 -0.7238
   64CHL1   C25 5907   5.636   2.485   5.488 -0.1148 -0.5065  0.9569
   64CHL1   H25 5908   5.644   2.413   5.404  0.7646 -1.4613  1.8352
   64CHL1   C26 5909   5.722   2.424   5.596 -0.5489  0.5395 -0.2423
   64CHL1  H26A 5910   5.671   2.333   5.635 -2.8333  1.6095 -0.5272
   64CHL1  H26B 5911   5.818   2.385   5.557 -1.5063 -2.0939 -0.1437
   64CHL1  H26C 5912   5.744   2.488   5.684 -1.5696 -2.1157  2.0724
   64CHL1   C27 5913   5.489   2.486   5.528 -0.2047  0.4966 -0.4161
   64CHL1  H27A 5914   5.429   2.502   5.436 -0.0321  0.4518 -0.5370
   64CHL1  H27B 5915   5.466   2.383   5.563 -0.9513  0.6886 -0.3214
   64CHL1  H27C 5916   5.477   2.557   5.613  0.5540  1.2591 -0.9266
   65CHL1    C3 5917   0.586   0.149   4.113 -0.5515 -0.1341 -0.0108
   65CHL1    H3 5918   0.556   0.252   4.141  2.2482  1.1576 -1.3842
   65CHL1    O3 5919   0.605   0.146   3.973  0.9760  0.2324  0.5816
   65CHL1   H3' 5920   0.520   0.148   3.930  1.1536 -1.5120  0.0707
   65CHL1    C4 5921   0.718   0.110   4.184  0.1340 -0.4460  0.0151
   65CHL1   H4A 5922   0.758   0.017   4.137 -3.3864 -1.1569 -1.8748
   65CHL1   H4B 5923   0.787   0.194   4.157  3.0810 -1.9519  2.2421
   65CHL1    C5 5924   0.711   0.103   4.344  0.5304 -0.2491  0.5040
   65CHL1    C6 5925   0.805   0.158   4.424  1.0126 -0.5291  0.0306
   65CHL1    H6 5926   0.879   0.213   4.364 -0.8125  1.4134 -0.5878
   65CHL1    C7 5927   0.820   0.155   4.564  0.2485  0.1083  0.3005
   65CHL1   H7A 5928   0.921   0.124   4.596  0.4610  1.2059  0.7421
   65CHL1   H7B 5929   0.792   0.255   4.604 -3.6908 -1.4423  2.0599
   65CHL1    C8 5930   0.712   0.056   4.624  0.2243 -0.7251 -0.6236
   65CHL1    H8 5931   0.747  -0.046   4.596 -0.2588 -1.2333  0.5483
   65CHL1   C14 5932   0.693   0.075   4.770  0.2545  0.3993  0.2911
   65CHL1   H14 5933   0.644   0.174   4.784  1.6186  1.3472 -1.3011
   65CHL1   C15 5934   0.821   0.078   4.860  0.4716  0.3678  0.5564
   65CHL1  H15A 5935   0.893  -0.003   4.837 -0.6006 -0.7652  1.0353
   65CHL1  H15B 5936   0.876   0.174   4.853  2.2536 -0.5393  1.4431
   65CHL1   C16 5937   0.767   0.050   4.998 -0.3841  0.7385 -0.3971
   65CHL1  H16A 5938   0.824  -0.024   5.058 -1.0123  1.2303  0.8537
   65CHL1  H16B 5939   0.762   0.150   5.047  0.4660  1.0102 -0.8536
   65CHL1   C17 5940   0.616   0.014   4.979  0.6932 -0.0376 -0.0668
   65CHL1   H17 5941   0.552   0.104   4.981  0.6876  0.0859 -2.4598
   65CHL1   C13 5942   0.610  -0.029   4.831  0.0680  0.4508 -0.0221
   65CHL1   C18 5943   0.660  -0.180   4.820  0.1739  0.3278 -0.2928
   65CHL1  H18A 5944   0.753  -0.199   4.877 -0.4224 -0.3187  0.4895
   65CHL1  H18B 5945   0.571  -0.238   4.852 -0.7290  3.0373  2.5839
   65CHL1  H18C 5946   0.681  -0.203   4.713  0.9418  0.2817 -0.1321
   65CHL1   C12 5947   0.470  -0.020   4.771 -0.2906  0.1856 -0.3482
   65CHL1  H12A 5948   0.394  -0.085   4.820 -0.5900  0.7951  0.0192
   65CHL1  H12B 5949   0.439   0.082   4.802  1.7849  0.2600  1.7954
   65CHL1   C11 5950   0.473  -0.042   4.619 -0.3837  0.7945 -0.2430
   65CHL1  H11A 5951   0.499  -0.150   4.613  1.1300  1.1714 -1.2268
   65CHL1  H11B 5952   0.367  -0.028   4.589 -1.5863 -1.4941  2.4687
   65CHL1    C9 5953   0.568   0.056   4.554 -0.6969 -0.3879  0.1136
   65CHL1    H9 5954   0.542   0.164   4.560  1.5714  0.2689 -0.6738
   65CHL1   C10 5955   0.582   0.036   4.398 -0.6448 -0.4557 -0.1295
   65CHL1   C19 5956   0.610  -0.107   4.374  0.8474  0.1222  0.3852
   65CHL1  H19A 5957   0.612  -0.131   4.266  1.2307  0.6726  0.2662
   65CHL1  H19B 5958   0.701  -0.143   4.428  0.8950 -0.1261  0.1391
   65CHL1  H19C 5959   0.526  -0.170   4.410  0.3361  0.3234 -0.4463
   65CHL1    C1 5960   0.457   0.072   4.317  0.1513 -0.2013  1.1357
   65CHL1   H1A 5961   0.373   0.003   4.339  0.1311 -0.8329 -0.7199
   65CHL1   H1B 5962   0.432   0.176   4.345 -0.7740 -0.9043  3.0347
   65CHL1    C2 5963   0.471   0.064   4.160  0.7024  0.5607 -0.8088
   65CHL1   H2A 5964   0.378   0.094   4.108 -0.6636 -1.4460  0.3655
   65CHL1   H2B 5965   0.495  -0.037   4.119  0.0656 -0.1814  0.5858
   65CHL1   C20 5966   0.564  -0.078   5.095 -0.7031 -0.3226  0.2075
   65CHL1   H20 5967   0.606  -0.179   5.078 -0.3465 -0.1998  0.3576
   65CHL1   C21 5968   0.411  -0.106   5.076 -0.0165  0.1730  0.0286
   65CHL1  H21A 5969   0.374  -0.164   5.163  2.6757 -1.3653  0.2589
   65CHL1  H21B 5970   0.405  -0.193   5.008 -1.0931 -1.1479  1.7343
   65CHL1  H21C 5971   0.342  -0.023   5.050  0.7261  0.8690  0.2309
   65CHL1   C22 5972   0.590  -0.032   5.241 -0.3206  0.9895  0.7916
   65CHL1  H22A 5973   0.570  -0.115   5.312 -1.1520  1.2615  0.8916
   65CHL1  H22B 5974   0.700  -0.030   5.247 -0.1744 -1.9326  0.4781
   65CHL1   C23 5975   0.517   0.087   5.294  0.1616  0.0444  0.1650
   65CHL1  H23A 5976   0.540   0.176   5.232 -0.5487  0.3707  0.3581
   65CHL1  H23B 5977   0.408   0.065   5.293  0.7034 -3.4115  1.4517
   65CHL1   C24 5978   0.561   0.134   5.433  0.4923  0.2787 -0.2287
   65CHL1  H24A 5979   0.672   0.135   5.431  0.5419 -0.7506  0.7827
   65CHL1  H24B 5980   0.522   0.236   5.452 -0.9209  0.0270 -1.5757
   65CHL1   C25 5981   0.523   0.041   5.548 -0.0846  0.3927 -0.3125
   65CHL1   H25 5982   0.546  -0.064   5.520 -0.2735  0.4922 -0.8527
   65CHL1   C26 5983   0.611   0.077   5.675 -0.4857  0.3528  0.5845
   65CHL1  H26A 5984   0.595   0.001   5.754 -0.4166  1.7108  1.9524
   65CHL1  H26B 5985   0.716   0.079   5.640 -1.1959  2.2907 -1.7342
   65CHL1  H26C 5986   0.574   0.174   5.714 -2.0466  0.1091 -0.1762
   65CHL1   C27 5987   0.369   0.050   5.587  0.8493  0.2924 -0.4323
   65CHL1  H27A 5988   0.355  -0.016   5.675  0.3466 -0.1403 -0.8332
   65CHL1  H27B 5989   0.353   0.150   5.632 -2.0996 -0.4106  0.2967
   65CHL1  H27C 5990   0.295   0.022   5.509 -0.8729 -0.8463  1.5070
   66CHL1    C3 5991   5.839   6.776   4.241  0.1636 -0.2504  0.7290
   66CHL1    H3 5992   5.776   6.865   4.265  1.0417  0.4697  0.4225
   66CHL1    O3 5993   5.941   6.813   4.148 -0.3114  0.9652 -0.6290
   66CHL1   H3' 5994   5.981   6.726   4.142  2.9070  2.3523 -1.5349
   66CHL1    C4 5995   5.910   6.733   4.365 -0.4485  0.3571  0.0249
   66CHL1   H4A 5996   5.995   6.665   4.340  1.1404  2.1336  0.3521
   66CHL1   H4B 5997   5.957   6.824   4.407 -1.6691  0.6383  0.8156
   66CHL1    C5 5998   5.824   6.676   4.477  0.3534 -0.0529 -0.3222
   66CHL1    C6 5999   5.825   6.722   4.607  0.2765 -0.3751  0.2037
   66CHL1    H6 6000   5.903   6.794   4.638 -0.3462  0.7480 -0.7731
   66CHL1    C7 6001   5.741   6.664   4.714  0.0702 -0.1034 -0.2495
   66CHL1   H7A 6002   5.815   6.645   4.795 -0.0380  0.2876 -0.0581
   66CHL1   H7B 6003   5.667   6.734   4.757  0.2062 -1.2850  2.0835
   66CHL1    C8 6004   5.649   6.551   4.675  0.2202 -0.3042 -0.0376
   66CHL1    H8 6005   5.709   6.458   4.684  1.2612  0.2338 -1.1543
   66CHL1   C14 6006   5.527   6.556   4.767  0.4369  0.2710 -0.8136
   66CHL1   H14 6007   5.476   6.651   4.742 -1.2881 -0.7343 -1.2708
   66CHL1   C15 6008   5.558   6.544   4.922  0.3801  0.6151 -0.4335
   66CHL1  H15A 6009   5.641   6.471   4.934  1.9141  2.4243  0.4125
   66CHL1  H15B 6010   5.581   6.646   4.960 -0.5087  1.2283 -1.4717
   66CHL1   C16 6011   5.436   6.483   4.990  1.0064 -0.5091 -0.4777
   66CHL1  H16A 6012   5.459   6.392   5.050  0.7226  1.0153  2.0861
   66CHL1  H16B 6013   5.377   6.543   5.062  1.0772 -1.0651  0.0588
   66CHL1   C17 6014   5.338   6.446   4.864 -0.2193 -0.8347  0.4462
   66CHL1   H17 6015   5.279   6.538   4.847 -0.3146 -1.2377 -1.6930
   66CHL1   C13 6016   5.430   6.438   4.737 -0.1520 -0.5401 -0.1922
   66CHL1   C18 6017   5.495   6.301   4.736  0.5423  0.0938  0.5964
   66CHL1  H18A 6018   5.420   6.227   4.699  0.6422  0.0005  0.5817
   66CHL1  H18B 6019   5.574   6.304   4.658  0.2275 -0.8665  0.2228
   66CHL1  H18C 6020   5.531   6.259   4.832  1.1200 -1.1672 -0.1423
   66CHL1   C12 6021   5.371   6.469   4.601 -0.2733 -0.1530 -0.0003
   66CHL1  H12A 6022   5.301   6.388   4.570 -0.2364 -0.4636  0.7030
   66CHL1  H12B 6023   5.333   6.573   4.609  0.0883 -0.1334  1.9714
   66CHL1   C11 6024   5.473   6.471   4.491 -0.1415 -0.7324 -0.0007
   66CHL1  H11A 6025   5.512   6.367   4.484  1.8856  0.0418 -0.8782
   66CHL1  H11B 6026   5.422   6.506   4.398 -0.7888  0.9674  0.9561
   66CHL1    C9 6027   5.597   6.561   4.528  0.3515 -0.2855 -0.1604
   66CHL1    H9 6028   5.532   6.651   4.524 -3.5223 -2.8594 -0.5353
   66CHL1   C10 6029   5.714   6.579   4.422  0.4965 -0.0785 -0.1470
   66CHL1   C19 6030   5.781   6.435   4.407  0.1392  0.4895  0.2105
   66CHL1  H19A 6031   5.892   6.444   4.401  0.4247 -0.8141  2.4769
   66CHL1  H19B 6032   5.752   6.384   4.501 -1.4331  0.9876  0.0323
   66CHL1  H19C 6033   5.724   6.380   4.328  0.2289  0.0549  0.4483
   66CHL1    C1 6034   5.649   6.617   4.289 -0.1620 -0.0242  0.1381
   66CHL1   H1A 6035   5.587   6.536   4.246  0.2250 -0.1967 -0.0986
   66CHL1   H1B 6036   5.580   6.703   4.304  0.9737  0.7363  1.3016
   66CHL1    C2 6037   5.744   6.671   4.182 -0.0380  0.1967 -0.2008
   66CHL1   H2A 6038   5.691   6.707   4.091 -0.0471  2.5892  0.6838
   66CHL1   H2B 6039   5.796   6.579   4.147 -0.7906 -0.1791 -0.3702
   66CHL1   C20 6040   5.246   6.324   4.899 -0.0194  0.4410 -0.0828
   66CHL1   H20 6041   5.303   6.230   4.916 -0.8410  0.3338  2.4254
   66CHL1   C21 6042   5.142   6.307   4.787  0.2678  0.1525 -0.6987
   66CHL1  H21A 6043   5.068   6.389   4.787 -0.3866 -0.4029 -2.0125
   66CHL1  H21B 6044   5.090   6.212   4.815  0.7181  0.5479  1.7834
   66CHL1  H21C 6045   5.186   6.296   4.686  1.8164 -2.7915  0.1510
   66CHL1   C22 6046   5.171   6.341   5.034  0.3281 -0.2357 -0.1709
   66CHL1  H22A 6047   5.228   6.389   5.117 -1.3834  0.1823  0.8155
   66CHL1  H22B 6048   5.083   6.401   5.003  0.6089 -0.6515 -1.8466
   66CHL1   C23 6049   5.123   6.204   5.091 -0.6480 -0.3893  0.2733
   66CHL1  H23A 6050   5.040   6.162   5.031 -0.5731 -1.0566  0.6295
   66CHL1  H23B 6051   5.201   6.127   5.107 -2.0520 -2.3496 -1.6340
   66CHL1   C24 6052   5.073   6.220   5.237  0.1977 -0.3930 -0.4185
   66CHL1  H24A 6053   5.148   6.279   5.293 -0.5539  0.0912  0.0985
   66CHL1  H24B 6054   4.975   6.272   5.245 -0.2691 -1.3714  0.5191
   66CHL1   C25 6055   5.058   6.084   5.324 -0.7972  0.3009 -0.4868
   66CHL1   H25 6056   5.162   6.050   5.346  0.4023  2.1904 -2.7580
   66CHL1   C26 6057   5.006   6.117   5.466 -0.0506  0.6101  0.5288
   66CHL1  H26A 6058   5.038   6.033   5.532  0.0623  0.1103 -0.1571
   66CHL1  H26B 6059   5.062   6.207   5.498  0.2736  0.8407 -0.6625
   66CHL1  H26C 6060   4.896   6.131   5.460 -0.3840 -1.7410  0.1809
   66CHL1   C27 6061   4.984   5.967   5.251  0.2328  0.0289  0.3162
   66CHL1  H27A 6062   4.890   6.016   5.217  1.4438  1.5243 -1.0092
   66CHL1  H27B 6063   4.974   5.869   5.303  1.1430 -1.7827 -2.6716
   66CHL1  H27C 6064   5.038   5.954   5.155  0.8025  3.2270  0.0972
   67CHL1    C3 6065   1.268   4.442   4.360 -0.4531 -0.0312  0.4336
   67CHL1    H3 6066   1.280   4.332   4.367 -2.1615 -0.4674 -1.9441
   67CHL1    O3 6067   1.307   4.489   4.228 -0.4157  0.1396  0.6643
   67CHL1   H3' 6068   1.251   4.444   4.164  1.0933  0.8194 -1.2724
   67CHL1    C4 6069   1.121   4.451   4.391 -0.6459  0.0636  0.7379
   67CHL1   H4A 6070   1.100   4.555   4.358 -0.4416 -0.0729  0.1582
   67CHL1   H4B 6071   1.068   4.398   4.309 -0.0150  1.5783 -0.7311
   67CHL1    C5 6072   1.074   4.409   4.524 -0.4390  0.0001 -0.5322
   67CHL1    C6 6073   0.981   4.312   4.544 -0.3426 -0.4467  0.6770
   67CHL1    H6 6074   0.929   4.270   4.457  1.3919 -1.7063  0.1920
   67CHL1    C7 6075   0.946   4.264   4.680 -0.5900  0.2443 -0.9437
   67CHL1   H7A 6076   0.837   4.241   4.679 -0.3429 -1.0680 -2.5208
   67CHL1   H7B 6077   0.994   4.165   4.697  0.3516  0.6673 -1.1216
   67CHL1    C8 6078   0.986   4.365   4.796  0.1212 -0.2759  0.6132
   67CHL1    H8 6079   0.929   4.459   4.785 -0.9539 -0.6355  2.6195
   67CHL1   C14 6080   0.967   4.298   4.930 -0.8512  0.6078 -0.3487
   67CHL1   H14 6081   1.040   4.214   4.940 -1.2383  0.4290  1.2981
   67CHL1   C15 6082   0.837   4.227   4.952  0.0832 -0.1092  0.0376
   67CHL1  H15A 6083   0.755   4.300   4.936  0.2140  0.0096 -0.0933
   67CHL1  H15B 6084   0.820   4.135   4.892  0.3578  0.9201 -1.6833
   67CHL1   C16 6085   0.834   4.198   5.106 -0.1635 -0.4293  0.6213
   67CHL1  H16A 6086   0.737   4.226   5.153 -1.3071 -1.0519 -1.2430
   67CHL1  H16B 6087   0.851   4.089   5.119 -0.2355 -0.4943  0.1886
   67CHL1   C17 6088   0.963   4.274   5.158 -0.0306  0.7249  0.5120
   67CHL1   H17 6089   1.052   4.209   5.170  1.5572  2.8121  0.5254
   67CHL1   C13 6090   1.000   4.376   5.056  0.0441  0.1050  1.1367
   67CHL1   C18 6091   0.909   4.495   5.054 -0.2902 -0.1144 -0.9172
   67CHL1  H18A 6092   0.936   4.568   5.133  0.1629 -2.2914  1.0525
   67CHL1  H18B 6093   0.907   4.553   4.959  0.2588  1.0823 -0.2255
   67CHL1  H18C 6094   0.808   4.462   5.084  0.6043 -1.3955  0.8908
   67CHL1   C12 6095   1.149   4.417   5.041  0.0878 -0.2549  0.1092
   67CHL1  H12A 6096   1.196   4.469   5.128  0.0866  0.7739 -0.4986
   67CHL1  H12B 6097   1.214   4.326   5.039  0.1278 -0.4156  3.1526
   67CHL1   C11 6098   1.179   4.488   4.908 -0.2634  0.9948  0.6408
   67CHL1  H11A 6099   1.123   4.584   4.908 -1.0052  0.5654  0.6889
   67CHL1  H11B 6100   1.286   4.513   4.890 -0.1047  0.0934  0.2737
   67CHL1    C9 6101   1.133   4.408   4.780 -0.1663  0.7487 -0.2293
   67CHL1    H9 6102   1.197   4.317   4.783 -0.0546  0.8558  0.8183
   67CHL1   C10 6103   1.149   4.476   4.641 -0.2496 -0.1868 -0.7086
   67CHL1   C19 6104   1.112   4.629   4.652  0.1035  0.2985  0.4911
   67CHL1  H19A 6105   1.019   4.645   4.710  0.0561 -1.1377  0.8571
   67CHL1  H19B 6106   1.194   4.677   4.709  0.1836 -0.1498  0.7620
   67CHL1  H19C 6107   1.116   4.667   4.547  1.0526  0.3996  0.5530
   67CHL1    C1 6108   1.305   4.475   4.608 -1.2602  0.1974  1.0290
   67CHL1   H1A 6109   1.362   4.535   4.683  1.3986 -1.3472  0.3982
   67CHL1   H1B 6110   1.357   4.377   4.611 -0.1468  0.7732  1.3899
   67CHL1    C2 6111   1.336   4.520   4.471  0.1424 -0.6892  0.2430
   67CHL1   H2A 6112   1.446   4.520   4.458  0.1326 -0.1526  0.1355
   67CHL1   H2B 6113   1.301   4.625   4.461 -0.3430 -0.8746 -0.0403
   67CHL1   C20 6114   0.950   4.315   5.304  0.0351 -0.4003  0.1806
   67CHL1   H20 6115   0.868   4.390   5.301  0.0534 -0.3909 -0.1807
   67CHL1   C21 6116   1.072   4.384   5.358  0.0815  0.8594  0.1621
   67CHL1  H21A 6117   1.170   4.331   5.354 -0.0472  0.6715 -3.2379
   67CHL1  H21B 6118   1.051   4.409   5.465 -2.7223  2.7852 -0.7336
   67CHL1  H21C 6119   1.089   4.486   5.316  0.4640  0.8369  0.2508
   67CHL1   C22 6120   0.896   4.204   5.409 -0.1881 -0.4632  0.0100
   67CHL1  H22A 6121   0.888   4.253   5.508  1.5981  1.5615 -0.7743
   67CHL1  H22B 6122   0.789   4.180   5.387 -0.0150 -0.1699 -1.2308
   67CHL1   C23 6123   0.971   4.071   5.428 -0.4102  0.4049  0.2187
   67CHL1  H23A 6124   0.958   4.013   5.334  0.3172 -1.7355  1.3769
   67CHL1  H23B 6125   1.077   4.103   5.430 -0.6882  1.6038 -1.3405
   67CHL1   C24 6126   0.928   4.006   5.560  0.6150 -0.2422  0.0008
   67CHL1  H24A 6127   0.944   4.083   5.639  0.6811  0.4356 -0.6666
   67CHL1  H24B 6128   0.822   3.978   5.571  0.0725  1.6300 -0.0296
   67CHL1   C25 6129   1.011   3.885   5.609 -0.0224 -0.5521  0.3004
   67CHL1   H25 6130   1.113   3.925   5.623 -1.0485  2.4184  0.1077
   67CHL1   C26 6131   0.953   3.824   5.737  0.8996  0.9118  0.3205
   67CHL1  H26A 6132   0.843   3.815   5.730  0.6077 -0.2471  4.2332
   67CHL1  H26B 6133   1.003   3.729   5.765  0.6595  1.4365  2.7490
   67CHL1  H26C 6134   0.976   3.890   5.824  0.9832  1.1148  0.1450
   67CHL1   C27 6135   1.016   3.773   5.498 -0.1640  0.4762 -0.3826
   67CHL1  H27A 6136   1.052   3.826   5.407  0.6317 -0.0833 -0.4035
   67CHL1  H27B 6137   1.093   3.704   5.537  1.5827  0.6472 -3.2334
   67CHL1  H27C 6138   0.917   3.726   5.481 -0.2357  0.2154  0.7137
   68CHL1    C3 6139   1.314   6.572   3.786  0.4347  0.2526  0.4652
   68CHL1    H3 6140   1.395   6.511   3.830 -0.1582  0.3582  1.7515
   68CHL1    O3 6141   1.323   6.558   3.646  0.3458 -0.4948 -0.9950
   68CHL1   H3' 6142   1.242   6.593   3.609 -1.0899  0.4799  2.6684
   68CHL1    C4 6143   1.173   6.522   3.824 -0.6037 -0.3582  0.5236
   68CHL1   H4A 6144   1.090   6.582   3.782  0.1149  0.0745 -0.2882
   68CHL1   H4B 6145   1.171   6.422   3.775  0.5982 -0.0346 -0.2310
   68CHL1    C5 6146   1.158   6.507   3.971  0.1379  0.6342  0.5992
   68CHL1    C6 6147   1.122   6.394   4.031 -0.4350  0.0199  0.6164
   68CHL1    H6 6148   1.111   6.306   3.966  1.2478  0.6543 -0.6189
   68CHL1    C7 6149   1.130   6.361   4.177  0.4427 -0.6705 -0.2911
   68CHL1   H7A 6150   1.046   6.292   4.199 -1.4860  1.0456 -1.8424
   68CHL1   H7B 6151   1.224   6.310   4.205 -1.0728 -1.7919  3.4170
   68CHL1    C8 6152   1.118   6.496   4.249  0.1447 -0.6083  0.4587
   68CHL1    H8 6153   1.011   6.524   4.245  0.0523 -0.9374  0.5900
   68CHL1   C14 6154   1.144   6.478   4.399  0.2721  0.0746 -0.0029
   68CHL1   H14 6155   1.252   6.453   4.405  1.2481  3.8510  1.1718
   68CHL1   C15 6156   1.066   6.366   4.470  0.3786  0.0274 -0.0938
   68CHL1  H15A 6157   0.959   6.379   4.442  0.2420 -1.0545 -0.1331
   68CHL1  H15B 6158   1.085   6.261   4.438  1.7295  0.2220  0.0062
   68CHL1   C16 6159   1.096   6.386   4.616  0.0507 -0.0584  0.4624
   68CHL1  H16A 6160   1.018   6.345   4.684  1.5340  0.5697  2.6850
   68CHL1  H16B 6161   1.188   6.331   4.643 -0.7440 -1.0378  1.2457
   68CHL1   C17 6162   1.146   6.536   4.635  0.6795  0.2093 -0.3858
   68CHL1   H17 6163   1.254   6.544   4.656  0.3520  0.9773  1.1894
   68CHL1   C13 6164   1.121   6.596   4.494  0.3544 -0.3712  0.9100
   68CHL1   C18 6165   0.976   6.668   4.483 -0.7685 -0.0424  0.6805
   68CHL1  H18A 6166   0.952   6.694   4.378  0.9937 -0.4190  0.1532
   68CHL1  H18B 6167   0.890   6.611   4.526  0.3055 -1.8311  0.5390
   68CHL1  H18C 6168   0.979   6.763   4.540  3.2044 -0.1695  0.8967
   68CHL1   C12 6169   1.220   6.703   4.449 -0.4125 -0.8391  0.5345
   68CHL1  H12A 6170   1.196   6.800   4.497  5.3586  1.4139 -0.3293
   68CHL1  H12B 6171   1.320   6.680   4.490 -1.0251  0.9802  3.3738
   68CHL1   C11 6172   1.216   6.725   4.299 -0.0991 -0.6210  0.1872
   68CHL1  H11A 6173   1.124   6.785   4.286 -1.2956 -1.8827  2.2092
   68CHL1  H11B 6174   1.298   6.792   4.266 -0.4527  0.2928  1.1019
   68CHL1    C9 6175   1.213   6.596   4.201 -0.6508 -0.6458 -0.9196
   68CHL1    H9 6176   1.316   6.554   4.208  0.4430  2.1177  2.7487
   68CHL1   C10 6177   1.196   6.631   4.053 -0.0264 -0.4760  0.1087
   68CHL1   C19 6178   1.079   6.738   4.049  0.4217  0.1853  0.4042
   68CHL1  H19A 6179   1.115   6.838   4.083 -2.3600  1.3605  0.1386
   68CHL1  H19B 6180   1.046   6.748   3.943 -2.6665  1.1205  1.3700
   68CHL1  H19C 6181   0.984   6.704   4.095  0.2906 -0.9343 -0.6357
   68CHL1    C1 6182   1.327   6.693   3.987 -0.3688 -0.0395  0.5199
   68CHL1   H1A 6183   1.334   6.795   4.030 -0.6629  0.4555 -0.5955
   68CHL1   H1B 6184   1.414   6.633   4.020  0.4034  1.1335  0.6631
   68CHL1    C2 6185   1.335   6.706   3.835 -0.4256 -0.7070 -0.6285
   68CHL1   H2A 6186   1.437   6.748   3.819  0.1063 -1.2852  0.9570
   68CHL1   H2B 6187   1.264   6.788   3.810 -0.9558 -0.9664 -0.0081
   68CHL1   C20 6188   1.084   6.600   4.762 -0.4611  0.3209  0.2811
   68CHL1   H20 6189   0.979   6.618   4.731  0.3167  2.3601 -1.4178
   68CHL1   C21 6190   1.143   6.740   4.785  0.0704 -0.1719 -0.8407
   68CHL1  H21A 6191   1.252   6.732   4.810 -0.0446 -1.5907 -0.6992
   68CHL1  H21B 6192   1.091   6.796   4.865  3.0540  0.2237  1.0022
   68CHL1  H21C 6193   1.124   6.799   4.693 -3.1502  0.1885 -0.0545
   68CHL1   C22 6194   1.105   6.511   4.886  0.1680  0.0991  0.1451
   68CHL1  H22A 6195   1.055   6.413   4.870  0.4239  0.0152 -0.1352
   68CHL1  H22B 6196   1.212   6.484   4.898  0.1018  0.4251  1.6812
   68CHL1   C23 6197   1.049   6.573   5.023 -0.3117 -0.0237  0.2223
   68CHL1  H23A 6198   1.121   6.650   5.056  0.0496  1.0965 -2.8359
   68CHL1  H23B 6199   0.949   6.613   4.997 -0.9351 -1.4311  0.3338
   68CHL1   C24 6200   1.037   6.471   5.137 -0.2286 -0.2404  0.0315
   68CHL1  H24A 6201   0.962   6.392   5.111 -0.2827  0.4581 -2.1968
   68CHL1  H24B 6202   1.137   6.424   5.149  1.0916  2.2544 -0.7028
   68CHL1   C25 6203   0.998   6.528   5.274  0.2914  0.0988  0.2673
   68CHL1   H25 6204   0.982   6.445   5.347 -1.5589  0.8725  0.8131
   68CHL1   C26 6205   1.105   6.623   5.330  0.0781 -0.5898  0.0551
   68CHL1  H26A 6206   1.198   6.573   5.363 -0.9269 -2.4903  0.1461
   68CHL1  H26B 6207   1.117   6.705   5.257  0.7835 -0.3504  0.4317
   68CHL1  H26C 6208   1.064   6.670   5.423  4.1102  0.9129  1.2862
   68CHL1   C27 6209   0.868   6.605   5.258  0.6723 -0.0585  0.2090
   68CHL1  H27A 6210   0.889   6.695   5.195  0.3348  0.0129  0.1929
   68CHL1  H27B 6211   0.782   6.553   5.211  0.6592 -0.2215  0.4180
   68CHL1  H27C 6212   0.844   6.641   5.360  0.6252 -1.4183  0.6916
   69CHL1    C3 6213   2.117   6.412   4.152 -0.0325 -0.2879 -0.2821
   69CHL1    H3 6214   2.219   6.368   4.144  0.0614  0.0764 -1.2231
   69CHL1    O3 6215   2.069   6.419   4.019 -0.2084  0.5897 -0.0867
   69CHL1   H3' 6216   1.986   6.468   4.017 -1.6308 -1.6517  0.3847
   69CHL1    C4 6217   2.023   6.328   4.244 -0.4148  0.1036 -0.1933
   69CHL1   H4A 6218   1.922   6.369   4.220 -0.8843 -0.6829  0.3800
   69CHL1   H4B 6219   2.012   6.229   4.195 -1.4047  1.0534 -2.0121
   69CHL1    C5 6220   2.050   6.316   4.392 -0.0592 -0.1004 -0.3113
   69CHL1    C6 6221   2.065   6.197   4.458 -0.5549 -0.1470  0.1042
   69CHL1    H6 6222   2.048   6.103   4.403 -2.5845  1.0375 -1.4335
   69CHL1    C7 6223   2.069   6.197   4.601  0.6851 -0.6536 -0.8654
   69CHL1   H7A 6224   1.987   6.140   4.650  1.6476 -1.5952 -0.3041
   69CHL1   H7B 6225   2.162   6.142   4.628 -0.2026 -2.1648 -0.7491
   69CHL1    C8 6226   2.062   6.339   4.673  0.8094  0.1716  0.2157
   69CHL1    H8 6227   1.952   6.353   4.664  0.7649 -0.8993 -1.4983
   69CHL1   C14 6228   2.119   6.331   4.813  0.0217  0.3144 -0.1240
   69CHL1   H14 6229   2.227   6.307   4.803  0.4986  2.0151  0.4521
   69CHL1   C15 6230   2.066   6.224   4.912  0.0167 -0.1219 -0.3498
   69CHL1  H15A 6231   1.955   6.219   4.919  0.0870 -1.6593 -0.0325
   69CHL1  H15B 6232   2.087   6.121   4.877 -1.3687  0.1259 -2.0674
   69CHL1   C16 6233   2.109   6.269   5.048  0.2328  0.1122  0.3134
   69CHL1  H16A 6234   2.023   6.273   5.118 -1.1098  0.1432 -1.2951
   69CHL1  H16B 6235   2.180   6.194   5.090 -1.6597 -2.0132 -0.1068
   69CHL1   C17 6236   2.170   6.412   5.027  0.5750  0.1007 -0.6435
   69CHL1   H17 6237   2.279   6.388   5.022  0.1555 -2.4517  0.9259
   69CHL1   C13 6238   2.114   6.465   4.899  0.4789  0.4932  0.1528
   69CHL1   C18 6239   1.959   6.503   4.911 -0.4012  0.0389  0.0650
   69CHL1  H18A 6240   1.969   6.604   4.955  2.2620  0.3977 -1.1958
   69CHL1  H18B 6241   1.912   6.506   4.810 -1.9991  2.5454  0.7867
   69CHL1  H18C 6242   1.904   6.436   4.981  0.3310  0.3224  0.9216
   69CHL1   C12 6243   2.203   6.564   4.814  0.2261 -0.0294  0.0190
   69CHL1  H12A 6244   2.202   6.662   4.867 -0.0818 -0.1334  0.2081
   69CHL1  H12B 6245   2.309   6.532   4.805  0.5645  0.8908  0.5735
   69CHL1   C11 6246   2.151   6.582   4.671  0.1020  0.0591  0.1485
   69CHL1  H11A 6247   2.054   6.637   4.675 -0.5911 -1.0465 -0.8803
   69CHL1  H11B 6248   2.217   6.653   4.617 -3.0790  0.4093 -3.7119
   69CHL1    C9 6249   2.132   6.447   4.592  0.0959  0.0957  0.3195
   69CHL1    H9 6250   2.233   6.402   4.581  0.4829  0.9423  0.3452
   69CHL1   C10 6251   2.075   6.461   4.445  0.1180 -0.2143 -0.3609
   69CHL1   C19 6252   1.942   6.534   4.450 -0.3744  0.1125 -0.1231
   69CHL1  H19A 6253   1.961   6.638   4.482 -0.0141 -0.4406  1.5309
   69CHL1  H19B 6254   1.903   6.542   4.346 -0.8933  4.0214  0.2257
   69CHL1  H19C 6255   1.860   6.484   4.506 -0.5003  0.7964  0.3052
   69CHL1    C1 6256   2.175   6.538   4.356 -0.3161  0.0193  0.0562
   69CHL1   H1A 6257   2.192   6.639   4.398  3.4998 -0.0864 -0.8420
   69CHL1   H1B 6258   2.269   6.480   4.370  0.3687  1.3672  1.3307
   69CHL1    C2 6259   2.132   6.559   4.209 -0.6770  1.0050  0.2709
   69CHL1   H2A 6260   2.208   6.610   4.146 -0.1805  0.2763  0.2537
   69CHL1   H2B 6261   2.032   6.605   4.194 -1.0937  0.0764  0.1282
   69CHL1   C20 6262   2.136   6.504   5.145  0.3522  0.5906 -0.1798
   69CHL1   H20 6263   2.027   6.521   5.150  0.2163 -0.0473 -0.7942
   69CHL1   C21 6264   2.203   6.645   5.136 -0.5114 -0.3464  0.2477
   69CHL1  H21A 6265   2.149   6.699   5.055  0.5503  1.6629  0.8235
   69CHL1  H21B 6266   2.312   6.633   5.121 -0.7910  0.1975 -2.9473
   69CHL1  H21C 6267   2.180   6.696   5.232  2.1900  0.2564  0.6588
   69CHL1   C22 6268   2.182   6.438   5.282 -0.0499 -0.7510  0.6562
   69CHL1  H22A 6269   2.154   6.505   5.367  0.6784  0.0571  0.2730
   69CHL1  H22B 6270   2.113   6.352   5.295  0.0124 -0.5276  3.1136
   69CHL1   C23 6271   2.324   6.376   5.292 -0.4065 -0.1310 -0.4092
   69CHL1  H23A 6272   2.338   6.287   5.226 -0.7948 -1.3332  1.0725
   69CHL1  H23B 6273   2.393   6.454   5.255  0.5663 -0.6782  0.2314
   69CHL1   C24 6274   2.373   6.333   5.430  0.2534  0.2782 -0.4359
   69CHL1  H24A 6275   2.393   6.413   5.503  1.2186  0.5280 -0.9461
   69CHL1  H24B 6276   2.292   6.269   5.470  1.0398  0.4593  1.5217
   69CHL1   C25 6277   2.510   6.245   5.420 -0.0295  0.7361  0.3932
   69CHL1   H25 6278   2.500   6.165   5.344  0.7095  1.4532 -0.4764
   69CHL1   C26 6279   2.622   6.348   5.386  0.0518 -0.4628 -0.1919
   69CHL1  H26A 6280   2.610   6.432   5.457  0.7312  0.7542 -1.4493
   69CHL1  H26B 6281   2.726   6.309   5.395  1.1205  1.8942 -1.4563
   69CHL1  H26C 6282   2.603   6.384   5.283 -0.9916 -0.7154 -0.0977
   69CHL1   C27 6283   2.538   6.179   5.552  0.6306  0.3492  0.1152
   69CHL1  H27A 6284   2.603   6.094   5.525 -1.9928 -0.7901 -3.3249
   69CHL1  H27B 6285   2.586   6.244   5.629  0.4994  0.5702  0.0119
   69CHL1  H27C 6286   2.451   6.124   5.594  1.1474 -1.0875 -0.6210
   70CHL1    C3 6287   5.358   0.744   4.567 -0.2049 -0.3628 -0.6888
   70CHL1    H3 6288   5.399   0.842   4.600 -0.5408 -1.4756  3.6437
   70CHL1    O3 6289   5.366   0.738   4.424 -0.1175  0.0602  0.3699
   70CHL1   H3' 6290   5.304   0.681   4.377  0.3633  1.1449 -1.7025
   70CHL1    C4 6291   5.415   0.621   4.635  0.1217  0.2509  0.1923
   70CHL1   H4A 6292   5.381   0.533   4.577 -4.3804  1.0388  1.2667
   70CHL1   H4B 6293   5.526   0.624   4.626  0.5601  1.8353  4.1889
   70CHL1    C5 6294   5.370   0.592   4.776 -0.1241  0.1927 -0.5956
   70CHL1    C6 6295   5.449   0.566   4.879  0.3573 -0.1006  0.7389
   70CHL1    H6 6296   5.556   0.559   4.852  0.7188  1.0529  1.7768
   70CHL1    C7 6297   5.420   0.538   5.028 -0.0405 -0.6999  0.2862
   70CHL1   H7A 6298   5.468   0.444   5.062  0.1338 -0.2258  1.3912
   70CHL1   H7B 6299   5.474   0.609   5.094  2.3980 -1.1637 -1.0791
   70CHL1    C8 6300   5.270   0.522   5.048 -0.2294 -0.2083  0.1999
   70CHL1    H8 6301   5.233   0.422   5.020 -0.0968  0.0768 -1.0466
   70CHL1   C14 6302   5.232   0.540   5.191  0.4744 -0.2977  0.1810
   70CHL1   H14 6303   5.246   0.644   5.227 -2.4478  0.2835 -0.1722
   70CHL1   C15 6304   5.313   0.464   5.296 -0.9752 -0.1803 -0.9101
   70CHL1  H15A 6305   5.304   0.360   5.258  0.3512 -0.9226  0.6757
   70CHL1  H15B 6306   5.419   0.496   5.305 -1.5669  1.6723  0.1530
   70CHL1   C16 6307   5.225   0.478   5.423 -0.2737  0.6095  0.1933
   70CHL1  H16A 6308   5.191   0.378   5.458 -0.4038  0.6888  0.2946
   70CHL1  H16B 6309   5.272   0.529   5.510  2.2161 -1.2860  0.0841
   70CHL1   C17 6310   5.091   0.549   5.384  0.1215 -0.0012 -0.0217
   70CHL1   H17 6311   5.110   0.658   5.390 -0.5899  0.2564 -1.9044
   70CHL1   C13 6312   5.083   0.525   5.234 -0.1162  0.1595 -0.1879
   70CHL1   C18 6313   5.032   0.377   5.211 -0.2719  0.2852 -0.9649
   70CHL1  H18A 6314   4.925   0.374   5.240  0.1988 -1.6124  0.8030
   70CHL1  H18B 6315   5.048   0.345   5.105 -0.9273  0.4364 -1.1126
   70CHL1  H18C 6316   5.088   0.304   5.274 -0.3817 -0.9117 -2.1977
   70CHL1   C12 6317   5.006   0.627   5.153  0.2033 -0.3121 -0.1458
   70CHL1  H12A 6318   4.897   0.607   5.163  0.1923 -0.7890 -1.1341
   70CHL1  H12B 6319   5.029   0.734   5.175 -0.4294 -0.4957  1.6122
   70CHL1   C11 6320   5.038   0.615   5.000  0.0547  0.6977  0.0871
   70CHL1  H11A 6321   4.994   0.520   4.963 -0.5803  0.3616  1.6359
   70CHL1  H11B 6322   4.993   0.699   4.944  0.8839  0.4461 -0.9866
   70CHL1    C9 6323   5.189   0.628   4.961 -0.3245 -0.0675 -0.0521
   70CHL1    H9 6324   5.225   0.729   4.990  1.3472  0.0500 -2.2039
   70CHL1   C10 6325   5.218   0.613   4.806 -0.0690  0.3571  0.1651
   70CHL1   C19 6326   5.137   0.492   4.755 -0.2553  0.3121 -0.1322
   70CHL1  H19A 6327   5.160   0.394   4.801  1.0816  1.1805  1.1469
   70CHL1  H19B 6328   5.029   0.520   4.761 -0.0263  1.1079  0.4677
   70CHL1  H19C 6329   5.153   0.483   4.646  0.0395  3.6719 -0.4960
   70CHL1    C1 6330   5.171   0.750   4.740  0.5826  0.7782 -0.6903
   70CHL1   H1A 6331   5.060   0.753   4.750  0.7288  0.2066  1.9466
   70CHL1   H1B 6332   5.219   0.832   4.798  1.9032 -0.2337 -0.3088
   70CHL1    C2 6333   5.203   0.760   4.590  0.0817  1.0658  0.4614
   70CHL1   H2A 6334   5.171   0.857   4.547 -3.4271  0.9868  2.4654
   70CHL1   H2B 6335   5.137   0.682   4.544 -1.6358  2.3505  0.6212
   70CHL1   C20 6336   4.983   0.508   5.486  0.7276  0.3466  0.6542
   70CHL1   H20 6337   4.964   0.398   5.485 -0.3198  0.5160  1.0630
   70CHL1   C21 6338   4.850   0.564   5.439  0.9202  0.4093  0.4799
   70CHL1  H21A 6339   4.768   0.563   5.513 -0.8565 -0.5669 -1.4175
   70CHL1  H21B 6340   4.805   0.509   5.353 -0.5059 -2.0992  2.6963
   70CHL1  H21C 6341   4.846   0.672   5.412 -0.9997 -0.4572 -3.4990
   70CHL1   C22 6342   5.012   0.547   5.627 -0.0051 -0.5869  0.2501
   70CHL1  H22A 6343   4.927   0.508   5.687  1.1964 -0.7479  1.9383
   70CHL1  H22B 6344   5.100   0.482   5.650 -1.3536 -2.7188 -0.3903
   70CHL1   C23 6345   5.022   0.694   5.657  0.1431 -0.2217 -0.7100
   70CHL1  H23A 6346   5.095   0.730   5.582 -0.2039 -3.0330 -2.5253
   70CHL1  H23B 6347   4.919   0.734   5.643  1.1196  1.5092 -3.8645
   70CHL1   C24 6348   5.072   0.737   5.801 -0.6379  0.7157 -1.2095
   70CHL1  H24A 6349   5.177   0.702   5.795 -0.8567  0.0818 -1.5095
   70CHL1  H24B 6350   5.076   0.847   5.811  0.2582  0.6436 -0.6269
   70CHL1   C25 6351   4.993   0.677   5.921 -0.1130 -0.6316  0.1237
   70CHL1   H25 6352   5.000   0.567   5.922 -0.3836 -0.6477  0.2947
   70CHL1   C26 6353   5.064   0.709   6.054  0.2854 -0.4014  0.3556
   70CHL1  H26A 6354   5.164   0.662   6.059  1.2198  1.5537  0.6556
   70CHL1  H26B 6355   5.077   0.817   6.074  2.1994 -0.2741 -1.3366
   70CHL1  H26C 6356   5.004   0.671   6.140  1.6783 -0.9118  1.1208
   70CHL1   C27 6357   4.843   0.720   5.926 -0.7463 -0.3682  0.7667
   70CHL1  H27A 6358   4.791   0.680   6.017 -1.7699 -1.8294 -0.4093
   70CHL1  H27B 6359   4.834   0.831   5.931  1.6214 -0.1215  0.4701
   70CHL1  H27C 6360   4.784   0.676   5.843 -0.1318  0.0869  0.0868
   71CHL1    C3 6361   2.335   6.049   4.091  0.3283  0.5287  0.3320
   71CHL1    H3 6362   2.241   6.101   4.117  1.1270  2.7510 -0.9609
   71CHL1    O3 6363   2.352   6.052   3.948  0.3592  0.1217  0.0440
   71CHL1   H3' 6364   2.427   5.994   3.929  1.2086 -0.3215  3.9956
   71CHL1    C4 6365   2.451   6.115   4.161  0.4624  0.5857 -0.7240
   71CHL1   H4A 6366   2.536   6.058   4.118 -0.7220 -0.2090 -2.0735
   71CHL1   H4B 6367   2.450   6.219   4.121 -0.0581  0.6329 -0.5947
   71CHL1    C5 6368   2.446   6.106   4.313 -0.5249  0.6644 -0.2062
   71CHL1    C6 6369   2.460   6.219   4.391 -0.0803 -0.1471  0.4228
   71CHL1    H6 6370   2.496   6.318   4.358  1.1271 -0.0910  1.8323
   71CHL1    C7 6371   2.466   6.208   4.537  0.1215  0.4122 -0.3804
   71CHL1   H7A 6372   2.555   6.259   4.579  1.2852 -1.2471 -0.7624
   71CHL1   H7B 6373   2.377   6.257   4.583 -0.1233 -0.5232  0.1808
   71CHL1    C8 6374   2.472   6.061   4.597 -0.0797 -0.8365  0.8206
   71CHL1    H8 6375   2.574   6.021   4.578  0.2477  0.7214 -1.0239
   71CHL1   C14 6376   2.426   6.062   4.742 -0.2417  0.2312 -0.4564
   71CHL1   H14 6377   2.319   6.091   4.735 -0.7045 -1.1973  0.2653
   71CHL1   C15 6378   2.499   6.156   4.843  0.2342 -0.0739  0.4717
   71CHL1  H15A 6379   2.606   6.138   4.818  0.4972 -0.2729  1.7116
   71CHL1  H15B 6380   2.472   6.261   4.822  0.8077  0.0561  0.3653
   71CHL1   C16 6381   2.463   6.092   4.977 -0.6867 -1.1019  0.0789
   71CHL1  H16A 6382   2.549   6.096   5.046 -1.0410 -0.1637  0.4942
   71CHL1  H16B 6383   2.388   6.152   5.033 -0.0522  0.9981 -1.1726
   71CHL1   C17 6384   2.384   5.959   4.950  0.1648 -0.3069  0.0403
   71CHL1   H17 6385   2.279   5.993   4.941 -0.0667 -0.8813  0.5317
   71CHL1   C13 6386   2.431   5.923   4.811  0.0805  0.2855  0.1348
   71CHL1   C18 6387   2.579   5.876   4.815 -0.7403 -0.0008  0.1044
   71CHL1  H18A 6388   2.629   5.881   4.716 -1.6115  1.9583 -0.3004
   71CHL1  H18B 6389   2.630   5.947   4.884 -0.8234 -0.8118  1.0242
   71CHL1  H18C 6390   2.582   5.773   4.855 -0.2285  0.0212  0.1278
   71CHL1   C12 6391   2.346   5.826   4.739  0.1734  0.3005  0.2181
   71CHL1  H12A 6392   2.364   5.720   4.768  2.3819  0.2194 -1.2115
   71CHL1  H12B 6393   2.239   5.854   4.755 -0.6465 -1.8204 -1.0799
   71CHL1   C11 6394   2.383   5.823   4.589 -0.2021  0.5445  0.6901
   71CHL1  H11A 6395   2.480   5.769   4.579 -0.2899  0.7792 -2.6870
   71CHL1  H11B 6396   2.307   5.762   4.536  0.4667  1.6349 -1.6626
   71CHL1    C9 6397   2.383   5.959   4.519 -0.2020  0.8962 -0.2036
   71CHL1    H9 6398   2.276   5.983   4.536 -0.2297 -0.2715  1.5014
   71CHL1   C10 6399   2.422   5.960   4.372 -0.0586  0.1533  0.6914
   71CHL1   C19 6400   2.548   5.874   4.351  0.0049 -0.6775 -0.5137
   71CHL1  H19A 6401   2.598   5.902   4.256  0.3443 -0.1088 -0.1674
   71CHL1  H19B 6402   2.614   5.893   4.438  1.1895  2.1706 -1.9229
   71CHL1  H19C 6403   2.518   5.768   4.341  0.3022 -0.6438 -2.0466
   71CHL1    C1 6404   2.298   5.900   4.294 -0.0098  0.2545  0.5364
   71CHL1   H1A 6405   2.279   5.794   4.321  1.7183 -0.1386  0.3301
   71CHL1   H1B 6406   2.199   5.948   4.312 -1.2092 -2.1223  0.6628
   71CHL1    C2 6407   2.318   5.898   4.138  0.1496 -0.3140 -0.8542
   71CHL1   H2A 6408   2.227   5.855   4.090 -0.6008 -1.5512  1.4731
   71CHL1   H2B 6409   2.406   5.835   4.114 -0.1063 -2.2463  2.5240
   71CHL1   C20 6410   2.397   5.852   5.059 -0.7347  0.2673 -0.4488
   71CHL1   H20 6411   2.492   5.802   5.034 -0.6784  0.7386 -1.2032
   71CHL1   C21 6412   2.284   5.757   5.051  0.0155  0.9266 -0.6067
   71CHL1  H21A 6413   2.301   5.682   4.971  0.7061  1.9929 -1.4858
   71CHL1  H21B 6414   2.189   5.811   5.031 -0.0225  0.4562 -1.8207
   71CHL1  H21C 6415   2.270   5.697   5.144  4.0180  2.3341  1.0984
   71CHL1   C22 6416   2.424   5.903   5.204  0.3939  0.4778  0.2047
   71CHL1  H22A 6417   2.478   6.000   5.214  0.9479  0.1545  0.4405
   71CHL1  H22B 6418   2.330   5.909   5.262  0.7666 -1.6299  1.1360
   71CHL1   C23 6419   2.513   5.789   5.282 -0.1402 -0.4383 -0.9922
   71CHL1  H23A 6420   2.467   5.688   5.297  0.7518 -0.6481  0.5777
   71CHL1  H23B 6421   2.609   5.763   5.234  1.2298 -2.1390  2.3293
   71CHL1   C24 6422   2.546   5.845   5.423  0.1567  0.2848 -0.0799
   71CHL1  H24A 6423   2.605   5.937   5.401  1.1436 -0.1051  0.8399
   71CHL1  H24B 6424   2.446   5.882   5.455 -1.0416 -3.5596  1.1730
   71CHL1   C25 6425   2.617   5.770   5.540  0.0711 -0.4226  0.3216
   71CHL1   H25 6426   2.565   5.674   5.558  0.4314 -0.4242  1.4086
   71CHL1   C26 6427   2.758   5.722   5.494  0.1580  0.4876 -0.1734
   71CHL1  H26A 6428   2.760   5.639   5.420  0.0499  1.1269 -0.9111
   71CHL1  H26B 6429   2.819   5.808   5.461 -1.0476  2.2757  1.9584
   71CHL1  H26C 6430   2.805   5.675   5.582 -0.7222 -3.9541 -1.7939
   71CHL1   C27 6431   2.630   5.848   5.672 -0.1771  0.5170  0.0868
   71CHL1  H27A 6432   2.531   5.886   5.707  0.6474  3.0008 -0.0941
   71CHL1  H27B 6433   2.678   5.785   5.750 -0.7850  1.7918  1.5480
   71CHL1  H27C 6434   2.695   5.936   5.654 -1.2779  1.1073 -1.1559
   72CHL1    C3 6435   4.478   1.571   4.249 -0.0421  0.0928 -0.6576
   72CHL1    H3 6436   4.442   1.673   4.274  0.3335  0.0239  0.2050
   72CHL1    O3 6437   4.531   1.572   4.115 -0.4363 -0.1962 -0.5065
   72CHL1   H3' 6438   4.605   1.633   4.111 -0.6476  0.0243 -1.2563
   72CHL1    C4 6439   4.596   1.542   4.351  0.7369  0.2417  0.4283
   72CHL1   H4A 6440   4.647   1.452   4.311 -2.1884 -1.0984 -0.5910
   72CHL1   H4B 6441   4.671   1.623   4.332  1.3119  0.0060  1.5999
   72CHL1    C5 6442   4.556   1.528   4.497  0.0805  0.0469  0.5593
   72CHL1    C6 6443   4.600   1.611   4.596  0.4316 -0.0413 -0.2241
   72CHL1    H6 6444   4.679   1.684   4.574  1.5748 -1.5241 -1.2511
   72CHL1    C7 6445   4.560   1.599   4.741  0.8232  0.0868 -0.0410
   72CHL1   H7A 6446   4.654   1.579   4.798  0.4836 -1.6812 -0.0546
   72CHL1   H7B 6447   4.527   1.694   4.788  0.2390 -0.9685  1.8123
   72CHL1    C8 6448   4.471   1.475   4.775 -0.4188 -0.6790  0.0345
   72CHL1    H8 6449   4.540   1.388   4.773  1.1798  0.5575 -0.4417
   72CHL1   C14 6450   4.396   1.494   4.900  0.0288  1.1038 -0.1530
   72CHL1   H14 6451   4.320   1.575   4.890  0.3962  1.6024  0.9191
   72CHL1   C15 6452   4.481   1.520   5.020 -0.3206 -0.0231 -0.2376
   72CHL1  H15A 6453   4.576   1.463   5.013 -0.5080 -0.4589  0.5820
   72CHL1  H15B 6454   4.520   1.624   5.022  1.1485 -0.5506  0.5391
   72CHL1   C16 6455   4.393   1.471   5.144 -0.1078  0.1686  0.1295
   72CHL1  H16A 6456   4.447   1.402   5.211 -2.7914  0.2492  2.5147
   72CHL1  H16B 6457   4.362   1.552   5.213 -2.2121  0.6518 -1.2868
   72CHL1   C17 6458   4.271   1.400   5.083  0.0311  0.7107 -0.6638
   72CHL1   H17 6459   4.188   1.474   5.078 -0.0907  0.7712  1.3516
   72CHL1   C13 6460   4.312   1.369   4.942 -0.1062  0.6792 -0.3219
   72CHL1   C18 6461   4.401   1.240   4.948  0.7086 -0.5749 -0.0995
   72CHL1  H18A 6462   4.453   1.223   4.851 -0.9590 -0.4901 -1.0296
   72CHL1  H18B 6463   4.475   1.240   5.031 -0.1809 -0.0984  0.6993
   72CHL1  H18C 6464   4.334   1.152   4.957  0.5987 -0.6006 -1.0588
   72CHL1   C12 6465   4.202   1.361   4.835 -0.4189 -0.5918  0.1271
   72CHL1  H12A 6466   4.123   1.286   4.856 -0.5733 -0.7790 -1.0390
   72CHL1  H12B 6467   4.161   1.464   4.826  0.1403 -0.2903  0.9531
   72CHL1   C11 6468   4.276   1.341   4.696 -0.0021 -0.6435  1.0833
   72CHL1  H11A 6469   4.324   1.240   4.699  1.0189 -0.1721  1.0679
   72CHL1  H11B 6470   4.195   1.346   4.620  0.7056  2.3266  0.4087
   72CHL1    C9 6471   4.378   1.456   4.657 -0.0572  0.4001  0.0235
   72CHL1    H9 6472   4.320   1.551   4.647 -1.6391 -0.4672  0.6307
   72CHL1   C10 6473   4.437   1.428   4.519 -0.0379 -0.3584  0.1618
   72CHL1   C19 6474   4.489   1.284   4.501 -0.3655  0.0315 -0.0571
   72CHL1  H19A 6475   4.406   1.210   4.499  0.3850 -0.8110 -1.9931
   72CHL1  H19B 6476   4.537   1.267   4.402 -0.0121 -1.1618  0.3028
   72CHL1  H19C 6477   4.547   1.258   4.592 -0.8807  0.0631  0.2882
   72CHL1    C1 6478   4.326   1.453   4.410 -0.3285  0.6165  0.0545
   72CHL1   H1A 6479   4.251   1.371   4.414 -0.6632  0.9483  0.7426
   72CHL1   H1B 6480   4.269   1.547   4.419 -0.8094  0.4043 -0.6611
   72CHL1    C2 6481   4.370   1.463   4.260 -0.0614  0.7466 -0.0082
   72CHL1   H2A 6482   4.279   1.486   4.201  1.4881  0.4290 -2.6810
   72CHL1   H2B 6483   4.402   1.359   4.236 -2.7002 -0.4252  1.1404
   72CHL1   C20 6484   4.213   1.279   5.168 -0.0543  0.1385 -0.6861
   72CHL1   H20 6485   4.289   1.202   5.192 -0.1392  0.1070 -0.5087
   72CHL1   C21 6486   4.091   1.216   5.092  0.1050  0.4026  0.2593
   72CHL1  H21A 6487   4.015   1.296   5.077  2.1924  1.9083 -4.1421
   72CHL1  H21B 6488   4.046   1.137   5.155  0.8696 -0.3982 -0.1764
   72CHL1  H21C 6489   4.122   1.154   5.005  0.0809 -0.6458  0.9898
   72CHL1   C22 6490   4.160   1.332   5.309  0.3094 -0.0753  0.4038
   72CHL1  H22A 6491   4.228   1.402   5.361 -0.2875  1.6801 -1.0718
   72CHL1  H22B 6492   4.072   1.396   5.284  1.6070  2.3867  1.7887
   72CHL1   C23 6493   4.118   1.227   5.408  0.1200 -0.3082  0.0397
   72CHL1  H23A 6494   4.038   1.164   5.364  0.4626  0.6088 -1.9729
   72CHL1  H23B 6495   4.198   1.154   5.431 -1.2686 -1.8275  0.1763
   72CHL1   C24 6496   4.065   1.289   5.536  0.0379  0.1900  0.5503
   72CHL1  H24A 6497   4.125   1.382   5.549  2.0030 -0.6185 -1.9707
   72CHL1  H24B 6498   3.958   1.320   5.539  0.5077  1.9779  0.2387
   72CHL1   C25 6499   4.080   1.193   5.654 -0.0260  0.1278 -0.1715
   72CHL1   H25 6500   4.187   1.163   5.649  0.4596  1.6213  0.5392
   72CHL1   C26 6501   4.071   1.274   5.785  0.2152 -0.0351  0.7477
   72CHL1  H26A 6502   4.042   1.200   5.862  2.1578 -2.8644 -1.0229
   72CHL1  H26B 6503   4.165   1.332   5.800  0.4465  0.9783 -3.3461
   72CHL1  H26C 6504   3.979   1.336   5.783 -0.0918 -0.2748 -3.7721
   72CHL1   C27 6505   3.987   1.073   5.657  0.8107 -0.1771 -0.2646
   72CHL1  H27A 6506   3.884   1.113   5.646  1.1031  0.0705 -2.7698
   72CHL1  H27B 6507   3.999   1.010   5.566 -0.0924  1.4766 -1.5815
   72CHL1  H27C 6508   3.994   1.015   5.751 -2.0527  1.1542  0.8746
   73CHL1    C3 6509   6.450   6.176   4.291  0.6607  0.2517  0.1673
   73CHL1    H3 6510   6.519   6.102   4.337  0.6917  1.3784  2.0170
   73CHL1    O3 6511   6.503   6.226   4.171 -0.1596  0.6826  0.1159
   73CHL1   H3' 6512   6.466   6.312   4.150  0.5642  0.8772 -0.4205
   73CHL1    C4 6513   6.306   6.123   4.276  0.5410 -0.2231  1.0546
   73CHL1   H4A 6514   6.243   6.180   4.204  0.6970 -0.1129  1.0052
   73CHL1   H4B 6515   6.323   6.033   4.213  0.1246 -0.2024  0.9049
   73CHL1    C5 6516   6.236   6.094   4.404  0.0500  0.0367  0.4744
   73CHL1    C6 6517   6.189   5.969   4.424  0.3958  0.3516 -0.4787
   73CHL1    H6 6518   6.195   5.889   4.348 -3.0262 -0.8701  0.3537
   73CHL1    C7 6519   6.112   5.916   4.541 -0.4976 -0.8011 -0.3378
   73CHL1   H7A 6520   6.017   5.871   4.505  0.1432 -1.5127 -1.1803
   73CHL1   H7B 6521   6.164   5.843   4.607 -0.2623 -0.9963 -0.7324
   73CHL1    C8 6522   6.072   6.045   4.626 -0.4106  0.3653  0.0548
   73CHL1    H8 6523   5.994   6.100   4.569 -0.1914  1.1329  0.4846
   73CHL1   C14 6524   6.038   6.003   4.770 -0.3995  0.2809  0.9452
   73CHL1   H14 6525   6.133   5.975   4.822 -0.7452 -0.6255  1.1002
   73CHL1   C15 6526   5.953   5.879   4.789 -0.0952 -0.7395 -0.1490
   73CHL1  H15A 6527   5.855   5.892   4.738 -0.7769  0.6741  1.4306
   73CHL1  H15B 6528   5.992   5.777   4.765 -1.8201 -1.4094 -0.2951
   73CHL1   C16 6529   5.926   5.884   4.943 -0.0392  1.5008 -0.2121
   73CHL1  H16A 6530   5.822   5.851   4.964 -0.2472  0.9532 -1.8985
   73CHL1  H16B 6531   6.008   5.826   4.991 -0.6889  0.4370 -0.3374
   73CHL1   C17 6532   5.947   6.033   4.987 -0.6469  0.4129 -0.7065
   73CHL1   H17 6533   6.041   6.033   5.046 -0.0900 -2.4605 -1.4502
   73CHL1   C13 6534   5.982   6.110   4.859  0.6893 -0.0021  0.4758
   73CHL1   C18 6535   5.857   6.176   4.799  0.1128  0.6252 -0.7665
   73CHL1  H18A 6536   5.761   6.121   4.801  0.7447 -0.5289  0.8259
   73CHL1  H18B 6537   5.845   6.273   4.851 -1.3280 -0.1280  0.4128
   73CHL1  H18C 6538   5.872   6.181   4.689 -0.6292  1.6581 -0.8268
   73CHL1   C12 6539   6.098   6.212   4.869 -0.2412 -0.3155  0.2626
   73CHL1  H12A 6540   6.079   6.305   4.927  1.5598  0.1028  0.2242
   73CHL1  H12B 6541   6.190   6.168   4.914  0.1419 -0.6406 -0.8154
   73CHL1   C11 6542   6.140   6.268   4.729  0.4725 -0.6654 -0.4485
   73CHL1  H11A 6543   6.055   6.329   4.693 -0.8921 -0.6200  2.5316
   73CHL1  H11B 6544   6.226   6.338   4.729  0.2849 -0.4051  1.2409
   73CHL1    C9 6545   6.182   6.153   4.632  0.1821  0.5777 -0.0786
   73CHL1    H9 6546   6.262   6.093   4.680 -0.0679 -1.2639 -1.8324
   73CHL1   C10 6547   6.239   6.206   4.504 -0.4722  0.6425  0.6603
   73CHL1   C19 6548   6.151   6.315   4.438  0.1557  0.0187 -0.2866
   73CHL1  H19A 6549   6.151   6.408   4.497 -0.7875  0.4270 -0.9206
   73CHL1  H19B 6550   6.180   6.346   4.335  1.5005 -2.9156 -0.9020
   73CHL1  H19C 6551   6.047   6.279   4.426  0.0863  0.2665 -0.4449
   73CHL1    C1 6552   6.387   6.256   4.523  0.0479  0.3826 -0.1503
   73CHL1   H1A 6553   6.379   6.347   4.587 -0.9964 -1.0570  1.8782
   73CHL1   H1B 6554   6.444   6.180   4.581 -0.4771  1.2386  1.5814
   73CHL1    C2 6555   6.464   6.285   4.398 -0.0717 -0.3355  0.3563
   73CHL1   H2A 6556   6.573   6.301   4.413 -0.0019 -0.6087  0.1513
   73CHL1   H2B 6557   6.428   6.380   4.353 -1.9436 -1.1719  0.0092
   73CHL1   C20 6558   5.838   6.081   5.078 -0.3728  0.0477 -0.2506
   73CHL1   H20 6559   5.741   6.100   5.029 -0.8501 -0.8186  0.3467
   73CHL1   C21 6560   5.886   6.219   5.128 -0.7624  0.4534  0.3815
   73CHL1  H21A 6561   5.989   6.206   5.168 -0.4970 -1.1192 -0.7308
   73CHL1  H21B 6562   5.830   6.255   5.217  2.1751  0.5355  2.3527
   73CHL1  H21C 6563   5.882   6.299   5.052  0.7017 -1.0837 -1.4164
   73CHL1   C22 6564   5.814   5.985   5.193 -0.0769 -0.2898  0.3737
   73CHL1  H22A 6565   5.769   5.889   5.159 -3.0351  0.2478  2.3994
   73CHL1  H22B 6566   5.915   5.959   5.233 -0.2597  1.5541  2.1641
   73CHL1   C23 6567   5.721   6.031   5.302 -0.1583  0.5418 -0.5604
   73CHL1  H23A 6568   5.766   6.096   5.380 -0.4241 -0.9041  0.8737
   73CHL1  H23B 6569   5.635   6.087   5.260  1.4454  3.4631 -0.1894
   73CHL1   C24 6570   5.673   5.911   5.385  0.1903  1.1520 -0.4566
   73CHL1  H24A 6571   5.621   5.853   5.306 -0.1343 -0.4222  0.8648
   73CHL1  H24B 6572   5.771   5.876   5.424  1.2681  2.2052 -2.0721
   73CHL1   C25 6573   5.573   5.948   5.498  0.1624 -0.5290  0.8010
   73CHL1   H25 6574   5.615   6.038   5.548  4.2897 -2.1399  0.5849
   73CHL1   C26 6575   5.435   5.982   5.437 -0.6495 -0.2918 -0.5388
   73CHL1  H26A 6576   5.363   5.994   5.521 -0.5546 -1.8603 -0.2044
   73CHL1  H26B 6577   5.439   6.078   5.381 -1.7493 -0.4387 -0.8849
   73CHL1  H26C 6578   5.398   5.901   5.371 -1.5383  0.1333 -0.5817
   73CHL1   C27 6579   5.557   5.831   5.595 -0.6170 -0.4400 -0.4072
   73CHL1  H27A 6580   5.523   5.734   5.551  1.2644 -0.6654 -1.5018
   73CHL1  H27B 6581   5.653   5.823   5.650 -2.4400 -0.7541  2.9523
   73CHL1  H27C 6582   5.485   5.859   5.674 -0.5507 -3.5001  0.8839
   74CHL1    C3 6583   0.929   5.227   4.062 -0.5613  0.7850 -0.0265
   74CHL1    H3 6584   0.890   5.123   4.062  1.9251 -0.2171 -0.7620
   74CHL1    O3 6585   0.985   5.245   3.931  0.0113  0.3251  0.4135
   74CHL1   H3' 6586   1.065   5.297   3.930 -0.8898  1.7825 -1.0911
   74CHL1    C4 6587   0.812   5.328   4.089 -0.7378  0.7337  0.1066
   74CHL1   H4A 6588   0.845   5.424   4.044  0.3709  0.0728 -0.5362
   74CHL1   H4B 6589   0.724   5.297   4.029 -1.1301  0.6720  0.6973
   74CHL1    C5 6590   0.775   5.347   4.234  0.0561  0.2709  0.2116
   74CHL1    C6 6591   0.649   5.332   4.267 -0.8453 -0.3745  0.9142
   74CHL1    H6 6592   0.571   5.318   4.190 -2.4783  1.8077  2.0200
   74CHL1    C7 6593   0.592   5.356   4.412  0.5067 -0.4375  1.2416
   74CHL1   H7A 6594   0.492   5.405   4.411 -1.0217 -3.2994 -0.7023
   74CHL1   H7B 6595   0.563   5.259   4.458 -0.4362 -0.4714  0.5952
   74CHL1    C8 6596   0.698   5.425   4.506 -0.0832  0.4910  0.1664
   74CHL1    H8 6597   0.708   5.531   4.476  0.3341  0.0770 -1.2327
   74CHL1   C14 6598   0.654   5.415   4.654  0.1452  0.0205 -0.3978
   74CHL1   H14 6599   0.643   5.309   4.683 -3.5334  0.4956  0.4878
   74CHL1   C15 6600   0.506   5.463   4.698 -0.2063 -0.0585 -0.0489
   74CHL1  H15A 6601   0.483   5.562   4.653  0.7894  1.2206  2.1300
   74CHL1  H15B 6602   0.432   5.389   4.661  0.5579 -0.4955 -0.7512
   74CHL1   C16 6603   0.521   5.495   4.848 -0.2394  0.2746 -0.0663
   74CHL1  H16A 6604   0.509   5.605   4.862  1.5420  0.4070  0.7888
   74CHL1  H16B 6605   0.438   5.451   4.908 -1.2611  1.1263 -0.8165
   74CHL1   C17 6606   0.669   5.455   4.890 -0.4060  0.0995 -0.1081
   74CHL1   H17 6607   0.659   5.348   4.916 -3.7616  0.5987  1.1668
   74CHL1   C13 6608   0.755   5.471   4.759  0.2889  0.5210  0.6533
   74CHL1   C18 6609   0.786   5.624   4.742 -0.0535  0.4014 -0.3130
   74CHL1  H18A 6610   0.695   5.679   4.772 -0.1557  0.1168 -0.0922
   74CHL1  H18B 6611   0.867   5.653   4.812  0.8626 -0.3109 -1.0568
   74CHL1  H18C 6612   0.811   5.643   4.636  0.5647 -0.8431 -0.4143
   74CHL1   C12 6613   0.884   5.394   4.746  0.0745  1.0326  0.2500
   74CHL1  H12A 6614   0.955   5.441   4.817  0.7335  1.9905 -0.9999
   74CHL1  H12B 6615   0.872   5.287   4.775  1.5180  0.6628 -0.4303
   74CHL1   C11 6616   0.941   5.402   4.601 -0.4826  0.0170 -0.3381
   74CHL1  H11A 6617   0.968   5.507   4.579 -2.2563  0.2363 -1.6517
   74CHL1  H11B 6618   1.031   5.338   4.585 -1.8608 -2.0808 -0.0538
   74CHL1    C9 6619   0.841   5.355   4.496  0.3213 -0.2507  0.5491
   74CHL1    H9 6620   0.821   5.247   4.517  0.2329 -0.1815  0.8349
   74CHL1   C10 6621   0.883   5.368   4.342  0.2688 -0.1248 -0.4586
   74CHL1   C19 6622   0.928   5.514   4.312  0.0629  0.3187 -0.2239
   74CHL1  H19A 6623   0.850   5.588   4.339 -0.7628 -1.1088  1.5478
   74CHL1  H19B 6624   1.018   5.544   4.370 -0.7807  3.1543 -0.2526
   74CHL1  H19C 6625   0.955   5.529   4.205  2.2466  0.1191  0.2519
   74CHL1    C1 6626   1.000   5.266   4.324  0.5128  0.0124  0.1748
   74CHL1   H1A 6627   1.090   5.292   4.384  1.7013  0.9710 -1.9128
   74CHL1   H1B 6628   0.961   5.165   4.349 -0.8494  0.3433 -0.5190
   74CHL1    C2 6629   1.040   5.244   4.174  0.7016 -0.3595  0.0484
   74CHL1   H2A 6630   1.108   5.156   4.181  0.8134 -0.2172  0.9784
   74CHL1   H2B 6631   1.099   5.335   4.149  1.8434 -0.7773  1.1074
   74CHL1   C20 6632   0.716   5.525   5.024  0.2760 -0.2528 -0.4260
   74CHL1   H20 6633   0.729   5.634   5.003 -0.2655  0.4119  2.1945
   74CHL1   C21 6634   0.848   5.455   5.067  0.3488  0.9114  0.1245
   74CHL1  H21A 6635   0.845   5.345   5.053  3.7823  0.3975  2.3207
   74CHL1  H21B 6636   0.878   5.476   5.172  2.9437  1.9166 -0.7461
   74CHL1  H21C 6637   0.934   5.484   5.003  0.8091 -1.6676 -0.5396
   74CHL1   C22 6638   0.614   5.528   5.136  0.0562  0.5862 -0.3833
   74CHL1  H22A 6639   0.518   5.566   5.095 -0.1209  0.4010 -0.1462
   74CHL1  H22B 6640   0.603   5.426   5.178  1.8247  0.6631  0.3660
   74CHL1   C23 6641   0.646   5.619   5.260  0.5454  0.5967  0.1026
   74CHL1  H23A 6642   0.751   5.601   5.291 -0.1426  0.4031  2.5292
   74CHL1  H23B 6643   0.635   5.719   5.212 -1.2179  0.6444  0.5402
   74CHL1   C24 6644   0.557   5.593   5.384  0.8717 -0.0869  0.5496
   74CHL1  H24A 6645   0.458   5.566   5.343  0.7541  1.7446 -0.4651
   74CHL1  H24B 6646   0.595   5.500   5.432  0.7691 -0.5561 -0.2613
   74CHL1   C25 6647   0.553   5.705   5.482 -0.4941  0.1399  0.1094
   74CHL1   H25 6648   0.529   5.789   5.413 -0.6307  0.6788  0.8073
   74CHL1   C26 6649   0.438   5.681   5.594 -0.6620  0.1103 -0.0257
   74CHL1  H26A 6650   0.332   5.691   5.561 -0.7838 -1.6632 -0.2809
   74CHL1  H26B 6651   0.444   5.573   5.620 -1.2989 -0.8705 -3.4326
   74CHL1  H26C 6652   0.447   5.742   5.686 -2.7299 -0.9785  0.9597
   74CHL1   C27 6653   0.682   5.736   5.560 -0.0538 -0.1047  0.2229
   74CHL1  H27A 6654   0.774   5.723   5.499  1.2963  0.8597  1.9201
   74CHL1  H27B 6655   0.687   5.840   5.600 -2.4659 -0.6564  2.1982
   74CHL1  H27C 6656   0.679   5.676   5.653  0.2489 -1.1494 -0.4278
   75CHL1    C3 6657   5.602   6.005   4.112  0.8237 -0.6920  0.6072
   75CHL1    H3 6658   5.524   5.944   4.063  0.3372 -0.3915  1.0029
   75CHL1    O3 6659   5.664   6.082   4.008 -0.5482  0.5527  0.1853
   75CHL1   H3' 6660   5.658   6.029   3.928 -0.0310 -0.1233  0.5830
   75CHL1    C4 6661   5.542   6.111   4.212 -0.2059 -0.1727  0.0928
   75CHL1   H4A 6662   5.626   6.176   4.246 -0.0345 -0.7896  0.9036
   75CHL1   H4B 6663   5.476   6.179   4.156  2.3671  1.4494 -1.1761
   75CHL1    C5 6664   5.476   6.038   4.323 -0.1281 -0.5931 -0.5702
   75CHL1    C6 6665   5.350   6.066   4.354  0.0124  0.6280 -0.3164
   75CHL1    H6 6666   5.288   6.140   4.300  0.5412 -1.0708 -3.4857
   75CHL1    C7 6667   5.287   6.011   4.484 -0.4299 -0.6037  0.6728
   75CHL1   H7A 6668   5.243   6.097   4.540  0.7082  2.8245 -3.1796
   75CHL1   H7B 6669   5.210   5.934   4.466  0.2349 -1.2053  0.3532
   75CHL1    C8 6670   5.386   5.948   4.585  0.0278  0.4932 -0.0731
   75CHL1    H8 6671   5.440   6.037   4.624  0.9075  0.1443 -0.4627
   75CHL1   C14 6672   5.314   5.871   4.695 -0.6200  0.1855  0.7822
   75CHL1   H14 6673   5.261   5.784   4.650 -0.3386 -0.6391  2.0022
   75CHL1   C15 6674   5.212   5.934   4.777  0.6218 -0.7950  0.7577
   75CHL1  H15A 6675   5.247   6.033   4.813  0.1040 -0.6152  0.7693
   75CHL1  H15B 6676   5.116   5.938   4.721  0.2479  2.1357  1.4722
   75CHL1   C16 6677   5.191   5.844   4.897  1.2923 -0.5516 -0.2462
   75CHL1  H16A 6678   5.186   5.910   4.986 -3.6339 -0.0283 -0.6386
   75CHL1  H16B 6679   5.091   5.798   4.887  0.8784  0.1612  0.5494
   75CHL1   C17 6680   5.305   5.741   4.897 -0.0331  0.1755 -0.7197
   75CHL1   H17 6681   5.269   5.648   4.849  1.5027 -0.7109 -0.2192
   75CHL1   C13 6682   5.407   5.801   4.797  0.1173  0.9245 -0.3058
   75CHL1   C18 6683   5.496   5.910   4.867 -0.4645 -0.2471 -0.2067
   75CHL1  H18A 6684   5.434   5.973   4.934 -1.1798  0.1560 -1.2139
   75CHL1  H18B 6685   5.578   5.853   4.916 -1.0827 -0.1225  1.0133
   75CHL1  H18C 6686   5.553   5.985   4.807  1.2961 -0.3760  1.2014
   75CHL1   C12 6687   5.491   5.703   4.716 -0.4630 -0.2189 -0.8170
   75CHL1  H12A 6688   5.576   5.657   4.771 -0.8347 -1.6047 -1.3764
   75CHL1  H12B 6689   5.420   5.626   4.680 -0.6610 -1.8628  2.6843
   75CHL1   C11 6690   5.573   5.770   4.599  0.3433 -0.1108  0.3689
   75CHL1  H11A 6691   5.658   5.822   4.650  2.0470 -0.2856 -2.1133
   75CHL1  H11B 6692   5.625   5.688   4.545 -0.2297  0.2487 -0.7701
   75CHL1    C9 6693   5.482   5.858   4.507  0.1767  0.8450 -0.2260
   75CHL1    H9 6694   5.420   5.784   4.451 -0.1855 -0.7099  2.0656
   75CHL1   C10 6695   5.569   5.940   4.404  1.2056  0.2746  0.3164
   75CHL1   C19 6696   5.691   6.015   4.475 -0.1925 -0.5274  0.5779
   75CHL1  H19A 6697   5.666   6.090   4.554  2.3069 -1.0661  1.9840
   75CHL1  H19B 6698   5.770   5.953   4.521  2.4713  2.4942  0.3998
   75CHL1  H19C 6699   5.755   6.072   4.405  0.1592 -1.4432  0.1434
   75CHL1    C1 6700   5.637   5.843   4.301  0.2727 -0.0539 -0.0154
   75CHL1   H1A 6701   5.720   5.792   4.354  1.6264  2.1923  0.1599
   75CHL1   H1B 6702   5.561   5.765   4.278 -0.1843  0.6980 -1.1339
   75CHL1    C2 6703   5.704   5.912   4.176  1.3870  0.0058 -0.0408
   75CHL1   H2A 6704   5.728   5.829   4.106 -1.2967  1.0350 -2.4015
   75CHL1   H2B 6705   5.798   5.962   4.208  0.7461 -0.9883  3.8996
   75CHL1   C20 6706   5.347   5.691   5.034  0.2827 -0.3746 -0.1447
   75CHL1   H20 6707   5.391   5.777   5.090 -0.5032  1.0966 -1.7032
   75CHL1   C21 6708   5.460   5.594   5.016 -0.3132  0.1911 -0.3029
   75CHL1  H21A 6709   5.552   5.644   4.978  0.2163 -0.7326 -0.2801
   75CHL1  H21B 6710   5.432   5.514   4.944  1.7540  0.3502 -1.3594
   75CHL1  H21C 6711   5.488   5.564   5.119 -1.2935  3.0961  0.9011
   75CHL1   C22 6712   5.229   5.640   5.120 -0.6340 -0.1293 -0.2573
   75CHL1  H22A 6713   5.132   5.693   5.115 -0.6451 -0.2721 -1.9277
   75CHL1  H22B 6714   5.201   5.539   5.085 -1.7180  0.0013  0.1948
   75CHL1   C23 6715   5.260   5.621   5.274  0.4178  0.5513 -0.3945
   75CHL1  H23A 6716   5.332   5.539   5.290 -0.1344  0.3092  1.0069
   75CHL1  H23B 6717   5.289   5.715   5.327 -1.2225  1.1561 -0.5078
   75CHL1   C24 6718   5.139   5.591   5.356 -0.8070  0.1997  0.0518
   75CHL1  H24A 6719   5.103   5.696   5.366  3.8589  1.9458  0.8629
   75CHL1  H24B 6720   5.058   5.532   5.308 -1.5501  0.6588  0.7067
   75CHL1   C25 6721   5.170   5.550   5.501  0.0340  0.4782  0.2949
   75CHL1   H25 6722   5.273   5.586   5.522  1.2654 -2.4914 -0.1407
   75CHL1   C26 6723   5.069   5.604   5.597 -0.1634 -0.6396 -0.1592
   75CHL1  H26A 6724   4.972   5.574   5.552 -1.5666  1.5232  1.2834
   75CHL1  H26B 6725   5.090   5.570   5.700  2.6605 -2.7566 -1.2836
   75CHL1  H26C 6726   5.078   5.714   5.610  1.8851 -0.8946  0.9405
   75CHL1   C27 6727   5.176   5.393   5.514  0.4791  0.2130  0.2458
   75CHL1  H27A 6728   5.177   5.367   5.622 -2.5368  1.9541  0.8224
   75CHL1  H27B 6729   5.078   5.350   5.481  0.2731  0.7804  0.1014
   75CHL1  H27C 6730   5.258   5.350   5.453  1.3229  0.1640  1.3834
   76CHL1    C3 6731   5.371   2.601   4.168  1.1628 -0.1402  0.7005
   76CHL1    H3 6732   5.449   2.527   4.192 -0.5127 -1.7709  1.3300
   76CHL1    O3 6733   5.378   2.646   4.037  0.4393  0.4488  0.7797
   76CHL1   H3' 6734   5.447   2.712   4.032  1.6209 -0.8227 -2.9582
   76CHL1    C4 6735   5.246   2.516   4.186 -0.5276  0.4496  0.0541
   76CHL1   H4A 6736   5.164   2.578   4.144 -0.5999 -0.8892 -1.8989
   76CHL1   H4B 6737   5.260   2.421   4.131  1.8722  0.8544 -0.1337
   76CHL1    C5 6738   5.219   2.478   4.328 -0.7737 -1.0514  0.2598
   76CHL1    C6 6739   5.196   2.353   4.360  0.8143  0.3666 -0.4079
   76CHL1    H6 6740   5.194   2.279   4.278  1.1875  1.3862 -1.3585
   76CHL1    C7 6741   5.177   2.301   4.496 -0.1565 -0.2846 -0.0688
   76CHL1   H7A 6742   5.104   2.218   4.499 -1.1564  0.4715 -2.0795
   76CHL1   H7B 6743   5.280   2.259   4.507  0.0763  0.0304 -0.9918
   76CHL1    C8 6744   5.165   2.411   4.607  0.2742 -0.4549 -1.3059
   76CHL1    H8 6745   5.061   2.450   4.611  1.1556  2.0334 -1.4139
   76CHL1   C14 6746   5.197   2.345   4.734 -0.6775  0.3943  0.2402
   76CHL1   H14 6747   5.302   2.310   4.741  0.3699  3.4759  1.3362
   76CHL1   C15 6748   5.114   2.210   4.774  0.1764  0.1500  0.3743
   76CHL1  H15A 6749   5.009   2.212   4.738  0.6230  2.2774 -1.0208
   76CHL1  H15B 6750   5.166   2.120   4.734 -0.7104 -1.9708  3.5946
   76CHL1   C16 6751   5.117   2.211   4.924 -0.3203  0.7410  0.1811
   76CHL1  H16A 6752   5.015   2.233   4.962 -0.7564  0.2035 -0.6314
   76CHL1  H16B 6753   5.160   2.119   4.969 -1.2072 -0.0204 -0.4835
   76CHL1   C17 6754   5.190   2.344   4.971 -0.1913 -0.6047 -0.5759
   76CHL1   H17 6755   5.299   2.327   4.981 -0.1779  0.1949  0.7745
   76CHL1   C13 6756   5.175   2.440   4.855  0.4729 -0.3994  0.6720
   76CHL1   C18 6757   5.028   2.495   4.853  0.1348  0.3154 -0.1762
   76CHL1  H18A 6758   5.016   2.573   4.931  1.2031 -1.1964  1.5748
   76CHL1  H18B 6759   5.013   2.550   4.758 -0.0120 -2.9822 -2.2346
   76CHL1  H18C 6760   4.951   2.416   4.869  0.7713 -0.1664  0.6078
   76CHL1   C12 6761   5.279   2.554   4.846 -0.0146  0.2404 -0.4200
   76CHL1  H12A 6762   5.268   2.636   4.919  2.3719  1.5420 -1.3804
   76CHL1  H12B 6763   5.381   2.511   4.857  0.1035  0.4347 -0.7362
   76CHL1   C11 6764   5.261   2.622   4.709 -0.4405 -0.7496  0.2594
   76CHL1  H11A 6765   5.162   2.673   4.715  0.9557  2.3084 -0.6282
   76CHL1  H11B 6766   5.332   2.707   4.713 -1.9128  0.5037  2.8946
   76CHL1    C9 6767   5.260   2.529   4.583 -0.0844  0.0230  0.3159
   76CHL1    H9 6768   5.359   2.481   4.571  0.8753  1.7277  1.1169
   76CHL1   C10 6769   5.238   2.589   4.440 -0.2254  0.2655  0.0686
   76CHL1   C19 6770   5.113   2.676   4.438 -0.3321  0.2509 -0.2414
   76CHL1  H19A 6771   5.127   2.773   4.490  1.6714  0.0506 -0.3471
   76CHL1  H19B 6772   5.084   2.699   4.333 -0.1534 -1.7241 -0.7626
   76CHL1  H19C 6773   5.027   2.616   4.477 -0.7569  0.7350 -0.4159
   76CHL1    C1 6774   5.371   2.673   4.409  0.3947 -0.5894  0.0292
   76CHL1   H1A 6775   5.374   2.761   4.477  0.2101  0.2473 -1.0273
   76CHL1   H1B 6776   5.456   2.607   4.437  1.5619  0.0652 -1.7891
   76CHL1    C2 6777   5.384   2.712   4.267 -0.6158  0.0914  0.1328
   76CHL1   H2A 6778   5.482   2.759   4.247  0.1918 -0.7303  1.9407
   76CHL1   H2B 6779   5.305   2.787   4.242 -0.7758  0.5529  1.9186
   76CHL1   C20 6780   5.130   2.388   5.108 -0.0307 -0.5038  0.3732
   76CHL1   H20 6781   5.022   2.409   5.088 -0.0689  0.0045  1.1009
   76CHL1   C21 6782   5.201   2.507   5.164 -0.2688 -0.8686 -0.8385
   76CHL1  H21A 6783   5.157   2.521   5.264  2.0555  0.6593  0.0567
   76CHL1  H21B 6784   5.190   2.595   5.098  0.2859 -0.5071 -0.4570
   76CHL1  H21C 6785   5.310   2.497   5.186 -0.5888 -0.7620  0.9325
   76CHL1   C22 6786   5.121   2.276   5.211 -0.5466  0.1775  0.4612
   76CHL1  H22A 6787   5.062   2.314   5.298 -1.1424 -0.1835  0.2227
   76CHL1  H22B 6788   5.041   2.205   5.179 -2.5701  0.8031  3.6338
   76CHL1   C23 6789   5.254   2.211   5.253 -0.3041  0.0177  0.6738
   76CHL1  H23A 6790   5.320   2.181   5.169 -0.3399  0.5349  0.4602
   76CHL1  H23B 6791   5.305   2.283   5.321 -2.3693 -0.2059  2.5918
   76CHL1   C24 6792   5.235   2.083   5.337 -0.0588 -0.8142 -0.4231
   76CHL1  H24A 6793   5.147   2.090   5.405  1.5901 -1.7624  1.9631
   76CHL1  H24B 6794   5.203   2.008   5.262  0.7734 -1.2161 -0.3859
   76CHL1   C25 6795   5.359   2.023   5.402  0.3181  0.3834  0.1917
   76CHL1   H25 6796   5.383   2.074   5.498 -1.3486  1.6497 -0.0125
   76CHL1   C26 6797   5.334   1.875   5.432 -0.2907 -0.1981 -0.4771
   76CHL1  H26A 6798   5.409   1.841   5.506 -0.2328 -0.0419 -0.4651
   76CHL1  H26B 6799   5.247   1.865   5.500  0.6666  0.7695  0.9397
   76CHL1  H26C 6800   5.321   1.802   5.349 -2.7130  0.4506 -0.7437
   76CHL1   C27 6801   5.478   2.022   5.312 -0.6715  0.2448  0.1248
   76CHL1  H27A 6802   5.561   1.953   5.336  0.0149  0.0394 -2.5153
   76CHL1  H27B 6803   5.447   2.006   5.206  0.2016 -1.4456  0.0878
   76CHL1  H27C 6804   5.526   2.122   5.323  1.5471 -0.9392  1.8249
   77SOPE     N 6805   2.956   3.985   7.925 -0.2767  0.2013 -0.0821
   77SOPE   HN1 6806   2.884   4.059   7.914  2.5236  3.1692  0.1110
   77SOPE   HN2 6807   2.910   3.902   7.969 -0.7685  1.2007  1.3791
   77SOPE   HN3 6808   3.031   4.023   7.986  0.1610 -1.7398  0.6526
   77SOPE   C12 6809   3.006   3.947   7.795  0.5739 -0.5101  0.0350
   77SOPE  H12A 6810   3.086   3.873   7.819 -1.0648 -2.2478  0.3570
   77SOPE  H12B 6811   3.049   4.029   7.734 -1.5681 -0.4134 -1.4327
   77SOPE   C11 6812   2.897   3.878   7.716  0.4147  0.2543 -0.3393
   77SOPE  H11A 6813   2.936   3.835   7.621 -0.7043 -1.5122 -0.0380
   77SOPE  H11B 6814   2.827   3.954   7.674  0.9074  0.2992 -1.1087
   77SOPE     P 6815   2.842   3.629   7.772  0.0016  0.1168  0.2953
   77SOPE   O13 6816   2.739   3.561   7.850  0.3674 -0.5535 -0.4091
   77SOPE   O14 6817   2.984   3.611   7.797 -0.3661 -0.2501 -0.1833
   77SOPE   O12 6818   2.813   3.782   7.794 -0.3317  0.1182  0.0760
   77SOPE   O11 6819   2.816   3.611   7.616 -0.2307 -0.1417 -0.0349
   77SOPE    C1 6820   2.683   3.612   7.562 -0.8564 -0.1388  0.4467
   77SOPE    HA 6821   2.621   3.692   7.606  0.6945 -0.3069  3.1449
   77SOPE    HB 6822   2.624   3.523   7.591 -0.8398  0.1684  1.4497
   77SOPE    C2 6823   2.685   3.622   7.406  0.0768  0.7023  0.5292
   77SOPE    HS 6824   2.587   3.646   7.359 -0.0618 -1.9716 -0.7188
   77SOPE   O21 6825   2.726   3.490   7.358  0.4406 -0.3040 -0.0761
   77SOPE   C21 6826   2.631   3.401   7.344  1.0942 -0.9667  0.0742
   77SOPE   O22 6827   2.514   3.424   7.390  0.0586  0.6194 -0.2661
   77SOPE   C22 6828   2.671   3.291   7.248 -0.1746  0.8083 -0.2617
   77SOPE   H2R 6829   2.583   3.233   7.212 -0.5488  0.7751  0.6681
   77SOPE   H2S 6830   2.735   3.224   7.309 -1.1656  1.5173  1.6614
   77SOPE    C3 6831   2.783   3.726   7.357  1.0027 -0.1287 -0.4855
   77SOPE    HX 6832   2.885   3.681   7.361  1.4909  0.9852  1.9274
   77SOPE    HY 6833   2.781   3.818   7.420  1.2413  1.6611 -2.9373
   77SOPE   O31 6834   2.744   3.745   7.217  0.3073 -0.2610  0.0336
   77SOPE   C31 6835   2.826   3.794   7.132 -0.7539 -0.1112 -0.1570
   77SOPE   O32 6836   2.942   3.827   7.159 -0.4094 -0.3788 -0.0314
   77SOPE   C32 6837   2.759   3.825   7.004  0.0006 -0.1844 -0.4243
   77SOPE   H2X 6838   2.701   3.917   7.026  1.9613  1.2201 -0.9177
   77SOPE   H2Y 6839   2.684   3.744   6.987  0.0632 -0.1926 -0.6659
   77SOPE   C23 6840   2.746   3.343   7.127 -0.1650 -0.4598 -0.1315
   77SOPE   H3R 6841   2.783   3.253   7.074 -0.3104 -1.8262  2.0009
   77SOPE   H3S 6842   2.842   3.394   7.151 -1.8254  1.9781  1.9202
   77SOPE   C24 6843   2.657   3.421   7.032  0.3272 -0.1450 -0.3047
   77SOPE   H4R 6844   2.573   3.355   7.003  0.7119 -1.6767  1.8017
   77SOPE   H4S 6845   2.602   3.504   7.082  1.0515 -0.1958  0.5966
   77SOPE   C25 6846   2.725   3.461   6.906 -0.2001  0.4028  0.0341
   77SOPE   H5R 6847   2.657   3.518   6.839 -0.7855 -0.2825  0.0355
   77SOPE   H5S 6848   2.801   3.538   6.930 -0.0088  0.3837 -0.4969
   77SOPE   C26 6849   2.797   3.352   6.815 -0.3565 -1.3135 -0.4537
   77SOPE   H6R 6850   2.884   3.307   6.867 -0.9496  1.0532  3.0132
   77SOPE   H6S 6851   2.727   3.268   6.794 -0.5889 -1.3957  0.5762
   77SOPE   C27 6852   2.849   3.413   6.686 -0.8342 -0.2521 -0.5603
   77SOPE   H7R 6853   2.761   3.451   6.629 -1.6395 -0.5470  0.4538
   77SOPE   H7S 6854   2.921   3.496   6.701 -2.5573  1.2894 -0.3295
   77SOPE   C28 6855   2.916   3.312   6.586  0.1170  0.5595  0.1137
   77SOPE   H8R 6856   3.010   3.268   6.624  0.4774  0.1469 -1.2118
   77SOPE   H8S 6857   2.839   3.238   6.554 -2.1336  0.7518  4.3683
   77SOPE   C29 6858   2.962   3.384   6.458  0.9045  0.3930 -0.3093
   77SOPE   H91 6859   3.014   3.479   6.476  1.0466  0.3464 -0.4742
   77SOPE  C210 6860   2.963   3.337   6.331 -0.1547  0.4283  0.0901
   77SOPE  H101 6861   2.998   3.405   6.252  0.0215  0.4002  0.1428
   77SOPE  C211 6862   2.900   3.210   6.268  0.3763  0.4975  0.4526
   77SOPE  H11R 6863   2.822   3.232   6.193  0.3230 -2.4541 -0.4695
   77SOPE  H11S 6864   2.847   3.151   6.345 -2.9690  2.0569 -0.4650
   77SOPE  C212 6865   3.018   3.128   6.205  0.0331 -0.3328 -0.6927
   77SOPE  H12R 6866   3.085   3.097   6.288  0.3266  4.3392  1.0782
   77SOPE  H12S 6867   3.071   3.188   6.129 -2.0050  1.2279 -0.9805
   77SOPE  C213 6868   2.973   2.999   6.132  0.4087 -0.9887  0.2346
   77SOPE  H13R 6869   2.932   3.030   6.033  0.2334  1.8692  1.0932
   77SOPE  H13S 6870   2.885   2.954   6.182 -0.5090  0.9687  0.4999
   77SOPE  C214 6871   3.079   2.891   6.111  0.4147  0.1505  0.0114
   77SOPE  H14R 6872   3.095   2.838   6.207  2.2773  1.7999  0.6912
   77SOPE  H14S 6873   3.175   2.937   6.078  1.5396 -0.8669  1.7209
   77SOPE  C215 6874   3.034   2.797   5.995 -0.3689 -0.0917 -0.3921
   77SOPE  H15R 6875   3.021   2.860   5.904  0.6143  1.9108  0.7919
   77SOPE  H15S 6876   2.938   2.747   6.021  0.4934 -1.6563 -0.0218
   77SOPE  C216 6877   3.131   2.691   5.947  0.2584  0.4404 -0.3198
   77SOPE  H16R 6878   3.101   2.631   5.859  2.1847 -3.8526  1.6877
   77SOPE  H16S 6879   3.130   2.613   6.026  0.1012  0.5340 -0.2279
   77SOPE  C217 6880   3.271   2.734   5.926  0.6143 -0.6637  0.9692
   77SOPE  H17R 6881   3.324   2.767   6.018  1.2946 -1.2783  0.8088
   77SOPE  H17S 6882   3.276   2.822   5.859 -1.7270 -1.1573  0.0584
   77SOPE  C218 6883   3.351   2.621   5.873  0.7249  0.0117  0.6474
   77SOPE  H18R 6884   3.459   2.646   5.865  1.2140 -2.2485 -0.6968
   77SOPE  H18S 6885   3.325   2.600   5.767 -0.1035 -0.4139  0.9258
   77SOPE  H18T 6886   3.344   2.529   5.936 -1.3207 -0.6342 -0.4301
   77SOPE   C33 6887   2.851   3.845   6.891  0.1870  0.0908  0.1755
   77SOPE   H3X 6888   2.932   3.769   6.899  0.6123  0.3774 -1.1149
   77SOPE   H3Y 6889   2.890   3.947   6.873 -3.2375  1.6946  1.1749
   77SOPE   C34 6890   2.780   3.813   6.758 -0.3097  0.3020  0.8814
   77SOPE   H4X 6891   2.703   3.891   6.740  0.4793  0.3963 -2.6518
   77SOPE   H4Y 6892   2.718   3.721   6.751 -0.1787  0.3404 -1.7428
   77SOPE   C35 6893   2.878   3.807   6.649 -0.2666 -0.4193  0.0097
   77SOPE   H5X 6894   2.953   3.731   6.678  0.6155  0.5175  0.2327
   77SOPE   H5Y 6895   2.935   3.902   6.647  0.5578 -0.8804  0.8398
   77SOPE   C36 6896   2.812   3.788   6.511 -0.1346  0.4046  0.1641
   77SOPE   H6X 6897   2.731   3.863   6.499 -1.8499 -1.5170 -0.7953
   77SOPE   H6Y 6898   2.761   3.691   6.500 -0.7732  0.4705  2.1452
   77SOPE   C37 6899   2.911   3.801   6.398 -0.9130 -0.6129  0.3309
   77SOPE   H7X 6900   2.993   3.728   6.412 -1.0894 -0.9528 -0.3325
   77SOPE   H7Y 6901   2.957   3.902   6.402 -1.1575 -0.5533  3.5020
   77SOPE   C38 6902   2.844   3.781   6.260  0.0078 -0.4753  0.3539
   77SOPE   H8X 6903   2.780   3.868   6.234  1.0487 -0.2190 -1.5488
   77SOPE   H8Y 6904   2.798   3.681   6.253  1.8218 -1.3250 -0.0370
   77SOPE   C39 6905   2.948   3.787   6.154 -0.0745  0.3172 -0.1152
   77SOPE   H9X 6906   3.035   3.733   6.197 -0.7159  0.7206  1.7418
   77SOPE   H9Y 6907   2.981   3.893   6.142  0.0855  0.2454 -0.3210
   77SOPE  C310 6908   2.912   3.730   6.022 -0.5773  0.4143  0.5569
   77SOPE  H10X 6909   2.963   3.781   5.938 -1.2258 -0.8447 -0.6352
   77SOPE  H10Y 6910   2.802   3.747   6.011 -0.6832 -1.0545 -0.9544
   77SOPE  C311 6911   2.960   3.583   6.003 -0.5569 -0.5045 -0.1029
   77SOPE  H11X 6912   2.925   3.559   5.900  2.5468  0.5703 -1.5341
   77SOPE  H11Y 6913   2.905   3.543   6.090  1.2802  0.5403  1.6047
   77SOPE  C312 6914   3.108   3.539   6.009  0.2259 -0.3634 -0.0819
   77SOPE  H12X 6915   3.120   3.435   5.971 -1.0289 -0.4209 -0.3740
   77SOPE  H12Y 6916   3.147   3.527   6.112 -0.1646  0.6865  0.2069
   77SOPE  C313 6917   3.208   3.636   5.933 -0.3946  0.4486  0.1615
   77SOPE  H13X 6918   3.191   3.743   5.956  1.0773  1.4238 -2.7703
   77SOPE  H13Y 6919   3.189   3.615   5.825 -1.1582 -0.9062  0.5294
   77SOPE  C314 6920   3.360   3.607   5.958  0.0985  0.1161 -0.7174
   77SOPE  H14X 6921   3.387   3.508   5.915  0.0646  0.6041 -1.8866
   77SOPE  H14Y 6922   3.370   3.593   6.068  0.9234 -0.0925 -0.8116
   77SOPE  C315 6923   3.455   3.712   5.900  0.0434 -0.4246 -0.2344
   77SOPE  H15X 6924   3.407   3.811   5.914  0.0428 -0.6717  1.9619
   77SOPE  H15Y 6925   3.461   3.694   5.791  0.4179 -0.2075 -0.2515
   77SOPE  C316 6926   3.598   3.703   5.959  0.6657  0.2347  0.3128
   77SOPE  H16X 6927   3.616   3.595   5.974 -1.3119 -0.0587  0.8440
   77SOPE  H16Y 6928   3.593   3.756   6.056 -1.0252  0.9198 -0.1145
   77SOPE  C317 6929   3.690   3.782   5.871  0.3097  0.3972  0.1517
   77SOPE  H17X 6930   3.642   3.881   5.855  0.8292  0.8714  1.3943
   77SOPE  H17Y 6931   3.689   3.728   5.774 -1.1315 -1.1808  0.9945
   77SOPE  C318 6932   3.829   3.806   5.923  0.0062  0.3309 -0.2824
   77SOPE  H18X 6933   3.834   3.848   6.025  0.0799  2.7052 -1.2055
   77SOPE  H18Y 6934   3.892   3.871   5.859 -1.7289  1.5596 -0.8035
   77SOPE  H18Z 6935   3.867   3.701   5.920  0.8054  0.6283 -1.0223
   78SOPE     N 6936   3.713   3.280   8.062 -0.1230  0.2989  0.1402
   78SOPE   HN1 6937   3.681   3.190   8.022 -1.4420 -0.0856  1.9503
   78SOPE   HN2 6938   3.657   3.298   8.147  0.0508 -1.8965  0.7961
   78SOPE   HN3 6939   3.691   3.351   7.989 -0.1129  1.9982  1.7311
   78SOPE   C12 6940   3.855   3.266   8.094  0.1966 -0.0772 -0.0348
   78SOPE  H12A 6941   3.860   3.169   8.149  1.2743  0.2321  0.4472
   78SOPE  H12B 6942   3.883   3.351   8.159  0.9645 -0.5650  0.2827
   78SOPE   C11 6943   3.942   3.261   7.964 -0.4119 -0.2720 -0.6778
   78SOPE  H11A 6944   4.047   3.270   8.000 -0.6762  0.6025 -0.0743
   78SOPE  H11B 6945   3.917   3.355   7.910  2.5721  0.8207 -0.3275
   78SOPE     P 6946   4.000   3.013   7.891  0.3185  0.1458 -0.1523
   78SOPE   O13 6947   3.937   2.904   7.822 -0.9796 -0.6095  0.3048
   78SOPE   O14 6948   4.043   2.988   8.030 -0.6244  0.8308  0.2025
   78SOPE   O12 6949   3.920   3.148   7.878  0.5628 -0.0746  0.5283
   78SOPE   O11 6950   4.131   3.027   7.815  0.1239 -0.1454  0.0211
   78SOPE    C1 6951   4.194   3.155   7.775 -0.1819  0.0971  0.6370
   78SOPE    HA 6952   4.234   3.212   7.861 -2.2262  0.6978  1.2440
   78SOPE    HB 6953   4.120   3.219   7.723 -1.0242 -2.9673 -2.3590
   78SOPE    C2 6954   4.303   3.120   7.663  0.4169 -0.0804  0.5383
   78SOPE    HS 6955   4.324   3.209   7.600 -0.9673 -0.2839 -0.2472
   78SOPE   O21 6956   4.270   3.012   7.572 -0.4166 -0.4093 -0.6204
   78SOPE   C21 6957   4.165   3.021   7.497 -0.8568 -0.9935  0.0217
   78SOPE   O22 6958   4.099   3.125   7.482 -0.3310  0.1187 -0.2707
   78SOPE   C22 6959   4.150   2.887   7.406  0.0030 -0.3457  0.4478
   78SOPE   H2R 6960   4.041   2.879   7.385 -0.0593 -1.1622  1.0535
   78SOPE   H2S 6961   4.194   2.802   7.462  0.7994 -0.9994 -1.1321
   78SOPE    C3 6962   4.432   3.090   7.745 -0.3784  0.3533 -0.1680
   78SOPE    HX 6963   4.403   3.014   7.821  0.9405 -0.8748 -0.8462
   78SOPE    HY 6964   4.466   3.185   7.790  2.0281 -0.7294  0.4366
   78SOPE   O31 6965   4.535   3.032   7.656 -0.3857 -0.5064 -0.1290
   78SOPE   C31 6966   4.657   3.043   7.710 -0.0593 -0.0015 -0.3622
   78SOPE   O32 6967   4.692   3.089   7.819  0.5037 -0.4083 -0.0446
   78SOPE   C32 6968   4.753   2.989   7.606  0.3010 -0.5217  0.6199
   78SOPE   H2X 6969   4.718   3.022   7.506  1.5431 -1.4842 -0.1683
   78SOPE   H2Y 6970   4.738   2.880   7.601 -4.4788 -0.0245 -3.6902
   78SOPE   C23 6971   4.232   2.902   7.274  0.1280  0.0562  0.3110
   78SOPE   H3R 6972   4.340   2.915   7.298 -0.1418  1.2096  0.9844
   78SOPE   H3S 6973   4.212   2.994   7.215 -0.0791  0.5648  1.1584
   78SOPE   C24 6974   4.197   2.781   7.188 -0.5753  0.1622 -0.2515
   78SOPE   H4R 6975   4.213   2.688   7.247  0.4883  0.0777 -0.6564
   78SOPE   H4S 6976   4.089   2.791   7.164 -0.6120  3.2198  0.8424
   78SOPE   C25 6977   4.272   2.761   7.055 -0.4047  0.3805 -0.0713
   78SOPE   H5R 6978   4.250   2.831   6.971  0.9785  0.3446 -0.4936
   78SOPE   H5S 6979   4.380   2.783   7.070 -0.3838  1.6415 -1.6828
   78SOPE   C26 6980   4.257   2.612   7.011 -0.7251 -1.4699 -0.4200
   78SOPE   H6R 6981   4.286   2.547   7.096  1.9773  0.2764  0.1054
   78SOPE   H6S 6982   4.152   2.594   6.979 -0.4680  0.9240 -2.9164
   78SOPE   C27 6983   4.351   2.577   6.896  0.7040  0.0617 -0.9581
   78SOPE   H7R 6984   4.318   2.650   6.819  2.2559  0.7801 -0.9844
   78SOPE   H7S 6985   4.461   2.578   6.912  0.5667 -1.1976  0.2553
   78SOPE   C28 6986   4.325   2.442   6.832 -0.2737  0.1745  2.0674
   78SOPE   H8R 6987   4.373   2.364   6.895  1.9384 -1.2107 -1.0041
   78SOPE   H8S 6988   4.215   2.435   6.836 -0.3773 -1.3010 -0.6318
   78SOPE   C29 6989   4.389   2.435   6.696  0.9315  1.2025 -0.2522
   78SOPE   H91 6990   4.495   2.406   6.688  0.2009 -2.6790  1.4656
   78SOPE  C210 6991   4.312   2.444   6.585 -0.3353 -0.0186  0.6047
   78SOPE  H101 6992   4.364   2.430   6.489 -2.3594 -0.1994 -0.5260
   78SOPE  C211 6993   4.161   2.467   6.571 -0.6184  0.0237 -0.6625
   78SOPE  H11R 6994   4.141   2.548   6.498  0.4676 -0.3608 -1.4065
   78SOPE  H11S 6995   4.120   2.498   6.669 -0.2709 -2.5883  0.3890
   78SOPE  C212 6996   4.082   2.347   6.522 -0.2921 -0.1881  0.2452
   78SOPE  H12R 6997   3.997   2.321   6.589  1.2078 -2.7320  1.3075
   78SOPE  H12S 6998   4.145   2.259   6.546 -0.2008  0.2141  1.5778
   78SOPE  C213 6999   4.041   2.345   6.368 -0.2797 -0.2727 -0.3070
   78SOPE  H13R 7000   3.961   2.421   6.355 -1.7102 -0.8632  3.5807
   78SOPE  H13S 7001   3.985   2.250   6.357 -2.1054  0.7735 -0.3585
   78SOPE  C214 7002   4.149   2.376   6.264  0.3304 -0.0522  0.1623
   78SOPE  H14R 7003   4.234   2.305   6.262  0.8841  0.6049  0.2226
   78SOPE  H14S 7004   4.191   2.476   6.288 -1.0232  0.6868 -0.4017
   78SOPE  C215 7005   4.092   2.390   6.119 -0.3523  0.7551  0.2785
   78SOPE  H15R 7006   4.017   2.472   6.121 -0.5277  0.6322 -0.8211
   78SOPE  H15S 7007   4.027   2.303   6.098 -0.1026  0.3629  1.1014
   78SOPE  C216 7008   4.198   2.430   6.018 -0.0400  0.6493 -0.1095
   78SOPE  H16R 7009   4.235   2.533   6.039  1.3710  0.2760 -0.6928
   78SOPE  H16S 7010   4.155   2.446   5.917  1.0359  1.5382 -0.4437
   78SOPE  C217 7011   4.317   2.341   6.006  0.2667 -0.8906  0.1317
   78SOPE  H17R 7012   4.283   2.238   5.981  0.2439 -1.0251  0.7067
   78SOPE  H17S 7013   4.383   2.355   6.094 -0.5530 -0.4106  0.6716
   78SOPE  C218 7014   4.400   2.381   5.885 -0.1724  0.0471 -0.1428
   78SOPE  H18R 7015   4.446   2.478   5.913  0.1969 -0.0586 -0.3678
   78SOPE  H18S 7016   4.332   2.399   5.799 -0.2678 -1.8142 -0.4935
   78SOPE  H18T 7017   4.483   2.318   5.846  0.1963 -0.2020  1.0216
   78SOPE   C33 7018   4.896   3.032   7.640 -0.1333 -0.0537 -0.9163
   78SOPE   H3X 7019   4.908   3.018   7.750  2.2832 -1.1358 -1.2511
   78SOPE   H3Y 7020   4.900   3.137   7.604 -1.3003 -0.5154 -2.4756
   78SOPE   C34 7021   5.008   2.949   7.570  0.3134 -0.1054 -0.0783
   78SOPE   H4X 7022   4.981   2.843   7.586  0.9834 -0.0774  1.3513
   78SOPE   H4Y 7023   5.104   2.974   7.620  0.3185 -1.5222  0.6615
   78SOPE   C35 7024   5.021   2.983   7.419 -0.1410  0.4207 -0.1646
   78SOPE   H5X 7025   5.041   3.091   7.432 -0.2402  0.2553  1.5885
   78SOPE   H5Y 7026   4.930   2.970   7.355  1.1385  2.0873 -2.4628
   78SOPE   C36 7027   5.132   2.904   7.357 -0.4928  0.3655  0.1114
   78SOPE   H6X 7028   5.103   2.800   7.328  2.0431  0.1092 -1.9464
   78SOPE   H6Y 7029   5.212   2.897   7.434  0.7006 -0.4411 -1.1491
   78SOPE   C37 7030   5.202   2.967   7.241 -0.1291  0.5661  0.5406
   78SOPE   H7X 7031   5.279   2.891   7.212  0.3130  0.3197  2.2687
   78SOPE   H7Y 7032   5.265   3.053   7.271  0.8312  0.3599 -0.7850
   78SOPE   C38 7033   5.107   3.003   7.127 -0.2840 -0.6198 -0.8031
   78SOPE   H8X 7034   5.077   3.110   7.134 -0.5169 -0.7361  0.1046
   78SOPE   H8Y 7035   5.018   2.946   7.160 -1.0589 -0.3702 -2.3802
   78SOPE   C39 7036   5.141   2.961   6.979  0.9378 -0.0507  0.7137
   78SOPE   H9X 7037   5.057   2.988   6.912 -0.0091  0.3970  2.0412
   78SOPE   H9Y 7038   5.136   2.850   6.974  0.8961 -0.0071 -0.7554
   78SOPE  C310 7039   5.281   2.999   6.940  0.2503 -0.1044  0.4424
   78SOPE  H10X 7040   5.358   2.977   7.016 -0.5813 -1.0437  1.0358
   78SOPE  H10Y 7041   5.277   3.110   6.939  0.2337 -0.1047 -0.5386
   78SOPE  C311 7042   5.315   2.953   6.795 -0.3540 -0.0759 -0.2799
   78SOPE  H11X 7043   5.227   2.987   6.735 -0.5157 -1.3325 -0.7873
   78SOPE  H11Y 7044   5.329   2.844   6.779  1.2968 -0.2689  2.0652
   78SOPE  C312 7045   5.438   3.020   6.741 -0.6884  0.2984  0.2324
   78SOPE  H12X 7046   5.526   2.978   6.795  0.4628 -0.0340 -1.7898
   78SOPE  H12Y 7047   5.434   3.129   6.763 -0.8200  0.3490 -0.0365
   78SOPE  C313 7048   5.464   2.986   6.593 -0.0426  0.0271 -0.2400
   78SOPE  H13X 7049   5.563   3.034   6.577 -0.7829  2.5963  2.0765
   78SOPE  H13Y 7050   5.396   3.045   6.528  0.2500  0.5603 -0.0728
   78SOPE  C314 7051   5.466   2.841   6.545  0.4623  0.5535  0.5663
   78SOPE  H14X 7052   5.362   2.802   6.548  0.4237  0.4566 -1.1617
   78SOPE  H14Y 7053   5.521   2.784   6.623  0.3874 -0.9661 -0.4469
   78SOPE  C315 7054   5.537   2.816   6.409 -0.3726 -0.0787 -0.2771
   78SOPE  H15X 7055   5.500   2.890   6.335 -0.4915  0.0706 -0.0710
   78SOPE  H15Y 7056   5.499   2.715   6.383  0.4086 -0.1109 -1.3937
   78SOPE  C316 7057   5.689   2.819   6.414 -0.3392  0.1053 -0.0722
   78SOPE  H16X 7058   5.717   2.744   6.490 -2.1085 -1.1599 -0.6006
   78SOPE  H16Y 7059   5.735   2.914   6.449  1.9617 -1.2737  0.8231
   78SOPE  C317 7060   5.755   2.781   6.276 -0.2540  0.4086  0.4146
   78SOPE  H17X 7061   5.725   2.861   6.205 -0.0782  1.5089  1.5540
   78SOPE  H17Y 7062   5.706   2.691   6.233 -1.2864  1.5324 -0.8704
   78SOPE  C318 7063   5.901   2.757   6.273 -0.5529  0.1558 -0.3447
   78SOPE  H18X 7064   5.945   2.743   6.172 -1.1650 -1.5820 -0.4073
   78SOPE  H18Y 7065   5.922   2.669   6.336  0.0154 -0.2561 -1.0879
   78SOPE  H18Z 7066   5.949   2.848   6.314  1.2529 -0.6755 -0.5251
   79SOPE     N 7067   5.948   6.635   8.309 -0.0240 -0.2177  0.1761
   79SOPE   HN1 7068   6.029   6.700   8.309  0.7973 -1.2037 -0.1652
   79SOPE   HN2 7069   5.878   6.676   8.244 -0.6730 -0.5880  0.6370
   79SOPE   HN3 7070   5.898   6.627   8.399 -2.2251 -1.6995 -1.0827
   79SOPE   C12 7071   5.990   6.503   8.241 -1.1998  0.5105  0.1056
   79SOPE  H12A 7072   5.894   6.449   8.223 -1.8101  0.8554  2.0667
   79SOPE  H12B 7073   6.061   6.439   8.298  3.0582  1.9628 -3.0091
   79SOPE   C11 7074   6.064   6.534   8.109  1.1530 -0.3608 -0.3441
   79SOPE  H11A 7075   6.143   6.610   8.126  0.9955 -0.2036 -0.3036
   79SOPE  H11B 7076   5.990   6.576   8.037 -1.1437 -2.2374  0.7601
   79SOPE     P 7077   6.224   6.319   8.076  0.3537 -0.2592  0.2204
   79SOPE   O13 7078   6.179   6.175   8.068  0.3365  0.2996  0.5031
   79SOPE   O14 7079   6.291   6.358   8.200  0.4301  0.6614 -0.0952
   79SOPE   O12 7080   6.105   6.410   8.051 -0.2155 -0.0694 -0.0944
   79SOPE   O11 7081   6.323   6.345   7.964  0.3655 -0.5342  0.2258
   79SOPE    C1 7082   6.302   6.418   7.845 -0.1070 -0.1865 -0.4221
   79SOPE    HA 7083   6.390   6.481   7.822  0.1401  0.5738  2.2506
   79SOPE    HB 7084   6.224   6.497   7.854 -0.4064 -0.4397 -0.7457
   79SOPE    C2 7085   6.266   6.315   7.729 -0.0439 -0.0692 -0.3437
   79SOPE    HS 7086   6.270   6.378   7.637 -2.8729  1.1019  0.2267
   79SOPE   O21 7087   6.137   6.266   7.737  0.1870  0.2746 -0.5219
   79SOPE   C21 7088   6.037   6.355   7.731  0.3384 -0.6417  0.0287
   79SOPE   O22 7089   6.049   6.472   7.698 -0.2196  0.2080  0.7998
   79SOPE   C22 7090   5.903   6.292   7.765 -0.4980  0.3497  0.5659
   79SOPE   H2R 7091   5.901   6.277   7.875 -1.0264 -1.8119  0.2982
   79SOPE   H2S 7092   5.897   6.188   7.727 -2.0592  0.8130 -0.5421
   79SOPE    C3 7093   6.366   6.199   7.736 -0.3120 -0.4220 -1.1829
   79SOPE    HX 7094   6.343   6.147   7.831  1.7487 -0.4378 -0.6580
   79SOPE    HY 7095   6.467   6.243   7.746 -1.7055  3.1580 -1.0722
   79SOPE   O31 7096   6.361   6.112   7.619 -0.1915  0.6259  0.0788
   79SOPE   C31 7097   6.427   6.151   7.520 -0.2902 -0.1387 -0.4579
   79SOPE   O32 7098   6.486   6.258   7.510  0.5241  0.0245 -0.0430
   79SOPE   C32 7099   6.436   6.049   7.404 -0.0683 -0.7136  0.1561
   79SOPE   H2X 7100   6.328   6.027   7.389  0.2469 -1.7300 -0.7324
   79SOPE   H2Y 7101   6.476   5.947   7.426  1.2401 -0.3924 -0.6345
   79SOPE   C23 7102   5.783   6.377   7.722 -0.1257  0.1026  0.4021
   79SOPE   H3R 7103   5.783   6.481   7.762  1.4521  0.3830 -0.2700
   79SOPE   H3S 7104   5.689   6.336   7.766  0.7305 -0.1352  2.0828
   79SOPE   C24 7105   5.767   6.390   7.568 -0.4332  0.1245  0.0619
   79SOPE   H4R 7106   5.852   6.448   7.525 -1.8743  2.6711  0.4625
   79SOPE   H4S 7107   5.762   6.285   7.532  0.6565 -0.7776  2.3256
   79SOPE   C25 7108   5.640   6.463   7.536  0.0668 -0.8002  0.4737
   79SOPE   H5R 7109   5.558   6.412   7.592  0.4083 -0.6198  1.1432
   79SOPE   H5S 7110   5.661   6.564   7.575  0.3272  0.7376 -3.2004
   79SOPE   C26 7111   5.629   6.475   7.385  0.6940  0.3045 -0.3236
   79SOPE   H6R 7112   5.708   6.540   7.343 -0.0525  2.1982  1.0722
   79SOPE   H6S 7113   5.639   6.375   7.337 -1.1132  0.5641 -1.3661
   79SOPE   C27 7114   5.491   6.525   7.342 -0.0240 -0.3424 -0.7552
   79SOPE   H7R 7115   5.417   6.444   7.362  1.1368 -0.8991  1.7547
   79SOPE   H7S 7116   5.475   6.611   7.410 -0.8585 -1.8274  1.0409
   79SOPE   C28 7117   5.486   6.576   7.194  0.6058 -0.2832 -0.1605
   79SOPE   H8R 7118   5.400   6.642   7.172  1.2384  0.3961 -0.6483
   79SOPE   H8S 7119   5.571   6.643   7.168 -1.3495  1.5164 -2.3072
   79SOPE   C29 7120   5.482   6.452   7.108 -0.1178  0.1415  0.7644
   79SOPE   H91 7121   5.406   6.386   7.150  1.6333 -2.3045  0.3058
   79SOPE  C210 7122   5.549   6.409   6.998 -0.9374 -0.3352  0.5209
   79SOPE  H101 7123   5.542   6.301   6.979 -0.8090 -0.0093 -1.6712
   79SOPE  C211 7124   5.659   6.476   6.921  0.2167 -0.1267 -0.3568
   79SOPE  H11R 7125   5.755   6.422   6.939  0.2852 -0.1578 -0.8076
   79SOPE  H11S 7126   5.662   6.584   6.947  1.1622  0.1876 -1.6538
   79SOPE  C212 7127   5.628   6.478   6.771 -0.7744  0.1194  0.7776
   79SOPE  H12R 7128   5.612   6.372   6.743  0.5492  0.6321 -2.3219
   79SOPE  H12S 7129   5.710   6.529   6.716 -0.8762  1.0504  1.4594
   79SOPE  C213 7130   5.491   6.539   6.736  0.0484 -0.7739 -0.1824
   79SOPE  H13R 7131   5.481   6.645   6.768 -1.7304 -0.8656 -0.3259
   79SOPE  H13S 7132   5.416   6.482   6.794  0.2130 -0.0614  0.7626
   79SOPE  C214 7133   5.458   6.526   6.585 -0.1553  0.1585  0.7911
   79SOPE  H14R 7134   5.364   6.579   6.560  0.9658  1.5745 -0.6282
   79SOPE  H14S 7135   5.449   6.417   6.562  1.6191 -0.4222  2.5469
   79SOPE  C215 7136   5.556   6.581   6.485 -0.1513 -0.1068  0.1778
   79SOPE  H15R 7137   5.633   6.501   6.477  0.7242  0.8352 -1.1078
   79SOPE  H15S 7138   5.595   6.679   6.519 -2.3207  0.2482  1.8683
   79SOPE  C216 7139   5.495   6.606   6.347 -0.3687  0.4842  0.1853
   79SOPE  H16R 7140   5.388   6.637   6.350 -0.7637  0.5269 -4.8360
   79SOPE  H16S 7141   5.481   6.510   6.293 -2.6598  0.7612  0.1847
   79SOPE  C217 7142   5.576   6.709   6.265  0.2815 -0.5236 -0.2126
   79SOPE  H17R 7143   5.677   6.667   6.246 -0.5158 -2.4235 -0.5313
   79SOPE  H17S 7144   5.570   6.799   6.330 -1.4806  0.8671 -2.1726
   79SOPE  C218 7145   5.507   6.756   6.132 -0.1430  0.1294  0.2137
   79SOPE  H18R 7146   5.551   6.841   6.075 -0.0645  0.9022  1.3800
   79SOPE  H18S 7147   5.405   6.793   6.156  0.4312  2.1833 -0.3035
   79SOPE  H18T 7148   5.494   6.667   6.067  3.4056 -0.9162  0.7480
   79SOPE   C33 7149   6.502   6.100   7.271 -0.2105  0.5776  0.3461
   79SOPE   H3X 7150   6.605   6.140   7.287  0.1093 -0.4585  0.9286
   79SOPE   H3Y 7151   6.450   6.195   7.244 -1.8307  0.3701  2.4958
   79SOPE   C34 7152   6.501   5.998   7.157  0.0209 -0.5118  0.0315
   79SOPE   H4X 7153   6.394   5.968   7.146  0.2442 -0.9790 -0.9118
   79SOPE   H4Y 7154   6.572   5.920   7.189 -1.3563 -0.9405  2.2632
   79SOPE   C35 7155   6.557   6.057   7.032  0.0692  0.0993  0.0203
   79SOPE   H5X 7156   6.595   5.977   6.966  1.7678 -0.9527  2.1312
   79SOPE   H5Y 7157   6.638   6.130   7.051 -0.2090 -0.1991  2.7797
   79SOPE   C36 7158   6.453   6.123   6.943  0.1113  0.1764 -0.1667
   79SOPE   H6X 7159   6.435   6.224   6.986  0.7227  0.0549  0.3857
   79SOPE   H6Y 7160   6.355   6.070   6.941  0.0564  0.2876 -1.4797
   79SOPE   C37 7161   6.504   6.149   6.795 -0.1620  0.4178  0.3685
   79SOPE   H7X 7162   6.543   6.054   6.753 -1.2939 -1.0672  2.4673
   79SOPE   H7Y 7163   6.592   6.213   6.816  1.1518 -2.1258  3.5872
   79SOPE   C38 7164   6.416   6.224   6.696 -0.4495 -0.3310 -0.6208
   79SOPE   H8X 7165   6.401   6.330   6.725 -0.3413 -0.2527 -0.8463
   79SOPE   H8Y 7166   6.312   6.183   6.699 -0.4661 -0.2778  2.4560
   79SOPE   C39 7167   6.473   6.222   6.558  0.1126  0.8365 -0.0295
   79SOPE   H9X 7168   6.464   6.114   6.530 -0.2567  0.1457  2.4919
   79SOPE   H9Y 7169   6.578   6.259   6.552  0.0514  0.8919 -0.9255
   79SOPE  C310 7170   6.391   6.309   6.464 -0.5868 -0.0035  0.2049
   79SOPE  H10X 7171   6.400   6.413   6.503  0.6584  0.0292 -0.1428
   79SOPE  H10Y 7172   6.285   6.275   6.462 -0.3525 -0.7180 -0.5604
   79SOPE  C311 7173   6.460   6.303   6.316 -0.4192  0.0231 -0.4174
   79SOPE  H11X 7174   6.435   6.209   6.262 -1.8724  0.8922 -1.3283
   79SOPE  H11Y 7175   6.570   6.307   6.326 -0.4217 -0.8084  0.1074
   79SOPE  C312 7176   6.406   6.424   6.237 -0.0667 -0.5626 -0.2635
   79SOPE  H12X 7177   6.445   6.522   6.273 -0.1513 -0.9876  1.0613
   79SOPE  H12Y 7178   6.295   6.416   6.240 -0.3061  1.2929 -2.1411
   79SOPE  C313 7179   6.442   6.406   6.096  0.0590  0.0923 -0.8885
   79SOPE  H13X 7180   6.368   6.471   6.044 -1.0638  0.0931  0.6538
   79SOPE  H13Y 7181   6.432   6.298   6.069  1.4522 -0.2366 -0.1892
   79SOPE  C314 7182   6.589   6.444   6.072 -0.3747 -0.5406  0.1854
   79SOPE  H14X 7183   6.652   6.379   6.136  3.8333  1.4152 -1.6113
   79SOPE  H14Y 7184   6.605   6.548   6.105  1.9935 -0.1183 -2.0290
   79SOPE  C315 7185   6.639   6.440   5.927  0.2242 -0.2075 -0.2122
   79SOPE  H15X 7186   6.577   6.514   5.872  1.1934  1.8461  1.3434
   79SOPE  H15Y 7187   6.614   6.334   5.903 -0.8292  0.1070 -0.5851
   79SOPE  C316 7188   6.779   6.487   5.897 -0.0288 -0.3666  0.0251
   79SOPE  H16X 7189   6.851   6.454   5.975  1.9696  0.1973 -1.4720
   79SOPE  H16Y 7190   6.785   6.598   5.899  2.5609 -0.4296  2.5820
   79SOPE  C317 7191   6.834   6.429   5.768 -0.3163 -0.1732  0.9234
   79SOPE  H17X 7192   6.842   6.319   5.774  0.9125 -0.3330 -2.0928
   79SOPE  H17Y 7193   6.944   6.444   5.763  0.1532 -1.9012  3.8059
   79SOPE  C318 7194   6.763   6.477   5.642  0.1746 -0.2019  0.1421
   79SOPE  H18X 7195   6.658   6.444   5.647  0.1975 -0.1500  1.2556
   79SOPE  H18Y 7196   6.808   6.447   5.545 -0.4066  0.2744 -0.2761
   79SOPE  H18Z 7197   6.751   6.587   5.642  0.7333 -0.1311  0.6685
   80SOPE     N 7198   3.110   2.512   8.257 -0.0530  0.4550  0.4862
   80SOPE   HN1 7199   3.071   2.590   8.314  1.2660  1.1237  0.5180
   80SOPE   HN2 7200   3.203   2.545   8.225  0.0180  1.5700  1.7575
   80SOPE   HN3 7201   3.047   2.506   8.175  1.1860 -0.4863 -0.4200
   80SOPE   C12 7202   3.124   2.398   8.354 -0.0102 -0.1289 -0.3427
   80SOPE  H12A 7203   3.021   2.370   8.384 -1.3695  2.5642 -2.1427
   80SOPE  H12B 7204   3.183   2.446   8.436 -3.1198  2.5888  0.5465
   80SOPE   C11 7205   3.192   2.276   8.291 -0.3216  0.7770 -0.0354
   80SOPE  H11A 7206   3.195   2.205   8.376 -0.0727  0.6900 -0.1157
   80SOPE  H11B 7207   3.297   2.301   8.265 -0.1406  0.6968  0.6056
   80SOPE     P 7208   3.005   2.131   8.188 -0.1176  0.1251  0.4828
   80SOPE   O13 7209   2.876   2.210   8.188  0.0060 -0.4221 -0.3729
   80SOPE   O14 7210   3.027   2.041   8.302 -0.4233  0.1200  0.3525
   80SOPE   O12 7211   3.125   2.230   8.175 -0.4946 -0.0962  0.3539
   80SOPE   O11 7212   3.012   2.051   8.051  0.0505 -0.3601 -0.2117
   80SOPE    C1 7213   3.053   2.092   7.925 -0.0539  0.5096 -0.1790
   80SOPE    HA 7214   3.105   2.010   7.871  0.4795  1.1657 -0.6725
   80SOPE    HB 7215   3.124   2.178   7.927 -0.7906  1.1567 -1.2376
   80SOPE    C2 7216   2.939   2.144   7.839  0.7502  0.2738 -0.9419
   80SOPE    HS 7217   2.886   2.227   7.892 -2.5626 -1.9525 -0.4280
   80SOPE   O21 7218   2.850   2.033   7.818 -0.2787  0.1450 -0.6508
   80SOPE   C21 7219   2.745   2.055   7.742 -0.3242 -0.5037 -0.3250
   80SOPE   O22 7220   2.706   2.168   7.711  0.0058 -0.2689 -0.1799
   80SOPE   C22 7221   2.683   1.925   7.708 -0.6963 -0.2681  0.4398
   80SOPE   H2R 7222   2.672   1.862   7.798 -0.7038 -2.4325 -0.9992
   80SOPE   H2S 7223   2.754   1.855   7.659 -0.6552 -0.8753  1.3547
   80SOPE    C3 7224   2.998   2.200   7.706 -0.8793  0.7720  0.1607
   80SOPE    HX 7225   3.078   2.272   7.733  1.3001 -1.4313  0.0020
   80SOPE    HY 7226   2.933   2.263   7.642 -0.2607  0.7517 -0.4939
   80SOPE   O31 7227   3.065   2.099   7.629  0.4051  0.6584  0.4388
   80SOPE   C31 7228   2.995   2.036   7.527  0.2447  0.3010  0.3761
   80SOPE   O32 7229   2.883   2.058   7.487  0.7269 -0.0471  0.1785
   80SOPE   C32 7230   3.078   1.922   7.468  0.1716 -0.8629  0.3280
   80SOPE   H2X 7231   3.023   1.825   7.462  1.4421 -1.6654  1.2290
   80SOPE   H2Y 7232   3.165   1.908   7.535 -1.0003 -2.1593  1.6458
   80SOPE   C23 7233   2.555   1.946   7.621 -0.3709  0.7052  0.1747
   80SOPE   H3R 7234   2.589   1.993   7.526  1.9367 -1.7455 -0.3277
   80SOPE   H3S 7235   2.476   2.009   7.667 -1.3967  0.2915 -0.9658
   80SOPE   C24 7236   2.495   1.815   7.588  0.4865  0.4694  0.3376
   80SOPE   H4R 7237   2.565   1.734   7.559 -0.0921 -0.7240  2.0947
   80SOPE   H4S 7238   2.447   1.780   7.682 -2.9516  3.4327 -0.1064
   80SOPE   C25 7239   2.389   1.813   7.474  0.6851  0.0475 -0.1440
   80SOPE   H5R 7240   2.326   1.723   7.488 -0.1285  0.9630  2.6991
   80SOPE   H5S 7241   2.321   1.901   7.475  1.3993  0.6999 -2.2337
   80SOPE   C26 7242   2.450   1.805   7.337  0.0946  0.1476  0.1712
   80SOPE   H6R 7243   2.502   1.899   7.306  0.6057  0.1123  0.8833
   80SOPE   H6S 7244   2.516   1.717   7.318  1.4974  1.1031  0.3909
   80SOPE   C27 7245   2.334   1.778   7.231  0.2983  0.4067  0.2650
   80SOPE   H7R 7246   2.273   1.692   7.265 -3.9270  2.8848 -0.3441
   80SOPE   H7S 7247   2.258   1.858   7.222 -0.4770 -0.2795  0.5964
   80SOPE   C28 7248   2.390   1.752   7.095 -0.8749  0.1231 -0.3673
   80SOPE   H8R 7249   2.472   1.679   7.108 -0.7939  0.4736  1.1953
   80SOPE   H8S 7250   2.313   1.700   7.033 -2.4155 -1.4447  2.6678
   80SOPE   C29 7251   2.442   1.879   7.041  1.0056 -0.6925 -0.1251
   80SOPE   H91 7252   2.433   1.969   7.103  0.1707 -1.9679  1.6768
   80SOPE  C210 7253   2.490   1.904   6.915  0.4235  0.5812 -0.3534
   80SOPE  H101 7254   2.538   2.001   6.896  4.1115 -1.0156 -0.1049
   80SOPE  C211 7255   2.491   1.810   6.795  0.2495 -0.0428 -0.3469
   80SOPE  H11R 7256   2.433   1.722   6.829  1.0655 -1.1781 -1.7865
   80SOPE  H11S 7257   2.593   1.780   6.762  0.6098  2.0624 -1.3532
   80SOPE  C212 7258   2.418   1.880   6.680  0.5822 -0.1262  0.1191
   80SOPE  H12R 7259   2.480   1.965   6.644  0.5963  0.0464  0.5477
   80SOPE  H12S 7260   2.315   1.912   6.707  1.8778  1.3748  3.9756
   80SOPE  C213 7261   2.414   1.780   6.568 -0.3880  0.7286  0.0231
   80SOPE  H13R 7262   2.357   1.690   6.602 -1.4984  1.4572  0.1440
   80SOPE  H13S 7263   2.518   1.755   6.538 -1.3883 -2.3263 -1.3425
   80SOPE  C214 7264   2.337   1.814   6.440  0.3581 -0.3820  0.1561
   80SOPE  H14R 7265   2.233   1.834   6.473 -0.4320 -3.0847 -0.4645
   80SOPE  H14S 7266   2.341   1.740   6.358  1.4584  0.0447 -0.1955
   80SOPE  C215 7267   2.390   1.942   6.372 -0.6036  0.4997  0.4362
   80SOPE  H15R 7268   2.499   1.922   6.380 -0.9437 -1.7459  0.1156
   80SOPE  H15S 7269   2.352   2.024   6.436 -0.7298 -0.6100  1.8495
   80SOPE  C216 7270   2.347   1.955   6.226 -0.2782 -0.0290 -0.2585
   80SOPE  H16R 7271   2.321   2.061   6.207 -1.6831  0.0182  1.6880
   80SOPE  H16S 7272   2.251   1.900   6.222  0.3715 -1.2506  0.2587
   80SOPE  C217 7273   2.450   1.908   6.125  0.1726  0.8260  0.4971
   80SOPE  H17R 7274   2.467   1.802   6.150  0.4502  0.3105 -1.6673
   80SOPE  H17S 7275   2.545   1.966   6.129  0.8005 -0.2555  1.9505
   80SOPE  C218 7276   2.383   1.908   5.985 -0.3529  0.1035  0.1208
   80SOPE  H18R 7277   2.441   1.866   5.901 -0.5048 -2.0826  1.0423
   80SOPE  H18S 7278   2.334   2.005   5.963 -0.1953  0.1220 -0.1407
   80SOPE  H18T 7279   2.307   1.828   6.002  0.1502  0.1456  3.2301
   80SOPE   C33 7280   3.132   1.965   7.326 -0.2503  0.1377 -0.1531
   80SOPE   H3X 7281   3.220   1.902   7.302  0.3673  1.3317 -1.0702
   80SOPE   H3Y 7282   3.158   2.073   7.332 -0.3190  0.1465  0.0082
   80SOPE   C34 7283   3.026   1.957   7.209 -0.9849  0.5846 -0.0814
   80SOPE   H4X 7284   3.089   1.980   7.120 -0.8108  0.2718 -0.0406
   80SOPE   H4Y 7285   2.945   2.032   7.221 -3.1361 -1.2970 -1.8471
   80SOPE   C35 7286   2.943   1.832   7.196 -0.4232 -0.6419  0.8411
   80SOPE   H5X 7287   2.905   1.822   7.300  0.2054  1.2066  1.2853
   80SOPE   H5Y 7288   3.017   1.749   7.192  2.3699  1.7442 -0.2227
   80SOPE   C36 7289   2.839   1.838   7.088  0.1622 -0.1309 -0.0506
   80SOPE   H6X 7290   2.760   1.914   7.106  1.2412  1.0889 -0.3016
   80SOPE   H6Y 7291   2.791   1.738   7.092 -1.0240  0.4151 -0.2399
   80SOPE   C37 7292   2.891   1.846   6.939  0.3637  0.0756 -0.2875
   80SOPE   H7X 7293   2.937   1.947   6.928  1.5970 -0.4749 -0.3663
   80SOPE   H7Y 7294   2.806   1.831   6.870  1.5251 -0.5343 -1.6273
   80SOPE   C38 7295   2.994   1.739   6.906  0.1648  0.1015  0.2092
   80SOPE   H8X 7296   2.958   1.635   6.914  0.4618 -0.0676 -0.5345
   80SOPE   H8Y 7297   3.088   1.760   6.961 -0.5444  4.0397  0.2305
   80SOPE   C39 7298   3.024   1.747   6.745  0.2507  0.0126 -0.7422
   80SOPE   H9X 7299   3.013   1.855   6.722  0.0159 -0.4854 -3.1566
   80SOPE   H9Y 7300   2.945   1.694   6.689 -0.3673  0.8630 -0.6942
   80SOPE  C310 7301   3.153   1.690   6.692 -0.6047  0.5333 -0.9645
   80SOPE  H10X 7302   3.159   1.582   6.718 -2.3287  0.4405 -0.8394
   80SOPE  H10Y 7303   3.236   1.735   6.752  0.0506  1.3345 -2.4261
   80SOPE  C311 7304   3.179   1.725   6.540 -0.4880 -0.0509  0.1569
   80SOPE  H11X 7305   3.283   1.690   6.523 -0.0903  1.2332 -0.2011
   80SOPE  H11Y 7306   3.159   1.832   6.516 -0.3113  0.7772  3.3249
   80SOPE  C312 7307   3.095   1.640   6.440 -1.0633 -0.1384  0.8671
   80SOPE  H12X 7308   3.118   1.690   6.344  2.3806 -0.5029  1.3678
   80SOPE  H12Y 7309   2.985   1.644   6.460 -1.1743  0.5986  0.1319
   80SOPE  C313 7310   3.142   1.491   6.433  0.4704  0.4069  0.2952
   80SOPE  H13X 7311   3.103   1.442   6.525  1.2752 -0.8388  0.0066
   80SOPE  H13Y 7312   3.253   1.482   6.427  0.4952  1.4198 -1.7370
   80SOPE  C314 7313   3.084   1.409   6.323  0.0616 -0.4661  0.2902
   80SOPE  H14X 7314   2.973   1.416   6.317  0.0817 -0.0674  0.4089
   80SOPE  H14Y 7315   3.119   1.305   6.341  0.4879 -0.5941 -1.1778
   80SOPE  C315 7316   3.137   1.455   6.187  0.2151  0.8768  0.7741
   80SOPE  H15X 7317   3.247   1.453   6.196  0.1733  1.0037  1.3659
   80SOPE  H15Y 7318   3.098   1.553   6.152 -1.3753 -0.2835 -0.9237
   80SOPE  C316 7319   3.089   1.357   6.077 -0.3832 -0.0923 -0.0911
   80SOPE  H16X 7320   2.980   1.379   6.072 -0.2599  0.9567  1.2733
   80SOPE  H16Y 7321   3.110   1.252   6.105  1.2505  0.2782  0.1573
   80SOPE  C317 7322   3.167   1.376   5.937  0.0723 -0.0578  0.5238
   80SOPE  H17X 7323   3.275   1.361   5.957  0.2185  1.5550  1.1362
   80SOPE  H17Y 7324   3.151   1.479   5.898 -1.0984 -1.4313 -2.9662
   80SOPE  C318 7325   3.125   1.274   5.824 -0.0348 -0.2041 -0.3745
   80SOPE  H18X 7326   3.215   1.242   5.767  0.1325 -1.7681  0.6971
   80SOPE  H18Y 7327   3.058   1.320   5.748  0.1322  2.0707  0.7949
   80SOPE  H18Z 7328   3.072   1.185   5.865 -2.3660  1.3729  0.2298
   81SOPE     N 7329   6.569   6.585   8.215 -0.2491 -0.4737 -0.2655
   81SOPE   HN1 7330   6.587   6.549   8.311  0.1726 -0.1055 -0.2063
   81SOPE   HN2 7331   6.581   6.507   8.147  0.2363 -2.0577  1.5552
   81SOPE   HN3 7332   6.639   6.656   8.187 -0.5769  0.1557  0.4899
   81SOPE   C12 7333   6.433   6.644   8.208 -0.2930 -0.5199  0.5901
   81SOPE  H12A 7334   6.438   6.729   8.279  1.0183  0.4797 -0.6403
   81SOPE  H12B 7335   6.351   6.581   8.251  0.5199 -0.7810  1.8000
   81SOPE   C11 7336   6.405   6.705   8.068  0.7434 -0.0243  0.4471
   81SOPE  H11A 7337   6.313   6.766   8.077 -1.0654 -2.4452 -0.4808
   81SOPE  H11B 7338   6.388   6.621   7.998  0.8520  0.1348  0.2281
   81SOPE     P 7339   6.576   6.777   7.880  0.0141 -0.3399  0.4364
   81SOPE   O13 7340   6.581   6.636   7.840  0.0618  0.3639  0.2546
   81SOPE   O14 7341   6.699   6.859   7.874  0.2956 -0.2567  0.8488
   81SOPE   O12 7342   6.515   6.795   8.025  0.5765  0.2008  0.6522
   81SOPE   O11 7343   6.467   6.852   7.784 -0.4453  0.1538 -0.1003
   81SOPE    C1 7344   6.348   6.789   7.733 -0.4784  0.0117 -0.2578
   81SOPE    HA 7345   6.274   6.871   7.742 -1.3333 -0.8830  1.1760
   81SOPE    HB 7346   6.321   6.709   7.804  2.1461 -1.4361 -0.7670
   81SOPE    C2 7347   6.365   6.738   7.583  0.3005  0.6179 -0.4224
   81SOPE    HS 7348   6.442   6.658   7.590  2.6897  2.7205 -1.0794
   81SOPE   O21 7349   6.429   6.836   7.503 -0.5569  0.2544  0.5384
   81SOPE   C21 7350   6.354   6.939   7.466 -0.4696 -0.1521 -0.2754
   81SOPE   O22 7351   6.255   6.980   7.516  0.6321 -0.3575  0.1080
   81SOPE   C22 7352   6.423   7.005   7.354 -0.3934  0.1423  0.5707
   81SOPE   H2R 7353   6.458   6.931   7.279 -0.6503  1.7269 -1.1804
   81SOPE   H2S 7354   6.507   7.057   7.404  0.4489  0.6213 -1.2746
   81SOPE    C3 7355   6.240   6.682   7.524  0.8158  0.8121  0.2281
   81SOPE    HX 7356   6.152   6.734   7.568  0.4001 -1.8552  2.8927
   81SOPE    HY 7357   6.222   6.579   7.562 -0.1582  1.1598  0.7378
   81SOPE   O31 7358   6.229   6.694   7.380  0.2557  0.2279 -0.2408
   81SOPE   C31 7359   6.267   6.590   7.308  0.0719 -0.3272  0.0175
   81SOPE   O32 7360   6.280   6.478   7.353 -0.4069 -0.0358 -0.5279
   81SOPE   C32 7361   6.310   6.623   7.165 -0.6883 -0.2075  0.2838
   81SOPE   H2X 7362   6.418   6.649   7.161 -0.9730  1.0061 -0.1215
   81SOPE   H2Y 7363   6.252   6.708   7.122  2.2977  1.3501 -0.9319
   81SOPE   C23 7364   6.327   7.099   7.282 -0.6002  0.5049 -0.4194
   81SOPE   H3R 7365   6.299   7.191   7.338  0.0287  0.6690 -0.3664
   81SOPE   H3S 7366   6.238   7.041   7.249  0.8333 -2.8215  1.1270
   81SOPE   C24 7367   6.391   7.160   7.152 -0.7084  0.1961  0.0324
   81SOPE   H4R 7368   6.346   7.257   7.123 -2.8122 -0.2605  1.5812
   81SOPE   H4S 7369   6.498   7.179   7.178 -1.4928  2.9236  1.6275
   81SOPE   C25 7370   6.389   7.059   7.037 -0.1534  0.0245  0.0890
   81SOPE   H5R 7371   6.492   7.036   7.002 -0.4424  0.5062 -1.1253
   81SOPE   H5S 7372   6.357   6.963   7.083 -0.8114  1.1528  2.0974
   81SOPE   C26 7373   6.292   7.086   6.923 -0.1322  0.5221  0.0128
   81SOPE   H6R 7374   6.266   6.988   6.877 -0.8582  0.9013 -0.4002
   81SOPE   H6S 7375   6.199   7.124   6.971 -0.3632 -0.9451  0.7921
   81SOPE   C27 7376   6.346   7.190   6.821 -0.3064 -0.5411  0.4353
   81SOPE   H7R 7377   6.378   7.280   6.877 -1.6789 -0.1742  0.6546
   81SOPE   H7S 7378   6.428   7.142   6.763  0.5020  0.4213  0.7561
   81SOPE   C28 7379   6.233   7.234   6.725 -0.9772 -0.1876  0.5727
   81SOPE   H8R 7380   6.171   7.145   6.704  0.0977 -1.1040  1.1880
   81SOPE   H8S 7381   6.176   7.305   6.790 -1.5929 -0.1519 -0.0040
   81SOPE   C29 7382   6.289   7.303   6.600  0.6183 -0.5014 -0.6095
   81SOPE   H91 7383   6.381   7.360   6.614 -0.0081 -0.1066  2.5902
   81SOPE  C210 7384   6.229   7.312   6.476 -0.3226 -0.8424  0.0273
   81SOPE  H101 7385   6.275   7.380   6.403  0.6288 -0.9523  0.5073
   81SOPE  C211 7386   6.098   7.251   6.433 -0.0402 -0.3595 -0.0694
   81SOPE  H11R 7387   6.034   7.209   6.514 -1.2073  1.9665  0.2827
   81SOPE  H11S 7388   6.093   7.158   6.372  1.7868 -2.0752  2.1804
   81SOPE  C212 7389   6.002   7.358   6.364  0.4813 -0.6209  0.1174
   81SOPE  H12R 7390   6.018   7.455   6.415 -0.0640 -1.0126  1.0722
   81SOPE  H12S 7391   5.893   7.335   6.368  0.1965  0.7438  1.1181
   81SOPE  C213 7392   6.049   7.362   6.220 -0.2084  0.0495  0.0997
   81SOPE  H13R 7393   6.039   7.259   6.178 -0.3546 -0.4550  1.3334
   81SOPE  H13S 7394   6.153   7.400   6.213  0.1519 -0.7534  0.8624
   81SOPE  C214 7395   5.959   7.452   6.127 -0.3159  0.9288  0.4232
   81SOPE  H14R 7396   5.930   7.553   6.163  1.0040  0.3646  3.3867
   81SOPE  H14S 7397   5.865   7.393   6.130  0.2859 -0.0347  1.1510
   81SOPE  C215 7398   6.013   7.455   5.981 -0.5567 -0.1850  0.4995
   81SOPE  H15R 7399   6.012   7.350   5.942  1.5528  0.3547 -1.1621
   81SOPE  H15S 7400   6.119   7.486   5.993 -0.9902  1.8545 -0.5455
   81SOPE  C216 7401   5.936   7.553   5.893 -0.2022  0.3211  0.3199
   81SOPE  H16R 7402   5.963   7.659   5.909  3.0267 -0.1954 -0.8601
   81SOPE  H16S 7403   5.825   7.549   5.900 -0.2235  1.2999  0.6628
   81SOPE  C217 7404   5.979   7.535   5.746 -0.2531 -0.0070 -0.6647
   81SOPE  H17R 7405   5.908   7.589   5.680 -0.6297 -1.1278 -1.2014
   81SOPE  H17S 7406   5.979   7.425   5.726 -0.6332  0.3501 -2.8687
   81SOPE  C218 7407   6.122   7.576   5.720 -0.3253 -0.1137 -0.2836
   81SOPE  H18R 7408   6.127   7.633   5.625 -1.9813  0.2422 -0.1785
   81SOPE  H18S 7409   6.190   7.488   5.720  0.4233  0.4124  1.8355
   81SOPE  H18T 7410   6.168   7.638   5.799  0.2801 -1.3917  0.3989
   81SOPE   C33 7411   6.274   6.507   7.071  0.5476 -0.4437  0.2701
   81SOPE   H3X 7412   6.171   6.480   7.102  0.0469  1.7880  0.7432
   81SOPE   H3Y 7413   6.343   6.426   7.104  1.3222  0.7375  1.6997
   81SOPE   C34 7414   6.280   6.544   6.926  0.2793 -0.3263  0.0360
   81SOPE   H4X 7415   6.198   6.616   6.903  1.4174  0.3865 -2.0364
   81SOPE   H4Y 7416   6.260   6.450   6.871  0.6177 -0.3465 -0.0552
   81SOPE   C35 7417   6.416   6.608   6.876  1.0234  0.0419 -0.6868
   81SOPE   H5X 7418   6.509   6.558   6.909  0.8303 -0.2963 -0.6563
   81SOPE   H5Y 7419   6.422   6.712   6.915 -0.2715  0.1462 -0.7153
   81SOPE   C36 7420   6.416   6.622   6.723 -0.7954 -0.1362  0.0882
   81SOPE   H6X 7421   6.317   6.629   6.674 -0.3728  0.2651 -0.7396
   81SOPE   H6Y 7422   6.460   6.528   6.683 -1.9611 -1.5364  1.9226
   81SOPE   C37 7423   6.493   6.746   6.673 -0.2920 -0.4219  0.7341
   81SOPE   H7X 7424   6.590   6.755   6.726  0.5476 -0.1240 -0.8092
   81SOPE   H7Y 7425   6.429   6.834   6.693 -2.5057 -2.2161  2.0528
   81SOPE   C38 7426   6.536   6.745   6.524 -0.3432 -0.1185 -0.2341
   81SOPE   H8X 7427   6.446   6.722   6.463 -1.6918  0.1882  1.5367
   81SOPE   H8Y 7428   6.611   6.666   6.504  1.9458  2.3202 -2.0335
   81SOPE   C39 7429   6.608   6.865   6.464  0.2108 -0.3921 -0.4098
   81SOPE   H9X 7430   6.702   6.862   6.523 -0.5501 -1.0148  0.7896
   81SOPE   H9Y 7431   6.564   6.963   6.491  0.3924 -0.2476 -0.6272
   81SOPE  C310 7432   6.641   6.867   6.315 -0.7354 -0.1817 -0.1192
   81SOPE  H10X 7433   6.694   6.770   6.303 -0.9665 -0.2698 -0.4353
   81SOPE  H10Y 7434   6.711   6.952   6.299 -1.8407  1.6268  3.5841
   81SOPE  C311 7435   6.527   6.858   6.218 -0.3695  0.6905 -0.4008
   81SOPE  H11X 7436   6.454   6.942   6.226  0.4865  1.4563 -0.4838
   81SOPE  H11Y 7437   6.461   6.769   6.224 -2.1825  1.9391 -0.8906
   81SOPE  C312 7438   6.568   6.857   6.071 -0.6368 -0.0413  0.5490
   81SOPE  H12X 7439   6.634   6.770   6.047 -0.8906 -0.1443  0.2218
   81SOPE  H12Y 7440   6.620   6.951   6.043  2.6980 -0.3097  4.7909
   81SOPE  C313 7441   6.454   6.841   5.972  0.4306  0.7743  0.0227
   81SOPE  H13X 7442   6.385   6.928   5.979 -0.3880  0.1625 -0.2761
   81SOPE  H13Y 7443   6.397   6.752   6.005 -0.3027  1.8200  1.7356
   81SOPE  C314 7444   6.513   6.823   5.830 -0.7533  0.2736 -0.0420
   81SOPE  H14X 7445   6.423   6.812   5.766 -0.9999  3.5626 -0.4309
   81SOPE  H14Y 7446   6.579   6.734   5.830  1.0092  1.5204  0.5285
   81SOPE  C315 7447   6.590   6.939   5.765  0.3772  0.0790 -0.2754
   81SOPE  H15X 7448   6.658   6.988   5.838 -0.7453  2.7985 -0.9487
   81SOPE  H15Y 7449   6.514   7.009   5.726 -0.6843 -1.1630 -0.5066
   81SOPE  C316 7450   6.667   6.883   5.648 -0.0136  0.2608 -0.4541
   81SOPE  H16X 7451   6.601   6.826   5.580  2.0322 -1.4326 -1.1146
   81SOPE  H16Y 7452   6.735   6.809   5.696  0.9714  2.0049  0.9580
   81SOPE  C317 7453   6.752   6.979   5.563  0.5976 -0.2572 -0.5063
   81SOPE  H17X 7454   6.831   6.920   5.512  4.0699  2.6362  1.0747
   81SOPE  H17Y 7455   6.803   7.047   5.635  0.7381 -0.8454 -0.0355
   81SOPE  C318 7456   6.668   7.061   5.471  0.0913 -0.5083 -0.3944
   81SOPE  H18X 7457   6.711   7.147   5.416 -3.3211  2.6046  1.4435
   81SOPE  H18Y 7458   6.590   7.101   5.539  0.2674  0.3286 -0.6798
   81SOPE  H18Z 7459   6.629   7.001   5.385 -0.1984 -0.4913 -0.2771
   82SOPE     N 7460   4.526   4.081   7.623  0.2084 -0.5121  0.3302
   82SOPE   HN1 7461   4.589   4.157   7.657  1.5461 -1.9776  1.2580
   82SOPE   HN2 7462   4.500   4.025   7.707 -0.2666 -1.5478 -0.4852
   82SOPE   HN3 7463   4.590   4.021   7.566 -1.1854 -2.7662  1.0150
   82SOPE   C12 7464   4.402   4.126   7.555  0.3730  0.0753  0.1443
   82SOPE  H12A 7465   4.347   4.029   7.545  2.9816 -1.7831  2.2499
   82SOPE  H12B 7466   4.427   4.170   7.456 -0.6784  0.3544 -0.0086
   82SOPE   C11 7467   4.316   4.222   7.632 -0.3599 -0.3290 -0.4399
   82SOPE  H11A 7468   4.307   4.182   7.735 -0.2004 -0.0872 -0.3312
   82SOPE  H11B 7469   4.218   4.238   7.582 -0.7411  3.1314  1.0975
   82SOPE     P 7470   4.340   4.473   7.706 -0.2884 -0.3396  0.2851
   82SOPE   O13 7471   4.431   4.534   7.804 -0.1493  0.1619 -0.3969
   82SOPE   O14 7472   4.199   4.451   7.748  0.0728  0.3057  0.1692
   82SOPE   O12 7473   4.393   4.348   7.628 -0.1096 -0.1913  0.0837
   82SOPE   O11 7474   4.332   4.572   7.584 -0.6245  0.1036  0.3653
   82SOPE    C1 7475   4.448   4.624   7.519 -0.3918 -0.3153 -0.2082
   82SOPE    HA 7476   4.537   4.557   7.526  0.9331  1.2818 -1.1047
   82SOPE    HB 7477   4.469   4.726   7.557 -1.4149  0.1186 -0.7907
   82SOPE    C2 7478   4.428   4.635   7.367 -0.6094  0.1889 -0.1390
   82SOPE    HS 7479   4.519   4.684   7.326 -2.2117  1.1206 -2.8386
   82SOPE   O21 7480   4.314   4.709   7.334 -0.4686  0.3269  0.1031
   82SOPE   C21 7481   4.335   4.834   7.295 -0.1508  0.0511 -0.2770
   82SOPE   O22 7482   4.443   4.890   7.302  0.0579  0.9696  0.1507
   82SOPE   C22 7483   4.204   4.893   7.255 -0.1820 -0.1620 -0.0116
   82SOPE   H2R 7484   4.166   4.949   7.343  1.2563 -2.0129  1.8880
   82SOPE   H2S 7485   4.126   4.817   7.232 -0.0925 -0.5329  0.8525
   82SOPE    C3 7486   4.424   4.490   7.309  0.1361 -0.3483  0.0472
   82SOPE    HX 7487   4.332   4.446   7.353  0.8832 -1.1241  0.8709
   82SOPE    HY 7488   4.508   4.428   7.346  0.7485 -2.5148 -4.3033
   82SOPE   O31 7489   4.437   4.476   7.168 -0.4159  0.5564 -0.1196
   82SOPE   C31 7490   4.332   4.455   7.094  0.1368 -0.3695 -0.0104
   82SOPE   O32 7491   4.217   4.454   7.130  0.3887  0.0361 -0.0858
   82SOPE   C32 7492   4.390   4.430   6.953  0.3973  0.1729  0.2040
   82SOPE   H2X 7493   4.458   4.342   6.957  0.2985  0.1594  2.1380
   82SOPE   H2Y 7494   4.460   4.508   6.917  1.4544 -1.5181 -1.6315
   82SOPE   C23 7495   4.219   4.975   7.128 -0.1781  0.3880 -1.0850
   82SOPE   H3R 7496   4.286   5.059   7.155 -0.3108 -0.3813  1.9601
   82SOPE   H3S 7497   4.121   5.018   7.097  0.2878  0.4508 -2.5590
   82SOPE   C24 7498   4.258   4.885   7.007 -0.0371 -0.4185 -0.7440
   82SOPE   H4R 7499   4.368   4.875   7.016 -0.1082  0.1765  1.2451
   82SOPE   H4S 7500   4.214   4.785   7.024  1.6703 -0.7923  1.9580
   82SOPE   C25 7501   4.216   4.943   6.873  0.4554 -0.0627 -0.2277
   82SOPE   H5R 7502   4.107   4.958   6.861  0.2174 -1.8973 -0.6947
   82SOPE   H5S 7503   4.266   5.038   6.846  2.1469 -0.5088  1.1461
   82SOPE   C26 7504   4.258   4.854   6.761 -0.0173 -0.3307  0.2104
   82SOPE   H6R 7505   4.369   4.864   6.751  0.2742 -3.1289 -0.2270
   82SOPE   H6S 7506   4.231   4.747   6.773  0.3244 -0.7806 -2.3964
   82SOPE   C27 7507   4.205   4.901   6.625  0.1181 -0.0474  0.6504
   82SOPE   H7R 7508   4.096   4.922   6.635  0.4427  2.2559 -0.0080
   82SOPE   H7S 7509   4.261   4.993   6.598 -2.5107  0.9711 -1.8730
   82SOPE   C28 7510   4.221   4.779   6.525 -0.3700  0.2617  0.4783
   82SOPE   H8R 7511   4.160   4.693   6.561  1.2292 -0.5970  1.2181
   82SOPE   H8S 7512   4.177   4.815   6.430  0.7873  0.2240 -0.0765
   82SOPE   C29 7513   4.363   4.730   6.504  0.6926  0.1708  0.1328
   82SOPE   H91 7514   4.421   4.692   6.590 -0.2981  0.9191  1.1618
   82SOPE  C210 7515   4.419   4.719   6.380 -0.0033 -0.2991  0.1087
   82SOPE  H101 7516   4.525   4.695   6.369  0.5004  1.8673 -0.3229
   82SOPE  C211 7517   4.359   4.743   6.244  0.5779 -0.8215 -0.5686
   82SOPE  H11R 7518   4.277   4.818   6.244 -0.1067 -1.5239  1.1588
   82SOPE  H11S 7519   4.292   4.663   6.205  0.5635 -0.6862 -0.8317
   82SOPE  C212 7520   4.463   4.778   6.132 -0.6190  0.5533  0.0751
   82SOPE  H12R 7521   4.543   4.701   6.128 -0.5137  0.5851  1.3017
   82SOPE  H12S 7522   4.510   4.871   6.171 -2.1097  1.3306  0.0614
   82SOPE  C213 7523   4.414   4.786   5.989 -0.6152 -0.1759 -0.1818
   82SOPE  H13R 7524   4.372   4.688   5.957  0.8634 -0.9871  0.3022
   82SOPE  H13S 7525   4.494   4.808   5.915  0.6051  2.1174  1.6801
   82SOPE  C214 7526   4.318   4.899   5.956  0.1369 -1.0652 -0.1441
   82SOPE  H14R 7527   4.365   4.998   5.975 -1.5681 -0.0965 -0.7492
   82SOPE  H14S 7528   4.233   4.901   6.027  0.4839  3.6410  0.4644
   82SOPE  C215 7529   4.258   4.890   5.811  0.1814  0.3481 -0.5661
   82SOPE  H15R 7530   4.172   4.960   5.813  0.6601  0.9912  2.6293
   82SOPE  H15S 7531   4.223   4.789   5.782  1.1426  0.5122 -2.4871
   82SOPE  C216 7532   4.349   4.939   5.702 -0.4738 -0.0567 -0.6860
   82SOPE  H16R 7533   4.431   4.864   5.695 -0.0181  0.0747  2.0838
   82SOPE  H16S 7534   4.409   5.027   5.732  0.0705 -0.3491 -0.8897
   82SOPE  C217 7535   4.267   4.971   5.574  0.0799 -0.4982  0.1325
   82SOPE  H17R 7536   4.197   5.057   5.579 -0.8178 -1.2633  1.4807
   82SOPE  H17S 7537   4.195   4.887   5.563 -0.6019 -0.0058  0.6850
   82SOPE  C218 7538   4.348   4.996   5.449 -0.3008  0.1827  0.5363
   82SOPE  H18R 7539   4.403   5.093   5.448  1.1889 -0.5953  2.1636
   82SOPE  H18S 7540   4.279   4.982   5.364  0.0556  2.5115 -0.1993
   82SOPE  H18T 7541   4.427   4.919   5.439  0.5374  0.8853  1.5147
   82SOPE   C33 7542   4.274   4.397   6.853  0.6755 -0.0348  0.4159
   82SOPE   H3X 7543   4.213   4.490   6.853  1.1801  0.2964  0.7871
   82SOPE   H3Y 7544   4.221   4.303   6.879 -0.3265  0.0351 -1.2290
   82SOPE   C34 7545   4.327   4.380   6.705 -0.4059 -0.0830  0.0718
   82SOPE   H4X 7546   4.412   4.309   6.698 -2.2905 -2.4939  0.3670
   82SOPE   H4Y 7547   4.345   4.474   6.648  0.0585 -0.5356 -0.5339
   82SOPE   C35 7548   4.218   4.313   6.618  0.6490  0.9149 -0.5162
   82SOPE   H5X 7549   4.129   4.378   6.601 -1.5161 -2.0302 -1.2820
   82SOPE   H5Y 7550   4.175   4.223   6.667 -0.2899  1.1316 -0.9217
   82SOPE   C36 7551   4.264   4.271   6.474  0.3233 -0.0971 -0.5047
   82SOPE   H6X 7552   4.192   4.194   6.439  1.1367 -1.7491  1.2736
   82SOPE   H6Y 7553   4.362   4.219   6.482 -0.2500 -1.2427 -0.7781
   82SOPE   C37 7554   4.248   4.379   6.362 -0.1496  0.3557 -0.4832
   82SOPE   H7X 7555   4.303   4.470   6.395  0.3671  0.2228 -0.9721
   82SOPE   H7Y 7556   4.142   4.412   6.366  0.3277  1.8957  0.8344
   82SOPE   C38 7557   4.289   4.346   6.219 -0.2291  0.1619 -0.5737
   82SOPE   H8X 7558   4.285   4.438   6.157  1.4299  0.6214 -0.0606
   82SOPE   H8Y 7559   4.220   4.272   6.175 -0.3328  0.3428 -0.7147
   82SOPE   C39 7560   4.430   4.278   6.209 -0.6737 -0.2442  0.0894
   82SOPE   H9X 7561   4.425   4.193   6.138  0.4019  0.2486 -0.5971
   82SOPE   H9Y 7562   4.469   4.243   6.307 -1.2743 -1.7455 -0.1752
   82SOPE  C310 7563   4.532   4.376   6.154  0.1014  0.0394 -0.2060
   82SOPE  H10X 7564   4.636   4.344   6.178  0.9285  1.8952 -1.0662
   82SOPE  H10Y 7565   4.525   4.472   6.209 -2.2984 -1.1585  1.7990
   82SOPE  C311 7566   4.524   4.384   6.002 -0.9429  0.2476  0.1265
   82SOPE  H11X 7567   4.428   4.435   5.978 -1.4626  0.0035  1.5376
   82SOPE  H11Y 7568   4.527   4.282   5.958 -3.3110  0.1638  0.0029
   82SOPE  C312 7569   4.629   4.467   5.931  0.6194  0.5783 -0.4710
   82SOPE  H12X 7570   4.722   4.405   5.933  0.7580  0.7860 -0.4455
   82SOPE  H12Y 7571   4.646   4.559   5.990 -0.4813 -0.2713  1.2644
   82SOPE  C313 7572   4.599   4.497   5.785 -0.2088 -0.3911 -0.2001
   82SOPE  H13X 7573   4.687   4.534   5.727 -1.8077  1.5975 -1.5101
   82SOPE  H13Y 7574   4.528   4.581   5.765  1.1103  0.3846 -1.9318
   82SOPE  C314 7575   4.525   4.394   5.694  0.5732  0.1547 -0.1025
   82SOPE  H14X 7576   4.433   4.352   5.741  1.1808 -1.4447 -0.2950
   82SOPE  H14Y 7577   4.592   4.308   5.674  1.5233  0.5101  1.4130
   82SOPE  C315 7578   4.489   4.457   5.556  0.3935 -0.3099 -0.4441
   82SOPE  H15X 7579   4.582   4.505   5.516  0.6504  1.3146  1.9046
   82SOPE  H15Y 7580   4.406   4.530   5.568 -0.9778 -1.2734 -3.1381
   82SOPE  C316 7581   4.441   4.347   5.458  0.6996  0.1976 -0.3539
   82SOPE  H16X 7582   4.389   4.384   5.367 -1.2797  1.2641  1.1267
   82SOPE  H16Y 7583   4.364   4.284   5.506  2.3257  0.0453  2.2453
   82SOPE  C317 7584   4.549   4.253   5.417 -0.2405 -0.6126 -0.8095
   82SOPE  H17X 7585   4.514   4.151   5.388 -1.7822 -0.9892  1.9890
   82SOPE  H17Y 7586   4.615   4.216   5.499  1.1530  0.4089 -1.4463
   82SOPE  C318 7587   4.628   4.298   5.294 -0.3660 -0.0434  0.3048
   82SOPE  H18X 7588   4.695   4.384   5.313 -0.6077 -0.2402  2.3269
   82SOPE  H18Y 7589   4.565   4.329   5.208  1.7560 -2.7260 -2.4069
   82SOPE  H18Z 7590   4.697   4.219   5.258  0.3818  0.2732  1.0023
   83SOPE     N 7591   6.704   4.806   3.406  0.3645 -0.3441 -0.5474
   83SOPE   HN1 7592   6.721   4.899   3.363 -0.6065  1.1943  2.1834
   83SOPE   HN2 7593   6.790   4.747   3.397  0.5842 -0.4196  1.5453
   83SOPE   HN3 7594   6.627   4.762   3.352  2.4293 -3.5326 -1.1894
   83SOPE   C12 7595   6.659   4.808   3.550 -0.1833  0.3522  0.6463
   83SOPE  H12A 7596   6.734   4.857   3.617  1.6243 -0.0037 -1.0468
   83SOPE  H12B 7597   6.646   4.706   3.591 -0.9099  0.4318  0.6216
   83SOPE   C11 7598   6.523   4.872   3.564 -0.0622 -1.0445  0.4974
   83SOPE  H11A 7599   6.471   4.848   3.659 -0.1957  0.8406  0.9370
   83SOPE  H11B 7600   6.468   4.833   3.475 -0.9347 -0.6781  0.8601
   83SOPE     P 7601   6.429   5.103   3.519  0.1379  0.8442  0.0345
   83SOPE   O13 7602   6.303   5.027   3.529 -0.2545 -0.3178 -0.1565
   83SOPE   O14 7603   6.461   5.154   3.384  0.2338  0.3734 -0.6167
   83SOPE   O12 7604   6.544   5.013   3.563 -0.2591  0.3816  0.3795
   83SOPE   O11 7605   6.423   5.225   3.624 -0.1210 -0.2898 -0.7833
   83SOPE    C1 7606   6.526   5.248   3.723 -0.5678 -0.2725  0.2150
   83SOPE    HA 7607   6.554   5.355   3.736 -0.3871 -0.2806 -0.0895
   83SOPE    HB 7608   6.619   5.203   3.681  0.1243  1.4287 -0.1786
   83SOPE    C2 7609   6.503   5.177   3.856  0.5822  0.3664  0.3422
   83SOPE    HS 7610   6.498   5.068   3.835  0.9682  0.9554 -3.4844
   83SOPE   O21 7611   6.394   5.231   3.932  0.5545  0.5536 -0.1235
   83SOPE   C21 7612   6.284   5.149   3.939 -0.4483  0.1000  0.0310
   83SOPE   O22 7613   6.267   5.045   3.886  0.2245 -0.0607 -0.0520
   83SOPE   C22 7614   6.193   5.216   4.044 -0.1240 -0.4129  0.2294
   83SOPE   H2R 7615   6.138   5.291   3.983 -0.7967 -0.8072  0.3416
   83SOPE   H2S 7616   6.255   5.264   4.123 -1.2795  3.6143 -1.0415
   83SOPE    C3 7617   6.624   5.200   3.949  0.0928 -0.4021 -0.7098
   83SOPE    HX 7618   6.620   5.303   3.989 -0.3820 -1.7479  3.1264
   83SOPE    HY 7619   6.724   5.182   3.904  0.7508 -0.3857  0.7116
   83SOPE   O31 7620   6.603   5.110   4.065  0.3944  0.2906  0.7752
   83SOPE   C31 7621   6.608   5.166   4.189  0.0487 -0.3216  0.7628
   83SOPE   O32 7622   6.631   5.281   4.218 -0.1985  0.1324  0.1702
   83SOPE   C32 7623   6.574   5.060   4.282 -0.5522  0.3793 -0.7047
   83SOPE   H2X 7624   6.504   4.981   4.245 -0.4559  0.1336 -0.3688
   83SOPE   H2Y 7625   6.532   5.106   4.373 -2.3287  0.3943 -1.4839
   83SOPE   C23 7626   6.085   5.120   4.090 -0.1339 -0.1265 -0.1215
   83SOPE   H3R 7627   6.036   5.079   3.999  0.5315 -2.1597  0.3818
   83SOPE   H3S 7628   6.004   5.166   4.150 -0.2243  2.0296 -1.7472
   83SOPE   C24 7629   6.136   5.007   4.181  0.1173 -0.3634 -0.2192
   83SOPE   H4R 7630   6.051   4.944   4.215  1.2711 -2.4569 -1.0151
   83SOPE   H4S 7631   6.201   4.937   4.125 -0.1729 -1.4968  0.8221
   83SOPE   C25 7632   6.201   5.065   4.310 -0.4971  0.4312  0.2121
   83SOPE   H5R 7633   6.308   5.091   4.292  0.2248 -0.3576  2.9935
   83SOPE   H5S 7634   6.146   5.160   4.332 -1.2330  0.1573 -0.4109
   83SOPE   C26 7635   6.194   4.972   4.428 -0.5284 -0.2949 -0.1007
   83SOPE   H6R 7636   6.089   4.974   4.463 -0.5173  0.6247 -0.0913
   83SOPE   H6S 7637   6.218   4.864   4.418 -0.1589 -0.0632 -2.2909
   83SOPE   C27 7638   6.283   5.025   4.543  0.7791 -0.7459  0.1870
   83SOPE   H7R 7639   6.386   5.002   4.507  0.3643 -2.0478 -0.2254
   83SOPE   H7S 7640   6.266   5.134   4.552 -1.7391 -1.1831  1.7411
   83SOPE   C28 7641   6.247   4.962   4.678 -0.6281  0.0368 -0.2779
   83SOPE   H8R 7642   6.273   4.854   4.676  1.1750  0.4380 -0.9332
   83SOPE   H8S 7643   6.324   5.008   4.744  0.4013 -0.9344 -0.7525
   83SOPE   C29 7644   6.107   4.999   4.726 -0.1190 -0.4431 -0.0104
   83SOPE   H91 7645   6.038   5.021   4.642  0.6693  0.3874 -0.4601
   83SOPE  C210 7646   6.066   4.991   4.850 -0.2530 -0.1923 -0.8087
   83SOPE  H101 7647   5.962   5.023   4.868  0.0072 -0.0708  0.5358
   83SOPE  C211 7648   6.146   4.953   4.976  0.1892  0.1131 -0.6665
   83SOPE  H11R 7649   6.255   4.950   4.954  0.1887 -2.1419 -0.5738
   83SOPE  H11S 7650   6.125   4.852   5.019  0.3242  0.9725  1.5466
   83SOPE  C212 7651   6.121   5.044   5.100  0.6734  0.7062 -0.2309
   83SOPE  H12R 7652   6.131   5.151   5.073 -1.0229  0.9380 -0.0907
   83SOPE  H12S 7653   6.204   5.013   5.166  0.7083 -0.6845 -0.8952
   83SOPE  C213 7654   5.978   5.016   5.146  0.0374 -0.0753 -0.0593
   83SOPE  H13R 7655   5.982   4.909   5.177 -1.6930 -0.1568 -0.0212
   83SOPE  H13S 7656   5.909   5.046   5.064  0.3964  1.9361  0.3165
   83SOPE  C214 7657   5.943   5.106   5.269 -0.0852  0.1640 -0.5672
   83SOPE  H14R 7658   5.924   5.208   5.230  1.8110  0.2275 -1.4483
   83SOPE  H14S 7659   6.032   5.113   5.336 -0.9070  1.8267  0.4054
   83SOPE  C215 7660   5.825   5.044   5.353  0.5748  0.3416  0.4960
   83SOPE  H15R 7661   5.801   4.939   5.330 -0.4025  0.3481  1.3965
   83SOPE  H15S 7662   5.747   5.109   5.308 -0.8048 -1.7280 -0.2337
   83SOPE  C216 7663   5.830   5.067   5.503  0.2501  0.1908 -0.0433
   83SOPE  H16R 7664   5.865   5.170   5.524  0.3380  0.0705  0.4038
   83SOPE  H16S 7665   5.905   5.001   5.550 -0.6555 -1.3543 -0.7079
   83SOPE  C217 7666   5.695   5.045   5.567  0.5469  0.1653 -0.2659
   83SOPE  H17R 7667   5.670   4.938   5.557 -0.1718  0.4438 -1.5600
   83SOPE  H17S 7668   5.613   5.100   5.517  0.1630  1.7551  1.9267
   83SOPE  C218 7669   5.709   5.090   5.714 -0.0342  0.3147 -0.5510
   83SOPE  H18R 7670   5.729   5.200   5.715  2.1157 -0.0019 -1.8243
   83SOPE  H18S 7671   5.787   5.031   5.767  0.2110  1.1236  0.0251
   83SOPE  H18T 7672   5.615   5.083   5.772 -0.1010 -0.2912 -0.7279
   83SOPE   C33 7673   6.698   4.981   4.339  0.1944  0.2206  0.6465
   83SOPE   H3X 7674   6.777   5.051   4.374  0.2896  1.0047 -1.0766
   83SOPE   H3Y 7675   6.748   4.918   4.263  0.0474  0.6006  0.2291
   83SOPE   C34 7676   6.661   4.886   4.459  0.1163  0.1130  0.7769
   83SOPE   H4X 7677   6.724   4.796   4.469 -1.7502 -1.6806 -2.1163
   83SOPE   H4Y 7678   6.555   4.855   4.447  0.3476 -0.2166 -0.5403
   83SOPE   C35 7679   6.679   4.947   4.601 -0.1077 -0.0093 -0.1337
   83SOPE   H5X 7680   6.598   5.022   4.613  1.5436  1.6008  1.7709
   83SOPE   H5Y 7681   6.776   5.001   4.607  0.9986 -2.0645  1.7800
   83SOPE   C36 7682   6.674   4.842   4.716 -0.0393 -0.3372  0.2722
   83SOPE   H6X 7683   6.745   4.756   4.713  1.8010  1.0127  2.0872
   83SOPE   H6Y 7684   6.572   4.799   4.724  0.1815 -0.9967 -0.2966
   83SOPE   C37 7685   6.714   4.916   4.841  0.2413 -0.1821  0.4134
   83SOPE   H7X 7686   6.650   5.006   4.854 -0.4560 -0.7309  0.8957
   83SOPE   H7Y 7687   6.818   4.952   4.824  0.8686 -0.7294  2.7471
   83SOPE   C38 7688   6.704   4.838   4.977  0.1865 -0.7199 -0.7174
   83SOPE   H8X 7689   6.735   4.732   4.968 -1.9867 -1.5437  0.6913
   83SOPE   H8Y 7690   6.599   4.827   5.011  0.0224  1.4304 -0.3878
   83SOPE   C39 7691   6.775   4.895   5.100  0.1535  0.3262  0.2620
   83SOPE   H9X 7692   6.723   4.992   5.111 -1.3530 -0.3250 -0.7885
   83SOPE   H9Y 7693   6.882   4.915   5.079 -0.4359  1.7891 -1.5142
   83SOPE  C310 7694   6.751   4.819   5.228 -0.5593  0.3742 -1.0773
   83SOPE  H10X 7695   6.836   4.748   5.238 -1.3849 -0.2552  3.3667
   83SOPE  H10Y 7696   6.657   4.760   5.235  0.8470 -1.7507  2.4122
   83SOPE  C311 7697   6.777   4.908   5.357  0.7642 -0.3837 -0.2901
   83SOPE  H11X 7698   6.788   4.838   5.443  1.7488 -1.1281 -0.9896
   83SOPE  H11Y 7699   6.687   4.968   5.382 -0.8383 -2.2197 -1.4187
   83SOPE  C312 7700   6.901   5.000   5.343 -0.0676 -1.0165  0.0214
   83SOPE  H12X 7701   6.863   5.090   5.291 -2.6217 -0.1558  3.0106
   83SOPE  H12Y 7702   6.975   4.947   5.281  0.0797  0.6395 -1.2768
   83SOPE  C313 7703   6.958   5.050   5.474  0.9783  0.1942  0.8724
   83SOPE  H13X 7704   6.989   4.964   5.538  0.4008 -0.4523  0.3018
   83SOPE  H13Y 7705   6.881   5.109   5.526  1.6848 -0.3355  2.5938
   83SOPE  C314 7706   7.070   5.142   5.453  0.4435  0.5005 -0.4954
   83SOPE  H14X 7707   7.055   5.208   5.365 -0.2065  0.9470 -0.0694
   83SOPE  H14Y 7708   7.151   5.070   5.429 -0.5483 -1.6543  2.0718
   83SOPE  C315 7709   7.097   5.223   5.576 -0.7671 -0.0317  0.4242
   83SOPE  H15X 7710   7.109   5.154   5.662 -1.5691  0.3526  0.8609
   83SOPE  H15Y 7711   7.009   5.289   5.591 -1.0812 -0.6573  1.4637
   83SOPE  C316 7712   7.235   5.301   5.559  0.1156 -0.1653 -0.5939
   83SOPE  H16X 7713   7.252   5.348   5.658  2.1858 -0.4620 -0.7554
   83SOPE  H16Y 7714   7.227   5.373   5.476 -1.3808 -0.5001 -0.7705
   83SOPE  C317 7715   7.363   5.219   5.520  0.7653 -0.3950  0.3616
   83SOPE  H17X 7716   7.445   5.294   5.522  0.6877 -0.2159 -1.3549
   83SOPE  H17Y 7717   7.351   5.192   5.412 -1.5531 -0.7067  0.6586
   83SOPE  C318 7718   7.405   5.103   5.611  0.0595  0.6348  0.0396
   83SOPE  H18X 7719   7.504   5.064   5.576  0.6295  3.2639 -1.5227
   83SOPE  H18Y 7720   7.334   5.018   5.618  1.2655 -0.3035  1.7280
   83SOPE  H18Z 7721   7.415   5.140   5.715 -1.4878 -0.3911  0.5809
   84SOPE     N 7722   2.075   2.253   3.696  0.0021 -0.2411 -0.9873
   84SOPE   HN1 7723   2.069   2.325   3.621 -0.1940 -1.2340 -1.9484
   84SOPE   HN2 7724   2.173   2.225   3.719  0.4487  1.1024 -1.1823
   84SOPE   HN3 7725   2.027   2.164   3.673  1.0145 -0.9510 -0.4207
   84SOPE   C12 7726   2.024   2.294   3.829 -0.0404 -0.3785 -0.4339
   84SOPE  H12A 7727   1.950   2.375   3.815 -2.0316 -1.0992  4.1004
   84SOPE  H12B 7728   2.103   2.330   3.899 -0.3416  0.5523 -0.5685
   84SOPE   C11 7729   1.953   2.172   3.891 -0.1430  0.4976 -0.3433
   84SOPE  H11A 7730   1.903   2.227   3.974 -0.3958  0.4186 -0.4457
   84SOPE  H11B 7731   2.016   2.097   3.943 -0.4691 -0.4416 -1.2973
   84SOPE     P 7732   1.786   1.971   3.857 -0.0170  0.0369 -0.3872
   84SOPE   O13 7733   1.902   1.877   3.855  0.1951 -0.3757 -0.1664
   84SOPE   O14 7734   1.666   1.944   3.776  0.6166  0.6164 -0.2490
   84SOPE   O12 7735   1.853   2.110   3.811 -0.4003 -0.1158  0.5134
   84SOPE   O11 7736   1.746   2.007   4.007 -0.1708  0.4109  0.2127
   84SOPE    C1 7737   1.812   1.956   4.126 -0.4212 -0.3056  0.3820
   84SOPE    HA 7738   1.819   2.039   4.200  3.4309  1.9000 -2.1073
   84SOPE    HB 7739   1.921   1.946   4.106 -0.5508 -0.2683 -0.4089
   84SOPE    C2 7740   1.744   1.824   4.181  0.8947 -0.6063 -0.2566
   84SOPE    HS 7741   1.758   1.750   4.100  4.4827  0.8223 -1.1361
   84SOPE   O21 7742   1.610   1.858   4.223  0.5635 -0.4908  0.2503
   84SOPE   C21 7743   1.519   1.767   4.205 -0.7805 -0.9221 -0.0118
   84SOPE   O22 7744   1.538   1.662   4.149  0.0965  0.1188  0.7634
   84SOPE   C22 7745   1.397   1.813   4.276  0.4127 -0.2858 -0.3406
   84SOPE   H2R 7746   1.348   1.895   4.219  0.7565  1.1903  1.3966
   84SOPE   H2S 7747   1.412   1.853   4.379 -1.7451  2.1070 -0.8220
   84SOPE    C3 7748   1.826   1.771   4.302 -0.3424  0.3567  0.0556
   84SOPE    HX 7749   1.809   1.838   4.389  1.0172 -0.8895  1.3391
   84SOPE    HY 7750   1.934   1.779   4.279 -0.5828  0.1295 -1.2307
   84SOPE   O31 7751   1.787   1.639   4.339 -0.2790  0.2315 -0.3959
   84SOPE   C31 7752   1.845   1.532   4.271 -0.1166  0.3309 -0.7715
   84SOPE   O32 7753   1.925   1.543   4.177 -0.3167 -0.2648 -0.5586
   84SOPE   C32 7754   1.793   1.395   4.323 -0.1491 -0.5037 -0.1273
   84SOPE   H2X 7755   1.804   1.313   4.249 -1.6302  1.1574 -2.3265
   84SOPE   H2Y 7756   1.684   1.408   4.338 -1.1416 -3.4539 -3.3497
   84SOPE   C23 7757   1.284   1.702   4.283  0.2434  0.0541 -0.0326
   84SOPE   H3R 7758   1.303   1.631   4.200 -3.4672 -1.9514  0.6361
   84SOPE   H3S 7759   1.192   1.750   4.243  0.8991  0.3834 -1.1906
   84SOPE   C24 7760   1.250   1.626   4.405  0.0815  0.3788 -0.7012
   84SOPE   H4R 7761   1.195   1.679   4.486  0.1350  0.0664 -0.4586
   84SOPE   H4S 7762   1.181   1.548   4.367 -3.4662  2.7975  0.2023
   84SOPE   C25 7763   1.371   1.572   4.486 -0.0651  0.4555  0.9354
   84SOPE   H5R 7764   1.443   1.536   4.409 -0.8044  0.6847  0.1199
   84SOPE   H5S 7765   1.432   1.651   4.534  0.6063  0.7944 -0.4262
   84SOPE   C26 7766   1.331   1.470   4.591  0.3501  0.5099  0.4669
   84SOPE   H6R 7767   1.280   1.521   4.676 -1.6154 -0.5873  0.0133
   84SOPE   H6S 7768   1.250   1.403   4.555 -0.7569  0.6143  2.5942
   84SOPE   C27 7769   1.441   1.368   4.648  0.6168 -0.4136 -0.3555
   84SOPE   H7R 7770   1.482   1.297   4.574  0.3456  0.0729 -0.9770
   84SOPE   H7S 7771   1.525   1.428   4.691 -0.1211  1.4250 -1.3515
   84SOPE   C28 7772   1.397   1.287   4.774 -0.3828 -0.1398  0.6974
   84SOPE   H8R 7773   1.345   1.199   4.731 -1.2413  1.3724 -1.5581
   84SOPE   H8S 7774   1.487   1.253   4.831 -0.8895 -1.0251  0.9831
   84SOPE   C29 7775   1.305   1.357   4.879 -0.2395 -0.2702 -0.1210
   84SOPE   H91 7776   1.330   1.463   4.897  1.1416 -0.5016 -0.5627
   84SOPE  C210 7777   1.203   1.305   4.945 -1.0426 -0.5758 -0.5307
   84SOPE  H101 7778   1.143   1.369   5.011 -1.5435 -1.9938  0.4438
   84SOPE  C211 7779   1.154   1.162   4.940  0.6489 -0.0486 -0.0087
   84SOPE  H11R 7780   1.208   1.108   4.859  0.4585  1.5825 -1.2717
   84SOPE  H11S 7781   1.049   1.164   4.903  0.7289 -1.2667 -0.3530
   84SOPE  C212 7782   1.156   1.078   5.075  0.4396  0.9421  0.6611
   84SOPE  H12R 7783   1.129   0.973   5.053 -0.8842  1.6136 -1.1641
   84SOPE  H12S 7784   1.077   1.116   5.143  1.0236 -0.5323  2.2184
   84SOPE  C213 7785   1.293   1.080   5.139  0.3197 -0.9170  0.5927
   84SOPE  H13R 7786   1.327   1.185   5.151  2.0534 -1.3174 -0.4495
   84SOPE  H13S 7787   1.366   1.038   5.067 -0.3524  0.6163 -1.0540
   84SOPE  C214 7788   1.311   0.981   5.249  0.1901  0.5225  0.3594
   84SOPE  H14R 7789   1.410   0.990   5.300 -0.6570  0.3694  2.1128
   84SOPE  H14S 7790   1.296   0.879   5.207  1.3724  0.3680  0.2659
   84SOPE  C215 7791   1.209   0.999   5.362 -0.7215  0.5401 -0.2477
   84SOPE  H15R 7792   1.111   0.954   5.337 -0.3583  0.0377 -0.7733
   84SOPE  H15S 7793   1.201   1.108   5.386 -1.4770  0.4041  0.1629
   84SOPE  C216 7794   1.251   0.909   5.487 -1.1084  0.2908 -0.4618
   84SOPE  H16R 7795   1.361   0.905   5.499 -1.2323  1.2444  1.3514
   84SOPE  H16S 7796   1.240   0.807   5.444 -1.4461  0.8832 -1.8468
   84SOPE  C217 7797   1.181   0.915   5.624  0.4351 -0.8125  1.0362
   84SOPE  H17R 7798   1.080   0.953   5.599  1.5584  0.9719 -1.2231
   84SOPE  H17S 7799   1.227   0.988   5.693 -2.4160  2.6393 -0.3982
   84SOPE  C218 7800   1.166   0.784   5.692 -0.1302  0.2847 -0.5519
   84SOPE  H18R 7801   1.265   0.739   5.714 -0.8862 -0.6948  1.0464
   84SOPE  H18S 7802   1.100   0.710   5.642 -0.2204 -0.5600  0.7719
   84SOPE  H18T 7803   1.130   0.804   5.795 -0.7636 -4.6198  0.4542
   84SOPE   C33 7804   1.873   1.346   4.445  0.8467  0.3068  0.1616
   84SOPE   H3X 7805   1.976   1.322   4.411  0.9995 -0.1888  0.9448
   84SOPE   H3Y 7806   1.828   1.252   4.484  2.1849 -0.3957  0.0639
   84SOPE   C34 7807   1.888   1.446   4.559 -0.2654  0.0429  0.4406
   84SOPE   H4X 7808   1.785   1.471   4.591 -0.6757 -0.8164 -0.1799
   84SOPE   H4Y 7809   1.931   1.542   4.522  0.7786 -0.6748 -0.2670
   84SOPE   C35 7810   1.981   1.390   4.671  0.6761  0.1803 -0.2268
   84SOPE   H5X 7811   2.087   1.422   4.661 -0.3163  3.0524 -3.0282
   84SOPE   H5Y 7812   1.982   1.280   4.658  1.9797  0.2250 -0.6910
   84SOPE   C36 7813   1.936   1.424   4.813  0.3937  0.0735  0.2133
   84SOPE   H6X 7814   1.919   1.534   4.819 -0.6200  0.0188 -1.1523
   84SOPE   H6Y 7815   2.022   1.408   4.882 -0.1653  1.2003  1.2156
   84SOPE   C37 7816   1.814   1.361   4.870  0.1082 -0.0663  0.8061
   84SOPE   H7X 7817   1.811   1.257   4.831  2.3312 -0.8285  2.4318
   84SOPE   H7Y 7818   1.722   1.405   4.827  2.0270  1.6121 -1.8452
   84SOPE   C38 7819   1.817   1.345   5.023  0.4152 -0.4185 -0.4875
   84SOPE   H8X 7820   1.845   1.438   5.078 -1.6695 -0.7428  1.2714
   84SOPE   H8Y 7821   1.905   1.280   5.046  3.3837  3.1265 -0.7349
   84SOPE   C39 7822   1.682   1.292   5.077  0.4491 -0.6438 -0.1960
   84SOPE   H9X 7823   1.655   1.207   5.010 -0.6214  0.9756 -1.8991
   84SOPE   H9Y 7824   1.602   1.367   5.062  0.2275 -1.1588 -1.7320
   84SOPE  C310 7825   1.691   1.242   5.220  0.7485  0.1497  0.0423
   84SOPE  H10X 7826   1.588   1.252   5.260  0.6257  1.9094 -0.6208
   84SOPE  H10Y 7827   1.739   1.311   5.293  2.7211  0.1509 -1.1763
   84SOPE  C311 7828   1.750   1.105   5.238  0.2471 -0.1975  0.2688
   84SOPE  H11X 7829   1.859   1.112   5.215  0.5075 -2.2214  0.7813
   84SOPE  H11Y 7830   1.715   1.019   5.178 -0.3861 -0.0405  0.3999
   84SOPE  C312 7831   1.732   1.060   5.384  0.1460 -0.1815 -0.7007
   84SOPE  H12X 7832   1.624   1.042   5.406 -0.3204  0.9282 -1.9175
   84SOPE  H12Y 7833   1.758   1.139   5.458 -0.4540 -1.3711  0.8340
   84SOPE  C313 7834   1.800   0.929   5.421  0.0025  0.6937 -0.1685
   84SOPE  H13X 7835   1.911   0.938   5.425  0.2341 -1.7311  2.3395
   84SOPE  H13Y 7836   1.786   0.850   5.344 -1.2597  0.6425  0.0980
   84SOPE  C314 7837   1.739   0.858   5.551 -1.2514  0.0803 -0.2751
   84SOPE  H14X 7838   1.793   0.761   5.565 -0.5015  0.6366  0.8233
   84SOPE  H14Y 7839   1.630   0.849   5.532 -1.0138 -0.7646 -1.3541
   84SOPE  C315 7840   1.751   0.938   5.683 -0.1981  0.4027 -0.5931
   84SOPE  H15X 7841   1.723   1.042   5.658  0.8901  0.8942  0.1155
   84SOPE  H15Y 7842   1.858   0.931   5.713 -0.9422  0.6240  2.5057
   84SOPE  C316 7843   1.654   0.871   5.785 -0.1235 -0.1680  0.3827
   84SOPE  H16X 7844   1.672   0.762   5.799 -0.1693 -0.3455 -0.8347
   84SOPE  H16Y 7845   1.556   0.881   5.733  0.4104  1.8235 -0.3158
   84SOPE  C317 7846   1.670   0.932   5.926  0.3520  0.4063  0.5494
   84SOPE  H17X 7847   1.580   0.892   5.978  0.7004 -0.4319  0.5213
   84SOPE  H17Y 7848   1.668   1.043   5.913 -1.2963  0.1227 -2.7087
   84SOPE  C318 7849   1.796   0.914   6.011  0.1516 -0.7492  0.3727
   84SOPE  H18X 7850   1.891   0.934   5.956 -0.1490 -3.7704 -1.4212
   84SOPE  H18Y 7851   1.813   0.809   6.043  2.7298 -0.4883  0.0597
   84SOPE  H18Z 7852   1.791   0.985   6.097 -1.6543  2.2913 -2.0452
   85SOPE     N 7853   2.361   5.163   3.176  0.3379 -0.2305 -0.5473
   85SOPE   HN1 7854   2.430   5.092   3.209 -0.2495  0.4258  2.4594
   85SOPE   HN2 7855   2.297   5.105   3.118 -0.0169  0.9204 -1.3365
   85SOPE   HN3 7856   2.417   5.223   3.113 -0.0915  1.0954  0.2863
   85SOPE   C12 7857   2.278   5.221   3.288  1.1187  0.1276 -0.6644
   85SOPE  H12A 7858   2.204   5.142   3.313 -1.1465  2.1942 -0.3890
   85SOPE  H12B 7859   2.222   5.303   3.238 -1.3320 -0.9323  0.1830
   85SOPE   C11 7860   2.372   5.272   3.397  0.2633  0.4536 -0.6082
   85SOPE  H11A 7861   2.396   5.183   3.459  0.2568  2.8757  3.2256
   85SOPE  H11B 7862   2.308   5.333   3.464 -0.2870  2.3381 -2.7314
   85SOPE     P 7863   2.518   5.490   3.365 -0.1304  0.3663  0.3343
   85SOPE   O13 7864   2.389   5.564   3.353 -0.0608 -0.0243 -0.6620
   85SOPE   O14 7865   2.628   5.529   3.270  0.6485 -0.2612 -0.0258
   85SOPE   O12 7866   2.497   5.332   3.355  0.1415  0.1616  0.0036
   85SOPE   O11 7867   2.575   5.512   3.516  0.0081 -0.1520  0.2303
   85SOPE    C1 7868   2.490   5.507   3.626 -0.4888 -0.4174 -0.6340
   85SOPE    HA 7869   2.530   5.444   3.709  0.3241 -1.4300 -1.7566
   85SOPE    HB 7870   2.385   5.470   3.615 -0.7829  0.2338 -0.0756
   85SOPE    C2 7871   2.470   5.648   3.687 -0.1154  0.1165 -0.2947
   85SOPE    HS 7872   2.429   5.715   3.607 -3.0492  0.2398  1.1607
   85SOPE   O21 7873   2.600   5.693   3.725  0.4215 -0.0758  0.1754
   85SOPE   C21 7874   2.618   5.809   3.781 -0.8328  0.1557 -0.0805
   85SOPE   O22 7875   2.531   5.892   3.802  0.4156 -0.3004 -0.4077
   85SOPE   C22 7876   2.768   5.838   3.804 -0.4770  0.3809 -0.1069
   85SOPE   H2R 7877   2.792   5.935   3.756 -0.4876  1.6093  2.2620
   85SOPE   H2S 7878   2.823   5.755   3.755  0.5517  1.6538 -1.1551
   85SOPE    C3 7879   2.365   5.656   3.807 -0.0122  0.0695  0.1069
   85SOPE    HX 7880   2.275   5.614   3.757  0.1890  0.5632 -0.6879
   85SOPE    HY 7881   2.337   5.757   3.845 -1.4727  0.0664 -0.8846
   85SOPE   O31 7882   2.411   5.575   3.911  0.2848  1.1695 -0.5673
   85SOPE   C31 7883   2.321   5.515   3.983 -0.5044  0.6023  0.5224
   85SOPE   O32 7884   2.199   5.527   3.983 -0.5515 -0.6845  0.8137
   85SOPE   C32 7885   2.389   5.394   4.053 -0.5098 -0.1010  0.9024
   85SOPE   H2X 7886   2.470   5.361   3.984 -0.8548  0.7609  0.0571
   85SOPE   H2Y 7887   2.325   5.305   4.072 -0.7517 -0.5077 -1.4575
   85SOPE   C23 7888   2.793   5.859   3.952  0.6875  0.6696 -0.3017
   85SOPE   H3R 7889   2.710   5.928   3.980  0.3978 -0.0467  0.6526
   85SOPE   H3S 7890   2.889   5.909   3.977  1.9754 -1.7786 -0.1000
   85SOPE   C24 7891   2.804   5.725   4.034  0.3197 -0.4815  1.4313
   85SOPE   H4R 7892   2.700   5.689   4.049  0.3518 -2.2889 -1.8529
   85SOPE   H4S 7893   2.858   5.652   3.970  0.1149 -0.2975  1.0425
   85SOPE   C25 7894   2.869   5.741   4.173 -0.5368  0.1115  0.4930
   85SOPE   H5R 7895   2.973   5.773   4.153 -1.1546  3.9552  2.3832
   85SOPE   H5S 7896   2.824   5.822   4.236 -0.7542 -1.2004  2.1034
   85SOPE   C26 7897   2.857   5.609   4.248 -0.4014  0.4121  0.1846
   85SOPE   H6R 7898   2.750   5.596   4.275 -0.6907  1.5836 -0.3483
   85SOPE   H6S 7899   2.870   5.520   4.182  0.4813 -0.9147  2.0786
   85SOPE   C27 7900   2.948   5.603   4.371 -0.2330  0.5920  1.0216
   85SOPE   H7R 7901   2.952   5.494   4.392 -0.3848  0.5939  1.0578
   85SOPE   H7S 7902   3.051   5.643   4.357  0.5051 -1.0792  1.3585
   85SOPE   C28 7903   2.886   5.659   4.502  0.0397  0.1107 -0.2118
   85SOPE   H8R 7904   2.965   5.664   4.581 -0.7117  2.2434  0.4698
   85SOPE   H8S 7905   2.864   5.766   4.483  0.8428  0.1892 -0.7591
   85SOPE   C29 7906   2.757   5.597   4.555 -0.1364  0.3336 -0.0394
   85SOPE   H91 7907   2.692   5.573   4.470  0.4403 -0.1847 -0.3473
   85SOPE  C210 7908   2.723   5.554   4.680 -0.0532 -0.4063  0.9557
   85SOPE  H101 7909   2.618   5.526   4.696 -0.4442 -1.3967 -2.6015
   85SOPE  C211 7910   2.802   5.562   4.804  0.2433  0.4843  0.8266
   85SOPE  H11R 7911   2.743   5.607   4.886  0.0851  1.4096  0.2192
   85SOPE  H11S 7912   2.890   5.629   4.791  0.2326  0.1856 -1.2269
   85SOPE  C212 7913   2.862   5.421   4.837  0.8421  0.0168  0.5330
   85SOPE  H12R 7914   2.904   5.374   4.746  0.2695 -0.8444  0.6972
   85SOPE  H12S 7915   2.772   5.359   4.857  0.1890  0.1696 -1.7208
   85SOPE  C213 7916   2.963   5.414   4.958 -0.2892 -0.3570  0.1929
   85SOPE  H13R 7917   3.062   5.442   4.917 -0.3454 -1.5310 -0.8159
   85SOPE  H13S 7918   2.970   5.313   5.005  0.6736 -0.8083 -0.8890
   85SOPE  C214 7919   2.933   5.511   5.072  0.3978 -0.6737 -0.5922
   85SOPE  H14R 7920   2.940   5.612   5.027 -0.1328 -0.0151  0.7383
   85SOPE  H14S 7921   3.019   5.515   5.142  1.4456  2.8743 -1.8620
   85SOPE  C215 7922   2.796   5.489   5.139  0.2176  0.2811  0.9661
   85SOPE  H15R 7923   2.720   5.503   5.059 -0.3227 -2.1246  0.9704
   85SOPE  H15S 7924   2.776   5.564   5.218  1.0383  0.2557  1.2092
   85SOPE  C216 7925   2.770   5.343   5.178  0.5051  0.3941  0.0014
   85SOPE  H16R 7926   2.849   5.305   5.247  0.3484 -0.8919 -0.4881
   85SOPE  H16S 7927   2.773   5.275   5.089  0.7287  0.9347 -0.4089
   85SOPE  C217 7928   2.639   5.323   5.253  0.0063  0.1996  0.4988
   85SOPE  H17R 7929   2.567   5.270   5.186 -0.1815  0.0658  0.8019
   85SOPE  H17S 7930   2.601   5.422   5.285 -2.3841 -0.6492  0.5047
   85SOPE  C218 7931   2.660   5.231   5.374 -0.3495  0.0215 -0.4193
   85SOPE  H18R 7932   2.719   5.284   5.452 -1.0938  1.7105 -0.9692
   85SOPE  H18S 7933   2.713   5.136   5.353 -0.5102 -0.0313 -0.5917
   85SOPE  H18T 7934   2.564   5.191   5.414  0.8173 -3.4419 -0.7548
   85SOPE   C33 7935   2.449   5.437   4.187 -0.3040  0.1893  0.6869
   85SOPE   H3X 7936   2.512   5.527   4.174 -0.6332  0.1262 -1.8071
   85SOPE   H3Y 7937   2.506   5.360   4.243 -0.5795 -0.3345  0.2499
   85SOPE   C34 7938   2.335   5.467   4.287  0.2840 -0.0423  0.0150
   85SOPE   H4X 7939   2.243   5.410   4.261 -0.0157  0.7365 -0.6675
   85SOPE   H4Y 7940   2.319   5.577   4.289  0.7574  0.0371 -0.3601
   85SOPE   C35 7941   2.364   5.419   4.425 -0.3314  0.1585 -0.1716
   85SOPE   H5X 7942   2.448   5.471   4.476 -1.2418  0.9490  0.5705
   85SOPE   H5Y 7943   2.401   5.315   4.414 -0.2619  0.1591  0.0486
   85SOPE   C36 7944   2.243   5.427   4.516 -0.8194  0.2782 -0.1957
   85SOPE   H6X 7945   2.153   5.397   4.459  0.7474 -2.0414 -1.6110
   85SOPE   H6Y 7946   2.239   5.533   4.552 -0.5409  0.4677 -0.7141
   85SOPE   C37 7947   2.266   5.328   4.633  0.3471  0.6725 -0.1676
   85SOPE   H7X 7948   2.332   5.242   4.607 -0.1919 -0.4892  2.0043
   85SOPE   H7Y 7949   2.167   5.284   4.655  1.4111 -0.9483  1.7767
   85SOPE   C38 7950   2.317   5.396   4.758 -0.7951 -0.5856  0.5831
   85SOPE   H8X 7951   2.254   5.481   4.793  1.1487  1.4988 -0.7286
   85SOPE   H8Y 7952   2.408   5.443   4.716 -0.8997 -0.4820  0.4721
   85SOPE   C39 7953   2.336   5.294   4.866  0.0557 -0.5771  0.5952
   85SOPE   H9X 7954   2.413   5.223   4.831  0.7735  1.3088 -1.9761
   85SOPE   H9Y 7955   2.245   5.231   4.876 -0.5654  0.3098  0.6938
   85SOPE  C310 7956   2.368   5.362   5.000  0.1690  0.2231  0.1201
   85SOPE  H10X 7957   2.311   5.456   5.013  0.0920  0.2595 -0.4319
   85SOPE  H10Y 7958   2.477   5.378   5.012  0.0947  0.8481 -0.0202
   85SOPE  C311 7959   2.308   5.294   5.123 -0.0471 -0.1916  0.3520
   85SOPE  H11X 7960   2.361   5.202   5.156  0.2592 -0.1125  0.0862
   85SOPE  H11Y 7961   2.207   5.261   5.092 -0.7270  1.8359  0.2574
   85SOPE  C312 7962   2.295   5.389   5.246  0.4218 -0.4322 -0.0451
   85SOPE  H12X 7963   2.314   5.495   5.218  1.1773 -0.8567 -1.1904
   85SOPE  H12Y 7964   2.377   5.363   5.316  1.3424 -2.4987 -1.7937
   85SOPE  C313 7965   2.160   5.369   5.314 -0.0524 -0.2569  0.3561
   85SOPE  H13X 7966   2.143   5.261   5.337 -1.6197 -0.3788 -1.1425
   85SOPE  H13Y 7967   2.080   5.405   5.247 -0.4661 -0.4871  0.7175
   85SOPE  C314 7968   2.155   5.424   5.461 -0.0698  0.1103  0.3973
   85SOPE  H14X 7969   2.220   5.380   5.540 -0.1217 -0.0852  0.3314
   85SOPE  H14Y 7970   2.052   5.400   5.495 -0.7102 -1.1030 -2.1578
   85SOPE  C315 7971   2.169   5.576   5.450  0.0762  0.0526 -0.4307
   85SOPE  H15X 7972   2.110   5.606   5.360 -1.9612  1.5770  1.3153
   85SOPE  H15Y 7973   2.274   5.599   5.422  1.1892 -3.1633  0.6837
   85SOPE  C316 7974   2.130   5.649   5.582  0.1428 -0.3196  0.5672
   85SOPE  H16X 7975   2.208   5.614   5.654 -0.6013  0.4514  1.7806
   85SOPE  H16Y 7976   2.030   5.613   5.616  0.2124 -1.3059 -0.2301
   85SOPE  C317 7977   2.143   5.802   5.569  0.1475 -0.0497  0.6964
   85SOPE  H17X 7978   2.252   5.824   5.568  0.1483 -0.0585  0.6225
   85SOPE  H17Y 7979   2.097   5.850   5.658 -0.2815 -2.3560  1.7993
   85SOPE  C318 7980   2.096   5.876   5.441  0.1195 -0.3534 -0.2631
   85SOPE  H18X 7981   2.137   5.839   5.345 -0.0632 -1.6964  0.1398
   85SOPE  H18Y 7982   2.107   5.986   5.448 -1.5082 -0.1550 -0.4421
   85SOPE  H18Z 7983   1.986   5.859   5.435 -0.7792  2.4952  3.8035
   86SOPE     N 7984   6.823   1.719   3.826 -0.4225  0.1710 -0.5238
   86SOPE   HN1 7985   6.813   1.820   3.852  1.8626  0.4416 -0.4752
   86SOPE   HN2 7986   6.838   1.664   3.912 -1.3646 -0.7870 -0.9471
   86SOPE   HN3 7987   6.910   1.706   3.770  0.7601  2.6964  0.5625
   86SOPE   C12 7988   6.709   1.680   3.741 -0.7019  0.3262 -0.2410
   86SOPE  H12A 7989   6.725   1.582   3.691  1.4698  1.0156 -1.0167
   86SOPE  H12B 7990   6.696   1.759   3.664  0.9145  0.7199 -0.1466
   86SOPE   C11 7991   6.584   1.680   3.825  0.7441  0.6200  0.2549
   86SOPE  H11A 7992   6.598   1.609   3.909 -1.9755  1.7212  1.7734
   86SOPE  H11B 7993   6.501   1.657   3.755  1.0503  4.7498 -1.7719
   86SOPE     P 7994   6.458   1.817   4.010 -0.0937 -0.4001 -0.1641
   86SOPE   O13 7995   6.380   1.692   4.030 -0.1013  0.2298  0.4092
   86SOPE   O14 7996   6.372   1.939   4.011 -0.3522  0.5589  0.3252
   86SOPE   O12 7997   6.545   1.812   3.875 -0.2451  0.2097 -0.6294
   86SOPE   O11 7998   6.557   1.835   4.140  0.1531  0.3285 -0.1956
   86SOPE    C1 7999   6.538   1.763   4.265  0.2325  0.1425 -0.2556
   86SOPE    HA 8000   6.630   1.746   4.325 -0.7089 -0.6134  1.0286
   86SOPE    HB 8001   6.508   1.658   4.246  2.0278 -0.2994 -0.8161
   86SOPE    C2 8002   6.430   1.829   4.366  0.4658 -0.5482 -0.0845
   86SOPE    HS 8003   6.344   1.838   4.297  1.2337 -2.5074 -1.4128
   86SOPE   O21 8004   6.485   1.953   4.410 -0.0828 -0.4464 -0.4922
   86SOPE   C21 8005   6.389   2.043   4.443  0.2727  0.4934  0.3088
   86SOPE   O22 8006   6.270   2.024   4.437  0.2243  0.5604 -0.2425
   86SOPE   C22 8007   6.455   2.174   4.474 -0.9423 -0.1544 -0.3382
   86SOPE   H2R 8008   6.401   2.269   4.455  0.9832  1.4768  1.8234
   86SOPE   H2S 8009   6.545   2.186   4.410 -0.0607  0.8279  1.0345
   86SOPE    C3 8010   6.396   1.720   4.478  0.2704 -0.5358  0.4928
   86SOPE    HX 8011   6.339   1.638   4.430 -1.4591 -2.0726  4.7365
   86SOPE    HY 8012   6.317   1.761   4.544 -1.1461 -0.7989 -0.9684
   86SOPE   O31 8013   6.511   1.667   4.545  0.7114 -0.1666 -0.4275
   86SOPE   C31 8014   6.561   1.747   4.641 -0.3200  0.2606  0.3538
   86SOPE   O32 8015   6.508   1.852   4.677  0.2760  0.3434 -0.2394
   86SOPE   C32 8016   6.691   1.681   4.700 -0.3225  0.6235  0.1502
   86SOPE   H2X 8017   6.780   1.746   4.690  0.3225 -0.3780 -0.7870
   86SOPE   H2Y 8018   6.713   1.586   4.648 -1.7693  0.3849 -0.0660
   86SOPE   C23 8019   6.516   2.164   4.618  0.4403  1.1101  0.6317
   86SOPE   H3R 8020   6.584   2.077   4.612 -0.1106  0.7062  0.0248
   86SOPE   H3S 8021   6.434   2.142   4.690  0.5845 -1.0313  0.2049
   86SOPE   C24 8022   6.579   2.299   4.653 -0.0780  0.9286  0.0391
   86SOPE   H4R 8023   6.663   2.318   4.582  0.5002 -0.3308  0.3538
   86SOPE   H4S 8024   6.506   2.381   4.636  0.6699  1.2002 -2.2805
   86SOPE   C25 8025   6.644   2.288   4.800  0.3320  0.6128  0.1735
   86SOPE   H5R 8026   6.729   2.217   4.788 -0.3351 -0.1084 -0.4832
   86SOPE   H5S 8027   6.682   2.386   4.835  1.3887  0.1405  0.3844
   86SOPE   C26 8028   6.540   2.227   4.891  0.2255  0.0990 -0.7044
   86SOPE   H6R 8029   6.436   2.260   4.868 -1.2492 -1.5614  2.9308
   86SOPE   H6S 8030   6.531   2.117   4.883 -1.0167 -0.0997  2.2611
   86SOPE   C27 8031   6.575   2.255   5.040  0.1447 -0.6439 -0.1413
   86SOPE   H7R 8032   6.550   2.170   5.107  2.0968  1.2172  3.2380
   86SOPE   H7S 8033   6.684   2.274   5.049  0.2999 -2.2729  2.5729
   86SOPE   C28 8034   6.498   2.374   5.087  0.7245  0.2792 -0.2399
   86SOPE   H8R 8035   6.498   2.464   5.022  2.4483  0.3186 -0.2342
   86SOPE   H8S 8036   6.389   2.353   5.092  0.2126  2.7730  2.9695
   86SOPE   C29 8037   6.543   2.404   5.233  0.2372  0.7405  0.3597
   86SOPE   H91 8038   6.621   2.481   5.243  0.8951  0.0010  1.0110
   86SOPE  C210 8039   6.500   2.343   5.343  0.0867  0.0702 -0.1958
   86SOPE  H101 8040   6.543   2.372   5.440  1.8157 -0.5360 -0.7375
   86SOPE  C211 8041   6.403   2.228   5.351  0.1597 -0.1589 -0.6998
   86SOPE  H11R 8042   6.368   2.200   5.249 -1.5192  0.0357 -0.1934
   86SOPE  H11S 8043   6.320   2.265   5.414  0.4981  2.3198 -1.6171
   86SOPE  C212 8044   6.467   2.106   5.411  0.3446  0.7372 -0.1951
   86SOPE  H12R 8045   6.559   2.080   5.355  1.3200 -0.1834  1.7308
   86SOPE  H12S 8046   6.398   2.018   5.407  0.9032  0.3372 -1.3479
   86SOPE  C213 8047   6.516   2.117   5.560  0.3594 -0.0570  0.7398
   86SOPE  H13R 8048   6.437   2.142   5.634 -0.0568 -1.8408  0.9331
   86SOPE  H13S 8049   6.594   2.195   5.570  1.1945 -1.0059  1.9961
   86SOPE  C214 8050   6.583   1.989   5.603  0.0812 -0.2031  0.2092
   86SOPE  H14R 8051   6.679   1.980   5.549  1.2281 -2.2947  2.4206
   86SOPE  H14S 8052   6.511   1.908   5.578 -3.0079  2.8402 -1.6410
   86SOPE  C215 8053   6.624   1.991   5.750 -0.4482  0.0868 -0.6417
   86SOPE  H15R 8054   6.697   2.069   5.777 -2.4056  1.5727  0.6089
   86SOPE  H15S 8055   6.669   1.892   5.776  1.7395  1.0638 -0.4681
   86SOPE  C216 8056   6.500   2.003   5.836  0.4002  0.1387  0.0220
   86SOPE  H16R 8057   6.434   1.920   5.804  0.5686  0.3624 -0.9202
   86SOPE  H16S 8058   6.444   2.097   5.817 -0.3419 -0.2393  0.2933
   86SOPE  C217 8059   6.511   1.990   5.988 -0.0105  0.8068 -1.0373
   86SOPE  H17R 8060   6.571   2.080   6.016  1.3936  0.0221 -1.4158
   86SOPE  H17S 8061   6.583   1.911   6.017 -0.3330  1.4937  2.0043
   86SOPE  C218 8062   6.380   1.987   6.065 -1.3822  0.3200  0.2881
   86SOPE  H18R 8063   6.379   1.942   6.167 -1.9665  0.5133  0.3679
   86SOPE  H18S 8064   6.306   1.930   6.007  0.5100 -0.8132 -1.1312
   86SOPE  H18T 8065   6.342   2.091   6.072  0.7229  1.1659  0.0568
   86SOPE   C33 8066   6.681   1.651   4.852  0.5266 -0.1396  0.3846
   86SOPE   H3X 8067   6.721   1.556   4.892  0.0256 -0.1823  0.8043
   86SOPE   H3Y 8068   6.570   1.653   4.865  0.1635 -3.2655 -1.2419
   86SOPE   C34 8069   6.745   1.760   4.934  0.1550 -0.1356 -0.4034
   86SOPE   H4X 8070   6.680   1.850   4.938 -1.2550 -1.1642  0.4057
   86SOPE   H4Y 8071   6.843   1.781   4.886 -0.4368 -1.6254 -2.3742
   86SOPE   C35 8072   6.768   1.724   5.076 -0.8204 -0.2193 -0.6643
   86SOPE   H5X 8073   6.869   1.680   5.089  0.0003  1.3424 -1.4487
   86SOPE   H5Y 8074   6.684   1.661   5.112  0.4499 -1.0055  1.0356
   86SOPE   C36 8075   6.782   1.853   5.165 -0.6393 -0.2610 -0.6478
   86SOPE   H6X 8076   6.681   1.900   5.156 -0.8742 -0.3618  1.0697
   86SOPE   H6Y 8077   6.855   1.922   5.117 -0.9092  1.1461  0.8556
   86SOPE   C37 8078   6.813   1.834   5.316  0.2049  0.0795 -0.0370
   86SOPE   H7X 8079   6.715   1.800   5.356  1.2917 -1.7902  1.1794
   86SOPE   H7Y 8080   6.826   1.934   5.363 -0.6327  0.0686  0.2357
   86SOPE   C38 8081   6.933   1.741   5.344  0.8076  0.0145  0.5043
   86SOPE   H8X 8082   7.025   1.784   5.300  0.7994 -1.6947 -1.3035
   86SOPE   H8Y 8083   6.913   1.646   5.290 -0.0892 -0.8400  2.2668
   86SOPE   C39 8084   6.931   1.702   5.489  0.8216  0.1177 -0.0072
   86SOPE   H9X 8085   6.825   1.675   5.507  1.2393 -0.1666  2.3634
   86SOPE   H9Y 8086   6.984   1.771   5.558  0.0229 -0.7164  1.4851
   86SOPE  C310 8087   7.004   1.566   5.509  0.6220 -0.3400 -0.1749
   86SOPE  H10X 8088   7.109   1.588   5.479  0.3246 -0.5697 -1.4583
   86SOPE  H10Y 8089   6.957   1.489   5.444 -3.6953  0.8063  1.2713
   86SOPE  C311 8090   6.988   1.518   5.651 -0.5581  0.1305  0.5906
   86SOPE  H11X 8091   6.885   1.480   5.665 -1.2652  1.9432  0.5557
   86SOPE  H11Y 8092   7.006   1.608   5.715  0.1412  0.8034 -0.5238
   86SOPE  C312 8093   7.069   1.393   5.691 -0.2783 -0.0685 -0.3604
   86SOPE  H12X 8094   7.176   1.422   5.694 -0.4951  0.7470 -0.2274
   86SOPE  H12Y 8095   7.052   1.312   5.616 -0.0972 -0.4924  0.0492
   86SOPE  C313 8096   7.039   1.348   5.837 -0.0246  0.3048  0.0118
   86SOPE  H13X 8097   6.929   1.336   5.850 -0.2238 -0.7439 -2.1199
   86SOPE  H13Y 8098   7.063   1.429   5.909 -1.6405  1.0551 -0.2450
   86SOPE  C314 8099   7.086   1.208   5.888  0.1271 -0.8565  0.1958
   86SOPE  H14X 8100   7.197   1.194   5.884  0.4268  1.4018 -1.3599
   86SOPE  H14Y 8101   7.055   1.130   5.816  0.9561 -0.5117 -0.5550
   86SOPE  C315 8102   7.014   1.172   6.019 -0.1671 -0.1372  0.7731
   86SOPE  H15X 8103   6.999   1.062   6.031 -2.1829  0.1333  1.0009
   86SOPE  H15Y 8104   6.908   1.202   6.011  0.1769  1.3035  1.3829
   86SOPE  C316 8105   7.080   1.242   6.135 -0.6405 -0.2699  0.5700
   86SOPE  H16X 8106   7.040   1.346   6.134  1.8022  0.7628  0.6324
   86SOPE  H16Y 8107   7.190   1.258   6.127 -0.5770 -0.5246  0.9014
   86SOPE  C317 8108   7.051   1.184   6.275 -0.1019 -0.4438 -0.6343
   86SOPE  H17X 8109   7.067   1.074   6.269 -0.0281 -0.4069 -1.1740
   86SOPE  H17Y 8110   6.944   1.204   6.296 -0.5410 -0.8678 -2.3503
   86SOPE  C318 8111   7.136   1.258   6.387 -0.8934  0.4792  0.1940
   86SOPE  H18X 8112   7.097   1.356   6.422  0.3422  0.8522  0.5772
   86SOPE  H18Y 8113   7.244   1.265   6.360 -0.8776 -0.2906  0.0359
   86SOPE  H18Z 8114   7.138   1.193   6.478  0.1107 -0.9452 -0.7934
   87SOPE     N 8115   4.435   6.031   3.563 -0.0855  0.2936  0.1261
   87SOPE   HN1 8116   4.529   6.015   3.604  0.5988 -1.6317 -2.0070
   87SOPE   HN2 8117   4.406   5.937   3.529 -0.0661  0.6121 -0.8046
   87SOPE   HN3 8118   4.434   6.092   3.479 -0.9170  2.9340  1.9325
   87SOPE   C12 8119   4.339   6.071   3.668  0.0837 -0.3954 -0.9579
   87SOPE  H12A 8120   4.359   6.174   3.702  1.2520 -1.5349  2.1671
   87SOPE  H12B 8121   4.356   6.004   3.754  2.8931 -0.4391 -1.4672
   87SOPE   C11 8122   4.204   6.069   3.605  0.2309  0.0602 -0.6889
   87SOPE  H11A 8123   4.130   6.102   3.681  1.1394  1.0331 -0.2152
   87SOPE  H11B 8124   4.180   5.963   3.579 -0.8510 -0.1985  1.2181
   87SOPE     P 8125   4.101   6.247   3.432 -0.0690 -0.5326  0.2106
   87SOPE   O13 8126   4.026   6.168   3.338  0.4280  0.0632  0.2211
   87SOPE   O14 8127   4.156   6.377   3.386 -0.0219  0.6346 -0.3127
   87SOPE   O12 8128   4.209   6.158   3.494  0.2930 -0.3829  0.0676
   87SOPE   O11 8129   4.006   6.279   3.560 -0.1623  0.1078  0.8075
   87SOPE    C1 8130   4.025   6.403   3.641  0.0115 -0.4672 -0.3086
   87SOPE    HA 8131   3.968   6.488   3.598  2.6527  1.1221 -0.8930
   87SOPE    HB 8132   4.131   6.430   3.654  0.0780 -0.6956 -0.3682
   87SOPE    C2 8133   3.973   6.386   3.784  0.9407 -0.6401  0.1587
   87SOPE    HS 8134   4.015   6.476   3.834 -0.3994 -0.7471  1.5589
   87SOPE   O21 8135   4.017   6.260   3.840 -0.4016  0.0377  0.7177
   87SOPE   C21 8136   4.028   6.249   3.972 -0.5784 -0.7545 -0.8932
   87SOPE   O22 8137   4.032   6.344   4.050  0.0371 -0.1628 -0.2007
   87SOPE   C22 8138   4.064   6.110   4.005  0.0968  0.4336 -0.1557
   87SOPE   H2R 8139   4.164   6.084   3.964  0.0385  2.0578 -1.4380
   87SOPE   H2S 8140   3.988   6.043   3.960 -1.1731  1.5695  0.2332
   87SOPE    C3 8141   3.823   6.409   3.789 -0.7589 -0.2547  0.6036
   87SOPE    HX 8142   3.774   6.339   3.717 -0.4180 -0.6459  0.7441
   87SOPE    HY 8143   3.804   6.514   3.759  1.1111 -0.0984 -0.1758
   87SOPE   O31 8144   3.773   6.383   3.924  0.2133  0.0070  0.2370
   87SOPE   C31 8145   3.774   6.478   4.007  0.5483 -0.0709 -0.0833
   87SOPE   O32 8146   3.811   6.588   3.988 -0.4091 -0.2251 -0.2273
   87SOPE   C32 8147   3.713   6.437   4.144 -0.1064  0.1927  0.0234
   87SOPE   H2X 8148   3.764   6.345   4.180  4.3013  2.3996  0.1032
   87SOPE   H2Y 8149   3.603   6.427   4.131 -0.1925  0.1531  0.7750
   87SOPE   C23 8150   4.064   6.085   4.160  0.1608 -0.8939 -0.3066
   87SOPE   H3R 8151   3.967   6.090   4.213  0.7771  1.6255  0.7537
   87SOPE   H3S 8152   4.137   6.147   4.216  1.3668 -0.6122 -2.0897
   87SOPE   C24 8153   4.118   5.945   4.177  0.6323  0.7313  0.0924
   87SOPE   H4R 8154   4.070   5.872   4.108 -0.4322  2.8237 -1.5140
   87SOPE   H4S 8155   4.221   5.944   4.137  0.3470  0.3718 -0.6464
   87SOPE   C25 8156   4.120   5.885   4.320  0.0156 -0.1905  0.3470
   87SOPE   H5R 8157   4.016   5.866   4.356 -0.3823 -2.2984 -1.6893
   87SOPE   H5S 8158   4.156   5.781   4.309 -0.4198 -0.3165  0.0819
   87SOPE   C26 8159   4.194   5.961   4.426  0.5984 -0.1652 -0.6560
   87SOPE   H6R 8160   4.300   5.971   4.396  0.3699  1.7171 -0.9751
   87SOPE   H6S 8161   4.156   6.066   4.423 -1.5104 -0.9234 -2.1610
   87SOPE   C27 8162   4.175   5.918   4.574  0.4077 -0.1558 -0.2075
   87SOPE   H7R 8163   4.078   5.865   4.586  0.4607 -0.2569 -0.2238
   87SOPE   H7S 8164   4.246   5.841   4.610  0.9361 -0.1434 -1.1850
   87SOPE   C28 8165   4.193   6.032   4.674 -0.2026 -0.5481 -0.1497
   87SOPE   H8R 8166   4.208   5.990   4.776 -3.4849  1.3503  1.2704
   87SOPE   H8S 8167   4.285   6.091   4.657 -0.7025  0.1641 -0.4203
   87SOPE   C29 8168   4.074   6.120   4.674 -0.0567 -0.3022 -0.1091
   87SOPE   H91 8169   4.075   6.200   4.599  2.9571  0.8331  1.0041
   87SOPE  C210 8170   3.971   6.105   4.748  0.5137  0.0138 -0.0202
   87SOPE  H101 8171   3.888   6.177   4.741 -1.9783 -2.7282 -0.3335
   87SOPE  C211 8172   3.946   5.995   4.845  0.4649 -0.2614 -0.4851
   87SOPE  H11R 8173   4.027   5.920   4.837 -0.1499 -1.0494  0.3728
   87SOPE  H11S 8174   3.849   5.943   4.827  0.2450  0.0488 -0.2128
   87SOPE  C212 8175   3.926   6.050   4.987 -0.2519 -0.0016 -0.7142
   87SOPE  H12R 8176   3.882   5.965   5.043  1.1457  0.1059  0.6302
   87SOPE  H12S 8177   3.853   6.134   4.988  0.2020  0.4755  2.0544
   87SOPE  C213 8178   4.043   6.110   5.071  0.2829  0.5495  0.3646
   87SOPE  H13R 8179   4.086   6.204   5.030  0.2678  1.1286  1.6239
   87SOPE  H13S 8180   4.135   6.047   5.067 -0.3451 -0.3213 -0.9561
   87SOPE  C214 8181   4.012   6.139   5.217 -0.5162 -0.3047  0.0259
   87SOPE  H14R 8182   4.092   6.100   5.284 -1.8317 -1.6504  0.8890
   87SOPE  H14S 8183   3.920   6.079   5.233  0.8772 -1.9565  2.5103
   87SOPE  C215 8184   3.984   6.282   5.241 -0.1070  0.4397  0.0398
   87SOPE  H15R 8185   3.919   6.321   5.158  0.3095 -0.4300 -0.7099
   87SOPE  H15S 8186   4.078   6.340   5.245  1.4780 -2.0910  2.4301
   87SOPE  C216 8187   3.912   6.302   5.373  0.0286 -0.0107  0.1044
   87SOPE  H16R 8188   3.973   6.248   5.448  1.3946 -0.2818 -1.1414
   87SOPE  H16S 8189   3.815   6.247   5.362 -0.4582  0.9649 -0.6118
   87SOPE  C217 8190   3.889   6.452   5.405  0.6204  0.5459 -0.2078
   87SOPE  H17R 8191   3.870   6.501   5.307 -0.1896 -0.0283 -0.3451
   87SOPE  H17S 8192   3.983   6.494   5.447  1.2005 -1.2475  0.3764
   87SOPE  C218 8193   3.779   6.479   5.497  0.8428  0.1837 -0.8244
   87SOPE  H18R 8194   3.765   6.582   5.535 -4.4502 -0.4126 -0.4518
   87SOPE  H18S 8195   3.808   6.430   5.593  1.4100  0.7653 -0.6934
   87SOPE  H18T 8196   3.678   6.448   5.464  1.2168  0.8954 -2.7561
   87SOPE   C33 8197   3.719   6.546   4.252 -0.3778 -0.4148 -0.1056
   87SOPE   H3X 8198   3.652   6.628   4.219 -0.9690 -0.2050  1.5700
   87SOPE   H3Y 8199   3.826   6.576   4.264 -0.4388  0.0129 -0.5844
   87SOPE   C34 8200   3.663   6.494   4.391 -0.4486  0.1250  0.0222
   87SOPE   H4X 8201   3.733   6.411   4.415  0.6548  1.0248  0.0108
   87SOPE   H4Y 8202   3.563   6.448   4.378  0.2742 -1.0395 -2.0242
   87SOPE   C35 8203   3.658   6.601   4.504 -0.4665 -0.0319 -0.7483
   87SOPE   H5X 8204   3.572   6.670   4.489 -0.3686  0.2196 -0.1460
   87SOPE   H5Y 8205   3.752   6.660   4.502 -1.6235  1.9451 -0.1305
   87SOPE   C36 8206   3.657   6.529   4.643 -0.3540  0.3208 -0.0971
   87SOPE   H6X 8207   3.753   6.479   4.665 -0.8751  0.3952  2.6628
   87SOPE   H6Y 8208   3.575   6.455   4.633  1.6091 -1.7128 -2.1798
   87SOPE   C37 8209   3.625   6.632   4.755  0.2742 -0.3965 -0.5570
   87SOPE   H7X 8210   3.520   6.662   4.736  0.0254 -2.1811 -2.5081
   87SOPE   H7Y 8211   3.699   6.715   4.750  0.1502 -0.3193 -1.3868
   87SOPE   C38 8212   3.626   6.561   4.894 -0.4295 -0.1042  0.1204
   87SOPE   H8X 8213   3.725   6.513   4.908  0.1003  0.6127 -0.9607
   87SOPE   H8Y 8214   3.550   6.481   4.883 -0.1991 -0.3113  0.0329
   87SOPE   C39 8215   3.584   6.645   5.014  0.3965 -0.9956  0.6159
   87SOPE   H9X 8216   3.476   6.671   5.008  1.0163  1.9684  0.8398
   87SOPE   H9Y 8217   3.634   6.743   5.006 -0.9710 -0.3500 -0.5527
   87SOPE  C310 8218   3.613   6.590   5.149 -0.8621 -0.1850 -0.7291
   87SOPE  H10X 8219   3.719   6.556   5.149 -0.1228  2.0140 -1.0464
   87SOPE  H10Y 8220   3.559   6.494   5.169  1.9877 -1.1402  4.2986
   87SOPE  C311 8221   3.572   6.677   5.273  0.2012 -0.4688 -0.1053
   87SOPE  H11X 8222   3.578   6.611   5.362 -1.3633 -0.4272  0.0689
   87SOPE  H11Y 8223   3.465   6.698   5.251  0.5201  1.8327  0.2704
   87SOPE  C312 8224   3.657   6.805   5.292 -0.2347 -0.7406  0.1175
   87SOPE  H12X 8225   3.634   6.864   5.201 -0.4534 -1.5888 -0.3930
   87SOPE  H12Y 8226   3.765   6.781   5.301 -0.1159  0.0143  0.7460
   87SOPE  C313 8227   3.618   6.889   5.413 -0.0307  0.4027  0.3491
   87SOPE  H13X 8228   3.509   6.892   5.431 -0.2076  2.2113 -0.8225
   87SOPE  H13Y 8229   3.648   6.995   5.399 -0.2116  0.2492 -1.4760
   87SOPE  C314 8230   3.679   6.846   5.550  0.3450  0.0754 -0.1093
   87SOPE  H14X 8231   3.789   6.834   5.540  0.2748 -0.4043 -0.3132
   87SOPE  H14Y 8232   3.641   6.743   5.561 -0.7959  0.3396 -1.3391
   87SOPE  C315 8233   3.629   6.933   5.664 -0.6280  0.9943 -0.2892
   87SOPE  H15X 8234   3.521   6.942   5.641 -0.4481  0.1486 -1.5594
   87SOPE  H15Y 8235   3.674   7.033   5.681  1.4560 -0.0501  0.6707
   87SOPE  C316 8236   3.644   6.875   5.804  0.5385  0.6467  0.4615
   87SOPE  H16X 8237   3.622   6.966   5.864 -1.9043  0.0378  0.5967
   87SOPE  H16Y 8238   3.742   6.832   5.833 -0.6011 -2.2378  0.3576
   87SOPE  C317 8239   3.531   6.775   5.840  0.3417 -0.5238  0.2357
   87SOPE  H17X 8240   3.562   6.677   5.799 -1.1777 -0.6565 -0.6612
   87SOPE  H17Y 8241   3.438   6.783   5.780 -0.1731 -1.1361  0.9368
   87SOPE  C318 8242   3.491   6.760   5.983 -0.1982  0.3807  0.1832
   87SOPE  H18X 8243   3.446   6.852   6.027  1.9947  1.0673  1.1604
   87SOPE  H18Y 8244   3.572   6.726   6.052 -1.2000  0.6082  1.5096
   87SOPE  H18Z 8245   3.417   6.678   5.992  0.2792 -0.1643 -0.7355
   88SOPE     N 8246   5.145   4.227   3.584 -0.3215 -0.4162 -0.2862
   88SOPE   HN1 8247   5.196   4.142   3.552 -3.4570 -1.4275 -3.2491
   88SOPE   HN2 8248   5.043   4.208   3.588 -0.7335  1.5629 -0.1235
   88SOPE   HN3 8249   5.165   4.308   3.521  0.2606 -0.1287  0.2598
   88SOPE   C12 8250   5.192   4.268   3.721 -0.8106  0.3257  0.5422
   88SOPE  H12A 8251   5.268   4.190   3.747  0.0340  0.6785 -0.8053
   88SOPE  H12B 8252   5.110   4.268   3.796 -0.9062 -0.1923  0.4445
   88SOPE   C11 8253   5.273   4.404   3.712 -0.5061  0.0768 -0.7284
   88SOPE  H11A 8254   5.322   4.423   3.809 -0.3222  0.9680 -0.9865
   88SOPE  H11B 8255   5.200   4.486   3.699  0.7925  1.1403 -1.5096
   88SOPE     P 8256   5.506   4.344   3.600  0.1471 -0.0668 -0.0739
   88SOPE   O13 8257   5.602   4.455   3.568  0.0105  0.0714 -0.5441
   88SOPE   O14 8258   5.498   4.227   3.511 -0.5857  0.3733 -0.1102
   88SOPE   O12 8259   5.367   4.411   3.608 -1.1629  0.5169 -0.2080
   88SOPE   O11 8260   5.520   4.284   3.747  0.0878 -0.5573  0.1473
   88SOPE    C1 8261   5.611   4.342   3.840 -0.5007  0.1160 -0.3390
   88SOPE    HA 8262   5.592   4.451   3.828  0.7870  0.2857 -1.0510
   88SOPE    HB 8263   5.714   4.331   3.800  0.4986  4.8464  0.2411
   88SOPE    C2 8264   5.590   4.294   3.984  0.6513 -0.2069  0.0432
   88SOPE    HS 8265   5.635   4.193   3.989  1.4610  0.1015 -0.8348
   88SOPE   O21 8266   5.450   4.286   4.003  0.8848  0.0268 -0.1780
   88SOPE   C21 8267   5.412   4.196   4.100  0.2371  0.6544  0.1165
   88SOPE   O22 8268   5.493   4.134   4.165  0.7363 -0.0196  0.3735
   88SOPE   C22 8269   5.264   4.198   4.114  0.7825  0.3941 -0.2145
   88SOPE   H2R 8270   5.222   4.182   4.012 -0.5563  2.8489 -0.1232
   88SOPE   H2S 8271   5.219   4.291   4.156 -0.5415 -0.1522 -0.3800
   88SOPE    C3 8272   5.667   4.387   4.090 -0.1457  0.1983  0.2136
   88SOPE    HX 8273   5.649   4.496   4.096 -1.7910 -0.0825  0.6988
   88SOPE    HY 8274   5.771   4.387   4.049  0.1707 -1.2571  0.9528
   88SOPE   O31 8275   5.678   4.333   4.223  0.3255  0.0371 -0.1689
   88SOPE   C31 8276   5.600   4.392   4.316  0.0725  0.5102 -0.1416
   88SOPE   O32 8277   5.544   4.499   4.305  0.3872  0.3375  0.3594
   88SOPE   C32 8278   5.617   4.310   4.445 -0.2511 -0.2568  0.0632
   88SOPE   H2X 8279   5.720   4.270   4.456 -0.1553 -0.3678 -1.1726
   88SOPE   H2Y 8280   5.552   4.221   4.446  1.4562 -1.5594 -0.6156
   88SOPE   C23 8281   5.228   4.081   4.207 -0.3094 -0.2620 -0.3632
   88SOPE   H3R 8282   5.271   3.987   4.166  2.5306 -0.1015  1.9722
   88SOPE   H3S 8283   5.120   4.066   4.184 -0.1868 -0.7531 -0.6309
   88SOPE   C24 8284   5.233   4.111   4.351  0.2114  0.6391 -0.1153
   88SOPE   H4R 8285   5.336   4.148   4.367 -0.1486  1.2770  0.8555
   88SOPE   H4S 8286   5.175   4.203   4.375 -1.4259  0.0056 -1.4617
   88SOPE   C25 8287   5.187   3.990   4.442 -0.1263 -0.3240 -0.0489
   88SOPE   H5R 8288   5.081   3.967   4.415 -1.2411  0.3550  3.3115
   88SOPE   H5S 8289   5.250   3.902   4.417 -1.5343 -1.7486  1.2228
   88SOPE   C26 8290   5.202   4.030   4.589  0.2418  0.0653  0.3743
   88SOPE   H6R 8291   5.303   4.076   4.595 -0.0286  0.9679 -1.4135
   88SOPE   H6S 8292   5.120   4.101   4.616  0.1061  0.2761 -0.5629
   88SOPE   C27 8293   5.192   3.906   4.690 -0.4659  0.0598 -0.2111
   88SOPE   H7R 8294   5.250   3.823   4.643 -0.3390  0.8533 -1.5002
   88SOPE   H7S 8295   5.234   3.928   4.790  1.5461  0.5920 -1.1375
   88SOPE   C28 8296   5.042   3.876   4.721 -0.0295 -0.7105 -0.3286
   88SOPE   H8R 8297   4.983   3.966   4.749 -0.5786 -0.1364 -3.0054
   88SOPE   H8S 8298   5.002   3.826   4.630 -1.7821  1.9790 -1.1633
   88SOPE   C29 8299   5.029   3.785   4.835  0.4363  0.3483 -0.1007
   88SOPE   H91 8300   5.101   3.702   4.831 -1.7320 -1.6109 -2.9498
   88SOPE  C210 8301   4.953   3.785   4.947 -0.3553  0.3847 -0.1317
   88SOPE  H101 8302   4.976   3.714   5.027  0.8459 -0.0555 -0.8400
   88SOPE  C211 8303   4.847   3.886   4.982 -0.0205  0.0580 -0.1651
   88SOPE  H11R 8304   4.794   3.943   4.903 -0.7016  1.4136  1.2065
   88SOPE  H11S 8305   4.888   3.970   5.043 -1.2843  0.9956 -0.5594
   88SOPE  C212 8306   4.737   3.818   5.070 -0.6283  0.4136 -0.1469
   88SOPE  H12R 8307   4.667   3.892   5.115  0.0545  0.3642  1.0340
   88SOPE  H12S 8308   4.782   3.763   5.155 -0.9387  0.8051  0.2757
   88SOPE  C213 8309   4.640   3.717   4.989  0.0232  0.0599 -0.1908
   88SOPE  H13R 8310   4.701   3.631   4.957  0.7745 -0.1980  1.7668
   88SOPE  H13S 8311   4.591   3.759   4.899 -1.8041 -2.0711 -0.2751
   88SOPE  C214 8312   4.527   3.671   5.083  0.0890  0.1112  0.1182
   88SOPE  H14R 8313   4.497   3.568   5.052 -1.6691  0.7061 -0.2855
   88SOPE  H14S 8314   4.442   3.739   5.063 -0.2765 -0.4000 -0.0942
   88SOPE  C215 8315   4.547   3.665   5.239  0.3565  0.8882 -0.6648
   88SOPE  H15R 8316   4.576   3.765   5.277 -0.2822  0.4403  1.1101
   88SOPE  H15S 8317   4.634   3.601   5.267  0.3820  1.2247  0.0341
   88SOPE  C216 8318   4.432   3.607   5.318  0.0579 -0.0280  0.3774
   88SOPE  H16R 8319   4.461   3.589   5.423 -0.0544  1.4768  0.6987
   88SOPE  H16S 8320   4.418   3.509   5.269 -1.2651  0.3218  0.0245
   88SOPE  C217 8321   4.307   3.690   5.324 -0.5424 -0.6055 -0.0830
   88SOPE  H17R 8322   4.237   3.656   5.403 -0.0437 -1.0805  0.1615
   88SOPE  H17S 8323   4.251   3.684   5.228 -1.6128  0.0863  0.4722
   88SOPE  C218 8324   4.332   3.834   5.365 -1.2336 -0.6284  0.5244
   88SOPE  H18R 8325   4.374   3.898   5.284 -2.0825  0.5553  0.9954
   88SOPE  H18S 8326   4.399   3.834   5.454 -0.8218 -0.7879  0.2198
   88SOPE  H18T 8327   4.240   3.887   5.397  0.1110  2.7216 -0.6896
   88SOPE   C33 8328   5.592   4.399   4.569  0.0317 -0.4531 -1.1683
   88SOPE   H3X 8329   5.540   4.491   4.534  1.4278 -0.2357 -2.7589
   88SOPE   H3Y 8330   5.690   4.440   4.601 -0.8216  0.9403 -0.1932
   88SOPE   C34 8331   5.504   4.334   4.673  0.4631 -0.0832  0.3227
   88SOPE   H4X 8332   5.543   4.255   4.741 -1.2985 -0.3921  1.0291
   88SOPE   H4Y 8333   5.423   4.284   4.617  0.2389  1.8503 -1.1721
   88SOPE   C35 8334   5.436   4.441   4.771 -0.7806  0.3327  0.0925
   88SOPE   H5X 8335   5.364   4.498   4.709 -1.7416 -1.6869 -0.7279
   88SOPE   H5Y 8336   5.511   4.510   4.816  1.4207 -1.1403 -1.1362
   88SOPE   C36 8337   5.364   4.370   4.886 -0.4354  0.9166 -0.3751
   88SOPE   H6X 8338   5.324   4.448   4.954  0.5521 -1.0394  2.7010
   88SOPE   H6Y 8339   5.444   4.313   4.939  1.1499  1.9753 -1.5321
   88SOPE   C37 8340   5.240   4.282   4.851 -0.0691  0.1962 -0.2167
   88SOPE   H7X 8341   5.271   4.202   4.781 -0.3963 -0.9279  0.8719
   88SOPE   H7Y 8342   5.167   4.350   4.802 -2.1535  1.0223  3.6255
   88SOPE   C38 8343   5.172   4.209   4.968 -0.1785  0.2885  0.0782
   88SOPE   H8X 8344   5.083   4.152   4.936  0.6589  0.4739 -2.8641
   88SOPE   H8Y 8345   5.126   4.292   5.026  0.2471  0.7405 -0.2190
   88SOPE   C39 8346   5.261   4.125   5.070  0.4278  0.2796  0.1368
   88SOPE   H9X 8347   5.362   4.170   5.076 -0.0241  1.4513 -0.6463
   88SOPE   H9Y 8348   5.272   4.021   5.032  0.7994  0.4591 -0.2493
   88SOPE  C310 8349   5.209   4.128   5.213  0.6533  0.6227  0.6299
   88SOPE  H10X 8350   5.219   4.228   5.260  1.4402  0.9735 -0.2559
   88SOPE  H10Y 8351   5.287   4.063   5.259  2.2167  1.5211 -0.6390
   88SOPE  C311 8352   5.069   4.066   5.223 -0.3422 -0.4015 -1.4731
   88SOPE  H11X 8353   5.057   3.981   5.152  0.0072 -0.7786 -1.0834
   88SOPE  H11Y 8354   4.989   4.139   5.199 -1.2763 -0.0541  2.1658
   88SOPE  C312 8355   5.027   4.037   5.372 -0.7707  0.2018 -0.4510
   88SOPE  H12X 8356   5.046   4.131   5.429  0.2791 -0.2815  0.0184
   88SOPE  H12Y 8357   5.103   3.970   5.418 -1.4685  1.1113  2.2037
   88SOPE  C313 8358   4.882   3.981   5.387  0.3855  0.2712  1.0529
   88SOPE  H13X 8359   4.875   3.890   5.325 -0.7141  1.6007 -0.9047
   88SOPE  H13Y 8360   4.806   4.048   5.341 -0.8952 -0.0870  2.5435
   88SOPE  C314 8361   4.833   3.953   5.528  0.4519  0.0571  0.0971
   88SOPE  H14X 8362   4.821   4.051   5.579 -0.7134 -0.8973  1.7587
   88SOPE  H14Y 8363   4.892   3.878   5.585 -0.2125  0.1887  0.9807
   88SOPE  C315 8364   4.677   3.904   5.516 -0.1912 -0.4763 -0.4870
   88SOPE  H15X 8365   4.669   3.802   5.473 -0.6333 -1.4035  1.6709
   88SOPE  H15Y 8366   4.623   3.965   5.440  1.7532  0.7859 -0.9474
   88SOPE  C316 8367   4.607   3.908   5.652 -0.9104 -0.1419  0.6570
   88SOPE  H16X 8368   4.496   3.910   5.649 -1.0216  1.3353  3.1061
   88SOPE  H16Y 8369   4.639   3.999   5.708  0.0934 -0.7713  1.1412
   88SOPE  C317 8370   4.642   3.787   5.751  0.0417 -0.0486  0.0529
   88SOPE  H17X 8371   4.586   3.806   5.846 -0.3534  0.9547 -0.3599
   88SOPE  H17Y 8372   4.752   3.788   5.766  0.3176  0.4267 -1.7255
   88SOPE  C318 8373   4.594   3.654   5.692  0.1896 -0.5387  0.4222
   88SOPE  H18X 8374   4.658   3.638   5.603 -0.6648 -0.4153 -0.2343
   88SOPE  H18Y 8375   4.485   3.652   5.669  0.4714  2.9532 -2.0091
   88SOPE  H18Z 8376   4.616   3.568   5.758 -0.2108 -0.3751  0.7761
   89SAPC     N 8377   4.976   1.009   8.283  0.4438  0.1567 -0.2968
   89SAPC   C12 8378   5.006   0.964   8.138  0.2609 -0.2862  0.2076
   89SAPC  H12A 8379   4.972   1.039   8.067  1.6351  0.3474  0.1796
   89SAPC  H12B 8380   4.941   0.883   8.109 -1.4334  1.4470 -1.1296
   89SAPC   C13 8381   5.079   0.950   8.372  0.1615  0.9385 -0.1476
   89SAPC  H13A 8382   5.173   0.973   8.324 -0.9757  1.8870 -2.0540
   89SAPC  H13B 8383   5.082   1.001   8.468 -0.9345  2.9577 -1.1305
   89SAPC  H13C 8384   5.064   0.845   8.387 -1.5251  1.4572  2.5454
   89SAPC   C14 8385   4.996   1.155   8.295 -0.3495  0.6363 -0.4881
   89SAPC  H14A 8386   4.933   1.213   8.229  3.2948  1.7729 -3.2816
   89SAPC  H14B 8387   4.987   1.191   8.396  1.1662 -2.6602  0.9570
   89SAPC  H14C 8388   5.097   1.178   8.264 -0.2634  0.6229 -0.2130
   89SAPC   C15 8389   4.850   0.965   8.327 -0.1145 -0.8326 -0.1971
   89SAPC  H15A 8390   4.774   1.008   8.264  0.4671 -0.7603 -0.8701
   89SAPC  H15B 8391   4.835   0.859   8.338 -0.7900 -0.8028 -0.7625
   89SAPC  H15C 8392   4.824   1.002   8.425 -1.4610 -2.2233  0.0134
   89SAPC   C11 8393   5.158   0.940   8.100  0.3208 -0.2302 -0.0442
   89SAPC  H11A 8394   5.171   0.946   7.990  0.8968  2.1117  0.1078
   89SAPC  H11B 8395   5.176   0.834   8.132 -0.6177 -0.2671  0.3892
   89SAPC     P 8396   5.404   1.026   8.170  0.0166 -0.0945 -0.0317
   89SAPC   O13 8397   5.457   1.144   8.244  0.0394  0.6558 -0.1231
   89SAPC   O14 8398   5.447   0.895   8.228 -0.2111 -0.1795 -0.3736
   89SAPC   O12 8399   5.239   1.040   8.163 -0.7014  0.3669  0.0751
   89SAPC   O11 8400   5.449   1.015   8.021 -0.6817  0.2723 -0.7581
   89SAPC    C1 8401   5.450   1.135   7.943 -0.0985  0.4780 -0.7801
   89SAPC    HA 8402   5.361   1.199   7.962 -0.8051  0.0058 -2.3307
   89SAPC    HB 8403   5.530   1.196   7.991  0.6625 -1.2722  0.2502
   89SAPC    C2 8404   5.470   1.102   7.795 -0.2868  0.5189  0.2449
   89SAPC    HS 8405   5.572   1.060   7.780 -0.5996 -0.1599 -0.0698
   89SAPC   O21 8406   5.456   1.217   7.715 -0.3582 -0.9086 -0.1433
   89SAPC   C21 8407   5.495   1.205   7.587  0.3818  0.2487  0.3669
   89SAPC   O22 8408   5.579   1.127   7.546 -0.5160  0.4260 -0.3383
   89SAPC   C22 8409   5.434   1.318   7.496  0.7364 -0.0821 -0.0161
   89SAPC   H2R 8410   5.331   1.352   7.522  0.7921  1.1834 -1.2857
   89SAPC   H2S 8411   5.499   1.406   7.514  1.3836 -0.0852 -2.1026
   89SAPC    C3 8412   5.370   0.992   7.761 -0.1351  0.6725 -0.0017
   89SAPC    HX 8413   5.279   1.051   7.737 -0.1962  0.3630 -0.5702
   89SAPC    HY 8414   5.344   0.917   7.839  1.2266  1.4851  1.2832
   89SAPC   O31 8415   5.397   0.935   7.631  0.1739  0.2660 -0.6427
   89SAPC   C31 8416   5.485   0.831   7.632  0.4597  0.2241 -0.0068
   89SAPC   O32 8417   5.537   0.797   7.734 -0.0918  0.3330 -0.1160
   89SAPC   C32 8418   5.497   0.765   7.493  0.4725  0.4455 -0.3556
   89SAPC   H2X 8419   5.544   0.840   7.427  1.4198 -0.1742 -0.3937
   89SAPC   H2Y 8420   5.389   0.745   7.472  0.2733 -0.1478  1.0580
   89SAPC   C23 8421   5.442   1.281   7.351  0.4736 -0.0553 -0.0014
   89SAPC   H3R 8422   5.408   1.175   7.352  1.2073 -0.3340 -1.8765
   89SAPC   H3S 8423   5.547   1.276   7.318  0.3160  1.4746 -0.8138
   89SAPC   C24 8424   5.336   1.363   7.272 -0.2835 -0.8972  0.1572
   89SAPC   H4R 8425   5.379   1.464   7.257  1.0432 -1.3890  0.4954
   89SAPC   H4S 8426   5.249   1.364   7.341  0.4607  0.1600  1.1186
   89SAPC   C25 8427   5.302   1.295   7.144 -0.5325  0.1878 -0.0340
   89SAPC   H5R 8428   5.244   1.202   7.153  0.4768 -0.5031 -0.5021
   89SAPC   C26 8429   5.327   1.346   7.024 -0.1975  0.3655  0.6467
   89SAPC   H6R 8430   5.277   1.310   6.934  1.4854 -0.3016 -0.0578
   89SAPC   C27 8431   5.405   1.465   7.000 -0.0226 -0.5024 -0.1193
   89SAPC   H7R 8432   5.454   1.461   6.900 -1.4323 -1.3656 -0.8020
   89SAPC   H7S 8433   5.490   1.466   7.073 -1.0734 -2.9953  1.2814
   89SAPC   C28 8434   5.314   1.590   7.019  0.4246  0.1725  0.0273
   89SAPC   H8R 8435   5.209   1.579   7.051 -0.0590 -0.5958 -1.6825
   89SAPC   C29 8436   5.362   1.713   7.003 -0.1175 -0.5455  0.2245
   89SAPC   H9R 8437   5.296   1.798   7.023 -0.8939 -1.2540  0.7090
   89SAPC  C210 8438   5.501   1.753   6.967 -0.4357 -0.5980 -0.1874
   89SAPC  H10R 8439   5.562   1.665   6.937 -0.8041 -0.2550 -2.1301
   89SAPC  H10S 8440   5.547   1.791   7.060  3.0387 -0.8490 -1.6347
   89SAPC  C211 8441   5.510   1.865   6.864 -0.1343 -0.6622  0.0539
   89SAPC  H11R 8442   5.434   1.944   6.871  0.1587 -0.4485  1.1040
   89SAPC  C212 8443   5.603   1.886   6.768  0.7523  0.1946  0.1528
   89SAPC  H12R 8444   5.586   1.976   6.707  0.6493  0.1277  0.0829
   89SAPC  C213 8445   5.717   1.792   6.740  0.4571  0.3651  0.2004
   89SAPC  H13R 8446   5.700   1.701   6.802  0.2677  0.6537  0.5761
   89SAPC  H13S 8447   5.810   1.843   6.772  1.1950 -2.3096  2.7306
   89SAPC  C214 8448   5.731   1.747   6.597  0.4871  0.0531 -0.1535
   89SAPC  H14R 8449   5.834   1.770   6.565  0.6340  1.3207  1.1362
   89SAPC  C215 8450   5.654   1.671   6.519 -0.4179 -1.0933  0.6644
   89SAPC  H15R 8451   5.692   1.658   6.417  1.3892  0.5450  1.0643
   89SAPC  C216 8452   5.518   1.626   6.552  0.5106  0.3030 -0.3950
   89SAPC  H16R 8453   5.469   1.690   6.629  0.5838  0.1603 -0.2309
   89SAPC  H16S 8454   5.518   1.523   6.595 -0.8140  0.2638 -0.4303
   89SAPC  C217 8455   5.420   1.623   6.440  0.3805  0.3996 -0.3170
   89SAPC  H17R 8456   5.418   1.717   6.381  2.9067 -0.7074 -2.3621
   89SAPC  H17S 8457   5.320   1.593   6.479  0.9301 -0.1312  0.7293
   89SAPC  C218 8458   5.452   1.507   6.344 -0.2407  0.3337 -0.5451
   89SAPC  H18R 8459   5.486   1.419   6.403 -1.2412 -0.7648 -1.5279
   89SAPC  H18S 8460   5.534   1.538   6.276  2.3986 -1.2082  1.7379
   89SAPC  C219 8461   5.330   1.460   6.265  0.6466 -0.1455 -0.3217
   89SAPC  H19R 8462   5.310   1.540   6.190 -0.3564 -1.4942 -1.5466
   89SAPC  H19S 8463   5.247   1.445   6.338  1.2948  0.9307  0.6632
   89SAPC  C220 8464   5.342   1.328   6.191  0.0283 -0.2748 -0.1414
   89SAPC  H20R 8465   5.360   1.242   6.259  1.5875  0.9866  1.1264
   89SAPC  H20S 8466   5.434   1.356   6.136  1.1418  2.2140  2.7356
   89SAPC  H20T 8467   5.255   1.307   6.126 -0.2107 -3.0457  0.9042
   89SAPC   C33 8468   5.573   0.630   7.487  0.2530  0.6502 -0.6718
   89SAPC   H3X 8469   5.608   0.593   7.586  0.3507 -1.8606 -1.5532
   89SAPC   H3Y 8470   5.661   0.653   7.424  1.7403  1.3339  1.5439
   89SAPC   C34 8471   5.486   0.509   7.433 -0.9196  0.0728 -0.2820
   89SAPC   H4X 8472   5.417   0.544   7.354  0.1234  2.4867 -0.2233
   89SAPC   H4Y 8473   5.426   0.468   7.517  0.0569  0.6354  0.7174
   89SAPC   C35 8474   5.579   0.391   7.391  0.4569  0.9277 -0.1497
   89SAPC   H5X 8475   5.641   0.363   7.479 -0.0177  3.4229  1.0528
   89SAPC   H5Y 8476   5.642   0.423   7.305  1.8361  0.1568  0.5332
   89SAPC   C36 8477   5.491   0.271   7.343 -0.8278 -0.3846  0.3162
   89SAPC   H6X 8478   5.395   0.312   7.305 -0.4341 -1.0390 -1.5075
   89SAPC   H6Y 8479   5.473   0.195   7.423  2.3596 -2.6633 -0.8973
   89SAPC   C37 8480   5.559   0.187   7.233  0.5790 -0.2094  0.0956
   89SAPC   H7X 8481   5.645   0.145   7.290 -0.3395 -1.8539  0.3370
   89SAPC   H7Y 8482   5.604   0.244   7.149 -0.9342 -1.1930 -1.4352
   89SAPC   C38 8483   5.465   0.083   7.171  0.5657  1.1916 -0.0161
   89SAPC   H8X 8484   5.392   0.037   7.241 -0.3160  2.6550  0.0637
   89SAPC   H8Y 8485   5.532   0.007   7.125 -0.1492 -0.6608  1.8366
   89SAPC   C39 8486   5.382   0.138   7.051 -0.0854 -0.2765 -0.0617
   89SAPC   H9X 8487   5.443   0.181   6.969 -1.5188 -0.4798 -1.2771
   89SAPC   H9Y 8488   5.322   0.218   7.100 -1.7412  0.0864 -2.4904
   89SAPC  C310 8489   5.307   0.030   6.973 -0.3679  0.2489 -0.0231
   89SAPC  H10X 8490   5.233  -0.018   7.040  1.2289  0.6094  2.1123
   89SAPC  H10Y 8491   5.383  -0.046   6.941 -2.7779 -1.8925 -1.0193
   89SAPC  C311 8492   5.241   0.083   6.846 -0.8609  0.2751 -0.9764
   89SAPC  H11X 8493   5.322   0.148   6.807 -0.7244  1.1922  0.7570
   89SAPC  H11Y 8494   5.156   0.149   6.874  0.6185  0.9639  2.3209
   89SAPC  C312 8495   5.213  -0.028   6.747 -0.6275  0.0896  1.0110
   89SAPC  H12X 8496   5.149  -0.108   6.792  0.1876 -0.7795  0.6678
   89SAPC  H12Y 8497   5.300  -0.081   6.701 -0.9205  1.5019 -1.3441
   89SAPC  C313 8498   5.133   0.017   6.615 -0.1100 -0.2794  0.0848
   89SAPC  H13X 8499   5.045   0.072   6.656 -0.1617  0.5849 -1.1230
   89SAPC  H13Y 8500   5.108  -0.077   6.562  0.1115 -1.0866  1.3701
   89SAPC  C314 8501   5.222   0.100   6.524  0.0088  0.0657  0.5234
   89SAPC  H14X 8502   5.314   0.049   6.487  0.2624  0.7962  0.1213
   89SAPC  H14Y 8503   5.264   0.185   6.581 -0.7751  1.7506 -1.2890
   89SAPC  C315 8504   5.145   0.163   6.407 -0.2058 -0.0396 -0.6662
   89SAPC  H15X 8505   5.063   0.225   6.449 -1.3626 -1.5885 -0.5522
   89SAPC  H15Y 8506   5.090   0.082   6.355  0.0433 -1.1842  0.7910
   89SAPC  C316 8507   5.232   0.246   6.318 -0.4955 -0.3178 -0.7700
   89SAPC  H16X 8508   5.334   0.207   6.337 -0.0705  0.6860 -0.9405
   89SAPC  H16Y 8509   5.229   0.348   6.362  1.5580 -0.5405  0.0039
   89SAPC  C317 8510   5.190   0.258   6.171  0.3221 -0.0531 -0.0085
   89SAPC  H17X 8511   5.185   0.152   6.138 -3.6997 -0.9481  2.7626
   89SAPC  H17Y 8512   5.269   0.322   6.127 -2.1976  3.0310 -0.3882
   89SAPC  C318 8513   5.053   0.328   6.166 -0.4441  0.5788 -0.0902
   89SAPC  H18X 8514   5.055   0.430   6.210 -1.3332  0.8106 -0.5811
   89SAPC  H18Y 8515   4.976   0.269   6.220  0.1402 -1.3198 -1.2413
   89SAPC  H18Z 8516   5.013   0.333   6.063  0.3353 -2.2231 -0.6245
   90SAPC     N 8517   3.286   1.106   8.441  0.2569  0.0289 -0.9507
   90SAPC   C12 8518   3.265   1.122   8.297 -0.4340  0.1337 -0.4342
   90SAPC  H12A 8519   3.301   1.032   8.249  3.1134  2.1082 -1.8925
   90SAPC  H12B 8520   3.317   1.212   8.268 -0.9443  0.5857  0.0318
   90SAPC   C13 8521   3.434   1.106   8.469  0.0798  0.2641 -0.3682
   90SAPC  H13A 8522   3.483   1.202   8.473 -0.0744  0.3285  2.9509
   90SAPC  H13B 8523   3.445   1.062   8.568 -2.0652  1.0808  0.3008
   90SAPC  H13C 8524   3.470   1.043   8.389 -0.5969 -1.0960  0.3497
   90SAPC   C14 8525   3.218   1.222   8.522  0.1291  0.1929 -0.0926
   90SAPC  H14A 8526   3.254   1.208   8.622 -1.2646 -0.0544  0.4023
   90SAPC  H14B 8527   3.234   1.324   8.489  0.1381  0.5465  0.9771
   90SAPC  H14C 8528   3.111   1.207   8.513  0.1867 -0.2300 -0.1115
   90SAPC   C15 8529   3.218   0.978   8.488 -0.3880 -0.3212 -0.0087
   90SAPC  H15A 8530   3.115   0.997   8.462 -0.3961 -1.5285 -0.9825
   90SAPC  H15B 8531   3.250   0.898   8.422  1.9829  0.6107 -0.0576
   90SAPC  H15C 8532   3.236   0.951   8.591  1.2736 -0.1460 -0.2288
   90SAPC   C11 8533   3.118   1.137   8.241  0.0237 -0.4090 -0.2559
   90SAPC  H11A 8534   3.135   1.130   8.132  1.6076  0.2625 -0.0872
   90SAPC  H11B 8535   3.090   1.242   8.267  2.4194  0.2879 -0.2282
   90SAPC     P 8536   2.880   1.050   8.211 -0.5978 -0.1512 -0.2642
   90SAPC   O13 8537   2.792   0.948   8.272 -0.9588  0.1269 -0.4832
   90SAPC   O14 8538   2.817   1.182   8.205 -0.2463  0.6674 -0.4791
   90SAPC   O12 8539   3.022   1.039   8.282 -0.0537 -0.0101  0.1692
   90SAPC   O11 8540   2.907   1.010   8.060 -0.0090 -0.2813 -0.3764
   90SAPC    C1 8541   3.016   0.920   8.021  0.2924 -0.0524  0.5708
   90SAPC    HA 8542   3.111   0.975   8.006 -1.0600  2.3894  0.3127
   90SAPC    HB 8543   3.031   0.845   8.101 -2.6442 -0.0642  1.2474
   90SAPC    C2 8544   2.969   0.856   7.885 -0.2992 -0.3017 -0.2254
   90SAPC    HS 8545   2.895   0.774   7.896  1.0288 -1.3706  1.3453
   90SAPC   O21 8546   3.098   0.805   7.833  0.3173  0.0611 -0.1229
   90SAPC   C21 8547   3.134   0.685   7.875  0.3526 -0.1458 -1.0234
   90SAPC   O22 8548   3.054   0.610   7.936  0.2340  0.1261  0.0481
   90SAPC   C22 8549   3.268   0.643   7.823 -0.0007 -0.2267 -0.0688
   90SAPC   H2R 8550   3.279   0.539   7.862  1.3009  1.5975  5.2765
   90SAPC   H2S 8551   3.268   0.641   7.712  1.7520  0.1563 -0.1062
   90SAPC    C3 8552   2.921   0.962   7.784  0.3759  0.1423  0.1814
   90SAPC    HX 8553   3.003   1.032   7.755 -1.0983  2.3032  1.0362
   90SAPC    HY 8554   2.838   1.019   7.830  1.1996  0.6843  1.0370
   90SAPC   O31 8555   2.874   0.902   7.667  0.5987 -0.0964  0.4771
   90SAPC   C31 8556   2.942   0.915   7.547  0.3153  0.1227 -0.5196
   90SAPC   O32 8557   3.045   0.969   7.534 -0.0680 -0.9513  0.0344
   90SAPC   C32 8558   2.868   0.844   7.437 -0.2326  0.1129 -0.4804
   90SAPC   H2X 8559   2.835   0.740   7.460 -2.6998  0.9804  0.2699
   90SAPC   H2Y 8560   2.938   0.838   7.351  0.6428  0.5316  0.1872
   90SAPC   C23 8561   3.382   0.733   7.872 -0.4547 -0.3838  0.4892
   90SAPC   H3R 8562   3.417   0.728   7.977  1.2335 -1.7299 -0.0960
   90SAPC   H3S 8563   3.358   0.840   7.851 -0.3085 -0.4785 -0.1889
   90SAPC   C24 8564   3.515   0.698   7.791  0.1107 -0.0972  0.9643
   90SAPC   H4R 8565   3.597   0.760   7.833  0.2141 -0.5038  1.3711
   90SAPC   H4S 8566   3.488   0.731   7.688  0.5826  0.9552  1.1673
   90SAPC   C25 8567   3.559   0.554   7.794  0.0863 -0.4954  1.3089
   90SAPC   H5R 8568   3.591   0.527   7.896  1.3914  0.2486  1.1245
   90SAPC   C26 8569   3.576   0.467   7.695  0.0753 -0.1566  0.2488
   90SAPC   H6R 8570   3.616   0.366   7.710  2.2846  0.3290 -1.6991
   90SAPC   C27 8571   3.542   0.495   7.551  0.1273  0.1208 -0.1638
   90SAPC   H7R 8572   3.444   0.547   7.544 -0.1563 -0.5681 -1.7597
   90SAPC   H7S 8573   3.534   0.401   7.492  0.2593  1.6837 -2.8333
   90SAPC   C28 8574   3.634   0.586   7.482 -0.8097  0.1152  0.6518
   90SAPC   H8R 8575   3.670   0.665   7.549  1.5423 -0.2362 -0.0930
   90SAPC   C29 8576   3.686   0.577   7.356  0.7980  0.1261  0.1122
   90SAPC   H9R 8577   3.764   0.650   7.332  0.2395 -0.2067 -3.1029
   90SAPC  C210 8578   3.666   0.464   7.252 -0.0562  0.2012 -0.4064
   90SAPC  H10R 8579   3.614   0.378   7.301 -0.0742  0.1690 -0.4822
   90SAPC  H10S 8580   3.763   0.421   7.218 -0.1369  0.2148 -0.6582
   90SAPC  C211 8581   3.584   0.522   7.139  0.0199 -0.3007 -0.2648
   90SAPC  H11R 8582   3.488   0.568   7.167  0.5037  0.9575 -0.5962
   90SAPC  C212 8583   3.611   0.517   7.005  0.1426  0.3940  0.1796
   90SAPC  H12R 8584   3.542   0.558   6.929  1.4806  0.8359 -0.8433
   90SAPC  C213 8585   3.729   0.446   6.953  0.4214 -0.5771 -0.0464
   90SAPC  H13R 8586   3.684   0.392   6.866 -1.9870  1.2992 -0.0604
   90SAPC  H13S 8587   3.781   0.386   7.031  1.3638  2.4828  1.8398
   90SAPC  C214 8588   3.834   0.538   6.897  0.2238 -0.1671  0.2073
   90SAPC  H14R 8589   3.901   0.573   6.976 -0.1307  1.1046 -0.0401
   90SAPC  C215 8590   3.839   0.598   6.772 -0.3835  0.2850 -0.3121
   90SAPC  H15R 8591   3.923   0.662   6.744  0.6081 -0.8851 -0.1107
   90SAPC  C216 8592   3.740   0.569   6.663  0.3530 -0.3118  0.6010
   90SAPC  H16R 8593   3.694   0.667   6.638 -0.7632 -0.4137  2.1040
   90SAPC  H16S 8594   3.660   0.503   6.704  0.5602 -1.4827 -0.8027
   90SAPC  C217 8595   3.809   0.497   6.550 -1.6419 -0.0057 -0.0806
   90SAPC  H17R 8596   3.734   0.450   6.483 -1.7484 -0.6812  0.5060
   90SAPC  H17S 8597   3.863   0.414   6.599 -0.0496  2.4568  2.6800
   90SAPC  C218 8598   3.893   0.580   6.458  0.1209  0.3907 -0.0279
   90SAPC  H18R 8599   3.984   0.628   6.501  0.7795 -0.8385  0.0012
   90SAPC  H18S 8600   3.834   0.664   6.417 -1.1234 -1.0980 -1.4325
   90SAPC  C219 8601   3.945   0.508   6.333  0.1529 -1.3521 -0.3895
   90SAPC  H19R 8602   3.987   0.582   6.262 -1.5334 -1.8317 -1.9765
   90SAPC  H19S 8603   3.853   0.465   6.288 -1.5173 -0.5937  2.0640
   90SAPC  C220 8604   4.039   0.403   6.369  0.1911  0.5174 -0.2173
   90SAPC  H20R 8605   4.118   0.448   6.433  0.1729  0.3216 -0.0572
   90SAPC  H20S 8606   4.084   0.358   6.278  0.7736 -1.9038  1.1809
   90SAPC  H20T 8607   3.994   0.325   6.434  1.9593 -0.1566  0.2594
   90SAPC   C33 8608   2.741   0.932   7.397 -0.3319  0.3739 -0.1701
   90SAPC   H3X 8609   2.768   1.028   7.347 -1.3189 -0.0884 -1.6394
   90SAPC   H3Y 8610   2.694   0.970   7.490 -1.1509  1.0675 -0.8456
   90SAPC   C34 8611   2.639   0.864   7.317 -0.0409 -0.1495  0.2349
   90SAPC   H4X 8612   2.549   0.928   7.317 -1.1561 -1.6679 -0.6998
   90SAPC   H4Y 8613   2.614   0.774   7.377  2.3632 -0.7653  0.4324
   90SAPC   C35 8614   2.674   0.829   7.176  0.7589 -0.7488 -0.4803
   90SAPC   H5X 8615   2.751   0.749   7.165 -0.5646 -1.7796 -3.0579
   90SAPC   H5Y 8616   2.734   0.915   7.140  0.0273 -0.0322 -0.0077
   90SAPC   C36 8617   2.546   0.798   7.088 -0.1071  0.5064  0.1789
   90SAPC   H6X 8618   2.467   0.875   7.101 -2.4990 -1.7437 -0.2309
   90SAPC   H6Y 8619   2.502   0.705   7.129 -0.4659 -0.2230 -1.7661
   90SAPC   C37 8620   2.581   0.780   6.934  0.1008  0.1167  0.2851
   90SAPC   H7X 8621   2.513   0.709   6.882  1.6622 -1.3599  0.1797
   90SAPC   H7Y 8622   2.682   0.739   6.912 -0.6631 -1.9749  0.4318
   90SAPC   C38 8623   2.568   0.917   6.868  0.0994  0.4717  0.5748
   90SAPC   H8X 8624   2.642   0.992   6.903  1.5752 -0.9263  0.5184
   90SAPC   H8Y 8625   2.467   0.962   6.881  0.7319  1.5336  2.1965
   90SAPC   C39 8626   2.590   0.911   6.715 -0.3516 -0.4018  0.7223
   90SAPC   H9X 8627   2.561   1.008   6.671  0.4846 -1.2418 -1.8941
   90SAPC   H9Y 8628   2.519   0.836   6.673  0.5909 -0.1273 -1.5154
   90SAPC  C310 8629   2.737   0.904   6.669  0.5379  0.2405  0.4625
   90SAPC  H10X 8630   2.776   0.800   6.669  1.7937  0.6416  2.7454
   90SAPC  H10Y 8631   2.803   0.953   6.743 -0.1231  0.4926  0.8850
   90SAPC  C311 8632   2.753   0.966   6.529 -0.2863 -0.2049  0.4453
   90SAPC  H11X 8633   2.696   1.061   6.516  0.3270 -0.0624 -1.5297
   90SAPC  H11Y 8634   2.690   0.907   6.458 -0.8221  1.2550 -0.3455
   90SAPC  C312 8635   2.895   0.982   6.483 -0.5540 -0.0071 -0.2987
   90SAPC  H12X 8636   2.945   0.884   6.494  0.1419  0.0839 -2.2040
   90SAPC  H12Y 8637   2.941   1.048   6.559 -2.0661  0.3916  0.2998
   90SAPC  C313 8638   2.912   1.036   6.343  0.3490 -0.4543  0.6259
   90SAPC  H13X 8639   3.021   1.056   6.336  0.2169  0.8803  1.9616
   90SAPC  H13Y 8640   2.870   1.137   6.324 -2.6434 -1.5425  0.9242
   90SAPC  C314 8641   2.863   0.936   6.231  0.8875 -0.2201  0.1643
   90SAPC  H14X 8642   2.755   0.925   6.256  1.0279 -0.8230  0.5270
   90SAPC  H14Y 8643   2.919   0.844   6.258  0.9994  0.6758  3.4837
   90SAPC  C315 8644   2.903   0.984   6.095 -0.1891 -0.5728  0.4394
   90SAPC  H15X 8645   2.911   1.095   6.085 -0.7754 -0.7127 -2.5623
   90SAPC  H15Y 8646   2.830   0.964   6.014  1.5263  0.7979 -1.5727
   90SAPC  C316 8647   3.042   0.933   6.040  0.0065  0.1364  0.1753
   90SAPC  H16X 8648   3.116   0.933   6.124  0.4411 -0.6979 -0.1980
   90SAPC  H16Y 8649   3.078   0.994   5.955  1.5149  1.8305  1.9261
   90SAPC  C317 8650   3.040   0.790   5.978 -0.4022 -0.3405 -0.0870
   90SAPC  H17X 8651   2.991   0.791   5.878 -0.8801 -0.8455  0.1357
   90SAPC  H17Y 8652   2.970   0.731   6.042  0.0421 -0.0089  0.7128
   90SAPC  C318 8653   3.177   0.732   5.960 -0.4373  1.3478 -0.0001
   90SAPC  H18X 8654   3.245   0.804   5.909 -1.8036  1.6312 -1.5158
   90SAPC  H18Y 8655   3.166   0.649   5.887 -0.4141  1.5560 -0.2417
   90SAPC  H18Z 8656   3.218   0.690   6.054 -0.9753 -1.5866 -0.9900
   91SAPC     N 8657   5.597   1.000   8.574 -0.4680 -0.0455 -0.1972
   91SAPC   C12 8658   5.589   0.860   8.508 -0.9844 -0.0789 -0.0087
   91SAPC  H12A 8659   5.516   0.863   8.429  0.0845  3.5223 -1.0660
   91SAPC  H12B 8660   5.541   0.789   8.573 -1.8773 -0.5761 -1.1796
   91SAPC   C13 8661   5.687   0.991   8.691 -0.6496 -0.6043 -0.9474
   91SAPC  H13A 8662   5.664   1.067   8.764 -0.4146  0.3866 -1.8870
   91SAPC  H13B 8663   5.674   0.898   8.746 -1.0486  1.1785  2.2016
   91SAPC  H13C 8664   5.786   1.014   8.655 -0.0051 -1.2286  0.3341
   91SAPC   C14 8665   5.649   1.094   8.473  0.0537 -0.1934  0.2131
   91SAPC  H14A 8666   5.586   1.107   8.387  1.0174  1.2849 -0.3155
   91SAPC  H14B 8667   5.655   1.189   8.525 -1.2285 -0.4913  0.9608
   91SAPC  H14C 8668   5.743   1.054   8.439 -0.2688 -2.1650  1.4888
   91SAPC   C15 8669   5.463   1.051   8.623 -0.3776 -0.0731  0.3937
   91SAPC  H15A 8670   5.466   1.157   8.643  1.1782 -0.1157  0.5109
   91SAPC  H15B 8671   5.393   1.034   8.543 -2.4672 -0.3630  2.1585
   91SAPC  H15C 8672   5.436   0.995   8.712 -3.6100  2.2647  1.0419
   91SAPC   C11 8673   5.718   0.793   8.453  0.1260 -0.0868  0.7055
   91SAPC  H11A 8674   5.681   0.699   8.405 -1.8876  1.6527 -1.4014
   91SAPC  H11B 8675   5.781   0.765   8.540  0.7674 -1.7916 -0.2561
   91SAPC     P 8676   5.879   0.812   8.246  0.0846 -0.3798  0.0421
   91SAPC   O13 8677   5.990   0.727   8.296  0.2111 -0.3273 -0.8493
   91SAPC   O14 8678   5.784   0.751   8.153 -0.3312 -0.7572  0.5629
   91SAPC   O12 8679   5.793   0.877   8.364 -0.0108 -0.2605  0.0256
   91SAPC   O11 8680   5.932   0.942   8.174 -0.5198  0.1512  0.3347
   91SAPC    C1 8681   5.839   1.047   8.137 -0.1511 -0.0818 -0.0150
   91SAPC    HA 8682   5.733   1.014   8.138 -0.4019  0.7072 -0.1173
   91SAPC    HB 8683   5.852   1.125   8.216 -0.0095 -1.0503  0.9416
   91SAPC    C2 8684   5.864   1.097   7.987  0.2830 -0.2580 -0.8496
   91SAPC    HS 8685   5.762   1.117   7.948  0.5894 -1.5519 -2.4103
   91SAPC   O21 8686   5.942   1.007   7.905  0.4706  0.2339  0.0762
   91SAPC   C21 8687   5.861   0.911   7.863  0.6683 -0.6271  0.3068
   91SAPC   O22 8688   5.741   0.894   7.889  0.2864 -0.2096 -0.1382
   91SAPC   C22 8689   5.949   0.811   7.785 -0.4773 -0.4059  0.4118
   91SAPC   H2R 8690   6.016   0.873   7.722  1.2821 -1.8535  0.7707
   91SAPC   H2S 8691   6.009   0.750   7.855 -0.2771  0.7550  1.2831
   91SAPC    C3 8692   5.942   1.233   7.982  0.3300  0.5507  0.6980
   91SAPC    HX 8693   6.046   1.220   8.019  1.3329  2.3531 -1.2414
   91SAPC    HY 8694   5.902   1.314   8.047  3.1806  2.0952  0.6871
   91SAPC   O31 8695   5.946   1.270   7.839  0.3134 -0.4750  0.1777
   91SAPC   C31 8696   6.060   1.249   7.779 -0.0279 -0.0106 -0.1418
   91SAPC   O32 8697   6.169   1.230   7.826 -0.6133  0.3053 -0.0374
   91SAPC   C32 8698   6.046   1.242   7.626 -0.4301  0.0079 -0.3136
   91SAPC   H2X 8699   6.144   1.227   7.576  0.1427 -1.6738  1.1993
   91SAPC   H2Y 8700   6.009   1.337   7.583 -0.7606  0.3474  0.6863
   91SAPC   C23 8701   5.867   0.721   7.697 -0.1624 -0.5099  0.2811
   91SAPC   H3R 8702   5.829   0.775   7.609 -0.1053  1.6652  1.5341
   91SAPC   H3S 8703   5.796   0.654   7.750 -0.0511  0.1422  1.2753
   91SAPC   C24 8704   5.972   0.624   7.631 -0.4124  0.4508  0.0546
   91SAPC   H4R 8705   6.033   0.586   7.716 -1.1903 -2.0704 -0.4521
   91SAPC   H4S 8706   6.043   0.671   7.560 -2.5051  0.3765 -2.2212
   91SAPC   C25 8707   5.916   0.507   7.556 -0.1033  0.0095  0.0401
   91SAPC   H5R 8708   5.865   0.435   7.622 -1.0580 -1.1271 -1.8684
   91SAPC   C26 8709   5.927   0.479   7.425  0.2063  0.2387  0.2976
   91SAPC   H6R 8710   5.870   0.396   7.382 -0.7311  0.5889  0.8459
   91SAPC   C27 8711   5.988   0.563   7.315  0.8049  0.1981  0.0388
   91SAPC   H7R 8712   6.063   0.503   7.258  1.0149  1.5025 -1.1030
   91SAPC   H7S 8713   6.047   0.647   7.357  6.1382 -3.5460  1.1790
   91SAPC   C28 8714   5.883   0.609   7.219  0.3289 -0.3951  0.7760
   91SAPC   H8R 8715   5.827   0.696   7.256  0.0850  0.8510 -2.1872
   91SAPC   C29 8716   5.848   0.564   7.101 -0.3597 -0.1245  0.3068
   91SAPC   H9R 8717   5.751   0.592   7.056  0.6433  2.8627 -0.2354
   91SAPC  C210 8718   5.908   0.440   7.034 -0.2265  0.2198 -0.2155
   91SAPC  H10R 8719   5.850   0.353   7.074 -2.3585  1.0546 -1.3524
   91SAPC  H10S 8720   6.014   0.423   7.063 -0.4045 -1.3705 -0.4071
   91SAPC  C211 8721   5.891   0.458   6.887  0.7277 -0.5032 -0.2047
   91SAPC  H11R 8722   5.965   0.507   6.822 -1.3990 -1.3370 -3.5013
   91SAPC  C212 8723   5.794   0.399   6.811 -0.1782 -0.1512 -0.5962
   91SAPC  H12R 8724   5.784   0.417   6.702  0.4958  4.2117 -0.1019
   91SAPC  C213 8725   5.680   0.307   6.858  0.2113  0.2370 -0.2541
   91SAPC  H13R 8726   5.585   0.351   6.821 -1.2013 -0.3858  2.3777
   91SAPC  H13S 8727   5.677   0.303   6.969  1.1635  3.8031  0.0035
   91SAPC  C214 8728   5.686   0.164   6.807  0.0692 -0.1064  0.3549
   91SAPC  H14R 8729   5.724   0.085   6.873  3.9432  0.7230 -0.6351
   91SAPC  C215 8730   5.655   0.133   6.682  0.1522 -0.0001  0.1813
   91SAPC  H15R 8731   5.652   0.025   6.658 -1.4278 -0.3021  1.5850
   91SAPC  C216 8732   5.614   0.226   6.564 -0.8254 -0.4656  1.4702
   91SAPC  H16R 8733   5.592   0.327   6.603  0.3882  0.5731 -0.4071
   91SAPC  H16S 8734   5.520   0.191   6.517 -0.0572 -1.9839  0.9696
   91SAPC  C217 8735   5.721   0.251   6.445  0.2354 -0.0733  0.3956
   91SAPC  H17R 8736   5.768   0.155   6.419 -0.9874 -0.2960 -1.1189
   91SAPC  H17S 8737   5.795   0.321   6.490  1.4171  0.3254 -2.0148
   91SAPC  C218 8738   5.658   0.320   6.316  0.8876  0.5300  0.1911
   91SAPC  H18R 8739   5.654   0.431   6.326 -0.0859  0.8900 -2.9957
   91SAPC  H18S 8740   5.553   0.289   6.299  0.6222  0.9620  0.9883
   91SAPC  C219 8741   5.723   0.282   6.187  0.5096  0.4961 -0.4032
   91SAPC  H19R 8742   5.704   0.173   6.180  0.0218  0.4418  1.3282
   91SAPC  H19S 8743   5.828   0.320   6.186  0.2320  1.2968 -0.1730
   91SAPC  C220 8744   5.650   0.338   6.070 -0.3923 -0.1382 -0.1032
   91SAPC  H20R 8745   5.541   0.315   6.076  0.1636 -2.7655  1.1124
   91SAPC  H20S 8746   5.698   0.311   5.974  1.3478  2.2006  0.0267
   91SAPC  H20T 8747   5.650   0.450   6.069 -2.7290 -0.0316 -3.1136
   91SAPC   C33 8748   5.963   1.122   7.577  0.2696  0.5860 -0.1725
   91SAPC   H3X 8749   5.883   1.088   7.647  0.7723 -1.3957 -0.4884
   91SAPC   H3Y 8750   6.034   1.036   7.578 -0.5330 -0.1190  1.4051
   91SAPC   C34 8751   5.913   1.127   7.436 -0.0669  0.1072  0.0935
   91SAPC   H4X 8752   5.991   1.168   7.369 -1.1688  2.6391  0.2601
   91SAPC   H4Y 8753   5.828   1.198   7.429 -0.3999 -0.4866 -3.1656
   91SAPC   C35 8754   5.885   0.990   7.385  0.3494  0.3470  0.3691
   91SAPC   H5X 8755   5.783   0.962   7.419 -0.2673  0.9691 -0.8721
   91SAPC   H5Y 8756   5.953   0.911   7.422 -1.3975 -0.9166  1.0180
   91SAPC   C36 8757   5.901   0.978   7.232 -0.2419  0.3366  0.1416
   91SAPC   H6X 8758   5.952   0.887   7.194 -0.9949  0.0156 -0.1163
   91SAPC   H6Y 8759   5.964   1.056   7.184  1.7134 -1.1719  0.1189
   91SAPC   C37 8760   5.765   0.965   7.157 -0.0206 -0.9708  0.1532
   91SAPC   H7X 8761   5.689   1.036   7.195  1.7345  2.1372 -1.7612
   91SAPC   H7Y 8762   5.730   0.861   7.180 -0.8771 -0.9229 -0.8434
   91SAPC   C38 8763   5.784   0.987   7.004  0.0311 -0.4050 -0.2261
   91SAPC   H8X 8764   5.691   0.960   6.949 -0.1449 -0.9173  0.3134
   91SAPC   H8Y 8765   5.871   0.923   6.977 -0.4705 -1.5637  0.7717
   91SAPC   C39 8766   5.803   1.140   6.976  0.0415 -0.3592  0.1377
   91SAPC   H9X 8767   5.879   1.196   7.036 -0.2902  1.1968 -0.8276
   91SAPC   H9Y 8768   5.706   1.191   6.995  0.9410  0.8595  1.7074
   91SAPC  C310 8769   5.858   1.172   6.832 -0.3259 -0.2989  0.8574
   91SAPC  H10X 8770   5.800   1.114   6.757 -0.4179  1.3907 -0.4331
   91SAPC  H10Y 8771   5.962   1.137   6.816 -0.2672  0.2899 -0.1179
   91SAPC  C311 8772   5.841   1.320   6.791 -0.2581  0.2526  0.0747
   91SAPC  H11X 8773   5.919   1.373   6.848  2.1217  0.3353 -2.9782
   91SAPC  H11Y 8774   5.743   1.362   6.820 -0.6190 -1.2531  1.1645
   91SAPC  C312 8775   5.873   1.353   6.642  0.4299 -0.1424  0.1019
   91SAPC  H12X 8776   5.980   1.333   6.622  0.7899  1.8846 -0.1970
   91SAPC  H12Y 8777   5.847   1.461   6.641 -0.4537 -0.3169  1.5690
   91SAPC  C313 8778   5.786   1.271   6.542  0.7774 -0.4707 -0.6186
   91SAPC  H13X 8779   5.679   1.296   6.559  0.6067 -2.2217  1.4690
   91SAPC  H13Y 8780   5.787   1.160   6.551  0.7127 -0.4733 -0.6390
   91SAPC  C314 8781   5.821   1.298   6.392  0.3592  0.1778  0.2903
   91SAPC  H14X 8782   5.926   1.294   6.358 -0.3136  0.7461 -2.0375
   91SAPC  H14Y 8783   5.774   1.398   6.379  0.5798  0.4261  1.2925
   91SAPC  C315 8784   5.766   1.191   6.288  1.3835  0.1990  0.2219
   91SAPC  H15X 8785   5.662   1.168   6.322  1.6879  1.2652  2.0298
   91SAPC  H15Y 8786   5.832   1.103   6.301  1.7184  0.2228 -1.2054
   91SAPC  C316 8787   5.759   1.243   6.145 -0.0022  0.1484  0.1414
   91SAPC  H16X 8788   5.713   1.344   6.147 -0.0425  0.1956 -1.6436
   91SAPC  H16Y 8789   5.696   1.186   6.074 -1.0829 -1.7849  2.5249
   91SAPC  C317 8790   5.897   1.265   6.084  0.3541  0.0540  0.8009
   91SAPC  H17X 8791   5.932   1.173   6.032  0.1486 -0.9636  2.3977
   91SAPC  H17Y 8792   5.980   1.290   6.154  0.2843 -0.0767  0.9302
   91SAPC  C318 8793   5.895   1.381   5.988 -0.1972 -0.4318  0.8608
   91SAPC  H18X 8794   5.840   1.346   5.898 -0.8621  0.6364  0.8345
   91SAPC  H18Y 8795   6.003   1.406   5.976 -0.0188 -0.4582  2.2221
   91SAPC  H18Z 8796   5.833   1.460   6.036 -1.7747  0.6751 -2.6897
   92SAPC     N 8797   1.926   2.316   8.220  0.6281  0.1313  0.0744
   92SAPC   C12 8798   1.813   2.323   8.108 -0.2116 -0.0926  0.0940
   92SAPC  H12A 8799   1.737   2.250   8.133 -0.7990  0.6128  0.4094
   92SAPC  H12B 8800   1.847   2.298   8.009  1.6554  1.1347  0.3760
   92SAPC   C13 8801   1.846   2.336   8.353 -0.7414 -0.3380 -0.4253
   92SAPC  H13A 8802   1.913   2.352   8.436 -2.7438 -1.4668  1.5077
   92SAPC  H13B 8803   1.775   2.415   8.339 -0.3923  0.4006  1.7250
   92SAPC  H13C 8804   1.795   2.241   8.365  0.3717 -1.6349 -4.2910
   92SAPC   C14 8805   1.988   2.177   8.229  0.8271  0.0022  0.1833
   92SAPC  H14A 8806   2.013   2.138   8.132  0.8241 -0.0217  0.1924
   92SAPC  H14B 8807   2.076   2.173   8.292  2.3333 -0.2289 -1.8397
   92SAPC  H14C 8808   1.928   2.106   8.284 -0.2683  1.6459  1.1855
   92SAPC   C15 8809   2.029   2.428   8.212  0.1068  0.6110 -0.0427
   92SAPC  H15A 8810   1.980   2.517   8.247  1.1058  1.1917 -0.0893
   92SAPC  H15B 8811   2.113   2.397   8.272 -1.9713 -0.9730  2.2753
   92SAPC  H15C 8812   2.063   2.440   8.110 -0.2261 -0.4314 -0.2974
   92SAPC   C11 8813   1.751   2.467   8.097 -0.1614 -0.2375 -0.0722
   92SAPC  H11A 8814   1.688   2.469   8.005 -0.4522 -0.2513  0.1236
   92SAPC  H11B 8815   1.832   2.541   8.082 -1.4732  0.8523 -2.3850
   92SAPC     P 8816   1.519   2.444   8.235 -0.2496  0.1023 -0.8182
   92SAPC   O13 8817   1.511   2.364   8.362  0.0206  0.4139  0.0438
   92SAPC   O14 8818   1.420   2.557   8.223 -0.2062 -0.0755  0.7150
   92SAPC   O12 8819   1.667   2.498   8.216 -0.4677  0.1146 -0.1344
   92SAPC   O11 8820   1.509   2.340   8.119 -0.1027 -0.2983 -0.3124
   92SAPC    C1 8821   1.384   2.279   8.080  0.0992  0.0144 -0.4942
   92SAPC    HA 8822   1.411   2.176   8.049 -1.8439 -0.4190 -0.9075
   92SAPC    HB 8823   1.320   2.260   8.169  0.2376  3.9380  0.5905
   92SAPC    C2 8824   1.316   2.356   7.959  0.1902  0.5099 -0.3801
   92SAPC    HS 8825   1.246   2.427   8.009  0.3210 -0.4384  1.2030
   92SAPC   O21 8826   1.233   2.275   7.879 -0.1745  0.5718 -0.1339
   92SAPC   C21 8827   1.114   2.241   7.921  0.2099  0.2978  0.2314
   92SAPC   O22 8828   1.065   2.267   8.032 -0.1636 -0.1400  0.1874
   92SAPC   C22 8829   1.042   2.161   7.813  0.1813 -0.3544  0.0550
   92SAPC   H2R 8830   1.045   2.214   7.715  1.6237 -1.1293 -0.3509
   92SAPC   H2S 8831   1.104   2.070   7.804 -0.7398 -0.8043 -2.5014
   92SAPC    C3 8832   1.420   2.426   7.869  0.0346 -0.1348  0.0910
   92SAPC    HX 8833   1.512   2.364   7.879  0.5305  0.6036  0.1994
   92SAPC    HY 8834   1.439   2.525   7.916 -0.9510 -0.7826  1.9366
   92SAPC   O31 8835   1.393   2.434   7.732  0.3655 -0.3181  0.3248
   92SAPC   C31 8836   1.366   2.550   7.674 -0.3058  0.1466  0.0526
   92SAPC   O32 8837   1.375   2.660   7.726  0.1988  0.1221  0.0084
   92SAPC   C32 8838   1.327   2.520   7.530  1.0260  0.1582  0.2676
   92SAPC   H2X 8839   1.217   2.535   7.523  0.6535 -2.3214 -0.1526
   92SAPC   H2Y 8840   1.339   2.418   7.489 -3.2053  0.0033 -1.0363
   92SAPC   C23 8841   0.899   2.119   7.851 -0.0309  0.0077  0.1308
   92SAPC   H3R 8842   0.836   2.205   7.880  0.2627 -0.8510  3.8111
   92SAPC   H3S 8843   0.902   2.067   7.949 -0.6376  3.5362  2.1816
   92SAPC   C24 8844   0.817   2.037   7.741 -0.5061  0.4472 -0.8168
   92SAPC   H4R 8845   0.771   2.111   7.672 -0.1960  0.8370 -0.6097
   92SAPC   H4S 8846   0.731   2.008   7.805  1.0775 -0.3807  1.0120
   92SAPC   C25 8847   0.895   1.918   7.685 -0.5204 -0.8981 -0.2554
   92SAPC   H5R 8848   0.912   1.838   7.758  4.4456  0.9175  0.9999
   92SAPC   C26 8849   0.936   1.904   7.556  0.3683 -0.3423  0.5175
   92SAPC   H6R 8850   0.987   1.815   7.517  0.2087 -0.9503  1.6655
   92SAPC   C27 8851   0.912   2.015   7.460 -0.2183 -0.3253  0.1409
   92SAPC   H7R 8852   0.934   2.111   7.512 -0.5367 -0.9282  1.4273
   92SAPC   H7S 8853   0.807   2.017   7.424 -0.3404 -4.3506 -0.1401
   92SAPC   C28 8854   1.002   2.000   7.342 -0.4129 -0.4164 -0.2889
   92SAPC   H8R 8855   1.108   2.018   7.365 -1.2011  3.1175  1.2516
   92SAPC   C29 8856   0.977   2.012   7.210  0.1322  0.1509  0.3374
   92SAPC   H9R 8857   1.058   1.996   7.138  0.3781 -0.3672  0.7208
   92SAPC  C210 8858   0.842   2.027   7.146  0.3200 -0.3314  0.6571
   92SAPC  H10R 8859   0.754   1.976   7.190 -0.6725  0.1516 -0.6994
   92SAPC  H10S 8860   0.847   1.993   7.041 -4.0112 -0.8426  0.4237
   92SAPC  C211 8861   0.794   2.172   7.137 -1.0603  0.6948  0.0777
   92SAPC  H11R 8862   0.842   2.232   7.215 -0.2043  0.3348 -0.1476
   92SAPC  C212 8863   0.711   2.223   7.052  0.1657 -0.3804  0.9443
   92SAPC  H12R 8864   0.686   2.329   7.068 -0.6013 -0.3197 -0.4644
   92SAPC  C213 8865   0.649   2.149   6.936 -0.0021  0.2681  0.1034
   92SAPC  H13R 8866   0.541   2.168   6.920 -0.6409 -2.3131  0.8864
   92SAPC  H13S 8867   0.659   2.039   6.950 -1.2113  0.2470  0.9114
   92SAPC  C214 8868   0.717   2.178   6.808  1.0075  0.7519  0.0674
   92SAPC  H14R 8869   0.826   2.170   6.819  0.9499 -1.4893 -0.5708
   92SAPC  C215 8870   0.657   2.206   6.688 -0.3844  0.2908  0.5605
   92SAPC  H15R 8871   0.734   2.216   6.611 -1.0084  0.8985 -0.0051
   92SAPC  C216 8872   0.507   2.186   6.649 -0.2671  0.3188  0.3406
   92SAPC  H16R 8873   0.447   2.140   6.730 -0.2601 -2.7749 -1.2639
   92SAPC  H16S 8874   0.496   2.119   6.561 -0.9978  1.2920 -0.3427
   92SAPC  C217 8875   0.432   2.321   6.622 -0.1564  0.4231  0.1945
   92SAPC  H17R 8876   0.467   2.362   6.525 -1.1410 -0.4581 -0.5529
   92SAPC  H17S 8877   0.446   2.390   6.708 -0.7580  0.4966  0.2348
   92SAPC  C218 8878   0.280   2.295   6.596 -0.1020  0.5227 -0.0584
   92SAPC  H18R 8879   0.236   2.219   6.665  0.3844 -0.1590 -0.4846
   92SAPC  H18S 8880   0.275   2.255   6.492 -0.5642 -0.6233  0.3862
   92SAPC  C219 8881   0.194   2.419   6.588  0.1044  0.3338  0.6437
   92SAPC  H19R 8882   0.230   2.492   6.513  1.5929 -0.9516  0.0511
   92SAPC  H19S 8883   0.195   2.470   6.687 -2.4412 -0.8715  1.3836
   92SAPC  C220 8884   0.047   2.392   6.561  0.2998 -0.2030  0.7412
   92SAPC  H20R 8885   0.011   2.321   6.638  0.1206  0.3532  1.1814
   92SAPC  H20S 8886   0.028   2.346   6.462  0.7455 -1.6087  1.2950
   92SAPC  H20T 8887  -0.008   2.489   6.566  0.6630  0.2485 -2.1840
   92SAPC   C33 8888   1.384   2.617   7.418  0.5877  0.5427 -0.1405
   92SAPC   H3X 8889   1.491   2.598   7.395  1.6031  2.6325  2.3389
   92SAPC   H3Y 8890   1.387   2.721   7.455  0.6157  0.5406 -0.1369
   92SAPC   C34 8891   1.306   2.623   7.283 -0.2231  0.0728 -0.6310
   92SAPC   H4X 8892   1.350   2.702   7.218 -0.5541  3.2776  2.6772
   92SAPC   H4Y 8893   1.205   2.665   7.304 -0.4795 -1.0233  0.4912
   92SAPC   C35 8894   1.283   2.481   7.221  0.5010 -0.0999  0.2154
   92SAPC   H5X 8895   1.206   2.426   7.281  0.4446  0.9972  1.1939
   92SAPC   H5Y 8896   1.380   2.429   7.234  1.8164  1.7736 -1.5841
   92SAPC   C36 8897   1.230   2.484   7.076  0.3236  0.4381 -0.8567
   92SAPC   H6X 8898   1.294   2.430   7.002 -1.2564  0.3767 -2.2501
   92SAPC   H6Y 8899   1.221   2.585   7.030 -0.5125 -0.0577 -1.8125
   92SAPC   C37 8900   1.082   2.427   7.073 -0.0468 -0.3688  0.1838
   92SAPC   H7X 8901   1.036   2.490   7.152  0.8918  0.0424  0.4131
   92SAPC   H7Y 8902   1.085   2.318   7.098  2.2842 -0.2025  0.9003
   92SAPC   C38 8903   1.010   2.442   6.936 -0.3708  0.2041 -0.0586
   92SAPC   H8X 8904   1.002   2.552   6.918  3.0366  0.3731 -1.3118
   92SAPC   H8Y 8905   0.907   2.399   6.940 -0.3532  0.0733 -0.7667
   92SAPC   C39 8906   1.081   2.388   6.810 -0.1434  0.1784 -0.2634
   92SAPC   H9X 8907   1.100   2.278   6.816  1.1262  0.4567  1.3404
   92SAPC   H9Y 8908   1.172   2.451   6.806 -0.3694  0.4374 -1.9605
   92SAPC  C310 8909   0.989   2.398   6.682 -0.1837 -0.0898  0.0543
   92SAPC  H10X 8910   0.998   2.507   6.662  0.1610  0.0917  1.1114
   92SAPC  H10Y 8911   0.884   2.375   6.708  0.5058 -2.0446  1.2924
   92SAPC  C311 8912   1.048   2.313   6.571  0.3746 -0.5773 -0.7241
   92SAPC  H11X 8913   1.037   2.204   6.588  1.8994 -0.8358 -1.1845
   92SAPC  H11Y 8914   1.156   2.336   6.556  0.0403  0.6864 -1.2907
   92SAPC  C312 8915   0.973   2.340   6.435 -0.9124 -0.4725 -0.1911
   92SAPC  H12X 8916   0.925   2.436   6.461  2.3926  1.0558  0.7728
   92SAPC  H12Y 8917   0.897   2.259   6.438 -1.8888  0.4222 -0.1148
   92SAPC  C313 8918   1.057   2.346   6.303 -0.9589 -0.9016 -0.2381
   92SAPC  H13X 8919   1.113   2.250   6.296 -1.8429 -1.3946 -0.6454
   92SAPC  H13Y 8920   1.129   2.429   6.316 -1.1700 -1.0944  3.3305
   92SAPC  C314 8921   0.969   2.371   6.178 -0.3618  0.5552 -1.5266
   92SAPC  H14X 8922   0.913   2.465   6.193  0.8534  0.9422  1.0784
   92SAPC  H14Y 8923   0.902   2.283   6.175  2.0520 -1.3588 -2.6791
   92SAPC  C315 8924   1.041   2.376   6.046 -0.5890 -0.1292  0.2015
   92SAPC  H15X 8925   1.120   2.299   6.037  1.1884  1.3676  2.0937
   92SAPC  H15Y 8926   1.096   2.472   6.036 -1.4740  0.2496 -1.4847
   92SAPC  C316 8927   0.940   2.373   5.928 -0.3058  0.2106  0.1590
   92SAPC  H16X 8928   0.890   2.472   5.921  0.2561  0.4487 -0.7517
   92SAPC  H16Y 8929   0.855   2.309   5.961 -1.5018  2.5119  1.7642
   92SAPC  C317 8930   0.997   2.330   5.790 -0.9432  0.2041 -0.3663
   92SAPC  H17X 8931   1.094   2.375   5.762 -1.5061  1.0545 -1.0059
   92SAPC  H17Y 8932   0.922   2.358   5.713 -0.8367  2.6309  0.3185
   92SAPC  C318 8933   1.024   2.181   5.789  0.3382 -0.0899 -0.6627
   92SAPC  H18X 8934   1.087   2.146   5.705  2.1675  1.8065 -0.1642
   92SAPC  H18Y 8935   0.925   2.130   5.795 -0.6061  1.7007  3.6539
   92SAPC  H18Z 8936   1.074   2.146   5.882 -1.6588 -0.2252  0.4226
   93SAPC     N 8937   0.302   0.375   8.203  0.1162  0.2860 -0.5398
   93SAPC   C12 8938   0.263   0.429   8.068 -0.4363 -0.4552 -0.2258
   93SAPC  H12A 8939   0.276   0.536   8.067  0.8934 -0.4550  3.1344
   93SAPC  H12B 8940   0.160   0.403   8.052 -0.7263 -0.5202  1.5325
   93SAPC   C13 8941   0.274   0.232   8.227  0.2088 -0.0634  0.6896
   93SAPC  H13A 8942   0.331   0.178   8.153 -1.3481  1.0621 -1.4367
   93SAPC  H13B 8943   0.309   0.202   8.325 -2.1869  0.8114  1.9108
   93SAPC  H13C 8944   0.173   0.202   8.204  0.5437 -2.2159  1.8129
   93SAPC   C14 8945   0.449   0.405   8.223 -0.0944  0.1438  0.0143
   93SAPC  H14A 8946   0.512   0.361   8.147 -0.8900 -1.6330  0.3351
   93SAPC  H14B 8947   0.453   0.511   8.204  1.0791  0.0986 -0.0874
   93SAPC  H14C 8948   0.486   0.402   8.324 -1.4801  1.2126  0.5855
   93SAPC   C15 8949   0.227   0.462   8.310  0.2129  1.3491 -0.0689
   93SAPC  H15A 8950   0.264   0.454   8.411 -0.6317  0.0729  0.1744
   93SAPC  H15B 8951   0.234   0.566   8.283 -0.6707  1.0865 -1.4611
   93SAPC  H15C 8952   0.121   0.440   8.315  0.6187 -0.4839  2.4504
   93SAPC   C11 8953   0.333   0.362   7.945 -0.3205  0.2796  0.0079
   93SAPC  H11A 8954   0.266   0.396   7.863 -2.6167 -0.7431  1.3491
   93SAPC  H11B 8955   0.327   0.251   7.951 -1.2875  0.3336  0.3235
   93SAPC     P 8956   0.530   0.531   7.892 -0.1333  0.0442 -0.1978
   93SAPC   O13 8957   0.426   0.634   7.857 -0.3564  0.4928 -0.2899
   93SAPC   O14 8958   0.627   0.566   7.997 -0.0983 -0.4932  0.0591
   93SAPC   O12 8959   0.471   0.394   7.929 -0.2565 -0.6172 -0.5011
   93SAPC   O11 8960   0.615   0.493   7.769 -0.1895  0.1678  0.0379
   93SAPC    C1 8961   0.559   0.447   7.647 -0.1191  0.5734 -0.0413
   93SAPC    HA 8962   0.622   0.364   7.610 -2.5629 -1.0234 -0.8934
   93SAPC    HB 8963   0.461   0.396   7.658  1.0645 -1.9676 -0.6830
   93SAPC    C2 8964   0.540   0.553   7.535 -0.8303  0.0831 -0.5866
   93SAPC    HS 8965   0.547   0.653   7.583  0.5797 -0.5476  0.6156
   93SAPC   O21 8966   0.423   0.526   7.459 -0.0359  0.4876 -0.0736
   93SAPC   C21 8967   0.318   0.605   7.493  0.4368 -0.0681  0.3864
   93SAPC   O22 8968   0.321   0.697   7.571 -0.1748  0.4297  0.4055
   93SAPC   C22 8969   0.197   0.543   7.418 -0.4459 -0.2096  0.2339
   93SAPC   H2R 8970   0.193   0.435   7.445  1.2605  0.2493  2.6984
   93SAPC   H2S 8971   0.101   0.586   7.454 -2.0152 -1.5924 -2.0312
   93SAPC    C3 8972   0.657   0.548   7.446 -0.1354  0.6392 -0.8679
   93SAPC    HX 8973   0.671   0.443   7.413  1.6455  0.3282  0.6958
   93SAPC    HY 8974   0.754   0.565   7.499 -0.5607  5.1864 -1.1389
   93SAPC   O31 8975   0.631   0.631   7.329  0.1387  0.5117 -0.3983
   93SAPC   C31 8976   0.652   0.761   7.366  0.2059 -0.9478  0.4754
   93SAPC   O32 8977   0.672   0.800   7.476  0.0611 -0.5544 -0.3204
   93SAPC   C32 8978   0.632   0.842   7.240 -0.7292 -0.3304 -0.6683
   93SAPC   H2X 8979   0.735   0.869   7.209 -0.7548  0.5208 -0.0544
   93SAPC   H2Y 8980   0.597   0.945   7.263  0.7712  0.1137 -0.2198
   93SAPC   C23 8981   0.212   0.565   7.269  0.6589  0.1563  0.0266
   93SAPC   H3R 8982   0.307   0.520   7.232 -0.6865 -1.3137 -1.8860
   93SAPC   H3S 8983   0.225   0.673   7.246  0.6388  0.4039  1.1236
   93SAPC   C24 8984   0.095   0.512   7.192 -0.0735  0.0592  0.8537
   93SAPC   H4R 8985   0.086   0.403   7.217  0.5200 -0.1003  0.3737
   93SAPC   H4S 8986   0.120   0.527   7.085 -1.0153  1.6408  0.8293
   93SAPC   C25 8987  -0.032   0.589   7.222  0.4879 -0.2470  0.1656
   93SAPC   H5R 8988  -0.084   0.566   7.316  1.0746  0.9947  0.7998
   93SAPC   C26 8989  -0.102   0.674   7.144 -0.4618 -0.2119  0.0191
   93SAPC   H6R 8990  -0.174   0.745   7.188  1.0516  1.4554 -0.0979
   93SAPC   C27 8991  -0.089   0.716   7.000 -0.3922  0.2944  0.2817
   93SAPC   H7R 8992   0.015   0.717   6.960 -0.6025 -0.8733 -0.3421
   93SAPC   H7S 8993  -0.128   0.820   6.995 -0.6453  0.3275  2.1633
   93SAPC   C28 8994  -0.163   0.630   6.911 -0.0112  0.1508  0.0701
   93SAPC   H8R 8995  -0.153   0.524   6.937 -0.7901 -0.1075 -0.6135
   93SAPC   C29 8996  -0.238   0.666   6.811  0.8678  0.3719  0.2080
   93SAPC   H9R 8997  -0.272   0.578   6.755  2.0954 -0.0738  0.1298
   93SAPC  C210 8998  -0.265   0.813   6.761 -0.3653  0.9881 -0.1568
   93SAPC  H10R 8999  -0.164   0.860   6.758  0.2151 -0.1812  0.2110
   93SAPC  H10S 9000  -0.322   0.872   6.836  0.4748 -0.0402  1.3583
   93SAPC  C211 9001  -0.357   0.823   6.639  0.2085  0.0317  0.0858
   93SAPC  H11R 9002  -0.463   0.808   6.667  0.1994 -1.0227 -0.4677
   93SAPC  C212 9003  -0.320   0.837   6.508  0.4057  0.1113 -0.1626
   93SAPC  H12R 9004  -0.396   0.838   6.428  1.3123 -1.1688 -1.0789
   93SAPC  C213 9005  -0.180   0.854   6.456  0.0166 -0.2491  0.0447
   93SAPC  H13R 9006  -0.161   0.771   6.384  1.2420 -1.3704  1.6100
   93SAPC  H13S 9007  -0.109   0.845   6.541 -0.6256  0.0952  0.6272
   93SAPC  C214 9008  -0.148   0.977   6.378  0.3122  0.2996 -0.1268
   93SAPC  H14R 9009  -0.091   1.046   6.444  0.4330 -1.8306  2.1519
   93SAPC  C215 9010  -0.186   1.002   6.256 -0.4340 -0.0500 -0.0951
   93SAPC  H15R 9011  -0.144   1.089   6.203  0.1948 -0.4682 -0.2891
   93SAPC  C216 9012  -0.275   0.913   6.174 -0.7053  0.9883  0.6606
   93SAPC  H16R 9013  -0.306   0.815   6.216 -1.7393  0.0753 -2.0224
   93SAPC  H16S 9014  -0.216   0.880   6.085  0.4688  4.4212  0.0287
   93SAPC  C217 9015  -0.401   0.979   6.122  0.2061 -0.7919  0.2355
   93SAPC  H17R 9016  -0.449   1.011   6.217  0.3652  1.5314 -0.3985
   93SAPC  H17S 9017  -0.452   0.897   6.067 -3.0633  0.5216  1.0689
   93SAPC  C218 9018  -0.369   1.092   6.030  0.4677  0.1876  0.1364
   93SAPC  H18R 9019  -0.324   1.059   5.934 -1.2827  0.5360 -0.8441
   93SAPC  H18S 9020  -0.296   1.164   6.072  0.6867 -0.1911  0.4053
   93SAPC  C219 9021  -0.505   1.163   5.989 -0.0389  0.1822  0.2201
   93SAPC  H19R 9022  -0.478   1.240   5.914  0.8479 -0.8275 -0.5186
   93SAPC  H19S 9023  -0.552   1.207   6.080  1.0426  1.4579  0.1899
   93SAPC  C220 9024  -0.599   1.069   5.909  0.1569 -0.1436 -0.4623
   93SAPC  H20R 9025  -0.661   1.011   5.981  1.8516 -1.5791 -0.0973
   93SAPC  H20S 9026  -0.540   1.004   5.841  1.6795  0.4080  0.2856
   93SAPC  H20T 9027  -0.664   1.135   5.848  0.1391  0.8176  0.5546
   93SAPC   C33 9028   0.556   0.775   7.122 -0.0006  0.6054 -0.2326
   93SAPC   H3X 9029   0.453   0.772   7.165  0.2542 -0.9406  0.3248
   93SAPC   H3Y 9030   0.597   0.677   7.089  0.8910  1.2688 -1.1536
   93SAPC   C34 9031   0.559   0.860   6.997  0.0614 -0.2667  0.6258
   93SAPC   H4X 9032   0.664   0.864   6.962 -0.4293  2.0057 -0.8018
   93SAPC   H4Y 9033   0.538   0.961   7.036 -1.0024 -0.5972  0.9413
   93SAPC   C35 9034   0.468   0.815   6.884 -0.4602 -0.3588  0.9114
   93SAPC   H5X 9035   0.484   0.709   6.857 -1.1358 -0.1503 -0.3510
   93SAPC   H5Y 9036   0.498   0.874   6.795 -2.5560  0.0003  0.4019
   93SAPC   C36 9037   0.323   0.829   6.911 -0.5916  0.0334  0.4692
   93SAPC   H6X 9038   0.300   0.926   6.961  1.8925 -0.9063  3.7445
   93SAPC   H6Y 9039   0.300   0.748   6.983 -0.0542 -1.3613 -0.8660
   93SAPC   C37 9040   0.237   0.807   6.788 -0.1776 -1.0285  0.0995
   93SAPC   H7X 9041   0.261   0.878   6.706  0.6929 -2.6911 -1.1381
   93SAPC   H7Y 9042   0.134   0.834   6.819  0.9541  1.3218  2.2369
   93SAPC   C38 9043   0.235   0.666   6.725 -0.4244 -0.0362 -0.5994
   93SAPC   H8X 9044   0.189   0.598   6.800 -0.0001  0.7374  0.3987
   93SAPC   H8Y 9045   0.344   0.651   6.718 -0.5744 -3.1735  1.6250
   93SAPC   C39 9046   0.156   0.657   6.601 -0.2333  0.7162 -0.0291
   93SAPC   H9X 9047   0.046   0.672   6.604 -0.6794 -1.6018 -1.8564
   93SAPC   H9Y 9048   0.157   0.552   6.565  1.0385  0.9891 -0.8722
   93SAPC  C310 9049   0.216   0.733   6.490 -0.6082  0.6445 -0.3321
   93SAPC  H10X 9050   0.323   0.705   6.479 -1.0603 -1.3118 -0.1024
   93SAPC  H10Y 9051   0.200   0.842   6.508 -1.9658  0.0118  3.0085
   93SAPC  C311 9052   0.146   0.696   6.363 -0.1171  0.3712  0.6818
   93SAPC  H11X 9053   0.042   0.736   6.365 -0.0197  0.6927 -0.1719
   93SAPC  H11Y 9054   0.144   0.586   6.355 -0.5994  0.2898  1.7569
   93SAPC  C312 9055   0.222   0.748   6.245 -0.4056  0.1420  0.2915
   93SAPC  H12X 9056   0.326   0.707   6.240  0.3476  2.0686 -0.6246
   93SAPC  H12Y 9057   0.234   0.858   6.242  3.0811 -0.1379 -0.3242
   93SAPC  C313 9058   0.157   0.724   6.111  0.0340 -0.5812 -0.2789
   93SAPC  H13X 9059   0.078   0.801   6.104  0.0383 -0.6899 -1.8334
   93SAPC  H13Y 9060   0.104   0.629   6.091 -0.7840  0.0667 -1.3083
   93SAPC  C314 9061   0.263   0.770   6.009 -0.0912 -0.4377  0.1369
   93SAPC  H14X 9062   0.329   0.682   5.992  0.8469 -0.4993  3.4006
   93SAPC  H14Y 9063   0.319   0.853   6.056 -0.1724 -0.2636 -0.0726
   93SAPC  C315 9064   0.213   0.815   5.867 -0.0044  0.6335 -0.7400
   93SAPC  H15X 9065   0.305   0.846   5.813 -0.3513 -1.2029 -2.4752
   93SAPC  H15Y 9066   0.139   0.898   5.873  0.7326  1.2336  0.3444
   93SAPC  C316 9067   0.154   0.699   5.776  0.1533  1.0609  0.2521
   93SAPC  H16X 9068   0.145   0.742   5.674 -3.3353  1.6738  0.6861
   93SAPC  H16Y 9069   0.050   0.678   5.808  0.4922  0.0940  0.7558
   93SAPC  C317 9070   0.224   0.564   5.782 -0.2997 -0.1624 -0.1187
   93SAPC  H17X 9071   0.229   0.524   5.886  0.0487  0.5836  0.1587
   93SAPC  H17Y 9072   0.329   0.581   5.751 -0.6468  1.7856 -0.3122
   93SAPC  C318 9073   0.150   0.455   5.701  0.0430  0.1156  0.4851
   93SAPC  H18X 9074   0.041   0.461   5.723 -0.2806 -0.4415 -0.8618
   93SAPC  H18Y 9075   0.192   0.353   5.719 -0.8158 -0.6651 -1.5868
   93SAPC  H18Z 9076   0.165   0.489   5.596 -0.0252  0.5890  0.6280
   94SAPC     N 9077   2.911   6.293   8.209 -0.0855  0.1179 -0.0735
   94SAPC   C12 9078   2.803   6.286   8.098 -0.7783  0.2951 -0.6686
   94SAPC  H12A 9079   2.802   6.384   8.052 -2.8193  0.8609  0.4541
   94SAPC  H12B 9080   2.708   6.269   8.146  0.4017  0.0207  1.7464
   94SAPC   C13 9081   2.874   6.414   8.294 -0.0615 -0.6257 -0.1179
   94SAPC  H13A 9082   2.791   6.397   8.361  0.7185  0.4342  1.1648
   94SAPC  H13B 9083   2.951   6.435   8.368 -0.8210 -0.6008  0.6874
   94SAPC  H13C 9084   2.865   6.499   8.228  0.2152 -1.0264 -0.6747
   94SAPC   C14 9085   2.903   6.172   8.297 -0.0193 -0.3896 -0.0148
   94SAPC  H14A 9086   2.980   6.176   8.372  0.4894  1.4918 -0.6019
   94SAPC  H14B 9087   2.808   6.163   8.348 -0.3040 -0.0882 -0.4777
   94SAPC  H14C 9088   2.914   6.078   8.244 -1.9016  0.2696 -1.7211
   94SAPC   C15 9089   3.046   6.312   8.147  0.0132  0.1581  0.0760
   94SAPC  H15A 9090   3.080   6.218   8.106  0.3686 -0.1549  1.0510
   94SAPC  H15B 9091   3.034   6.389   8.073  2.8667  0.9568  0.3440
   94SAPC  H15C 9092   3.113   6.352   8.222 -0.0889 -1.0403  0.8453
   94SAPC   C11 9093   2.825   6.179   7.994 -0.0051 -0.2064 -0.2398
   94SAPC  H11A 9094   2.919   6.192   7.936 -0.6798  0.1851 -1.2761
   94SAPC  H11B 9095   2.741   6.206   7.926 -1.1063  0.1804  1.2338
   94SAPC     P 9096   2.850   5.914   7.956 -0.2971  0.2637  0.2191
   94SAPC   O13 9097   2.979   5.860   8.005 -0.4560 -0.0268  0.1431
   94SAPC   O14 9098   2.740   5.818   7.957  0.1860  0.5374  0.5151
   94SAPC   O12 9099   2.807   6.047   8.037 -0.3953 -0.1066  0.5059
   94SAPC   O11 9100   2.871   5.958   7.805 -0.3854  0.3334 -0.3538
   94SAPC    C1 9101   2.808   5.877   7.705 -0.2540 -0.2162 -0.1282
   94SAPC    HA 9102   2.709   5.836   7.737  0.4060 -0.6631  1.4656
   94SAPC    HB 9103   2.791   5.940   7.615 -0.0656  2.8255  1.8260
   94SAPC    C2 9104   2.902   5.762   7.660  0.0784 -0.2488  0.3517
   94SAPC    HS 9105   2.928   5.698   7.747  0.8050  0.4394  0.6478
   94SAPC   O21 9106   3.026   5.825   7.621 -0.1534  0.6766  0.2315
   94SAPC   C21 9107   3.125   5.754   7.594  0.4818  0.6715 -0.3670
   94SAPC   O22 9108   3.139   5.635   7.626  0.2673  0.0762  0.0536
   94SAPC   C22 9109   3.236   5.829   7.521 -0.6813  0.3665 -0.2334
   94SAPC   H2R 9110   3.217   5.938   7.512 -0.0872  0.5737  0.7472
   94SAPC   H2S 9111   3.328   5.823   7.584 -0.4722  1.5380 -0.3979
   94SAPC    C3 9112   2.836   5.667   7.561 -0.2364  0.4496  0.3706
   94SAPC    HX 9113   2.744   5.626   7.607 -1.7616  1.4394 -1.6382
   94SAPC    HY 9114   2.909   5.584   7.551  1.0511  1.5212  0.5862
   94SAPC   O31 9115   2.804   5.729   7.429  0.1933 -0.6532 -0.0800
   94SAPC   C31 9116   2.895   5.709   7.333  0.6714 -0.0147  0.0268
   94SAPC   O32 9117   2.978   5.619   7.334  0.1869 -0.2526  0.1678
   94SAPC   C32 9118   2.889   5.808   7.224 -0.8020  0.1595  0.2669
   94SAPC   H2X 9119   2.992   5.847   7.209 -0.8305  0.7679  1.5291
   94SAPC   H2Y 9120   2.822   5.890   7.257  0.1209  0.9466  0.2560
   94SAPC   C23 9121   3.282   5.776   7.379  1.0679  0.2012  0.5710
   94SAPC   H3R 9122   3.194   5.765   7.312  0.6664  3.0442  0.4876
   94SAPC   H3S 9123   3.326   5.674   7.381 -0.7877 -0.6479  0.3401
   94SAPC   C24 9124   3.375   5.882   7.305 -0.3107 -0.4826 -0.0037
   94SAPC   H4R 9125   3.433   5.924   7.390 -1.4948 -1.4910  1.3707
   94SAPC   H4S 9126   3.305   5.963   7.279  0.0616 -0.4270 -0.8469
   94SAPC   C25 9127   3.444   5.819   7.190  0.1867 -0.4896 -0.1152
   94SAPC   H5R 9128   3.516   5.739   7.212  1.0631  0.4248  0.4541
   94SAPC   C26 9129   3.425   5.855   7.064 -0.4243  0.4762  0.0455
   94SAPC   H6R 9130   3.482   5.800   6.988  0.7549  0.4872  0.8932
   94SAPC   C27 9131   3.332   5.964   7.022 -0.2503 -0.0869 -0.0651
   94SAPC   H7R 9132   3.391   6.055   7.043 -0.2271 -0.3118  0.8479
   94SAPC   H7S 9133   3.235   5.980   7.073 -1.6466  1.1695 -2.8705
   94SAPC   C28 9134   3.306   5.960   6.868 -0.1501 -0.0886 -0.7064
   94SAPC   H8R 9135   3.220   5.899   6.834  0.5507 -0.9930 -0.8853
   94SAPC   C29 9136   3.378   6.023   6.774  0.0642  0.1314  0.0855
   94SAPC   H9R 9137   3.353   6.013   6.668 -1.3608  3.2265  0.0025
   94SAPC  C210 9138   3.500   6.108   6.800  0.3315  0.3632 -0.3211
   94SAPC  H10R 9139   3.555   6.087   6.894  2.5447  2.9130 -0.9258
   94SAPC  H10S 9140   3.468   6.210   6.832 -1.0298 -0.3951  0.8633
   94SAPC  C211 9141   3.602   6.116   6.690  0.1881  0.5679  0.4819
   94SAPC  H11R 9142   3.666   6.027   6.684 -0.0217  0.5140 -1.3493
   94SAPC  C212 9143   3.610   6.213   6.597 -0.6138 -0.1707  0.3641
   94SAPC  H12R 9144   3.681   6.200   6.514 -1.3334 -1.8422 -0.0302
   94SAPC  C213 9145   3.528   6.336   6.601  0.0209 -0.0575  0.7168
   94SAPC  H13R 9146   3.526   6.375   6.705 -0.9425 -2.8788  1.8634
   94SAPC  H13S 9147   3.422   6.311   6.580 -0.7231  3.3773 -0.1739
   94SAPC  C214 9148   3.578   6.432   6.496  0.5823  0.4007  0.6549
   94SAPC  H14R 9149   3.644   6.515   6.522  0.4609  0.5478  0.4988
   94SAPC  C215 9150   3.539   6.428   6.363 -0.0347  0.8961 -0.6329
   94SAPC  H15R 9151   3.570   6.504   6.290  2.4068 -0.1300 -0.7655
   94SAPC  C216 9152   3.422   6.347   6.301  0.0479  0.1603  0.1239
   94SAPC  H16R 9153   3.397   6.404   6.209 -0.8529  2.2620  1.6085
   94SAPC  H16S 9154   3.329   6.348   6.361 -1.3348 -4.5608 -1.4671
   94SAPC  C217 9155   3.438   6.202   6.268 -0.2452 -0.0676 -0.2234
   94SAPC  H17R 9156   3.460   6.156   6.367  0.4550  2.3201  0.7852
   94SAPC  H17S 9157   3.526   6.197   6.200  0.5281  1.2437  0.6445
   94SAPC  C218 9158   3.323   6.132   6.194  0.0368  0.8668  1.0433
   94SAPC  H18R 9159   3.350   6.025   6.179 -1.9687  0.5587 -0.8653
   94SAPC  H18S 9160   3.315   6.182   6.095  2.6996 -0.7604 -0.0981
   94SAPC  C219 9161   3.192   6.134   6.280 -0.3471  0.0464 -0.5896
   94SAPC  H19R 9162   3.110   6.069   6.243 -2.3898  0.2784  2.9952
   94SAPC  H19S 9163   3.166   6.241   6.277  0.0240  0.1388 -0.5544
   94SAPC  C220 9164   3.218   6.092   6.433 -0.0893  0.1661 -0.1102
   94SAPC  H20R 9165   3.274   5.996   6.435  1.8033  1.2069 -0.3580
   94SAPC  H20S 9166   3.118   6.071   6.476  0.0533 -2.5350 -0.9385
   94SAPC  H20T 9167   3.267   6.170   6.496 -0.3066 -0.1835  0.5040
   94SAPC   C33 9168   2.836   5.745   7.098  0.4267 -0.5533  0.1647
   94SAPC   H3X 9169   2.727   5.723   7.107  0.3179  0.5830  2.1744
   94SAPC   H3Y 9170   2.894   5.653   7.074  0.8184  0.0710 -1.3869
   94SAPC   C34 9171   2.859   5.835   6.973 -0.2844 -0.1992 -0.2104
   94SAPC   H4X 9172   2.969   5.843   6.962 -0.3415  2.4639  0.5447
   94SAPC   H4Y 9173   2.809   5.931   6.997 -1.3006 -0.6817 -0.3348
   94SAPC   C35 9174   2.771   5.785   6.854  0.0922  0.8193 -0.0369
   94SAPC   H5X 9175   2.668   5.775   6.894  0.6242 -0.3641  1.1035
   94SAPC   H5Y 9176   2.807   5.686   6.820  1.7797  0.8523  1.4843
   94SAPC   C36 9177   2.770   5.886   6.739 -0.5333 -0.5425  0.6781
   94SAPC   H6X 9178   2.873   5.923   6.719 -0.2228 -2.1582 -0.9544
   94SAPC   H6Y 9179   2.704   5.969   6.774  0.9295  0.5760  0.8640
   94SAPC   C37 9180   2.734   5.829   6.603  0.0517  1.0092 -0.9532
   94SAPC   H7X 9181   2.638   5.774   6.613  0.6531  0.1149  0.0882
   94SAPC   H7Y 9182   2.804   5.747   6.575 -1.0942  0.2984 -1.8490
   94SAPC   C38 9183   2.738   5.934   6.494  0.2180 -0.0763  0.6781
   94SAPC   H8X 9184   2.842   5.973   6.497  1.3542 -2.4593 -2.4932
   94SAPC   H8Y 9185   2.665   6.017   6.508  0.3673  0.1169  0.3166
   94SAPC   C39 9186   2.721   5.869   6.358 -0.3444  0.2601  0.3066
   94SAPC   H9X 9187   2.621   5.819   6.354  1.1544 -3.3137  2.7806
   94SAPC   H9Y 9188   2.796   5.787   6.353  1.0860  1.6008 -2.4267
   94SAPC  C310 9189   2.738   5.953   6.233  0.7504 -0.2076  0.6833
   94SAPC  H10X 9190   2.832   6.013   6.231  0.8361 -0.3617 -0.9034
   94SAPC  H10Y 9191   2.649   6.021   6.229  1.6132  0.9057 -2.4322
   94SAPC  C311 9192   2.731   5.865   6.110 -0.0968  0.1005  0.4148
   94SAPC  H11X 9193   2.812   5.789   6.114  0.3054  0.4006 -1.1495
   94SAPC  H11Y 9194   2.764   5.925   6.022  0.1382 -0.1990  0.2963
   94SAPC  C312 9195   2.601   5.787   6.086 -0.5333  0.4007 -0.4896
   94SAPC  H12X 9196   2.581   5.722   6.174 -0.6013 -0.0509 -0.8312
   94SAPC  H12Y 9197   2.623   5.727   5.995 -0.4011  3.5689 -2.7181
   94SAPC  C313 9198   2.481   5.867   6.055 -0.4559 -0.0687 -0.5543
   94SAPC  H13X 9199   2.513   5.933   5.971  0.1903 -0.2922 -0.4812
   94SAPC  H13Y 9200   2.455   5.941   6.134  0.5379 -0.2878 -0.0179
   94SAPC  C314 9201   2.356   5.780   6.030  0.5146  0.4247  0.7020
   94SAPC  H14X 9202   2.303   5.746   6.121  0.1691  0.1816  0.4122
   94SAPC  H14Y 9203   2.379   5.693   5.964 -1.4106  1.4277 -1.3967
   94SAPC  C315 9204   2.260   5.855   5.943  0.2436 -0.1683  0.2543
   94SAPC  H15X 9205   2.177   5.787   5.916 -0.3534  1.6792 -3.0099
   94SAPC  H15Y 9206   2.303   5.892   5.848 -1.0577 -1.6217 -0.9380
   94SAPC  C316 9207   2.209   5.976   6.025 -0.0188  0.2997  0.1369
   94SAPC  H16X 9208   2.293   6.041   6.056  2.4675 -2.4173 -0.4251
   94SAPC  H16Y 9209   2.149   5.939   6.111 -1.2653  0.9040 -0.4389
   94SAPC  C317 9210   2.104   6.043   5.939  0.2851 -0.0082  0.2365
   94SAPC  H17X 9211   2.044   6.117   5.997 -0.4022  1.1574 -1.8362
   94SAPC  H17Y 9212   2.035   5.962   5.906 -0.6267 -0.1090  2.2022
   94SAPC  C318 9213   2.172   6.120   5.823  0.3713  0.1068  0.4020
   94SAPC  H18X 9214   2.225   6.051   5.753 -1.5503 -1.9129  0.8178
   94SAPC  H18Y 9215   2.239   6.199   5.864  1.4105 -1.0378  0.9744
   94SAPC  H18Z 9216   2.084   6.165   5.773 -0.4398  0.6545  2.2339
   95SAPC     N 9217   5.330   6.460   3.252 -0.5996 -0.0269  0.0470
   95SAPC   C12 9218   5.274   6.383   3.372  0.1480  0.4137  0.2322
   95SAPC  H12A 9219   5.345   6.308   3.400  0.6106  1.1026  0.9457
   95SAPC  H12B 9220   5.188   6.326   3.339  0.2715  0.4512 -0.1622
   95SAPC   C13 9221   5.225   6.554   3.195 -0.5105  0.2682 -0.2416
   95SAPC  H13A 9222   5.192   6.621   3.273  0.6334 -0.2161  0.6832
   95SAPC  H13B 9223   5.260   6.624   3.120 -0.0859  2.2657  1.7258
   95SAPC  H13C 9224   5.138   6.499   3.161 -1.7755  1.8860  0.2642
   95SAPC   C14 9225   5.452   6.534   3.283  0.3500 -0.7178  0.8599
   95SAPC  H14A 9226   5.432   6.596   3.369 -0.0163 -1.0535  1.0149
   95SAPC  H14B 9227   5.538   6.469   3.294 -0.1564 -1.2462  1.7855
   95SAPC  H14C 9228   5.470   6.600   3.199 -0.4712 -1.4038  0.1365
   95SAPC   C15 9229   5.360   6.352   3.148  0.2740  0.0963  0.1213
   95SAPC  H15A 9230   5.418   6.395   3.068  0.5193  1.4862  1.0093
   95SAPC  H15B 9231   5.418   6.278   3.200 -1.9417  0.1513  2.8963
   95SAPC  H15C 9232   5.276   6.301   3.103 -0.3672  2.8103 -2.0551
   95SAPC   C11 9233   5.228   6.465   3.499  0.0565  0.1376  0.2075
   95SAPC  H11A 9234   5.321   6.512   3.539  1.7104 -0.7003 -2.4139
   95SAPC  H11B 9235   5.186   6.396   3.576 -2.7683  0.8239 -0.6201
   95SAPC     P 9236   4.978   6.514   3.432 -0.1346 -0.1807  0.2999
   95SAPC   O13 9237   4.928   6.592   3.312 -0.5555 -0.3380 -0.3892
   95SAPC   O14 9238   4.970   6.370   3.412  0.5023 -0.3174 -0.6372
   95SAPC   O12 9239   5.125   6.560   3.473 -0.2608  0.4161  0.3231
   95SAPC   O11 9240   4.900   6.536   3.568 -0.1842 -0.4212 -0.0523
   95SAPC    C1 9241   4.901   6.654   3.644 -0.0461 -0.2349 -0.0566
   95SAPC    HA 9242   4.917   6.744   3.581 -0.7083 -0.0635  0.0126
   95SAPC    HB 9243   4.802   6.667   3.693  0.3834 -1.1161  1.0815
   95SAPC    C2 9244   5.015   6.658   3.749  0.2540 -0.4028  0.1240
   95SAPC    HS 9245   5.110   6.648   3.692 -0.7438 -1.1769 -1.4666
   95SAPC   O21 9246   5.003   6.541   3.827  0.2384 -0.2449  0.6286
   95SAPC   C21 9247   5.103   6.498   3.901  0.4707  0.2647  0.2339
   95SAPC   O22 9248   5.215   6.541   3.909 -0.4767 -0.1782 -0.0213
   95SAPC   C22 9249   5.052   6.371   3.984  0.3940  0.6527  0.9287
   95SAPC   H2R 9250   4.942   6.368   3.976  0.4326 -1.0626  0.6518
   95SAPC   H2S 9251   5.096   6.281   3.935 -0.3026 -0.1884  1.8091
   95SAPC    C3 9252   5.015   6.790   3.836 -0.2838 -0.5687  0.6574
   95SAPC    HX 9253   5.037   6.871   3.764 -1.4969 -0.6773  0.1508
   95SAPC    HY 9254   5.106   6.787   3.901  0.2290 -0.2809 -0.0406
   95SAPC   O31 9255   4.905   6.801   3.925  0.3671 -0.0807  0.7761
   95SAPC   C31 9256   4.900   6.920   3.983  1.4876  0.3480 -0.2835
   95SAPC   O32 9257   4.962   7.018   3.954  0.2864 -0.4950  0.2299
   95SAPC   C32 9258   4.784   6.912   4.088  0.4594  0.3977  1.0925
   95SAPC   H2X 9259   4.691   6.896   4.029  1.6658  0.4716 -0.9353
   95SAPC   H2Y 9260   4.781   7.012   4.136 -0.4639  2.1676 -2.3072
   95SAPC   C23 9261   5.085   6.380   4.134 -0.2465 -0.9313 -0.1494
   95SAPC   H3R 9262   5.192   6.409   4.143 -0.7037  0.8259  0.1292
   95SAPC   H3S 9263   5.077   6.276   4.171  0.0044 -0.1661  2.2426
   95SAPC   C24 9264   4.999   6.475   4.215 -0.3764 -0.1870 -0.0932
   95SAPC   H4R 9265   4.893   6.444   4.217 -1.2249  2.4956  0.3611
   95SAPC   H4S 9266   4.990   6.573   4.164  1.3112  0.6331  1.0553
   95SAPC   C25 9267   5.072   6.497   4.348 -0.1746 -0.0063  0.3707
   95SAPC   H5R 9268   5.166   6.554   4.341  0.7087 -1.5385 -1.1286
   95SAPC   C26 9269   5.050   6.435   4.467 -0.9033  0.3589  0.3361
   95SAPC   H6R 9270   5.112   6.480   4.547  4.2586 -1.0319 -2.4379
   95SAPC   C27 9271   4.942   6.340   4.498  0.0904  0.4720  0.8181
   95SAPC   H7R 9272   4.850   6.377   4.448  1.0928 -0.5955 -2.0542
   95SAPC   H7S 9273   4.924   6.340   4.607  2.6588  0.9360  1.3003
   95SAPC   C28 9274   4.953   6.200   4.457  0.1524  0.1586  0.2034
   95SAPC   H8R 9275   5.038   6.179   4.389 -0.4690 -2.2879  0.0664
   95SAPC   C29 9276   4.851   6.113   4.475  0.6477 -0.9804 -0.0069
   95SAPC   H9R 9277   4.856   6.016   4.423 -0.5559 -0.8451 -0.4060
   95SAPC  C210 9278   4.725   6.158   4.540  0.3008  0.8414 -0.7094
   95SAPC  H10R 9279   4.673   6.218   4.462 -0.4344 -1.3344 -1.9924
   95SAPC  H10S 9280   4.749   6.205   4.637 -0.1657 -0.7572  0.2197
   95SAPC  C211 9281   4.626   6.041   4.563 -0.6940 -0.7500 -0.0995
   95SAPC  H11R 9282   4.556   6.020   4.481 -0.2395 -1.9435 -0.1970
   95SAPC  C212 9283   4.632   5.959   4.671  0.5425  0.7207  0.5970
   95SAPC  H12R 9284   4.563   5.872   4.669  1.4574 -0.0318  0.9540
   95SAPC  C213 9285   4.719   5.954   4.789 -0.1705  0.7840  0.5764
   95SAPC  H13R 9286   4.788   6.042   4.785  0.9009 -0.0317  0.7642
   95SAPC  H13S 9287   4.796   5.875   4.780 -0.6933  0.3177  0.1641
   95SAPC  C214 9288   4.644   5.946   4.916  0.3731 -0.9679 -0.8428
   95SAPC  H14R 9289   4.567   6.022   4.933 -0.2264 -1.8285  0.4472
   95SAPC  C215 9290   4.671   5.858   5.018 -0.9562  0.1094  0.5036
   95SAPC  H15R 9291   4.625   5.871   5.117 -2.3965 -0.5293 -0.0505
   95SAPC  C216 9292   4.781   5.756   5.008  0.1246 -0.1365 -0.1504
   95SAPC  H16R 9293   4.876   5.814   5.000  1.0059 -1.5118  0.0513
   95SAPC  H16S 9294   4.760   5.702   4.914 -2.9522  0.5133  0.0581
   95SAPC  C217 9295   4.773   5.680   5.141  0.2478  0.0384 -0.7168
   95SAPC  H17R 9296   4.778   5.743   5.232  1.3705 -1.0337 -0.0004
   95SAPC  H17S 9297   4.858   5.607   5.146  0.5810  0.4394 -0.4609
   95SAPC  C218 9298   4.645   5.592   5.168  0.3426 -0.2340  0.1170
   95SAPC  H18R 9299   4.634   5.513   5.091  0.6794 -0.3157  0.1509
   95SAPC  H18S 9300   4.552   5.652   5.161 -0.4417 -1.2074  1.7130
   95SAPC  C219 9301   4.648   5.524   5.309  0.3177 -0.5682  1.1137
   95SAPC  H19R 9302   4.655   5.604   5.386 -0.0015 -0.9898  1.5783
   95SAPC  H19S 9303   4.733   5.452   5.310  1.6510  0.5848 -3.3391
   95SAPC  C220 9304   4.526   5.445   5.327  0.5748  0.2615 -0.0265
   95SAPC  H20R 9305   4.435   5.500   5.294  1.6870  1.7552 -0.7407
   95SAPC  H20S 9306   4.507   5.417   5.433  0.5115  0.3301 -0.0194
   95SAPC  H20T 9307   4.536   5.348   5.275 -1.8902 -1.0074  1.6720
   95SAPC   C33 9308   4.815   6.809   4.200  0.2392  0.2736 -0.5905
   95SAPC   H3X 9309   4.911   6.823   4.255  0.0698 -1.5501  0.2549
   95SAPC   H3Y 9310   4.814   6.706   4.159 -0.5008  0.5257 -1.2151
   95SAPC   C34 9311   4.712   6.801   4.313 -0.0638 -0.3355 -1.3703
   95SAPC   H4X 9312   4.610   6.786   4.272 -0.3248 -2.4541 -0.0729
   95SAPC   H4Y 9313   4.716   6.904   4.356 -0.4538 -0.7121 -0.4087
   95SAPC   C35 9314   4.742   6.705   4.437 -0.3493 -0.3218  0.4500
   95SAPC   H5X 9315   4.853   6.698   4.448 -0.0489  0.8677 -1.4002
   95SAPC   H5Y 9316   4.707   6.604   4.406  0.3568 -0.0919 -1.2080
   95SAPC   C36 9317   4.680   6.759   4.568  0.3787 -0.2520  0.0637
   95SAPC   H6X 9318   4.569   6.757   4.560  0.4175 -2.1187 -0.5711
   95SAPC   H6Y 9319   4.703   6.865   4.593 -1.3578 -0.1887  1.6604
   95SAPC   C37 9320   4.709   6.677   4.693 -0.5378 -0.0874 -0.1956
   95SAPC   H7X 9321   4.691   6.737   4.785 -0.7800 -0.8943  0.2855
   95SAPC   H7Y 9322   4.818   6.654   4.690  0.1175  2.3847  1.5235
   95SAPC   C38 9323   4.619   6.550   4.717  0.0177 -0.2628  0.7165
   95SAPC   H8X 9324   4.645   6.469   4.646  2.0474 -1.0245  2.2584
   95SAPC   H8Y 9325   4.513   6.579   4.698  0.3865  1.0793  0.5967
   95SAPC   C39 9326   4.623   6.504   4.860 -0.1974  0.0617 -0.3500
   95SAPC   H9X 9327   4.645   6.582   4.935 -0.3040 -0.0371 -0.2145
   95SAPC   H9Y 9328   4.702   6.426   4.875  0.5548  0.9236  0.2646
   95SAPC  C310 9329   4.497   6.434   4.907 -0.8070  0.5034  0.3420
   95SAPC  H10X 9330   4.474   6.355   4.833  2.0595 -0.7105  0.6301
   95SAPC  H10Y 9331   4.412   6.506   4.913 -1.8453 -0.6857  0.2046
   95SAPC  C311 9332   4.512   6.353   5.034 -0.1616  0.4214 -0.3018
   95SAPC  H11X 9333   4.564   6.409   5.115  1.2659  0.1484 -0.9943
   95SAPC  H11Y 9334   4.590   6.275   5.016 -1.3259 -0.9581  0.4940
   95SAPC  C312 9335   4.379   6.304   5.085  0.5640 -0.4240 -0.3202
   95SAPC  H12X 9336   4.345   6.230   5.009 -1.0046  0.8171 -0.8927
   95SAPC  H12Y 9337   4.312   6.392   5.096  1.1630  0.0990 -0.7752
   95SAPC  C313 9338   4.387   6.237   5.220 -0.0016 -0.4351 -0.3858
   95SAPC  H13X 9339   4.280   6.234   5.249  0.4963 -0.5059  1.5695
   95SAPC  H13Y 9340   4.446   6.297   5.293 -0.8328  1.2097 -1.0152
   95SAPC  C314 9341   4.449   6.096   5.204 -0.3416 -0.2202  0.0307
   95SAPC  H14X 9342   4.557   6.107   5.179 -0.5293 -0.8042 -1.1354
   95SAPC  H14Y 9343   4.405   6.051   5.112  0.0004  0.7712 -0.6360
   95SAPC  C315 9344   4.430   5.995   5.323  0.1892 -0.8748  0.2442
   95SAPC  H15X 9345   4.423   5.894   5.277 -0.8153 -0.9163  0.4747
   95SAPC  H15Y 9346   4.332   6.019   5.371  0.6154 -0.0666  0.7387
   95SAPC  C316 9347   4.549   6.001   5.418 -0.6438 -0.0146  0.2954
   95SAPC  H16X 9348   4.545   6.103   5.462  1.1398 -0.4424  1.5415
   95SAPC  H16Y 9349   4.645   6.004   5.363 -0.1084  0.3354  1.2393
   95SAPC  C317 9350   4.549   5.904   5.536 -0.8522  0.0318 -0.2439
   95SAPC  H17X 9351   4.515   5.810   5.488 -2.5797 -0.0644  1.0441
   95SAPC  H17Y 9352   4.471   5.925   5.613 -0.3616 -2.2872  0.9817
   95SAPC  C318 9353   4.684   5.908   5.604  0.5550  0.1957  0.5759
   95SAPC  H18X 9354   4.697   5.848   5.696  0.1962  1.3565  1.4168
   95SAPC  H18Y 9355   4.698   6.013   5.639 -0.4397  0.4482  0.2741
   95SAPC  H18Z 9356   4.762   5.883   5.529 -1.2931 -0.9819 -1.0545
   96SAPC     N 9357   2.737   1.611   3.543 -0.7679  0.5255  0.2394
   96SAPC   C12 9358   2.732   1.712   3.652 -0.5077  0.2696 -0.4623
   96SAPC  H12A 9359   2.781   1.672   3.740 -1.2687  4.0559  1.9166
   96SAPC  H12B 9360   2.630   1.727   3.684 -1.1420  0.2653 -2.3772
   96SAPC   C13 9361   2.685   1.476   3.572 -0.5976 -0.0852 -0.1566
   96SAPC  H13A 9362   2.733   1.439   3.662  0.4612  2.8141  0.5805
   96SAPC  H13B 9363   2.579   1.483   3.592 -0.0821  0.9028  2.8177
   96SAPC  H13C 9364   2.707   1.411   3.489  0.4668  0.2430 -0.1370
   96SAPC   C14 9365   2.654   1.667   3.429  0.6212  0.3341  0.4641
   96SAPC  H14A 9366   2.653   1.597   3.347  1.7420  0.0029  0.7047
   96SAPC  H14B 9367   2.554   1.685   3.464  0.6995 -0.7599  1.3413
   96SAPC  H14C 9368   2.714   1.744   3.383  2.2447 -0.5191  1.0516
   96SAPC   C15 9369   2.880   1.587   3.493 -0.1439  0.2696 -0.2802
   96SAPC  H15A 9370   2.888   1.525   3.405  1.0557  0.0990 -0.0683
   96SAPC  H15B 9371   2.926   1.682   3.473  2.1662 -0.5478  0.7881
   96SAPC  H15C 9372   2.940   1.539   3.569 -1.3441  0.8763  1.1043
   96SAPC   C11 9373   2.797   1.849   3.636 -0.2086 -0.5438  0.6768
   96SAPC  H11A 9374   2.735   1.900   3.559  0.4121 -0.8012 -0.0068
   96SAPC  H11B 9375   2.900   1.850   3.593 -0.5392 -1.1524 -0.1500
   96SAPC     P 9376   2.651   1.948   3.817 -0.1503 -0.0528  0.1377
   96SAPC   O13 9377   2.559   1.996   3.711  0.5531  0.3282 -0.2428
   96SAPC   O14 9378   2.594   1.831   3.892 -0.1632 -0.1396  0.2512
   96SAPC   O12 9379   2.793   1.911   3.760 -0.0353 -0.4206 -0.2802
   96SAPC   O11 9380   2.677   2.064   3.915 -0.7178  0.9277  0.3690
   96SAPC    C1 9381   2.729   2.042   4.046  0.3619 -0.1686 -0.2319
   96SAPC    HA 9382   2.659   2.096   4.114 -0.7182 -0.6687 -0.9203
   96SAPC    HB 9383   2.727   1.937   4.082 -0.6489  0.5834  2.1689
   96SAPC    C2 9384   2.872   2.102   4.073 -1.0101  0.0697  0.1362
   96SAPC    HS 9385   2.939   2.077   3.989 -0.4710 -0.4122  0.7001
   96SAPC   O21 9386   2.931   2.036   4.187  0.4356  0.1486  0.1389
   96SAPC   C21 9387   3.067   2.033   4.201  0.2494 -0.3822 -0.2359
   96SAPC   O22 9388   3.144   2.075   4.120  0.2849 -0.1906 -0.0978
   96SAPC   C22 9389   3.096   1.959   4.330  0.3771 -0.5677 -0.3243
   96SAPC   H2R 9390   3.006   1.977   4.392  0.1748 -2.2086 -0.1162
   96SAPC   H2S 9391   3.082   1.850   4.317 -1.1141 -0.7522  2.1458
   96SAPC    C3 9392   2.856   2.253   4.090 -0.2501  0.1541  1.0239
   96SAPC    HX 9393   2.828   2.276   3.985  0.6035 -1.6732  0.3449
   96SAPC    HY 9394   2.958   2.291   4.112  0.5976 -0.1258 -1.9057
   96SAPC   O31 9395   2.754   2.295   4.181  0.0239 -0.7309 -0.2281
   96SAPC   C31 9396   2.795   2.295   4.312 -0.3080 -0.0704 -0.4754
   96SAPC   O32 9397   2.904   2.282   4.356  0.0970  0.2323 -0.6391
   96SAPC   C32 9398   2.673   2.307   4.404  0.2722  0.1293 -0.2767
   96SAPC   H2X 9399   2.583   2.259   4.360 -0.5610  0.6071  0.8703
   96SAPC   H2Y 9400   2.649   2.416   4.398  2.0385  0.8610  3.3265
   96SAPC   C23 9401   3.221   1.992   4.414  0.6160  0.1173  0.2390
   96SAPC   H3R 9402   3.223   2.102   4.431  0.7239 -0.2118  2.5503
   96SAPC   H3S 9403   3.308   1.973   4.346  0.4465  0.4324 -0.0675
   96SAPC   C24 9404   3.237   1.904   4.541 -0.3706 -0.4225 -1.1169
   96SAPC   H4R 9405   3.337   1.922   4.585 -1.5200 -1.0555  2.0042
   96SAPC   H4S 9406   3.236   1.795   4.522 -0.7566 -0.7292  0.4794
   96SAPC   C25 9407   3.143   1.935   4.653  0.3183 -0.2166  0.2282
   96SAPC   H5R 9408   3.063   2.005   4.623  0.6926  0.7422  1.4265
   96SAPC   C26 9409   3.156   1.891   4.778 -0.0975  0.4274 -0.2612
   96SAPC   H6R 9410   3.083   1.919   4.855 -0.6601 -0.8904 -0.3020
   96SAPC   C27 9411   3.272   1.809   4.826  0.3395 -0.2672 -0.1504
   96SAPC   H7R 9412   3.339   1.882   4.877  2.3433 -0.4159 -2.3960
   96SAPC   H7S 9413   3.343   1.762   4.755  0.4114 -0.3663 -0.0133
   96SAPC   C28 9414   3.223   1.706   4.918 -0.9818 -0.6507  0.0850
   96SAPC   H8R 9415   3.161   1.626   4.874 -1.3011 -0.3955  0.0742
   96SAPC   C29 9416   3.274   1.681   5.047  0.1067 -0.2090 -0.5789
   96SAPC   H9R 9417   3.231   1.600   5.109  1.9293 -1.9977 -1.5280
   96SAPC  C210 9418   3.361   1.773   5.129  0.1472  0.6218  0.3120
   96SAPC  H10R 9419   3.427   1.817   5.052 -1.1490 -1.0539 -1.8887
   96SAPC  H10S 9420   3.422   1.709   5.197  0.8893 -0.6222 -1.4534
   96SAPC  C211 9421   3.275   1.874   5.203  0.6368 -0.0556 -0.0351
   96SAPC  H11R 9422   3.246   1.956   5.136  0.4035 -2.0272 -2.4935
   96SAPC  C212 9423   3.245   1.877   5.335  0.0938  0.1610  0.6820
   96SAPC  H12R 9424   3.182   1.961   5.366 -1.1591 -0.4222 -0.2014
   96SAPC  C213 9425   3.284   1.773   5.435 -0.8430  0.2464 -0.1394
   96SAPC  H13R 9426   3.247   1.673   5.403  0.7805  0.3425 -2.6026
   96SAPC  H13S 9427   3.230   1.807   5.526 -0.7216  3.1542 -1.0598
   96SAPC  C214 9428   3.434   1.762   5.464  0.0334 -0.4288  0.2700
   96SAPC  H14R 9429   3.498   1.786   5.378 -0.7306 -1.4759 -0.6097
   96SAPC  C215 9430   3.497   1.704   5.568 -0.0878 -1.1512 -0.3053
   96SAPC  H15R 9431   3.607   1.698   5.576  0.0075  1.6617  4.7930
   96SAPC  C216 9432   3.424   1.670   5.696  1.0456  0.8677 -0.1188
   96SAPC  H16R 9433   3.436   1.560   5.707 -1.7026  0.3800 -1.1011
   96SAPC  H16S 9434   3.313   1.681   5.686  0.8748 -2.0668 -3.7222
   96SAPC  C217 9435   3.471   1.750   5.819  0.1966  0.1156 -0.0932
   96SAPC  H17R 9436   3.470   1.858   5.793  0.5700 -0.2448 -1.6700
   96SAPC  H17S 9437   3.575   1.717   5.840  0.8368  1.0769 -1.5983
   96SAPC  C218 9438   3.383   1.712   5.942  0.1356  0.3636 -0.9657
   96SAPC  H18R 9439   3.381   1.602   5.961 -1.5468  0.4298 -0.5533
   96SAPC  H18S 9440   3.276   1.728   5.917 -0.9695 -1.8002  1.8018
   96SAPC  C219 9441   3.430   1.787   6.072 -0.0645 -0.0764  0.1396
   96SAPC  H19R 9442   3.432   1.894   6.045 -2.6827  0.4735  1.8127
   96SAPC  H19S 9443   3.536   1.759   6.090  0.2031  0.8960  0.1026
   96SAPC  C220 9444   3.353   1.759   6.198  0.6057 -0.3845 -0.5054
   96SAPC  H20R 9445   3.245   1.780   6.179  0.8280  1.4886  0.0437
   96SAPC  H20S 9446   3.384   1.827   6.281 -1.8844  2.1260 -1.4554
   96SAPC  H20T 9447   3.358   1.650   6.220  0.7399  0.0550  1.9955
   96SAPC   C33 9448   2.678   2.265   4.552  0.3650 -0.5395  0.8031
   96SAPC   H3X 9449   2.784   2.263   4.586  0.5723  0.6908  0.2858
   96SAPC   H3Y 9450   2.631   2.164   4.559 -1.0174 -0.3917 -3.3552
   96SAPC   C34 9451   2.590   2.355   4.652 -0.2574 -0.3009 -0.2826
   96SAPC   H4X 9452   2.481   2.358   4.630 -0.0725  2.8731 -1.2447
   96SAPC   H4Y 9453   2.642   2.451   4.668 -4.0997  1.3772  4.6557
   96SAPC   C35 9454   2.598   2.298   4.794  0.0445 -0.8717  0.5388
   96SAPC   H5X 9455   2.706   2.285   4.812  0.9522  1.8872 -2.1378
   96SAPC   H5Y 9456   2.555   2.195   4.791 -1.5619 -0.2252  0.5081
   96SAPC   C36 9457   2.556   2.380   4.913  0.1773 -0.1781  0.5054
   96SAPC   H6X 9458   2.461   2.430   4.885 -0.0970 -0.8983  0.1102
   96SAPC   H6Y 9459   2.623   2.467   4.925 -0.0689  0.0812  0.0128
   96SAPC   C37 9460   2.550   2.298   5.045  0.3352 -0.2098  0.3678
   96SAPC   H7X 9461   2.483   2.210   5.032 -0.5831  0.6808 -1.2192
   96SAPC   H7Y 9462   2.511   2.367   5.123  1.4406 -0.9556  1.6199
   96SAPC   C38 9463   2.689   2.253   5.103  0.5194  0.0227  0.4545
   96SAPC   H8X 9464   2.735   2.348   5.136 -1.1368  1.1201 -0.2609
   96SAPC   H8Y 9465   2.751   2.212   5.021  0.6335 -3.7503  2.2143
   96SAPC   C39 9466   2.679   2.163   5.233 -0.2204 -0.5832  0.0679
   96SAPC   H9X 9467   2.630   2.066   5.207 -0.6012  0.0831 -1.8436
   96SAPC   H9Y 9468   2.621   2.223   5.306  3.5309  3.6958 -0.0401
   96SAPC  C310 9469   2.818   2.131   5.300  0.4803 -0.3682  0.0719
   96SAPC  H10X 9470   2.855   2.225   5.347  1.6442 -0.9423  0.3413
   96SAPC  H10Y 9471   2.896   2.099   5.227  1.0327 -1.6563  1.2008
   96SAPC  C311 9472   2.807   2.017   5.402 -0.2810  0.0749 -0.2385
   96SAPC  H11X 9473   2.879   1.938   5.372  0.0944 -0.5200  2.0702
   96SAPC  H11Y 9474   2.704   1.974   5.396 -0.0501 -0.4349 -0.7160
   96SAPC  C312 9475   2.836   2.069   5.540  0.2898 -0.6187  0.1362
   96SAPC  H12X 9476   2.800   1.994   5.614 -1.2869  0.6480  0.7196
   96SAPC  H12Y 9477   2.766   2.151   5.567  0.7731 -0.6266  1.5160
   96SAPC  C313 9478   2.986   2.115   5.569  0.5449  0.3744 -0.8178
   96SAPC  H13X 9479   3.007   2.191   5.490  1.6095 -0.0559 -0.9540
   96SAPC  H13Y 9480   3.046   2.025   5.547  0.9288  0.0334  1.3933
   96SAPC  C314 9481   3.017   2.166   5.709 -0.5569 -0.3199 -0.1265
   96SAPC  H14X 9482   2.961   2.101   5.779  0.3281 -0.0297  0.8744
   96SAPC  H14Y 9483   2.986   2.272   5.725  0.7464  0.0728 -0.0611
   96SAPC  C315 9484   3.161   2.163   5.739  0.3297  0.6279  0.2272
   96SAPC  H15X 9485   3.208   2.227   5.662  0.9618 -0.5200 -0.3722
   96SAPC  H15Y 9486   3.194   2.058   5.719  1.9102  1.2641 -0.6244
   96SAPC  C316 9487   3.186   2.205   5.882  0.5674 -0.2893 -0.5202
   96SAPC  H16X 9488   3.148   2.126   5.950  1.0100 -0.4294 -0.4268
   96SAPC  H16Y 9489   3.134   2.302   5.897  0.1069 -0.9077  2.5085
   96SAPC  C317 9490   3.337   2.212   5.915 -0.5363  0.0249  0.2376
   96SAPC  H17X 9491   3.383   2.295   5.857 -0.7353 -0.3067 -0.4064
   96SAPC  H17Y 9492   3.376   2.113   5.882 -0.6562  0.1039 -0.1423
   96SAPC  C318 9493   3.363   2.238   6.064 -0.4261  0.4628  0.0777
   96SAPC  H18X 9494   3.472   2.233   6.082 -0.2363 -3.4937 -1.2833
   96SAPC  H18Y 9495   3.318   2.166   6.136 -0.3632  1.5659  1.2569
   96SAPC  H18Z 9496   3.334   2.341   6.094 -0.1292 -0.0553  2.3156
   97SAPC     N 9497   6.517   6.470   3.247  0.1759  0.2704  0.2774
   97SAPC   C12 9498   6.633   6.512   3.337  0.4582  0.1372 -0.3463
   97SAPC  H12A 9499   6.630   6.620   3.343 -0.2729  0.0700  0.9223
   97SAPC  H12B 9500   6.724   6.491   3.282  0.3803 -0.7527 -0.1481
   97SAPC   C13 9501   6.534   6.338   3.182  0.0073 -0.7836  0.2633
   97SAPC  H13A 9502   6.544   6.256   3.251 -1.4815 -2.1914 -1.0823
   97SAPC  H13B 9503   6.462   6.310   3.106  0.6353 -0.9446 -0.2908
   97SAPC  H13C 9504   6.625   6.331   3.123 -0.8347 -1.1393 -1.0352
   97SAPC   C14 9505   6.389   6.485   3.326 -0.1180 -0.4555 -0.1301
   97SAPC  H14A 9506   6.308   6.449   3.265  0.7691  1.1577 -2.4188
   97SAPC  H14B 9507   6.386   6.435   3.422 -0.6821 -0.9632 -0.4104
   97SAPC  H14C 9508   6.374   6.591   3.340  3.0659 -0.1032  1.7970
   97SAPC   C15 9509   6.499   6.565   3.134  0.4845 -0.0079  0.1684
   97SAPC  H15A 9510   6.476   6.664   3.172 -0.0593  1.3292 -3.2851
   97SAPC  H15B 9511   6.587   6.573   3.072  0.8562 -0.3448  0.6435
   97SAPC  H15C 9512   6.415   6.528   3.077  2.1704 -1.9109 -1.2225
   97SAPC   C11 9513   6.630   6.442   3.475  0.1629  0.0721  0.4146
   97SAPC  H11A 9514   6.731   6.455   3.522  1.0997 -2.1598 -0.8224
   97SAPC  H11B 9515   6.621   6.332   3.466 -0.5327  0.1069  0.6312
   97SAPC     P 9516   6.533   6.657   3.617  0.4751  0.0144  0.4376
   97SAPC   O13 9517   6.593   6.749   3.522  0.2069 -0.0128  0.2069
   97SAPC   O14 9518   6.398   6.687   3.665  0.5517 -0.2372  0.8791
   97SAPC   O12 9519   6.533   6.504   3.558 -0.2869  0.1108 -0.5686
   97SAPC   O11 9520   6.619   6.649   3.748 -0.4164  0.8024 -0.0166
   97SAPC    C1 9521   6.602   6.526   3.820 -1.1982  0.1735  0.1706
   97SAPC    HA 9522   6.496   6.498   3.836 -0.8361 -1.9781 -0.9219
   97SAPC    HB 9523   6.656   6.445   3.766 -0.7610 -0.6041  1.7252
   97SAPC    C2 9524   6.678   6.529   3.954 -0.0595 -0.3020  0.3191
   97SAPC    HS 9525   6.680   6.428   3.999 -0.5647 -0.9679 -1.0856
   97SAPC   O21 9526   6.624   6.615   4.053 -0.6152 -0.2665  0.4051
   97SAPC   C21 9527   6.515   6.591   4.124 -0.1336 -0.5851 -0.0088
   97SAPC   O22 9528   6.455   6.483   4.111  0.2123 -0.1986 -0.2093
   97SAPC   C22 9529   6.485   6.699   4.223  0.1611  0.6410  0.2741
   97SAPC   H2R 9530   6.572   6.692   4.292  2.2561 -4.3879 -2.2877
   97SAPC   H2S 9531   6.494   6.802   4.182  1.2628  1.1883  1.8016
   97SAPC    C3 9532   6.826   6.571   3.937  0.5980  0.1466 -0.5980
   97SAPC    HX 9533   6.817   6.680   3.916 -0.2318  0.0168 -0.9469
   97SAPC    HY 9534   6.869   6.525   3.845  2.2356  2.4288 -1.0631
   97SAPC   O31 9535   6.902   6.519   4.057  0.4149 -0.1538 -0.0457
   97SAPC   C31 9536   7.021   6.578   4.074  0.1033  0.6058 -1.2864
   97SAPC   O32 9537   7.074   6.649   3.994 -0.4676  0.0896 -0.0055
   97SAPC   C32 9538   7.085   6.546   4.216  0.2081 -0.1423  0.1507
   97SAPC   H2X 9539   7.148   6.635   4.237  2.0373 -0.8198 -2.0149
   97SAPC   H2Y 9540   7.158   6.465   4.197  0.7917  0.1050  1.3118
   97SAPC   C23 9541   6.353   6.683   4.298  0.3124  0.3196  0.4127
   97SAPC   H3R 9542   6.349   6.584   4.348  0.9877  0.3103  0.4500
   97SAPC   H3S 9543   6.270   6.681   4.224 -0.6312 -2.2755  1.4265
   97SAPC   C24 9544   6.335   6.791   4.413  0.5704 -0.1089  0.0882
   97SAPC   H4R 9545   6.234   6.773   4.457  0.7808  0.1600  0.6925
   97SAPC   H4S 9546   6.341   6.887   4.359 -1.1249  0.7612  1.3311
   97SAPC   C25 9547   6.438   6.785   4.521 -0.1412  0.5691 -0.1794
   97SAPC   H5R 9548   6.537   6.808   4.480 -0.2778 -0.4310 -1.0922
   97SAPC   C26 9549   6.418   6.759   4.655  0.2060  0.1188  0.2780
   97SAPC   H6R 9550   6.500   6.770   4.727  0.9337  1.9299 -0.7654
   97SAPC   C27 9551   6.280   6.726   4.710  0.7327  0.6488 -1.1747
   97SAPC   H7R 9552   6.222   6.667   4.636  1.2805 -0.2157 -0.9354
   97SAPC   H7S 9553   6.226   6.820   4.731 -2.5810 -1.4476  0.5613
   97SAPC   C28 9554   6.300   6.647   4.840 -0.4224  0.0139 -0.1207
   97SAPC   H8R 9555   6.402   6.613   4.865 -1.2603 -2.5282  0.1159
   97SAPC   C29 9556   6.204   6.610   4.927 -0.2024  0.7084 -0.1981
   97SAPC   H9R 9557   6.231   6.560   5.021  1.0139  3.2765  0.9273
   97SAPC  C210 9558   6.058   6.650   4.930  0.1128  0.8341 -0.0007
   97SAPC  H10R 9559   6.003   6.566   4.977 -1.5613  2.0004  0.2056
   97SAPC  H10S 9560   6.017   6.656   4.827  2.6264  1.3547 -1.0517
   97SAPC  C211 9561   6.025   6.777   5.000  0.4301 -1.2005 -0.0056
   97SAPC  H11R 9562   6.054   6.868   4.947  1.4838 -1.0977  0.7128
   97SAPC  C212 9563   5.965   6.797   5.121  0.4519  0.8204  0.1733
   97SAPC  H12R 9564   5.948   6.895   5.168 -2.4297  1.2943 -1.6345
   97SAPC  C213 9565   5.907   6.683   5.193 -0.2506  0.0740 -0.7288
   97SAPC  H13R 9566   5.939   6.579   5.170 -0.0271 -0.2192  0.7670
   97SAPC  H13S 9567   5.798   6.681   5.171 -0.2738  0.1793 -0.6232
   97SAPC  C214 9568   5.923   6.702   5.344  0.1345 -0.2363  0.1026
   97SAPC  H14R 9569   6.031   6.687   5.359  0.1892 -3.4217 -2.3317
   97SAPC  C215 9570   5.828   6.717   5.436  0.3761  0.1603 -0.0603
   97SAPC  H15R 9571   5.853   6.711   5.543 -1.2837 -0.6669  0.3176
   97SAPC  C216 9572   5.684   6.717   5.412 -0.3246 -0.0005  0.5075
   97SAPC  H16R 9573   5.656   6.734   5.306  0.3756 -1.4830  0.0567
   97SAPC  H16S 9574   5.639   6.791   5.481  0.2984 -0.5628  1.5377
   97SAPC  C217 9575   5.610   6.586   5.448  0.4614 -0.0855 -0.4655
   97SAPC  H17R 9576   5.503   6.598   5.474  0.4741 -1.7646  0.5739
   97SAPC  H17S 9577   5.648   6.562   5.550 -0.3352  0.5934  0.0006
   97SAPC  C218 9578   5.630   6.463   5.348  0.0081  0.2930 -0.1132
   97SAPC  H18R 9579   5.740   6.444   5.347  0.1134  0.7936 -1.6362
   97SAPC  H18S 9580   5.602   6.496   5.245 -1.5839 -2.2503 -0.5859
   97SAPC  C219 9581   5.538   6.344   5.382  0.1304 -0.4637 -0.1066
   97SAPC  H19R 9582   5.575   6.308   5.480  1.2925 -1.2891 -0.8333
   97SAPC  H19S 9583   5.559   6.262   5.310 -0.6063  0.2581 -1.1711
   97SAPC  C220 9584   5.382   6.378   5.383  0.3486  0.5682  0.2566
   97SAPC  H20R 9585   5.357   6.397   5.276  0.7023 -0.4691 -0.0235
   97SAPC  H20S 9586   5.353   6.465   5.446  1.3407  0.5734  0.7169
   97SAPC  H20T 9587   5.326   6.289   5.419  1.5775  0.4367  1.9243
   97SAPC   C33 9588   6.989   6.485   4.320 -0.2665  0.6031 -0.1322
   97SAPC   H3X 9589   6.951   6.391   4.275  0.9811  0.6271 -1.3216
   97SAPC   H3Y 9590   6.903   6.549   4.350 -0.8468  0.1558 -0.8365
   97SAPC   C34 9591   7.064   6.461   4.458 -0.0648 -0.0832  0.2263
   97SAPC   H4X 9592   7.061   6.555   4.517  4.4539  0.3570  0.0979
   97SAPC   H4Y 9593   7.171   6.459   4.427  0.0163  0.4884  0.4565
   97SAPC   C35 9594   7.024   6.336   4.543 -0.7323 -0.6470  0.4516
   97SAPC   H5X 9595   7.094   6.320   4.627 -0.8822  1.0112  0.9173
   97SAPC   H5Y 9596   7.018   6.247   4.476 -3.1051  0.0266 -0.3399
   97SAPC   C36 9597   6.887   6.357   4.615 -0.2237 -0.2839  0.6707
   97SAPC   H6X 9598   6.807   6.349   4.537  1.1395 -0.0776 -0.7987
   97SAPC   H6Y 9599   6.879   6.460   4.655  0.8318  1.8500 -3.9561
   97SAPC   C37 9600   6.859   6.251   4.732 -0.1155  0.0803  0.4258
   97SAPC   H7X 9601   6.954   6.270   4.787  0.6154  2.5444 -1.4871
   97SAPC   H7Y 9602   6.853   6.149   4.689  1.5360 -0.5013  1.4701
   97SAPC   C38 9603   6.736   6.294   4.811  0.3714  0.6815  0.1816
   97SAPC   H8X 9604   6.646   6.279   4.748 -0.5877 -2.2224  2.0617
   97SAPC   H8Y 9605   6.757   6.403   4.819  0.8540  0.5879  0.2489
   97SAPC   C39 9606   6.721   6.221   4.943 -0.1294  0.6233 -0.0115
   97SAPC   H9X 9607   6.714   6.116   4.908 -1.5159  0.4670  0.7010
   97SAPC   H9Y 9608   6.624   6.260   4.979 -0.5970 -0.2329 -0.3228
   97SAPC  C310 9609   6.842   6.228   5.036  0.1902  0.8948  0.1160
   97SAPC  H10X 9610   6.865   6.335   5.054  1.5651  0.8906 -1.3880
   97SAPC  H10Y 9611   6.934   6.184   4.991  1.4863 -0.0437  3.4265
   97SAPC  C311 9612   6.831   6.160   5.174  0.1207 -0.6795 -0.1845
   97SAPC  H11X 9613   6.929   6.166   5.225 -0.0394  2.4853 -0.0470
   97SAPC  H11Y 9614   6.798   6.054   5.162 -1.7340 -0.1534 -0.1298
   97SAPC  C312 9615   6.719   6.221   5.264 -0.0327 -0.1328 -0.5122
   97SAPC  H12X 9616   6.628   6.237   5.203 -0.2460 -2.3503 -0.8474
   97SAPC  H12Y 9617   6.762   6.318   5.299  1.3062 -1.1353  0.7422
   97SAPC  C313 9618   6.701   6.141   5.391  0.6946 -0.5072  0.1285
   97SAPC  H13X 9619   6.791   6.153   5.454  0.3304  2.0462  0.2728
   97SAPC  H13Y 9620   6.679   6.033   5.383 -2.1535  0.0347 -0.5201
   97SAPC  C314 9621   6.585   6.203   5.481  0.1914 -0.2317 -0.0423
   97SAPC  H14X 9622   6.489   6.207   5.425  1.2090 -0.3325 -1.8672
   97SAPC  H14Y 9623   6.609   6.310   5.502  1.1511 -0.7379  1.6426
   97SAPC  C315 9624   6.565   6.137   5.623 -0.0072 -0.2683  0.5445
   97SAPC  H15X 9625   6.499   6.207   5.678  0.4310  0.0618  0.6558
   97SAPC  H15Y 9626   6.667   6.136   5.667 -0.0839 -0.1707  0.7251
   97SAPC  C316 9627   6.511   5.994   5.624  0.7818  0.1270 -0.1892
   97SAPC  H16X 9628   6.560   5.943   5.538 -4.3138  0.2305 -3.6020
   97SAPC  H16Y 9629   6.401   5.998   5.608  0.4745  0.0949  1.6898
   97SAPC  C317 9630   6.535   5.918   5.753 -0.0224 -0.4708  0.1331
   97SAPC  H17X 9631   6.510   5.990   5.835 -0.2860 -0.9223  0.4531
   97SAPC  H17Y 9632   6.644   5.899   5.750  0.5816  2.5356 -0.2980
   97SAPC  C318 9633   6.458   5.789   5.774 -0.2006  0.8496  0.2371
   97SAPC  H18X 9634   6.478   5.737   5.870  1.3109  0.3929 -0.2890
   97SAPC  H18Y 9635   6.487   5.724   5.689 -1.0101  1.6959 -0.7066
   97SAPC  H18Z 9636   6.348   5.804   5.773 -0.0960  1.7486 -1.3465
   98SAPC     N 9637   1.996   2.446   3.079 -0.4770  0.3336 -0.5989
   98SAPC   C12 9638   1.965   2.524   3.208  0.4045 -0.1440  0.3178
   98SAPC  H12A 9639   1.961   2.627   3.175 -0.4321 -0.2825 -0.0574
   98SAPC  H12B 9640   2.037   2.504   3.286 -0.0987  1.0331  1.1088
   98SAPC   C13 9641   2.004   2.302   3.097 -0.6259  0.3903  0.4952
   98SAPC  H13A 9642   2.093   2.267   3.147 -0.2870 -1.3229 -1.2029
   98SAPC  H13B 9643   1.922   2.267   3.159  1.3308 -1.2759  2.2706
   98SAPC  H13C 9644   2.004   2.246   3.005  0.9728  0.5980  0.3467
   98SAPC   C14 9645   1.890   2.473   2.976 -0.2012 -0.0110  0.2523
   98SAPC  H14A 9646   1.867   2.386   2.917  0.7942 -1.6926  2.2009
   98SAPC  H14B 9647   1.799   2.525   3.004  0.5205  1.5718 -0.2600
   98SAPC  H14C 9648   1.926   2.539   2.899 -1.4874 -2.4881 -2.6377
   98SAPC   C15 9649   2.137   2.485   3.041  0.3814 -0.1470  0.4666
   98SAPC  H15A 9650   2.201   2.489   3.128 -0.1359  4.0616  0.8464
   98SAPC  H15B 9651   2.177   2.412   2.972 -0.5246  1.3513 -1.7520
   98SAPC  H15C 9652   2.135   2.589   3.013 -0.9123  0.2890  2.0001
   98SAPC   C11 9653   1.824   2.504   3.272  0.3453  0.3357  0.2483
   98SAPC  H11A 9654   1.742   2.547   3.211  0.7169 -1.4821 -1.6582
   98SAPC  H11B 9655   1.811   2.563   3.365 -2.0073 -1.3042  1.0435
   98SAPC     P 9656   1.831   2.321   3.445  0.0467  0.2176 -0.2028
   98SAPC   O13 9657   1.871   2.177   3.456  0.5769  0.0710 -0.8004
   98SAPC   O14 9658   1.928   2.418   3.492 -0.1880  0.0524  0.5013
   98SAPC   O12 9659   1.792   2.361   3.297 -0.0769 -0.7485 -0.2386
   98SAPC   O11 9660   1.704   2.346   3.535 -0.1901  0.0333 -0.1644
   98SAPC    C1 9661   1.594   2.252   3.507 -1.1308 -0.0465 -0.9368
   98SAPC    HA 9662   1.555   2.255   3.404 -2.2469 -2.7958 -0.6866
   98SAPC    HB 9663   1.625   2.148   3.533 -1.4775  0.5774  2.5545
   98SAPC    C2 9664   1.467   2.282   3.590  0.2169  0.4554 -0.2430
   98SAPC    HS 9665   1.448   2.390   3.571  1.4008  0.2421 -3.1787
   98SAPC   O21 9666   1.500   2.260   3.728  1.1393 -0.0820  0.4823
   98SAPC   C21 9667   1.546   2.367   3.789  0.6095 -0.2301 -0.7958
   98SAPC   O22 9668   1.549   2.478   3.742 -0.0510 -0.5106 -0.5878
   98SAPC   C22 9669   1.614   2.328   3.924 -0.5561  0.4711 -0.8893
   98SAPC   H2R 9670   1.665   2.230   3.911  1.6107  1.5432 -0.7932
   98SAPC   H2S 9671   1.700   2.396   3.937  0.3353 -0.7642 -0.1082
   98SAPC    C3 9672   1.345   2.190   3.547 -0.7771  0.1482  0.6625
   98SAPC    HX 9673   1.362   2.082   3.565 -0.1895  0.2655  0.8297
   98SAPC    HY 9674   1.345   2.210   3.437  0.5045  0.0085  0.6234
   98SAPC   O31 9675   1.229   2.238   3.611  0.1073  0.3458  0.5173
   98SAPC   C31 9676   1.145   2.147   3.656 -0.0888  0.4227  0.0282
   98SAPC   O32 9677   1.143   2.028   3.628  0.3317 -0.3746 -0.5239
   98SAPC   C32 9678   1.028   2.210   3.734  0.3523 -0.4381  0.2719
   98SAPC   H2X 9679   0.930   2.199   3.684 -0.0484 -0.3358  1.0069
   98SAPC   H2Y 9680   1.040   2.319   3.747 -1.6295 -0.4261  2.9313
   98SAPC   C23 9681   1.529   2.336   4.048  0.0524 -0.4867 -0.1874
   98SAPC   H3R 9682   1.438   2.273   4.035  0.7610 -1.3756 -0.9106
   98SAPC   H3S 9683   1.508   2.444   4.061 -1.2683 -0.7990  0.4603
   98SAPC   C24 9684   1.606   2.286   4.176 -0.1271 -0.5085 -0.2202
   98SAPC   H4R 9685   1.702   2.341   4.174 -1.1982  1.6706  2.0365
   98SAPC   H4S 9686   1.625   2.177   4.170 -0.0306 -0.5220  0.3028
   98SAPC   C25 9687   1.536   2.316   4.305  0.2360  0.4579  0.3857
   98SAPC   H5R 9688   1.483   2.411   4.293  0.3979  0.4216 -0.7721
   98SAPC   C26 9689   1.535   2.244   4.422 -0.4076 -0.8556 -0.5633
   98SAPC   H6R 9690   1.470   2.283   4.501  0.5565 -0.0126 -0.1669
   98SAPC   C27 9691   1.589   2.100   4.448  0.4292 -0.1884 -0.7122
   98SAPC   H7R 9692   1.664   2.074   4.370  1.0357 -0.1244 -0.1577
   98SAPC   H7S 9693   1.500   2.035   4.436 -1.9800  2.4786  1.0676
   98SAPC   C28 9694   1.650   2.098   4.591 -0.1512 -0.1256 -0.0024
   98SAPC   H8R 9695   1.714   2.184   4.616 -0.1102  0.3509 -1.6011
   98SAPC   C29 9696   1.622   2.011   4.691  0.5836  0.2785  1.1603
   98SAPC   H9R 9697   1.672   2.021   4.789 -1.4797 -2.3978  2.5945
   98SAPC  C210 9698   1.540   1.890   4.694  0.3508 -0.3435  0.9266
   98SAPC  H10R 9699   1.489   1.893   4.595 -0.6372 -1.3330  1.3842
   98SAPC  H10S 9700   1.461   1.908   4.770 -0.4067  3.4664 -0.5182
   98SAPC  C211 9701   1.611   1.753   4.717  0.3438  0.0878 -0.3042
   98SAPC  H11R 9702   1.627   1.695   4.625 -4.0855 -0.8031 -0.7650
   98SAPC  C212 9703   1.662   1.714   4.830  0.2738 -0.1697 -0.4965
   98SAPC  H12R 9704   1.709   1.615   4.818 -0.7592 -0.8577  0.8186
   98SAPC  C213 9705   1.650   1.775   4.968 -0.6175  0.5050 -0.2656
   98SAPC  H13R 9706   1.575   1.856   4.970  0.1147  1.1953 -0.4041
   98SAPC  H13S 9707   1.742   1.831   4.995 -1.9852  3.0039 -0.5194
   98SAPC  C214 9708   1.613   1.666   5.072 -0.3177  0.2346  0.2892
   98SAPC  H14R 9709   1.552   1.582   5.036  2.5757 -2.1150  0.5560
   98SAPC  C215 9710   1.658   1.652   5.198  0.6846 -0.8107 -0.1000
   98SAPC  H15R 9711   1.617   1.570   5.258  0.4083 -2.1060 -1.9663
   98SAPC  C216 9712   1.757   1.741   5.261 -0.1742  0.4258 -0.3112
   98SAPC  H16R 9713   1.701   1.807   5.331  0.6545 -0.5767  1.3407
   98SAPC  H16S 9714   1.780   1.825   5.192  0.7470  1.3667  1.0841
   98SAPC  C217 9715   1.884   1.673   5.313 -0.0303  0.9923  0.1297
   98SAPC  H17R 9716   1.947   1.751   5.362 -2.0989  2.6573  0.2370
   98SAPC  H17S 9717   1.940   1.660   5.218 -1.1546  0.4740 -0.4824
   98SAPC  C218 9718   1.861   1.552   5.409  0.5879  0.0762  0.5291
   98SAPC  H18R 9719   1.770   1.498   5.375  0.1172  1.2881 -0.2062
   98SAPC  H18S 9720   1.832   1.591   5.509  1.2348 -0.8756  1.1066
   98SAPC  C219 9721   1.993   1.470   5.420 -0.6067 -0.5556 -0.0609
   98SAPC  H19R 9722   2.066   1.538   5.469 -1.4858 -0.8595  1.7509
   98SAPC  H19S 9723   2.017   1.450   5.314 -1.1751 -1.6129 -0.0019
   98SAPC  C220 9724   1.985   1.346   5.511 -0.2029 -0.2165 -0.2327
   98SAPC  H20R 9725   2.072   1.279   5.497  0.5370 -0.1065  2.9241
   98SAPC  H20S 9726   1.889   1.295   5.487  0.0925 -0.4585 -0.9134
   98SAPC  H20T 9727   1.977   1.376   5.618  0.4336  0.8657 -0.4743
   98SAPC   C33 9728   1.015   2.146   3.878 -0.2825  0.1707  0.5351
   98SAPC   H3X 9729   1.004   2.035   3.873  1.9531 -0.0523 -3.5383
   98SAPC   H3Y 9730   0.917   2.177   3.921 -0.5601 -1.0434  0.8285
   98SAPC   C34 9731   1.124   2.191   3.980 -0.3340 -0.2330  0.0984
   98SAPC   H4X 9732   1.143   2.300   3.976  0.0736 -0.1265  2.9090
   98SAPC   H4Y 9733   1.226   2.153   3.959 -1.3688 -1.7617 -2.5772
   98SAPC   C35 9734   1.085   2.140   4.125 -0.6074  0.1917  0.5438
   98SAPC   H5X 9735   1.064   2.031   4.132  1.0521 -0.1634  0.4548
   98SAPC   H5Y 9736   0.993   2.194   4.155 -2.0818 -2.4429  1.1136
   98SAPC   C36 9737   1.205   2.161   4.222 -0.1678 -0.3687  0.6968
   98SAPC   H6X 9738   1.224   2.270   4.231  1.6033 -0.6141  0.3329
   98SAPC   H6Y 9739   1.300   2.128   4.175 -0.0267  1.7903 -0.6549
   98SAPC   C37 9740   1.191   2.105   4.356 -0.1986  0.6373 -0.5994
   98SAPC   H7X 9741   1.291   2.132   4.398  0.6702 -1.0012 -1.5212
   98SAPC   H7Y 9742   1.191   1.994   4.347  0.7359  0.5956 -0.1947
   98SAPC   C38 9743   1.067   2.155   4.431 -0.5921 -0.2566  0.2485
   98SAPC   H8X 9744   0.973   2.117   4.386  0.6973 -1.3109 -1.6851
   98SAPC   H8Y 9745   1.051   2.264   4.417 -1.5644 -0.4376 -0.1141
   98SAPC   C39 9746   1.069   2.122   4.575  0.1864  0.3763 -0.4054
   98SAPC   H9X 9747   1.063   2.011   4.578  0.5144  0.3877  1.7843
   98SAPC   H9Y 9748   0.982   2.166   4.627 -0.3222 -1.0856  0.0214
   98SAPC  C310 9749   1.185   2.181   4.660 -0.4683  0.3886 -0.6709
   98SAPC  H10X 9750   1.196   2.291   4.648  0.2830  0.2621 -1.1981
   98SAPC  H10Y 9751   1.281   2.135   4.626  0.0200 -0.5820  1.7843
   98SAPC  C311 9752   1.180   2.140   4.806 -0.0260 -0.0828 -0.7220
   98SAPC  H11X 9753   1.170   2.029   4.815 -3.6009  0.2944  2.6562
   98SAPC  H11Y 9754   1.092   2.189   4.853 -0.8598 -0.7779 -1.5379
   98SAPC  C312 9755   1.302   2.198   4.885 -0.2834  0.0195  0.1130
   98SAPC  H12X 9756   1.289   2.309   4.879 -0.6333 -0.0388 -0.2466
   98SAPC  H12Y 9757   1.395   2.172   4.831  0.3260  4.3042 -1.3366
   98SAPC  C313 9758   1.324   2.162   5.028 -0.3108 -0.3655 -0.6150
   98SAPC  H13X 9759   1.422   2.204   5.058 -0.7120  0.2402 -0.1134
   98SAPC  H13Y 9760   1.361   2.058   5.040  0.8529  0.2575  1.7299
   98SAPC  C314 9761   1.217   2.212   5.125 -0.3822 -0.0980 -1.1698
   98SAPC  H14X 9762   1.122   2.154   5.119 -0.7065  0.2486  0.2256
   98SAPC  H14Y 9763   1.197   2.317   5.097 -0.2527 -0.1206 -1.3467
   98SAPC  C315 9764   1.253   2.190   5.278  0.1781  0.6590  0.5204
   98SAPC  H15X 9765   1.171   2.239   5.334  1.3052  1.3027  1.6724
   98SAPC  H15Y 9766   1.346   2.243   5.309 -0.0636  0.4736  1.5851
   98SAPC  C316 9767   1.270   2.041   5.306 -0.4781  0.2510  0.3953
   98SAPC  H16X 9768   1.373   2.014   5.273 -1.1850 -1.4980 -0.5020
   98SAPC  H16Y 9769   1.201   1.981   5.243 -0.5873  0.3897  0.3820
   98SAPC  C317 9770   1.241   2.005   5.451  0.5744  0.1727 -0.1448
   98SAPC  H17X 9771   1.252   1.894   5.458  0.3127  0.0247 -1.7939
   98SAPC  H17Y 9772   1.132   2.025   5.465  0.6152  1.6161 -1.6949
   98SAPC  C318 9773   1.333   2.073   5.555 -0.9691 -0.1076 -0.1663
   98SAPC  H18X 9774   1.328   2.046   5.662  0.6170  1.8168  0.4662
   98SAPC  H18Y 9775   1.326   2.183   5.539 -3.2133 -0.3313 -1.0573
   98SAPC  H18Z 9776   1.440   2.052   5.530 -0.7044  1.2911 -0.3302
   99SAPC     N 9777   2.771   3.491   3.570  0.0015  0.4258  0.0787
   99SAPC   C12 9778   2.649   3.495   3.657 -0.2688  0.2693  0.7929
   99SAPC  H12A 9779   2.558   3.474   3.602 -0.3488  2.8550 -0.2202
   99SAPC  H12B 9780   2.633   3.599   3.684  0.1644  1.5130 -3.0696
   99SAPC   C13 9781   2.761   3.590   3.456 -0.4224  0.3483  0.9291
   99SAPC  H13A 9782   2.852   3.603   3.399 -1.1823  0.5630 -0.2655
   99SAPC  H13B 9783   2.691   3.563   3.378  0.6909  2.3191 -0.8637
   99SAPC  H13C 9784   2.738   3.689   3.493  1.8593 -0.0654  3.8361
   99SAPC   C14 9785   2.895   3.517   3.646 -0.2658 -0.3045 -0.0728
   99SAPC  H14A 9786   2.900   3.441   3.723  1.0443 -0.5527 -0.3793
   99SAPC  H14B 9787   2.985   3.503   3.589 -1.8525 -1.1425 -2.5494
   99SAPC  H14C 9788   2.892   3.610   3.701  1.8957 -0.5954  0.5953
   99SAPC   C15 9789   2.781   3.353   3.518 -0.7987 -0.2332  0.5185
   99SAPC  H15A 9790   2.797   3.291   3.605 -0.4493 -0.0589  0.5783
   99SAPC  H15B 9791   2.697   3.319   3.460 -1.4654  0.2201  1.1846
   99SAPC  H15C 9792   2.866   3.336   3.454 -1.3824  1.9004 -0.9156
   99SAPC   C11 9793   2.651   3.413   3.787 -0.1934  1.1035 -0.3158
   99SAPC  H11A 9794   2.553   3.431   3.836 -0.7152 -0.5488 -0.6926
   99SAPC  H11B 9795   2.740   3.449   3.843  1.3595  0.4590 -2.2515
   99SAPC     P 9796   2.585   3.162   3.800  0.0623 -0.0068 -0.1522
   99SAPC   O13 9797   2.465   3.168   3.713  0.7816  0.0078  0.3072
   99SAPC   O14 9798   2.666   3.033   3.804 -0.0122 -0.3832  0.3305
   99SAPC   O12 9799   2.680   3.277   3.762  0.7183  0.2206 -0.0341
   99SAPC   O11 9800   2.541   3.200   3.948 -0.6706 -0.1505 -0.0378
   99SAPC    C1 9801   2.522   3.104   4.048 -0.1946 -0.9687  0.1960
   99SAPC    HA 9802   2.595   3.021   4.053  0.1508 -0.7336 -0.7416
   99SAPC    HB 9803   2.522   3.167   4.140 -1.2423  0.7556 -0.9269
   99SAPC    C2 9804   2.380   3.052   4.044 -0.9067  0.4394  0.0076
   99SAPC    HS 9805   2.358   3.025   3.939  1.2523 -2.7873  0.2251
   99SAPC   O21 9806   2.295   3.163   4.076 -0.0516 -0.1347 -0.5501
   99SAPC   C21 9807   2.170   3.155   4.046  0.2391 -0.1736  0.0964
   99SAPC   O22 9808   2.119   3.073   3.975  0.4951  0.0065  0.4130
   99SAPC   C22 9809   2.093   3.255   4.129 -0.8008  0.2217 -0.5209
   99SAPC   H2R 9810   2.139   3.247   4.230  0.5544  0.9526 -1.0546
   99SAPC   H2S 9811   2.128   3.353   4.090  2.4456 -0.8915 -0.7285
   99SAPC    C3 9812   2.357   2.921   4.125  0.3676 -0.8302 -0.0593
   99SAPC    HX 9813   2.424   2.845   4.080  1.7653  1.1406 -1.5072
   99SAPC    HY 9814   2.258   2.881   4.097 -0.5489  1.2721 -0.0642
   99SAPC   O31 9815   2.392   2.933   4.267 -0.2139 -0.6039 -0.4805
   99SAPC   C31 9816   2.285   2.981   4.337  0.1874  0.4304  1.0218
   99SAPC   O32 9817   2.173   2.989   4.285  0.0954  0.3030 -0.0268
   99SAPC   C32 9818   2.319   3.008   4.485 -0.0387  0.9919  1.0172
   99SAPC   H2X 9819   2.426   2.981   4.493 -0.7066 -2.0914  0.6615
   99SAPC   H2Y 9820   2.252   2.947   4.549 -2.4275  0.9636 -1.3265
   99SAPC   C23 9821   1.940   3.238   4.148  0.1904  0.4078  0.5035
   99SAPC   H3R 9822   1.934   3.135   4.191 -0.2985  0.1725 -0.1283
   99SAPC   H3S 9823   1.896   3.237   4.046 -0.4886 -1.5913  0.7703
   99SAPC   C24 9824   1.870   3.344   4.238  0.3863 -0.2404  0.1259
   99SAPC   H4R 9825   1.927   3.340   4.334  2.0777  1.7323 -0.7149
   99SAPC   H4S 9826   1.767   3.316   4.268  0.9225 -0.4625  1.8813
   99SAPC   C25 9827   1.878   3.487   4.188  0.1370  1.0229 -0.3520
   99SAPC   H5R 9828   1.979   3.526   4.166 -0.6792  2.3122 -2.0383
   99SAPC   C26 9829   1.780   3.572   4.170  0.1505  0.4012  1.0650
   99SAPC   H6R 9830   1.798   3.677   4.145  1.2159  0.0863  0.4700
   99SAPC   C27 9831   1.637   3.540   4.173  0.9249 -0.3629 -0.5706
   99SAPC   H7R 9832   1.614   3.497   4.273  1.9499  1.0208  0.2981
   99SAPC   H7S 9833   1.606   3.458   4.105 -3.5200  1.2445 -0.8807
   99SAPC   C28 9834   1.536   3.651   4.139 -0.7677 -0.2274  0.6637
   99SAPC   H8R 9835   1.499   3.654   4.036  0.2317  1.4150  0.3000
   99SAPC   C29 9836   1.510   3.759   4.213 -0.2582 -0.1699 -0.6355
   99SAPC   H9R 9837   1.444   3.833   4.167 -1.6207 -1.0573 -0.1725
   99SAPC  C210 9838   1.568   3.789   4.345  1.2165 -0.0742 -0.0967
   99SAPC  H10R 9839   1.545   3.896   4.364 -1.3874 -0.9998  2.8958
   99SAPC  H10S 9840   1.678   3.774   4.346  1.2444 -0.2238 -1.7071
   99SAPC  C211 9841   1.509   3.709   4.459 -0.0239  0.0312  0.1287
   99SAPC  H11R 9842   1.400   3.720   4.468 -0.2078 -1.3680 -0.1737
   99SAPC  C212 9843   1.587   3.652   4.553  0.7150 -0.3162  0.2733
   99SAPC  H12R 9844   1.538   3.582   4.622  2.6402 -0.9043  1.0856
   99SAPC  C213 9845   1.736   3.643   4.554  0.5567 -0.3243 -0.5488
   99SAPC  H13R 9846   1.782   3.744   4.564 -1.8236  0.7116  0.9176
   99SAPC  H13S 9847   1.765   3.594   4.459 -1.4335 -0.4736 -1.1107
   99SAPC  C214 9848   1.798   3.557   4.662  0.6240  0.0010  0.1733
   99SAPC  H14R 9849   1.886   3.513   4.613 -0.1541 -1.0850 -0.3039
   99SAPC  C215 9850   1.792   3.550   4.797  0.6468  0.3543 -0.8189
   99SAPC  H15R 9851   1.852   3.473   4.849 -1.9065  0.2769  2.3756
   99SAPC  C216 9852   1.710   3.632   4.891 -0.1756 -0.3267  0.2998
   99SAPC  H16R 9853   1.629   3.676   4.829 -0.2740 -0.2214  0.5021
   99SAPC  H16S 9854   1.770   3.717   4.928 -0.9593  1.1356 -1.6114
   99SAPC  C217 9855   1.659   3.555   5.008 -0.4247  0.6037  0.4409
   99SAPC  H17R 9856   1.617   3.460   4.966 -0.1396  0.3527  0.7173
   99SAPC  H17S 9857   1.567   3.603   5.048 -1.4445 -1.3482  0.5608
   99SAPC  C218 9858   1.770   3.532   5.112 -0.7138  0.2018 -0.6752
   99SAPC  H18R 9859   1.808   3.630   5.148 -1.9969 -0.2727  2.2429
   99SAPC  H18S 9860   1.861   3.474   5.085 -0.8323  0.0375 -0.7285
   99SAPC  C219 9861   1.710   3.470   5.233 -0.0126  0.7502 -0.4998
   99SAPC  H19R 9862   1.694   3.362   5.212 -0.1341  1.0324 -2.0322
   99SAPC  H19S 9863   1.613   3.516   5.263  0.4818  2.3474 -1.2339
   99SAPC  C220 9864   1.793   3.489   5.356  0.0672  0.1706  0.1424
   99SAPC  H20R 9865   1.889   3.433   5.355 -0.9122 -1.5728  0.4251
   99SAPC  H20S 9866   1.738   3.448   5.443 -1.5710  1.4977 -0.2222
   99SAPC  H20T 9867   1.811   3.597   5.375 -1.7240  0.5545 -0.1872
   99SAPC   C33 9868   2.289   3.159   4.513 -0.3429  0.2779 -0.7016
   99SAPC   H3X 9869   2.337   3.233   4.445  2.3534 -0.4609  0.2462
   99SAPC   H3Y 9870   2.327   3.188   4.613  1.4296 -1.7052 -0.7211
   99SAPC   C34 9871   2.133   3.182   4.531  0.9421  0.3707 -0.2640
   99SAPC   H4X 9872   2.079   3.149   4.440 -0.9764  0.6044  0.7303
   99SAPC   H4Y 9873   2.129   3.293   4.539  1.9799  0.3394  1.1607
   99SAPC   C35 9874   2.083   3.116   4.665 -0.1583  0.0203 -0.9389
   99SAPC   H5X 9875   2.170   3.126   4.733 -0.7944  0.5061 -0.1763
   99SAPC   H5Y 9876   2.065   3.007   4.656 -3.0213  0.3973 -0.7460
   99SAPC   C36 9877   1.972   3.195   4.741  0.4811 -0.1611  0.5453
   99SAPC   H6X 9878   1.889   3.203   4.668  0.3619  0.1545  0.7162
   99SAPC   H6Y 9879   2.027   3.291   4.756  3.8407 -2.1210  2.0530
   99SAPC   C37 9880   1.925   3.130   4.860  0.3920  0.6236  0.2406
   99SAPC   H7X 9881   2.016   3.098   4.916 -0.1169 -2.9493 -0.7020
   99SAPC   H7Y 9882   1.867   3.039   4.834  0.0408  0.1817  2.3968
   99SAPC   C38 9883   1.822   3.211   4.937 -0.5830  0.3149  0.1418
   99SAPC   H8X 9884   1.737   3.232   4.870 -0.2114  2.0966  0.1907
   99SAPC   H8Y 9885   1.876   3.305   4.961  0.7047  0.6483 -3.4423
   99SAPC   C39 9886   1.775   3.133   5.066  0.6125 -0.4503  0.9136
   99SAPC   H9X 9887   1.753   3.031   5.029  1.1458  0.2437 -1.4773
   99SAPC   H9Y 9888   1.682   3.181   5.104  0.3734  2.1169 -2.4388
   99SAPC  C310 9889   1.882   3.137   5.175 -0.1603 -0.5507 -0.3261
   99SAPC  H10X 9890   1.919   3.241   5.190 -0.0871 -0.4828 -0.9254
   99SAPC  H10Y 9891   1.976   3.085   5.149  2.1428  2.0346  2.1912
   99SAPC  C311 9892   1.834   3.088   5.316  0.2985 -0.1627  0.0146
   99SAPC  H11X 9893   1.779   3.166   5.373  2.4696  1.2593  0.2725
   99SAPC  H11Y 9894   1.929   3.065   5.369 -1.3975 -1.9767  2.4792
   99SAPC  C312 9895   1.742   2.970   5.313  0.1639 -0.2681 -0.1150
   99SAPC  H12X 9896   1.787   2.891   5.251 -0.8471  1.5409 -3.3699
   99SAPC  H12Y 9897   1.648   2.995   5.260  0.5394 -0.6058 -0.9452
   99SAPC  C313 9898   1.702   2.921   5.455  0.2107 -0.3208 -0.3378
   99SAPC  H13X 9899   1.613   2.981   5.484  1.1832  1.0839 -0.1910
   99SAPC  H13Y 9900   1.781   2.950   5.528 -2.2193  1.6448  1.6858
   99SAPC  C314 9901   1.673   2.770   5.462 -0.2827 -0.1388  0.4621
   99SAPC  H14X 9902   1.765   2.712   5.437 -2.0154 -1.7766 -2.8703
   99SAPC  H14Y 9903   1.592   2.735   5.395 -1.6032  2.1715  0.7587
   99SAPC  C315 9904   1.607   2.738   5.599  0.2193  0.2263  0.0598
   99SAPC  H15X 9905   1.512   2.795   5.610 -0.8899 -1.4218 -0.4626
   99SAPC  H15Y 9906   1.668   2.778   5.683 -1.5373  0.6323  1.1905
   99SAPC  C316 9907   1.589   2.589   5.627 -0.5706 -0.3558  0.2666
   99SAPC  H16X 9908   1.536   2.564   5.532 -1.1833 -0.3489  0.6012
   99SAPC  H16Y 9909   1.525   2.567   5.715 -0.1868  0.8181  0.8583
   99SAPC  C317 9910   1.728   2.517   5.638  0.4384  0.4191  0.5526
   99SAPC  H17X 9911   1.801   2.569   5.573 -1.1276  1.1726 -0.6717
   99SAPC  H17Y 9912   1.719   2.413   5.599  0.0799  0.6469  0.0068
   99SAPC  C318 9913   1.773   2.514   5.783  0.3022 -0.2725 -0.1835
   99SAPC  H18X 9914   1.694   2.481   5.853 -2.0328  4.8724  0.1271
   99SAPC  H18Y 9915   1.786   2.621   5.810  0.6219 -0.0416 -1.1817
   99SAPC  H18Z 9916   1.869   2.460   5.793  0.3716  0.0762  1.3109
  100SAPC     N 9917   6.143   0.751   3.800  0.0576 -0.2606 -0.5381
  100SAPC   C12 9918   6.111   0.615   3.856  0.3303  0.1571  0.0963
  100SAPC  H12A 9919   6.006   0.601   3.835  1.0849 -2.2025 -2.8369
  100SAPC  H12B 9920   6.129   0.613   3.963 -1.6738  2.6962  0.5786
  100SAPC   C13 9921   6.054   0.849   3.874 -0.4134 -0.0947  0.0173
  100SAPC  H13A 9922   6.064   0.950   3.838 -0.0584  0.3727  1.3627
  100SAPC  H13B 9923   5.948   0.832   3.862 -0.8296  1.6802  0.8772
  100SAPC  H13C 9924   6.073   0.860   3.980  1.4548 -1.0002 -0.1926
  100SAPC   C14 9925   6.279   0.790   3.828  0.2508 -0.3519 -0.3176
  100SAPC  H14A 9926   6.345   0.719   3.780 -0.6399 -1.2904 -0.1820
  100SAPC  H14B 9927   6.305   0.894   3.813  0.9700 -0.6131 -0.9846
  100SAPC  H14C 9928   6.304   0.763   3.929  2.6945  1.9022 -0.2077
  100SAPC   C15 9929   6.121   0.757   3.651 -0.7078  0.0159 -0.0746
  100SAPC  H15A 9930   6.161   0.665   3.611 -2.5425 -1.1085  0.5507
  100SAPC  H15B 9931   6.018   0.761   3.616 -0.1116  0.2552 -1.9127
  100SAPC  H15C 9932   6.172   0.844   3.611  1.4086 -0.6338  1.0592
  100SAPC   C11 9933   6.188   0.490   3.798  0.5391  0.1288 -0.1645
  100SAPC  H11A 9934   6.153   0.398   3.850  0.3651  0.1286 -0.2806
  100SAPC  H11B 9935   6.295   0.490   3.826  0.2431 -1.6165  1.2038
  100SAPC     P 9936   6.251   0.343   3.587  0.1734  0.3629  0.0936
  100SAPC   O13 9937   6.147   0.238   3.563  0.0203  0.5271  0.6315
  100SAPC   O14 9938   6.320   0.393   3.461  0.0342 -0.1266 -0.1496
  100SAPC   O12 9939   6.177   0.464   3.658  0.2377 -0.0433 -0.8853
  100SAPC   O11 9940   6.359   0.291   3.688 -0.1556  0.5985 -0.2655
  100SAPC    C1 9941   6.386   0.156   3.710  0.4526 -0.6567 -0.2581
  100SAPC    HA 9942   6.295   0.094   3.713  1.1189 -1.6220  0.4048
  100SAPC    HB 9943   6.431   0.123   3.614 -0.1333  0.8237 -1.0782
  100SAPC    C2 9944   6.482   0.141   3.829 -0.5816 -0.1779  0.4130
  100SAPC    HS 9945   6.486   0.034   3.861  1.5036  0.0844  1.2279
  100SAPC   O21 9946   6.447   0.229   3.940 -0.3458  0.3208 -0.5897
  100SAPC   C21 9947   6.328   0.193   3.994 -0.0027  0.6546 -0.4981
  100SAPC   O22 9948   6.256   0.106   3.942  0.2380 -0.1383 -0.3816
  100SAPC   C22 9949   6.296   0.274   4.120 -0.0098 -0.3495 -0.4328
  100SAPC   H2R 9950   6.353   0.239   4.209 -0.0648 -1.9762 -1.0001
  100SAPC   H2S 9951   6.308   0.382   4.100  0.7490 -0.4281 -0.4304
  100SAPC    C3 9952   6.626   0.167   3.780 -0.1101 -0.1707 -0.5548
  100SAPC    HX 9953   6.648   0.271   3.747 -0.4295  0.2588  0.5198
  100SAPC    HY 9954   6.631   0.107   3.687 -0.9626 -1.8985  0.4683
  100SAPC   O31 9955   6.718   0.109   3.867 -0.1399 -0.4119 -0.0821
  100SAPC   C31 9956   6.838   0.162   3.864  0.5423 -0.0136 -0.3177
  100SAPC   O32 9957   6.878   0.249   3.786  0.2280  0.0867 -0.3692
  100SAPC   C32 9958   6.918   0.109   3.978  0.1520 -0.7186  0.3707
  100SAPC   H2X 9959   7.001   0.180   3.994 -1.9888  1.8459  0.8066
  100SAPC   H2Y 9960   6.953   0.006   3.954 -0.4235 -0.6214 -0.9393
  100SAPC   C23 9961   6.153   0.258   4.178 -0.7413 -0.4945  0.3686
  100SAPC   H3R 9962   6.128   0.152   4.157 -1.5900 -0.0046 -1.3269
  100SAPC   H3S 9963   6.087   0.334   4.132  1.2649  1.2724  0.2807
  100SAPC   C24 9964   6.150   0.285   4.328 -0.5578 -0.3245 -0.0464
  100SAPC   H4R 9965   6.202   0.383   4.339 -0.1970 -0.5585  0.3130
  100SAPC   H4S 9966   6.207   0.209   4.385 -1.6130 -0.6935  0.5437
  100SAPC   C25 9967   6.011   0.297   4.381  0.3230  0.6395 -0.1454
  100SAPC   H5R 9968   5.938   0.241   4.321  0.2991  0.4572  0.0490
  100SAPC   C26 9969   5.971   0.310   4.512 -0.7142  0.1565  0.6840
  100SAPC   H6R 9970   5.863   0.317   4.528 -0.8814 -1.0677  0.1503
  100SAPC   C27 9971   6.055   0.340   4.631  0.3832  0.1785  0.4145
  100SAPC   H7R 9972   6.055   0.448   4.657  0.3498  0.0796  0.8344
  100SAPC   H7S 9973   6.156   0.301   4.607  1.2660  1.8686  1.2290
  100SAPC   C28 9974   6.019   0.259   4.747 -0.0718 -0.0244 -0.4582
  100SAPC   H8R 9975   6.018   0.151   4.727 -1.5893  0.5327 -4.1509
  100SAPC   C29 9976   5.981   0.310   4.869  0.8991 -0.0014  0.2376
  100SAPC   H9R 9977   5.963   0.236   4.948 -1.1006  1.0229  0.8018
  100SAPC  C210 9978   5.966   0.447   4.926 -0.5229  0.1850  0.0391
  100SAPC  H10R 9979   5.866   0.454   4.975 -0.0237  1.3078  0.9366
  100SAPC  H10S 9980   5.961   0.524   4.847 -1.3692 -0.6709 -0.7672
  100SAPC  C211 9981   6.088   0.455   5.016  0.2763 -0.4939  0.5115
  100SAPC  H11R 9982   6.187   0.442   4.969 -0.5984  0.3293 -1.6839
  100SAPC  C212 9983   6.086   0.453   5.151  0.1861  0.3746 -0.6551
  100SAPC  H12R 9984   6.178   0.442   5.210 -1.1704  0.4815  1.6050
  100SAPC  C213 9985   5.958   0.445   5.237 -0.5586 -0.6024  1.1641
  100SAPC  H13R 9986   5.873   0.488   5.181  0.7983 -0.1897 -0.6993
  100SAPC  H13S 9987   5.974   0.513   5.323  1.7352  0.1468  0.2386
  100SAPC  C214 9988   5.915   0.315   5.270  0.9673 -0.0405  0.5697
  100SAPC  H14R 9989   5.937   0.238   5.194  2.0382  0.4061  0.4094
  100SAPC  C215 9990   5.865   0.265   5.385  0.0432  0.1414 -0.0129
  100SAPC  H15R 9991   5.814   0.168   5.388  1.2878 -0.5167  1.0815
  100SAPC  C216 9992   5.832   0.351   5.509 -0.0570 -0.8784  0.1209
  100SAPC  H16R 9993   5.828   0.458   5.478  0.1975 -1.3431 -1.6080
  100SAPC  H16S 9994   5.902   0.351   5.596 -0.3219  0.9859  0.3783
  100SAPC  C217 9995   5.683   0.317   5.551  0.2296  0.0022 -0.5671
  100SAPC  H17R 9996   5.655   0.209   5.550 -1.1996  0.3500 -0.6111
  100SAPC  H17S 9997   5.620   0.352   5.466  0.5395  0.9375 -0.4260
  100SAPC  C218 9998   5.645   0.386   5.685 -0.3005  0.4143  0.0330
  100SAPC  H18R 9999   5.720   0.462   5.717  0.7358  0.2533 -1.8366
  100SAPC  H18S10000   5.627   0.310   5.764 -0.4747  2.0612  1.6264
  100SAPC  C21910001   5.518   0.456   5.672  0.1327  0.4239 -1.0840
  100SAPC  H19R10002   5.445   0.385   5.628 -0.4826  0.0441  0.4931
  100SAPC  H19S10003   5.514   0.549   5.611 -0.2827  0.0775 -1.5906
  100SAPC  C22010004   5.460   0.511   5.807  0.2193 -0.1092 -0.0990
  100SAPC  H20R10005   5.448   0.443   5.894  1.3694  0.5378  0.5950
  100SAPC  H20S10006   5.364   0.564   5.791 -0.3809 -1.4890 -1.2671
  100SAPC  H20T10007   5.530   0.588   5.847 -0.0879 -1.0858  2.5435
  100SAPC   C3310008   6.840   0.096   4.113  0.8499  0.7380  0.3993
  100SAPC   H3X10009   6.776   0.006   4.101  0.9811  0.8258 -1.0437
  100SAPC   H3Y10010   6.772   0.182   4.132  0.4216  0.8955 -1.6878
  100SAPC   C3410011   6.930   0.084   4.234  0.0670  0.2444 -0.2378
  100SAPC   H4X10012   6.970   0.181   4.270  0.9954  0.3670 -1.5541
  100SAPC   H4Y10013   7.012   0.016   4.203  0.3035 -0.4976  1.8147
  100SAPC   C3510014   6.860   0.011   4.350  0.2653  0.3031  0.8456
  100SAPC   H5X10015   6.819  -0.088   4.322  0.1839  0.3786  0.6937
  100SAPC   H5Y10016   6.768   0.072   4.363  0.6316  1.5862 -1.9340
  100SAPC   C3610017   6.950  -0.002   4.470  0.2467  0.8039 -0.6355
  100SAPC   H6X10018   6.995   0.093   4.507 -0.6817  0.2579  2.1729
  100SAPC   H6Y10019   7.038  -0.068   4.457  1.1244  1.6409  0.6743
  100SAPC   C3710020   6.880  -0.069   4.577  0.2466  0.2980 -0.5322
  100SAPC   H7X10021   6.859  -0.172   4.541  0.5235 -0.8375  2.3141
  100SAPC   H7Y10022   6.778  -0.029   4.595 -0.5680 -1.7678 -0.2568
  100SAPC   C3810023   6.941  -0.082   4.717  0.8123 -0.3573 -0.7881
  100SAPC   H8X10024   6.966   0.021   4.749 -1.6880 -0.1239  0.6961
  100SAPC   H8Y10025   7.034  -0.143   4.705  1.8881  0.3061  2.9295
  100SAPC   C3910026   6.837  -0.145   4.816  0.6112 -0.3168  0.0379
  100SAPC   H9X10027   6.797  -0.240   4.775 -3.5144  1.2752 -0.1864
  100SAPC   H9Y10028   6.745  -0.082   4.825  0.9356 -0.0124  1.4016
  100SAPC  C31010029   6.887  -0.151   4.956 -0.3480  0.4086  0.5819
  100SAPC  H10X10030   6.942  -0.060   4.988  0.2143  0.1317  0.4264
  100SAPC  H10Y10031   6.965  -0.230   4.946  0.0864  0.8314  0.5725
  100SAPC  C31110032   6.773  -0.186   5.049 -0.2908 -0.3661 -0.4037
  100SAPC  H11X10033   6.699  -0.254   5.003 -0.7697 -0.6051  0.6645
  100SAPC  H11Y10034   6.719  -0.091   5.073  0.6862 -0.0012  0.4439
  100SAPC  C31210035   6.820  -0.226   5.188  0.3269 -0.1068 -0.4674
  100SAPC  H12X10036   6.917  -0.177   5.208  1.2018 -1.7660 -0.4500
  100SAPC  H12Y10037   6.832  -0.336   5.202 -2.6509 -0.3627  0.8836
  100SAPC  C31310038   6.726  -0.182   5.301 -0.0268 -0.3938 -0.0223
  100SAPC  H13X10039   6.713  -0.075   5.325  1.8634  0.0413 -0.8188
  100SAPC  H13Y10040   6.768  -0.226   5.394  0.4431 -2.2251 -1.0536
  100SAPC  C31410041   6.583  -0.235   5.282  0.5542 -0.2282 -0.0638
  100SAPC  H14X10042   6.596  -0.343   5.258  0.0988 -0.5929  1.2691
  100SAPC  H14Y10043   6.540  -0.181   5.195 -1.1283  0.2982  1.0554
  100SAPC  C31510044   6.496  -0.225   5.409 -0.6854 -0.4222  0.2117
  100SAPC  H15X10045   6.488  -0.116   5.430  0.6150 -0.0659 -0.9324
  100SAPC  H15Y10046   6.538  -0.279   5.497  0.3858 -0.2276 -0.1593
  100SAPC  C31610047   6.347  -0.268   5.399  0.0697 -0.4331 -0.0881
  100SAPC  H16X10048   6.309  -0.215   5.309  3.4966  2.8625  0.1358
  100SAPC  H16Y10049   6.286  -0.237   5.487  0.0244 -1.3925  0.2253
  100SAPC  C31710050   6.326  -0.419   5.388 -0.3773  0.0011 -0.2406
  100SAPC  H17X10051   6.353  -0.467   5.484 -0.2225  0.6248  0.0371
  100SAPC  H17Y10052   6.398  -0.453   5.310  0.4853  0.1330  0.4844
  100SAPC  C31810053   6.183  -0.463   5.355 -0.0144  0.5394  0.0762
  100SAPC  H18X10054   6.160  -0.565   5.394 -0.6880  0.3535 -0.7642
  100SAPC  H18Y10055   6.168  -0.446   5.246 -1.9034  3.8012  0.7481
  100SAPC  H18Z10056   6.102  -0.397   5.391 -1.9999 -0.7194 -1.8122
  101OSM      N10057   3.000   3.205   7.919  0.2626  0.6860 -0.2861
  101OSM    C1510058   3.055   3.281   8.029  0.4282  0.0184  0.5814
  101OSM   H15A10059   3.020   3.240   8.123  0.0887 -0.2436  0.3414
  101OSM   H15B10060   3.014   3.380   8.021 -0.1927 -0.1876  1.0617
  101OSM   H15C10061   3.163   3.277   8.028  0.6371  3.1788 -0.7607
  101OSM    C1410062   2.845   3.221   7.929  0.2824  0.4722 -0.3923
  101OSM   H14A10063   2.817   3.162   8.015 -0.6020  0.3177 -0.7716
  101OSM   H14B10064   2.788   3.179   7.848 -0.7907 -2.5973  1.7574
  101OSM   H14C10065   2.827   3.326   7.949  3.4198  0.7234  1.7984
  101OSM    C1310066   3.039   3.266   7.793 -0.2962  0.1461 -0.2993
  101OSM   H13A10067   2.976   3.231   7.713 -0.9673  0.5843  0.0314
  101OSM   H13B10068   3.141   3.248   7.762 -0.5575  0.8219 -1.5844
  101OSM   H13C10069   3.027   3.373   7.786 -0.0185  0.0831 -2.2469
  101OSM    C1210070   3.038   3.056   7.906  0.1378 -0.1671 -0.1513
  101OSM   H12A10071   3.007   2.998   7.992 -2.8757  0.2820 -0.8147
  101OSM   H12B10072   3.145   3.063   7.901 -0.0179  2.3819 -1.2540
  101OSM    C1110073   2.989   2.971   7.782  0.2269  0.8245 -0.2249
  101OSM   H11A10074   3.021   2.865   7.794 -1.3433  0.4173  0.7881
  101OSM   H11B10075   3.032   3.016   7.691  0.8452 -0.0258 -0.3696
  101OSM      P10076   2.755   2.846   7.821  0.0872 -0.2850  0.0537
  101OSM    O1310077   2.786   2.807   7.958  0.2772  0.2467 -0.7033
  101OSM    O1410078   2.616   2.892   7.800  0.3823  0.4395  0.2248
  101OSM    O1110079   2.810   2.736   7.725 -0.2403  0.2647 -0.3250
  101OSM    O1210080   2.846   2.968   7.772 -0.0674 -0.4897  0.6858
  101OSM    C1S10081   2.797   2.748   7.583  0.4043 -0.5139 -0.2525
  101OSM    H1S10082   2.770   2.847   7.542  1.5491  0.0969  0.4114
  101OSM    H1T10083   2.718   2.675   7.555 -0.5465 -0.4706  2.1335
  101OSM     NF10084   2.933   2.726   7.369 -0.4490 -0.3191  0.3012
  101OSM    HNF10085   2.905   2.653   7.307  0.5545  0.2632 -0.8646
  101OSM    C2S10086   2.936   2.704   7.518 -0.2339  0.0436 -0.0926
  101OSM    H2S10087   3.016   2.766   7.566  0.9930  0.7025 -2.8021
  101OSM    C3S10088   2.983   2.555   7.558  0.2771 -0.8885  0.3566
  101OSM    H3S10089   2.909   2.481   7.519  0.5832 -1.3903  0.7252
  101OSM     O310090   3.000   2.536   7.702 -0.0935  0.2178 -0.0920
  101OSM    HO310091   2.937   2.598   7.740  1.6483  0.5572  2.4634
  101OSM    C4S10092   3.114   2.515   7.488  0.2466  0.7425  0.1183
  101OSM    H4S10093   3.202   2.568   7.525  1.5433 -1.3355  0.1933
  101OSM    C5S10094   3.138   2.418   7.393 -0.1444  0.1149 -0.5691
  101OSM    H5S10095   3.047   2.374   7.351 -0.7476  1.3388 -0.6027
  101OSM    C6S10096   3.275   2.385   7.332  0.2707 -0.3265  0.3280
  101OSM    H6S10097   3.295   2.280   7.364  0.1105 -0.3300  0.4148
  101OSM    H6T10098   3.352   2.451   7.379  0.2517 -0.5352  0.6587
  101OSM    C7S10099   3.265   2.397   7.177  0.1753 -0.1414 -0.0173
  101OSM    H7S10100   3.229   2.501   7.157 -1.5858 -0.4265  1.4299
  101OSM    H7T10101   3.194   2.318   7.145  0.0429 -0.8104  1.8411
  101OSM    C8S10102   3.408   2.387   7.112  0.6483  0.8122 -0.2234
  101OSM    H8S10103   3.435   2.285   7.149  0.5506  1.4659  1.7842
  101OSM    H8T10104   3.494   2.443   7.155  0.6600  1.5128 -1.1435
  101OSM    C9S10105   3.414   2.405   6.956 -0.2875  0.5199 -0.3731
  101OSM    H9S10106   3.330   2.347   6.912 -0.7210 -0.4092  1.5819
  101OSM    H9T10107   3.504   2.355   6.913 -1.0367 -2.9894  1.7467
  101OSM   C10S10108   3.414   2.557   6.916 -0.5578  0.3965  0.5205
  101OSM   H10S10109   3.487   2.600   6.987  0.1582 -0.4445  0.3158
  101OSM   H10T10110   3.312   2.598   6.926 -0.5713  0.6079 -0.4157
  101OSM   C11S10111   3.463   2.582   6.776 -1.0910 -0.6711 -0.2290
  101OSM   H11S10112   3.566   2.544   6.756 -1.2246 -1.0096 -0.2742
  101OSM   H11T10113   3.471   2.692   6.758  0.5811 -0.4333  1.5666
  101OSM   C12S10114   3.385   2.531   6.664 -0.1665 -0.2556  0.3916
  101OSM   H12S10115   3.282   2.572   6.661 -0.0276  0.1364  0.9994
  101OSM   H12T10116   3.378   2.420   6.665  0.4766 -0.3418 -1.0542
  101OSM   C13S10117   3.445   2.574   6.523  0.1371  0.1324 -0.5628
  101OSM   H13S10118   3.554   2.553   6.515 -0.0844 -0.8778 -1.1239
  101OSM   H13T10119   3.421   2.681   6.509 -0.7575 -0.2284 -2.0399
  101OSM   C14S10120   3.380   2.504   6.405  0.1935 -0.1539 -1.0050
  101OSM   H14S10121   3.274   2.490   6.434  0.3031 -0.2362 -0.6350
  101OSM   H14T10122   3.421   2.404   6.378  1.7510  0.9795 -3.2125
  101OSM   C15S10123   3.398   2.585   6.272  0.2575 -0.2564 -1.0707
  101OSM   H15S10124   3.364   2.688   6.298 -1.9297 -0.6468 -2.1406
  101OSM   H15T10125   3.320   2.552   6.200  0.1227 -0.0761 -1.0084
  101OSM   C16S10126   3.535   2.594   6.215  0.5446  0.2535 -0.3886
  101OSM   H16S10127   3.607   2.629   6.292 -0.5461 -0.6803  1.1030
  101OSM   H16T10128   3.544   2.675   6.139  0.2371  0.8567  0.2105
  101OSM   C17S10129   3.601   2.472   6.145  0.5349 -0.3793  0.0137
  101OSM   H17S10130   3.540   2.437   6.058  2.6720 -1.1215 -1.2694
  101OSM   H17T10131   3.614   2.391   6.219 -0.9324 -0.5734  0.0969
  101OSM   C18S10132   3.741   2.517   6.110  0.6970  0.0781  1.0570
  101OSM   H18S10133   3.737   2.579   6.018 -0.2469 -1.4819 -0.0033
  101OSM   H18T10134   3.803   2.428   6.086 -1.3669 -0.9955 -0.6804
  101OSM   H18U10135   3.789   2.573   6.193  0.7686 -0.3202  1.2868
  101OSM    C1F10136   2.909   2.846   7.318 -0.5558 -0.4363 -0.1501
  101OSM     OF10137   2.905   2.947   7.389  0.4099 -0.0329 -0.3868
  101OSM    C2F10138   2.900   2.852   7.169  0.2439  0.4369  0.8997
  101OSM    H2F10139   2.800   2.810   7.142  0.7068  0.6231 -1.3280
  101OSM    H2G10140   2.974   2.779   7.129 -0.8842  0.0503 -0.5862
  101OSM    C3F10141   2.934   2.987   7.108 -0.3047  0.3530  0.3136
  101OSM    H3F10142   3.044   3.002   7.121 -0.1556  1.9674 -2.2330
  101OSM    H3G10143   2.878   3.069   7.158 -0.4303  1.1213 -1.0539
  101OSM    C4F10144   2.915   2.993   6.952 -0.4040  0.5260 -0.6152
  101OSM    H4F10145   2.962   3.089   6.920  0.1489  0.8617  1.0889
  101OSM    H4G10146   2.808   2.981   6.925 -0.0191  0.3571 -2.1518
  101OSM    C5F10147   2.998   2.886   6.887  0.4496  0.2819 -0.7615
  101OSM    H5F10148   2.949   2.788   6.903  0.8866 -0.9273 -5.2394
  101OSM    H5G10149   3.105   2.902   6.915  0.1010  0.0153  0.7825
  101OSM    C6F10150   2.986   2.891   6.736  0.2697  0.0294 -0.7699
  101OSM    H6F10151   3.036   2.984   6.701  1.2187  1.7796  4.3715
  101OSM    H6G10152   2.877   2.897   6.719 -0.0026  1.3550  1.1396
  101OSM    C7F10153   3.040   2.765   6.683 -0.0572  0.4954  0.2493
  101OSM    H7F10154   2.968   2.686   6.711  1.8726 -1.0861  1.0582
  101OSM    H7G10155   3.139   2.739   6.728 -0.2695  1.9148  1.6158
  101OSM    C8F10156   3.056   2.763   6.532  0.3714  0.0348  0.6374
  101OSM    H8F10157   3.088   2.660   6.505  1.5933  0.8461 -1.2542
  101OSM    H8G10158   3.132   2.837   6.497 -1.2675  1.1573 -0.7343
  101OSM    C9F10159   2.932   2.813   6.453  0.0067  0.1458  0.0278
  101OSM    H9F10160   2.932   2.923   6.448 -0.0164  0.1137 -0.8180
  101OSM   C10F10161   2.840   2.740   6.385  0.4385 -0.8870 -0.8176
  101OSM   H10F10162   2.762   2.794   6.330  0.0434 -0.2675  0.3123
  101OSM   C11F10163   2.847   2.590   6.368  0.1961 -0.5542  1.2308
  101OSM   H11F10164   2.763   2.546   6.426  1.2583  0.0543  3.3134
  101OSM   H11G10165   2.941   2.548   6.411  1.2145  0.4892  0.1113
  101OSM   C12F10166   2.835   2.547   6.219 -0.2950  0.0281 -0.4086
  101OSM   H12F10167   2.858   2.438   6.224  0.2103  0.0828 -1.3712
  101OSM   H12G10168   2.900   2.605   6.150  1.4465  1.3501  2.1585
  101OSM   C13F10169   2.688   2.552   6.174  0.2463 -0.0960  0.5369
  101OSM   H13F10170   2.637   2.648   6.194 -2.3616 -0.1780 -4.3254
  101OSM   H13G10171   2.627   2.476   6.227  1.2739 -0.4679  1.2288
  101OSM   C14F10172   2.672   2.535   6.015  1.0971 -0.1685  0.2924
  101OSM   H14F10173   2.726   2.619   5.965 -0.4645  0.8401  0.2328
  101OSM   H14G10174   2.564   2.541   5.990  1.6511  1.6684 -1.9707
  101OSM   C15F10175   2.716   2.393   5.967 -0.3126  0.1550 -0.4428
  101OSM   H15F10176   2.668   2.306   6.017 -1.0705 -1.6591 -3.9995
  101OSM   H15G10177   2.825   2.377   5.983 -0.0150  0.7130 -1.8078
  101OSM   C16F10178   2.689   2.355   5.819 -0.4587 -0.8174 -0.4872
  101OSM   H16F10179   2.579   2.348   5.802 -0.4112 -1.6361 -0.4991
  101OSM   H16G10180   2.732   2.256   5.797  1.8840  0.3723 -1.5764
  101OSM   C17F10181   2.757   2.456   5.728 -0.2564 -1.1460  0.3537
  101OSM   H17F10182   2.867   2.449   5.745 -0.0044 -1.8566 -1.4157
  101OSM   H17G10183   2.716   2.557   5.749 -1.2181 -1.4587  0.0190
  101OSM   C18F10184   2.752   2.436   5.573 -0.0467  0.1671  0.0884
  101OSM   H18F10185   2.802   2.350   5.522 -2.3951 -0.0886 -2.0223
  101OSM   H18G10186   2.791   2.526   5.522 -0.6371  1.9746  2.6432
  101OSM   H18H10187   2.646   2.411   5.552 -0.0714  0.3143  0.0357
  102OSM      N10188   6.166   1.084   8.439 -0.0679  0.7307  0.0839
  102OSM    C1510189   6.028   1.138   8.435 -0.1610  0.5180  0.3625
  102OSM   H15A10190   6.019   1.244   8.414 -1.6768  0.6721  1.6362
  102OSM   H15B10191   5.987   1.120   8.533 -0.3888 -4.2301 -0.3821
  102OSM   H15C10192   5.968   1.075   8.371 -0.4944  1.0079  0.1863
  102OSM    C1410193   6.251   1.167   8.531 -0.1956  0.9094  0.1064
  102OSM   H14A10194   6.271   1.261   8.483  0.5171 -0.0984 -1.6457
  102OSM   H14B10195   6.345   1.118   8.551  0.1403  1.1340 -0.8940
  102OSM   H14C10196   6.195   1.184   8.622 -0.3511  2.0420 -0.1916
  102OSM    C1310197   6.151   0.944   8.478  0.1435 -0.2270 -0.2852
  102OSM   H13A10198   6.094   0.918   8.566  0.3576 -2.3310 -0.6948
  102OSM   H13B10199   6.253   0.911   8.492  1.2993  2.7335 -1.1535
  102OSM   H13C10200   6.097   0.885   8.405 -0.1595 -2.3906  1.5706
  102OSM    C1210201   6.216   1.094   8.290 -0.3397 -0.2684  0.3047
  102OSM   H12A10202   6.176   1.020   8.223  2.1251 -2.4651  1.1088
  102OSM   H12B10203   6.320   1.069   8.294 -0.1259  0.4720 -0.3451
  102OSM    C1110204   6.222   1.236   8.212 -0.3083 -0.1675 -0.2081
  102OSM   H11A10205   6.124   1.284   8.233  0.7565  1.4178  1.3957
  102OSM   H11B10206   6.243   1.236   8.103 -1.1432 -1.2394 -0.3877
  102OSM      P10207   6.471   1.315   8.233 -0.0748 -0.1940  0.4680
  102OSM    O1310208   6.553   1.420   8.298  0.2910 -0.6594  0.2393
  102OSM    O1410209   6.518   1.173   8.255  0.1063 -0.4603 -0.3245
  102OSM    O1110210   6.463   1.330   8.081  0.4892 -0.7035  0.0927
  102OSM    O1210211   6.317   1.323   8.279 -0.3831 -0.4966  0.4306
  102OSM    C1S10212   6.572   1.353   7.995 -0.1378 -0.0802  0.1690
  102OSM    H1S10213   6.630   1.259   7.983  1.7093  0.9069  1.0215
  102OSM    H1T10214   6.643   1.429   8.035  0.6735 -0.3375 -0.7453
  102OSM     NF10215   6.646   1.423   7.774 -0.5500  0.1415  0.2249
  102OSM    HNF10216   6.672   1.518   7.762 -0.7319 -0.1277 -4.3462
  102OSM    C2S10217   6.528   1.400   7.856  0.2259 -0.0831  0.3166
  102OSM    H2S10218   6.481   1.310   7.811  3.1140 -1.5600 -0.0050
  102OSM    C3S10219   6.446   1.533   7.863 -0.5767  0.4823 -0.3074
  102OSM    H3S10220   6.508   1.610   7.914 -2.3532  1.8067 -0.0563
  102OSM     O310221   6.340   1.518   7.954  0.3169 -0.6576 -0.1305
  102OSM    HO310222   6.345   1.427   7.985  0.7570 -1.3360 -2.0732
  102OSM    C4S10223   6.400   1.593   7.730 -0.1927  0.1905 -0.6014
  102OSM    H4S10224   6.476   1.640   7.666  0.0791  1.0516  0.3294
  102OSM    C5S10225   6.268   1.584   7.688 -0.3191  0.2701 -0.1537
  102OSM    H5S10226   6.192   1.540   7.754 -0.9381 -0.2461 -1.1896
  102OSM    C6S10227   6.214   1.639   7.565 -0.6758  0.2266 -0.2355
  102OSM    H6S10228   6.164   1.735   7.587  0.3696  0.5243  1.0163
  102OSM    H6T10229   6.137   1.576   7.516 -1.2922  0.9707 -0.2447
  102OSM    C7S10230   6.316   1.658   7.452  0.0418  0.4569 -0.3825
  102OSM    H7S10231   6.371   1.562   7.447 -1.3591 -0.4130  0.2222
  102OSM    H7T10232   6.381   1.747   7.465 -0.7578  0.7743  1.9846
  102OSM    C8S10233   6.250   1.671   7.315 -0.3762  0.6717  0.4206
  102OSM    H8S10234   6.207   1.772   7.298 -1.2256  0.2691  0.1065
  102OSM    H8T10235   6.169   1.597   7.302 -0.5575  1.2866 -2.4334
  102OSM    C9S10236   6.350   1.642   7.201 -0.2960  0.1536 -0.1410
  102OSM    H9S10237   6.410   1.552   7.224 -1.2017  0.1400  2.4826
  102OSM    H9T10238   6.414   1.731   7.182 -1.4913  1.0429 -0.1514
  102OSM   C10S10239   6.283   1.622   7.064  0.2648  0.1544 -0.3957
  102OSM   H10S10240   6.227   1.526   7.065 -3.2050  2.0238 -0.0095
  102OSM   H10T10241   6.363   1.609   6.988  0.7157 -0.9547  0.2400
  102OSM   C11S10242   6.195   1.728   7.008  0.8491 -0.7287 -0.2702
  102OSM   H11S10243   6.257   1.817   6.988  0.7139 -0.7883 -0.9889
  102OSM   H11T10244   6.125   1.760   7.087  2.5318  2.3967  0.1014
  102OSM   C12S10245   6.124   1.688   6.875 -0.0689  0.2685 -0.4636
  102OSM   H12S10246   6.045   1.764   6.858  2.9702  3.5835 -1.0230
  102OSM   H12T10247   6.085   1.586   6.893 -1.1056  0.6314 -0.6007
  102OSM   C13S10248   6.220   1.689   6.754 -0.7224 -0.0037 -0.4574
  102OSM   H13S10249   6.299   1.612   6.771 -0.7851 -0.2287 -1.1491
  102OSM   H13T10250   6.284   1.779   6.750  0.8443 -0.7382  3.4944
  102OSM   C14S10251   6.140   1.641   6.629 -0.3891  0.0548  0.0519
  102OSM   H14S10252   6.073   1.730   6.629  0.0309  0.3749  0.8575
  102OSM   H14T10253   6.085   1.547   6.651  2.0849 -1.7110 -0.8152
  102OSM   C15S10254   6.237   1.646   6.514 -0.5211  0.2525  0.1272
  102OSM   H15S10255   6.316   1.571   6.537 -0.6140 -0.2182 -1.0188
  102OSM   H15T10256   6.282   1.748   6.515 -0.6647  0.3224 -0.2063
  102OSM   C16S10257   6.181   1.626   6.372  0.1846  0.1854  0.1760
  102OSM   H16S10258   6.087   1.685   6.363 -0.3849 -0.3098  2.3772
  102OSM   H16T10259   6.150   1.521   6.352 -1.2510  0.4086  1.1049
  102OSM   C17S10260   6.271   1.669   6.254  0.2844  0.3091 -0.3005
  102OSM   H17S10261   6.363   1.609   6.240  0.8217  1.2191 -0.8005
  102OSM   H17T10262   6.312   1.767   6.286  1.7279 -0.3986  0.0890
  102OSM   C18S10263   6.204   1.686   6.122  0.6069  0.7391 -0.5864
  102OSM   H18S10264   6.132   1.606   6.096 -0.5370  2.1945 -2.0815
  102OSM   H18T10265   6.275   1.692   6.036  0.1524 -2.9071 -1.3894
  102OSM   H18U10266   6.157   1.786   6.116  1.5169  1.2395  0.3649
  102OSM    C1F10267   6.730   1.322   7.729  0.0677  1.1859  0.4726
  102OSM     OF10268   6.684   1.203   7.720 -0.5668 -0.2575  0.2039
  102OSM    C2F10269   6.873   1.365   7.695  0.7307  0.3668  0.2686
  102OSM    H2F10270   6.944   1.283   7.722  1.1657  0.4599 -0.5680
  102OSM    H2G10271   6.895   1.456   7.756 -1.2289  1.2552 -0.2842
  102OSM    C3F10272   6.884   1.392   7.543 -0.2995 -0.3387  0.5779
  102OSM    H3F10273   6.818   1.321   7.488 -1.4814  0.7576  0.5278
  102OSM    H3G10274   6.992   1.375   7.521  0.0927  0.0269  2.1000
  102OSM    C4F10275   6.847   1.535   7.497  0.3513 -0.1814 -0.4425
  102OSM    H4F10276   6.917   1.611   7.538 -0.1077  0.0916 -0.1644
  102OSM    H4G10277   6.746   1.559   7.536  0.8795 -0.1747  0.9646
  102OSM    C5F10278   6.851   1.555   7.346  0.0964  0.2718  0.1188
  102OSM    H5F10279   6.798   1.475   7.290  1.4372 -1.1118  0.7468
  102OSM    H5G10280   6.952   1.557   7.298 -0.8961 -1.5914 -2.2386
  102OSM    C6F10281   6.793   1.693   7.314  0.8078 -0.4242 -0.2739
  102OSM    H6F10282   6.793   1.759   7.403 -0.4153 -0.5746 -0.1446
  102OSM    H6G10283   6.684   1.671   7.302  0.4761 -0.5752  2.3338
  102OSM    C7F10284   6.855   1.765   7.199  0.0756  0.2622  1.0374
  102OSM    H7F10285   6.965   1.756   7.214  0.0791 -0.8612  0.4598
  102OSM    H7G10286   6.830   1.873   7.193 -2.1533 -0.2108  0.9857
  102OSM    C8F10287   6.818   1.687   7.061 -0.5038 -1.1812 -0.6370
  102OSM    H8F10288   6.844   1.579   7.068  0.2438 -0.9634  0.2496
  102OSM    H8G10289   6.889   1.737   6.992 -0.5435 -0.2115 -0.0021
  102OSM    C9F10290   6.682   1.715   7.010 -0.1980 -0.0884 -0.4918
  102OSM    H9F10291   6.605   1.683   7.082  1.2088  0.9126  1.5233
  102OSM   C10F10292   6.641   1.798   6.905 -0.3910  0.1367 -1.0336
  102OSM   H10F10293   6.535   1.828   6.896  0.0004  1.9515  0.0256
  102OSM   C11F10294   6.728   1.862   6.799  0.4816 -0.2006  0.8043
  102OSM   H11F10295   6.729   1.802   6.706  1.2499  2.2982 -0.8760
  102OSM   H11G10296   6.835   1.866   6.826  0.9269 -0.8447 -0.7660
  102OSM   C12F10297   6.672   1.994   6.754 -0.1754  0.0033  0.0352
  102OSM   H12F10298   6.755   2.032   6.692  0.3088 -0.3420  0.4670
  102OSM   H12G10299   6.661   2.074   6.831  3.6359 -1.4582  2.3944
  102OSM   C13F10300   6.562   1.966   6.646 -0.1193  0.2123 -0.0042
  102OSM   H13F10301   6.480   1.908   6.694  1.3994 -1.1483  1.0782
  102OSM   H13G10302   6.606   1.900   6.568 -0.4832 -0.2094  0.1409
  102OSM   C14F10303   6.531   2.094   6.565 -0.1832 -0.1874  0.5383
  102OSM   H14F10304   6.476   2.055   6.477 -3.0022  1.2914  1.5271
  102OSM   H14G10305   6.623   2.147   6.533 -0.7485 -0.0744 -0.9293
  102OSM   C15F10306   6.442   2.188   6.643  0.1273 -0.0528 -0.5010
  102OSM   H15F10307   6.496   2.233   6.728 -1.0037  0.7511 -0.1778
  102OSM   H15G10308   6.352   2.144   6.691  0.6429 -0.4216  0.1366
  102OSM   C16F10309   6.393   2.321   6.569  0.5529  0.0141 -0.3159
  102OSM   H16F10310   6.474   2.394   6.546  0.7307  0.9390  2.8011
  102OSM   H16G10311   6.330   2.379   6.639 -0.5381 -0.5297 -0.8218
  102OSM   C17F10312   6.314   2.280   6.443  0.6346 -0.3827  0.3931
  102OSM   H17F10313   6.218   2.337   6.447  0.3341 -0.8966  0.5689
  102OSM   H17G10314   6.295   2.171   6.450  0.3427 -0.2345  2.3747
  102OSM   C18F10315   6.387   2.313   6.316 -0.9349  0.7068  0.2882
  102OSM   H18F10316   6.472   2.242   6.306 -1.3009  0.1958  0.8178
  102OSM   H18G10317   6.416   2.420   6.306 -1.6003  0.7241 -2.0867
  102OSM   H18H10318   6.330   2.294   6.223 -1.0863  1.9942  0.0922
  103OSM      N10319   4.813   3.782   7.978 -0.7642  0.3475 -0.6946
  103OSM    C1510320   4.921   3.875   8.026 -0.3013  0.1650 -0.5203
  103OSM   H15A10321   4.887   3.943   8.103 -1.3751  0.4678 -1.2349
  103OSM   H15B10322   4.961   3.940   7.949  1.2198  0.5614  0.5727
  103OSM   H15C10323   4.999   3.814   8.068 -1.8898 -1.5577  0.0476
  103OSM    C1410324   4.766   3.703   8.096  0.3323 -0.1496  0.5121
  103OSM   H14A10325   4.695   3.760   8.153 -0.7380 -1.4513  0.5582
  103OSM   H14B10326   4.848   3.675   8.160  0.8458  2.0519  0.8994
  103OSM   H14C10327   4.709   3.615   8.067 -2.8272  1.0554  2.5891
  103OSM    C1310328   4.703   3.863   7.931  0.2497 -0.2582 -0.0737
  103OSM   H13A10329   4.607   3.814   7.938 -0.0681 -0.5735 -4.0970
  103OSM   H13B10330   4.714   3.889   7.826  1.0773  0.0254  0.0756
  103OSM   H13C10331   4.686   3.961   7.973 -1.2139  1.5125 -4.2252
  103OSM    C1210332   4.874   3.689   7.873 -0.1301  0.4656  0.3955
  103OSM   H12A10333   4.790   3.637   7.829 -1.5521  1.6487  1.5521
  103OSM   H12B10334   4.939   3.613   7.913 -0.5608 -0.2295 -0.1865
  103OSM    C1110335   4.967   3.753   7.762 -1.0420  0.7175  0.0860
  103OSM   H11A10336   4.997   3.668   7.698  0.4264 -0.4219  2.1710
  103OSM   H11B10337   5.059   3.793   7.809  0.5370 -3.3215  0.7680
  103OSM      P10338   4.828   3.823   7.552 -0.1918 -0.1863 -0.2084
  103OSM    O1310339   4.828   3.681   7.525  0.3559  0.5856 -0.1855
  103OSM    O1410340   4.700   3.895   7.551  0.4081 -0.1758  0.5150
  103OSM    O1110341   4.914   3.906   7.448  0.4007  0.6506 -0.3763
  103OSM    O1210342   4.910   3.853   7.682 -0.1756  0.0561  0.1991
  103OSM    C1S10343   4.966   3.848   7.333  0.2385 -0.5605  0.2648
  103OSM    H1S10344   4.881   3.844   7.262  2.1540  0.0288 -2.2024
  103OSM    H1T10345   5.002   3.743   7.333 -1.0721 -1.0464 -0.9049
  103OSM     NF10346   5.104   3.924   7.138 -0.0383 -0.3939 -0.2162
  103OSM    HNF10347   5.192   3.887   7.108  0.6965 -1.2381  2.6100
  103OSM    C2S10348   5.084   3.941   7.280 -0.2636 -0.3667  0.0803
  103OSM    H2S10349   5.048   4.047   7.285  0.9407  0.0287  0.8197
  103OSM    C3S10350   5.206   3.937   7.367 -1.1144 -0.7246  0.2162
  103OSM    H3S10351   5.257   3.839   7.363 -1.0100 -0.7655  1.9802
  103OSM     O310352   5.183   3.940   7.502 -0.1319 -0.3118 -0.4067
  103OSM    HO310353   5.088   3.949   7.498 -0.4629 -1.9576  2.0024
  103OSM    C4S10354   5.323   4.037   7.333 -0.0004  0.0129  0.6393
  103OSM    H4S10355   5.307   4.146   7.333  0.9187  0.1574  0.1832
  103OSM    C5S10356   5.442   4.002   7.289 -0.2190 -0.4039 -0.0958
  103OSM    H5S10357   5.472   3.897   7.278 -0.1132 -0.2547 -1.3558
  103OSM    C6S10358   5.546   4.102   7.250  0.5512 -0.0867  0.1506
  103OSM    H6S10359   5.647   4.057   7.261 -0.4615 -2.6610 -0.3247
  103OSM    H6T10360   5.541   4.195   7.310 -1.4581 -0.8526  1.2508
  103OSM    C7S10361   5.546   4.147   7.103  0.7005  0.3327 -1.1552
  103OSM    H7S10362   5.636   4.209   7.083  0.3240  1.1567 -0.3609
  103OSM    H7T10363   5.453   4.203   7.081 -0.0509 -1.2537 -2.1198
  103OSM    C8S10364   5.541   4.027   7.002  0.0372  0.0415  0.7367
  103OSM    H8S10365   5.447   3.971   7.023 -1.0708  1.8048  0.7137
  103OSM    H8T10366   5.621   3.954   7.025 -1.4684 -1.5535  1.1624
  103OSM    C9S10367   5.552   4.071   6.849 -0.3080  0.0601 -0.0205
  103OSM    H9S10368   5.626   3.999   6.809  1.5780  1.7145  0.2990
  103OSM    H9T10369   5.604   4.169   6.861  0.9796 -0.5900 -0.0265
  103OSM   C10S10370   5.422   4.083   6.770 -0.2962  0.7620 -0.2593
  103OSM   H10S10371   5.356   4.153   6.826 -1.9135 -1.1405  0.3100
  103OSM   H10T10372   5.370   3.985   6.763  2.5546 -0.8501 -0.4639
  103OSM   C11S10373   5.435   4.137   6.622  0.4758 -0.1406 -0.2608
  103OSM   H11S10374   5.486   4.054   6.569  1.1274  0.3020 -0.3368
  103OSM   H11T10375   5.501   4.226   6.613 -0.5639  0.4844 -2.1004
  103OSM   C12S10376   5.305   4.136   6.542 -0.5976 -0.0793 -0.0245
  103OSM   H12S10377   5.241   4.206   6.600 -0.3768 -0.1152  0.2655
  103OSM   H12T10378   5.247   4.042   6.535  0.3766 -0.7515  0.5938
  103OSM   C13S10379   5.323   4.178   6.393  0.2445 -0.5413 -0.1592
  103OSM   H13S10380   5.375   4.276   6.384  0.9493 -0.9991 -1.3025
  103OSM   H13T10381   5.224   4.175   6.344  0.1666 -0.0642 -0.0406
  103OSM   C14S10382   5.418   4.092   6.306 -0.2561  0.5920 -0.4070
  103OSM   H14S10383   5.386   3.986   6.316 -1.0224  0.9210  0.9795
  103OSM   H14T10384   5.527   4.103   6.324  0.1910  1.4196 -3.2416
  103OSM   C15S10385   5.413   4.122   6.153 -0.2284 -0.4343  0.2315
  103OSM   H15S10386   5.309   4.114   6.115  0.7512  1.6791 -3.3677
  103OSM   H15T10387   5.479   4.051   6.097  1.5048  1.0201  0.3512
  103OSM   C16S10388   5.465   4.266   6.114 -0.3030  0.6338 -1.3840
  103OSM   H16S10389   5.567   4.284   6.154 -0.7298  0.4872 -0.1937
  103OSM   H16T10390   5.391   4.339   6.153 -2.5723 -2.3333  0.2411
  103OSM   C17S10391   5.475   4.290   5.959 -0.0361 -0.2709 -0.4296
  103OSM   H17S10392   5.369   4.273   5.933 -0.2479  0.6568 -0.2199
  103OSM   H17T10393   5.528   4.204   5.914 -0.9206 -1.3808  0.5838
  103OSM   C18S10394   5.509   4.435   5.913 -0.4666  0.7840  0.2653
  103OSM   H18S10395   5.606   4.472   5.953 -1.0633  0.5763  1.9801
  103OSM   H18T10396   5.431   4.509   5.942 -1.1473  0.7121 -1.2780
  103OSM   H18U10397   5.522   4.428   5.803  0.3977 -2.5186  0.4697
  103OSM    C1F10398   5.017   3.944   7.040  0.0191  0.5598  1.1440
  103OSM     OF10399   4.907   3.980   7.063  0.3088  0.4059  0.4738
  103OSM    C2F10400   5.067   3.911   6.898  0.6046 -0.1018 -0.1839
  103OSM    H2F10401   5.123   3.815   6.892  0.9332 -0.1320  2.4678
  103OSM    H2G10402   5.136   3.992   6.867  0.7980 -0.0337  0.4164
  103OSM    C3F10403   4.944   3.919   6.800  0.1564 -0.0991  0.0668
  103OSM    H3F10404   4.901   4.021   6.810 -0.7558 -0.5286  0.6507
  103OSM    H3G10405   4.866   3.852   6.843 -0.6582 -1.1525 -2.8392
  103OSM    C4F10406   4.975   3.884   6.651 -0.0834 -0.3949  0.2070
  103OSM    H4F10407   5.083   3.893   6.624  0.5071 -5.9408 -0.5272
  103OSM    H4G10408   4.924   3.957   6.586  0.7434 -0.4424 -0.5226
  103OSM    C5F10409   4.930   3.739   6.612 -0.1337 -0.0518  0.3682
  103OSM    H5F10410   4.965   3.668   6.690 -1.9728  1.3381  2.5895
  103OSM    H5G10411   4.967   3.718   6.509 -1.7081 -0.0530 -0.2255
  103OSM    C6F10412   4.778   3.721   6.611 -0.4118 -0.4387 -0.0202
  103OSM    H6F10413   4.734   3.773   6.523 -2.2856  1.1099  1.7304
  103OSM    H6G10414   4.722   3.761   6.698  0.7883 -0.7213  0.9067
  103OSM    C7F10415   4.745   3.575   6.602  0.0827  0.8417  0.8539
  103OSM    H7F10416   4.634   3.575   6.609 -0.0588  1.1396 -0.8224
  103OSM    H7G10417   4.789   3.517   6.686  2.3534  1.1797 -0.0254
  103OSM    C8F10418   4.794   3.504   6.473 -0.0105  0.6922  0.0018
  103OSM    H8F10419   4.903   3.484   6.467 -0.3965 -1.5745 -0.6278
  103OSM    H8G10420   4.775   3.579   6.393  0.8897 -0.3799 -1.2689
  103OSM    C9F10421   4.727   3.367   6.447  0.1298 -0.7114  0.2089
  103OSM    H9F10422   4.738   3.288   6.523 -1.9853 -1.5378 -0.2740
  103OSM   C10F10423   4.652   3.330   6.342  0.1032  0.2325 -0.4192
  103OSM   H10F10424   4.604   3.231   6.351  2.9602 -1.2868 -0.5900
  103OSM   C11F10425   4.600   3.429   6.236 -0.2832 -0.0987 -0.0607
  103OSM   H11F10426   4.653   3.527   6.235  1.1338 -0.8371 -0.4645
  103OSM   H11G10427   4.494   3.453   6.256  0.7240  2.4023  3.1581
  103OSM   C12F10428   4.620   3.372   6.090  0.2234  0.4401 -1.0237
  103OSM   H12F10429   4.729   3.352   6.082 -0.1572 -2.6165  0.0453
  103OSM   H12G10430   4.580   3.447   6.019 -1.7088 -0.7469 -1.2615
  103OSM   C13F10431   4.545   3.239   6.058 -0.1736  0.0495  0.3148
  103OSM   H13F10432   4.444   3.237   6.102 -1.1244 -0.2591 -1.7665
  103OSM   H13G10433   4.606   3.163   6.111 -0.1720  0.7794  1.3885
  103OSM   C14F10434   4.560   3.202   5.912 -0.0661  0.4618 -0.3607
  103OSM   H14F10435   4.563   3.092   5.904  2.6697  0.3485  1.1091
  103OSM   H14G10436   4.668   3.224   5.904  0.7310 -2.3641  1.2489
  103OSM   C15F10437   4.481   3.282   5.806 -0.8840  0.1624  0.0420
  103OSM   H15F10438   4.541   3.284   5.713  1.8059 -2.0769  1.5949
  103OSM   H15G10439   4.478   3.387   5.844  1.7374 -0.7443  3.1778
  103OSM   C16F10440   4.341   3.231   5.767 -0.3208 -0.3388 -0.3991
  103OSM   H16F10441   4.282   3.246   5.860 -0.1720  0.2338 -0.3957
  103OSM   H16G10442   4.346   3.123   5.741 -0.7454 -0.1043 -1.5010
  103OSM   C17F10443   4.268   3.310   5.651 -0.2353  0.5988 -0.1008
  103OSM   H17F10444   4.330   3.307   5.559 -0.0528 -0.0580  0.0427
  103OSM   H17G10445   4.255   3.414   5.688  1.8115  0.2686  1.6975
  103OSM   C18F10446   4.138   3.241   5.611 -0.1264  0.4390 -0.5853
  103OSM   H18F10447   4.156   3.142   5.565 -1.4814  0.6833 -1.6962
  103OSM   H18G10448   4.096   3.303   5.529  0.0799 -0.1088 -1.1100
  103OSM   H18H10449   4.062   3.237   5.693  0.6378 -0.2759  0.1068
  104OSM      N10450   5.378   3.313   8.374 -0.6410  0.0626  0.5721
  104OSM    C1510451   5.290   3.432   8.346  0.1130  0.5189 -0.3204
  104OSM   H15A10452   5.279   3.487   8.439  0.3652 -2.0378  1.3294
  104OSM   H15B10453   5.195   3.401   8.306 -0.2277  1.1755 -0.0535
  104OSM   H15C10454   5.341   3.495   8.274  2.1603 -1.5182 -0.7505
  104OSM    C1410455   5.497   3.372   8.437  0.1977  0.2000  1.0817
  104OSM   H14A10456   5.571   3.393   8.361 -3.5841  1.9157 -2.5112
  104OSM   H14B10457   5.542   3.296   8.499  0.4515  0.1891  0.8875
  104OSM   H14C10458   5.472   3.461   8.494 -0.5276  1.1105 -0.5886
  104OSM    C1310459   5.314   3.223   8.475 -0.7834  0.4795 -0.0648
  104OSM   H13A10460   5.376   3.135   8.486  1.9037  1.8204 -2.7118
  104OSM   H13B10461   5.219   3.188   8.439  0.0349 -0.4987 -1.3995
  104OSM   H13C10462   5.299   3.269   8.571  0.6689  1.8879 -0.4652
  104OSM    C1210463   5.408   3.230   8.243  0.2120  0.0613 -0.2090
  104OSM   H12A10464   5.485   3.275   8.182 -0.3472  0.8686 -0.3343
  104OSM   H12B10465   5.314   3.225   8.192 -0.5746  1.2443  1.0516
  104OSM    C1110466   5.457   3.082   8.271  0.0578 -0.2771  0.0452
  104OSM   H11A10467   5.552   3.089   8.329  0.1199 -0.0711 -0.0788
  104OSM   H11B10468   5.485   3.044   8.171 -0.9602  0.3306 -0.4808
  104OSM      P10469   5.227   2.947   8.255 -0.1991  0.2495 -0.1044
  104OSM    O1310470   5.218   2.802   8.234  0.0463  0.5057  0.7200
  104OSM    O1410471   5.122   3.008   8.334  0.3243  0.0172 -0.0138
  104OSM    O1110472   5.241   3.008   8.112 -0.3915 -0.6627  0.2836
  104OSM    O1210473   5.359   2.995   8.333 -0.1423  0.2020  0.7606
  104OSM    C1S10474   5.306   2.934   8.005 -0.0344 -0.3239 -0.9332
  104OSM    H1S10475   5.280   2.826   8.015 -2.1053  0.2807  0.8832
  104OSM    H1T10476   5.416   2.942   8.021 -0.0607 -2.4838  0.7563
  104OSM     NF10477   5.335   2.902   7.768  0.1207 -0.2491  0.2671
  104OSM    HNF10478   5.427   2.929   7.738  0.0835 -0.2815  0.1263
  104OSM    C2S10479   5.277   2.993   7.869  0.1045  0.0796  0.2620
  104OSM    H2S10480   5.167   2.975   7.876 -0.0891  1.5028  1.2003
  104OSM    C3S10481   5.294   3.152   7.864 -0.8010  0.2633  0.6254
  104OSM    H3S10482   5.402   3.175   7.866 -0.6243 -0.5390  0.6263
  104OSM     O310483   5.235   3.225   7.966 -0.3073 -0.8113  0.2152
  104OSM    HO310484   5.196   3.150   8.012  0.4380 -3.3016 -2.8049
  104OSM    C4S10485   5.244   3.209   7.732  0.0364 -0.2983  0.4083
  104OSM    H4S10486   5.134   3.221   7.730  0.2268  1.7417 -0.2329
  104OSM    C5S10487   5.326   3.258   7.637  0.1907 -0.0047  0.4446
  104OSM    H5S10488   5.434   3.270   7.655  0.6543 -1.7742 -0.9214
  104OSM    C6S10489   5.275   3.343   7.519 -0.2685 -0.4096 -0.8624
  104OSM    H6S10490   5.277   3.276   7.430 -2.5635 -2.3802  0.4475
  104OSM    H6T10491   5.336   3.435   7.512 -1.3700  0.3501 -0.6362
  104OSM    C7S10492   5.131   3.398   7.532  0.0113 -0.7661 -0.4053
  104OSM    H7S10493   5.116   3.455   7.627  2.3871 -0.9928  0.1798
  104OSM    H7T10494   5.071   3.305   7.532  1.3289 -1.6371 -0.9471
  104OSM    C8S10495   5.096   3.482   7.415 -0.0283  0.0878  0.3621
  104OSM    H8S10496   5.156   3.575   7.405  0.0848 -0.0586 -0.4078
  104OSM    H8T10497   4.991   3.517   7.414 -0.3330 -0.7466 -1.2207
  104OSM    C9S10498   5.112   3.407   7.280 -0.6457  0.2706  0.2222
  104OSM    H9S10499   5.081   3.302   7.297 -0.0332  0.5960  4.7733
  104OSM    H9T10500   5.216   3.390   7.247 -0.4114 -0.1716  1.1358
  104OSM   C10S10501   5.045   3.481   7.162 -0.1617 -0.2696 -0.2504
  104OSM   H10S10502   5.106   3.574   7.154  0.7919 -0.8164  0.5243
  104OSM   H10T10503   4.940   3.510   7.184  0.2486  2.7635 -1.6774
  104OSM   C11S10504   5.053   3.394   7.037  0.0740 -0.2825 -0.0919
  104OSM   H11S10505   4.993   3.301   7.046  2.4315 -1.6805  2.4866
  104OSM   H11T10506   5.153   3.347   7.026 -0.3487 -1.4547  0.8549
  104OSM   C12S10507   5.009   3.471   6.913 -0.3765 -0.7453 -0.4658
  104OSM   H12S10508   5.064   3.568   6.914 -0.1730 -0.8321 -1.7117
  104OSM   H12T10509   4.901   3.498   6.907 -0.3267 -0.8263 -1.9493
  104OSM   C13S10510   5.061   3.410   6.782  0.4818  0.5233  0.4503
  104OSM   H13S10511   5.171   3.397   6.784  0.5018  0.6150 -0.0555
  104OSM   H13T10512   5.036   3.470   6.692 -0.3546 -2.1966 -1.2186
  104OSM   C14S10513   5.008   3.261   6.770 -0.1877 -0.1213 -0.4811
  104OSM   H14S10514   4.897   3.262   6.778 -0.3403  4.8188 -0.0803
  104OSM   H14T10515   5.045   3.196   6.852  0.9002  0.5715 -0.4024
  104OSM   C15S10516   5.053   3.193   6.645 -0.3747 -0.3802 -0.1107
  104OSM   H15S10517   5.161   3.170   6.648 -0.3080  0.0397  1.7804
  104OSM   H15T10518   5.031   3.264   6.562 -2.1920  2.9850  2.9252
  104OSM   C16S10519   4.973   3.073   6.612 -0.5702  0.2060 -0.2035
  104OSM   H16S10520   4.869   3.105   6.589 -0.8988 -0.6252  0.1004
  104OSM   H16T10521   4.969   3.009   6.703 -0.4783 -0.9779 -1.0022
  104OSM   C17S10522   5.027   2.984   6.498  0.3162 -0.3468  0.1720
  104OSM   H17S10523   4.938   2.934   6.453  0.3141  1.9364 -2.6635
  104OSM   H17T10524   5.086   2.906   6.551  2.3623  1.6569  1.0101
  104OSM   C18S10525   5.115   3.035   6.380  0.0474 -0.3039 -0.6977
  104OSM   H18S10526   5.042   3.082   6.312  0.2043 -0.1905 -0.7877
  104OSM   H18T10527   5.158   2.953   6.319 -1.7991  0.4369 -3.1457
  104OSM   H18U10528   5.199   3.099   6.414  0.3812 -1.5977  1.0813
  104OSM    C1F10529   5.300   2.779   7.743  0.2203 -0.0094  0.4145
  104OSM     OF10530   5.208   2.727   7.799 -0.0926 -0.1551 -0.5844
  104OSM    C2F10531   5.403   2.701   7.665 -0.2029  0.1774  0.0465
  104OSM    H2F10532   5.472   2.644   7.732 -0.3436 -2.0375 -1.5956
  104OSM    H2G10533   5.458   2.779   7.608 -2.8183  0.7201 -1.8901
  104OSM    C3F10534   5.334   2.599   7.568 -0.4690  0.6826  0.8340
  104OSM    H3F10535   5.286   2.660   7.489  0.9955 -0.4469 -1.0295
  104OSM    H3G10536   5.248   2.545   7.613 -0.6757  1.3118  1.1995
  104OSM    C4F10537   5.444   2.512   7.495 -0.5472  0.2227 -0.8358
  104OSM    H4F10538   5.495   2.450   7.572 -1.6671  0.9074  0.5246
  104OSM    H4G10539   5.522   2.571   7.443  0.8551  0.2923  1.2341
  104OSM    C5F10540   5.383   2.417   7.393 -0.0122  0.2038 -0.2903
  104OSM    H5F10541   5.353   2.482   7.308 -0.2390  1.1318  0.4827
  104OSM    H5G10542   5.294   2.365   7.435  1.0841 -0.4821  1.2545
  104OSM    C6F10543   5.478   2.310   7.347  0.4030 -0.0333 -0.3879
  104OSM    H6F10544   5.570   2.353   7.301  0.7091  0.4386  0.6400
  104OSM    H6G10545   5.411   2.259   7.275 -0.9257  3.0340 -1.4990
  104OSM    C7F10546   5.531   2.218   7.463 -0.3885  0.3571 -0.6708
  104OSM    H7F10547   5.446   2.175   7.520 -0.8008 -0.4810 -1.8689
  104OSM    H7G10548   5.601   2.271   7.530  1.5085 -1.5717 -1.0172
  104OSM    C8F10549   5.616   2.102   7.420 -0.7107  0.1558 -0.0632
  104OSM    H8F10550   5.546   2.042   7.358 -1.1444  2.4567 -1.9357
  104OSM    H8G10551   5.649   2.051   7.512  0.5118  1.7988  0.4524
  104OSM    C9F10552   5.732   2.149   7.340  0.3326 -0.2025 -0.6208
  104OSM    H9F10553   5.781   2.237   7.385 -0.5652 -0.7266  1.4952
  104OSM   C10F10554   5.791   2.097   7.239 -0.6706 -0.6361  0.1070
  104OSM   H10F10555   5.868   2.158   7.188  0.0402 -1.4503  0.1959
  104OSM   C11F10556   5.748   1.980   7.162  0.6732 -0.0781  0.2341
  104OSM   H11F10557   5.782   1.990   7.056 -1.4983  0.6113 -0.4495
  104OSM   H11G10558   5.639   1.975   7.143  0.5864  0.3102  0.6221
  104OSM   C12F10559   5.798   1.835   7.198  0.0272  0.0084 -0.3836
  104OSM   H12F10560   5.908   1.842   7.214  0.1822  0.3922 -1.5395
  104OSM   H12G10561   5.766   1.771   7.113 -1.2923  0.5981 -0.3541
  104OSM   C13F10562   5.740   1.780   7.323 -0.2462 -0.7813  0.1538
  104OSM   H13F10563   5.632   1.788   7.298 -0.3450 -2.5438 -0.1533
  104OSM   H13G10564   5.760   1.858   7.399 -1.4857  1.6181 -1.8336
  104OSM   C14F10565   5.788   1.628   7.337  0.4149  0.2422  0.2497
  104OSM   H14F10566   5.899   1.622   7.339  0.3891 -0.5765 -0.3682
  104OSM   H14G10567   5.767   1.560   7.252  1.6607 -2.1390  1.7365
  104OSM   C15F10568   5.736   1.566   7.461 -0.1410 -0.3051  0.1552
  104OSM   H15F10569   5.773   1.462   7.465  0.0689 -0.2782 -0.8599
  104OSM   H15G10570   5.625   1.553   7.458  0.1480 -3.2251 -0.6840
  104OSM   C16F10571   5.776   1.641   7.591  0.0493 -0.0224 -0.2105
  104OSM   H16F10572   5.728   1.742   7.594 -0.1819 -0.1221 -0.4689
  104OSM   H16G10573   5.885   1.657   7.592  0.0229  0.1889 -0.6260
  104OSM   C17F10574   5.731   1.568   7.722 -0.1722 -0.2547 -0.1140
  104OSM   H17F10575   5.794   1.477   7.718 -0.8509 -0.7108 -0.5700
  104OSM   H17G10576   5.629   1.526   7.718  1.1618 -3.6746 -2.2647
  104OSM   C18F10577   5.752   1.652   7.843  0.0655  0.4877 -0.7321
  104OSM   H18F10578   5.845   1.709   7.824  0.2049 -0.0432 -1.6961
  104OSM   H18G10579   5.756   1.594   7.938  0.8927  0.4643 -0.7780
  104OSM   H18H10580   5.664   1.719   7.854  0.6365  0.8245  2.7431
  105OSM      N10581   5.760   2.762   8.327 -0.3508 -0.3543  0.1306
  105OSM    C1510582   5.615   2.775   8.361 -0.2082 -0.5040 -0.1853
  105OSM   H15A10583   5.604   2.796   8.467  0.5113 -0.5683 -0.0931
  105OSM   H15B10584   5.561   2.685   8.340 -3.9400  1.1630  1.4191
  105OSM   H15C10585   5.582   2.860   8.303  3.5817  0.6491 -0.9763
  105OSM    C1410586   5.843   2.876   8.384 -0.5164  0.0352  0.3543
  105OSM   H14A10587   5.836   2.869   8.491 -3.2125  3.6277  0.6408
  105OSM   H14B10588   5.808   2.967   8.337 -4.9825 -1.4176  0.3789
  105OSM   H14C10589   5.944   2.857   8.351 -0.0378  2.3961  0.2147
  105OSM    C1310590   5.821   2.634   8.379 -0.1488  0.1150 -0.8744
  105OSM   H13A10591   5.777   2.545   8.336 -0.7295 -1.1912  2.1483
  105OSM   H13B10592   5.822   2.633   8.487  0.4838  1.3319 -0.8487
  105OSM   H13C10593   5.924   2.636   8.347  0.1975  2.4341  0.1490
  105OSM    C1210594   5.764   2.771   8.175  0.5988 -0.1836  0.3847
  105OSM   H12A10595   5.735   2.676   8.133  0.9665 -0.5056  0.8550
  105OSM   H12B10596   5.863   2.795   8.140  0.4564 -0.0045  0.0956
  105OSM    C1110597   5.681   2.882   8.105 -0.5142 -0.5338  0.0637
  105OSM   H11A10598   5.571   2.867   8.113 -1.0336  1.3679 -2.2094
  105OSM   H11B10599   5.681   2.858   7.996  1.3217  0.7781 -0.2694
  105OSM      P10600   5.795   3.104   8.030 -0.0252 -0.5275  0.6937
  105OSM    O1310601   5.705   3.227   8.027 -0.0740  0.1947 -0.1792
  105OSM    O1410602   5.938   3.124   8.063 -0.9394  0.4719 -0.9007
  105OSM    O1110603   5.789   3.028   7.891 -0.0906  0.2188  0.5679
  105OSM    O1210604   5.731   3.005   8.137 -0.4084 -0.4917 -0.0853
  105OSM    C1S10605   5.882   3.066   7.782 -0.0700  0.1491 -0.0380
  105OSM    H1S10606   5.982   3.021   7.799 -0.8165 -1.8312 -0.5831
  105OSM    H1T10607   5.906   3.174   7.780  0.4166  0.0486  0.3701
  105OSM     NF10608   5.916   3.075   7.531  0.6526 -0.6202 -0.0139
  105OSM    HNF10609   5.882   3.154   7.481  1.8431  0.5577  0.9521
  105OSM    C2S10610   5.829   3.028   7.639  0.7600  0.3520 -0.3715
  105OSM    H2S10611   5.829   2.917   7.629  3.2453  0.0585  1.7605
  105OSM    C3S10612   5.682   3.069   7.619  1.1989  0.3697  0.0426
  105OSM    H3S10613   5.678   3.180   7.625  0.8949  0.4516 -1.4091
  105OSM     O310614   5.586   3.032   7.720  0.6609  0.0161  0.8145
  105OSM    HO310615   5.639   3.019   7.800 -0.1165 -2.3708  1.0346
  105OSM    C4S10616   5.635   3.014   7.496  0.2952 -0.1115 -0.6321
  105OSM    H4S10617   5.613   2.907   7.485 -0.6969  0.1313 -1.1047
  105OSM    C5S10618   5.604   3.089   7.388  0.8247  0.1154 -0.2099
  105OSM    H5S10619   5.618   3.198   7.396 -2.4179  0.5116  1.7290
  105OSM    C6S10620   5.583   3.028   7.252  0.2126  0.0432 -1.1198
  105OSM    H6S10621   5.660   3.073   7.186  2.4400  0.1576  1.3989
  105OSM    H6T10622   5.479   3.052   7.220 -0.5060 -2.2859 -0.7270
  105OSM    C7S10623   5.589   2.878   7.220 -0.0905 -0.4000  0.0574
  105OSM    H7S10624   5.496   2.828   7.255 -0.7488  0.1649 -0.8149
  105OSM    H7T10625   5.672   2.831   7.277 -0.0978 -1.3945 -0.7271
  105OSM    C8S10626   5.619   2.846   7.076  0.7435 -0.0767 -0.1313
  105OSM    H8S10627   5.706   2.908   7.046  0.3330  0.4646 -0.2149
  105OSM    H8T10628   5.536   2.861   7.005 -0.6754 -2.4035  0.9075
  105OSM    C9S10629   5.653   2.693   7.054  0.0550  0.0430 -0.4525
  105OSM    H9S10630   5.738   2.661   7.118  0.4014  0.2557 -0.7998
  105OSM    H9T10631   5.701   2.683   6.954 -0.2351  0.1844 -0.6060
  105OSM   C10S10632   5.532   2.601   7.067 -0.6854 -0.9713 -0.0733
  105OSM   H10S10633   5.453   2.636   6.998 -1.0630  1.3682  1.4502
  105OSM   H10T10634   5.480   2.612   7.164  0.6711 -0.6383  0.6393
  105OSM   C11S10635   5.551   2.455   7.029  0.1665  0.5696 -0.1779
  105OSM   H11S10636   5.458   2.402   7.061  0.8104 -0.7454 -0.3972
  105OSM   H11T10637   5.630   2.402   7.087 -1.7379 -2.3018  0.0042
  105OSM   C12S10638   5.574   2.436   6.878 -0.4795 -0.0473 -0.0880
  105OSM   H12S10639   5.665   2.497   6.860 -1.0681  1.4002  1.6534
  105OSM   H12T10640   5.500   2.494   6.819 -1.9403  1.0555  2.6452
  105OSM   C13S10641   5.596   2.294   6.832 -0.2744 -0.0378  1.2003
  105OSM   H13S10642   5.505   2.233   6.851 -0.9567  1.0277  1.4160
  105OSM   H13T10643   5.674   2.247   6.895  0.9234 -0.7448 -0.7165
  105OSM   C14S10644   5.628   2.285   6.682 -0.2508  0.3353  0.6384
  105OSM   H14S10645   5.664   2.182   6.659  0.0686  1.0022 -2.3477
  105OSM   H14T10646   5.721   2.345   6.672 -1.0201  1.4799  0.1570
  105OSM   C15S10647   5.521   2.335   6.581  0.0865 -0.2189 -0.2085
  105OSM   H15S10648   5.519   2.444   6.564  3.5883  0.0919  0.5866
  105OSM   H15T10649   5.426   2.311   6.632  0.4150  1.6755  1.4086
  105OSM   C16S10650   5.528   2.265   6.447 -0.1000  1.1066 -0.0089
  105OSM   H16S10651   5.438   2.290   6.386  1.8484  2.0387 -2.7080
  105OSM   H16T10652   5.525   2.154   6.456 -1.8664  1.1253 -0.0080
  105OSM   C17S10653   5.659   2.295   6.368  1.0686  0.4217  1.0512
  105OSM   H17S10654   5.733   2.235   6.426  3.0138  1.8294  0.1431
  105OSM   H17T10655   5.683   2.403   6.380 -1.9304  1.3914 -0.6852
  105OSM   C18S10656   5.652   2.251   6.213 -0.1849  0.0010  0.1813
  105OSM   H18S10657   5.747   2.280   6.164 -0.0381 -0.1362  0.3774
  105OSM   H18T10658   5.559   2.292   6.169 -0.9608 -3.0577 -1.3077
  105OSM   H18U10659   5.640   2.140   6.218 -0.0936  0.0189  1.0714
  105OSM    C1F10660   6.048   3.042   7.519 -0.6333  0.1096 -0.3968
  105OSM     OF10661   6.099   2.961   7.601 -0.1480  0.5189  0.4063
  105OSM    C2F10662   6.114   3.113   7.402 -0.4311 -0.4941  0.0220
  105OSM    H2F10663   6.144   3.208   7.451  1.0552 -1.2680  0.6832
  105OSM    H2G10664   6.049   3.137   7.316  1.5429  0.8510 -1.1755
  105OSM    C3F10665   6.254   3.051   7.347 -0.0225 -0.0973  1.2053
  105OSM    H3F10666   6.301   3.036   7.447  1.8320 -0.2347  0.3411
  105OSM    H3G10667   6.316   3.122   7.289  1.8369 -1.8561  0.9381
  105OSM    C4F10668   6.249   2.919   7.270 -0.3607  0.5233  0.1912
  105OSM    H4F10669   6.200   2.842   7.333  1.9942 -0.4373  0.9329
  105OSM    H4G10670   6.349   2.871   7.268 -1.6839 -2.4728  0.5054
  105OSM    C5F10671   6.160   2.923   7.138 -0.8098  0.5276  0.1812
  105OSM    H5F10672   6.174   3.022   7.088 -0.6128  0.4535  0.0904
  105OSM    H5G10673   6.052   2.906   7.160 -0.6452 -1.4544 -0.3983
  105OSM    C6F10674   6.209   2.819   7.036  1.1326  0.0483  0.1666
  105OSM    H6F10675   6.213   2.722   7.090  0.7826 -0.2782 -0.3835
  105OSM    H6G10676   6.313   2.827   6.998  0.7420 -1.9396 -1.4892
  105OSM    C7F10677   6.116   2.792   6.918 -0.1709 -0.3082 -0.1361
  105OSM    H7F10678   6.124   2.885   6.858  0.3702  0.8562  1.6469
  105OSM    H7G10679   6.011   2.771   6.950  0.1655 -2.5084 -0.3433
  105OSM    C8F10680   6.159   2.660   6.840  0.2717  0.1402 -0.5942
  105OSM    H8F10681   6.142   2.567   6.899 -3.0719 -0.2186 -1.8718
  105OSM    H8G10682   6.268   2.673   6.822  0.7749  1.3414  2.7186
  105OSM    C9F10683   6.082   2.657   6.707 -0.9930  0.0500 -0.0232
  105OSM    H9F10684   5.976   2.635   6.724 -0.9556 -1.5214 -1.6769
  105OSM   C10F10685   6.129   2.672   6.581 -0.4561  0.2870  0.0454
  105OSM   H10F10686   6.057   2.660   6.499  2.0570 -1.0272 -2.1010
  105OSM   C11F10687   6.270   2.682   6.534 -0.1890 -0.1407 -0.3649
  105OSM   H11F10688   6.296   2.612   6.452 -3.4524  1.2692 -2.8159
  105OSM   H11G10689   6.334   2.662   6.623 -1.2995  1.6227  0.8925
  105OSM   C12F10690   6.307   2.822   6.492 -0.1169 -0.5261  0.3395
  105OSM   H12F10691   6.282   2.891   6.575  1.3655 -0.1699  0.5214
  105OSM   H12G10692   6.246   2.845   6.402 -0.7862 -2.4823  0.2518
  105OSM   C13F10693   6.453   2.836   6.466  0.5730  0.2307  0.1601
  105OSM   H13F10694   6.518   2.823   6.555  1.5506  1.5646 -0.3195
  105OSM   H13G10695   6.477   2.940   6.433  0.1429 -0.0694 -1.1514
  105OSM   C14F10696   6.505   2.752   6.348  0.5498  0.5394 -0.2607
  105OSM   H14F10697   6.500   2.642   6.362 -0.7788  0.3996 -1.5755
  105OSM   H14G10698   6.614   2.774   6.341  0.2912  1.3136 -2.3210
  105OSM   C15F10699   6.432   2.792   6.220 -0.2472 -1.2481  0.5470
  105OSM   H15F10700   6.428   2.903   6.212  0.2800 -1.3571 -2.9880
  105OSM   H15G10701   6.325   2.761   6.222  0.0133 -2.1311  2.0760
  105OSM   C16F10702   6.490   2.747   6.085 -0.0720 -0.0885 -0.4967
  105OSM   H16F10703   6.600   2.758   6.101 -0.4630  1.1205  1.8278
  105OSM   H16G10704   6.460   2.803   5.994  0.9875 -2.5606 -2.5000
  105OSM   C17F10705   6.470   2.597   6.042  0.0857  0.0430 -1.1063
  105OSM   H17F10706   6.361   2.578   6.055  0.4066 -0.4536  1.2973
  105OSM   H17G10707   6.524   2.526   6.108 -0.4201  0.1422 -0.5722
  105OSM   C18F10708   6.508   2.572   5.895  0.0798  0.3807  0.0861
  105OSM   H18F10709   6.613   2.607   5.889  0.2578  0.1757  1.6068
  105OSM   H18G10710   6.443   2.617   5.817  0.6939 -0.4437 -0.9125
  105OSM   H18H10711   6.504   2.464   5.872  1.0747  0.2669  0.3883
  106OSM      N10712   4.580   1.876   8.167 -0.2541 -0.0708 -0.5936
  106OSM    C1510713   4.511   1.973   8.078  0.2822 -0.4460 -0.0749
  106OSM   H15A10714   4.574   2.054   8.042  0.0530  0.4016  1.3331
  106OSM   H15B10715   4.435   2.020   8.139 -0.1604 -1.8409  0.4951
  106OSM   H15C10716   4.453   1.923   8.003 -0.8357  1.6549 -0.7019
  106OSM    C1410717   4.628   1.955   8.285 -0.0682 -0.7220 -0.4800
  106OSM   H14A10718   4.659   1.890   8.366 -0.2265 -0.0492  0.1326
  106OSM   H14B10719   4.559   2.027   8.326 -1.3995 -1.2883 -1.6670
  106OSM   H14C10720   4.711   2.020   8.265 -0.0768 -0.5036  0.1662
  106OSM    C1310721   4.479   1.773   8.219  0.5790  0.2248 -0.2164
  106OSM   H13A10722   4.405   1.823   8.280  1.4833  1.7006 -0.2910
  106OSM   H13B10723   4.526   1.699   8.282  1.6927  1.9775  1.0638
  106OSM   H13C10724   4.423   1.716   8.145  0.0719  1.1545 -0.5614
  106OSM    C1210725   4.696   1.800   8.110 -0.5538  0.0027 -0.3122
  106OSM   H12A10726   4.764   1.875   8.072  0.0473 -0.3436  0.0677
  106OSM   H12B10727   4.652   1.751   8.025  0.8046  0.8441 -1.5426
  106OSM    C1110728   4.768   1.700   8.199  0.1487  0.0102 -0.5859
  106OSM   H11A10729   4.811   1.749   8.289  0.0549  0.1386 -0.6112
  106OSM   H11B10730   4.858   1.678   8.137  0.1511  1.4689 -1.1278
  106OSM      P10731   4.704   1.445   8.176 -0.1344 -0.1341  0.1561
  106OSM    O1310732   4.842   1.409   8.186 -0.2922  0.8146  0.0270
  106OSM    O1410733   4.603   1.347   8.229 -0.1773 -0.6558  0.1499
  106OSM    O1110734   4.673   1.475   8.021  0.6231  0.0611 -0.3627
  106OSM    O1210735   4.683   1.589   8.240  0.3110 -0.2603 -0.1618
  106OSM    C1S10736   4.534   1.468   7.980  0.0635  0.1743 -0.5622
  106OSM    H1S10737   4.482   1.556   8.023 -2.0206 -0.2706 -2.0193
  106OSM    H1T10738   4.483   1.375   8.012  1.5369 -1.1661 -1.9178
  106OSM     NF10739   4.391   1.508   7.787 -0.0734  0.3026  0.7846
  106OSM    HNF10740   4.357   1.430   7.736  0.0127  0.6662  0.1636
  106OSM    C2S10741   4.523   1.470   7.832 -0.9757  0.1778 -0.3199
  106OSM    H2S10742   4.589   1.552   7.799  2.0711 -1.2553  1.7497
  106OSM    C3S10743   4.574   1.341   7.771 -0.6039 -0.5002 -0.4853
  106OSM    H3S10744   4.491   1.269   7.783  0.2325 -1.5411 -0.7812
  106OSM     O310745   4.693   1.282   7.822 -0.2298 -0.6630  0.4977
  106OSM    HO310746   4.721   1.332   7.899  1.6285  3.7501 -2.6108
  106OSM    C4S10747   4.597   1.371   7.628  0.0190 -0.9143 -0.5077
  106OSM    H4S10748   4.644   1.468   7.607  2.4486 -1.7788  0.5227
  106OSM    C5S10749   4.558   1.301   7.516  0.5879  0.2261  0.1400
  106OSM    H5S10750   4.487   1.217   7.523  0.6446  0.1344 -0.3310
  106OSM    C6S10751   4.576   1.348   7.378 -0.1035  0.1033  0.2476
  106OSM    H6S10752   4.577   1.266   7.303  2.0148 -0.3096  0.6717
  106OSM    H6T10753   4.677   1.389   7.356 -1.1786  2.2918 -0.9593
  106OSM    C7S10754   4.482   1.460   7.331 -0.3389 -0.0482  0.2901
  106OSM    H7S10755   4.513   1.544   7.397  1.5047 -1.7774  1.7885
  106OSM    H7T10756   4.376   1.448   7.361 -0.3594 -1.4923 -0.2848
  106OSM    C8S10757   4.487   1.508   7.187 -0.2328 -0.4979  0.9013
  106OSM    H8S10758   4.439   1.431   7.124  1.2658 -0.2433 -0.6129
  106OSM    H8T10759   4.593   1.524   7.158 -0.4093  1.2010  1.0533
  106OSM    C9S10760   4.418   1.645   7.163 -0.5648  0.2450 -0.0800
  106OSM    H9S10761   4.490   1.722   7.200  1.0503 -1.9956  1.6982
  106OSM    H9T10762   4.330   1.653   7.231 -0.5661  1.3476 -0.1796
  106OSM   C10S10763   4.378   1.676   7.018  0.0520 -0.0814  0.2320
  106OSM   H10S10764   4.291   1.612   6.989  0.5971 -1.1330  0.8599
  106OSM   H10T10765   4.470   1.665   6.957  1.8177  2.9814  2.0796
  106OSM   C11S10766   4.325   1.820   6.991  0.2211  0.0127  0.0769
  106OSM   H11S10767   4.407   1.895   7.003 -0.4144  0.6694  0.4277
  106OSM   H11T10768   4.250   1.830   7.073  1.0347 -0.5859  0.9198
  106OSM   C12S10769   4.264   1.827   6.852  0.4564  0.7662 -0.1374
  106OSM   H12S10770   4.157   1.797   6.855  0.2611  1.4965  1.4509
  106OSM   H12T10771   4.325   1.753   6.795 -1.4780  0.6612 -2.2086
  106OSM   C13S10772   4.278   1.968   6.789 -0.1231 -0.0515  1.0439
  106OSM   H13S10773   4.381   2.001   6.816  0.0142 -1.0476  1.7703
  106OSM   H13T10774   4.211   2.044   6.834  1.0120 -0.0301  2.7523
  106OSM   C14S10775   4.266   1.959   6.636 -0.3942  0.0200  0.4600
  106OSM   H14S10776   4.317   1.865   6.606  1.4933  1.2329 -0.3496
  106OSM   H14T10777   4.315   2.045   6.586 -2.0973 -0.1875 -1.7041
  106OSM   C15S10778   4.122   1.971   6.586  0.5381  0.2561 -0.9898
  106OSM   H15S10779   4.075   2.066   6.622  1.0255  0.5681 -1.1652
  106OSM   H15T10780   4.057   1.890   6.625 -0.4194  1.8470  0.9104
  106OSM   C16S10781   4.101   1.977   6.435  0.9458  0.2888 -0.2990
  106OSM   H16S10782   4.167   2.051   6.383  0.8751  0.1349 -0.6095
  106OSM   H16T10783   3.999   2.004   6.401  1.1996  0.4127 -0.9812
  106OSM   C17S10784   4.123   1.837   6.380  0.1890  0.0389 -0.6413
  106OSM   H17S10785   4.043   1.772   6.421 -0.4838  2.2144  1.7823
  106OSM   H17T10786   4.218   1.790   6.413  0.0101  0.5542  0.6725
  106OSM   C18S10787   4.106   1.820   6.226 -0.0073 -0.8815  0.1519
  106OSM   H18S10788   4.078   1.718   6.194 -0.2751  0.2357 -3.6101
  106OSM   H18T10789   4.199   1.848   6.173  0.0255  0.1688  0.7223
  106OSM   H18U10790   4.033   1.902   6.207  0.7366  0.1227  1.3908
  106OSM    C1F10791   4.329   1.629   7.805  0.4565 -0.5352  0.4635
  106OSM     OF10792   4.354   1.708   7.896  0.0530 -0.5061 -0.0278
  106OSM    C2F10793   4.212   1.640   7.716  0.7502  0.2831  0.7582
  106OSM    H2F10794   4.120   1.654   7.778 -1.6118  0.1689 -2.4839
  106OSM    H2G10795   4.202   1.549   7.653 -1.4110  0.9500  0.0386
  106OSM    C3F10796   4.233   1.758   7.616 -0.1940 -0.0850 -0.4956
  106OSM    H3F10797   4.331   1.750   7.564  1.0186 -1.0210  1.8441
  106OSM    H3G10798   4.234   1.856   7.668 -4.4909  0.0965 -0.4535
  106OSM    C4F10799   4.113   1.762   7.521  0.0102  0.6505 -0.2612
  106OSM    H4F10800   4.026   1.773   7.589  1.7891 -1.2232  2.5696
  106OSM    H4G10801   4.112   1.665   7.468  0.1709  0.1888  0.5589
  106OSM    C5F10802   4.097   1.880   7.423  0.5230  0.5449 -0.3254
  106OSM    H5F10803   4.187   1.866   7.359  0.5512  0.3468 -0.2421
  106OSM    H5G10804   4.105   1.984   7.462  0.3756  0.7825 -0.9048
  106OSM    C6F10805   3.971   1.878   7.324  0.4536 -0.0763 -0.5327
  106OSM    H6F10806   3.951   1.774   7.292  0.7602  0.0433 -1.1374
  106OSM    H6G10807   3.995   1.940   7.235 -0.7370  2.6547  0.9267
  106OSM    C7F10808   3.839   1.934   7.381 -0.0413  0.3354  0.0715
  106OSM    H7F10809   3.859   2.033   7.427  0.3282 -0.4668  1.7239
  106OSM    H7G10810   3.801   1.869   7.463  2.6843 -2.2112 -0.5269
  106OSM    C8F10811   3.727   1.953   7.280 -0.0157  0.8830 -0.1599
  106OSM    H8F10812   3.710   1.848   7.250  1.7269  0.8458 -1.1548
  106OSM    H8G10813   3.771   2.007   7.193  1.2386  2.5116  1.3972
  106OSM    C9F10814   3.608   2.032   7.334 -0.2388  0.5130 -0.0891
  106OSM    H9F10815   3.626   2.109   7.411 -1.4591  0.6897  0.0386
  106OSM   C10F10816   3.489   2.025   7.273  0.2108 -0.5797  0.7922
  106OSM   H10F10817   3.409   2.091   7.308 -0.7936 -1.8877  1.0376
  106OSM   C11F10818   3.448   1.941   7.152  0.0186 -0.5113  0.2843
  106OSM   H11F10819   3.364   1.874   7.179  0.4022  0.5553  4.8764
  106OSM   H11G10820   3.536   1.880   7.122  0.6758  1.0040 -1.0186
  106OSM   C12F10821   3.413   2.035   7.037 -0.0719 -0.4643  0.4039
  106OSM   H12F10822   3.498   2.103   7.012 -1.2696  1.7167  1.9492
  106OSM   H12G10823   3.327   2.103   7.054  1.3990  2.3137 -2.2925
  106OSM   C13F10824   3.398   1.952   6.910 -0.4108  0.9820 -0.5044
  106OSM   H13F10825   3.305   1.891   6.911 -0.2209  0.6917 -0.6802
  106OSM   H13G10826   3.477   1.875   6.902 -0.2635  0.6375  2.8214
  106OSM   C14F10827   3.390   2.046   6.792 -0.3074 -0.5701  0.2679
  106OSM   H14F10828   3.452   2.137   6.802 -0.3068 -0.5903  0.4644
  106OSM   H14G10829   3.287   2.085   6.780 -0.5749 -1.4533 -0.3723
  106OSM   C15F10830   3.429   1.988   6.657 -0.5062 -0.1323 -0.1835
  106OSM   H15F10831   3.348   1.931   6.606 -2.8965  1.6827  1.3489
  106OSM   H15G10832   3.528   1.939   6.653 -0.1260  0.7188 -1.8062
  106OSM   C16F10833   3.461   2.107   6.559 -0.4637  0.3122 -0.6117
  106OSM   H16F10834   3.375   2.165   6.519 -3.1846 -1.9180  1.5446
  106OSM   H16G10835   3.488   2.051   6.467 -0.3049  1.3587 -1.2230
  106OSM   C17F10836   3.584   2.199   6.594 -0.5016 -0.0658 -0.1444
  106OSM   H17F10837   3.667   2.132   6.627 -0.0017  0.0150 -1.1650
  106OSM   H17G10838   3.549   2.277   6.664  0.9778  0.3033  0.2156
  106OSM   C18F10839   3.643   2.272   6.479  0.4845 -0.9164  0.1209
  106OSM   H18F10840   3.577   2.356   6.447  0.8410 -1.1537 -1.3051
  106OSM   H18G10841   3.652   2.198   6.397 -1.0650 -1.2455  0.2096
  106OSM   H18H10842   3.738   2.327   6.496 -0.6036  1.2348 -0.3126
  107OSM      N10843   6.589   5.040   8.295 -0.0861  0.5165  0.3200
  107OSM    C1510844   6.594   5.151   8.197  0.8785  0.4437  0.0881
  107OSM   H15A10845   6.677   5.145   8.128  0.3849 -1.1304 -0.3954
  107OSM   H15B10846   6.591   5.246   8.249  0.4563 -0.4321  1.7498
  107OSM   H15C10847   6.504   5.157   8.138  0.6019  0.8257  0.5344
  107OSM    C1410848   6.624   4.911   8.229 -1.0496 -0.4030 -0.2761
  107OSM   H14A10849   6.545   4.896   8.157  0.1312  1.2149 -2.0121
  107OSM   H14B10850   6.633   4.825   8.294  1.9021 -0.3340 -0.4851
  107OSM   H14C10851   6.718   4.910   8.176 -1.3446 -0.7521 -0.7971
  107OSM    C1310852   6.704   5.066   8.390  0.4951 -0.6622 -0.7643
  107OSM   H13A10853   6.794   5.094   8.338  1.0338 -3.0042 -1.1739
  107OSM   H13B10854   6.728   4.981   8.452  1.8305  0.7775  0.7814
  107OSM   H13C10855   6.672   5.138   8.464  0.3069 -0.9283 -0.5836
  107OSM    C1210856   6.457   5.030   8.374 -0.5195  0.1059 -0.2120
  107OSM   H12A10857   6.455   5.119   8.436  1.1918  0.2549 -0.3237
  107OSM   H12B10858   6.455   4.951   8.447 -0.1774 -0.6630 -1.0175
  107OSM    C1110859   6.331   5.002   8.285  1.0892 -0.4099 -0.0380
  107OSM   H11A10860   6.317   5.087   8.215 -1.8003 -0.6529  0.1195
  107OSM   H11B10861   6.232   5.003   8.337 -0.5968  0.2607 -3.0365
  107OSM      P10862   6.243   4.858   8.096  0.1211 -0.2142  0.0348
  107OSM    O1310863   6.220   4.715   8.084 -0.7665 -0.7533 -0.6273
  107OSM    O1410864   6.121   4.945   8.119 -0.5584  0.0600 -0.3084
  107OSM    O1110865   6.317   4.911   7.973 -0.0722  0.4308  0.3753
  107OSM    O1210866   6.339   4.879   8.219  0.4016  0.6708 -0.5304
  107OSM    C1S10867   6.414   4.841   7.893 -0.5034 -0.2356 -0.0187
  107OSM    H1S10868   6.373   4.746   7.852  3.5115 -0.6985 -3.8200
  107OSM    H1T10869   6.507   4.807   7.944 -1.1563 -1.6224  0.2850
  107OSM     NF10870   6.584   4.857   7.715  0.0768 -0.4767 -0.4726
  107OSM    HNF10871   6.677   4.875   7.745  0.3860  0.8344 -2.1168
  107OSM    C2S10872   6.475   4.931   7.777  0.0735  0.0646 -0.3192
  107OSM    H2S10873   6.386   4.945   7.711 -2.4041 -1.5353  2.4570
  107OSM    C3S10874   6.525   5.076   7.825 -0.1649  0.4020 -0.0513
  107OSM    H3S10875   6.604   5.055   7.900 -0.5385  2.0467  0.8447
  107OSM     O310876   6.432   5.155   7.896 -0.1179 -0.2183 -0.2975
  107OSM    HO310877   6.386   5.096   7.955  1.1197 -0.7184  0.2124
  107OSM    C4S10878   6.586   5.156   7.712 -0.3898  0.4948 -0.2959
  107OSM    H4S10879   6.692   5.134   7.691 -0.6758 -1.3597  0.0376
  107OSM    C5S10880   6.525   5.241   7.630  0.5119 -0.5131  0.1010
  107OSM    H5S10881   6.420   5.270   7.649  0.4818 -0.0102 -0.8216
  107OSM    C6S10882   6.598   5.307   7.514 -0.1564  0.0785  0.6808
  107OSM    H6S10883   6.698   5.263   7.493 -0.3794  0.1293 -0.5681
  107OSM    H6T10884   6.598   5.418   7.522 -4.0596  0.4017 -1.1424
  107OSM    C7S10885   6.521   5.294   7.377 -0.0533  0.6006 -0.0861
  107OSM    H7S10886   6.576   5.360   7.306  0.4341  0.0660 -0.2224
  107OSM    H7T10887   6.419   5.335   7.390  0.2498  1.0626  0.9653
  107OSM    C8S10888   6.513   5.159   7.312 -0.5624  0.2899  0.3938
  107OSM    H8S10889   6.466   5.090   7.385 -0.9980 -1.8947 -1.8052
  107OSM    H8T10890   6.608   5.112   7.278 -1.0374  1.5708 -3.0889
  107OSM    C9S10891   6.423   5.158   7.192 -0.1291 -1.1989  0.2610
  107OSM    H9S10892   6.322   5.187   7.227  0.8084  0.8569  1.4332
  107OSM    H9T10893   6.416   5.059   7.141  1.4106 -0.8233 -0.7411
  107OSM   C10S10894   6.453   5.259   7.086 -0.3757 -0.1210 -0.7782
  107OSM   H10S10895   6.561   5.252   7.064  0.1940  2.6573  0.6647
  107OSM   H10T10896   6.436   5.358   7.134  1.0917 -1.4136  2.7252
  107OSM   C11S10897   6.376   5.241   6.950 -0.3746  0.5884 -0.2492
  107OSM   H11S10898   6.268   5.266   6.950 -0.1523  1.6408 -1.2744
  107OSM   H11T10899   6.382   5.131   6.934 -1.2683  0.2541  1.4462
  107OSM   C12S10900   6.454   5.321   6.847 -0.3254  0.3672  0.3505
  107OSM   H12S10901   6.555   5.276   6.858 -0.2512 -0.1073 -1.8236
  107OSM   H12T10902   6.453   5.431   6.856 -0.5641  0.2774  1.4888
  107OSM   C13S10903   6.414   5.283   6.703  0.1666 -0.0831  0.5387
  107OSM   H13S10904   6.319   5.337   6.678  0.4447 -0.3351 -1.1682
  107OSM   H13T10905   6.395   5.174   6.694 -1.1952  0.2789 -2.0718
  107OSM   C14S10906   6.515   5.329   6.603 -0.2009  0.1014  0.4219
  107OSM   H14S10907   6.495   5.281   6.505  0.5485 -1.5875  1.0500
  107OSM   H14T10908   6.617   5.294   6.631  0.8697  2.4316 -0.2341
  107OSM   C15S10909   6.497   5.475   6.580  0.5344 -0.4333  0.3420
  107OSM   H15S10910   6.520   5.536   6.670  4.4661 -2.3338  0.8336
  107OSM   H15T10911   6.389   5.493   6.559  0.3716 -1.2226  0.4857
  107OSM   C16S10912   6.569   5.523   6.453 -0.3566 -0.4777 -0.4307
  107OSM   H16S10913   6.535   5.469   6.362 -2.1427  0.5054 -0.3796
  107OSM   H16T10914   6.677   5.499   6.469 -0.2651  0.9999  1.5486
  107OSM   C17S10915   6.558   5.675   6.428  0.3555  0.1004 -0.4745
  107OSM   H17S10916   6.566   5.718   6.530 -1.2676 -2.5929  0.9078
  107OSM   H17T10917   6.459   5.703   6.386  1.0398  0.1689 -2.1287
  107OSM   C18S10918   6.653   5.724   6.325  0.0291  0.6786  0.1366
  107OSM   H18S10919   6.759   5.716   6.356  0.2480 -1.3893 -0.9497
  107OSM   H18T10920   6.629   5.831   6.303  2.0078  0.9909 -0.7047
  107OSM   H18U10921   6.629   5.668   6.232  1.2549  3.3449 -1.9363
  107OSM    C1F10922   6.563   4.743   7.642  0.0664 -0.4259 -0.4954
  107OSM     OF10923   6.457   4.693   7.634  0.1889 -0.0740 -0.0067
  107OSM    C2F10924   6.670   4.689   7.561 -0.2627 -0.5423 -0.0865
  107OSM    H2F10925   6.682   4.583   7.591 -0.3877  0.0064  2.0581
  107OSM    H2G10926   6.763   4.744   7.588  0.7934 -1.2359 -2.1283
  107OSM    C3F10927   6.642   4.695   7.407 -0.5914  0.3130  0.4235
  107OSM    H3F10928   6.643   4.795   7.360  1.3167  0.0947 -0.0636
  107OSM    H3G10929   6.543   4.649   7.385 -0.6803  0.9992 -0.6241
  107OSM    C4F10930   6.749   4.613   7.323 -0.1179  0.5236  0.4052
  107OSM    H4F10931   6.718   4.509   7.347 -0.3322  0.3429 -0.6347
  107OSM    H4G10932   6.853   4.637   7.356  0.0783  1.0644 -0.5808
  107OSM    C5F10933   6.730   4.634   7.176 -0.3203  0.0649 -0.1319
  107OSM    H5F10934   6.765   4.731   7.134 -2.7267  0.5149 -1.2853
  107OSM    H5G10935   6.623   4.614   7.153 -1.2177 -0.3920  3.7289
  107OSM    C6F10936   6.822   4.529   7.100 -0.5141 -0.1535 -0.1710
  107OSM    H6F10937   6.792   4.433   7.146  1.8253  0.3152  2.6235
  107OSM    H6G10938   6.925   4.539   7.140 -0.1673 -0.8963 -0.8627
  107OSM    C7F10939   6.813   4.527   6.952  0.5588 -0.1725 -0.5153
  107OSM    H7F10940   6.845   4.622   6.903  0.1838 -0.5336 -1.4816
  107OSM    H7G10941   6.705   4.517   6.930  0.8493  0.4100 -2.3809
  107OSM    C8F10942   6.892   4.411   6.905 -0.7694  0.0065  0.6941
  107OSM    H8F10943   6.885   4.330   6.980  1.5077 -1.0961 -0.1787
  107OSM    H8G10944   7.001   4.427   6.903 -0.6193 -0.8367 -1.7820
  107OSM    C9F10945   6.846   4.364   6.767  0.0810 -0.1023 -0.4880
  107OSM    H9F10946   6.745   4.400   6.743 -0.5814 -2.3802 -1.3885
  107OSM   C10F10947   6.917   4.286   6.681  0.1901  0.1681  0.5828
  107OSM   H10F10948   6.857   4.243   6.600  1.7920 -1.3379  0.1268
  107OSM   C11F10949   7.057   4.238   6.698 -0.6118  0.8785  0.0989
  107OSM   H11F10950   7.082   4.214   6.804 -1.5601  1.2764  0.4213
  107OSM   H11G10951   7.127   4.309   6.649 -0.7153 -0.6549 -2.4495
  107OSM   C12F10952   7.096   4.113   6.617  0.1763 -0.1619  0.0116
  107OSM   H12F10953   7.043   4.021   6.650  1.0690 -0.7851 -0.2569
  107OSM   H12G10954   7.203   4.093   6.638  0.0024 -0.1227  0.9594
  107OSM   C13F10955   7.086   4.127   6.465 -0.7053 -0.3601  0.6500
  107OSM   H13F10956   7.145   4.217   6.438 -1.7189 -0.4114 -2.0579
  107OSM   H13G10957   6.980   4.133   6.432  0.1446  3.3287 -2.1299
  107OSM   C14F10958   7.133   3.991   6.399 -0.2392 -0.9707  0.0781
  107OSM   H14F10959   7.080   3.912   6.455  0.3276 -0.7738  0.9226
  107OSM   H14G10960   7.243   3.977   6.411  0.4386  3.5308  1.2919
  107OSM   C15F10961   7.109   3.954   6.252  0.3195 -0.3264  0.7488
  107OSM   H15F10962   7.166   4.025   6.187  2.5699 -1.6601  1.1671
  107OSM   H15G10963   7.004   3.974   6.222  1.0678  1.2400 -1.0781
  107OSM   C16F10964   7.155   3.817   6.221 -0.1540 -0.0732  0.2121
  107OSM   H16F10965   7.107   3.747   6.293 -1.4921  0.7605  0.1725
  107OSM   H16G10966   7.265   3.830   6.227 -0.3852  2.3169  0.2946
  107OSM   C17F10967   7.117   3.791   6.076  0.5931 -0.7561  0.2337
  107OSM   H17F10968   7.149   3.867   6.002 -1.2223  0.9863  1.1377
  107OSM   H17G10969   7.006   3.796   6.076  0.6590  1.3866 -0.3031
  107OSM   C18F10970   7.167   3.648   6.026 -0.1558 -0.6578  0.2566
  107OSM   H18F10971   7.273   3.657   5.995  0.5981  0.2713  2.9344
  107OSM   H18G10972   7.105   3.629   5.935  0.8841  2.3998 -1.2279
  107OSM   H18H10973   7.143   3.575   6.106  0.4881 -0.1211  0.9537
  108OSM      N10974   1.101   4.127   8.327  0.6176  0.5050  0.9600
  108OSM    C1510975   1.143   3.996   8.384  0.3845  0.4818 -0.0748
  108OSM   H15A10976   1.222   4.017   8.454  0.7972 -0.1850 -0.3350
  108OSM   H15B10977   1.180   3.942   8.299 -2.3219  2.0416 -2.4543
  108OSM   H15C10978   1.056   3.948   8.427 -0.2472  2.1704  0.6483
  108OSM    C1410979   1.041   4.216   8.431  0.0608 -0.1144 -0.9043
  108OSM   H14A10980   0.970   4.163   8.494 -0.0809  0.5319 -0.5028
  108OSM   H14B10981   0.997   4.303   8.385  0.6447 -0.2010 -1.6388
  108OSM   H14C10982   1.122   4.248   8.495 -1.3861 -3.2977  2.9820
  108OSM    C1310983   1.227   4.200   8.280  0.3686  0.4675 -0.3702
  108OSM   H13A10984   1.289   4.210   8.368 -1.0568 -0.1775  0.7653
  108OSM   H13B10985   1.210   4.298   8.239 -0.7763  0.2513 -0.4612
  108OSM   H13C10986   1.285   4.146   8.207 -1.0184  1.6976 -2.5033
  108OSM    C1210987   1.001   4.097   8.220 -0.6150 -0.2210 -0.2955
  108OSM   H12A10988   0.904   4.080   8.264  0.6495 -2.9155  1.7883
  108OSM   H12B10989   1.036   4.013   8.162 -0.7065  0.4488 -1.3463
  108OSM    C1110990   0.981   4.208   8.116  0.2206  0.0940 -0.3106
  108OSM   H11A10991   0.908   4.167   8.044 -2.9846  0.2071  2.6453
  108OSM   H11B10992   1.078   4.230   8.065 -0.3419  3.0316 -0.2899
  108OSM      P10993   0.774   4.366   8.162  0.1236  0.0875 -0.0888
  108OSM    O1310994   0.686   4.258   8.202 -0.1594  0.0779  0.0341
  108OSM    O1410995   0.762   4.492   8.241  0.6205 -0.0945  0.2643
  108OSM    O1110996   0.737   4.419   8.020  0.8040  0.7998 -1.4839
  108OSM    O1210997   0.923   4.325   8.174  0.0070 -0.1264 -0.1780
  108OSM    C1S10998   0.758   4.328   7.905  0.1729 -0.8803 -0.0003
  108OSM    H1S10999   0.746   4.222   7.935  2.2461 -0.7383  1.5454
  108OSM    H1T11000   0.859   4.342   7.860 -0.7796 -1.7584 -2.5908
  108OSM     NF11001   0.645   4.250   7.702 -0.4829  0.3667  0.3282
  108OSM    HNF11002   0.681   4.255   7.609 -0.4186 -1.9102  0.1658
  108OSM    C2S11003   0.648   4.360   7.800  0.8381 -0.5628 -0.2086
  108OSM    H2S11004   0.551   4.359   7.854  1.0714 -1.1510  0.2155
  108OSM    C3S11005   0.678   4.508   7.743 -0.4109 -0.3566 -0.4627
  108OSM    H3S11006   0.776   4.515   7.692  0.1151  0.6367  0.6351
  108OSM     O311007   0.678   4.615   7.843 -0.0648  0.9875  0.0955
  108OSM    HO311008   0.683   4.561   7.921 -0.5322  1.4431  0.4449
  108OSM    C4S11009   0.566   4.545   7.644 -1.0492 -0.4700  0.0270
  108OSM    H4S11010   0.578   4.494   7.547  3.1331  1.4041 -0.6577
  108OSM    C5S11011   0.460   4.634   7.661 -0.4205 -0.6473  0.0102
  108OSM    H5S11012   0.445   4.688   7.756  2.3261 -0.4854  0.4413
  108OSM    C6S11013   0.367   4.662   7.544  0.5005 -0.0591  0.3434
  108OSM    H6S11014   0.360   4.773   7.543  0.3825 -0.0677  0.2223
  108OSM    H6T11015   0.263   4.633   7.571  1.1219 -2.4331  0.4419
  108OSM    C7S11016   0.395   4.627   7.397 -0.1114  0.4889  0.3632
  108OSM    H7S11017   0.363   4.520   7.396  2.6386 -0.4194 -0.4807
  108OSM    H7T11018   0.504   4.636   7.379  0.5659 -0.3420  3.4960
  108OSM    C8S11019   0.321   4.710   7.301  0.0267 -0.6340  0.0250
  108OSM    H8S11020   0.353   4.816   7.316  2.4992 -1.4419  0.8959
  108OSM    H8T11021   0.211   4.705   7.316 -0.0052 -0.3789 -0.1040
  108OSM    C9S11022   0.352   4.670   7.156  0.3622  0.4473  0.5159
  108OSM    H9S11023   0.315   4.568   7.131  1.9713 -0.2866  0.9998
  108OSM    H9T11024   0.463   4.670   7.153  0.4177  2.6765  1.2706
  108OSM   C10S11025   0.301   4.773   7.058 -0.1673 -0.1527  0.2764
  108OSM   H10S11026   0.350   4.873   7.072 -0.8057  0.0719  0.9576
  108OSM   H10T11027   0.191   4.783   7.068 -0.3930 -0.4083 -1.6635
  108OSM   C11S11028   0.336   4.733   6.912  0.3187  0.0437  0.0702
  108OSM   H11S11029   0.330   4.624   6.896 -0.2838  0.1899 -0.7740
  108OSM   H11T11030   0.437   4.774   6.891 -1.0433  3.1617 -1.0418
  108OSM   C12S11031   0.230   4.793   6.819  0.7704 -0.3490 -0.0413
  108OSM   H12S11032   0.247   4.901   6.836 -0.1792 -0.4921  2.1097
  108OSM   H12T11033   0.131   4.748   6.840  0.5390  1.4401  3.4235
  108OSM   C13S11034   0.247   4.789   6.665  0.3979 -0.7473 -0.4482
  108OSM   H13S11035   0.352   4.819   6.644  0.0630  0.5796 -0.3547
  108OSM   H13T11036   0.185   4.863   6.609  1.6388 -1.1407 -2.4374
  108OSM   C14S11037   0.230   4.657   6.596  0.4589  0.0116 -0.5339
  108OSM   H14S11038   0.121   4.635   6.591  0.6516 -0.6823 -3.6625
  108OSM   H14T11039   0.288   4.580   6.649  0.5714  0.9760  0.8050
  108OSM   C15S11040   0.281   4.664   6.453 -0.1878  0.4057 -0.7560
  108OSM   H15S11041   0.388   4.692   6.456  0.1217 -0.7734  1.2524
  108OSM   H15T11042   0.218   4.734   6.394  0.3653 -0.1957 -2.0929
  108OSM   C16S11043   0.279   4.525   6.379 -0.0347 -0.2880 -0.3609
  108OSM   H16S11044   0.189   4.473   6.418 -0.9399  0.4964 -1.3283
  108OSM   H16T11045   0.364   4.472   6.428  0.5307  0.1550 -0.8408
  108OSM   C17S11046   0.274   4.531   6.226 -0.3947  0.4287  0.0535
  108OSM   H17S11047   0.338   4.610   6.182 -1.5002  1.9301  1.0434
  108OSM   H17T11048   0.169   4.553   6.198 -0.3033  1.2783  0.3424
  108OSM   C18S11049   0.322   4.393   6.163  0.3079  0.5351  0.3028
  108OSM   H18S11050   0.416   4.360   6.211 -1.6317 -0.1471  4.0267
  108OSM   H18T11051   0.334   4.394   6.052  0.2189  1.2449  0.2978
  108OSM   H18U11052   0.249   4.313   6.187  1.8181 -0.4355  1.8489
  108OSM    C1F11053   0.590   4.134   7.720  0.0274 -0.5029 -0.0211
  108OSM     OF11054   0.537   4.114   7.830  0.0903  0.6481  0.2615
  108OSM    C2F11055   0.583   4.039   7.604 -0.1367 -0.0015 -0.6957
  108OSM    H2F11056   0.670   3.970   7.602  0.2115  0.4383 -0.7988
  108OSM    H2G11057   0.594   4.093   7.508  1.3415 -1.0591 -1.1582
  108OSM    C3F11058   0.449   3.957   7.589 -0.2323 -0.8398  0.1901
  108OSM    H3F11059   0.365   4.024   7.616  1.7466  1.3857  1.1591
  108OSM    H3G11060   0.443   3.883   7.672  1.4308 -0.0553  1.0556
  108OSM    C4F11061   0.449   3.873   7.459 -0.3842  0.1692  0.4605
  108OSM    H4F11062   0.511   3.932   7.388  0.5119  0.0080  1.0883
  108OSM    H4G11063   0.346   3.875   7.419 -0.5587  1.6968  0.9203
  108OSM    C5F11064   0.487   3.728   7.499 -0.4061 -0.1995 -0.3051
  108OSM    H5F11065   0.392   3.695   7.547  0.4309 -1.0481  0.8251
  108OSM    H5G11066   0.559   3.731   7.583 -0.3773 -0.4380 -0.3204
  108OSM    C6F11067   0.529   3.642   7.378  0.5471 -0.1708 -0.2455
  108OSM    H6F11068   0.553   3.546   7.430  1.4423  1.3692  2.3674
  108OSM    H6G11069   0.621   3.679   7.328 -0.1483  0.2555 -1.2598
  108OSM    C7F11070   0.409   3.636   7.283 -0.3962  0.0833 -0.6638
  108OSM    H7F11071   0.378   3.736   7.245  1.0578  0.0852 -1.9330
  108OSM    H7G11072   0.328   3.585   7.340  0.5692  1.0977  1.7471
  108OSM    C8F11073   0.449   3.550   7.161  1.0755 -0.0297 -0.0153
  108OSM    H8F11074   0.527   3.604   7.103  1.0427  0.1455  0.1037
  108OSM    H8G11075   0.363   3.553   7.090  0.9157 -0.4758  0.1589
  108OSM    C9F11076   0.483   3.408   7.187 -0.8653 -0.1763  1.1211
  108OSM    H9F11077   0.400   3.344   7.220 -1.1499 -0.1256  0.5149
  108OSM   C10F11078   0.601   3.355   7.159 -0.0842 -0.1650 -0.8118
  108OSM   H10F11079   0.621   3.252   7.194 -0.2342  0.0598 -0.0527
  108OSM   C11F11080   0.726   3.426   7.107 -0.0284 -0.0310 -0.1061
  108OSM   H11F11081   0.781   3.474   7.190 -0.3543  2.4190 -1.2320
  108OSM   H11G11082   0.709   3.509   7.036  1.3791  0.1892 -0.2117
  108OSM   C12F11083   0.820   3.329   7.037 -0.3605 -0.2307  0.1362
  108OSM   H12F11084   0.822   3.243   7.107 -2.4788  0.4524  1.1353
  108OSM   H12G11085   0.917   3.378   7.016  0.7818 -2.4308  0.0638
  108OSM   C13F11086   0.773   3.288   6.896  0.6813  0.3265 -0.1707
  108OSM   H13F11087   0.698   3.361   6.858 -0.1679 -0.1305  0.5933
  108OSM   H13G11088   0.731   3.186   6.903 -1.8383  1.3385  0.4491
  108OSM   C14F11089   0.898   3.280   6.804 -0.1784 -0.3385 -0.7624
  108OSM   H14F11090   0.974   3.223   6.861  0.1168  2.2163  1.5894
  108OSM   H14G11091   0.935   3.385   6.803 -1.0734  0.0312  1.1719
  108OSM   C15F11092   0.859   3.229   6.663 -0.3088 -0.0870  0.4077
  108OSM   H15F11093   0.793   3.310   6.626 -0.1581  0.5142  1.4107
  108OSM   H15G11094   0.796   3.140   6.688  0.6546 -0.4818  1.5493
  108OSM   C16F11095   0.981   3.210   6.576 -0.2097 -0.5338  0.2078
  108OSM   H16F11096   1.062   3.150   6.622 -0.0318  0.2738  0.9706
  108OSM   H16G11097   1.026   3.311   6.567  0.5904 -0.9368 -0.4338
  108OSM   C17F11098   0.926   3.168   6.440 -0.3674  0.3623  0.2332
  108OSM   H17F11099   0.875   3.258   6.399 -1.9029 -0.2120  0.8233
  108OSM   H17G11100   0.859   3.080   6.453  1.9608 -1.5336  0.0761
  108OSM   C18F11101   1.052   3.115   6.358 -0.2750  0.8145  0.5183
  108OSM   H18F11102   1.106   3.043   6.423 -0.2278  1.6336  1.4048
  108OSM   H18G11103   1.116   3.202   6.334 -0.0153  0.6164  0.4928
  108OSM   H18H11104   1.016   3.048   6.277  1.3998 -0.4323  0.7378
  109OSM      N11105   4.931   2.611   8.582  0.0190 -0.0679 -0.2735
  109OSM    C1511106   4.918   2.594   8.729 -0.4105 -0.1078  0.4770
  109OSM   H15A11107   5.019   2.595   8.768  0.0463  3.9351 -0.4187
  109OSM   H15B11108   4.891   2.494   8.759 -1.2530  0.2046  0.7654
  109OSM   H15C11109   4.867   2.680   8.769 -1.8360  1.0197 -3.3243
  109OSM    C1411110   5.013   2.737   8.563 -0.9798  0.3087 -0.1545
  109OSM   H14A11111   5.035   2.743   8.458 -2.7748 -0.8774 -0.6436
  109OSM   H14B11112   5.100   2.726   8.626 -2.4279 -0.9341  1.7463
  109OSM   H14C11113   4.964   2.825   8.603  0.8394  1.9088 -1.2704
  109OSM    C1311114   5.012   2.488   8.540 -0.4794 -0.2751 -0.1143
  109OSM   H13A11115   4.967   2.393   8.561  2.9853 -2.0518 -0.1002
  109OSM   H13B11116   5.104   2.482   8.596 -0.7489 -2.4131  0.1541
  109OSM   H13C11117   5.032   2.507   8.435 -1.8817 -0.6541 -0.4723
  109OSM    C1211118   4.799   2.614   8.514 -0.3043  0.3085  0.1107
  109OSM   H12A11119   4.749   2.705   8.544 -1.7613 -0.1126 -0.9049
  109OSM   H12B11120   4.740   2.528   8.542  0.6316 -0.5920 -0.6294
  109OSM    C1111121   4.805   2.600   8.359 -0.0501  0.1628  0.3834
  109OSM   H11A11122   4.889   2.657   8.314  0.2490  0.0849  0.8317
  109OSM   H11B11123   4.716   2.644   8.311  0.5240 -0.0652 -0.9360
  109OSM      P11124   4.701   2.372   8.300  0.4230  0.0393 -0.0644
  109OSM    O1311125   4.744   2.232   8.272 -0.4308 -0.2825  0.0615
  109OSM    O1411126   4.626   2.401   8.423 -0.0491  0.4102 -0.4929
  109OSM    O1111127   4.628   2.444   8.176  0.7537 -0.4683  0.3780
  109OSM    O1211128   4.828   2.465   8.313 -0.5028  0.0877 -0.2883
  109OSM    C1S11129   4.696   2.436   8.044  0.1439 -0.6888 -0.1482
  109OSM    H1S11130   4.771   2.354   8.036  4.0422  2.1182  3.1807
  109OSM    H1T11131   4.757   2.527   8.025  0.0041 -0.0600  2.0503
  109OSM     NF11132   4.689   2.381   7.811  0.6167  0.2640  0.0299
  109OSM    HNF11133   4.688   2.443   7.733  2.3863 -1.6443 -1.6531
  109OSM    C2S11134   4.602   2.405   7.927 -0.2149  0.7696  0.6953
  109OSM    H2S11135   4.566   2.305   7.959  1.8354  0.0531  0.9029
  109OSM    C3S11136   4.475   2.483   7.914 -0.5559 -0.0393  0.2016
  109OSM    H3S11137   4.499   2.584   7.876 -1.4980 -0.1543 -0.7352
  109OSM     O311138   4.406   2.494   8.038  0.0657 -0.6763  0.3787
  109OSM    HO311139   4.470   2.500   8.110 -0.1126  2.0962  0.4058
  109OSM    C4S11140   4.391   2.420   7.805 -0.1647  0.5951  0.5916
  109OSM    H4S11141   4.400   2.465   7.705  1.2964 -0.3225  0.2760
  109OSM    C5S11142   4.305   2.317   7.820  0.1737  0.6322  0.0263
  109OSM    H5S11143   4.286   2.280   7.921  0.0639  2.1635  0.6006
  109OSM    C6S11144   4.241   2.245   7.705  0.7136 -0.5163 -0.0998
  109OSM    H6S11145   4.131   2.242   7.723  0.9050 -1.9698  0.9960
  109OSM    H6T11146   4.281   2.142   7.708  0.8443 -0.4528  0.5884
  109OSM    C7S11147   4.267   2.321   7.573 -0.7436  0.2412 -0.1804
  109OSM    H7S11148   4.375   2.334   7.550 -0.4426  0.8568  1.4255
  109OSM    H7T11149   4.217   2.419   7.564 -3.2412 -0.9634 -0.2306
  109OSM    C8S11150   4.225   2.240   7.446  0.9325  0.2247  0.2194
  109OSM    H8S11151   4.115   2.235   7.432  1.0865 -0.0789 -1.0205
  109OSM    H8T11152   4.245   2.133   7.468 -1.3579  0.1321  2.3125
  109OSM    C9S11153   4.280   2.281   7.306  0.4280  0.6147  0.2930
  109OSM    H9S11154   4.389   2.258   7.311  0.2059 -0.2278  1.8793
  109OSM    H9T11155   4.287   2.391   7.298  3.0123  0.4236 -1.3893
  109OSM   C10S11156   4.216   2.210   7.184 -0.4652  0.0580 -0.3239
  109OSM   H10S11157   4.200   2.103   7.207  3.3050 -0.7049 -0.7273
  109OSM   H10T11158   4.291   2.235   7.106  0.1139 -1.1619 -0.1704
  109OSM   C11S11159   4.083   2.261   7.148  0.5910 -0.7665  0.5915
  109OSM   H11S11160   4.092   2.371   7.134 -1.4098 -0.2652  2.6659
  109OSM   H11T11161   4.006   2.230   7.222  0.6671  0.4957  1.2193
  109OSM   C12S11162   4.044   2.199   7.006  0.3624 -0.1830  0.0831
  109OSM   H12S11163   4.085   2.096   7.006  2.2883  0.5144  1.3132
  109OSM   H12T11164   4.090   2.266   6.930 -1.5033  1.2255  0.1195
  109OSM   C13S11165   3.897   2.191   6.988  0.3117  0.0570 -0.2310
  109OSM   H13S11166   3.861   2.297   6.985 -0.6276 -0.2717 -1.4056
  109OSM   H13T11167   3.865   2.138   7.081  2.1721 -0.3014  0.2366
  109OSM   C14S11168   3.855   2.122   6.863  0.3264  0.3971 -0.5154
  109OSM   H14S11169   3.883   2.164   6.765  1.1853  0.2184 -0.3540
  109OSM   H14T11170   3.746   2.144   6.861  0.4813  1.1241 -1.0676
  109OSM   C15S11171   3.861   1.972   6.878 -0.0394  0.2764  0.0601
  109OSM   H15S11172   3.836   1.941   6.982 -1.9698 -1.2865 -0.7984
  109OSM   H15T11173   3.962   1.937   6.848 -0.4746 -1.8125  0.8401
  109OSM   C16S11174   3.758   1.899   6.794 -0.0317 -0.1016 -0.0249
  109OSM   H16S11175   3.755   1.958   6.700 -1.6569  1.5045  0.9725
  109OSM   H16T11176   3.662   1.896   6.850 -0.3601  0.2950 -0.5595
  109OSM   C17S11177   3.805   1.756   6.751  0.1686 -0.5260 -1.0864
  109OSM   H17S11178   3.818   1.696   6.843 -0.1900  1.1682  0.1006
  109OSM   H17T11179   3.901   1.777   6.698  1.6708  0.2137  1.7200
  109OSM   C18S11180   3.703   1.695   6.654  0.4429  0.2404  0.0229
  109OSM   H18S11181   3.744   1.597   6.622  3.9087  0.8021  2.2275
  109OSM   H18T11182   3.692   1.756   6.561  1.0213  0.0108 -0.1991
  109OSM   H18U11183   3.600   1.683   6.693 -0.9696  0.9453 -3.0996
  109OSM    C1F11184   4.756   2.273   7.804 -0.2193  0.3556  0.7859
  109OSM     OF11185   4.740   2.182   7.888  0.0101  0.1780 -0.0060
  109OSM    C2F11186   4.850   2.266   7.683  0.3581  0.4006 -0.8223
  109OSM    H2F11187   4.886   2.367   7.654  1.2656  0.2852 -0.1535
  109OSM    H2G11188   4.789   2.227   7.599 -1.2614  0.5836  0.2250
  109OSM    C3F11189   4.974   2.178   7.706  0.1291 -0.3988 -0.0543
  109OSM    H3F11190   4.945   2.070   7.711 -0.0559 -0.3519 -0.1032
  109OSM    H3G11191   5.016   2.206   7.805 -2.4276 -1.4232  1.4300
  109OSM    C4F11192   5.076   2.200   7.597  0.4014 -0.3970  0.4494
  109OSM    H4F11193   5.170   2.156   7.635  1.1074  2.2197  1.9873
  109OSM    H4G11194   5.095   2.309   7.587  3.8158 -1.0114 -1.0072
  109OSM    C5F11195   5.033   2.142   7.460 -0.0695  0.1933 -0.1708
  109OSM    H5F11196   4.941   2.197   7.430 -0.8231 -1.0742 -0.2678
  109OSM    H5G11197   4.998   2.038   7.476 -1.7818  0.9993  1.8269
  109OSM    C6F11198   5.136   2.169   7.359  0.6050 -0.5764 -0.4458
  109OSM    H6F11199   5.234   2.169   7.412 -0.7725 -2.1476  2.3459
  109OSM    H6G11200   5.136   2.271   7.315  1.2767 -0.5428 -0.3766
  109OSM    C7F11201   5.114   2.072   7.243  0.4746  0.8102 -0.0057
  109OSM    H7F11202   5.017   2.091   7.194 -0.4275  0.0079  1.3895
  109OSM    H7G11203   5.099   1.972   7.290  0.7043  0.0846 -1.4303
  109OSM    C8F11204   5.223   2.058   7.145 -0.4261 -0.3550  0.6446
  109OSM    H8F11205   5.198   1.968   7.085  1.0086 -0.5790  0.3453
  109OSM    H8G11206   5.317   2.019   7.190  0.2689 -1.7426 -1.8004
  109OSM    C9F11207   5.234   2.175   7.050 -0.0526  0.0641 -0.3344
  109OSM    H9F11208   5.259   2.266   7.106  0.3865  0.0958 -0.5762
  109OSM   C10F11209   5.209   2.178   6.919  0.6438 -0.1804  0.3791
  109OSM   H10F11210   5.220   2.274   6.866  0.2198 -0.0983  0.4310
  109OSM   C11F11211   5.158   2.072   6.829 -0.0121  0.5528  0.5001
  109OSM   H11F11212   5.047   2.072   6.831 -0.0300 -0.5479  0.1791
  109OSM   H11G11213   5.194   1.973   6.865  0.9632  0.5496 -0.4300
  109OSM   C12F11214   5.212   2.075   6.680 -0.0173 -0.3461 -0.3016
  109OSM   H12F11215   5.322   2.095   6.686 -0.4061  1.6814  1.9247
  109OSM   H12G11216   5.166   2.166   6.635 -0.7281  0.8421  2.5858
  109OSM   C13F11217   5.165   1.967   6.586 -0.9895 -0.4877  0.7177
  109OSM   H13F11218   5.055   1.954   6.588 -1.1004  0.4257  0.7604
  109OSM   H13G11219   5.199   1.865   6.616 -1.9009 -0.9819  0.1184
  109OSM   C14F11220   5.216   1.986   6.443  0.6138  0.6234  0.0509
  109OSM   H14F11221   5.180   1.897   6.387 -1.0594  1.0979  0.3341
  109OSM   H14G11222   5.327   1.985   6.448  0.6568  1.7906 -0.3594
  109OSM   C15F11223   5.169   2.117   6.380  0.4511  0.0416 -0.6507
  109OSM   H15F11224   5.201   2.202   6.444  1.0439 -0.5055 -0.1987
  109OSM   H15G11225   5.060   2.135   6.386  0.5089  1.1895 -2.3433
  109OSM   C16F11226   5.213   2.134   6.231  0.1393 -0.8982  0.1820
  109OSM   H16F11227   5.323   2.153   6.236 -0.4541  3.1772  0.9350
  109OSM   H16G11228   5.157   2.215   6.180 -1.6165 -1.6217  0.8787
  109OSM   C17F11229   5.189   2.002   6.148  0.4572  0.3929 -0.2643
  109OSM   H17F11230   5.078   1.997   6.137  0.2240  0.5483  1.6508
  109OSM   H17G11231   5.220   1.909   6.198  0.3053  0.4038 -0.1484
  109OSM   C18F11232   5.251   2.015   6.011  0.0331 -0.6937  0.5088
  109OSM   H18F11233   5.250   2.118   5.969  0.2460 -0.9444 -0.1285
  109OSM   H18G11234   5.208   1.945   5.936  1.4349 -0.1482 -0.8397
  109OSM   H18H11235   5.355   1.979   6.023  2.1259  3.4740 -2.4993
  110OSM      N11236   5.890   4.881   7.771  0.2662  0.5174  0.3193
  110OSM    C1511237   5.802   4.992   7.793  0.5748 -0.4576  0.5252
  110OSM   H15A11238   5.699   4.960   7.804  0.2961  0.0027 -0.5489
  110OSM   H15B11239   5.805   5.065   7.713  0.1482 -0.0073  0.9122
  110OSM   H15C11240   5.830   5.045   7.882  2.3307  0.1892 -0.3651
  110OSM    C1411241   5.836   4.818   7.644 -0.0161  0.7119 -0.8780
  110OSM   H14A11242   5.856   4.868   7.550  2.4877  1.0983 -0.2260
  110OSM   H14B11243   5.734   4.782   7.649 -0.3470  1.8308  1.5690
  110OSM   H14C11244   5.896   4.728   7.634 -0.6360  0.1629  0.1690
  110OSM    C1311245   6.027   4.931   7.745  0.2165  0.4218 -0.6386
  110OSM   H13A11246   6.070   4.992   7.823 -0.1605  2.5983 -2.0319
  110OSM   H13B11247   6.034   4.997   7.660  2.1658  1.0780 -0.0262
  110OSM   H13C11248   6.087   4.845   7.719  1.7275  1.7367 -1.6725
  110OSM    C1211249   5.887   4.778   7.876 -0.0183 -0.1786  0.4015
  110OSM   H12A11250   5.789   4.748   7.910 -0.6831 -0.3628 -1.5633
  110OSM   H12B11251   5.932   4.819   7.964  0.5783 -0.9566  0.4675
  110OSM    C1111252   5.971   4.645   7.864  0.5905 -0.4958  0.1529
  110OSM   H11A11253   5.976   4.598   7.965 -4.0462 -0.4502  0.6270
  110OSM   H11B11254   6.074   4.672   7.833  0.2742 -0.8111 -1.2474
  110OSM      P11255   5.801   4.457   7.807  0.0356  0.3731  0.1401
  110OSM    O1311256   5.868   4.355   7.889 -0.2972  0.2030 -0.1671
  110OSM    O1411257   5.683   4.521   7.861  0.3012 -0.2311  0.0771
  110OSM    O1111258   5.764   4.384   7.664  0.1906 -0.2206 -0.3193
  110OSM    O1211259   5.911   4.560   7.759  0.2475  0.5449 -0.0082
  110OSM    C1S11260   5.868   4.326   7.588 -0.4219  0.1514  0.8524
  110OSM    H1S11261   5.869   4.219   7.620 -1.4782 -0.2264 -0.2789
  110OSM    H1T11262   5.973   4.360   7.601 -0.4492  0.8007 -0.5051
  110OSM     NF11263   5.940   4.247   7.368 -0.6259  0.4527  0.5871
  110OSM    HNF11264   6.009   4.294   7.314  0.8626 -0.0661  1.9550
  110OSM    C2S11265   5.841   4.330   7.431 -0.3124  0.0107 -0.5240
  110OSM    H2S11266   5.742   4.287   7.404  0.4407 -0.9700 -1.8259
  110OSM    C3S11267   5.843   4.477   7.383  0.2209 -0.1032  0.1161
  110OSM    H3S11268   5.940   4.521   7.415 -1.1665  0.1130  4.7771
  110OSM     O311269   5.745   4.559   7.451  0.0346  0.1827  0.5137
  110OSM    HO311270   5.735   4.513   7.535  0.8230  0.2927  0.6786
  110OSM    C4S11271   5.819   4.483   7.234 -0.5938 -0.0342  0.0991
  110OSM    H4S11272   5.909   4.454   7.177 -1.1236 -0.5120 -0.5059
  110OSM    C5S11273   5.704   4.507   7.166  0.0852  0.6566 -0.7161
  110OSM    H5S11274   5.617   4.534   7.227  0.0456 -0.4099 -0.2799
  110OSM    C6S11275   5.680   4.515   7.018 -0.2503 -0.7303  1.0824
  110OSM    H6S11276   5.647   4.619   6.998 -1.5372 -1.3216  0.0013
  110OSM    H6T11277   5.581   4.475   6.990 -0.0783  0.2909 -1.1955
  110OSM    C7S11278   5.793   4.486   6.914 -0.2939 -0.4582  0.3453
  110OSM    H7S11279   5.838   4.384   6.921  1.8240  0.1435 -2.7182
  110OSM    H7T11280   5.880   4.555   6.927 -0.8796  0.8255 -2.0365
  110OSM    C8S11281   5.744   4.514   6.778 -0.0656  0.0476 -0.4432
  110OSM    H8S11282   5.713   4.621   6.776  3.4971  1.2762  1.3058
  110OSM    H8T11283   5.651   4.454   6.764  0.5081 -0.9496 -0.0338
  110OSM    C9S11284   5.843   4.494   6.663  0.7327  0.8065  0.0847
  110OSM    H9S11285   5.926   4.567   6.672  0.7817  0.6574  0.9577
  110OSM    H9T11286   5.790   4.523   6.570  0.2769 -2.0761 -0.6421
  110OSM   C10S11287   5.884   4.343   6.668  0.7509 -0.5424  0.5916
  110OSM   H10S11288   5.803   4.268   6.680 -0.4695 -0.0581 -3.2402
  110OSM   H10T11289   5.955   4.321   6.750  0.9428 -1.2328  0.2492
  110OSM   C11S11290   5.952   4.310   6.533  0.1422 -0.0983  0.0037
  110OSM   H11S11291   5.964   4.200   6.530  0.4900 -0.0935  0.8150
  110OSM   H11T11292   6.056   4.348   6.527 -0.4996  1.9572  0.8469
  110OSM   C12S11293   5.863   4.345   6.409 -0.2711  0.1806 -1.1293
  110OSM   H12S11294   5.856   4.454   6.389  1.4175  0.0147 -2.9377
  110OSM   H12T11295   5.761   4.305   6.427 -0.4537  0.9053 -0.5168
  110OSM   C13S11296   5.908   4.285   6.283 -0.1822  0.0103  0.0756
  110OSM   H13S11297   5.830   4.313   6.210 -0.6007 -1.4044 -0.0571
  110OSM   H13T11298   5.906   4.176   6.306  1.4441 -0.2288 -0.7484
  110OSM   C14S11299   6.046   4.329   6.230 -0.1797 -0.4755  0.7860
  110OSM   H14S11300   6.138   4.281   6.271 -0.0488  0.3013  1.4274
  110OSM   H14T11301   6.062   4.435   6.260  0.0316 -0.7841  1.7736
  110OSM   C15S11302   6.062   4.315   6.079  0.7709  0.0747 -0.2097
  110OSM   H15S11303   5.980   4.370   6.027 -1.2274 -0.3061  2.3060
  110OSM   H15T11304   6.050   4.206   6.062  0.7035 -0.1785  1.3096
  110OSM   C16S11305   6.195   4.373   6.017  0.0601 -0.0567 -0.4772
  110OSM   H16S11306   6.212   4.339   5.913 -3.8660  1.2723 -1.7152
  110OSM   H16T11307   6.279   4.338   6.081  1.9760  0.8744 -2.3388
  110OSM   C17S11308   6.201   4.535   6.011  0.2926  0.7372 -0.2741
  110OSM   H17S11309   6.139   4.574   6.095  0.0500 -0.2637  0.0292
  110OSM   H17T11310   6.150   4.573   5.919  0.8862 -0.0364 -0.9341
  110OSM   C18S11311   6.344   4.593   6.011  0.1343  0.5880  0.2322
  110OSM   H18S11312   6.383   4.592   6.115 -1.4686  0.2832  0.8553
  110OSM   H18T11313   6.344   4.698   5.974  0.9758  0.6847  0.4794
  110OSM   H18U11314   6.416   4.532   5.952 -0.2759 -0.6318  0.9526
  110OSM    C1F11315   5.939   4.116   7.383  0.5239  0.0216  0.1757
  110OSM     OF11316   5.842   4.058   7.432  0.3113  0.1799 -0.2333
  110OSM    C2F11317   6.066   4.038   7.338 -0.6992 -0.6799  0.9625
  110OSM    H2F11318   6.127   4.004   7.425 -0.8039  0.8177  1.6472
  110OSM    H2G11319   6.129   4.092   7.264 -1.5121 -0.7501  0.2044
  110OSM    C3F11320   6.015   3.913   7.265  0.1085  0.4780  0.2709
  110OSM    H3F11321   5.946   3.854   7.328  0.3953  0.7112  0.8079
  110OSM    H3G11322   6.097   3.854   7.219 -0.5985  1.0146 -1.8214
  110OSM    C4F11323   5.947   3.947   7.132 -0.1225 -0.5088 -0.1118
  110OSM    H4F11324   5.875   4.027   7.160 -0.2194 -0.7141  0.2345
  110OSM    H4G11325   5.891   3.856   7.101 -1.3013  0.3819 -0.6989
  110OSM    C5F11326   6.024   3.995   7.003 -0.0510  0.3769 -0.1029
  110OSM    H5F11327   6.103   3.919   6.985 -1.8176 -1.8959  1.1972
  110OSM    H5G11328   6.070   4.092   7.032 -2.8473  1.7827 -0.0062
  110OSM    C6F11329   5.936   3.991   6.875  0.3731 -0.2128 -0.0576
  110OSM    H6F11330   5.850   4.062   6.880  0.0182 -0.7038  1.0410
  110OSM    H6G11331   5.884   3.892   6.876  1.2952 -0.7213  1.5890
  110OSM    C7F11332   6.004   4.013   6.737  0.1388 -0.5314  0.1847
  110OSM    H7F11333   6.072   4.101   6.737  0.6341 -0.9056 -0.3629
  110OSM    H7G11334   5.929   4.030   6.658 -2.3560  0.0103  2.5050
  110OSM    C8F11335   6.085   3.888   6.682 -0.1387 -0.1667  0.2740
  110OSM    H8F11336   6.153   3.850   6.761 -1.0970  0.2493  1.3295
  110OSM    H8G11337   6.150   3.913   6.596 -3.1890  2.2132 -1.5440
  110OSM    C9F11338   5.987   3.781   6.633  0.2569 -0.4074  0.3616
  110OSM    H9F11339   5.983   3.692   6.697 -0.7621 -1.2534 -0.8133
  110OSM   C10F11340   5.912   3.792   6.515  0.0585  0.6431  0.2498
  110OSM   H10F11341   5.845   3.707   6.499 -0.6168  1.1027  0.5998
  110OSM   C11F11342   5.913   3.892   6.407  0.0816 -0.2197  1.0064
  110OSM   H11F11343   6.006   3.954   6.401  0.0759 -0.3280 -0.8070
  110OSM   H11G11344   5.833   3.966   6.426  1.0065  1.4870 -1.2915
  110OSM   C12F11345   5.896   3.843   6.261  0.0077 -0.2022 -0.5083
  110OSM   H12F11346   5.967   3.759   6.246 -0.2931 -0.8601  1.4817
  110OSM   H12G11347   5.907   3.927   6.190 -1.2257 -1.2942 -2.0651
  110OSM   C13F11348   5.755   3.793   6.234 -0.3602 -0.2914 -0.4457
  110OSM   H13F11349   5.683   3.849   6.296  0.3115 -0.8015  0.8277
  110OSM   H13G11350   5.734   3.698   6.287 -4.5795  0.8465  0.2716
  110OSM   C14F11351   5.727   3.798   6.080 -0.0137  0.0594 -0.3806
  110OSM   H14F11352   5.819   3.763   6.029  0.4452  1.7181 -0.7564
  110OSM   H14G11353   5.711   3.902   6.043 -1.2566  0.4293  1.0909
  110OSM   C15F11354   5.612   3.702   6.039  0.4071 -0.3082 -0.3722
  110OSM   H15F11355   5.523   3.726   6.102  0.7016 -1.2350  0.4304
  110OSM   H15G11356   5.630   3.593   6.055 -0.3402 -0.4991 -0.7841
  110OSM   C16F11357   5.583   3.725   5.889 -0.2710  0.1275 -0.3576
  110OSM   H16F11358   5.677   3.699   5.836 -0.1368 -1.7463  0.7223
  110OSM   H16G11359   5.561   3.832   5.869 -0.9926 -0.2344 -1.5888
  110OSM   C17F11360   5.461   3.645   5.836  0.1479 -0.1320  0.2846
  110OSM   H17F11361   5.458   3.649   5.725 -1.4364  3.6002  0.3212
  110OSM   H17G11362   5.369   3.703   5.861  0.2799  0.9917 -1.7023
  110OSM   C18F11363   5.461   3.504   5.888 -0.0140 -0.3277 -0.4469
  110OSM   H18F11364   5.543   3.438   5.854  0.1978  0.0100 -0.5981
  110OSM   H18G11365   5.367   3.461   5.847 -0.4884  0.0089  0.2749
  110OSM   H18H11366   5.441   3.496   5.997 -0.0754 -0.6996 -0.4853
  111OSM      N11367   2.503   4.859   8.064  0.4658  0.4793  0.1457
  111OSM    C1511368   2.547   4.961   8.169  0.3448 -0.2701  0.6425
  111OSM   H15A11369   2.514   4.950   8.272 -0.0503  0.2261  0.5713
  111OSM   H15B11370   2.536   5.064   8.139 -0.3892 -0.7337 -0.7763
  111OSM   H15C11371   2.654   4.949   8.178  0.3499 -0.4388  0.3548
  111OSM    C1411372   2.575   4.885   7.939  0.1438 -0.2786  0.5413
  111OSM   H14A11373   2.538   4.977   7.895  0.3420  0.2251  1.3966
  111OSM   H14B11374   2.566   4.802   7.871  1.5067  0.6957 -0.9064
  111OSM   H14C11375   2.679   4.897   7.968  0.2862  2.8713 -0.8024
  111OSM    C1311376   2.546   4.723   8.109  0.8294  0.5653 -0.4718
  111OSM   H13A11377   2.512   4.649   8.038  0.6608 -0.9609  1.1453
  111OSM   H13B11378   2.501   4.684   8.199  0.5138  1.4352 -0.2381
  111OSM   H13C11379   2.654   4.717   8.105  0.7714  0.2585 -1.8994
  111OSM    C1211380   2.355   4.848   8.039 -0.2449  0.7549  0.3049
  111OSM   H12A11381   2.323   4.936   7.986  0.5447 -0.7005 -2.7669
  111OSM   H12B11382   2.299   4.858   8.131  0.9010  3.3814  0.8221
  111OSM    C1111383   2.294   4.723   7.967 -0.2412  0.1094  0.0856
  111OSM   H11A11384   2.183   4.724   7.972 -0.4156 -1.6662 -1.8367
  111OSM   H11B11385   2.326   4.630   8.019 -1.0759  0.1721  0.7254
  111OSM      P11386   2.365   4.587   7.761 -0.0244 -0.2493  0.0982
  111OSM    O1311387   2.411   4.623   7.624 -0.6682 -0.4290 -0.4180
  111OSM    O1411388   2.456   4.508   7.840  0.3019  0.0063 -0.3412
  111OSM    O1111389   2.222   4.515   7.759  0.8342  0.7135 -0.2292
  111OSM    O1211390   2.332   4.722   7.834 -0.1654 -0.0342 -0.2189
  111OSM    C1S11391   2.118   4.564   7.678 -0.0558 -0.3439 -0.4216
  111OSM    H1S11392   2.153   4.638   7.603  0.6208 -1.5670 -1.3546
  111OSM    H1T11393   2.048   4.624   7.739 -0.0471 -1.5108  0.7820
  111OSM     NF11394   1.987   4.487   7.479  0.5461  1.3305 -0.3670
  111OSM    HNF11395   1.889   4.475   7.468  0.5555 -2.2915  1.8460
  111OSM    C2S11396   2.054   4.448   7.604  0.6132 -0.1610 -0.1235
  111OSM    H2S11397   2.138   4.384   7.570 -0.0784  0.2920 -2.9163
  111OSM    C3S11398   1.969   4.377   7.715  0.6298 -0.3026 -0.2172
  111OSM    H3S11399   1.893   4.456   7.734  0.6716  0.7631 -3.7834
  111OSM     O311400   2.034   4.343   7.836 -0.5520  0.2214  0.0557
  111OSM    HO311401   2.119   4.385   7.825 -0.8431  1.4251  1.8792
  111OSM    C4S11402   1.894   4.261   7.655 -0.1637 -0.2141 -0.2802
  111OSM    H4S11403   1.785   4.265   7.664 -0.3298 -0.1585 -2.0248
  111OSM    C5S11404   1.949   4.141   7.610 -0.1996  0.3701  0.7141
  111OSM    H5S11405   2.055   4.121   7.630 -0.2668  0.2922  1.0116
  111OSM    C6S11406   1.878   4.017   7.550 -0.0902 -0.1605 -0.1029
  111OSM    H6S11407   1.770   4.010   7.575 -0.0636  1.7724  0.6473
  111OSM    H6T11408   1.925   3.922   7.584 -2.7335 -1.6708 -0.3140
  111OSM    C7S11409   1.892   4.017   7.399  0.3550  1.1206 -0.0189
  111OSM    H7S11410   1.879   3.909   7.376  0.7911  1.0680 -0.0359
  111OSM    H7T11411   1.998   4.039   7.374  0.8138 -0.0164  0.8616
  111OSM    C8S11412   1.802   4.117   7.326 -0.0547 -0.5696 -0.6712
  111OSM    H8S11413   1.830   4.225   7.331 -1.7369 -0.1513  0.4794
  111OSM    H8T11414   1.697   4.105   7.360 -0.0256 -2.9901 -1.2544
  111OSM    C9S11415   1.812   4.094   7.179 -0.1871  0.0886  0.5820
  111OSM    H9S11416   1.781   3.989   7.166 -1.5531  0.4693  0.5913
  111OSM    H9T11417   1.920   4.108   7.155  0.6184 -2.9217  1.9781
  111OSM   C10S11418   1.720   4.192   7.098 -0.1548  0.3647 -0.3271
  111OSM   H10S11419   1.751   4.297   7.112  0.8124 -0.2323  2.8862
  111OSM   H10T11420   1.615   4.182   7.136 -0.1695  0.7080 -0.2770
  111OSM   C11S11421   1.718   4.141   6.948 -0.2362  0.1529  0.3324
  111OSM   H11S11422   1.658   4.215   6.891  2.6011  0.9371 -1.7984
  111OSM   H11T11423   1.671   4.040   6.956 -0.2986  0.0708 -0.9461
  111OSM   C12S11424   1.854   4.131   6.875  0.2356  0.5030  0.8821
  111OSM   H12S11425   1.918   4.046   6.904  0.1878 -0.6800 -2.1276
  111OSM   H12T11426   1.917   4.221   6.891  0.7141  0.3304  0.0270
  111OSM   C13S11427   1.835   4.131   6.721 -0.1300 -0.6691  0.0463
  111OSM   H13S11428   1.781   4.225   6.697  1.0242 -0.2019 -0.7994
  111OSM   H13T11429   1.766   4.045   6.707 -1.8605  0.4215  1.4504
  111OSM   C14S11430   1.970   4.134   6.645 -0.2091 -0.0663 -0.2919
  111OSM   H14S11431   2.022   4.041   6.675  1.2768 -0.4139 -3.5435
  111OSM   H14T11432   2.020   4.224   6.687 -1.9140  0.5218  0.5878
  111OSM   C15S11433   1.953   4.146   6.495  0.4262  0.7322 -0.3707
  111OSM   H15S11434   2.052   4.141   6.444  0.3922 -1.4761 -0.2986
  111OSM   H15T11435   1.894   4.236   6.467 -3.9284 -1.4954  0.7948
  111OSM   C16S11436   1.867   4.033   6.438 -0.3384  0.2629 -0.2158
  111OSM   H16S11437   1.765   4.044   6.481  0.7800  0.9323  2.4707
  111OSM   H16T11438   1.909   3.933   6.464  3.2180  1.3059 -1.4130
  111OSM   C17S11439   1.853   4.020   6.283  0.5323  0.1511  0.4331
  111OSM   H17S11440   1.790   4.107   6.257  1.6389  1.2221  1.2603
  111OSM   H17T11441   1.796   3.926   6.262 -0.4993  1.1830 -1.6268
  111OSM   C18S11442   1.979   4.030   6.193 -0.3797 -0.4791 -0.4730
  111OSM   H18S11443   1.987   4.141   6.191 -0.0209 -0.4820  0.3775
  111OSM   H18T11444   1.973   3.997   6.087  0.3043  1.8361 -1.3045
  111OSM   H18U11445   2.070   3.989   6.242  0.9198 -0.8759 -3.0824
  111OSM    C1F11446   2.036   4.538   7.368  0.2297  0.4272 -0.5757
  111OSM     OF11447   2.153   4.576   7.364  0.3557 -0.4695  0.5456
  111OSM    C2F11448   1.950   4.532   7.242  0.4948  0.4798  0.2301
  111OSM    H2F11449   1.902   4.631   7.248  2.0809  1.3130 -0.2959
  111OSM    H2G11450   1.882   4.444   7.247  3.7620 -2.4157 -1.2247
  111OSM    C3F11451   2.020   4.521   7.113  0.4830 -0.6918  0.1149
  111OSM    H3F11452   2.073   4.424   7.106  1.1370 -0.4104  1.0632
  111OSM    H3G11453   2.081   4.613   7.101 -2.1640  1.3129  1.1229
  111OSM    C4F11454   1.916   4.526   7.002 -0.2663 -0.4356  0.1021
  111OSM    H4F11455   1.855   4.618   7.000  0.3769 -0.0155 -1.3608
  111OSM    H4G11456   1.853   4.435   7.009 -0.9995 -0.0741 -1.4257
  111OSM    C5F11457   1.984   4.527   6.864  0.2345 -0.3113 -0.3675
  111OSM    H5F11458   2.029   4.426   6.850  0.0167 -0.6390  1.0653
  111OSM    H5G11459   2.058   4.609   6.856  0.4525 -0.4559  0.1085
  111OSM    C6F11460   1.882   4.538   6.752 -0.4188 -0.5909  0.3858
  111OSM    H6F11461   1.825   4.633   6.762  0.7113  0.1632 -0.1564
  111OSM    H6G11462   1.812   4.452   6.744 -0.3083 -0.6357 -0.1148
  111OSM    C7F11463   1.934   4.543   6.609 -0.3253  0.0730  0.6626
  111OSM    H7F11464   2.007   4.460   6.595 -0.3204  0.0933  0.5637
  111OSM    H7G11465   2.002   4.630   6.595  1.4742 -1.5083 -1.1228
  111OSM    C8F11466   1.831   4.525   6.509 -0.6787  0.3108  0.0485
  111OSM    H8F11467   1.753   4.595   6.544 -0.8237  0.1692  0.0113
  111OSM    H8G11468   1.776   4.428   6.502 -1.1279  0.6299 -1.1491
  111OSM    C9F11469   1.881   4.560   6.370  0.2992 -0.3425  0.0936
  111OSM    H9F11470   1.983   4.598   6.362 -1.1458  3.5787 -4.6768
  111OSM   C10F11471   1.813   4.535   6.256  0.2563 -0.1087  0.3455
  111OSM   H10F11472   1.868   4.570   6.167  1.4430  0.9672  1.4452
  111OSM   C11F11473   1.678   4.475   6.237  0.3763  0.2350 -0.1452
  111OSM   H11F11474   1.596   4.544   6.207  2.4410  3.0204  0.1417
  111OSM   H11G11475   1.644   4.417   6.325 -1.4461  2.0988  0.4502
  111OSM   C12F11476   1.701   4.369   6.117  0.1314  0.1636  0.1198
  111OSM   H12F11477   1.788   4.305   6.140  0.0714 -0.1491 -0.5024
  111OSM   H12G11478   1.719   4.420   6.020 -2.5930  0.4393 -0.3220
  111OSM   C13F11479   1.582   4.279   6.093  0.6239 -0.1459 -0.1244
  111OSM   H13F11480   1.485   4.329   6.075 -0.8016 -2.7972 -0.2265
  111OSM   H13G11481   1.567   4.216   6.183 -1.0401  2.4948  1.5671
  111OSM   C14F11482   1.606   4.185   5.969  0.4409  0.1570  0.0168
  111OSM   H14F11483   1.692   4.119   5.991 -0.3438 -0.5030  1.2663
  111OSM   H14G11484   1.644   4.251   5.888  1.5653  0.8072  1.0424
  111OSM   C15F11485   1.473   4.112   5.938 -0.2023 -0.7393 -0.5860
  111OSM   H15F11486   1.395   4.187   5.915 -1.7228 -2.2206 -0.4580
  111OSM   H15G11487   1.436   4.054   6.025  0.1856 -1.3712 -0.8290
  111OSM   C16F11488   1.488   4.008   5.818 -0.3571 -1.1604  0.3201
  111OSM   H16F11489   1.560   3.927   5.838 -0.5333 -1.9001 -1.7925
  111OSM   H16G11490   1.532   4.062   5.731 -3.0108 -1.7313 -1.5136
  111OSM   C17F11491   1.352   3.942   5.777 -0.2610 -0.0279 -0.0193
  111OSM   H17F11492   1.372   3.888   5.683 -0.9425  1.2002 -0.9036
  111OSM   H17G11493   1.270   4.014   5.753  0.3585  0.8229  0.3426
  111OSM   C18F11494   1.301   3.843   5.888  0.1163  0.0986  0.4908
  111OSM   H18F11495   1.271   3.903   5.977  0.8205  0.7355  0.3154
  111OSM   H18G11496   1.386   3.779   5.916  0.6960  0.6418  0.0148
  111OSM   H18H11497   1.213   3.782   5.858  1.1956 -0.5324 -1.5631
  112OSM      N11498   5.050   5.493   8.372 -0.0416  0.7026 -0.2721
  112OSM    C1511499   5.020   5.587   8.487 -0.1415  0.6739  0.1346
  112OSM   H15A11500   5.099   5.591   8.560  1.1174 -1.1700 -1.0429
  112OSM   H15B11501   4.925   5.564   8.531  0.2496 -0.2146  0.5301
  112OSM   H15C11502   5.006   5.689   8.455 -0.3436  0.3529 -0.8469
  112OSM    C1411503   4.991   5.358   8.408  0.4872  0.0432  0.0065
  112OSM   H14A11504   5.022   5.291   8.328 -0.9295 -0.9614  0.2666
  112OSM   H14B11505   4.883   5.361   8.408  0.4790 -0.1376  0.5087
  112OSM   H14C11506   5.025   5.325   8.505 -0.7760 -1.9885 -0.1818
  112OSM    C1311507   4.973   5.557   8.261  0.2097  0.5891 -0.0468
  112OSM   H13A11508   5.004   5.659   8.244 -2.5531  1.2721 -1.5340
  112OSM   H13B11509   4.866   5.553   8.276 -0.3250  1.3467 -2.9414
  112OSM   H13C11510   4.993   5.497   8.173 -0.0992 -1.0061  0.9253
  112OSM    C1211511   5.204   5.490   8.343  0.3665  0.2022  0.9186
  112OSM   H12A11512   5.259   5.446   8.425  1.7738 -1.7855 -0.9711
  112OSM   H12B11513   5.248   5.589   8.338  2.0420 -0.4983 -4.0734
  112OSM    C1111514   5.255   5.429   8.217 -0.0391  0.1144  0.7037
  112OSM   H11A11515   5.197   5.336   8.199 -2.1567  1.5958 -0.4837
  112OSM   H11B11516   5.360   5.405   8.245 -0.1017 -0.6699  0.2840
  112OSM      P11517   5.335   5.649   8.098 -0.0659 -0.0071 -0.2974
  112OSM    O1311518   5.279   5.734   7.992  0.2240 -0.0673 -0.9030
  112OSM    O1411519   5.362   5.711   8.232  0.4578 -0.2458  0.3181
  112OSM    O1111520   5.467   5.581   8.049 -0.7661  0.1019  0.6897
  112OSM    O1211521   5.248   5.525   8.114  0.0931  0.2169  0.6829
  112OSM    C1S11522   5.499   5.505   7.926  0.8400 -0.1517  0.9115
  112OSM    H1S11523   5.410   5.451   7.888  0.9720  0.1937  0.0802
  112OSM    H1T11524   5.572   5.428   7.961  1.2523 -0.5030 -0.6140
  112OSM     NF11525   5.553   5.531   7.692  0.3687  0.1583  0.0508
  112OSM    HNF11526   5.633   5.492   7.646 -0.3844 -0.8996 -0.3970
  112OSM    C2S11527   5.557   5.596   7.820 -0.3605  0.5712 -0.0357
  112OSM    H2S11528   5.487   5.682   7.809 -1.1578 -0.3234 -2.9030
  112OSM    C3S11529   5.704   5.652   7.861  0.2198 -0.4451  0.3923
  112OSM    H3S11530   5.771   5.564   7.855  0.6273 -0.0442 -2.0952
  112OSM     O311531   5.699   5.704   7.993  0.5780 -0.0951  0.6734
  112OSM    HO311532   5.608   5.683   8.014  0.1738 -1.1860 -1.8247
  112OSM    C4S11533   5.752   5.766   7.770 -1.0214  0.1011 -0.5013
  112OSM    H4S11534   5.694   5.859   7.777 -2.1946 -0.6059 -0.4585
  112OSM    C5S11535   5.869   5.762   7.699  0.1764  0.2001 -0.2575
  112OSM    H5S11536   5.937   5.676   7.705  1.3236  0.8319 -2.8970
  112OSM    C6S11537   5.914   5.886   7.618  0.4205 -0.0635 -0.7205
  112OSM    H6S11538   6.008   5.930   7.657 -0.2258  2.2911 -1.6594
  112OSM    H6T11539   5.842   5.970   7.624  0.8548  0.4566 -2.3204
  112OSM    C7S11540   5.942   5.847   7.474 -0.5932  0.1412 -0.4265
  112OSM    H7S11541   5.854   5.828   7.409 -0.1379 -0.1589 -0.9564
  112OSM    H7T11542   5.997   5.751   7.480 -1.2085 -0.3265 -1.8801
  112OSM    C8S11543   6.036   5.945   7.403 -0.5410  0.5810  0.1845
  112OSM    H8S11544   6.069   5.895   7.309 -0.2146 -0.9011  1.0503
  112OSM    H8T11545   6.126   5.965   7.465  0.5011 -1.1538 -0.6647
  112OSM    C9S11546   5.957   6.076   7.376  0.0666 -0.9699  0.0381
  112OSM    H9S11547   5.919   6.109   7.475  1.0576 -1.7371  0.6989
  112OSM    H9T11548   5.870   6.055   7.311  0.5134  0.9388 -1.2596
  112OSM   C10S11549   6.040   6.194   7.322  0.5671 -0.3832 -0.5130
  112OSM   H10S11550   6.118   6.228   7.393  0.8480 -0.3054 -0.8570
  112OSM   H10T11551   5.971   6.282   7.320  2.8621  1.5241 -0.3266
  112OSM   C11S11552   6.082   6.172   7.177  0.8093  0.2450 -0.0254
  112OSM   H11S11553   6.160   6.094   7.160  2.0139  1.6687 -1.5113
  112OSM   H11T11554   6.131   6.268   7.149  0.9830  0.2110  0.1574
  112OSM   C12S11555   5.966   6.148   7.078 -0.4263 -0.1464 -0.1576
  112OSM   H12S11556   5.888   6.220   7.111  0.5908 -0.0475  2.2816
  112OSM   H12T11557   5.921   6.048   7.097  1.6480 -1.2207 -0.5610
  112OSM   C13S11558   6.011   6.165   6.933 -0.6567  0.5605 -0.1657
  112OSM   H13S11559   6.114   6.124   6.923 -0.4791  1.0426 -0.3538
  112OSM   H13T11560   6.018   6.274   6.910 -1.2658  0.3083 -1.6574
  112OSM   C14S11561   5.913   6.096   6.836  0.0023 -0.5328  0.7205
  112OSM   H14S11562   5.813   6.143   6.852  0.3933  0.5255  0.1007
  112OSM   H14T11563   5.899   5.992   6.873  1.5071  0.1376  3.4218
  112OSM   C15S11564   5.944   6.115   6.685 -0.2217  0.1599  0.5373
  112OSM   H15S11565   5.952   6.013   6.640 -0.9742  0.7605 -0.9938
  112OSM   H15T11566   6.044   6.161   6.678 -0.0892 -0.3308 -1.2339
  112OSM   C16S11567   5.837   6.203   6.620 -0.0696  0.0126 -0.9514
  112OSM   H16S11568   5.826   6.305   6.663 -0.0132 -0.1367 -0.5803
  112OSM   H16T11569   5.740   6.148   6.627  0.4646 -0.7612  1.0752
  112OSM   C17S11570   5.860   6.212   6.468  0.1458 -0.0162  0.2425
  112OSM   H17S11571   5.768   6.244   6.413 -0.1898  0.1960  0.9179
  112OSM   H17T11572   5.884   6.108   6.437 -1.2370  0.4135 -2.6532
  112OSM   C18S11573   5.981   6.297   6.417  0.3052  1.0902 -0.1886
  112OSM   H18S11574   5.968   6.406   6.434  0.6169  1.4294 -1.9394
  112OSM   H18T11575   5.989   6.283   6.307  0.3246 -0.5417 -0.0134
  112OSM   H18U11576   6.079   6.268   6.459  0.9381 -0.4723 -2.5102
  112OSM    C1F11577   5.446   5.503   7.630  0.1587 -0.2942 -0.2370
  112OSM     OF11578   5.334   5.552   7.661 -0.3822 -0.3445  0.3579
  112OSM    C2F11579   5.465   5.415   7.512  0.3257 -0.0457  0.5230
  112OSM    H2F11580   5.512   5.318   7.541 -1.1260 -1.2947 -1.1056
  112OSM    H2G11581   5.534   5.462   7.439  0.7012 -0.3367  0.6870
  112OSM    C3F11582   5.333   5.396   7.433  0.1915  0.6396  0.3077
  112OSM    H3F11583   5.301   5.501   7.412 -2.3361 -0.1522 -0.0574
  112OSM    H3G11584   5.254   5.348   7.495  2.1792 -3.9912 -0.3597
  112OSM    C4F11585   5.338   5.329   7.300 -0.9871 -0.3805 -0.0291
  112OSM    H4F11586   5.244   5.344   7.242 -0.3357 -0.2366 -1.0796
  112OSM    H4G11587   5.334   5.222   7.329 -1.2563  0.3482  2.9549
  112OSM    C5F11588   5.457   5.358   7.209 -0.1292 -0.7157 -0.2004
  112OSM    H5F11589   5.550   5.322   7.258  0.5738  0.3001 -0.7510
  112OSM    H5G11590   5.461   5.464   7.177  1.8429 -0.4784  0.7259
  112OSM    C6F11591   5.460   5.269   7.084  0.5386  0.7263  0.3545
  112OSM    H6F11592   5.371   5.274   7.017  0.8053 -1.9954 -0.3250
  112OSM    H6G11593   5.456   5.163   7.117 -1.8772  1.2251  1.9787
  112OSM    C7F11594   5.584   5.296   7.005 -0.4682  0.1571 -0.2843
  112OSM    H7F11595   5.667   5.286   7.078 -0.3020  1.7513 -0.2302
  112OSM    H7G11596   5.570   5.399   6.966 -2.2007  0.2581  0.5321
  112OSM    C8F11597   5.595   5.199   6.885 -0.0249 -0.1985 -0.9030
  112OSM    H8F11598   5.498   5.199   6.832 -2.4026  0.9678  2.9614
  112OSM    H8G11599   5.616   5.093   6.911  2.2913  0.7555  1.6657
  112OSM    C9F11600   5.712   5.245   6.802 -0.6483  0.9808 -0.8650
  112OSM    H9F11601   5.811   5.221   6.842 -1.1292 -1.0739 -0.7668
  112OSM   C10F11602   5.717   5.294   6.677  0.2002 -0.8504  0.7729
  112OSM   H10F11603   5.805   5.318   6.617 -1.0979  0.8387 -0.5707
  112OSM   C11F11604   5.594   5.324   6.595  0.7580 -0.1498  0.0960
  112OSM   H11F11605   5.569   5.432   6.607 -0.5376 -0.0919 -2.4523
  112OSM   H11G11606   5.506   5.263   6.626  0.0061 -0.6095 -2.6523
  112OSM   C12F11607   5.609   5.303   6.445  1.0757  0.3478 -1.1149
  112OSM   H12F11608   5.509   5.270   6.411  1.9703 -1.7582 -1.9088
  112OSM   H12G11609   5.677   5.218   6.425 -0.5118 -0.8732 -1.5281
  112OSM   C13F11610   5.660   5.431   6.374  0.1188 -0.9467 -0.0801
  112OSM   H13F11611   5.758   5.466   6.413 -0.8376 -0.7757  2.3578
  112OSM   H13G11612   5.584   5.506   6.403 -0.5046 -1.5519 -0.1307
  112OSM   C14F11613   5.681   5.401   6.227  0.3098  0.8812  0.3088
  112OSM   H14F11614   5.588   5.358   6.184  0.4606  1.6349 -0.7962
  112OSM   H14G11615   5.759   5.321   6.227 -0.0539  0.5218  0.6414
  112OSM   C15F11616   5.721   5.516   6.138 -0.0912  0.1660 -0.0034
  112OSM   H15F11617   5.765   5.596   6.201 -1.0574  0.3745  0.4350
  112OSM   H15G11618   5.624   5.555   6.099 -0.6371 -1.1392 -0.0389
  112OSM   C16F11619   5.801   5.465   6.016 -0.0173 -0.3950  0.1626
  112OSM   H16F11620   5.773   5.362   5.986  0.8047 -0.0792 -1.8595
  112OSM   H16G11621   5.908   5.466   6.043 -0.5804 -1.6363  2.7399
  112OSM   C17F11622   5.784   5.530   5.880 -0.2296 -0.1358 -0.4702
  112OSM   H17F11623   5.680   5.528   5.842 -0.9060  1.7876  1.0897
  112OSM   H17G11624   5.853   5.478   5.810 -0.3892  0.8812 -1.4056
  112OSM   C18F11625   5.821   5.679   5.892  0.2227 -0.2671 -0.2578
  112OSM   H18F11626   5.930   5.696   5.893  0.5520 -2.1683 -0.0661
  112OSM   H18G11627   5.790   5.725   5.988  0.0831  0.4009 -0.6208
  112OSM   H18H11628   5.787   5.735   5.803  0.3687  1.4700  0.7461
  113OSM      N11629   2.314   6.544   8.372 -0.2231  0.4723  1.0582
  113OSM    C1511630   2.459   6.510   8.323  0.5030 -0.1362  0.0946
  113OSM   H15A11631   2.457   6.403   8.304 -2.6317  0.0963 -1.6949
  113OSM   H15B11632   2.526   6.539   8.402  1.7138  1.8186 -1.5573
  113OSM   H15C11633   2.492   6.562   8.235  0.8862 -1.0534 -0.3180
  113OSM    C1411634   2.282   6.450   8.488 -0.3953  0.3124  0.5558
  113OSM   H14A11635   2.343   6.460   8.577  0.9946  1.3099 -0.4515
  113OSM   H14B11636   2.291   6.345   8.462  0.0106  0.6072 -0.5594
  113OSM   H14C11637   2.186   6.479   8.526 -0.0811  0.6888  1.0716
  113OSM    C1311638   2.313   6.685   8.412  0.3726 -0.4213 -0.1963
  113OSM   H13A11639   2.217   6.719   8.448  0.0752 -0.7639 -0.6473
  113OSM   H13B11640   2.338   6.755   8.333 -0.8969  0.1669 -0.1024
  113OSM   H13C11641   2.391   6.708   8.483 -1.1714  0.3906  1.2982
  113OSM    C1211642   2.215   6.518   8.258  0.3870 -0.0884 -0.2983
  113OSM   H12A11643   2.122   6.562   8.290 -0.0023  0.6417 -2.2694
  113OSM   H12B11644   2.195   6.412   8.247  0.7228 -0.2616  0.7237
  113OSM    C1111645   2.236   6.591   8.122 -0.1028  1.0945 -0.1326
  113OSM   H11A11646   2.154   6.570   8.050  1.6715 -0.3092 -1.8685
  113OSM   H11B11647   2.325   6.535   8.088 -1.2998 -1.7838  1.1765
  113OSM      P11648   2.159   6.841   8.145  0.6320 -0.1352 -0.0204
  113OSM    O1311649   2.035   6.789   8.200 -0.3085 -0.2178  0.5016
  113OSM    O1411650   2.216   6.965   8.209 -0.3977 -0.1308 -0.2057
  113OSM    O1111651   2.130   6.869   7.989 -0.5075  0.2128  0.7526
  113OSM    O1211652   2.271   6.732   8.136  0.0674 -0.0079 -0.1676
  113OSM    C1S11653   2.232   6.879   7.893  0.0888 -0.3997  0.7763
  113OSM    H1S11654   2.337   6.880   7.927  0.2753 -2.7863  0.4554
  113OSM    H1T11655   2.223   6.975   7.838  1.5590 -0.5645  0.1989
  113OSM     NF11656   2.305   6.774   7.678 -0.2914 -0.2641 -0.9562
  113OSM    HNF11657   2.283   6.839   7.605  3.7100  0.4436 -1.7880
  113OSM    C2S11658   2.210   6.763   7.784  0.6013  0.8005 -0.9189
  113OSM    H2S11659   2.222   6.669   7.843  3.4755  0.6915 -1.4984
  113OSM    C3S11660   2.052   6.752   7.744 -0.1452 -0.0200  0.1186
  113OSM    H3S11661   2.025   6.855   7.712 -0.1268 -0.3243 -0.8875
  113OSM     O311662   1.975   6.721   7.864 -0.6286  0.5523 -0.3441
  113OSM    HO311663   2.020   6.756   7.941  0.1402  0.2515 -0.6479
  113OSM    C4S11664   2.017   6.663   7.630 -0.9204 -0.3924 -0.3569
  113OSM    H4S11665   2.019   6.727   7.541  0.1382 -0.2137 -0.2173
  113OSM    C5S11666   1.985   6.531   7.619 -0.4360 -0.1626 -0.3421
  113OSM    H5S11667   2.005   6.465   7.705 -0.8224  0.5282  0.2869
  113OSM    C6S11668   1.954   6.456   7.491  0.2811 -0.1436 -1.1385
  113OSM    H6S11669   1.846   6.430   7.483  0.4978 -0.8684 -1.9716
  113OSM    H6T11670   1.991   6.351   7.491  0.3560 -0.1395  0.5568
  113OSM    C7S11671   1.997   6.531   7.354  0.2311  0.6854  0.0625
  113OSM    H7S11672   2.106   6.551   7.348  0.0280  2.1592  0.6272
  113OSM    H7T11673   1.929   6.620   7.353 -2.3722 -1.1914 -0.3999
  113OSM    C8S11674   1.950   6.440   7.233 -0.4827 -0.0902 -0.3645
  113OSM    H8S11675   1.857   6.392   7.271 -1.1749  0.9465 -0.7187
  113OSM    H8T11676   2.027   6.360   7.231 -1.5990 -1.1994 -0.2917
  113OSM    C9S11677   1.934   6.508   7.097  0.4451  0.2630  0.4387
  113OSM    H9S11678   1.905   6.614   7.108 -0.9573 -0.0501 -0.0583
  113OSM    H9T11679   1.853   6.455   7.043  0.0719  0.2392  1.0158
  113OSM   C10S11680   2.063   6.512   7.014  0.2185 -0.6647  0.1237
  113OSM   H10S11681   2.097   6.411   6.982  2.2309 -0.2766  0.9171
  113OSM   H10T11682   2.129   6.555   7.093 -0.3544  1.2308 -0.3881
  113OSM   C11S11683   2.047   6.608   6.896 -0.6717 -0.0623 -0.0550
  113OSM   H11S11684   2.136   6.623   6.832 -0.2859  0.6854  0.6404
  113OSM   H11T11685   2.025   6.712   6.929 -0.8291 -0.6408  1.7819
  113OSM   C12S11686   1.931   6.566   6.792  0.1600 -0.2856  0.0189
  113OSM   H12S11687   1.839   6.553   6.853 -0.5762  1.0996 -0.7304
  113OSM   H12T11688   1.947   6.461   6.760 -2.3126 -1.4938  2.3544
  113OSM   C13S11689   1.924   6.652   6.662 -0.1975 -0.4168  0.1315
  113OSM   H13S11690   1.997   6.733   6.678  4.5205 -3.8426 -1.7945
  113OSM   H13T11691   1.821   6.694   6.666  0.4628  1.2092  1.1959
  113OSM   C14S11692   1.953   6.576   6.536  0.3936  0.2756  0.1157
  113OSM   H14S11693   1.879   6.496   6.514  1.3879 -0.6368  0.0114
  113OSM   H14T11694   2.041   6.509   6.543 -1.6727 -2.5344  1.9144
  113OSM   C15S11695   1.946   6.667   6.410  1.2354  0.5867 -0.6048
  113OSM   H15S11696   2.005   6.760   6.423  2.1456  0.4465 -3.0938
  113OSM   H15T11697   1.843   6.705   6.396  0.7670 -0.2723  0.3441
  113OSM   C16S11698   1.981   6.598   6.277 -0.7927 -0.6438 -0.2900
  113OSM   H16S11699   1.964   6.489   6.289  3.2269 -1.4050 -0.2388
  113OSM   H16T11700   2.092   6.600   6.270 -0.5371 -1.7549  2.2404
  113OSM   C17S11701   1.910   6.655   6.158 -0.1842 -0.0288  0.5615
  113OSM   H17S11702   1.799   6.649   6.169  0.0407 -1.3908  2.9188
  113OSM   H17T11703   1.929   6.588   6.071  0.1548  0.5158  0.2124
  113OSM   C18S11704   1.963   6.795   6.121 -0.7356 -0.1285  0.7489
  113OSM   H18S11705   1.968   6.853   6.216 -1.0193  0.6548  0.2976
  113OSM   H18T11706   1.886   6.851   6.064 -0.1931  0.5109  0.6282
  113OSM   H18U11707   2.063   6.799   6.073 -1.8913  0.8250 -1.7397
  113OSM    C1F11708   2.437   6.754   7.707  0.3751  0.6789  0.0809
  113OSM     OF11709   2.467   6.695   7.815  0.4747 -0.4336 -0.4868
  113OSM    C2F11710   2.539   6.805   7.607  0.1491  0.8969 -0.5980
  113OSM    H2F11711   2.517   6.913   7.597 -1.0378  0.8236  0.8481
  113OSM    H2G11712   2.514   6.749   7.514 -0.1996 -0.1043  0.0846
  113OSM    C3F11713   2.682   6.766   7.637 -0.1647  0.0078 -0.3623
  113OSM    H3F11714   2.679   6.655   7.644 -1.3423  0.0180 -0.5359
  113OSM    H3G11715   2.715   6.792   7.740  3.8422  0.7994 -1.6642
  113OSM    C4F11716   2.789   6.818   7.538 -0.3916  0.0764 -1.0057
  113OSM    H4F11717   2.891   6.781   7.559 -1.1928 -2.0316 -0.4697
  113OSM    H4G11718   2.788   6.929   7.544 -0.1571  0.0499 -0.4081
  113OSM    C5F11719   2.753   6.767   7.399 -0.4143  0.1369  0.2733
  113OSM    H5F11720   2.656   6.810   7.367  0.6389  3.0354  0.6672
  113OSM    H5G11721   2.745   6.657   7.412 -0.5640 -0.1107 -1.6691
  113OSM    C6F11722   2.864   6.792   7.297  0.0141 -0.4984 -0.3336
  113OSM    H6F11723   2.897   6.897   7.310  1.4903 -0.9688 -0.0234
  113OSM    H6G11724   2.835   6.791   7.190 -0.3227 -0.3561 -0.2434
  113OSM    C7F11725   2.992   6.697   7.311 -0.0920  0.5589  0.2613
  113OSM    H7F11726   2.947   6.596   7.320  1.0359 -0.1937 -1.7634
  113OSM    H7G11727   3.052   6.715   7.403 -2.2875 -0.9476  2.0945
  113OSM    C8F11728   3.071   6.710   7.179 -0.2329  0.2080 -0.4960
  113OSM    H8F11729   3.003   6.695   7.093 -0.9777  0.0626  0.1059
  113OSM    H8G11730   3.139   6.622   7.185 -1.7238 -1.1013 -1.8172
  113OSM    C9F11731   3.136   6.843   7.172  0.4314 -0.3500  0.2534
  113OSM    H9F11732   3.172   6.886   7.267  2.5104  0.3358 -0.7688
  113OSM   C10F11733   3.136   6.926   7.061 -0.4327 -0.3435  0.2604
  113OSM   H10F11734   3.185   7.024   7.066  0.4070 -0.5702 -2.1984
  113OSM   C11F11735   3.087   6.890   6.920 -0.3676  0.4218 -0.1038
  113OSM   H11F11736   2.987   6.843   6.922 -1.0980  1.9355  0.4049
  113OSM   H11G11737   3.155   6.818   6.869 -0.1261 -0.1274  0.9609
  113OSM   C12F11738   3.073   7.013   6.834  0.4890 -0.2807  0.0905
  113OSM   H12F11739   3.157   7.085   6.841  1.3519 -1.3843  1.8680
  113OSM   H12G11740   2.987   7.070   6.876  0.2345 -0.5412 -0.0774
  113OSM   C13F11741   3.031   6.977   6.688 -0.0808 -0.3750 -0.2707
  113OSM   H13F11742   2.939   6.915   6.693 -0.2538 -0.0358  0.9924
  113OSM   H13G11743   3.101   6.899   6.654 -1.5208 -1.9992  0.3563
  113OSM   C14F11744   3.008   7.100   6.604 -0.1087  1.0253 -0.8356
  113OSM   H14F11745   3.081   7.179   6.631 -0.5592  1.2107 -0.1476
  113OSM   H14G11746   2.907   7.146   6.608 -0.1871  0.9387 -1.6352
  113OSM   C15F11747   3.049   7.075   6.459  0.2522  0.2515 -0.3507
  113OSM   H15F11748   3.141   7.013   6.458 -0.1090 -0.7412  4.3617
  113OSM   H15G11749   3.070   7.176   6.418 -2.1425  1.1217  0.3730
  113OSM   C16F11750   2.943   7.000   6.370 -0.0534 -0.2659 -1.0251
  113OSM   H16F11751   2.857   7.070   6.356  0.5848  1.4430  2.4312
  113OSM   H16G11752   2.909   6.915   6.433 -0.0716  1.7765  1.9269
  113OSM   C17F11753   2.994   6.966   6.229  0.4368  0.1167 -0.8959
  113OSM   H17F11754   2.925   6.893   6.182  1.2461 -0.3479 -1.3767
  113OSM   H17G11755   3.092   6.915   6.238 -0.2090 -1.1479 -0.7635
  113OSM   C18F11756   3.002   7.094   6.147  0.2225 -0.5434  0.1978
  113OSM   H18F11757   3.089   7.154   6.182  1.5328 -1.8409 -0.7461
  113OSM   H18G11758   2.907   7.152   6.149  1.6645  1.9552  0.9803
  113OSM   H18H11759   3.026   7.075   6.040  1.4163 -1.2973  0.5718
  114OSM      N11760   0.043   1.018   8.443 -0.6500 -0.5613 -0.1339
  114OSM    C1511761   0.069   0.876   8.486  0.2617 -0.1281 -0.2104
  114OSM   H15A11762   0.163   0.854   8.437  0.8923  2.4344 -0.2968
  114OSM   H15B11763  -0.008   0.810   8.450 -1.1485  2.5663 -2.5203
  114OSM   H15C11764   0.075   0.871   8.594  0.3305 -1.8003 -0.2722
  114OSM    C1411765  -0.104   1.049   8.459  0.3978  0.2301 -0.1649
  114OSM   H14A11766  -0.131   1.037   8.563 -0.3966 -0.9387 -0.4892
  114OSM   H14B11767  -0.177   0.991   8.405 -0.1929  1.2169 -0.4429
  114OSM   H14C11768  -0.125   1.152   8.435  0.9955  0.0506 -1.5693
  114OSM    C1311769   0.129   1.110   8.522 -0.2489  0.2267 -0.6115
  114OSM   H13A11770   0.108   1.106   8.628  1.4352 -0.4252 -0.2741
  114OSM   H13B11771   0.127   1.212   8.484  0.7782  0.1400 -0.9345
  114OSM   H13C11772   0.230   1.073   8.512 -1.2528 -2.9942 -0.0072
  114OSM    C1211773   0.069   1.040   8.292 -0.7524 -0.1633  1.0027
  114OSM   H12A11774   0.077   1.146   8.275 -1.0684 -0.3441 -0.4096
  114OSM   H12B11775  -0.013   1.004   8.232  1.9898 -0.4232 -2.9276
  114OSM    C1111776   0.196   0.982   8.236  0.1888 -0.2158  0.7135
  114OSM   H11A11777   0.281   1.021   8.297 -1.4214 -0.2781  3.1453
  114OSM   H11B11778   0.205   1.037   8.140 -1.1572 -1.7878 -0.3744
  114OSM      P11779   0.097   0.774   8.109 -0.1347  0.8278  0.0105
  114OSM    O1311780   0.179   0.729   7.991 -0.4035  0.0961  0.2743
  114OSM    O1411781   0.032   0.663   8.183  0.2573 -0.3873  0.9589
  114OSM    O1111782  -0.013   0.882   8.073 -0.7358  0.0655  0.6022
  114OSM    O1211783   0.192   0.845   8.216  0.3358  0.1243  0.2027
  114OSM    C1S11784  -0.015   0.971   7.957 -0.3282  0.4344  0.2959
  114OSM    H1S11785   0.089   0.998   7.930  0.1602 -1.6248 -0.0781
  114OSM    H1T11786  -0.071   1.063   7.985  3.8610  3.7336 -1.1899
  114OSM     NF11787  -0.053   0.962   7.714  0.2886 -0.1565  0.4062
  114OSM    HNF11788  -0.107   1.044   7.702 -0.4315 -0.5446  0.8971
  114OSM    C2S11789  -0.083   0.901   7.839 -0.0314  0.1403  0.1423
  114OSM    H2S11790  -0.042   0.798   7.839 -0.7288 -0.1922  2.6188
  114OSM    C3S11791  -0.233   0.878   7.868  0.0788  0.2182  0.1963
  114OSM    H3S11792  -0.290   0.974   7.871  1.2102  0.9502 -0.4867
  114OSM     O311793  -0.257   0.795   7.981  0.3351  0.5390  0.0126
  114OSM    HO311794  -0.175   0.808   8.029  0.9906  0.3482 -1.0351
  114OSM    C4S11795  -0.291   0.802   7.753 -0.0312  0.0090 -0.2228
  114OSM    H4S11796  -0.219   0.723   7.724  1.2195  1.4155 -1.1195
  114OSM    C5S11797  -0.414   0.810   7.703 -0.4000 -0.4409  0.0712
  114OSM    H5S11798  -0.479   0.878   7.760  0.5564 -0.8208  1.6912
  114OSM    C6S11799  -0.468   0.745   7.585 -0.2209  0.4325 -0.2507
  114OSM    H6S11800  -0.544   0.823   7.563 -0.3489  0.5502  0.5626
  114OSM    H6T11801  -0.524   0.650   7.597  1.3165 -0.2896  1.6617
  114OSM    C7S11802  -0.367   0.719   7.475 -0.4431 -0.0435  0.6459
  114OSM    H7S11803  -0.284   0.663   7.520  1.2126  0.9366 -1.0189
  114OSM    H7T11804  -0.320   0.815   7.445  0.1158 -0.8025 -1.0410
  114OSM    C8S11805  -0.441   0.651   7.356 -0.3388 -0.0446 -0.7699
  114OSM    H8S11806  -0.519   0.579   7.391 -0.3519  0.9510  1.4063
  114OSM    H8T11807  -0.373   0.594   7.290  0.8549  1.1748 -0.6111
  114OSM    C9S11808  -0.492   0.762   7.259 -0.0905  0.3876 -0.6954
  114OSM    H9S11809  -0.414   0.829   7.216 -0.2953  0.4773 -0.9292
  114OSM    H9T11810  -0.566   0.838   7.292 -1.0939 -1.5708  1.7800
  114OSM   C10S11811  -0.556   0.694   7.137  0.4834 -0.2238 -0.4936
  114OSM   H10S11812  -0.651   0.653   7.177  0.8397  0.6962  1.4088
  114OSM   H10T11813  -0.481   0.619   7.104  0.4436 -1.8886  2.7657
  114OSM   C11S11814  -0.608   0.797   7.039  0.2286 -0.1923 -0.3837
  114OSM   H11S11815  -0.517   0.853   7.008  0.7833 -0.3351  0.9309
  114OSM   H11T11816  -0.678   0.875   7.076  0.4101 -0.1935 -0.0363
  114OSM   C12S11817  -0.675   0.746   6.913 -0.7499  0.3212 -0.3603
  114OSM   H12S11818  -0.762   0.684   6.946  1.0563 -2.4822 -0.4746
  114OSM   H12T11819  -0.605   0.678   6.861  0.0364 -1.2114  2.4487
  114OSM   C13S11820  -0.717   0.855   6.812  0.9142  0.1118 -0.4269
  114OSM   H13S11821  -0.634   0.916   6.770  0.8944 -0.6060 -1.5657
  114OSM   H13T11822  -0.780   0.933   6.859  0.5291 -0.1231 -0.5400
  114OSM   C14S11823  -0.784   0.805   6.684 -0.3759  0.1176  0.0900
  114OSM   H14S11824  -0.796   0.697   6.707 -2.2547  0.6248  1.7676
  114OSM   H14T11825  -0.732   0.816   6.587  2.2074 -0.8058  1.2752
  114OSM   C15S11826  -0.928   0.861   6.674 -1.0428 -0.5941  0.1579
  114OSM   H15S11827  -0.920   0.971   6.664 -0.4479 -0.2217  3.3944
  114OSM   H15T11828  -0.979   0.846   6.772 -1.3012 -0.0444  0.1117
  114OSM   C16S11829  -0.996   0.775   6.562 -0.0592 -0.8084 -0.7593
  114OSM   H16S11830  -1.017   0.672   6.599  0.1263 -0.6624 -0.2307
  114OSM   H16T11831  -0.930   0.778   6.473  0.0033 -1.3744 -0.7372
  114OSM   C17S11832  -1.130   0.826   6.506  0.3099 -0.1602 -0.0966
  114OSM   H17S11833  -1.124   0.921   6.450 -2.5762 -0.9140 -1.9021
  114OSM   H17T11834  -1.198   0.842   6.592 -0.4260 -0.9485 -0.5126
  114OSM   C18S11835  -1.203   0.717   6.422  0.6058 -1.1996 -0.0157
  114OSM   H18S11836  -1.198   0.634   6.496 -2.5120  0.3167  2.1815
  114OSM   H18T11837  -1.153   0.698   6.325 -0.0468 -0.4735 -0.5079
  114OSM   H18U11838  -1.312   0.728   6.403  0.2766 -4.0586 -0.2783
  114OSM    C1F11839   0.059   0.949   7.644  0.0396 -0.7096 -0.1216
  114OSM     OF11840   0.156   0.901   7.699  0.2992 -0.1532 -0.3637
  114OSM    C2F11841   0.072   1.008   7.509  0.0874  0.5265  0.0679
  114OSM    H2F11842   0.040   1.113   7.519 -1.0895  0.2819 -0.8227
  114OSM    H2G11843   0.009   0.956   7.433  1.5574 -1.2175 -0.0465
  114OSM    C3F11844   0.220   1.013   7.451  0.1425 -0.0475  0.3437
  114OSM    H3F11845   0.254   0.921   7.399 -0.1936  0.4760 -0.8315
  114OSM    H3G11846   0.284   1.037   7.540  0.0277  1.4288  0.0589
  114OSM    C4F11847   0.230   1.124   7.349 -0.0606 -0.3103 -0.8009
  114OSM    H4F11848   0.336   1.136   7.317 -0.6411  1.4438 -2.2436
  114OSM    H4G11849   0.193   1.222   7.386  0.8649  0.0916 -0.9011
  114OSM    C5F11850   0.161   1.094   7.213  0.1671  0.3389 -0.2409
  114OSM    H5F11851   0.052   1.113   7.228  0.1662  1.3013 -1.3280
  114OSM    H5G11852   0.176   0.990   7.178 -0.3594 -0.6868  2.3348
  114OSM    C6F11853   0.211   1.191   7.111 -0.1632 -0.3961 -0.1727
  114OSM    H6F11854   0.151   1.172   7.019  0.7187 -1.2789 -0.5797
  114OSM    H6G11855   0.317   1.179   7.080  1.0319  2.5039  2.2851
  114OSM    C7F11856   0.195   1.335   7.143 -0.3856 -0.5137  0.2040
  114OSM    H7F11857   0.251   1.353   7.237 -0.8398 -0.2028  0.4196
  114OSM    H7G11858   0.086   1.357   7.151 -0.7081 -0.5714 -2.7617
  114OSM    C8F11859   0.272   1.426   7.041 -0.1149  0.2809  0.5432
  114OSM    H8F11860   0.378   1.390   7.041 -0.6440 -1.4615 -1.0043
  114OSM    H8G11861   0.283   1.531   7.073 -0.2707 -0.0698  1.7849
  114OSM    C9F11862   0.210   1.430   6.902 -0.5800  0.5125 -0.3979
  114OSM    H9F11863   0.113   1.483   6.904 -0.1055  1.3987  1.6873
  114OSM   C10F11864   0.253   1.359   6.795 -0.6711 -0.0248  0.2908
  114OSM   H10F11865   0.209   1.361   6.694  3.0461  2.0059 -1.5177
  114OSM   C11F11866   0.382   1.276   6.800 -0.3775 -0.6971  0.3260
  114OSM   H11F11867   0.392   1.205   6.716 -0.0578  0.8370 -0.9849
  114OSM   H11G11868   0.382   1.211   6.890  0.1815 -0.8455  0.2203
  114OSM   C12F11869   0.496   1.374   6.796  0.6859 -0.2887  0.3345
  114OSM   H12F11870   0.484   1.446   6.879 -0.2795 -0.5389  0.4340
  114OSM   H12G11871   0.494   1.428   6.699  0.1185  0.8278  0.9580
  114OSM   C13F11872   0.628   1.302   6.825 -0.4783  0.1627  0.8297
  114OSM   H13F11873   0.719   1.356   6.794 -0.2438 -1.4265 -1.5575
  114OSM   H13G11874   0.635   1.205   6.770 -0.1782  0.3410  0.5538
  114OSM   C14F11875   0.657   1.253   6.971  0.0859  0.0065 -0.1160
  114OSM   H14F11876   0.582   1.175   6.997 -0.0689  0.6110  1.3383
  114OSM   H14G11877   0.637   1.336   7.042 -1.0622 -1.4127  1.2775
  114OSM   C15F11878   0.798   1.202   6.998  0.4310 -0.6976  0.3557
  114OSM   H15F11879   0.849   1.299   6.980 -1.6679  0.7234  1.6241
  114OSM   H15G11880   0.837   1.118   6.938 -0.0431 -0.2634 -0.5685
  114OSM   C16F11881   0.814   1.181   7.154 -0.4130  0.0140  0.0654
  114OSM   H16F11882   0.748   1.094   7.179  0.0618 -0.6338 -0.8745
  114OSM   H16G11883   0.780   1.267   7.214  1.5434 -0.9703  2.7917
  114OSM   C17F11884   0.958   1.158   7.187  0.2601 -0.0752 -0.0234
  114OSM   H17F11885   1.010   1.108   7.103 -0.1784  2.2808 -1.8122
  114OSM   H17G11886   0.951   1.096   7.279  1.6705  2.4529  1.9047
  114OSM   C18F11887   1.041   1.284   7.220  0.3989  0.3507  0.1683
  114OSM   H18F11888   1.015   1.359   7.142 -0.8571  0.7861  0.9841
  114OSM   H18G11889   1.149   1.260   7.219  0.4276  0.4833 -0.3054
  114OSM   H18H11890   1.005   1.326   7.316  0.1648  2.5230 -0.8223
  115OSM      N11891   0.808   3.604   8.018  0.1471  0.9367  0.1245
  115OSM    C1511892   0.746   3.492   7.941 -0.1785  0.0891  0.6504
  115OSM   H15A11893   0.639   3.489   7.957  0.0385 -0.3721  2.1522
  115OSM   H15B11894   0.778   3.393   7.970  1.5318  0.1844 -0.7813
  115OSM   H15C11895   0.772   3.510   7.838 -0.3423  0.7015  0.7148
  115OSM    C1411896   0.760   3.603   8.164  0.0399  0.9546  0.3360
  115OSM   H14A11897   0.771   3.509   8.218 -0.2975  0.4150 -0.5213
  115OSM   H14B11898   0.657   3.635   8.167  0.1138  1.2128  0.1109
  115OSM   H14C11899   0.814   3.680   8.218  1.9734  0.5912 -0.9764
  115OSM    C1311900   0.956   3.585   8.023  0.6640 -0.0203  0.0324
  115OSM   H13A11901   0.997   3.495   8.066  3.3220  0.2862 -1.6600
  115OSM   H13B11902   1.005   3.654   8.091 -0.1727 -1.0274  1.7314
  115OSM   H13C11903   1.000   3.594   7.925  1.1505  1.8234  0.3688
  115OSM    C1211904   0.766   3.746   7.964  0.3758  0.3300 -0.1825
  115OSM   H12A11905   0.658   3.753   7.964  0.4336  1.4801 -0.7584
  115OSM   H12B11906   0.792   3.736   7.859 -1.7478 -0.7508 -0.6521
  115OSM    C1111907   0.825   3.875   8.028 -0.1695  0.0361 -0.5046
  115OSM   H11A11908   0.821   3.877   8.139  0.4274  2.9264 -0.4515
  115OSM   H11B11909   0.760   3.958   7.993  0.2691  1.2185  1.3494
  115OSM      P11910   0.990   3.950   7.844 -0.2754  0.2761  0.2465
  115OSM    O1311911   0.945   4.093   7.838  0.3434  0.2196  0.6360
  115OSM    O1411912   1.131   3.927   7.801  0.1521 -0.3773  0.0518
  115OSM    O1111913   0.901   3.866   7.746  0.0271 -0.2590 -0.5268
  115OSM    O1211914   0.967   3.897   7.991  0.0460  0.4260  0.2711
  115OSM    C1S11915   0.951   3.744   7.689 -0.2977 -0.0270  0.0423
  115OSM    H1S11916   0.904   3.663   7.750  0.1497  0.0836  0.5372
  115OSM    H1T11917   1.060   3.734   7.702 -0.3955  0.1949  1.1612
  115OSM     NF11918   0.923   3.579   7.493 -0.0627 -0.5142  0.3140
  115OSM    HNF11919   0.996   3.555   7.430  0.3934  1.8471 -0.1788
  115OSM    C2S11920   0.900   3.715   7.545 -0.0865  0.0234  0.6917
  115OSM    H2S11921   0.790   3.729   7.550 -0.2907 -0.9320 -0.7280
  115OSM    C3S11922   0.959   3.822   7.449  0.0534  0.0121 -0.4651
  115OSM    H3S11923   1.069   3.814   7.461  0.0542 -1.8330 -1.4166
  115OSM     O311924   0.909   3.954   7.490 -0.3984  0.5186  0.0981
  115OSM    HO311925   0.882   3.936   7.580 -0.7028  0.0175 -0.0900
  115OSM    C4S11926   0.907   3.804   7.313 -0.5742  0.3994  0.0765
  115OSM    H4S11927   0.798   3.811   7.306 -0.5713  0.3557 -0.0272
  115OSM    C5S11928   0.981   3.778   7.200 -0.0408  0.2109 -0.3422
  115OSM    H5S11929   1.091   3.776   7.207 -0.0101  1.1699 -0.4622
  115OSM    C6S11930   0.918   3.757   7.061  0.4244 -0.4394 -0.5924
  115OSM    H6S11931   0.903   3.861   7.024  3.4812  0.3305  0.0813
  115OSM    H6T11932   0.819   3.707   7.066 -0.4555  1.2385 -0.4906
  115OSM    C7S11933   1.011   3.692   6.957 -0.1624 -0.0676  0.0036
  115OSM    H7S11934   1.046   3.593   6.993  1.8167  0.3688 -0.5814
  115OSM    H7T11935   1.108   3.745   6.944 -0.1555  0.1334  0.7840
  115OSM    C8S11936   0.955   3.678   6.812 -0.0084 -0.7013  0.8112
  115OSM    H8S11937   0.921   3.780   6.783  1.6723 -0.6772 -1.3869
  115OSM    H8T11938   0.865   3.613   6.824  0.0188 -1.2730 -1.4513
  115OSM    C9S11939   1.053   3.622   6.713  0.4446  0.2690  0.0680
  115OSM    H9S11940   1.094   3.526   6.750 -1.7411 -0.8346 -0.1866
  115OSM    H9T11941   1.142   3.687   6.698 -0.3592  1.2259 -0.7643
  115OSM   C10S11942   0.993   3.609   6.571 -0.3468  0.0338 -0.6803
  115OSM   H10S11943   0.930   3.699   6.554 -1.3275 -0.6627 -0.8398
  115OSM   H10T11944   0.918   3.527   6.571 -2.3510  1.7146  1.4484
  115OSM   C11S11945   1.103   3.592   6.461  0.2264  0.6203  0.2039
  115OSM   H11S11946   1.155   3.498   6.490 -2.6339 -0.9547  0.5350
  115OSM   H11T11947   1.169   3.682   6.464 -0.5105  1.1484  1.0586
  115OSM   C12S11948   1.049   3.564   6.315 -0.4337 -0.2109 -0.4905
  115OSM   H12S11949   0.987   3.652   6.288  2.1450  2.2985  1.2010
  115OSM   H12T11950   0.988   3.471   6.319  1.7245 -1.8020 -2.4178
  115OSM   C13S11951   1.155   3.559   6.210  0.1188 -0.0676  0.2976
  115OSM   H13S11952   1.230   3.485   6.245 -0.9126 -1.5626 -0.5374
  115OSM   H13T11953   1.189   3.661   6.183 -0.7722 -0.4351 -2.5757
  115OSM   C14S11954   1.099   3.513   6.073 -0.4592 -0.7273  0.0690
  115OSM   H14S11955   1.027   3.583   6.025 -0.1900 -0.6370 -0.2116
  115OSM   H14T11956   1.035   3.427   6.099  0.8602 -1.2163  1.8942
  115OSM   C15S11957   1.204   3.472   5.972  0.5593  0.5507  0.3483
  115OSM   H15S11958   1.272   3.402   6.026 -2.0961 -1.4799  1.3203
  115OSM   H15T11959   1.261   3.552   5.920  1.6861 -0.6240 -0.2989
  115OSM   C16S11960   1.147   3.387   5.859 -0.5734  0.0567  0.0099
  115OSM   H16S11961   1.244   3.356   5.815 -0.6808 -2.6232  1.4453
  115OSM   H16T11962   1.084   3.439   5.784 -2.4523  1.1928  2.2254
  115OSM   C17S11963   1.084   3.245   5.893  0.2199  0.1805  0.4269
  115OSM   H17S11964   0.984   3.273   5.932 -0.8118 -0.3629 -1.6560
  115OSM   H17T11965   1.147   3.197   5.971 -1.8759 -1.4846  1.2076
  115OSM   C18S11966   1.077   3.156   5.768 -0.5631  0.5363  0.5753
  115OSM   H18S11967   1.004   3.192   5.693 -2.5221  1.2916  2.7323
  115OSM   H18T11968   1.054   3.051   5.795 -1.7679  0.8743  0.8957
  115OSM   H18U11969   1.181   3.154   5.727  0.1890 -1.5105  2.4255
  115OSM    C1F11970   0.866   3.472   7.540  0.2286 -0.2987  0.5967
  115OSM     OF11971   0.786   3.476   7.628  0.3779 -0.2941  0.3666
  115OSM    C2F11972   0.910   3.343   7.469  0.7840  0.2347  0.9971
  115OSM    H2F11973   0.939   3.369   7.365 -0.6295  0.3791  0.6259
  115OSM    H2G11974   0.817   3.282   7.468  0.6216  0.4788  1.1900
  115OSM    C3F11975   1.004   3.265   7.556 -0.3132 -0.6443 -0.5525
  115OSM    H3F11976   0.968   3.242   7.659 -1.2758  0.0537 -0.7215
  115OSM    H3G11977   1.095   3.327   7.570 -1.1390  0.3216  0.8017
  115OSM    C4F11978   1.053   3.125   7.501 -0.4459 -0.5621  0.3322
  115OSM    H4F11979   0.960   3.067   7.478 -1.0339  0.3812  0.2877
  115OSM    H4G11980   1.115   3.070   7.574  2.2410 -0.2228 -1.5672
  115OSM    C5F11981   1.135   3.149   7.369  0.6637  0.0417  0.0536
  115OSM    H5F11982   1.217   3.218   7.399  2.0670 -1.4686 -0.1775
  115OSM    H5G11983   1.072   3.208   7.299 -0.0674  1.1287  1.5845
  115OSM    C6F11984   1.192   3.025   7.301 -0.1372  0.3374  0.5977
  115OSM    H6F11985   1.115   2.945   7.290  0.5210 -0.4228  1.3186
  115OSM    H6G11986   1.274   2.964   7.346 -0.3886 -0.1240  0.4388
  115OSM    C7F11987   1.255   3.056   7.160  0.2410 -0.6426 -0.9387
  115OSM    H7F11988   1.337   2.984   7.140 -0.3688 -1.3652 -0.8829
  115OSM    H7G11989   1.287   3.162   7.168 -3.1597  0.4495 -0.0632
  115OSM    C8F11990   1.152   3.052   7.049  0.3873 -0.3944  0.1305
  115OSM    H8F11991   1.191   3.117   6.968 -1.2089 -0.3114 -0.6185
  115OSM    H8G11992   1.059   3.095   7.092  1.2400 -0.1040  1.7690
  115OSM    C9F11993   1.121   2.915   6.992  0.5350 -0.0253  0.1590
  115OSM    H9F11994   1.020   2.874   7.013  0.5507 -0.4495 -0.5667
  115OSM   C10F11995   1.205   2.847   6.913 -0.2514 -0.2590  0.4571
  115OSM   H10F11996   1.175   2.751   6.867 -0.8603 -0.1129  0.5444
  115OSM   C11F11997   1.338   2.899   6.863  0.5863  0.1990 -0.2731
  115OSM   H11F11998   1.416   2.822   6.881  0.1139  0.0961  1.5193
  115OSM   H11G11999   1.369   2.987   6.924 -0.5424  0.1526  0.3880
  115OSM   C12F12000   1.347   2.929   6.717  0.0105 -0.0446 -0.2427
  115OSM   H12F12001   1.450   2.950   6.682  0.9778  1.0920  2.8948
  115OSM   H12G12002   1.279   3.012   6.687  0.9387  2.2219  3.2559
  115OSM   C13F12003   1.303   2.812   6.619  0.1389  0.8271 -0.0551
  115OSM   H13F12004   1.193   2.795   6.626  0.5557 -2.0106  0.8493
  115OSM   H13G12005   1.359   2.725   6.658  1.1524  0.5378 -2.0377
  115OSM   C14F12006   1.346   2.840   6.469 -0.0737  0.3718 -0.6189
  115OSM   H14F12007   1.452   2.872   6.469 -0.6715  2.4628  0.4779
  115OSM   H14G12008   1.299   2.929   6.423  1.5006  0.6203 -1.8634
  115OSM   C15F12009   1.332   2.712   6.386  0.2413 -0.7679  0.0054
  115OSM   H15F12010   1.222   2.693   6.385  0.2794 -1.0451  0.7752
  115OSM   H15G12011   1.380   2.631   6.444 -1.0493  0.5627  3.1628
  115OSM   C16F12012   1.376   2.727   6.245 -0.0542 -0.4777  0.8273
  115OSM   H16F12013   1.483   2.754   6.229 -0.9042  2.5134 -0.4837
  115OSM   H16G12014   1.316   2.812   6.206 -1.1237 -0.3119  2.7252
  115OSM   C17F12015   1.349   2.618   6.156 -0.5202 -0.2474  0.8001
  115OSM   H17F12016   1.248   2.573   6.171 -1.1175  0.4456 -0.8685
  115OSM   H17G12017   1.422   2.536   6.173  0.8359  0.3201 -1.6497
  115OSM   C18F12018   1.384   2.659   6.009 -0.2319 -0.0543  0.2299
  115OSM   H18F12019   1.378   2.568   5.947  0.6799 -0.0769  0.1710
  115OSM   H18G12020   1.486   2.700   5.992 -0.3519 -0.3647 -1.3432
  115OSM   H18H12021   1.317   2.733   5.960  0.8850  0.1810 -0.9826
  116OSM      N12022   3.302   1.815   8.183 -0.0592  0.6663 -0.1260
  116OSM    C1512023   3.329   1.926   8.085  0.1560 -0.0004 -0.6036
  116OSM   H15A12024   3.261   2.006   8.114 -0.0928 -0.0366 -1.0748
  116OSM   H15B12025   3.292   1.894   7.989  0.8582  0.5946 -1.0825
  116OSM   H15C12026   3.434   1.951   8.083  0.5575 -1.6161 -0.6871
  116OSM    C1412027   3.317   1.872   8.323  0.1319 -0.3058  0.2757
  116OSM   H14A12028   3.416   1.902   8.354  0.6666 -0.0854 -1.5334
  116OSM   H14B12029   3.285   1.799   8.396  0.1225 -0.2585  0.3178
  116OSM   H14C12030   3.263   1.963   8.343  0.9262  0.1071  0.6182
  116OSM    C1312031   3.159   1.766   8.173  0.6946 -0.0586 -0.0500
  116OSM   H13A12032   3.135   1.731   8.073 -0.3290  1.4456 -0.3582
  116OSM   H13B12033   3.088   1.844   8.195  1.1860  0.2808  0.3425
  116OSM   H13C12034   3.140   1.678   8.233  0.7816  0.4220  0.6863
  116OSM    C1212035   3.411   1.708   8.166  0.3385 -0.1236  0.4509
  116OSM   H12A12036   3.399   1.630   8.240 -0.2900 -2.6838 -2.1524
  116OSM   H12B12037   3.509   1.750   8.185  0.0902  1.2212 -1.0447
  116OSM    C1112038   3.420   1.640   8.028 -0.0474  0.2453  0.5179
  116OSM   H11A12039   3.515   1.583   8.017  0.5222  1.4925 -1.7664
  116OSM   H11B12040   3.423   1.715   7.946 -0.4197 -0.0904  0.1939
  116OSM      P12041   3.254   1.425   8.046  0.1121  0.1027 -0.5997
  116OSM    O1312042   3.347   1.374   8.149 -0.2674 -0.1215  0.4275
  116OSM    O1412043   3.111   1.425   8.079 -0.0645  0.2692  0.0816
  116OSM    O1112044   3.277   1.326   7.921  0.3937  0.1391 -0.2053
  116OSM    O1212045   3.301   1.560   7.999  0.0014 -0.2317 -0.0259
  116OSM    C1S12046   3.176   1.307   7.824  0.2278  0.4779 -0.0907
  116OSM    H1S12047   3.123   1.401   7.796 -1.8852  0.0047  2.0157
  116OSM    H1T12048   3.107   1.229   7.862  2.1305 -0.9338  0.6039
  116OSM     NF12049   3.137   1.229   7.584  0.8216 -0.0842 -0.5030
  116OSM    HNF12050   3.109   1.136   7.562  0.6938 -0.2445  0.3108
  116OSM    C2S12051   3.232   1.243   7.695  0.5836 -0.0813  0.1812
  116OSM    H2S12052   3.313   1.311   7.659 -0.2609  1.1602  0.5424
  116OSM    C3S12053   3.311   1.110   7.725 -0.0788  0.0390 -0.2434
  116OSM    H3S12054   3.241   1.030   7.757 -0.1826 -0.3195 -1.3089
  116OSM     O312055   3.398   1.105   7.839 -0.8048  0.9903  0.2711
  116OSM    HO312056   3.382   1.187   7.885  1.3640  0.7170  1.6272
  116OSM    C4S12057   3.383   1.062   7.596  0.0860 -0.1436 -0.0756
  116OSM    H4S12058   3.480   1.112   7.592  0.8475 -1.3868  1.6636
  116OSM    C5S12059   3.352   0.956   7.511  0.3202  0.1829 -0.0210
  116OSM    H5S12060   3.273   0.885   7.540  0.9788  0.2291  2.0169
  116OSM    C6S12061   3.440   0.915   7.399 -0.9589  0.7080  0.2330
  116OSM    H6S12062   3.430   0.808   7.372  0.0903 -0.4477  3.8382
  116OSM    H6T12063   3.544   0.915   7.438 -0.9405 -3.5344  0.6367
  116OSM    C7S12064   3.421   1.000   7.272 -0.2845  0.7843 -0.3421
  116OSM    H7S12065   3.496   0.975   7.193 -0.4751  0.1579 -0.3364
  116OSM    H7T12066   3.424   1.106   7.304  3.8496  1.0822 -1.2167
  116OSM    C8S12067   3.291   0.968   7.196 -0.0254 -0.0544  0.3246
  116OSM    H8S12068   3.208   1.023   7.245 -0.1154  1.1975 -1.1757
  116OSM    H8T12069   3.259   0.862   7.191 -2.4135  0.6511 -0.7689
  116OSM    C9S12070   3.293   1.019   7.053 -0.3531 -0.4642 -0.3536
  116OSM    H9S12071   3.368   0.957   7.000 -0.5363 -0.8658 -0.1505
  116OSM    H9T12072   3.326   1.124   7.064  1.6090 -0.9318 -1.4253
  116OSM   C10S12073   3.155   1.033   6.981 -0.8949 -0.2745  0.0760
  116OSM   H10S12074   3.085   1.098   7.039 -1.1315 -0.5704  0.1252
  116OSM   H10T12075   3.110   0.932   6.971 -1.2091 -0.1246 -0.0632
  116OSM   C11S12076   3.162   1.100   6.842 -0.1147  0.0732  0.0138
  116OSM   H11S12077   3.218   1.196   6.852 -2.1563  1.1515  2.0977
  116OSM   H11T12078   3.058   1.116   6.805 -0.8653  0.4956  2.1691
  116OSM   C12S12079   3.233   1.018   6.737  0.2937 -0.3872 -0.3315
  116OSM   H12S12080   3.185   0.919   6.724  1.0527 -0.7470 -0.4175
  116OSM   H12T12081   3.332   0.985   6.774  0.1051 -0.3775  0.1965
  116OSM   C13S12082   3.241   1.084   6.599 -0.0991 -0.2024 -0.2615
  116OSM   H13S12083   3.297   1.178   6.581 -1.0973  0.9978  2.4584
  116OSM   H13T12084   3.141   1.098   6.554 -1.9922 -3.0767  2.5961
  116OSM   C14S12085   3.315   0.976   6.514  0.8246  0.8334 -0.5119
  116OSM   H14S12086   3.257   0.881   6.518  1.0644  0.6731  3.4030
  116OSM   H14T12087   3.418   0.959   6.551  0.1620 -1.8462  0.3056
  116OSM   C15S12088   3.341   1.009   6.373 -0.3002  0.3496  0.2546
  116OSM   H15S12089   3.386   1.109   6.354  0.7029  0.1827  1.6321
  116OSM   H15T12090   3.246   1.017   6.316 -0.1021  1.1288  0.0143
  116OSM   C16S12091   3.437   0.895   6.313  0.4220  0.1299 -0.2615
  116OSM   H16S12092   3.385   0.797   6.317  1.2869 -0.4102 -1.5403
  116OSM   H16T12093   3.532   0.893   6.371  0.8455  0.1278 -0.9518
  116OSM   C17S12094   3.472   0.935   6.165 -0.7230  0.4149 -0.0940
  116OSM   H17S12095   3.514   1.038   6.167 -0.8207  0.4756 -0.7726
  116OSM   H17T12096   3.379   0.954   6.107 -1.0797  0.8743  0.6101
  116OSM   C18S12097   3.562   0.840   6.092 -0.4636 -0.6731 -0.4549
  116OSM   H18S12098   3.596   0.894   6.001  0.1584  1.2645  0.8516
  116OSM   H18T12099   3.521   0.741   6.063  0.5556 -1.3760  0.3795
  116OSM   H18U12100   3.645   0.830   6.166  1.1027  1.0149 -1.8701
  116OSM    C1F12101   3.064   1.333   7.528  0.1602 -0.0010 -0.3347
  116OSM     OF12102   3.048   1.445   7.578  0.2252 -0.1335 -0.1244
  116OSM    C2F12103   3.008   1.298   7.401 -0.2125 -0.5198  0.7177
  116OSM    H2F12104   2.994   1.188   7.386  0.1018 -0.1763 -2.7129
  116OSM    H2G12105   3.083   1.330   7.326 -1.0116 -1.0144 -0.3041
  116OSM    C3F12106   2.882   1.382   7.365 -0.3834 -0.3783 -0.1757
  116OSM    H3F12107   2.914   1.488   7.358  0.0556 -0.3864  1.2769
  116OSM    H3G12108   2.800   1.364   7.439 -0.7643 -2.3538 -1.0168
  116OSM    C4F12109   2.816   1.336   7.233  0.7650 -0.4156  0.5440
  116OSM    H4F12110   2.724   1.399   7.233  0.5935 -0.6698 -0.0833
  116OSM    H4G12111   2.794   1.228   7.244 -0.3516 -0.1224  1.3965
  116OSM    C5F12112   2.898   1.368   7.108 -0.3036  0.1680 -0.3419
  116OSM    H5F12113   3.007   1.359   7.127  0.0683  2.8501 -0.8000
  116OSM    H5G12114   2.903   1.475   7.079  1.5080  0.1811 -0.1045
  116OSM    C6F12115   2.854   1.287   6.986  0.7529  0.1890 -0.7203
  116OSM    H6F12116   2.845   1.185   7.030 -2.7844  0.8763  0.5142
  116OSM    H6G12117   2.920   1.290   6.896 -1.3959  0.9647 -2.3517
  116OSM    C7F12118   2.708   1.334   6.947 -0.1835  0.3206 -0.2075
  116OSM    H7F12119   2.656   1.351   7.044  2.4015  0.6334  1.2162
  116OSM    H7G12120   2.661   1.244   6.902  0.7614  0.6060 -1.8587
  116OSM    C8F12121   2.700   1.456   6.864 -0.8906  0.1443  0.6118
  116OSM    H8F12122   2.760   1.536   6.912  0.6846 -1.1626  0.8777
  116OSM    H8G12123   2.600   1.500   6.844 -1.1932 -1.5092 -1.9287
  116OSM    C9F12124   2.761   1.422   6.724  0.3252 -0.1005 -0.5491
  116OSM    H9F12125   2.870   1.404   6.724  0.5673  0.8527  2.2141
  116OSM   C10F12126   2.696   1.421   6.600  0.1954 -0.3087  0.5451
  116OSM   H10F12127   2.750   1.393   6.508 -2.7739  0.4400 -1.6044
  116OSM   C11F12128   2.548   1.433   6.565 -0.0608 -0.1763  0.3683
  116OSM   H11F12129   2.498   1.490   6.645  0.2176 -0.6583  0.8910
  116OSM   H11G12130   2.514   1.328   6.575  0.6011 -0.2691  1.9504
  116OSM   C12F12131   2.531   1.487   6.422  0.4370 -0.4885 -0.3458
  116OSM   H12F12132   2.609   1.565   6.411  0.4579  0.0849  2.8819
  116OSM   H12G12133   2.430   1.531   6.412 -0.6717 -2.3385  1.6818
  116OSM   C13F12134   2.542   1.392   6.305 -0.4806  0.5409  1.1606
  116OSM   H13F12135   2.469   1.308   6.302  1.1380 -0.8925  0.9979
  116OSM   H13G12136   2.642   1.347   6.315 -1.1455 -2.3756 -3.0066
  116OSM   C14F12137   2.538   1.480   6.174  0.3924  0.8427  0.3305
  116OSM   H14F12138   2.628   1.546   6.169  2.0988 -1.3732 -0.0279
  116OSM   H14G12139   2.442   1.534   6.167 -0.6474 -0.9976 -0.3144
  116OSM   C15F12140   2.543   1.386   6.052 -0.3098 -0.5145  0.2312
  116OSM   H15F12141   2.550   1.446   5.959  0.4499 -2.2113 -0.8579
  116OSM   H15G12142   2.456   1.317   6.054 -0.4253 -0.5484 -2.4387
  116OSM   C16F12143   2.671   1.298   6.055 -0.3117  0.8878 -0.3025
  116OSM   H16F12144   2.645   1.208   6.116  1.3918 -1.5947 -2.9637
  116OSM   H16G12145   2.757   1.355   6.097  0.8278  0.5564 -2.0606
  116OSM   C17F12146   2.711   1.252   5.911  0.4180 -0.1866  0.9204
  116OSM   H17F12147   2.818   1.225   5.924  1.0203  2.2394  1.5183
  116OSM   H17G12148   2.705   1.341   5.845 -0.9734 -0.7451  0.2476
  116OSM   C18F12149   2.626   1.138   5.850 -0.1764 -0.3146 -0.3032
  116OSM   H18F12150   2.608   1.060   5.927 -1.1747  1.7780  1.7028
  116OSM   H18G12151   2.672   1.106   5.754  0.5946 -1.3043  0.3835
  116OSM   H18H12152   2.529   1.177   5.812  0.9024  1.6500 -1.1905
  117OSM      N12153   1.118   4.592   7.918  0.3682 -0.3539  0.5479
  117OSM    C1512154   1.176   4.689   7.824 -0.9172  0.2479 -0.4076
  117OSM   H15A12155   1.159   4.788   7.863 -0.7864  0.1291 -0.0435
  117OSM   H15B12156   1.133   4.688   7.725 -1.2794 -0.2323 -0.2488
  117OSM   H15C12157   1.284   4.678   7.818 -0.7625 -1.1224  2.6461
  117OSM    C1412158   0.972   4.636   7.938 -0.0589 -0.6180  0.9069
  117OSM   H14A12159   0.966   4.723   8.002 -1.8440 -0.4869  0.6282
  117OSM   H14B12160   0.915   4.568   7.999  0.4763 -0.8345  1.1673
  117OSM   H14C12161   0.928   4.655   7.841  1.1549  1.1328  0.6452
  117OSM    C1312162   1.132   4.453   7.858 -0.3070  0.1328  0.1719
  117OSM   H13A12163   1.236   4.426   7.855 -0.1752  0.4125  1.7082
  117OSM   H13B12164   1.108   4.458   7.752  3.3416  0.6799 -0.7815
  117OSM   H13C12165   1.075   4.379   7.912 -0.2670 -0.1122 -0.1117
  117OSM    C1212166   1.192   4.591   8.054  0.4185 -0.6151  0.4552
  117OSM   H12A12167   1.133   4.533   8.123 -0.6988 -0.7895 -0.6135
  117OSM   H12B12168   1.188   4.694   8.087  2.4808  0.7067 -2.8326
  117OSM    C1112169   1.337   4.537   8.049  0.5230 -0.6363  0.2823
  117OSM   H11A12170   1.357   4.439   8.002  2.6088  0.0512 -0.3627
  117OSM   H11B12171   1.366   4.540   8.156 -1.1513  1.1416  0.7538
  117OSM      P12172   1.570   4.580   7.948 -0.0128  0.5288 -0.3299
  117OSM    O1312173   1.647   4.691   7.888  0.4283 -0.7398  1.2557
  117OSM    O1412174   1.631   4.536   8.077  0.5795 -0.2951  0.6510
  117OSM    O1112175   1.563   4.461   7.844  0.2045  0.2174 -0.4384
  117OSM    O1212176   1.425   4.630   7.978 -0.0641  0.9602 -0.3904
  117OSM    C1S12177   1.512   4.489   7.713  0.0418  0.0637 -0.2293
  117OSM    H1S12178   1.575   4.565   7.662 -1.2340  2.1728  1.1829
  117OSM    H1T12179   1.411   4.534   7.730  0.3660  0.3909  0.9295
  117OSM     NF12180   1.506   4.422   7.475  0.4020 -0.1907 -0.5212
  117OSM    HNF12181   1.413   4.421   7.439  1.2098 -1.8659 -2.7942
  117OSM    C2S12182   1.512   4.371   7.615  0.7093 -0.2546  0.0534
  117OSM    H2S12183   1.614   4.330   7.629 -0.1042 -1.8245  1.8013
  117OSM    C3S12184   1.408   4.268   7.649  0.2406 -0.3820 -0.4183
  117OSM    H3S12185   1.309   4.317   7.641 -0.6168 -1.5204  2.2303
  117OSM     O312186   1.417   4.222   7.785 -0.7716 -0.4929  0.8326
  117OSM    HO312187   1.486   4.283   7.813  0.6433 -0.0474 -2.9741
  117OSM    C4S12188   1.416   4.158   7.550  0.4448 -0.5174  0.1258
  117OSM    H4S12189   1.326   4.155   7.486  1.0655 -0.2855 -0.7791
  117OSM    C5S12190   1.492   4.046   7.552  0.9818 -0.2809  0.3199
  117OSM    H5S12191   1.543   4.027   7.648 -1.5000  2.4135  2.3215
  117OSM    C6S12192   1.482   3.926   7.458 -0.1356 -0.1631 -0.0507
  117OSM    H6S12193   1.431   3.836   7.501  0.0722 -1.5757 -2.5652
  117OSM    H6T12194   1.588   3.892   7.447 -0.2834 -0.9132  0.6859
  117OSM    C7S12195   1.426   3.961   7.320 -0.0608  0.5531 -0.1194
  117OSM    H7S12196   1.461   4.058   7.276 -0.8308  1.6050  1.4924
  117OSM    H7T12197   1.317   3.976   7.332  0.1239  2.4218 -0.4409
  117OSM    C8S12198   1.449   3.860   7.205  0.4240 -0.2498 -0.4063
  117OSM    H8S12199   1.413   3.759   7.235  1.7273 -0.7750 -0.5074
  117OSM    H8T12200   1.560   3.864   7.205  0.4606 -0.8392 -1.5362
  117OSM    C9S12201   1.387   3.888   7.066  0.3069  0.0507  0.1013
  117OSM    H9S12202   1.412   3.996   7.060  0.6861 -0.0076  0.5777
  117OSM    H9T12203   1.277   3.878   7.053  0.1501 -1.0486  1.9033
  117OSM   C10S12204   1.451   3.805   6.960 -0.2826  0.1723 -0.2679
  117OSM   H10S12205   1.413   3.700   6.963 -0.4141  0.2371  1.9005
  117OSM   H10T12206   1.561   3.793   6.965 -0.2127  0.9771  0.3349
  117OSM   C11S12207   1.407   3.848   6.820 -0.5985  0.9263 -0.0527
  117OSM   H11S12208   1.438   3.954   6.804 -2.3634  1.6765  1.0911
  117OSM   H11T12209   1.296   3.841   6.829 -1.1058  4.6458 -1.7064
  117OSM   C12S12210   1.473   3.754   6.718 -0.3177  0.0963 -0.6256
  117OSM   H12S12211   1.427   3.656   6.745 -2.5208  1.2783  0.1368
  117OSM   H12T12212   1.583   3.749   6.731 -0.1179 -0.5288 -2.2968
  117OSM   C13S12213   1.431   3.785   6.573 -0.1872 -0.4831 -0.7738
  117OSM   H13S12214   1.443   3.893   6.550 -0.5595  0.0005  1.1286
  117OSM   H13T12215   1.321   3.771   6.571 -0.5066  1.3145  0.7794
  117OSM   C14S12216   1.500   3.699   6.475  0.0105 -0.2835  0.5843
  117OSM   H14S12217   1.476   3.593   6.500  1.6520 -0.2880  2.3777
  117OSM   H14T12218   1.608   3.718   6.491 -0.1703  1.3271  0.0682
  117OSM   C15S12219   1.474   3.749   6.333 -0.7171  0.2314  0.3726
  117OSM   H15S12220   1.493   3.857   6.315  0.1548 -0.3467 -2.7197
  117OSM   H15T12221   1.365   3.739   6.320 -0.7524 -0.3506  1.0160
  117OSM   C16S12222   1.526   3.654   6.226  0.2226  0.1494  0.2941
  117OSM   H16S12223   1.449   3.639   6.147 -2.4944 -2.8250  3.1822
  117OSM   H16T12224   1.537   3.553   6.272 -3.1947  0.7123  2.7016
  117OSM   C17S12225   1.660   3.697   6.168 -0.1449  0.2363 -0.2380
  117OSM   H17S12226   1.743   3.690   6.242 -0.7972 -1.2587  0.3927
  117OSM   H17T12227   1.654   3.803   6.133 -0.5480  0.2152 -0.2362
  117OSM   C18S12228   1.697   3.612   6.043  0.6865  1.2737 -0.3005
  117OSM   H18S12229   1.803   3.626   6.013  0.9758 -0.5411 -0.2311
  117OSM   H18T12230   1.624   3.615   5.959  1.1685  0.7842 -0.7420
  117OSM   H18U12231   1.698   3.510   6.086 -0.0579  1.6638  0.6696
  117OSM    C1F12232   1.601   4.490   7.408  0.0783  0.9140 -0.5354
  117OSM     OF12233   1.712   4.494   7.458 -0.2177  0.1270 -0.1984
  117OSM    C2F12234   1.547   4.538   7.278  0.6477 -0.0271  0.4040
  117OSM    H2F12235   1.437   4.558   7.284  0.8060  0.8350  0.5138
  117OSM    H2G12236   1.562   4.448   7.215  0.7645  0.1318  0.2030
  117OSM    C3F12237   1.603   4.660   7.207  0.5930  0.1556  0.5220
  117OSM    H3F12238   1.714   4.666   7.204  0.5998 -0.0040  0.4487
  117OSM    H3G12239   1.575   4.743   7.275 -0.4241  0.8165 -0.6891
  117OSM    C4F12240   1.525   4.673   7.071 -0.0269  0.1330 -0.6097
  117OSM    H4F12241   1.416   4.680   7.090 -0.5895 -2.4749 -2.4475
  117OSM    H4G12242   1.541   4.581   7.012 -1.2885 -0.9445  0.6640
  117OSM    C5F12243   1.569   4.809   7.007  0.1641 -0.0475  0.1037
  117OSM    H5F12244   1.679   4.813   6.986 -0.2715  0.4888 -2.5396
  117OSM    H5G12245   1.542   4.893   7.074 -0.1344  0.9891 -1.2584
  117OSM    C6F12246   1.493   4.845   6.876 -0.0062  0.6689  0.1283
  117OSM    H6F12247   1.524   4.948   6.847 -0.6174  1.2934  1.6314
  117OSM    H6G12248   1.386   4.854   6.902  0.5476 -0.4869  3.1545
  117OSM    C7F12249   1.517   4.753   6.756 -0.5784  0.0349  0.4292
  117OSM    H7F12250   1.488   4.648   6.779 -0.0792 -0.3583 -0.6375
  117OSM    H7G12251   1.626   4.747   6.735 -0.7362 -3.0703 -0.0911
  117OSM    C8F12252   1.446   4.809   6.623 -0.4934  0.2046 -1.0773
  117OSM    H8F12253   1.463   4.742   6.536 -1.0767 -0.8128 -0.4302
  117OSM    H8G12254   1.490   4.909   6.600  0.3745  0.0196 -0.2709
  117OSM    C9F12255   1.301   4.811   6.641  0.7914  0.4657  0.6423
  117OSM    H9F12256   1.264   4.785   6.741 -0.6795 -0.8869 -0.2105
  117OSM   C10F12257   1.214   4.824   6.537 -0.1333  0.2015  0.1083
  117OSM   H10F12258   1.107   4.817   6.563 -0.5079  3.6550  0.0553
  117OSM   C11F12259   1.252   4.851   6.391 -0.1728  0.0758  0.5696
  117OSM   H11F12260   1.356   4.887   6.373 -0.7333  0.3204 -2.9711
  117OSM   H11G12261   1.185   4.932   6.357 -0.8264 -1.6047 -2.5418
  117OSM   C12F12262   1.220   4.752   6.282 -0.1377 -1.0410 -0.6675
  117OSM   H12F12263   1.111   4.733   6.271 -0.5990  0.5481  0.7969
  117OSM   H12G12264   1.255   4.652   6.318  0.9933 -1.7071 -3.3774
  117OSM   C13F12265   1.274   4.788   6.142 -0.5266  0.0553  0.0885
  117OSM   H13F12266   1.376   4.830   6.153 -0.8719  1.4712 -1.7521
  117OSM   H13G12267   1.209   4.856   6.084 -0.2856  0.7724  0.6325
  117OSM   C14F12268   1.292   4.659   6.055  0.1877 -0.3997 -0.8352
  117OSM   H14F12269   1.197   4.604   6.072  0.5289 -1.1948 -1.4033
  117OSM   H14G12270   1.378   4.598   6.092  1.6112  1.0121 -1.6564
  117OSM   C15F12271   1.338   4.684   5.915  0.2898  0.3058  0.1097
  117OSM   H15F12272   1.440   4.722   5.898  0.4973 -0.5723 -0.7031
  117OSM   H15G12273   1.278   4.774   5.891  0.9847  1.1659  1.4844
  117OSM   C16F12274   1.316   4.570   5.824 -0.3930 -0.1536  0.5853
  117OSM   H16F12275   1.373   4.483   5.863  1.4136  1.0669  0.8323
  117OSM   H16G12276   1.378   4.583   5.733  2.1914 -0.5224  2.1953
  117OSM   C17F12277   1.170   4.539   5.791  0.2289 -0.4609 -0.0467
  117OSM   H17F12278   1.136   4.616   5.719  0.6686  0.8909  1.1468
  117OSM   H17G12279   1.101   4.555   5.877  0.4918 -1.4349  0.3584
  117OSM   C18F12280   1.168   4.399   5.732  0.6903 -0.3258  0.2717
  117OSM   H18F12281   1.064   4.391   5.694  0.4165  0.1566  0.8988
  117OSM   H18G12282   1.191   4.326   5.813  0.3606  1.4300  2.0297
  117OSM   H18H12283   1.244   4.394   5.652  0.4116  1.6238 -0.1616
  118OSM      N12284   2.023   1.721   8.466 -0.2402 -0.0271  0.4847
  118OSM    C1512285   1.901   1.788   8.410 -0.7458 -0.1435 -0.0522
  118OSM   H15A12286   1.910   1.781   8.302  0.7752  0.3966  0.0108
  118OSM   H15B12287   1.897   1.895   8.426  0.0601  0.3464 -2.6684
  118OSM   H15C12288   1.809   1.739   8.438 -0.4371  0.3983  2.1224
  118OSM    C1412289   2.150   1.780   8.403 -0.5029  0.5124  0.0441
  118OSM   H14A12290   2.183   1.870   8.453 -0.8917  1.1443 -0.8095
  118OSM   H14B12291   2.140   1.797   8.296  2.4494 -2.0251 -0.7950
  118OSM   H14C12292   2.222   1.700   8.411 -1.3910 -0.3017  0.1240
  118OSM    C1312293   2.031   1.747   8.612  0.4936 -0.8064 -0.0184
  118OSM   H13A12294   2.124   1.709   8.652 -0.4159 -2.2671  0.7787
  118OSM   H13B12295   1.947   1.698   8.659 -2.7446  2.0826 -2.2607
  118OSM   H13C12296   2.031   1.854   8.630 -0.3822 -0.9709  1.0139
  118OSM    C1212297   2.018   1.572   8.434  0.4870  0.4575 -0.8656
  118OSM   H12A12298   1.933   1.532   8.488  0.7662  1.2969  0.2152
  118OSM   H12B12299   2.106   1.520   8.467  0.6311  0.1824 -1.6602
  118OSM    C1112300   2.000   1.532   8.291  0.2619  0.1817  0.4502
  118OSM   H11A12301   2.089   1.548   8.226  1.3907 -0.6421  1.7336
  118OSM   H11B12302   1.921   1.585   8.233  0.1949  1.4296  1.6141
  118OSM      P12303   2.048   1.284   8.257  0.5328  0.4829  0.0726
  118OSM    O1312304   2.185   1.324   8.268  0.5379  0.5380 -0.2219
  118OSM    O1412305   2.005   1.182   8.352  0.1245  0.3092  0.0195
  118OSM    O1112306   2.021   1.245   8.102  0.2628  0.0040  0.6678
  118OSM    O1212307   1.949   1.400   8.288  0.0422 -0.3684 -0.0172
  118OSM    C1S12308   1.888   1.255   8.044  0.1693 -0.1227  0.3411
  118OSM    H1S12309   1.834   1.344   8.082 -1.5801 -1.7465  1.8451
  118OSM    H1T12310   1.825   1.168   8.071 -0.2911  0.3315  0.7337
  118OSM     NF12311   1.755   1.295   7.834  0.5693  0.3745  1.0342
  118OSM    HNF12312   1.722   1.214   7.787  0.1055  1.7934 -1.2681
  118OSM    C2S12313   1.888   1.282   7.889 -0.3573 -0.0036  0.2002
  118OSM    H2S12314   1.930   1.383   7.874  0.2940 -0.2226  0.5040
  118OSM    C3S12315   1.983   1.170   7.823 -0.1100  0.7106  0.8960
  118OSM    H3S12316   1.920   1.078   7.821  0.7094  0.1394  0.8637
  118OSM     O312317   2.108   1.138   7.888  0.0281 -0.4737  0.1387
  118OSM    HO312318   2.102   1.184   7.972 -1.9090  0.9150 -0.6728
  118OSM    C4S12319   2.010   1.206   7.685  0.3865  0.0192  0.0458
  118OSM    H4S12320   2.086   1.284   7.679 -0.3747  0.6895 -1.8664
  118OSM    C5S12321   1.964   1.154   7.575  0.5828 -0.6740  0.3544
  118OSM    H5S12322   1.884   1.079   7.584 -1.2902  0.9747 -1.5245
  118OSM    C6S12323   2.008   1.200   7.437  0.0142  0.3347 -0.8545
  118OSM    H6S12324   2.035   1.110   7.377  3.0712 -0.3995  1.3692
  118OSM    H6T12325   2.101   1.259   7.448  0.5801 -0.7546  0.6368
  118OSM    C7S12326   1.894   1.278   7.373  0.4224 -0.4921  0.1838
  118OSM    H7S12327   1.885   1.373   7.430  0.1485  0.7974 -1.9062
  118OSM    H7T12328   1.805   1.212   7.382 -1.1962  1.6526  0.7272
  118OSM    C8S12329   1.918   1.321   7.227 -0.2927  0.5199 -0.2028
  118OSM    H8S12330   1.952   1.233   7.168 -0.6983  0.4260 -0.2963
  118OSM    H8T12331   1.992   1.404   7.230 -0.4967  0.7117 -0.4538
  118OSM    C9S12332   1.796   1.381   7.154 -0.9011  0.4181 -0.6298
  118OSM    H9S12333   1.749   1.448   7.229  0.9641 -0.1096  1.1077
  118OSM    H9T12334   1.715   1.309   7.131 -2.5609  0.7570  3.2847
  118OSM   C10S12335   1.837   1.461   7.029  0.2927 -0.4678  0.0277
  118OSM   H10S12336   1.915   1.399   6.979  0.8785 -2.4791  3.0989
  118OSM   H10T12337   1.869   1.565   7.052  2.3666 -0.8789 -0.7608
  118OSM   C11S12338   1.728   1.484   6.921 -0.7053  0.9634  0.2879
  118OSM   H11S12339   1.766   1.562   6.852 -1.2016  0.5963 -0.4126
  118OSM   H11T12340   1.634   1.521   6.966 -1.3221  0.0239 -0.1852
  118OSM   C12S12341   1.717   1.352   6.839  0.7043 -0.2588 -0.0533
  118OSM   H12S12342   1.679   1.274   6.908  0.2700  1.8914  2.2963
  118OSM   H12T12343   1.817   1.325   6.799  0.6266  1.6044 -1.6776
  118OSM   C13S12344   1.614   1.353   6.728 -0.1934  0.2372  0.4330
  118OSM   H13S12345   1.608   1.458   6.692 -0.5321  0.6973  1.7787
  118OSM   H13T12346   1.517   1.321   6.771 -0.1419 -1.2564 -0.5035
  118OSM   C14S12347   1.652   1.278   6.602 -0.3041  0.4260  0.2845
  118OSM   H14S12348   1.657   1.169   6.623 -0.0487  0.2663 -0.5510
  118OSM   H14T12349   1.755   1.310   6.575  0.3341 -1.5305  0.2631
  118OSM   C15S12350   1.560   1.304   6.482 -0.0697  0.0251  0.0047
  118OSM   H15S12351   1.594   1.401   6.442 -0.2772  1.0889  2.2371
  118OSM   H15T12352   1.451   1.311   6.506 -0.7647 -0.8909 -2.5579
  118OSM   C16S12353   1.571   1.193   6.360 -0.1969 -0.3737  0.4467
  118OSM   H16S12354   1.507   1.104   6.379  0.5198 -0.9443  0.2327
  118OSM   H16T12355   1.674   1.152   6.354 -0.5443 -1.0204 -2.1988
  118OSM   C17S12356   1.546   1.237   6.219 -0.0426 -0.0112 -0.4326
  118OSM   H17S12357   1.555   1.147   6.154 -0.4156 -0.0637 -0.4146
  118OSM   H17T12358   1.632   1.291   6.176  0.1198  1.4046  1.5280
  118OSM   C18S12359   1.415   1.313   6.193 -0.4466 -0.1372 -0.1631
  118OSM   H18S12360   1.335   1.237   6.200 -0.1134 -0.5469 -0.8164
  118OSM   H18T12361   1.416   1.355   6.091  3.1863  1.5354  0.3915
  118OSM   H18U12362   1.408   1.388   6.275  0.9173 -0.7950  0.5985
  118OSM    C1F12363   1.665   1.395   7.848 -0.0782 -0.2635  0.5799
  118OSM     OF12364   1.678   1.478   7.937  0.3194  0.2534  0.6370
  118OSM    C2F12365   1.542   1.388   7.763  0.4774 -0.4249 -0.3480
  118OSM    H2F12366   1.468   1.330   7.821  0.2638 -0.9710 -1.1606
  118OSM    H2G12367   1.550   1.341   7.663 -1.2921 -1.6037  0.0185
  118OSM    C3F12368   1.470   1.526   7.735  0.3084 -1.1280 -0.3941
  118OSM    H3F12369   1.542   1.608   7.715  0.9272 -1.9344 -1.5860
  118OSM    H3G12370   1.404   1.545   7.822  0.3146  2.4723 -1.0494
  118OSM    C4F12371   1.376   1.518   7.617 -0.1791 -0.3309  0.5675
  118OSM    H4F12372   1.314   1.428   7.638 -0.4548  0.1473  1.9238
  118OSM    H4G12373   1.428   1.486   7.525 -1.4465  1.2564 -0.7672
  118OSM    C5F12374   1.292   1.643   7.587 -0.3344  0.1410 -0.5462
  118OSM    H5F12375   1.365   1.725   7.568  1.9223 -1.5502  0.3598
  118OSM    H5G12376   1.220   1.655   7.671  0.3208 -2.4087  0.4851
  118OSM    C6F12377   1.205   1.613   7.468  0.6525  0.1979  0.4453
  118OSM    H6F12378   1.159   1.707   7.431  1.2828  0.7009  0.9032
  118OSM    H6G12379   1.127   1.544   7.507 -0.0582  1.8114  2.0138
  118OSM    C7F12380   1.286   1.563   7.346  0.0639  0.4989 -0.8952
  118OSM    H7F12381   1.297   1.453   7.354  0.7086  0.6053 -0.0809
  118OSM    H7G12382   1.392   1.594   7.360  0.7952 -2.0659 -0.2647
  118OSM    C8F12383   1.219   1.608   7.212  0.2259 -0.3342  0.7013
  118OSM    H8F12384   1.179   1.711   7.211 -0.5309 -0.6235  0.1507
  118OSM    H8G12385   1.127   1.546   7.202 -0.9748  1.1727  1.8420
  118OSM    C9F12386   1.325   1.587   7.107 -0.3430  0.3585  0.2821
  118OSM    H9F12387   1.423   1.604   7.154 -1.2214  1.7451  1.6963
  118OSM   C10F12388   1.310   1.559   6.975  0.0534 -0.2137 -0.0460
  118OSM   H10F12389   1.402   1.552   6.915  0.7526  2.8441  0.4978
  118OSM   C11F12390   1.186   1.554   6.894  0.0676  0.0294  0.4751
  118OSM   H11F12391   1.100   1.603   6.944 -0.0879  1.6429 -1.2798
  118OSM   H11G12392   1.166   1.454   6.850  0.4321  0.7514 -1.4469
  118OSM   C12F12393   1.189   1.635   6.763  0.5605  0.6484  0.1822
  118OSM   H12F12394   1.180   1.745   6.776  1.0812  0.9022 -1.4103
  118OSM   H12G12395   1.105   1.595   6.702  1.5493  0.1796 -0.9040
  118OSM   C13F12396   1.311   1.607   6.671  0.2005 -0.1152  0.3383
  118OSM   H13F12397   1.336   1.499   6.679  0.4931  0.0817  2.5464
  118OSM   H13G12398   1.396   1.665   6.712 -1.0476  1.3806  0.8661
  118OSM   C14F12399   1.299   1.644   6.530  0.0979 -0.1798 -0.2343
  118OSM   H14F12400   1.236   1.735   6.527  0.9963  0.5160  1.2216
  118OSM   H14G12401   1.233   1.572   6.477  0.2222  0.7693 -1.7399
  118OSM   C15F12402   1.427   1.666   6.458  0.1396  0.0125  0.4411
  118OSM   H15F12403   1.464   1.562   6.444 -1.7630 -0.4439 -1.7987
  118OSM   H15G12404   1.490   1.746   6.504  1.2508 -0.3060 -0.4623
  118OSM   C16F12405   1.422   1.717   6.311 -0.6611  0.1707 -0.3020
  118OSM   H16F12406   1.368   1.813   6.294  0.6641  0.6195 -2.4087
  118OSM   H16G12407   1.378   1.638   6.246  0.6885 -0.0652 -0.9667
  118OSM   C17F12408   1.556   1.747   6.248 -0.6612 -0.0568  0.6452
  118OSM   H17F12409   1.604   1.837   6.294  2.0262 -0.8606 -0.3918
  118OSM   H17G12410   1.528   1.791   6.150 -3.0946  0.2430  1.4191
  118OSM   C18F12411   1.654   1.630   6.244 -0.8180  0.4306  0.5770
  118OSM   H18F12412   1.698   1.615   6.345  1.8960 -0.2077 -0.6020
  118OSM   H18G12413   1.739   1.650   6.176 -0.8573 -2.0973 -0.3213
  118OSM   H18H12414   1.612   1.538   6.200  1.3532 -0.7367  0.7966
  119OSM      N12415   4.229   6.829   0.020  0.3116 -0.1809 -0.3558
  119OSM    C1512416   4.343   6.727   0.027  0.3794  0.0377  0.2717
  119OSM   H15A12417   4.297   6.634  -0.004 -1.0343  1.4389 -2.1045
  119OSM   H15B12418   4.385   6.733   0.127 -0.6666  2.2931  0.6244
  119OSM   H15C12419   4.415   6.749  -0.050  0.5678 -3.3699 -0.7115
  119OSM    C1412420   4.113   6.772   0.091  0.3125  0.0608  0.4689
  119OSM   H14A12421   4.154   6.723   0.178  1.1402 -1.3370 -0.6754
  119OSM   H14B12422   4.056   6.694   0.042  0.6955 -0.1084  0.2889
  119OSM   H14C12423   4.046   6.845   0.135 -0.8120 -0.9035  0.4147
  119OSM    C1312424   4.274   6.955   0.092  0.1244  0.4609 -0.6787
  119OSM   H13A12425   4.308   6.934   0.192 -0.2425  0.9966 -0.4380
  119OSM   H13B12426   4.193   7.026   0.099  0.0473  0.2431  0.9067
  119OSM   H13C12427   4.343   7.019   0.039  1.4040  0.3426  0.7716
  119OSM    C1212428   4.197   6.857  -0.128  0.1245 -0.0341 -0.5847
  119OSM   H12A12429   4.120   6.932  -0.116  0.7723  0.3530  1.4470
  119OSM   H12B12430   4.160   6.769  -0.179  1.2169 -0.2614 -1.0062
  119OSM    C1112431   4.298   6.925  -0.221 -0.7794 -0.0044  0.0666
  119OSM   H11A12432   4.250   6.930  -0.321  1.5226  0.8763 -1.0643
  119OSM   H11B12433   4.379   6.850  -0.226 -0.4181  0.3704  0.2700
  119OSM      P12434   4.262   7.176  -0.195 -0.3666  0.0460  0.3755
  119OSM    O1312435   4.126   7.151  -0.140  0.0652 -0.6137  0.7619
  119OSM    O1412436   4.337   7.294  -0.153 -0.1506 -0.4602  0.5088
  119OSM    O1112437   4.253   7.181  -0.349  0.3840 -0.1341  0.1864
  119OSM    O1212438   4.353   7.046  -0.177  0.0959  0.0467  0.0946
  119OSM    C1S12439   4.141   7.205  -0.432 -0.5494  0.4711 -0.0630
  119OSM    H1S12440   4.107   7.306  -0.401 -0.1677  0.0466  1.9263
  119OSM    H1T12441   4.058   7.134  -0.412 -0.1219 -0.3826 -1.1926
  119OSM     NF12442   4.052   7.256  -0.661 -0.4434 -0.4761 -1.0404
  119OSM    HNF12443   3.986   7.197  -0.708 -0.0025 -1.6541 -0.2247
  119OSM    C2S12444   4.171   7.207  -0.592 -0.7624  0.0396 -1.0360
  119OSM    H2S12445   4.267   7.260  -0.606 -0.7417 -0.0297 -1.1566
  119OSM    C3S12446   4.196   7.063  -0.635 -0.5791  0.0118 -0.5535
  119OSM    H3S12447   4.101   7.009  -0.618 -0.4534  0.1752  0.8059
  119OSM     O312448   4.280   6.987  -0.551 -0.0878 -0.0163 -0.3718
  119OSM    HO312449   4.278   7.033  -0.467 -0.8027  0.7810 -0.8156
  119OSM    C4S12450   4.235   7.061  -0.781 -0.1234  0.6068 -0.5165
  119OSM    H4S12451   4.149   7.046  -0.847 -0.5777  0.2690  0.1370
  119OSM    C5S12452   4.356   7.062  -0.840  0.6899 -0.9136  0.5996
  119OSM    H5S12453   4.442   7.069  -0.772 -0.8177  3.4480  2.3760
  119OSM    C6S12454   4.384   7.057  -0.990  0.2837  0.6415  0.1940
  119OSM    H6S12455   4.427   6.958  -1.017 -2.3405 -0.2727 -1.0624
  119OSM    H6T12456   4.457   7.132  -1.028  1.4450 -0.1224  0.8505
  119OSM    C7S12457   4.261   7.037  -1.073  0.1037 -0.9936  0.0975
  119OSM    H7S12458   4.195   7.126  -1.087  0.5289 -0.6583  0.2096
  119OSM    H7T12459   4.202   6.965  -1.013  0.1145 -1.5483 -0.5564
  119OSM    C8S12460   4.296   6.989  -1.214  0.5364  0.3723  0.1766
  119OSM    H8S12461   4.352   6.893  -1.204  0.3660  0.0911 -1.2435
  119OSM    H8T12462   4.367   7.055  -1.269  2.4187 -1.2846  0.4736
  119OSM    C9S12463   4.171   6.955  -1.298 -0.3580  0.2606  0.0390
  119OSM    H9S12464   4.118   7.045  -1.336 -0.4036 -0.5280 -1.9010
  119OSM    H9T12465   4.108   6.884  -1.241 -0.5696 -0.5633 -1.1658
  119OSM   C10S12466   4.220   6.883  -1.422  0.5066 -0.0118 -0.3158
  119OSM   H10S12467   4.276   6.790  -1.398 -0.0477 -0.9005 -2.2605
  119OSM   H10T12468   4.304   6.942  -1.464  0.6830 -0.5728 -0.7675
  119OSM   C11S12469   4.106   6.858  -1.533 -0.1798 -0.1627 -0.4905
  119OSM   H11S12470   4.014   6.920  -1.524  0.1054  0.0014  1.7467
  119OSM   H11T12471   4.060   6.763  -1.499 -0.2396  0.1733  0.3933
  119OSM   C12S12472   4.156   6.843  -1.680 -0.4129 -0.0464 -0.0243
  119OSM   H12S12473   4.243   6.775  -1.686  1.1394  1.9249 -0.9703
  119OSM   H12T12474   4.185   6.947  -1.705  1.9770 -0.1164  2.0651
  119OSM   C13S12475   4.044   6.794  -1.776 -0.5533 -0.0078  0.1525
  119OSM   H13S12476   3.953   6.850  -1.742  0.0372  1.3188 -0.3787
  119OSM   H13T12477   4.041   6.685  -1.759 -2.2176  0.2153  1.6291
  119OSM   C14S12478   4.085   6.822  -1.919 -0.7194 -0.2935  0.0297
  119OSM   H14S12479   4.027   6.760  -1.991  1.9322 -3.2408  0.2134
  119OSM   H14T12480   4.187   6.787  -1.945 -0.5614  1.9030 -2.7935
  119OSM   C15S12481   4.064   6.965  -1.959  0.1689 -0.0482 -0.0932
  119OSM   H15S12482   4.125   7.036  -1.898  0.2846 -0.0352 -0.2247
  119OSM   H15T12483   3.958   6.993  -1.940 -0.0801 -1.5464  0.9287
  119OSM   C16S12484   4.092   7.012  -2.103 -0.0399 -0.1643  0.5546
  119OSM   H16S12485   4.077   7.122  -2.116  0.9483 -0.0283  0.4492
  119OSM   H16T12486   4.018   6.960  -2.167 -2.6828  2.0082  1.6403
  119OSM   C17S12487   4.242   6.986  -2.149  0.5419 -0.0514 -0.1470
  119OSM   H17S12488   4.288   6.911  -2.082 -0.1006  0.1822  0.5698
  119OSM   H17T12489   4.303   7.078  -2.139 -1.7546  1.8016 -2.1000
  119OSM   C18S12490   4.252   6.929  -2.291  0.2340  0.4537 -0.3359
  119OSM   H18S12491   4.358   6.928  -2.324  0.3502  2.3737 -0.1190
  119OSM   H18T12492   4.192   6.982  -2.368  0.2066  0.9132 -0.0024
  119OSM   H18U12493   4.219   6.823  -2.285  0.2936  0.4448 -0.1380
  119OSM    C1F12494   4.026   7.390  -0.673 -0.0501  0.3696  0.5402
  119OSM     OF12495   4.106   7.472  -0.641 -0.2072  0.3437 -0.0316
  119OSM    C2F12496   3.897   7.418  -0.737 -0.3959 -0.1220 -0.0798
  119OSM    H2F12497   3.818   7.450  -0.666  1.0755  2.9487  0.3397
  119OSM    H2G12498   3.859   7.336  -0.802  1.7991 -0.0077 -1.6371
  119OSM    C3F12499   3.917   7.532  -0.842  0.2316  0.1227 -0.0802
  119OSM    H3F12500   3.942   7.621  -0.780 -2.7355 -0.6124  2.4010
  119OSM    H3G12501   3.823   7.556  -0.896  0.1178 -1.8082 -0.8248
  119OSM    C4F12502   4.020   7.506  -0.951  0.3815  0.5653  0.0407
  119OSM    H4F12503   4.124   7.511  -0.914  1.2630  0.0560 -2.1949
  119OSM    H4G12504   4.012   7.589  -1.024  1.7863 -1.3634 -2.4884
  119OSM    C5F12505   3.989   7.379  -1.033 -0.1637  0.0382  0.1712
  119OSM    H5F12506   3.882   7.382  -1.064  0.1362  0.6624 -0.8994
  119OSM    H5G12507   4.009   7.285  -0.978  0.7041 -0.3452 -0.7640
  119OSM    C6F12508   4.075   7.375  -1.164 -0.3551 -0.7196 -0.5727
  119OSM    H6F12509   4.055   7.275  -1.208  0.1376 -0.3265 -1.7247
  119OSM    H6G12510   4.183   7.381  -1.140 -0.4984  0.8642 -0.2620
  119OSM    C7F12511   4.038   7.484  -1.269 -1.2467  0.3728  0.8117
  119OSM    H7F12512   4.054   7.589  -1.235 -1.2509 -0.0843  2.3005
  119OSM    H7G12513   3.929   7.481  -1.290 -1.2014 -0.4707  0.6698
  119OSM    C8F12514   4.123   7.473  -1.399  0.1327 -0.4830 -0.5073
  119OSM    H8F12515   4.222   7.514  -1.369  0.1819 -1.2561  0.3974
  119OSM    H8G12516   4.077   7.531  -1.482 -3.4003 -1.8438  0.3361
  119OSM    C9F12517   4.133   7.332  -1.451 -0.3955 -0.1597 -0.1161
  119OSM    H9F12518   4.049   7.269  -1.419 -0.8775 -0.6080 -2.1157
  119OSM   C10F12519   4.246   7.278  -1.503  0.3215  0.2278  0.1384
  119OSM   H10F12520   4.248   7.173  -1.536 -1.7680  0.0706  0.3660
  119OSM   C11F12521   4.367   7.337  -1.570  0.0901 -0.5279 -0.1931
  119OSM   H11F12522   4.352   7.440  -1.607  0.8541  0.3461  1.7856
  119OSM   H11G12523   4.399   7.269  -1.652  0.7258 -2.3735  1.4964
  119OSM   C12F12524   4.488   7.350  -1.473  0.1358 -0.5591  0.1213
  119OSM   H12F12525   4.524   7.254  -1.430 -0.6452 -0.8677  0.0934
  119OSM   H12G12526   4.470   7.405  -1.378  2.0545 -1.6866  1.1933
  119OSM   C13F12527   4.611   7.412  -1.540 -0.1329 -0.1386 -0.3999
  119OSM   H13F12528   4.634   7.362  -1.636 -0.7565 -1.7517  0.2530
  119OSM   H13G12529   4.702   7.390  -1.479 -0.2406  0.9799  0.2018
  119OSM   C14F12530   4.590   7.559  -1.556 -0.1307  0.3531  0.4374
  119OSM   H14F12531   4.541   7.594  -1.463 -3.4449 -0.8518 -0.7117
  119OSM   H14G12532   4.515   7.584  -1.635  2.8285  2.0648 -2.0899
  119OSM   C15F12533   4.721   7.638  -1.574  0.4863 -0.2983  0.0909
  119OSM   H15F12534   4.800   7.563  -1.554  1.4385  0.3213 -1.2053
  119OSM   H15G12535   4.730   7.716  -1.496 -0.6242 -0.7686  0.7193
  119OSM   C16F12536   4.745   7.694  -1.716 -0.2563 -0.1682  0.2755
  119OSM   H16F12537   4.836   7.758  -1.713 -2.0534  2.5363  2.4722
  119OSM   H16G12538   4.663   7.764  -1.744  0.8425  0.7684 -0.7087
  119OSM   C17F12539   4.757   7.580  -1.813  0.0102  0.9693  0.9855
  119OSM   H17F12540   4.654   7.540  -1.825  0.3859  0.3694 -0.4900
  119OSM   H17G12541   4.823   7.503  -1.768 -0.3196  1.3277  2.1154
  119OSM   C18F12542   4.817   7.626  -1.944 -0.1739  0.2103  0.2227
  119OSM   H18F12543   4.828   7.534  -2.005 -0.5586 -0.3130  0.9305
  119OSM   H18G12544   4.912   7.684  -1.945 -0.7793  1.2466 -1.1624
  119OSM   H18H12545   4.733   7.688  -1.982 -2.2394  0.0402  4.0464
  120OSM      N12546   5.176   4.503   7.762  0.2140  0.1727 -0.0190
  120OSM    C1512547   5.241   4.627   7.806 -0.0930 -0.6500  0.0372
  120OSM   H15A12548   5.169   4.707   7.811  0.5339 -0.1285  0.8113
  120OSM   H15B12549   5.317   4.658   7.736 -1.3183  2.5474 -0.0458
  120OSM   H15C12550   5.276   4.621   7.908  1.3649 -1.3304 -0.4728
  120OSM    C1412551   5.273   4.387   7.764  0.3055 -0.2487 -0.2688
  120OSM   H14A12552   5.342   4.390   7.847  1.0684 -0.1259 -0.8988
  120OSM   H14B12553   5.336   4.388   7.676  1.2059 -1.2464  0.3441
  120OSM   H14C12554   5.232   4.288   7.756  0.6912 -0.2724 -3.8785
  120OSM    C1312555   5.072   4.460   7.869  0.1651  0.7328  0.3539
  120OSM   H13A12556   5.013   4.545   7.898  0.6182  0.7464  1.2781
  120OSM   H13B12557   5.132   4.416   7.948  0.4759  1.1341  0.3433
  120OSM   H13C12558   5.015   4.378   7.828  1.6378 -0.1332 -0.0586
  120OSM    C1212559   5.109   4.515   7.628 -0.7725  0.1252  0.0558
  120OSM   H12A12560   5.174   4.557   7.553 -0.5778  1.0536  0.7347
  120OSM   H12B12561   5.033   4.591   7.633  0.8878  1.9479 -1.1937
  120OSM    C1112562   5.040   4.392   7.558  0.1965  0.3986  0.1064
  120OSM   H11A12563   5.115   4.310   7.562 -0.6558 -0.3580  1.1055
  120OSM   H11B12564   5.007   4.422   7.456 -2.8689  2.3731  1.5432
  120OSM      P12565   4.783   4.384   7.602  0.2173 -0.2452 -0.1627
  120OSM    O1312566   4.692   4.289   7.666 -0.2183 -0.3468 -1.0106
  120OSM    O1412567   4.782   4.529   7.638 -0.1944  0.1459 -0.6976
  120OSM    O1112568   4.775   4.373   7.448  0.0973 -0.1636  0.7364
  120OSM    O1212569   4.927   4.341   7.637  0.6531 -0.5323 -0.7360
  120OSM    C1S12570   4.748   4.240   7.386 -0.4425 -0.1106  0.0668
  120OSM    H1S12571   4.662   4.194   7.438 -0.8420  1.1886  0.5896
  120OSM    H1T12572   4.837   4.173   7.391 -0.3115  0.1413  1.6525
  120OSM     NF12573   4.715   4.110   7.186  0.5400 -0.3982  0.3330
  120OSM    HNF12574   4.791   4.058   7.148  1.5835  0.1566  1.5908
  120OSM    C2S12575   4.728   4.246   7.231  0.6199  0.6944 -0.2158
  120OSM    H2S12576   4.639   4.307   7.208 -0.5504  0.0661  2.2827
  120OSM    C3S12577   4.841   4.314   7.156 -0.0684 -0.0172 -0.0402
  120OSM    H3S12578   4.932   4.253   7.174 -2.5424 -4.0470  0.0278
  120OSM     O312579   4.887   4.439   7.212  0.0710 -0.0080 -0.1255
  120OSM    HO312580   4.838   4.444   7.294 -1.8891  1.0776 -1.2696
  120OSM    C4S12581   4.829   4.316   7.004 -0.5906  0.1093  0.0490
  120OSM    H4S12582   4.882   4.230   6.961  0.9038  1.5245 -1.0476
  120OSM    C5S12583   4.775   4.411   6.929 -0.4978  0.2619 -0.4751
  120OSM    H5S12584   4.733   4.501   6.977 -0.9704 -0.2005 -0.0179
  120OSM    C6S12585   4.766   4.420   6.777  0.5438 -0.5800 -0.4681
  120OSM    H6S12586   4.840   4.490   6.732  0.3918 -0.3213 -0.3156
  120OSM    H6T12587   4.668   4.464   6.749 -0.1514 -0.2018  2.2542
  120OSM    C7S12588   4.788   4.281   6.713  0.1536 -0.3353  0.3544
  120OSM    H7S12589   4.712   4.208   6.750 -0.3554  0.6610  1.3395
  120OSM    H7T12590   4.886   4.229   6.723 -0.6566 -2.1874 -0.7417
  120OSM    C8S12591   4.759   4.289   6.562  0.5138  0.2866 -0.4052
  120OSM    H8S12592   4.669   4.353   6.555 -0.0450 -0.0971  2.1397
  120OSM    H8T12593   4.735   4.184   6.533  2.9709 -0.7218  0.9036
  120OSM    C9S12594   4.875   4.344   6.484 -0.1284  0.0021  0.6947
  120OSM    H9S12595   4.899   4.276   6.400 -0.3920 -0.1207  0.7166
  120OSM    H9T12596   4.960   4.332   6.555 -0.4450  0.8392  1.2419
  120OSM   C10S12597   4.850   4.485   6.428 -0.3772  0.1872 -0.0273
  120OSM   H10S12598   4.843   4.566   6.504 -1.7985  0.0100  0.0547
  120OSM   H10T12599   4.755   4.487   6.370  0.0832  1.5382 -0.7799
  120OSM   C11S12600   4.957   4.535   6.328 -0.2694  0.6110  0.5304
  120OSM   H11S12601   5.054   4.526   6.382  0.9109 -0.8510 -1.6620
  120OSM   H11T12602   4.934   4.642   6.314  0.6751  0.8282  0.5475
  120OSM   C12S12603   4.968   4.453   6.196 -0.1502 -0.8255 -0.2253
  120OSM   H12S12604   4.862   4.438   6.164 -1.1253  0.5583  2.0586
  120OSM   H12T12605   5.019   4.357   6.216  0.0924 -0.5376  0.5906
  120OSM   C13S12606   5.034   4.531   6.088 -0.4855 -0.1830 -0.0304
  120OSM   H13S12607   5.135   4.558   6.127 -0.5719 -2.1040  1.7010
  120OSM   H13T12608   4.983   4.629   6.084 -3.4264 -1.4862  1.8663
  120OSM   C14S12609   5.037   4.440   5.964 -0.0850 -0.1260  0.4334
  120OSM   H14S12610   4.933   4.407   5.945  0.5339 -3.3386  2.0149
  120OSM   H14T12611   5.100   4.350   5.982  3.9316  2.0121 -1.4363
  120OSM   C15S12612   5.116   4.500   5.837  0.3535 -0.3182 -1.0215
  120OSM   H15S12613   5.225   4.491   5.854  0.0706 -1.9819  0.1732
  120OSM   H15T12614   5.083   4.606   5.830 -2.8138 -1.1893 -0.8020
  120OSM   C16S12615   5.085   4.431   5.705  0.1046  0.3480 -0.4344
  120OSM   H16S12616   5.106   4.323   5.714 -0.2554  0.1135 -2.0405
  120OSM   H16T12617   5.147   4.468   5.621 -1.0237 -1.5138 -2.1790
  120OSM   C17S12618   4.934   4.445   5.675  0.4253  0.7008  0.5339
  120OSM   H17S12619   4.904   4.552   5.663 -1.5023  0.1707  0.3280
  120OSM   H17T12620   4.869   4.399   5.752 -0.1198 -1.0184 -0.9125
  120OSM   C18S12621   4.908   4.389   5.535 -0.1459  0.0663 -0.0170
  120OSM   H18S12622   4.801   4.364   5.514 -0.0640 -0.0684 -0.2786
  120OSM   H18T12623   4.958   4.289   5.531 -1.2426 -0.5194  0.3851
  120OSM   H18U12624   4.951   4.469   5.472  0.3272 -0.6251 -0.5989
  120OSM    C1F12625   4.597   4.048   7.201  0.1329  0.2467  0.2907
  120OSM     OF12626   4.500   4.109   7.252 -0.3440 -0.2280 -0.2710
  120OSM    C2F12627   4.589   3.907   7.153 -0.1121  0.2189 -0.0255
  120OSM    H2F12628   4.506   3.858   7.208  1.0779  0.1053  1.7571
  120OSM    H2G12629   4.686   3.857   7.176  1.1559  1.9660 -1.2591
  120OSM    C3F12630   4.565   3.899   6.998  0.0848  0.1957 -0.3237
  120OSM    H3F12631   4.526   3.797   6.977 -0.1538  0.2337 -0.0684
  120OSM    H3G12632   4.666   3.907   6.952  0.1424 -1.4038 -0.5164
  120OSM    C4F12633   4.466   4.002   6.944 -1.1544  0.1448 -0.7084
  120OSM    H4F12634   4.503   4.106   6.948  0.0585 -0.3036  2.6539
  120OSM    H4G12635   4.381   4.005   7.016 -1.1783 -0.5628 -0.6919
  120OSM    C5F12636   4.394   3.958   6.812  0.8689  0.1347 -1.1670
  120OSM    H5F12637   4.312   4.030   6.791  1.4582  0.5848 -1.9999
  120OSM    H5G12638   4.347   3.857   6.811  0.8047  0.1625 -0.9982
  120OSM    C6F12639   4.476   3.979   6.685 -0.2099 -0.0066  0.5750
  120OSM    H6F12640   4.574   3.928   6.685 -0.1467  0.0354 -1.7390
  120OSM    H6G12641   4.497   4.088   6.695 -1.1559  0.1401  1.1448
  120OSM    C7F12642   4.396   3.914   6.571 -0.3468 -0.3360 -0.4470
  120OSM    H7F12643   4.295   3.960   6.570 -0.3783 -0.3188  1.1954
  120OSM    H7G12644   4.386   3.804   6.588 -0.2716 -0.5530 -1.6851
  120OSM    C8F12645   4.486   3.932   6.442  0.1707 -0.0582  0.4772
  120OSM    H8F12646   4.587   3.887   6.444 -1.2587 -3.6699 -0.9622
  120OSM    H8G12647   4.489   4.043   6.433 -1.4688  0.1023  1.4279
  120OSM    C9F12648   4.434   3.883   6.307 -0.4246  0.1218 -0.1086
  120OSM    H9F12649   4.327   3.881   6.281  0.1050 -0.7666 -2.5058
  120OSM   C10F12650   4.521   3.874   6.200 -0.3431  0.2295  1.0063
  120OSM   H10F12651   4.481   3.844   6.102  2.2944  1.3778 -0.5276
  120OSM   C11F12652   4.671   3.885   6.203  0.3167  0.3217  0.4429
  120OSM   H11F12653   4.710   3.863   6.101  1.4134  0.1984  0.8710
  120OSM   H11G12654   4.724   3.819   6.275  1.3530 -0.9475 -1.3867
  120OSM   C12F12655   4.729   4.023   6.233  0.5213  0.1772 -0.1428
  120OSM   H12F12656   4.723   4.045   6.341 -2.8284 -2.2528  0.3236
  120OSM   H12G12657   4.672   4.097   6.172  1.0135 -0.1654 -1.0431
  120OSM   C13F12658   4.873   4.037   6.179  0.5620 -0.1344  0.2725
  120OSM   H13F12659   4.939   3.991   6.255  0.3086  1.6197  1.6449
  120OSM   H13G12660   4.894   4.147   6.180 -0.7207  0.1560 -1.0758
  120OSM   C14F12661   4.903   3.990   6.031  0.0154 -0.2368 -0.2813
  120OSM   H14F12662   4.835   4.044   5.961  2.7097  0.0794 -2.8376
  120OSM   H14G12663   4.897   3.883   6.003 -0.0978 -0.0009 -1.2161
  120OSM   C15F12664   5.046   4.036   5.993 -0.4433  0.7932  1.3038
  120OSM   H15F12665   5.114   3.968   6.049  0.0917 -0.0909 -0.3252
  120OSM   H15G12666   5.051   4.143   6.023 -1.7811  1.6274 -1.1306
  120OSM   C16F12667   5.070   4.015   5.841 -0.3311  0.5647  0.4029
  120OSM   H16F12668   5.027   4.103   5.790  1.9652  1.8870  0.6102
  120OSM   H16G12669   5.006   3.932   5.805 -1.2650  2.8667 -3.9227
  120OSM   C17F12670   5.223   4.005   5.803  0.7285 -0.3703 -0.5036
  120OSM   H17F12671   5.267   3.925   5.867 -0.0439 -0.7454 -0.4271
  120OSM   H17G12672   5.268   4.102   5.833  3.8250 -2.3523  1.9272
  120OSM   C18F12673   5.252   3.976   5.655  0.8166  0.5215 -0.8703
  120OSM   H18F12674   5.360   3.954   5.642  0.7132 -0.3827 -0.3004
  120OSM   H18G12675   5.219   4.059   5.589 -0.1722 -0.4711 -1.6642
  120OSM   H18H12676   5.189   3.894   5.613 -1.0668  0.5284  1.6925
  121OSM      N12677   1.697   6.610   8.124 -0.0050  0.5835 -0.2856
  121OSM    C1512678   1.665   6.752   8.107  0.6139  0.7001 -0.3094
  121OSM   H15A12679   1.621   6.799   8.194  1.4374  2.0395 -0.5961
  121OSM   H15B12680   1.592   6.769   8.029 -0.6905  1.7029  1.0627
  121OSM   H15C12681   1.754   6.810   8.090  2.3765 -1.0974  1.9946
  121OSM    C1412682   1.807   6.593   8.222 -0.6326  1.0301  0.4931
  121OSM   H14A12683   1.774   6.611   8.323 -1.2151 -1.3672  0.7708
  121OSM   H14B12684   1.897   6.650   8.202 -0.6095  1.0081  0.5337
  121OSM   H14C12685   1.837   6.490   8.221 -0.7171  1.0000 -0.8994
  121OSM    C1312686   1.583   6.526   8.163  0.5227  0.1713  0.2400
  121OSM   H13A12687   1.531   6.572   8.246  1.1339  1.1085  0.1282
  121OSM   H13B12688   1.612   6.423   8.176  1.4394  0.2371 -1.1732
  121OSM   H13C12689   1.512   6.519   8.082  0.1026  1.9025  0.4060
  121OSM    C1212690   1.747   6.562   7.990 -0.2662  0.7540  0.1934
  121OSM   H12A12691   1.824   6.627   7.951  1.4946 -1.5163 -0.3180
  121OSM   H12B12692   1.666   6.567   7.919 -1.4010 -1.6351  1.2158
  121OSM    C1112693   1.813   6.415   7.977  0.0167 -0.7371 -0.1484
  121OSM   H11A12694   1.894   6.417   8.053 -1.2560  0.8432  1.2668
  121OSM   H11B12695   1.861   6.394   7.879  2.5685 -0.7062  1.0264
  121OSM      P12696   1.755   6.186   8.082 -0.0778 -0.0762  0.1789
  121OSM    O1312697   1.866   6.210   8.176 -0.2954  0.3639 -0.1770
  121OSM    O1412698   1.633   6.125   8.140  0.4182 -0.7798 -0.3923
  121OSM    O1112699   1.820   6.098   7.970 -0.6093 -0.0641 -0.1752
  121OSM    O1212700   1.711   6.316   8.004 -0.5421  0.0071  0.0424
  121OSM    C1S12701   1.747   6.055   7.861 -0.3097  0.0144  0.4344
  121OSM    H1S12702   1.649   6.104   7.841 -0.0370 -0.0123 -1.0738
  121OSM    H1T12703   1.725   5.948   7.879 -0.1145 -0.1075 -0.0367
  121OSM     NF12704   1.749   6.067   7.617  0.1280 -0.0843  0.8882
  121OSM    HNF12705   1.735   5.984   7.564 -1.2654  1.6086 -1.5978
  121OSM    C2S12706   1.839   6.065   7.736  0.6085 -0.0701  0.5121
  121OSM    H2S12707   1.895   6.161   7.732 -0.5680  0.5838 -1.9889
  121OSM    C3S12708   1.947   5.950   7.741  0.5115  0.0429 -0.0247
  121OSM    H3S12709   1.902   5.848   7.743  0.7778 -0.0725  1.5601
  121OSM     O312710   2.021   5.960   7.862 -0.7130  0.9084 -0.0059
  121OSM    HO312711   1.958   6.002   7.921 -1.2794 -1.3440  1.1195
  121OSM    C4S12712   2.028   5.958   7.616 -0.2414  0.4818  0.4936
  121OSM    H4S12713   2.094   6.044   7.596 -0.9599  1.0776  0.6176
  121OSM    C5S12714   2.034   5.869   7.518  0.1437 -0.0708  0.1035
  121OSM    H5S12715   1.973   5.778   7.522  1.1271 -1.1287 -4.1171
  121OSM    C6S12716   2.112   5.894   7.391 -0.5152  0.2931  0.0646
  121OSM    H6S12717   2.126   5.801   7.331 -2.4891 -0.3547  0.5466
  121OSM    H6T12718   2.207   5.945   7.416  0.8123 -2.1556  0.3160
  121OSM    C7S12719   2.023   5.978   7.294  0.5746  0.4092  0.6654
  121OSM    H7S12720   2.080   5.975   7.199 -1.6641  0.8965 -0.7767
  121OSM    H7T12721   2.013   6.086   7.317 -0.3304  0.9504 -1.9428
  121OSM    C8S12722   1.876   5.933   7.265 -0.1298 -0.5666  0.0732
  121OSM    H8S12723   1.817   5.922   7.359  0.2338  2.4520  0.7712
  121OSM    H8T12724   1.887   5.829   7.228  1.0747 -0.1214 -0.8849
  121OSM    C9S12725   1.813   6.010   7.146  0.1342  0.3125 -0.2360
  121OSM    H9S12726   1.790   6.110   7.188  0.8782  0.7794 -0.9166
  121OSM    H9T12727   1.713   5.967   7.121  0.1536  1.2530 -2.1140
  121OSM   C10S12728   1.896   6.007   7.023  0.1338  0.0025 -0.4035
  121OSM   H10S12729   1.948   5.911   7.003  2.0830  1.1509 -1.1797
  121OSM   H10T12730   1.975   6.086   7.022 -0.7998  1.0571  1.6193
  121OSM   C11S12731   1.817   6.042   6.895  0.2393 -0.2842 -1.1101
  121OSM   H11S12732   1.777   6.143   6.917  0.6841 -0.3060 -0.1373
  121OSM   H11T12733   1.726   5.978   6.891 -1.3244  1.7737 -0.7177
  121OSM   C12S12734   1.899   6.053   6.771  0.2249 -0.1201  0.2873
  121OSM   H12S12735   1.948   5.955   6.751  0.4080  0.0246  0.0305
  121OSM   H12T12736   1.983   6.122   6.793  1.4004 -1.2950 -0.3601
  121OSM   C13S12737   1.820   6.112   6.648 -0.0895  0.3109  0.0304
  121OSM   H13S12738   1.788   6.214   6.679 -3.1128 -0.2495 -0.8703
  121OSM   H13T12739   1.735   6.044   6.625  1.8601 -1.4510 -2.5729
  121OSM   C14S12740   1.897   6.124   6.518 -1.0588  0.2717  0.0351
  121OSM   H14S12741   1.960   6.034   6.503 -1.0628  0.6380 -2.5517
  121OSM   H14T12742   1.963   6.213   6.526 -0.9892  0.6297 -3.2699
  121OSM   C15S12743   1.815   6.136   6.392 -0.1344  0.2975 -0.1891
  121OSM   H15S12744   1.739   6.215   6.406 -2.4510 -1.2841 -2.7835
  121OSM   H15T12745   1.764   6.038   6.378  2.8025 -1.1763 -1.5188
  121OSM   C16S12746   1.889   6.162   6.262  0.9669  0.4022 -0.6632
  121OSM   H16S12747   1.961   6.078   6.252  0.0893 -0.3202 -1.0050
  121OSM   H16T12748   1.939   6.261   6.269 -0.4866  1.0437  1.4793
  121OSM   C17S12749   1.793   6.150   6.144 -0.0643  0.0397  0.0381
  121OSM   H17S12750   1.842   6.201   6.058  1.4347  1.3660  1.5950
  121OSM   H17T12751   1.700   6.210   6.155 -0.9769 -0.2068 -4.4515
  121OSM   C18S12752   1.768   5.999   6.108 -0.3584  0.1460 -0.0410
  121OSM   H18S12753   1.760   5.931   6.196  2.3138 -0.0533  0.1451
  121OSM   H18T12754   1.864   5.973   6.059 -0.0121  1.3125 -0.0268
  121OSM   H18U12755   1.677   5.987   6.045  0.2880  2.3115 -1.5153
  121OSM    C1F12756   1.680   6.169   7.572  0.0228 -0.1810 -0.0173
  121OSM     OF12757   1.656   6.268   7.632 -0.1608 -0.3694  0.3040
  121OSM    C2F12758   1.604   6.145   7.442  0.3044 -0.3000 -0.5829
  121OSM    H2F12759   1.510   6.092   7.465  0.1009  0.2753 -0.0383
  121OSM    H2G12760   1.667   6.094   7.366  1.0441  0.3215 -0.4014
  121OSM    C3F12761   1.568   6.285   7.386 -0.0448 -0.0840  1.0601
  121OSM    H3F12762   1.647   6.363   7.391  0.2178 -0.1567 -1.1601
  121OSM    H3G12763   1.479   6.308   7.448 -0.6685 -1.6371  0.7949
  121OSM    C4F12764   1.519   6.270   7.243 -0.1098  0.1912 -0.5857
  121OSM    H4F12765   1.417   6.225   7.243 -0.3163  0.6600 -0.1972
  121OSM    H4G12766   1.587   6.194   7.200  1.3979  2.2342 -1.9870
  121OSM    C5F12767   1.515   6.397   7.162  0.1027 -0.2351  0.8283
  121OSM    H5F12768   1.606   6.455   7.189  1.6459 -2.4389  0.5688
  121OSM    H5G12769   1.428   6.465   7.182  0.0740  0.1062 -0.4067
  121OSM    C6F12770   1.516   6.371   7.001 -0.3271 -0.0274 -0.9084
  121OSM    H6F12771   1.421   6.321   6.975 -0.3011 -1.2923  1.1474
  121OSM    H6G12772   1.600   6.300   6.983  0.1014  0.7325 -1.9881
  121OSM    C7F12773   1.522   6.500   6.925  0.2256  0.0685 -0.0229
  121OSM    H7F12774   1.619   6.554   6.930 -0.0639  0.4437  1.9489
  121OSM    H7G12775   1.457   6.581   6.963  1.6019  0.7428  0.9835
  121OSM    C8F12776   1.487   6.471   6.776 -0.8582 -0.0236  0.5773
  121OSM    H8F12777   1.423   6.555   6.741  1.4974  2.0365  0.8915
  121OSM    H8G12778   1.423   6.381   6.775 -1.3145  0.2899  1.0921
  121OSM    C9F12779   1.602   6.452   6.680  0.0951  0.2788 -0.2055
  121OSM    H9F12780   1.691   6.403   6.722  0.6927  0.2296 -1.4861
  121OSM   C10F12781   1.607   6.492   6.549 -0.8140  0.6622  0.1275
  121OSM   H10F12782   1.684   6.449   6.484  0.1495  1.5298  0.6621
  121OSM   C11F12783   1.489   6.556   6.479  0.5270  0.6119 -0.2979
  121OSM   H11F12784   1.452   6.646   6.534 -1.8492 -2.0800  2.8934
  121OSM   H11G12785   1.412   6.476   6.481  2.0744 -0.9269  1.6664
  121OSM   C12F12786   1.515   6.612   6.334 -0.2385  0.2387 -0.8194
  121OSM   H12F12787   1.585   6.698   6.335 -1.2813  1.1129 -1.2600
  121OSM   H12G12788   1.418   6.646   6.293  0.2116  2.1619 -0.3910
  121OSM   C13F12789   1.565   6.497   6.249  0.4537 -0.3860  0.7672
  121OSM   H13F12790   1.509   6.403   6.265  1.7877 -1.2036  0.8099
  121OSM   H13G12791   1.670   6.470   6.273  0.3113  0.3532  2.3591
  121OSM   C14F12792   1.560   6.522   6.098  0.0092 -0.3735 -0.2453
  121OSM   H14F12793   1.628   6.609   6.085 -0.7468  0.4139  0.8688
  121OSM   H14G12794   1.459   6.550   6.062 -0.0086  1.2313  0.9466
  121OSM   C15F12795   1.604   6.408   6.015  0.3962 -0.6504 -0.2184
  121OSM   H15F12796   1.548   6.314   6.035 -1.0227  0.7299  3.0463
  121OSM   H15G12797   1.713   6.398   6.033  0.8310  2.4419 -0.5434
  121OSM   C16F12798   1.605   6.436   5.870 -0.0978 -0.1979  0.3709
  121OSM   H16F12799   1.681   6.515   5.852 -2.1155  1.6066 -0.8254
  121OSM   H16G12800   1.511   6.473   5.823 -0.4606 -3.1028 -1.4194
  121OSM   C17F12801   1.654   6.309   5.799  0.5211  0.0745 -0.0338
  121OSM   H17F12802   1.749   6.278   5.848 -0.3306 -0.0411  1.5906
  121OSM   H17G12803   1.692   6.334   5.697 -0.3079  0.1859 -0.3250
  121OSM   C18F12804   1.555   6.191   5.787 -0.5285  0.0105  0.1566
  121OSM   H18F12805   1.622   6.114   5.743  2.5672  3.3086 -1.4230
  121OSM   H18G12806   1.473   6.219   5.719  0.4302  0.2989 -0.9101
  121OSM   H18H12807   1.528   6.146   5.885  1.4836 -0.8893  0.3543
  122OSM      N12808   2.355   3.131   8.276  0.1213  0.3796 -0.1180
  122OSM    C1512809   2.387   3.106   8.137 -0.0523  0.1792 -0.4082
  122OSM   H15A12810   2.323   3.156   8.067  1.5755  1.9618 -0.7037
  122OSM   H15B12811   2.393   3.000   8.118  0.5915  0.0719  0.3122
  122OSM   H15C12812   2.485   3.149   8.122  0.6495 -0.5155  1.7837
  122OSM    C1412813   2.228   3.052   8.301  0.0728 -0.5909 -0.5816
  122OSM   H14A12814   2.147   3.097   8.246  0.5459 -0.1189 -0.8973
  122OSM   H14B12815   2.202   3.065   8.405 -0.8917  1.3080 -1.0202
  122OSM   H14C12816   2.227   2.945   8.291  0.7459 -0.4806 -2.0367
  122OSM    C1312817   2.459   3.057   8.356 -0.2409 -0.2050 -0.7546
  122OSM   H13A12818   2.558   3.098   8.341  1.0423 -2.4591  0.9085
  122OSM   H13B12819   2.458   2.952   8.328 -2.1064 -0.1426 -1.0232
  122OSM   H13C12820   2.426   3.057   8.459  0.0351  0.0467 -0.6645
  122OSM    C1212821   2.339   3.270   8.327 -0.1709 -0.2796  0.2723
  122OSM   H12A12822   2.441   3.305   8.334 -0.0479 -0.3907 -0.8045
  122OSM   H12B12823   2.300   3.269   8.427  2.7323  1.6917  1.5601
  122OSM    C1112824   2.251   3.362   8.241  0.9335 -0.2579  0.2248
  122OSM   H11A12825   2.292   3.357   8.138  1.8057 -1.9104  0.6169
  122OSM   H11B12826   2.265   3.464   8.283  3.3893  0.1347 -1.3234
  122OSM      P12827   2.010   3.419   8.155  0.7835  0.4485  0.2081
  122OSM    O1312828   1.873   3.401   8.201 -0.4704 -0.0228 -0.4514
  122OSM    O1412829   2.072   3.557   8.155 -0.3434  0.4631  0.1354
  122OSM    O1112830   2.025   3.361   8.005  0.6422  0.6987 -0.3015
  122OSM    O1212831   2.110   3.323   8.233  0.1226 -0.2911 -0.1208
  122OSM    C1S12832   2.039   3.216   7.985  0.1197 -0.1049 -0.8068
  122OSM    H1S12833   1.948   3.164   8.023 -0.5045  0.8743 -0.9227
  122OSM    H1T12834   2.128   3.169   8.032 -0.1701 -1.2929 -1.4149
  122OSM     NF12835   2.053   3.058   7.792 -0.5911 -0.2066 -0.4731
  122OSM    HNF12836   2.126   3.031   7.730 -0.5215 -0.4566 -0.2818
  122OSM    C2S12837   2.064   3.193   7.832 -0.1093  0.4604  0.2689
  122OSM    H2S12838   1.973   3.235   7.784 -1.2423 -2.2566 -0.0952
  122OSM    C3S12839   2.184   3.281   7.775  0.0978 -0.8699  1.2267
  122OSM    H3S12840   2.276   3.249   7.830  0.8874  1.1079  1.1474
  122OSM     O312841   2.169   3.423   7.799  0.3579 -0.1487  0.1949
  122OSM    HO312842   2.106   3.427   7.872  0.8551 -0.8335  0.6666
  122OSM    C4S12843   2.196   3.255   7.628 -0.5740  1.0284 -0.5562
  122OSM    H4S12844   2.282   3.193   7.602 -1.3168  0.8040 -2.6740
  122OSM    C5S12845   2.133   3.304   7.519  0.0429  0.2695 -0.6357
  122OSM    H5S12846   2.058   3.383   7.533  0.5873  0.5992  0.5586
  122OSM    C6S12847   2.149   3.248   7.384 -1.0353  0.1669  0.4591
  122OSM    H6S12848   2.052   3.221   7.339 -1.0780 -0.4177  0.9043
  122OSM    H6T12849   2.225   3.167   7.378 -1.8368 -0.4957 -1.3856
  122OSM    C7S12850   2.186   3.354   7.282  0.1952 -0.4640 -0.4339
  122OSM    H7S12851   2.287   3.386   7.316  0.9746 -0.5470 -2.4775
  122OSM    H7T12852   2.125   3.447   7.285  1.5049  0.4103  0.1581
  122OSM    C8S12853   2.194   3.304   7.134  0.0653 -0.1442 -0.9398
  122OSM    H8S12854   2.097   3.264   7.099  0.1619 -1.1246 -0.1205
  122OSM    H8T12855   2.270   3.223   7.142 -0.1214 -0.2497 -0.1962
  122OSM    C9S12856   2.263   3.417   7.052 -0.1699  0.3611  0.6983
  122OSM    H9S12857   2.359   3.447   7.100  0.0865  0.4293  0.1530
  122OSM    H9T12858   2.187   3.497   7.046 -1.1269 -0.5839 -0.3863
  122OSM   C10S12859   2.289   3.368   6.906  0.1272  0.4077 -0.4394
  122OSM   H10S12860   2.191   3.338   6.862 -0.3192 -1.2935  1.5859
  122OSM   H10T12861   2.364   3.286   6.902  1.6979  1.8020 -3.9514
  122OSM   C11S12862   2.345   3.477   6.821 -0.6181 -0.6295 -0.4750
  122OSM   H11S12863   2.444   3.503   6.866 -0.5512 -1.0805 -0.3591
  122OSM   H11T12864   2.288   3.573   6.819 -1.3644 -1.0340 -3.1736
  122OSM   C12S12865   2.369   3.422   6.675  0.8142 -0.1633 -0.7676
  122OSM   H12S12866   2.273   3.375   6.642  0.4087  0.2568 -0.1990
  122OSM   H12T12867   2.443   3.340   6.687  1.4814  0.4137 -0.8823
  122OSM   C13S12868   2.428   3.524   6.580 -0.1379 -0.0657  0.6398
  122OSM   H13S12869   2.521   3.570   6.619  0.2028 -0.4355  0.2758
  122OSM   H13T12870   2.349   3.602   6.572 -0.2079 -0.2814 -1.3195
  122OSM   C14S12871   2.457   3.454   6.453  0.6445  0.5863 -0.0895
  122OSM   H14S12872   2.366   3.396   6.424 -0.5081  2.0999  0.3511
  122OSM   H14T12873   2.541   3.385   6.471  0.3746  0.2646 -0.0489
  122OSM   C15S12874   2.493   3.552   6.343  0.0144  0.3132 -0.0237
  122OSM   H15S12875   2.581   3.608   6.383 -0.1724  2.3002 -2.1828
  122OSM   H15T12876   2.407   3.621   6.327 -0.8554 -1.1104 -1.8466
  122OSM   C16S12877   2.535   3.481   6.210  0.0743  0.3120  0.2067
  122OSM   H16S12878   2.468   3.396   6.187 -0.5832  1.4690 -2.6373
  122OSM   H16T12879   2.637   3.444   6.234  0.6100  1.1972 -0.6298
  122OSM   C17S12880   2.531   3.571   6.085 -0.7398 -0.1490 -0.0353
  122OSM   H17S12881   2.588   3.516   6.007  0.2010  1.8829 -0.8246
  122OSM   H17T12882   2.586   3.666   6.096  0.8159 -0.8094 -1.6743
  122OSM   C18S12883   2.392   3.611   6.027  0.4770  0.2204 -0.0593
  122OSM   H18S12884   2.329   3.524   5.999 -0.1770  1.1585 -1.6065
  122OSM   H18T12885   2.398   3.687   5.946 -1.3043 -0.1449 -0.5758
  122OSM   H18U12886   2.337   3.664   6.107 -1.5848 -0.5904 -0.8725
  122OSM    C1F12887   1.954   2.967   7.818 -0.6201 -0.5438 -0.1726
  122OSM     OF12888   1.867   2.997   7.895 -0.0446 -0.0391  0.1575
  122OSM    C2F12889   1.959   2.844   7.733 -0.6943  0.8464 -0.8297
  122OSM    H2F12890   2.060   2.798   7.734 -1.3201 -0.5508 -0.0846
  122OSM    H2G12891   1.943   2.860   7.625 -0.6865 -0.6301 -1.0621
  122OSM    C3F12892   1.865   2.727   7.778 -0.0018 -0.2512 -0.4401
  122OSM    H3F12893   1.762   2.767   7.787  0.6971  1.2403  1.8721
  122OSM    H3G12894   1.904   2.691   7.876 -0.7763  0.8000  0.2761
  122OSM    C4F12895   1.869   2.620   7.675 -0.4541  0.3698  0.7108
  122OSM    H4F12896   1.972   2.581   7.683 -0.1020  0.5805 -1.9743
  122OSM    H4G12897   1.874   2.657   7.570 -0.6634  0.2455  0.6566
  122OSM    C5F12898   1.762   2.508   7.694  0.0114  0.2250  0.0911
  122OSM    H5F12899   1.669   2.546   7.741  0.7635  0.6851  1.2705
  122OSM    H5G12900   1.806   2.434   7.765  0.0351  1.5676  1.5412
  122OSM    C6F12901   1.721   2.434   7.570  0.1230 -0.4723 -0.0732
  122OSM    H6F12902   1.636   2.494   7.530 -0.2904 -1.7629 -1.1860
  122OSM    H6G12903   1.678   2.335   7.594  0.8696 -0.8405 -0.2365
  122OSM    C7F12904   1.832   2.413   7.458 -0.0815 -0.7053 -0.3721
  122OSM    H7F12905   1.920   2.364   7.504 -0.6689  0.1785  1.8491
  122OSM    H7G12906   1.858   2.516   7.425 -3.6512 -0.1479 -1.9086
  122OSM    C8F12907   1.781   2.340   7.322  0.1631 -0.1853 -1.8434
  122OSM    H8F12908   1.768   2.235   7.354 -0.6614 -0.2632 -2.4296
  122OSM    H8G12909   1.866   2.339   7.250  0.8027  0.7051 -1.1244
  122OSM    C9F12910   1.656   2.395   7.257  0.8705  0.1310 -1.0487
  122OSM    H9F12911   1.563   2.414   7.312  1.4567  0.6300 -0.1956
  122OSM   C10F12912   1.637   2.409   7.122  0.2362 -0.1257  0.0054
  122OSM   H10F12913   1.540   2.451   7.092 -0.3236 -0.4792  1.2591
  122OSM   C11F12914   1.737   2.399   7.013  0.6991  0.0018 -0.4388
  122OSM   H11F12915   1.820   2.331   7.044 -1.3149 -2.9344 -1.0719
  122OSM   H11G12916   1.770   2.505   7.006 -4.2064  1.8920  1.0516
  122OSM   C12F12917   1.690   2.353   6.871 -0.0813  0.1078 -0.1053
  122OSM   H12F12918   1.648   2.250   6.867  0.1495 -0.0713  1.5098
  122OSM   H12G12919   1.781   2.336   6.810 -0.9785 -2.5351 -0.8592
  122OSM   C13F12920   1.603   2.453   6.786 -0.1327 -0.0091  0.0616
  122OSM   H13F12921   1.636   2.556   6.808  0.1671  0.0262 -0.5392
  122OSM   H13G12922   1.501   2.441   6.830 -0.8211  1.0385 -1.1776
  122OSM   C14F12923   1.605   2.421   6.631 -0.0392 -0.4926  0.2247
  122OSM   H14F12924   1.498   2.434   6.604 -0.5975 -0.8716  2.0811
  122OSM   H14G12925   1.639   2.316   6.618  0.3025 -0.3523 -0.0122
  122OSM   C15F12926   1.688   2.520   6.541  0.2066  0.2498 -0.4591
  122OSM   H15F12927   1.794   2.523   6.578 -0.1258  1.6564  0.4836
  122OSM   H15G12928   1.651   2.622   6.566 -1.3676 -0.8620  2.0874
  122OSM   C16F12929   1.696   2.482   6.391  0.1372 -0.2430 -0.2975
  122OSM   H16F12930   1.597   2.481   6.341  0.2039  0.8185 -0.4704
  122OSM   H16G12931   1.744   2.382   6.377  0.0286 -0.1611 -1.3655
  122OSM   C17F12932   1.771   2.584   6.306 -0.0057  0.1516 -0.2648
  122OSM   H17F12933   1.869   2.606   6.354  0.3889 -0.4333 -0.7938
  122OSM   H17G12934   1.722   2.684   6.309  0.0839  0.1837  0.1648
  122OSM   C18F12935   1.782   2.540   6.155  0.2130  0.2601  0.1699
  122OSM   H18F12936   1.841   2.446   6.152 -1.3689 -0.8118  1.3089
  122OSM   H18G12937   1.835   2.617   6.095  0.0939  0.7444  0.6800
  122OSM   H18H12938   1.688   2.512   6.103  0.6950  0.8667 -1.0551
  123OSM      N12939   3.463   1.600   3.464  0.3509  0.7047 -0.2197
  123OSM    C1512940   3.539   1.723   3.475 -0.1781  0.6704 -0.2361
  123OSM   H15A12941   3.479   1.795   3.530 -0.4116 -0.1867  0.6706
  123OSM   H15B12942   3.573   1.757   3.379 -1.4030  1.5397 -0.3944
  123OSM   H15C12943   3.632   1.705   3.526 -0.2295  2.1758  0.4203
  123OSM    C1412944   3.557   1.497   3.418 -0.4847 -0.1581 -0.3888
  123OSM   H14A12945   3.506   1.407   3.388 -0.5418 -0.3270  0.2013
  123OSM   H14B12946   3.643   1.471   3.478  0.2323  1.7175 -0.5252
  123OSM   H14C12947   3.602   1.528   3.325 -0.1472  2.3225  0.5248
  123OSM    C1312948   3.407   1.558   3.596 -0.4316  0.1276  0.5485
  123OSM   H13A12949   3.331   1.623   3.637 -1.0947  0.1787 -0.7018
  123OSM   H13B12950   3.490   1.551   3.664  1.0458  1.8106 -0.9830
  123OSM   H13C12951   3.346   1.471   3.577 -1.6588  0.1697  3.6616
  123OSM    C1212952   3.348   1.618   3.367  0.3010 -0.6569  0.4480
  123OSM   H12A12953   3.383   1.619   3.265  1.2950 -1.4524  0.7627
  123OSM   H12B12954   3.306   1.717   3.376  0.2868 -0.4269 -1.7262
  123OSM    C1112955   3.233   1.522   3.372  0.6900  0.2235  0.5506
  123OSM   H11A12956   3.157   1.547   3.295  1.5843  1.6918  0.0992
  123OSM   H11B12957   3.179   1.535   3.469 -1.5784 -0.6950 -0.5162
  123OSM      P12958   3.201   1.265   3.422  0.4289  0.4225 -0.3930
  123OSM    O1312959   3.075   1.250   3.355 -0.2294  0.1058  0.4221
  123OSM    O1412960   3.290   1.149   3.428 -0.2523  0.1813 -0.0695
  123OSM    O1112961   3.173   1.308   3.565  0.2299  0.1199 -0.4889
  123OSM    O1212962   3.272   1.386   3.362 -0.3795  0.3420 -0.6502
  123OSM    C1S12963   3.249   1.271   3.679  0.6980 -0.2754  0.4482
  123OSM    H1S12964   3.357   1.287   3.659  0.1167  0.8014 -2.2494
  123OSM    H1T12965   3.224   1.165   3.702 -1.0771  0.0313  0.0694
  123OSM     NF12966   3.288   1.295   3.914  0.5012 -0.0790 -0.3855
  123OSM    HNF12967   3.238   1.273   3.997 -1.5704  1.7496 -1.0428
  123OSM    C2S12968   3.212   1.348   3.808  0.0360  0.0437 -0.3819
  123OSM    H2S12969   3.237   1.454   3.788 -0.2145 -0.3032 -2.9061
  123OSM    C3S12970   3.065   1.332   3.834  0.3382 -0.9739  0.3780
  123OSM    H3S12971   3.034   1.226   3.827 -2.1846 -0.2641 -0.1575
  123OSM     O312972   2.978   1.387   3.733  0.1026  0.0167  0.3208
  123OSM    HO312973   3.029   1.366   3.655  1.1349  0.1295  0.9536
  123OSM    C4S12974   3.031   1.394   3.963  0.2420 -0.4428  0.3873
  123OSM    H4S12975   3.051   1.501   3.975  0.4882 -0.5530  0.9984
  123OSM    C5S12976   2.987   1.318   4.066  0.0736  0.7289 -0.1320
  123OSM    H5S12977   2.962   1.212   4.051 -0.5695  0.5951  1.6123
  123OSM    C6S12978   2.979   1.359   4.209  0.8244 -0.3121 -0.6150
  123OSM    H6S12979   3.025   1.459   4.223 -0.3109  0.6610 -3.1677
  123OSM    H6T12980   3.028   1.294   4.285 -1.9453 -1.2011  0.5183
  123OSM    C7S12981   2.835   1.352   4.260  0.3069  0.2685  0.0558
  123OSM    H7S12982   2.788   1.257   4.228  0.0735 -0.2751  1.9026
  123OSM    H7T12983   2.785   1.435   4.205  0.0475 -0.1370 -0.3328
  123OSM    C8S12984   2.802   1.370   4.409  0.4877  0.4656  0.2317
  123OSM    H8S12985   2.843   1.291   4.475  0.1279  0.0383 -0.0508
  123OSM    H8T12986   2.692   1.373   4.421  0.5800  2.7880  1.0274
  123OSM    C9S12987   2.849   1.507   4.460 -0.0001  0.1935  0.6049
  123OSM    H9S12988   2.954   1.524   4.429 -0.2008  1.7936  0.6918
  123OSM    H9T12989   2.850   1.501   4.571  0.4452 -1.2768  0.5339
  123OSM   C10S12990   2.764   1.627   4.416  0.1374  0.3926 -0.6397
  123OSM   H10S12991   2.657   1.605   4.436  0.9636 -1.5138  2.2868
  123OSM   H10T12992   2.768   1.646   4.306 -1.7833  1.2567 -0.5965
  123OSM   C11S12993   2.786   1.759   4.484 -0.6468  0.4840 -0.0219
  123OSM   H11S12994   2.741   1.840   4.424 -0.3464  1.7511  1.4083
  123OSM   H11T12995   2.894   1.784   4.490 -0.1064 -1.2591 -1.5186
  123OSM   C12S12996   2.725   1.758   4.622 -0.0043 -0.4810 -0.5129
  123OSM   H12S12997   2.771   1.674   4.678 -1.7925 -0.8600  0.4608
  123OSM   H12T12998   2.615   1.743   4.611 -0.4537 -0.8576  3.2977
  123OSM   C13S12999   2.742   1.894   4.691  0.0574  0.0594  0.5376
  123OSM   H13S13000   2.700   1.970   4.622 -0.4583 -3.7044 -3.8174
  123OSM   H13T13001   2.851   1.911   4.700  0.3924 -0.9558 -1.0200
  123OSM   C14S13002   2.668   1.899   4.823  0.1047 -0.7017 -0.3330
  123OSM   H14S13003   2.559   1.886   4.811  0.1600 -0.3471 -1.2680
  123OSM   H14T13004   2.679   2.001   4.866  3.6837 -1.6009  1.2977
  123OSM   C15S13005   2.731   1.797   4.932 -0.2141  0.1588  0.1985
  123OSM   H15S13006   2.841   1.803   4.925 -0.3252  1.0207 -1.4968
  123OSM   H15T13007   2.702   1.694   4.901 -0.6685  0.8508 -1.8135
  123OSM   C16S13008   2.699   1.836   5.070  0.2211 -0.1418 -0.2730
  123OSM   H16S13009   2.592   1.868   5.078  0.5105  0.5252  1.0952
  123OSM   H16T13010   2.761   1.919   5.111 -0.3000  0.3193 -0.3999
  123OSM   C17S13011   2.727   1.718   5.168  0.4704  0.8307  0.0399
  123OSM   H17S13012   2.672   1.622   5.158  2.2641 -0.3722  0.9668
  123OSM   H17T13013   2.692   1.751   5.268 -1.4075 -1.6687  0.3199
  123OSM   C18S13014   2.874   1.676   5.188  0.5852  0.7446  0.4338
  123OSM   H18S13015   2.933   1.765   5.218  2.6607 -0.7864  1.1231
  123OSM   H18T13016   2.918   1.631   5.096 -1.3930 -0.6734  0.1202
  123OSM   H18U13017   2.889   1.611   5.277  1.4253  0.4376  0.0842
  123OSM    C1F13018   3.424   1.295   3.915 -0.2836 -0.5041 -0.1479
  123OSM     OF13019   3.479   1.385   3.850 -0.2839 -0.5041  0.4094
  123OSM    C2F13020   3.493   1.188   3.993 -0.1245  0.1648 -0.0368
  123OSM    H2F13021   3.535   1.106   3.932 -0.7360  1.1719 -1.8757
  123OSM    H2G13022   3.423   1.153   4.072 -1.0758  1.3517 -0.3095
  123OSM    C3F13023   3.611   1.255   4.077 -0.0475 -0.1460 -0.3709
  123OSM    H3F13024   3.563   1.294   4.169  1.2275  1.1663 -0.2233
  123OSM    H3G13025   3.648   1.335   4.009 -1.2390  2.5004  1.9063
  123OSM    C4F13026   3.718   1.147   4.117  0.0157 -0.1074 -0.6120
  123OSM    H4F13027   3.814   1.186   4.157 -0.7065 -0.1162  1.2323
  123OSM    H4G13028   3.760   1.096   4.028 -0.7811  0.4156 -1.2984
  123OSM    C5F13029   3.673   1.041   4.215  0.3229  0.4461 -0.0902
  123OSM    H5F13030   3.743   0.956   4.230 -2.7456 -2.3610 -0.4020
  123OSM    H5G13031   3.581   0.989   4.180  0.5771 -0.6625  0.8139
  123OSM    C6F13032   3.639   1.107   4.356 -0.3352  0.4132  0.7071
  123OSM    H6F13033   3.574   1.196   4.341 -0.1308  0.4522  0.0051
  123OSM    H6G13034   3.729   1.136   4.414  0.6576  0.7500 -0.9233
  123OSM    C7F13035   3.571   0.994   4.436 -0.1249  0.6313  0.2544
  123OSM    H7F13036   3.652   0.921   4.459 -0.0145  0.2785 -1.1284
  123OSM    H7G13037   3.494   0.942   4.374 -0.7063  2.5208 -0.6926
  123OSM    C8F13038   3.517   1.029   4.575 -0.2117  0.1122 -0.1721
  123OSM    H8F13039   3.475   0.935   4.615  0.1164 -0.2848 -0.7390
  123OSM    H8G13040   3.434   1.101   4.559 -0.9724 -0.9486 -1.0710
  123OSM    C9F13041   3.619   1.093   4.670  0.3294  0.4000  0.5751
  123OSM    H9F13042   3.686   1.166   4.624 -1.1674  0.6033 -1.3924
  123OSM   C10F13043   3.658   1.057   4.795  0.4779  0.1861  0.0956
  123OSM   H10F13044   3.740   1.118   4.838  1.1492  0.4133 -1.4502
  123OSM   C11F13045   3.589   0.959   4.891 -0.9275  0.1931 -0.1171
  123OSM   H11F13046   3.671   0.890   4.920  0.7127  0.6840 -3.1875
  123OSM   H11G13047   3.515   0.899   4.834  1.0935 -0.2536 -2.4178
  123OSM   C12F13048   3.520   1.022   5.015  0.2012  0.0958  0.1599
  123OSM   H12F13049   3.433   1.086   4.986  0.4099  0.9852  1.4003
  123OSM   H12G13050   3.585   1.095   5.067  0.3774 -0.6251  0.9628
  123OSM   C13F13051   3.484   0.912   5.112  0.1820 -0.0833 -0.8415
  123OSM   H13F13052   3.572   0.847   5.132  1.7783  2.4154  0.8359
  123OSM   H13G13053   3.394   0.860   5.074 -0.0366 -0.8818  0.6711
  123OSM   C14F13054   3.460   0.978   5.247  0.6310  0.0995  0.6944
  123OSM   H14F13055   3.388   1.061   5.231 -0.6174 -1.2354 -1.0629
  123OSM   H14G13056   3.552   1.026   5.285  2.6843 -0.9519 -2.5324
  123OSM   C15F13057   3.403   0.878   5.349 -0.1583  0.1260 -0.0061
  123OSM   H15F13058   3.456   0.882   5.446 -2.5068 -1.7833  1.4746
  123OSM   H15G13059   3.411   0.775   5.310 -0.1861  0.3783 -0.6951
  123OSM   C16F13060   3.257   0.906   5.375  0.2321 -0.4206  0.1180
  123OSM   H16F13061   3.206   0.909   5.277 -0.3304  1.1507  0.4159
  123OSM   H16G13062   3.234   1.010   5.407  0.7459 -0.1581 -0.3685
  123OSM   C17F13063   3.194   0.792   5.458  0.0423  0.4391  0.0356
  123OSM   H17F13064   3.234   0.696   5.418  1.9360 -0.5606  3.8311
  123OSM   H17G13065   3.085   0.776   5.448 -0.1408  1.3722  0.4520
  123OSM   C18F13066   3.218   0.805   5.608  0.0628  0.2090 -0.4218
  123OSM   H18F13067   3.126   0.835   5.663  0.3285  0.9096 -0.3443
  123OSM   H18G13068   3.300   0.874   5.637 -0.1318  0.1558  0.2715
  123OSM   H18H13069   3.246   0.707   5.653 -0.5792 -0.0609 -0.5935
  124OSM      N13070   0.306   2.266   3.182  0.1201  0.2877 -0.6736
  124OSM    C1513071   0.214   2.311   3.068 -0.9155 -0.8626 -0.0958
  124OSM   H15A13072   0.234   2.414   3.041 -0.1031 -1.3352 -1.3960
  124OSM   H15B13073   0.110   2.296   3.093 -0.3128 -0.1443  3.2512
  124OSM   H15C13074   0.245   2.255   2.981  1.1838  1.2417 -0.8134
  124OSM    C1413075   0.268   2.123   3.217  1.0036  0.2430  0.0362
  124OSM   H14A13076   0.335   2.084   3.293  0.3597  0.3551  0.6740
  124OSM   H14B13077   0.289   2.067   3.128 -0.6547 -0.6328  0.1709
  124OSM   H14C13078   0.162   2.114   3.230  0.8819  0.8126 -0.5521
  124OSM    C1313079   0.441   2.274   3.136 -0.1765  0.2628 -0.0049
  124OSM   H13A13080   0.515   2.258   3.214 -0.2199  0.1520  0.0138
  124OSM   H13B13081   0.455   2.377   3.108 -1.4266  0.6328  0.6368
  124OSM   H13C13082   0.468   2.214   3.050 -5.9021  0.1551 -2.1820
  124OSM    C1213083   0.284   2.370   3.297  0.1540  0.1272  0.0487
  124OSM   H12A13084   0.179   2.364   3.323 -0.1168  1.3255 -0.6751
  124OSM   H12B13085   0.306   2.469   3.261 -0.9260  0.0497 -0.9139
  124OSM    C1113086   0.368   2.364   3.424  0.1909  0.4449  0.4048
  124OSM   H11A13087   0.353   2.262   3.466  1.2399  0.3374  0.5487
  124OSM   H11B13088   0.326   2.438   3.496 -1.7466 -1.4421  1.3151
  124OSM      P13089   0.579   2.514   3.390 -0.9237  0.1805 -0.2848
  124OSM    O1313090   0.726   2.489   3.384 -0.0978 -0.6035  0.1394
  124OSM    O1413091   0.522   2.591   3.277 -0.1303  0.1420  0.8724
  124OSM    O1113092   0.549   2.587   3.530  0.7120  0.6773 -0.0461
  124OSM    O1213093   0.507   2.375   3.403 -0.3431  0.0962 -0.2475
  124OSM    C1S13094   0.577   2.509   3.647  0.3157  0.6846 -0.5711
  124OSM    H1S13095   0.676   2.458   3.640 -0.8507 -1.6069 -1.6154
  124OSM    H1T13096   0.501   2.434   3.676 -1.8856  3.2613  0.7196
  124OSM     NF13097   0.636   2.550   3.887  0.1189 -0.1717  0.2594
  124OSM    HNF13098   0.564   2.505   3.940  0.2788 -1.1033 -0.2918
  124OSM    C2S13099   0.590   2.614   3.764 -0.3134 -0.7683 -0.0409
  124OSM    H2S13100   0.668   2.687   3.734 -2.3794  1.5166 -0.1144
  124OSM    C3S13101   0.467   2.699   3.787 -0.2876 -0.9901 -0.5611
  124OSM    H3S13102   0.373   2.641   3.798  0.0591 -1.5741 -0.6753
  124OSM     O313103   0.435   2.784   3.676  0.2817  0.0425  0.2966
  124OSM    HO313104   0.497   2.759   3.607 -0.2683  0.7102 -0.4622
  124OSM    C4S13105   0.473   2.780   3.916 -0.1270  0.6332  0.3987
  124OSM    H4S13106   0.430   2.732   4.005  1.7660 -1.3815  0.3212
  124OSM    C5S13107   0.518   2.906   3.922  0.1377  0.4152 -0.3943
  124OSM    H5S13108   0.560   2.953   3.832 -2.2626  1.0422 -1.2621
  124OSM    C6S13109   0.524   2.996   4.044 -0.8704  0.2162 -0.2728
  124OSM    H6S13110   0.452   3.076   4.017 -0.7870  0.3937  0.0268
  124OSM    H6T13111   0.627   3.030   4.067 -1.5055  1.7190  0.4669
  124OSM    C7S13112   0.475   2.946   4.188 -0.4671 -0.2499  0.4557
  124OSM    H7S13113   0.523   2.853   4.224 -2.0000 -0.1478  3.0377
  124OSM    H7T13114   0.370   2.910   4.177 -1.0195  1.2895  0.4170
  124OSM    C8S13115   0.487   3.045   4.303  0.3078  0.2742 -0.5703
  124OSM    H8S13116   0.447   3.144   4.274  0.0676  0.1019 -0.8311
  124OSM    H8T13117   0.592   3.077   4.322  0.0625  1.1991 -0.7498
  124OSM    C9S13118   0.442   3.005   4.446  0.0053  0.3050  0.1745
  124OSM    H9S13119   0.430   2.897   4.471 -3.2798  0.8453  1.3516
  124OSM    H9T13120   0.335   3.032   4.439  0.1239  0.4714 -1.5403
  124OSM   C10S13121   0.507   3.081   4.562  0.5010 -0.3339  0.5628
  124OSM   H10S13122   0.485   3.190   4.555 -0.9700 -0.6251  0.2565
  124OSM   H10T13123   0.618   3.082   4.553  0.4147 -1.9715 -1.4721
  124OSM   C11S13124   0.474   3.034   4.707 -0.1752  0.3374  0.4312
  124OSM   H11S13125   0.507   2.932   4.733  0.3875 -0.0439 -1.6406
  124OSM   H11T13126   0.364   3.027   4.720 -0.6348 -1.4654 -3.2018
  124OSM   C12S13127   0.528   3.120   4.822  0.0434  0.3782 -0.0508
  124OSM   H12S13128   0.515   3.229   4.803 -4.4374  0.0564  0.1025
  124OSM   H12T13129   0.637   3.109   4.838  0.5438  3.4397 -0.6978
  124OSM   C13S13130   0.442   3.095   4.948 -0.2609  0.4424  0.0675
  124OSM   H13S13131   0.394   2.995   4.951 -0.6991  0.6603  0.4577
  124OSM   H13T13132   0.358   3.168   4.953 -1.3710 -0.8131  0.2333
  124OSM   C14S13133   0.535   3.108   5.068  0.2027 -0.0080  0.4770
  124OSM   H14S13134   0.588   3.205   5.054  0.1433 -0.1978 -1.4230
  124OSM   H14T13135   0.613   3.028   5.067  1.7476  1.4434 -0.3489
  124OSM   C15S13136   0.456   3.083   5.189 -0.3154  0.1918 -0.9226
  124OSM   H15S13137   0.459   2.979   5.227  2.9754  0.8455  1.0629
  124OSM   H15T13138   0.352   3.107   5.161 -0.8728 -0.7189  0.2684
  124OSM   C16S13139   0.484   3.174   5.304  0.3432 -0.9987 -0.0467
  124OSM   H16S13140   0.421   3.265   5.297  0.2731 -1.0187  0.3462
  124OSM   H16T13141   0.594   3.191   5.305  0.2231 -0.1430  1.8183
  124OSM   C17S13142   0.440   3.121   5.439  0.2272  0.1457 -0.4677
  124OSM   H17S13143   0.500   3.041   5.486 -2.9032 -1.3469  1.3218
  124OSM   H17T13144   0.336   3.080   5.436  0.6555 -1.0586  0.4161
  124OSM   C18S13145   0.428   3.228   5.543  0.4848 -1.1205 -0.6092
  124OSM   H18S13146   0.528   3.277   5.541 -0.3992  0.7827  0.2131
  124OSM   H18T13147   0.401   3.177   5.638 -2.4288 -0.8467 -1.2126
  124OSM   H18U13148   0.346   3.300   5.525  0.6508 -0.9718 -0.7762
  124OSM    C1F13149   0.770   2.519   3.900 -0.3845  0.8386 -0.5818
  124OSM     OF13150   0.865   2.556   3.825  0.2633  0.0805 -0.5183
  124OSM    C2F13151   0.801   2.428   4.010 -0.2691  0.7956 -0.2220
  124OSM    H2F13152   0.912   2.424   4.013 -0.2109 -0.2224 -2.1711
  124OSM    H2G13153   0.762   2.330   3.973 -0.5817  1.1362 -0.8145
  124OSM    C3F13154   0.740   2.475   4.146  0.0290  0.1466 -0.7037
  124OSM    H3F13155   0.736   2.392   4.219  2.8299  1.2648  0.9004
  124OSM    H3G13156   0.636   2.513   4.141  0.0701  0.2672 -0.6249
  124OSM    C4F13157   0.820   2.595   4.206  0.4622 -0.4193  0.5476
  124OSM    H4F13158   0.818   2.678   4.132  0.8454  0.1117  1.1297
  124OSM    H4G13159   0.924   2.559   4.221  0.6274  0.3243  1.2054
  124OSM    C5F13160   0.767   2.656   4.336 -0.1112 -0.7103  0.2622
  124OSM    H5F13161   0.667   2.695   4.307  0.8250  0.8552 -1.0449
  124OSM    H5G13162   0.829   2.748   4.347  1.4582 -1.8278  1.3079
  124OSM    C6F13163   0.780   2.562   4.458  0.0834  0.2726 -0.8286
  124OSM    H6F13164   0.880   2.514   4.456 -0.8925 -1.8413 -1.4160
  124OSM    H6G13165   0.712   2.476   4.441  1.6008 -0.9359 -1.0495
  124OSM    C7F13166   0.757   2.641   4.593  0.2265  0.9300  0.5135
  124OSM    H7F13167   0.654   2.681   4.585 -0.0619 -0.0939 -2.2627
  124OSM    H7G13168   0.828   2.727   4.585  0.7627  0.3909 -1.1124
  124OSM    C8F13169   0.788   2.555   4.720  0.1853  0.5986 -0.5374
  124OSM    H8F13170   0.885   2.502   4.714 -1.0085 -1.8139  0.0908
  124OSM    H8G13171   0.716   2.470   4.722  0.4663  0.2975 -2.0106
  124OSM    C9F13172   0.786   2.631   4.848 -0.2599  0.0198  1.0805
  124OSM    H9F13173   0.790   2.740   4.833 -1.4913  0.1145  1.2723
  124OSM   C10F13174   0.797   2.588   4.975  0.2203 -0.6028 -0.4248
  124OSM   H10F13175   0.804   2.657   5.060 -0.7323 -3.1611  1.8794
  124OSM   C11F13176   0.820   2.440   5.025 -0.4012  0.3005 -0.3078
  124OSM   H11F13177   0.917   2.440   5.080 -1.0445 -2.2762  0.9728
  124OSM   H11G13178   0.812   2.363   4.946 -0.5070 -0.4873  0.4585
  124OSM   C12F13179   0.719   2.388   5.121 -0.1004 -0.0594 -0.5603
  124OSM   H12F13180   0.752   2.287   5.152  0.3780 -0.0173 -0.9087
  124OSM   H12G13181   0.615   2.385   5.083 -0.1887  0.6815 -0.3975
  124OSM   C13F13182   0.702   2.474   5.254 -0.0409  0.0869 -0.0630
  124OSM   H13F13183   0.664   2.578   5.245 -1.6118 -0.5927 -1.8588
  124OSM   H13G13184   0.804   2.486   5.297 -0.2936  0.8182  0.3628
  124OSM   C14F13185   0.613   2.409   5.362  0.6011 -0.0962 -0.8512
  124OSM   H14F13186   0.624   2.299   5.372  0.7771 -0.0735 -0.7993
  124OSM   H14G13187   0.513   2.416   5.314  0.0956 -3.1813 -0.4094
  124OSM   C15F13188   0.627   2.480   5.497  0.2578 -0.4766  0.1996
  124OSM   H15F13189   0.633   2.586   5.462  0.4060 -0.8742 -1.0509
  124OSM   H15G13190   0.714   2.447   5.558 -0.7220 -3.3361  0.2000
  124OSM   C16F13191   0.508   2.444   5.577  0.3354  0.0054 -0.6266
  124OSM   H16F13192   0.487   2.338   5.604 -2.3591  0.6899  0.1877
  124OSM   H16G13193   0.414   2.466   5.522  0.5071  0.7492 -0.6296
  124OSM   C17F13194   0.502   2.528   5.705  0.0672 -0.5041 -0.1074
  124OSM   H17F13195   0.394   2.528   5.732 -0.2989  0.6243 -1.4507
  124OSM   H17G13196   0.524   2.635   5.684 -0.8865 -0.5823 -1.6515
  124OSM   C18F13197   0.579   2.484   5.828 -0.1987 -0.3576 -0.3602
  124OSM   H18F13198   0.570   2.569   5.899  0.9037 -0.1942 -0.3976
  124OSM   H18G13199   0.687   2.460   5.812 -0.0694  0.7532 -1.2999
  124OSM   H18H13200   0.531   2.396   5.874  2.5992 -0.7622  2.1220
  125OSM      N13201   3.112   6.543   2.729  0.0030 -0.4562 -0.6924
  125OSM    C1513202   3.039   6.612   2.618  0.4435 -0.0015 -0.3780
  125OSM   H15A13203   3.038   6.718   2.636 -2.9039  0.0414 -0.1681
  125OSM   H15B13204   2.934   6.588   2.610 -0.0548  0.6868  2.7431
  125OSM   H15C13205   3.081   6.585   2.523  0.3473 -0.8470 -0.1889
  125OSM    C1413206   3.099   6.395   2.719  0.2388 -0.1220 -0.1673
  125OSM   H14A13207   3.163   6.350   2.794  0.7829  2.2199  0.8424
  125OSM   H14B13208   3.127   6.356   2.622  0.4888  0.3108 -0.2697
  125OSM   H14C13209   3.002   6.358   2.748 -0.1663  1.1668  0.1788
  125OSM    C1313210   3.257   6.583   2.717 -0.3499  0.5756  0.2955
  125OSM   H13A13211   3.267   6.687   2.742 -0.4643  0.6645 -0.0256
  125OSM   H13B13212   3.300   6.578   2.619 -0.3909  3.1739  0.0771
  125OSM   H13C13213   3.311   6.537   2.799 -1.6949  1.3138  1.6597
  125OSM    C1213214   3.059   6.582   2.866 -0.7353 -0.6947 -0.6928
  125OSM   H12A13215   2.953   6.561   2.861 -0.9609  0.6617 -2.7579
  125OSM   H12B13216   3.066   6.690   2.868  1.2146 -0.7892 -0.1547
  125OSM    C1113217   3.128   6.517   2.990  0.8372 -0.0059  0.2669
  125OSM   H11A13218   3.101   6.410   2.981  1.8203 -0.3619  1.2524
  125OSM   H11B13219   3.082   6.566   3.078 -1.0119  0.7572 -1.0570
  125OSM      P13220   3.356   6.464   3.094 -0.3663  0.3103  0.0109
  125OSM    O1313221   3.326   6.317   3.097 -0.3719  0.2864  0.3000
  125OSM    O1413222   3.502   6.508   3.075  0.0510  0.2231 -0.4389
  125OSM    O1113223   3.309   6.526   3.228  0.4660  0.1786 -0.6639
  125OSM    O1213224   3.265   6.531   2.988  0.3090 -0.5884 -0.0904
  125OSM    C1S13225   3.323   6.456   3.355  0.3432 -0.1380 -0.9672
  125OSM    H1S13226   3.432   6.442   3.373  0.1177  0.9449  1.5777
  125OSM    H1T13227   3.267   6.360   3.352 -0.4051  0.2212  0.5244
  125OSM     NF13228   3.285   6.443   3.595 -0.2369  0.1730 -0.4981
  125OSM    HNF13229   3.202   6.414   3.643  0.5780 -1.2203  0.1396
  125OSM    C2S13230   3.264   6.531   3.484  1.0639  1.4164 -0.1332
  125OSM    H2S13231   3.321   6.625   3.499  0.0638  2.1711 -0.9273
  125OSM    C3S13232   3.115   6.569   3.463  0.4436 -0.3320 -0.1475
  125OSM    H3S13233   3.060   6.473   3.464 -1.0000  0.4592  1.1986
  125OSM     O313234   3.080   6.629   3.336  0.1307 -0.1121 -0.2920
  125OSM    HO313235   3.164   6.627   3.290 -0.4784  0.5874 -1.4917
  125OSM    C4S13236   3.054   6.652   3.580 -0.7739  0.1597 -0.0490
  125OSM    H4S13237   2.992   6.594   3.649  0.3649 -0.1184  0.7706
  125OSM    C5S13238   3.073   6.781   3.593 -0.4842 -0.4842 -0.3686
  125OSM    H5S13239   3.116   6.826   3.502 -1.1785 -2.2761 -1.6333
  125OSM    C6S13240   3.032   6.878   3.702  0.1422  0.1502 -0.3284
  125OSM    H6S13241   2.937   6.931   3.680  1.4894  2.5982 -0.5846
  125OSM    H6T13242   3.108   6.955   3.728  0.9548 -1.3338  2.0191
  125OSM    C7S13243   2.995   6.805   3.830  0.1086  0.4237  0.1157
  125OSM    H7S13244   3.092   6.761   3.864 -0.1978  0.0140  0.4690
  125OSM    H7T13245   2.928   6.718   3.816  0.6198  0.0526 -0.0831
  125OSM    C8S13246   2.930   6.896   3.937  0.1736  0.5724  0.0501
  125OSM    H8S13247   2.831   6.939   3.911 -0.2493  1.0491  2.2308
  125OSM    H8T13248   2.991   6.987   3.956 -0.1042  0.3921  2.0064
  125OSM    C9S13249   2.933   6.809   4.068 -0.0792 -0.4792 -0.0899
  125OSM    H9S13250   3.032   6.764   4.091 -1.1116 -1.3124  3.3170
  125OSM    H9T13251   2.847   6.738   4.063 -2.5000  2.2025  0.5034
  125OSM   C10S13252   2.895   6.879   4.193 -0.7473  0.1637 -0.2981
  125OSM   H10S13253   2.791   6.917   4.184 -0.5221  1.3631  1.5294
  125OSM   H10T13254   2.953   6.973   4.204  1.3365 -1.2088  1.1393
  125OSM   C11S13255   2.918   6.795   4.320 -0.7635  0.0195  0.0891
  125OSM   H11S13256   3.028   6.795   4.337 -0.9143 -0.3468  1.1289
  125OSM   H11T13257   2.883   6.691   4.304 -1.0766  0.3247 -1.3050
  125OSM   C12S13258   2.844   6.854   4.437 -0.3681  1.1051 -0.2893
  125OSM   H12S13259   2.857   6.793   4.530  0.0534  1.1567 -0.3129
  125OSM   H12T13260   2.736   6.859   4.414 -0.4566  0.4152 -0.0538
  125OSM   C13S13261   2.892   6.997   4.485 -0.7314  0.3685 -0.3826
  125OSM   H13S13262   2.887   7.065   4.398  0.6350 -1.4186 -1.9289
  125OSM   H13T13263   2.995   6.991   4.527 -0.3840  0.8805 -1.1361
  125OSM   C14S13264   2.798   7.039   4.603 -0.0059 -0.3585 -0.2274
  125OSM   H14S13265   2.692   7.044   4.571  0.5748 -1.6732 -2.6473
  125OSM   H14T13266   2.831   7.139   4.638 -0.8461 -0.4340  0.8124
  125OSM   C15S13267   2.795   6.950   4.732 -0.0472  0.0363 -0.3897
  125OSM   H15S13268   2.755   6.851   4.702 -0.1153  0.4542 -1.7718
  125OSM   H15T13269   2.730   7.003   4.805  1.0926  0.4037  0.3842
  125OSM   C16S13270   2.938   6.939   4.794 -0.5969  0.2109 -0.0137
  125OSM   H16S13271   2.971   7.044   4.808 -1.6756  0.7414 -1.1732
  125OSM   H16T13272   2.999   6.880   4.722 -0.9408  0.5432 -0.5872
  125OSM   C17S13273   2.949   6.864   4.929  0.8247  0.0019  0.4417
  125OSM   H17S13274   3.051   6.870   4.972  0.1797 -1.9768  2.4051
  125OSM   H17T13275   2.921   6.756   4.923 -0.0289  0.2438 -0.1993
  125OSM   C18S13276   2.870   6.936   5.039 -0.5296  0.3514 -0.0439
  125OSM   H18S13277   2.766   6.896   5.042 -1.0483  1.7158  1.5528
  125OSM   H18T13278   2.872   7.046   5.027  2.3970  0.5236  1.1455
  125OSM   H18U13279   2.905   6.916   5.143 -1.3176 -0.2269  0.1271
  125OSM    C1F13280   3.401   6.404   3.641 -0.9394 -0.6990 -0.6826
  125OSM     OF13281   3.506   6.456   3.607 -0.6686  0.1950  0.3445
  125OSM    C2F13282   3.391   6.297   3.743 -0.6386 -0.0240 -0.2846
  125OSM    H2F13283   3.286   6.262   3.740 -1.1193  1.4094 -1.0464
  125OSM    H2G13284   3.418   6.346   3.839 -0.3051 -0.7217 -0.0078
  125OSM    C3F13285   3.492   6.174   3.725  0.3391  0.4602  0.3007
  125OSM    H3F13286   3.594   6.210   3.703  0.9020 -1.1167  0.2021
  125OSM    H3G13287   3.456   6.114   3.639  1.0751 -0.0815  0.3644
  125OSM    C4F13288   3.494   6.078   3.846  0.5199 -0.1090  0.2948
  125OSM    H4F13289   3.546   5.983   3.824  2.1516  0.5906  1.0230
  125OSM    H4G13290   3.389   6.053   3.872 -0.1691  1.2343 -1.0291
  125OSM    C5F13291   3.555   6.147   3.964 -0.1143 -0.0388 -0.1752
  125OSM    H5F13292   3.518   6.248   3.991  0.3053 -0.3814  1.7882
  125OSM    H5G13293   3.662   6.171   3.945 -0.4070  0.4086 -1.3996
  125OSM    C6F13294   3.566   6.046   4.085  0.0150 -0.6399 -0.0045
  125OSM    H6F13295   3.601   5.949   4.045  3.5160  0.5425 -0.1150
  125OSM    H6G13296   3.465   6.024   4.126 -0.5141  1.4941 -0.0134
  125OSM    C7F13297   3.651   6.094   4.196 -0.9006 -0.1642 -0.5532
  125OSM    H7F13298   3.605   6.188   4.231  0.5205  0.4651 -0.3281
  125OSM    H7G13299   3.754   6.112   4.157 -1.4002 -0.1777 -1.9217
  125OSM    C8F13300   3.670   5.999   4.319 -0.4581 -0.3972 -0.3161
  125OSM    H8F13301   3.746   5.927   4.281 -1.0342  0.6915 -3.8205
  125OSM    H8G13302   3.574   5.946   4.330 -0.9548  0.8065  1.6959
  125OSM    C9F13303   3.717   6.075   4.442  0.3122 -0.6711  0.3073
  125OSM    H9F13304   3.821   6.109   4.441 -0.6465  2.7101 -0.7820
  125OSM   C10F13305   3.645   6.115   4.550 -0.2925  0.4169  0.4820
  125OSM   H10F13306   3.693   6.165   4.636  1.1851 -0.7791  0.3975
  125OSM   C11F13307   3.498   6.080   4.558  0.3856  0.4384  0.5271
  125OSM   H11F13308   3.463   5.989   4.505 -0.9327  0.8519  0.6506
  125OSM   H11G13309   3.457   6.160   4.494  0.3254  1.8661  2.2887
  125OSM   C12F13310   3.447   6.084   4.703 -0.3058 -0.0768  0.2094
  125OSM   H12F13311   3.516   6.021   4.763  1.6064  3.3091  1.8423
  125OSM   H12G13312   3.346   6.038   4.697  0.0778 -0.7763 -3.1850
  125OSM   C13F13313   3.433   6.228   4.756 -0.4651  0.0366 -0.1926
  125OSM   H13F13314   3.365   6.281   4.687  0.1081  0.6928 -0.2663
  125OSM   H13G13315   3.527   6.287   4.750 -0.3148 -0.0326  1.0388
  125OSM   C14F13316   3.383   6.238   4.899 -0.1471 -0.4113 -0.1609
  125OSM   H14F13317   3.286   6.186   4.912  1.0589 -2.6787  0.3482
  125OSM   H14G13318   3.360   6.344   4.924 -1.9034  0.1142 -3.3639
  125OSM   C15F13319   3.483   6.185   5.003 -0.8537 -0.5518 -0.6683
  125OSM   H15F13320   3.577   6.243   4.990 -1.2612  0.9793  2.2015
  125OSM   H15G13321   3.503   6.080   4.975  1.9155 -0.1914 -0.3458
  125OSM   C16F13322   3.445   6.214   5.145 -0.5678  0.5551 -0.8745
  125OSM   H16F13323   3.360   6.148   5.173 -0.5456  0.6187 -0.6536
  125OSM   H16G13324   3.412   6.320   5.143 -0.2540  0.6610 -3.2006
  125OSM   C17F13325   3.568   6.194   5.245  0.0611  0.7983  0.4733
  125OSM   H17F13326   3.639   6.277   5.229 -0.1513  0.7206 -1.0096
  125OSM   H17G13327   3.611   6.094   5.221 -1.7011 -0.0475  0.6271
  125OSM   C18F13328   3.526   6.181   5.393 -0.2050  0.1927  0.9672
  125OSM   H18F13329   3.616   6.173   5.457  0.1825 -0.6989  0.3186
  125OSM   H18G13330   3.454   6.099   5.413 -1.3187  1.1180  0.8433
  125OSM   H18H13331   3.480   6.278   5.422 -0.3945  0.9481 -1.6340
  126OSM      N13332   3.139   0.733   3.650  0.2670 -0.3546  0.0711
  126OSM    C1513333   3.153   0.647   3.773 -0.5874 -0.7325 -0.1465
  126OSM   H15A13334   3.059   0.617   3.816  0.6658 -0.0592  3.4780
  126OSM   H15B13335   3.218   0.694   3.847 -0.4346 -0.8896 -0.1800
  126OSM   H15C13336   3.200   0.555   3.740 -2.3346 -1.2299 -1.3588
  126OSM    C1413337   3.268   0.758   3.593  0.0525  0.0232  0.3463
  126OSM   H14A13338   3.307   0.677   3.534  0.3881  1.0203 -0.8447
  126OSM   H14B13339   3.342   0.777   3.670  2.4993 -1.0672 -1.5977
  126OSM   H14C13340   3.272   0.849   3.535 -2.7431 -1.2019 -2.0109
  126OSM    C1313341   3.067   0.665   3.539  0.0629  0.0361 -0.5124
  126OSM   H13A13342   3.121   0.588   3.486  2.7591  0.8689  0.8370
  126OSM   H13B13343   3.012   0.733   3.475 -1.8276  0.0313  1.0095
  126OSM   H13C13344   2.983   0.617   3.586  1.6144 -0.8246  1.5035
  126OSM    C1213345   3.066   0.867   3.685  0.7373 -0.0286  0.1753
  126OSM   H12A13346   3.121   0.918   3.764 -0.4508  1.5425  0.0374
  126OSM   H12B13347   2.963   0.852   3.713  0.5467  2.6990  1.3221
  126OSM    C1113348   3.037   0.966   3.569  0.2736 -0.5103 -0.2544
  126OSM   H11A13349   3.136   0.975   3.520  1.5852  2.1481  2.5683
  126OSM   H11B13350   3.021   1.069   3.608 -0.1026 -0.8192  0.4294
  126OSM      P13351   2.778   0.939   3.522 -0.1291 -0.0131 -0.0522
  126OSM    O1313352   2.732   1.080   3.509 -0.6601  0.1420 -0.2010
  126OSM    O1413353   2.706   0.838   3.449  0.1952  0.1483 -0.4548
  126OSM    O1113354   2.766   0.909   3.675 -0.7980  0.4442  0.0588
  126OSM    O1213355   2.935   0.929   3.478  0.2634 -0.3107  0.5566
  126OSM    C1S13356   2.712   0.796   3.733  0.3007 -1.2499 -0.0563
  126OSM    H1S13357   2.766   0.707   3.696 -0.8134 -0.9072 -2.7583
  126OSM    H1T13358   2.606   0.777   3.708 -0.1593 -0.7508  1.4207
  126OSM     NF13359   2.705   0.660   3.927 -0.6549  0.1611  0.3179
  126OSM    HNF13360   2.608   0.661   3.948 -0.0482  0.1585  3.6596
  126OSM    C2S13361   2.745   0.791   3.883  0.7412  0.1116 -0.1114
  126OSM    H2S13362   2.854   0.806   3.901  0.5785  1.3774 -0.1357
  126OSM    C3S13363   2.686   0.911   3.961 -0.4161 -0.2579  0.4136
  126OSM    H3S13364   2.576   0.897   3.956 -0.3871 -0.4267  0.2412
  126OSM     O313365   2.732   1.030   3.897  0.1612 -0.3426 -0.5272
  126OSM    HO313366   2.778   0.994   3.821 -2.2970  0.4708 -2.5838
  126OSM    C4S13367   2.735   0.923   4.110  0.2212  0.0354 -0.1142
  126OSM    H4S13368   2.830   0.980   4.113  0.7115 -0.4808 -3.0522
  126OSM    C5S13369   2.658   0.903   4.217  0.7032  0.7514 -0.4314
  126OSM    H5S13370   2.554   0.869   4.209  0.7435  0.7726 -1.1610
  126OSM    C6S13371   2.706   0.927   4.358 -0.0978 -0.5390  0.4435
  126OSM    H6S13372   2.810   0.965   4.354  0.7944 -2.9048 -0.4018
  126OSM    H6T13373   2.704   0.834   4.419  1.7371 -0.4629  0.6674
  126OSM    C7S13374   2.626   1.033   4.438 -0.2304 -0.3903 -0.3155
  126OSM    H7S13375   2.521   0.995   4.439  0.3280 -2.0484 -0.8830
  126OSM    H7T13376   2.622   1.126   4.378  1.1227  0.4587  0.8719
  126OSM    C8S13377   2.681   1.068   4.581  0.3506  0.0382  0.1634
  126OSM    H8S13378   2.615   1.148   4.621  0.0434 -0.7247  1.2079
  126OSM    H8T13379   2.787   1.094   4.565  0.4337 -0.5640 -0.3161
  126OSM    C9S13380   2.676   0.957   4.680  0.0651  0.2594 -0.1428
  126OSM    H9S13381   2.742   0.877   4.641  0.8162  0.3152  0.9879
  126OSM    H9T13382   2.570   0.923   4.681  0.6797 -1.8604  1.4665
  126OSM   C10S13383   2.731   1.003   4.817 -0.2239  0.2059 -0.2615
  126OSM   H10S13384   2.824   1.060   4.800 -1.0353  1.4019 -0.8366
  126OSM   H10T13385   2.755   0.920   4.887  0.3749  0.5378 -0.0705
  126OSM   C11S13386   2.637   1.105   4.885  0.3839 -0.0994 -0.5292
  126OSM   H11S13387   2.530   1.076   4.870  1.0551 -1.7804 -2.5491
  126OSM   H11T13388   2.633   1.205   4.837 -3.2293  0.8967  1.3852
  126OSM   C12S13389   2.685   1.116   5.032  0.3836 -0.9736 -0.0578
  126OSM   H12S13390   2.795   1.128   5.044  0.2669 -0.6089  0.7487
  126OSM   H12T13391   2.663   1.025   5.092 -0.0716 -0.7756  0.0851
  126OSM   C13S13392   2.624   1.242   5.103  0.2459 -0.2979  0.2568
  126OSM   H13S13393   2.520   1.260   5.069  0.4987  1.5130  0.3547
  126OSM   H13T13394   2.676   1.333   5.066 -1.0625  0.4564  0.1938
  126OSM   C14S13395   2.640   1.242   5.255 -0.3216 -0.4923 -0.1983
  126OSM   H14S13396   2.745   1.209   5.275  1.1691  4.9516  3.0110
  126OSM   H14T13397   2.573   1.167   5.302 -1.8568  0.8464 -0.1671
  126OSM   C15S13398   2.630   1.388   5.317  0.0131  0.5943  0.0631
  126OSM   H15S13399   2.527   1.425   5.301  0.9409  3.1391 -0.5470
  126OSM   H15T13400   2.703   1.454   5.265  0.7536 -0.1028  0.1863
  126OSM   C16S13401   2.652   1.396   5.468  0.8079 -0.2306  0.1116
  126OSM   H16S13402   2.743   1.450   5.502  0.4466 -1.3849  3.2454
  126OSM   H16T13403   2.684   1.305   5.523 -0.1990  0.5801  2.1068
  126OSM   C17S13404   2.527   1.445   5.533 -0.9661  0.0650  0.6132
  126OSM   H17S13405   2.484   1.535   5.486 -0.7101 -0.1264  0.0074
  126OSM   H17T13406   2.555   1.485   5.633  1.9621 -0.2174  0.0009
  126OSM   C18S13407   2.418   1.336   5.545  0.0634 -0.2373  0.6433
  126OSM   H18S13408   2.372   1.335   5.645 -1.6028  1.9584 -0.0190
  126OSM   H18T13409   2.462   1.235   5.531  3.5466  1.1594  0.5072
  126OSM   H18U13410   2.345   1.350   5.462  0.3284 -0.0479  0.4387
  126OSM    C1F13411   2.778   0.548   3.918  0.8171 -0.6643  0.4001
  126OSM     OF13412   2.885   0.549   3.866 -0.3398  0.1204  0.2950
  126OSM    C2F13413   2.708   0.421   3.968 -0.3614 -0.4139  0.1215
  126OSM    H2F13414   2.703   0.347   3.885 -2.7961  1.0798 -1.1891
  126OSM    H2G13415   2.601   0.449   3.979 -0.3393  0.6930 -1.9581
  126OSM    C3F13416   2.773   0.389   4.107 -0.0818 -0.2806  0.4239
  126OSM    H3F13417   2.881   0.412   4.098 -0.7302  2.8839 -0.6070
  126OSM    H3G13418   2.762   0.280   4.125  0.4916 -0.9759 -2.7752
  126OSM    C4F13419   2.726   0.474   4.231 -0.1098  0.4141  0.8264
  126OSM    H4F13420   2.700   0.575   4.194 -0.0113  0.2104  0.1897
  126OSM    H4G13421   2.815   0.474   4.297  0.9467 -3.1213 -0.3401
  126OSM    C5F13422   2.603   0.407   4.294  0.1638  0.0350 -0.0575
  126OSM    H5F13423   2.617   0.299   4.314  0.8809  0.2332  0.5178
  126OSM    H5G13424   2.524   0.411   4.215  0.4196 -0.4911 -0.3420
  126OSM    C6F13425   2.549   0.507   4.398 -0.0978  0.1374  0.1212
  126OSM    H6F13426   2.442   0.489   4.423 -0.6841  1.7891 -1.0418
  126OSM    H6G13427   2.555   0.609   4.353  2.9905  0.1574  0.3556
  126OSM    C7F13428   2.630   0.511   4.530  0.3845  0.3257  0.3898
  126OSM    H7F13429   2.740   0.519   4.513  0.1926 -0.7143 -1.6313
  126OSM    H7G13430   2.629   0.410   4.577  0.2718  0.5317  0.8339
  126OSM    C8F13431   2.586   0.603   4.647 -0.0059  0.3869  0.0440
  126OSM    H8F13432   2.556   0.704   4.611  1.1452  0.1820 -1.6516
  126OSM    H8G13433   2.680   0.615   4.705 -0.5467  0.7262  0.8645
  126OSM    C9F13434   2.485   0.526   4.731  0.3738 -0.1454 -0.1325
  126OSM    H9F13435   2.443   0.433   4.692  1.1177 -0.7565  0.4882
  126OSM   C10F13436   2.464   0.557   4.861  0.0519 -0.4244 -0.1445
  126OSM   H10F13437   2.395   0.496   4.921 -0.4085  1.4626  1.3643
  126OSM   C11F13438   2.538   0.663   4.939  0.1834  0.2971  0.1105
  126OSM   H11F13439   2.513   0.766   4.908 -1.6975 -0.0978  0.1791
  126OSM   H11G13440   2.647   0.661   4.917  0.0747  0.2190 -0.4230
  126OSM   C12F13441   2.514   0.634   5.087  0.1377  0.5759  0.4133
  126OSM   H12F13442   2.574   0.548   5.123 -0.8339  0.0435  0.7722
  126OSM   H12G13443   2.408   0.617   5.112  0.4548 -1.7426  0.3695
  126OSM   C13F13444   2.567   0.750   5.175 -0.4391 -0.1196 -0.5083
  126OSM   H13F13445   2.510   0.843   5.154 -2.0505 -1.0393 -0.4137
  126OSM   H13G13446   2.673   0.779   5.159 -0.3208 -0.6033 -0.6259
  126OSM   C14F13447   2.547   0.726   5.325 -0.0818  0.5493 -0.1341
  126OSM   H14F13448   2.597   0.632   5.357 -0.3614 -0.2819 -1.9998
  126OSM   H14G13449   2.441   0.702   5.348  0.6138 -0.0575  2.9529
  126OSM   C15F13450   2.590   0.845   5.410  0.7790  0.0948 -0.2349
  126OSM   H15F13451   2.578   0.808   5.514 -2.0328 -0.8036 -0.7960
  126OSM   H15G13452   2.511   0.922   5.399  1.9865  1.1226 -2.2543
  126OSM   C16F13453   2.735   0.892   5.391  0.2787 -0.1457 -0.1860
  126OSM   H16F13454   2.729   0.956   5.300 -2.6686  0.3299  0.2382
  126OSM   H16G13455   2.810   0.812   5.372 -1.2462 -1.3008 -1.5959
  126OSM   C17F13456   2.780   0.985   5.509 -0.3467  0.3561 -0.0743
  126OSM   H17F13457   2.698   1.058   5.529 -0.5421 -0.6973  3.7452
  126OSM   H17G13458   2.862   1.051   5.473  0.6387 -0.3093  0.9018
  126OSM   C18F13459   2.831   0.928   5.646 -0.0122  0.0425 -0.0684
  126OSM   H18F13460   2.902   0.844   5.630 -0.7294 -1.0776  2.2521
  126OSM   H18G13461   2.740   0.904   5.705  0.1620  0.2651  0.2913
  126OSM   H18H13462   2.880   1.017   5.692 -2.5291  1.2170  0.5603
  127OSM      N13463   0.885   2.720   3.141  0.0525 -0.1497  0.3013
  127OSM    C1513464   0.845   2.605   3.053 -0.2824  0.6348 -0.5324
  127OSM   H15A13465   0.775   2.551   3.114  1.5396 -0.7508  0.4418
  127OSM   H15B13466   0.931   2.539   3.045  0.4193  1.4536  0.0173
  127OSM   H15C13467   0.808   2.633   2.956 -0.2236  2.8332  0.0071
  127OSM    C1413468   0.762   2.793   3.181  0.1629  0.1305 -0.1287
  127OSM   H14A13469   0.793   2.863   3.257 -0.9317  0.6208 -0.1203
  127OSM   H14B13470   0.680   2.729   3.212 -0.7395  0.8878 -0.9132
  127OSM   H14C13471   0.730   2.842   3.091 -1.3034 -0.4274  0.0711
  127OSM    C1313472   0.942   2.663   3.262  0.0740  0.7017  0.2697
  127OSM   H13A13473   1.025   2.597   3.240 -0.4212  0.0732  0.2777
  127OSM   H13B13474   0.868   2.597   3.303 -0.1941  1.1385  0.4991
  127OSM   H13C13475   0.962   2.741   3.334  0.3398  1.4655 -0.6083
  127OSM    C1213476   0.992   2.813   3.062  0.4693 -0.0770 -0.7606
  127OSM   H12A13477   0.965   2.837   2.960  1.6855  1.4088 -0.7649
  127OSM   H12B13478   1.082   2.755   3.049  0.4850 -0.3030  0.2410
  127OSM    C1113479   1.030   2.940   3.139  0.0668  0.5523 -0.3492
  127OSM   H11A13480   0.951   3.013   3.114 -3.4796 -2.6805  0.4348
  127OSM   H11B13481   1.125   2.987   3.107 -0.4626  1.3188 -0.8145
  127OSM      P13482   1.017   3.058   3.374 -0.1369 -0.2626  0.1427
  127OSM    O1313483   1.143   3.108   3.436  0.9956  0.3679  0.6619
  127OSM    O1413484   0.937   3.163   3.300  0.2739  0.4840 -0.4173
  127OSM    O1113485   0.923   2.992   3.489 -0.1556 -0.2976  0.4004
  127OSM    O1213486   1.050   2.926   3.282  0.5595  0.2864  0.7453
  127OSM    C1S13487   0.963   2.869   3.553  0.5819  0.4122 -0.1719
  127OSM    H1S13488   1.058   2.835   3.508 -0.0030 -0.0390 -1.1042
  127OSM    H1T13489   0.886   2.789   3.539  0.2057  1.0876 -2.3408
  127OSM     NF13490   1.039   2.766   3.781  0.1187 -0.3188 -0.1655
  127OSM    HNF13491   0.957   2.712   3.801 -1.1963  0.0955 -3.8365
  127OSM    C2S13492   1.001   2.881   3.705 -0.2870 -0.4302 -0.1062
  127OSM    H2S13493   1.091   2.946   3.700 -0.3361 -0.4591 -1.7230
  127OSM    C3S13494   0.881   2.956   3.775 -0.5506  0.0476  0.2677
  127OSM    H3S13495   0.794   2.888   3.762 -0.8980  0.2301  1.5643
  127OSM     O313496   0.827   3.075   3.716 -0.5267 -0.1034  0.1676
  127OSM    HO313497   0.852   3.070   3.623 -2.1652  0.8235 -0.3547
  127OSM    C4S13498   0.924   2.979   3.912  1.0544 -1.1258  0.1752
  127OSM    H4S13499   0.898   2.901   3.986 -0.0591 -0.3045  0.6802
  127OSM    C5S13500   0.999   3.083   3.960  0.1113  0.0487  0.1260
  127OSM    H5S13501   1.036   3.159   3.889  1.7316 -1.7507 -1.0801
  127OSM    C6S13502   1.029   3.115   4.105 -0.3577  0.1079 -0.0213
  127OSM    H6S13503   0.998   3.221   4.113  0.5507  0.5746 -1.9053
  127OSM    H6T13504   1.139   3.119   4.120 -0.1687 -0.5447 -1.1107
  127OSM    C7S13505   0.949   3.045   4.203  0.5006  0.5954 -0.1128
  127OSM    H7S13506   0.966   2.936   4.207 -4.5924 -0.4346  0.4311
  127OSM    H7T13507   0.840   3.067   4.200  1.0142  3.3920 -1.5292
  127OSM    C8S13508   0.989   3.097   4.338  0.9282  0.5520  0.0246
  127OSM    H8S13509   0.968   3.204   4.356 -2.8220  0.1736 -1.1046
  127OSM    H8T13510   1.098   3.089   4.356  0.7965 -1.1853  0.2318
  127OSM    C9S13511   0.930   3.026   4.459 -0.7475  0.6105  0.6161
  127OSM    H9S13512   0.943   2.917   4.439 -2.4951  0.6864 -1.1643
  127OSM    H9T13513   0.819   3.034   4.461 -0.7943 -0.0071  1.0942
  127OSM   C10S13514   0.984   3.070   4.597  0.8248 -0.4173 -0.0121
  127OSM   H10S13515   0.972   3.180   4.600 -0.5836 -0.4868 -1.4283
  127OSM   H10T13516   1.089   3.034   4.598  0.4986 -1.4243 -0.2724
  127OSM   C11S13517   0.912   2.996   4.704  0.3803 -0.5641  0.4733
  127OSM   H11S13518   0.921   2.886   4.689 -0.1885 -0.6976  1.0530
  127OSM   H11T13519   0.803   3.019   4.697  0.5205 -0.0775 -0.2251
  127OSM   C12S13520   0.956   3.044   4.836 -0.3480  0.2634 -0.5913
  127OSM   H12S13521   0.917   3.147   4.847 -1.4377 -0.1582 -0.2977
  127OSM   H12T13522   1.065   3.047   4.855 -0.2210 -4.1323  0.6748
  127OSM   C13S13523   0.894   2.965   4.956 -0.4735  0.4228 -0.0368
  127OSM   H13S13524   0.944   2.866   4.952 -0.1928  0.5969 -2.6533
  127OSM   H13T13525   0.785   2.949   4.944 -1.1246  3.0384  1.5698
  127OSM   C14S13526   0.915   3.037   5.091  0.1039 -0.7142  1.0151
  127OSM   H14S13527   0.841   3.117   5.113  0.8924  1.1131 -2.3750
  127OSM   H14T13528   1.009   3.089   5.116 -1.1740  2.0095  0.5027
  127OSM   C15S13529   0.894   2.935   5.205 -0.5578 -0.1553 -0.2263
  127OSM   H15S13530   0.976   2.860   5.193  0.1105  0.7939 -1.9284
  127OSM   H15T13531   0.799   2.877   5.197  0.4195 -1.7772 -0.5525
  127OSM   C16S13532   0.908   3.000   5.340  0.3320  0.5626 -0.3987
  127OSM   H16S13533   0.820   3.066   5.359  0.0250  0.1188 -0.2448
  127OSM   H16T13534   0.993   3.070   5.340  1.3233 -0.5120  1.9717
  127OSM   C17S13535   0.937   2.903   5.452  0.4206 -0.5650  0.3882
  127OSM   H17S13536   1.012   2.947   5.521 -0.0313 -0.7025  0.9788
  127OSM   H17T13537   0.984   2.814   5.404  1.5214  1.7422 -3.1585
  127OSM   C18S13538   0.815   2.841   5.528 -0.5859  0.4060  0.4628
  127OSM   H18S13539   0.863   2.771   5.599 -0.3489  0.8768  0.7679
  127OSM   H18T13540   0.746   2.793   5.455 -2.5454 -0.3820  2.7129
  127OSM   H18U13541   0.745   2.909   5.581 -1.1769 -1.8916  2.8281
  127OSM    C1F13542   1.167   2.721   3.756 -0.1855 -1.2211  0.4427
  127OSM     OF13543   1.247   2.794   3.701  0.3447  0.1536 -0.0561
  127OSM    C2F13544   1.203   2.581   3.793 -0.0646  0.5912 -0.0151
  127OSM    H2F13545   1.261   2.524   3.717 -1.4780 -0.1846 -0.5375
  127OSM    H2G13546   1.116   2.513   3.802 -0.2556  0.5438 -1.8208
  127OSM    C3F13547   1.276   2.576   3.921 -0.5815 -0.3054 -0.0916
  127OSM    H3F13548   1.377   2.619   3.907  0.6500 -2.8256  0.4593
  127OSM    H3G13549   1.302   2.469   3.933  2.3706 -0.0125 -2.7843
  127OSM    C4F13550   1.195   2.631   4.045 -0.3826  0.3751 -0.6106
  127OSM    H4F13551   1.094   2.586   4.038 -0.6380  0.7384  0.4769
  127OSM    H4G13552   1.180   2.741   4.057 -1.6386  0.1963 -0.4505
  127OSM    C5F13553   1.255   2.581   4.177  0.0127 -0.7932  0.3653
  127OSM    H5F13554   1.362   2.579   4.149 -0.0598 -1.3186  0.1242
  127OSM    H5G13555   1.213   2.480   4.194 -0.6529 -0.2849  1.9922
  127OSM    C6F13556   1.228   2.672   4.298  0.0333 -0.9727 -0.3718
  127OSM    H6F13557   1.130   2.639   4.339 -0.4011 -0.4228 -0.9384
  127OSM    H6G13558   1.227   2.780   4.269  2.0342 -1.3853 -2.3009
  127OSM    C7F13559   1.338   2.671   4.403  0.2428 -0.2892 -0.6647
  127OSM    H7F13560   1.349   2.768   4.456  0.4375  0.2405 -1.6507
  127OSM    H7G13561   1.433   2.647   4.350  1.2648  0.1724  0.8977
  127OSM    C8F13562   1.314   2.548   4.500 -0.2790  0.1691 -0.3571
  127OSM    H8F13563   1.398   2.541   4.572  1.1478 -0.9097 -2.0567
  127OSM    H8G13564   1.313   2.455   4.439 -1.2223 -1.1348  1.5358
  127OSM    C9F13565   1.188   2.546   4.588  0.3566 -0.0696 -0.3607
  127OSM    H9F13566   1.110   2.477   4.552  0.8833 -0.9163  0.1089
  127OSM   C10F13567   1.165   2.623   4.694 -0.9365  0.2397 -0.8744
  127OSM   H10F13568   1.069   2.618   4.748 -0.2384  0.9509  0.4761
  127OSM   C11F13569   1.268   2.715   4.756  0.4827  0.4494  0.4137
  127OSM   H11F13570   1.224   2.817   4.756 -0.4020  0.0834  1.1409
  127OSM   H11G13571   1.360   2.718   4.693  0.1373  1.9051 -0.0454
  127OSM   C12F13572   1.306   2.688   4.910  0.6350 -0.2403  0.4185
  127OSM   H12F13573   1.387   2.762   4.922 -0.1470  0.6176  0.5498
  127OSM   H12G13574   1.326   2.578   4.906  0.9821 -0.1768  0.3995
  127OSM   C13F13575   1.199   2.725   5.010 -0.0683  0.6947 -0.5703
  127OSM   H13F13576   1.105   2.667   4.995  1.2860 -2.7426  2.5716
  127OSM   H13G13577   1.188   2.835   4.999 -1.0274  0.6627 -0.0620
  127OSM   C14F13578   1.232   2.716   5.165  0.3578 -0.2697  0.5388
  127OSM   H14F13579   1.151   2.758   5.229  0.8179  0.4266  0.6775
  127OSM   H14G13580   1.326   2.774   5.178 -0.2277  1.4607 -2.0826
  127OSM   C15F13581   1.254   2.572   5.207  0.2864 -0.6966  0.6043
  127OSM   H15F13582   1.340   2.529   5.153  0.2775 -0.0486  0.0585
  127OSM   H15G13583   1.169   2.513   5.166  0.1533  0.9311 -1.6452
  127OSM   C16F13584   1.282   2.566   5.351  0.2013  0.1929 -0.1153
  127OSM   H16F13585   1.336   2.658   5.380  2.0208 -1.0098  0.5104
  127OSM   H16G13586   1.341   2.475   5.377 -1.6417 -0.2881  2.8114
  127OSM   C17F13587   1.166   2.562   5.455 -0.0613  0.5690  0.4376
  127OSM   H17F13588   1.116   2.467   5.426  1.2385 -0.1570  0.4971
  127OSM   H17G13589   1.104   2.650   5.428 -0.0494 -0.0647 -1.9330
  127OSM   C18F13590   1.200   2.551   5.604 -0.4952 -0.1936  0.4731
  127OSM   H18F13591   1.271   2.633   5.629 -2.3908  1.5000  0.5857
  127OSM   H18G13592   1.258   2.457   5.616 -1.4510 -0.8820 -0.1739
  127OSM   H18H13593   1.113   2.560   5.673 -1.2532 -0.7447 -0.3869
  128OSM      N13594   2.797   2.203   3.417 -0.2471 -0.3427 -0.4081
  128OSM    C1513595   2.654   2.197   3.466 -0.3257 -0.2739 -0.2635
  128OSM   H15A13596   2.626   2.105   3.515 -1.4659 -0.0497 -0.4630
  128OSM   H15B13597   2.583   2.219   3.388 -0.5842 -0.1634  0.0015
  128OSM   H15C13598   2.636   2.277   3.537  1.2244 -0.7001  0.6723
  128OSM    C1413599   2.832   2.338   3.361  0.2671  0.0192 -0.9325
  128OSM   H14A13600   2.800   2.418   3.427 -0.6362 -1.4463  0.4911
  128OSM   H14B13601   2.790   2.362   3.265 -1.5583 -1.5430 -0.5912
  128OSM   H14C13602   2.940   2.341   3.351  1.0105 -3.6844  2.8311
  128OSM    C1313603   2.880   2.181   3.535 -0.8365 -0.1507 -0.0900
  128OSM   H13A13604   2.862   2.258   3.609  0.4996 -0.2847  0.3950
  128OSM   H13B13605   2.987   2.192   3.522 -0.6524  2.7408  2.6940
  128OSM   H13C13606   2.868   2.082   3.577  0.5135 -1.3862 -2.3738
  128OSM    C1213607   2.814   2.094   3.306  0.4162 -0.3826  0.1873
  128OSM   H12A13608   2.739   2.101   3.228  0.1907  1.7571  0.5306
  128OSM   H12B13609   2.799   2.002   3.361  2.1305  0.2247  1.7829
  128OSM    C1113610   2.948   2.082   3.231 -0.5101  0.5476 -0.0090
  128OSM   H11A13611   2.966   2.177   3.178 -0.1084  1.5806  1.8683
  128OSM   H11B13612   2.943   1.993   3.164 -2.9186 -1.3311  2.3942
  128OSM      P13613   3.101   1.913   3.360  0.2930 -0.1007 -0.2189
  128OSM    O1313614   3.001   1.810   3.324  0.3570 -0.0621 -0.1560
  128OSM    O1413615   3.240   1.889   3.310 -0.1388  0.0800  0.4878
  128OSM    O1113616   3.108   1.921   3.518  0.3846  0.1112 -0.0127
  128OSM    O1213617   3.056   2.063   3.323 -0.0348 -0.5391  0.2671
  128OSM    C1S13618   3.190   2.021   3.577 -0.1533  0.1177  1.7208
  128OSM    H1S13619   3.148   2.121   3.555 -1.2458 -0.6399  0.0624
  128OSM    H1T13620   3.295   2.016   3.539 -0.9633  0.4823 -0.7414
  128OSM     NF13621   3.269   2.120   3.782  0.2044  0.1744 -0.4304
  128OSM    HNF13622   3.366   2.123   3.803  0.0699 -0.8060  0.4399
  128OSM    C2S13623   3.205   2.001   3.729  0.1569  0.3296  0.0534
  128OSM    H2S13624   3.101   1.994   3.769 -0.2377  0.6987 -0.8622
  128OSM    C3S13625   3.271   1.860   3.744 -0.0247 -0.6405 -0.1140
  128OSM    H3S13626   3.363   1.861   3.682  1.4531 -1.8724  1.9228
  128OSM     O313627   3.195   1.747   3.695  0.4300 -0.1315 -0.0578
  128OSM    HO313628   3.133   1.786   3.633 -0.7054 -2.9372 -0.8557
  128OSM    C4S13629   3.314   1.830   3.884 -0.4607  0.1901 -0.1157
  128OSM    H4S13630   3.236   1.833   3.961  0.4859  1.3108  0.8406
  128OSM    C5S13631   3.437   1.767   3.913  0.9232 -0.5957 -0.3898
  128OSM    H5S13632   3.496   1.743   3.823  0.1466  0.2731 -1.1625
  128OSM    C6S13633   3.480   1.697   4.042  0.1791 -0.1614  1.0423
  128OSM    H6S13634   3.536   1.770   4.104  1.0273 -0.0172  0.1382
  128OSM    H6T13635   3.529   1.599   4.022  0.1323 -0.3916  2.0491
  128OSM    C7S13636   3.367   1.652   4.135 -0.1419  0.1357 -0.4188
  128OSM    H7S13637   3.307   1.572   4.086 -1.7574  0.9692  0.1064
  128OSM    H7T13638   3.317   1.750   4.156 -0.4022 -0.1512  0.3433
  128OSM    C8S13639   3.421   1.605   4.273 -0.0359  0.5827  0.4331
  128OSM    H8S13640   3.467   1.691   4.325  2.0430 -0.5307  0.5432
  128OSM    H8T13641   3.504   1.532   4.259  0.5894  0.9174  2.1258
  128OSM    C9S13642   3.305   1.544   4.362  0.0570  0.2363  0.5167
  128OSM    H9S13643   3.261   1.451   4.322 -1.0574  1.1580 -0.4773
  128OSM    H9T13644   3.218   1.613   4.372  0.0429  0.3095 -0.1042
  128OSM   C10S13645   3.357   1.510   4.510 -0.2759  0.2909 -0.0434
  128OSM   H10S13646   3.417   1.594   4.550 -0.1009  1.2792 -2.2386
  128OSM   H10T13647   3.432   1.428   4.513  0.6894  1.1569  3.0058
  128OSM   C11S13648   3.243   1.466   4.603  0.0782 -0.1899  0.0273
  128OSM   H11S13649   3.181   1.390   4.551  0.5841  0.5185 -1.6735
  128OSM   H11T13650   3.178   1.551   4.634  1.5000  1.5701 -1.6181
  128OSM   C12S13651   3.287   1.406   4.738  0.1858 -0.0460 -0.4996
  128OSM   H12S13652   3.345   1.485   4.790  0.6718  0.2970 -1.5196
  128OSM   H12T13653   3.359   1.322   4.728 -0.8630 -1.0170 -0.0261
  128OSM   C13S13654   3.164   1.362   4.827 -0.5507 -0.2806 -0.5221
  128OSM   H13S13655   3.109   1.280   4.775 -1.7816 -0.4195  0.9340
  128OSM   H13T13656   3.093   1.447   4.837 -0.9605 -0.7372  0.6153
  128OSM   C14S13657   3.195   1.309   4.962 -0.6208  0.2115 -0.0274
  128OSM   H14S13658   3.281   1.363   5.007 -0.0862  0.3478 -1.1770
  128OSM   H14T13659   3.229   1.204   4.953 -2.3426 -0.4250  0.3594
  128OSM   C15S13660   3.078   1.324   5.059  0.0811  0.0787 -0.4453
  128OSM   H15S13661   3.013   1.247   5.011  0.8812 -1.4948  0.8688
  128OSM   H15T13662   3.026   1.422   5.060 -1.2074 -0.5739  0.1600
  128OSM   C16S13663   3.108   1.293   5.211 -0.0990 -0.9751 -0.2270
  128OSM   H16S13664   3.189   1.217   5.212  1.0287  0.0578 -3.1462
  128OSM   H16T13665   3.013   1.262   5.259 -0.6974  1.4672  0.3226
  128OSM   C17S13666   3.154   1.413   5.298 -0.2728  0.0141 -0.2768
  128OSM   H17S13667   3.084   1.492   5.265  0.7350  0.3288 -1.7515
  128OSM   H17T13668   3.261   1.439   5.281  0.9751 -2.9444  2.0636
  128OSM   C18S13669   3.139   1.384   5.440  0.6860 -0.3451  0.6170
  128OSM   H18S13670   3.177   1.473   5.496 -1.0007  1.0947 -0.4255
  128OSM   H18T13671   3.195   1.300   5.486 -0.9301  0.0227  3.5410
  128OSM   H18U13672   3.030   1.372   5.461 -0.1474  3.1799 -0.8743
  128OSM    C1F13673   3.210   2.239   3.785 -0.6095  1.0177  0.0262
  128OSM     OF13674   3.088   2.244   3.770  0.1404 -0.6316 -0.1224
  128OSM    C2F13675   3.297   2.355   3.806  0.2316 -0.0968  0.6124
  128OSM    H2F13676   3.297   2.408   3.708 -0.6273 -0.3453  0.4754
  128OSM    H2G13677   3.400   2.317   3.826  0.2471  0.0717  0.8630
  128OSM    C3F13678   3.252   2.456   3.913 -0.3060 -0.0785  0.2266
  128OSM    H3F13679   3.168   2.516   3.871 -0.3195  1.1026  1.8663
  128OSM    H3G13680   3.338   2.527   3.918 -0.6239  0.4492 -1.1678
  128OSM    C4F13681   3.208   2.401   4.050 -0.7936  0.5005  0.4806
  128OSM    H4F13682   3.285   2.324   4.074  1.0238  1.1779 -2.6252
  128OSM    H4G13683   3.106   2.365   4.026 -2.1577  2.1828  3.3220
  128OSM    C5F13684   3.219   2.505   4.160  0.6137 -0.8709 -0.1778
  128OSM    H5F13685   3.150   2.586   4.130  1.0816 -1.4110 -2.9804
  128OSM    H5G13686   3.320   2.551   4.163  0.2116  0.1114  3.7711
  128OSM    C6F13687   3.198   2.460   4.301 -0.2795  0.1539  0.4828
  128OSM    H6F13688   3.254   2.370   4.332 -2.6035 -2.2966 -1.8991
  128OSM    H6G13689   3.089   2.440   4.298 -0.9716  3.2809  0.9272
  128OSM    C7F13690   3.225   2.568   4.396 -0.1324 -0.0644 -0.2447
  128OSM    H7F13691   3.178   2.665   4.373  1.2867  0.6653 -0.1554
  128OSM    H7G13692   3.331   2.599   4.402 -0.4026  0.6874  1.3850
  128OSM    C8F13693   3.199   2.523   4.544 -0.0402 -0.3474 -0.2169
  128OSM    H8F13694   3.264   2.572   4.620 -0.4190  1.4213 -0.9881
  128OSM    H8G13695   3.230   2.417   4.554 -1.0448 -0.5197  1.5657
  128OSM    C9F13696   3.063   2.543   4.606  0.2027 -0.4356 -0.3104
  128OSM    H9F13697   3.000   2.620   4.559  1.7811  0.2474 -1.3667
  128OSM   C10F13698   3.001   2.461   4.695 -0.5325 -0.4084 -0.1657
  128OSM   H10F13699   2.899   2.485   4.729  0.2304 -0.5526  2.4690
  128OSM   C11F13700   3.056   2.331   4.746 -0.2644  0.6143  0.3242
  128OSM   H11F13701   3.087   2.273   4.656 -1.1875  3.0765 -1.7156
  128OSM   H11G13702   2.974   2.270   4.789  1.2058 -0.7508  1.2667
  128OSM   C12F13703   3.163   2.349   4.858 -0.0692 -0.8089  0.0190
  128OSM   H12F13704   3.140   2.433   4.927  1.2943  0.0046 -0.4778
  128OSM   H12G13705   3.262   2.375   4.815 -0.5369 -0.2202 -0.7240
  128OSM   C13F13706   3.183   2.215   4.914 -0.2362  0.3291  0.0242
  128OSM   H13F13707   3.225   2.165   4.824 -1.3931  1.5699 -1.2557
  128OSM   H13G13708   3.093   2.154   4.940 -0.5238  0.4594 -0.6558
  128OSM   C14F13709   3.283   2.211   5.032  0.6379  0.1967 -0.8173
  128OSM   H14F13710   3.372   2.276   5.014  1.9860 -2.0497 -3.1306
  128OSM   H14G13711   3.329   2.110   5.039  2.6982  1.0108 -1.6715
  128OSM   C15F13712   3.226   2.257   5.168 -0.0688 -0.2716  0.3704
  128OSM   H15F13713   3.149   2.191   5.214 -0.3282  0.1258  0.5095
  128OSM   H15G13714   3.173   2.354   5.159  1.3880  0.5324  0.2387
  128OSM   C16F13715   3.335   2.295   5.275 -0.2652 -0.1519 -0.4173
  128OSM   H16F13716   3.416   2.365   5.246  1.3951 -1.9731 -0.4161
  128OSM   H16G13717   3.391   2.206   5.311 -0.3930  0.0474  0.2898
  128OSM   C17F13718   3.274   2.365   5.403 -0.2518 -0.1427 -0.0751
  128OSM   H17F13719   3.206   2.287   5.441 -1.1403 -0.6812 -2.5606
  128OSM   H17G13720   3.205   2.446   5.371 -1.2383 -1.4774 -1.4530
  128OSM   C18F13721   3.385   2.404   5.508 -0.3053  0.7999  0.6337
  128OSM   H18F13722   3.451   2.485   5.470 -0.8875  0.7945 -0.4295
  128OSM   H18G13723   3.451   2.316   5.523 -1.7578 -0.6760 -1.0890
  128OSM   H18H13724   3.334   2.434   5.603  0.5456 -0.2300  1.4458
  129OSM      N13725   2.145   0.217   3.064  0.2207  0.5502  0.3655
  129OSM    C1513726   2.277   0.161   3.113 -0.1526 -0.3345  0.7602
  129OSM   H15A13727   2.283   0.053   3.101  1.2023 -0.3800  1.6245
  129OSM   H15B13728   2.282   0.177   3.220 -0.7590 -0.5491  0.8254
  129OSM   H15C13729   2.359   0.213   3.066 -1.3233  2.6205  1.8067
  129OSM    C1413730   2.157   0.374   3.068 -0.1106  1.0857  0.7653
  129OSM   H14A13731   2.155   0.400   3.173 -0.4655 -1.3742  1.4370
  129OSM   H14B13732   2.069   0.410   3.016 -0.5242 -3.4423 -2.3162
  129OSM   H14C13733   2.249   0.397   3.016  0.3305  0.1476  1.1012
  129OSM    C1313734   2.128   0.186   2.919 -0.2200  0.1140  0.2020
  129OSM   H13A13735   2.109   0.081   2.904 -0.9262  0.3099 -0.3221
  129OSM   H13B13736   2.218   0.213   2.865 -1.3608 -0.7364 -2.3100
  129OSM   H13C13737   2.041   0.232   2.873 -0.8738 -0.9110  0.3971
  129OSM    C1213738   2.029   0.155   3.144 -0.2129  0.4064  0.1621
  129OSM   H12A13739   2.030   0.048   3.126 -3.1612  0.5358 -1.4608
  129OSM   H12B13740   1.934   0.197   3.113 -0.2132  1.6438  1.7394
  129OSM    C1113741   2.037   0.169   3.299  0.6947 -0.3793 -0.5615
  129OSM   H11A13742   1.938   0.142   3.342  0.6551 -0.7400 -0.8717
  129OSM   H11B13743   2.047   0.278   3.322  1.7816 -0.1573 -1.9214
  129OSM      P13744   2.117  -0.055   3.393 -0.4569  0.2424 -0.5301
  129OSM    O1313745   1.989  -0.089   3.330  0.7007  0.0807  0.2049
  129OSM    O1413746   2.236  -0.120   3.335  0.2019  1.0445 -0.0679
  129OSM    O1113747   2.118  -0.065   3.546 -0.9295  0.0651  0.5819
  129OSM    O1213748   2.148   0.093   3.358  0.2749 -0.1764  0.3804
  129OSM    C1S13749   2.136   0.055   3.630  0.5043  0.0043  0.7176
  129OSM    H1S13750   2.046   0.120   3.628  0.4653 -0.0659  0.2748
  129OSM    H1T13751   2.214   0.122   3.587 -1.6013  1.5957 -0.8354
  129OSM     NF13752   2.215   0.137   3.845 -0.5524 -0.7319 -0.4427
  129OSM    HNF13753   2.298   0.188   3.829 -1.5067  1.9344  2.2024
  129OSM    C2S13754   2.192   0.019   3.768 -0.0628  0.0085 -0.5109
  129OSM    H2S13755   2.115  -0.040   3.822 -1.4318  1.4239 -0.8730
  129OSM    C3S13756   2.321  -0.070   3.765  0.3614 -0.2281 -0.0675
  129OSM    H3S13757   2.402  -0.007   3.721 -0.6967  2.4567  1.5827
  129OSM     O313758   2.318  -0.180   3.681 -0.2161  0.3363 -0.5006
  129OSM    HO313759   2.248  -0.166   3.617  1.1669  2.5874 -1.6256
  129OSM    C4S13760   2.360  -0.098   3.905 -0.1755 -0.1056  0.5498
  129OSM    H4S13761   2.290  -0.137   3.981 -0.3163 -0.4580  0.2398
  129OSM    C5S13762   2.484  -0.077   3.946 -0.4852  1.0683 -0.5280
  129OSM    H5S13763   2.561  -0.049   3.872  0.6124 -0.1278  0.1292
  129OSM    C6S13764   2.533  -0.115   4.082 -0.2171 -0.6237 -0.6308
  129OSM    H6S13765   2.500  -0.046   4.162  1.2135 -0.7080  0.0603
  129OSM    H6T13766   2.643  -0.101   4.077 -0.3703  0.5706 -0.9405
  129OSM    C7S13767   2.520  -0.263   4.133 -0.3090  0.0987  0.8214
  129OSM    H7S13768   2.534  -0.337   4.051 -1.7805  0.1017  0.5261
  129OSM    H7T13769   2.417  -0.276   4.174 -1.0640  0.5641 -0.8068
  129OSM    C8S13770   2.618  -0.306   4.239  0.1112 -0.1078  1.1723
  129OSM    H8S13771   2.720  -0.267   4.221 -0.1367  0.7382  1.5706
  129OSM    H8T13772   2.635  -0.415   4.226  1.6040  0.4201 -2.1704
  129OSM    C9S13773   2.579  -0.260   4.376  0.0313  0.0858 -0.2893
  129OSM    H9S13774   2.469  -0.277   4.384  0.0964  0.0636  0.7435
  129OSM    H9T13775   2.598  -0.151   4.387 -1.9658  0.3601  1.0254
  129OSM   C10S13776   2.656  -0.313   4.495 -0.2314  0.7611 -0.1290
  129OSM   H10S13777   2.762  -0.280   4.490 -0.6618  2.1739 -0.2996
  129OSM   H10T13778   2.646  -0.424   4.490  1.1085  0.5496  1.2119
  129OSM   C11S13779   2.596  -0.274   4.633 -0.4993 -0.4455 -0.7539
  129OSM   H11S13780   2.500  -0.326   4.654 -1.6575  2.2217  1.1557
  129OSM   H11T13781   2.568  -0.166   4.634 -1.5401 -0.6939  0.6191
  129OSM   C12S13782   2.697  -0.301   4.759  0.6897  0.4799  0.3473
  129OSM   H12S13783   2.790  -0.242   4.744  0.6849  0.3278 -0.3211
  129OSM   H12T13784   2.708  -0.411   4.754 -1.7436  0.2283 -1.8971
  129OSM   C13S13785   2.633  -0.242   4.889 -0.9666  0.6363 -0.2436
  129OSM   H13S13786   2.529  -0.270   4.918 -0.2102  1.1303  3.5100
  129OSM   H13T13787   2.620  -0.132   4.883 -1.3200  0.5645 -0.8413
  129OSM   C14S13788   2.712  -0.280   5.008 -0.7021  0.5266 -0.7265
  129OSM   H14S13789   2.818  -0.247   4.999 -0.0577 -1.2426 -0.1826
  129OSM   H14T13790   2.704  -0.390   5.021 -0.9551  0.7871  1.8623
  129OSM   C15S13791   2.661  -0.216   5.140 -0.4314 -0.2133 -0.0494
  129OSM   H15S13792   2.567  -0.258   5.180  0.2250 -0.4552  1.2841
  129OSM   H15T13793   2.634  -0.113   5.110  0.7531 -0.6597 -2.9716
  129OSM   C16S13794   2.761  -0.200   5.254  1.0632  0.1557 -0.3591
  129OSM   H16S13795   2.842  -0.130   5.226  0.8691  0.4242 -0.2539
  129OSM   H16T13796   2.800  -0.295   5.294  0.0809 -0.6883 -1.3344
  129OSM   C17S13797   2.689  -0.146   5.375 -0.0828 -0.0182 -1.5383
  129OSM   H17S13798   2.605  -0.216   5.397  1.7067 -3.2027 -3.8197
  129OSM   H17T13799   2.649  -0.046   5.352  0.8447  0.6275 -0.4611
  129OSM   C18S13800   2.799  -0.128   5.495  0.7475  0.1629 -0.4313
  129OSM   H18S13801   2.763  -0.043   5.557  3.6993  1.2266 -0.0033
  129OSM   H18T13802   2.898  -0.100   5.453  1.5996 -1.2542  0.5482
  129OSM   H18U13803   2.808  -0.216   5.562 -1.2604  1.8126  2.2119
  129OSM    C1F13804   2.116   0.210   3.894 -0.7991  0.6013 -0.2067
  129OSM     OF13805   2.001   0.179   3.882 -0.1954  0.6925  0.4567
  129OSM    C2F13806   2.155   0.336   3.959 -0.3232 -0.1614  0.1248
  129OSM    H2F13807   2.077   0.406   3.921 -2.1704 -2.6907 -1.0457
  129OSM    H2G13808   2.254   0.362   3.917 -0.6150  1.2333  0.2487
  129OSM    C3F13809   2.153   0.324   4.114 -0.1259  0.0451  0.5909
  129OSM    H3F13810   2.059   0.275   4.147  0.5400  0.1917  2.8332
  129OSM    H3G13811   2.138   0.427   4.151  1.1238 -0.1582  1.7261
  129OSM    C4F13812   2.268   0.237   4.179 -0.1868 -0.3680  0.5351
  129OSM    H4F13813   2.362   0.292   4.158 -0.1922 -1.0259 -1.3649
  129OSM    H4G13814   2.274   0.139   4.126 -0.3867  0.2682 -0.7001
  129OSM    C5F13815   2.261   0.216   4.330  0.3535 -0.3603  0.0828
  129OSM    H5F13816   2.268   0.320   4.369  1.4945  0.0575 -1.1497
  129OSM    H5G13817   2.341   0.150   4.371  0.9762  0.5206  0.3222
  129OSM    C6F13818   2.135   0.150   4.367  0.2596 -0.6368  0.2081
  129OSM    H6F13819   2.096   0.073   4.298 -0.2045 -0.5666  0.3929
  129OSM    H6G13820   2.057   0.228   4.359  2.0595  1.3003  0.5075
  129OSM    C7F13821   2.133   0.098   4.511 -0.0342  0.2782 -0.2288
  129OSM    H7F13822   2.217   0.026   4.521 -1.0471 -0.9826 -0.4883
  129OSM    H7G13823   2.041   0.035   4.515 -0.8897  1.2574 -2.5125
  129OSM    C8F13824   2.137   0.214   4.623 -0.1996  0.1831 -0.3684
  129OSM    H8F13825   2.053   0.285   4.609 -1.0097 -0.8281 -0.7704
  129OSM    H8G13826   2.232   0.271   4.629 -0.6745  0.8614  1.2824
  129OSM    C9F13827   2.131   0.133   4.754  0.3452  0.4733 -0.3805
  129OSM    H9F13828   2.027   0.106   4.781 -0.3824  0.8463 -2.6351
  129OSM   C10F13829   2.229   0.096   4.841 -0.6979 -0.3909  0.0506
  129OSM   H10F13830   2.207   0.037   4.931 -0.1191  1.0882  1.1940
  129OSM   C11F13831   2.373   0.124   4.814  0.0704  0.2212  0.1469
  129OSM   H11F13832   2.394   0.180   4.720  0.9079  0.9563  0.7569
  129OSM   H11G13833   2.429   0.028   4.822 -0.4388 -0.1559 -0.6277
  129OSM   C12F13834   2.430   0.216   4.918  0.0634 -0.5531  0.1447
  129OSM   H12F13835   2.353   0.295   4.931 -0.6164 -1.2761  0.6138
  129OSM   H12G13836   2.530   0.250   4.884  0.6178 -1.7110  0.5705
  129OSM   C13F13837   2.434   0.162   5.065 -0.4469  0.1856  0.4726
  129OSM   H13F13838   2.503   0.077   5.081  0.6021  0.6944 -1.1053
  129OSM   H13G13839   2.339   0.110   5.090 -0.0314 -1.1987 -0.6782
  129OSM   C14F13840   2.463   0.273   5.167 -0.2505  0.0151 -0.2446
  129OSM   H14F13841   2.376   0.342   5.171  0.9263  1.5634 -0.3283
  129OSM   H14G13842   2.556   0.326   5.134 -1.2821  0.4879 -2.5524
  129OSM   C15F13843   2.494   0.217   5.309  0.8839 -0.1709 -0.5437
  129OSM   H15F13844   2.517   0.299   5.381 -0.8825 -0.4986  0.4416
  129OSM   H15G13845   2.585   0.156   5.291  1.2285 -0.0709  0.7657
  129OSM   C16F13846   2.391   0.144   5.392  0.5760  1.2390  0.1673
  129OSM   H16F13847   2.360   0.045   5.350  1.2448  1.7697 -1.6557
  129OSM   H16G13848   2.301   0.208   5.397  2.0495  3.3529  0.6846
  129OSM   C17F13849   2.445   0.115   5.532 -0.2147 -0.5397  0.1227
  129OSM   H17F13850   2.458   0.207   5.592  0.8176 -0.1390 -0.6860
  129OSM   H17G13851   2.539   0.058   5.520  1.3770  2.2123 -1.3834
  129OSM   C18F13852   2.341   0.034   5.608 -0.0436 -0.3182  0.0170
  129OSM   H18F13853   2.355   0.033   5.718 -0.2732  0.2619  0.0559
  129OSM   H18G13854   2.346  -0.072   5.575 -2.5795 -0.9416  1.3822
  129OSM   H18H13855   2.239   0.076   5.598  0.0905  0.4418  1.5630
  130OSM      N13856   3.043   3.329   3.058  0.2720  0.5001 -0.3125
  130OSM    C1513857   2.946   3.430   3.099 -0.0762  0.1547 -0.7743
  130OSM   H15A13858   2.987   3.513   3.152  0.0813 -0.9277  0.8667
  130OSM   H15B13859   2.886   3.380   3.174  4.9480 -1.4475  2.7063
  130OSM   H15C13860   2.877   3.465   3.024  0.5271  0.8348 -1.0224
  130OSM    C1413861   2.979   3.197   3.018 -0.5580  0.0431  0.6418
  130OSM   H14A13862   2.899   3.166   3.083 -1.3548  1.8677  0.6135
  130OSM   H14B13863   3.060   3.127   3.009  0.9651  1.7461  0.6169
  130OSM   H14C13864   2.942   3.218   2.918 -0.2385  0.0522  0.5258
  130OSM    C1313865   3.134   3.380   2.948  0.2570  0.2812  0.2253
  130OSM   H13A13866   3.083   3.375   2.853  0.5316 -1.1433  0.1361
  130OSM   H13B13867   3.221   3.320   2.925 -0.1312  0.2238 -1.1979
  130OSM   H13C13868   3.149   3.486   2.965 -0.8330  0.3705  0.6825
  130OSM    C1213869   3.133   3.302   3.175 -0.0640 -0.5684 -0.0259
  130OSM   H12A13870   3.195   3.390   3.185 -0.9128 -0.1644  2.3140
  130OSM   H12B13871   3.204   3.224   3.151  0.0164 -1.2948  2.2637
  130OSM    C1113872   3.083   3.279   3.314 -0.3452 -0.0379 -0.5819
  130OSM   H11A13873   3.044   3.370   3.365  1.2614 -0.3464  1.3245
  130OSM   H11B13874   3.180   3.259   3.364 -0.6254 -1.3887 -0.5475
  130OSM      P13875   3.027   3.029   3.361 -0.1073  0.1471  0.1666
  130OSM    O1313876   2.904   2.950   3.336  0.1203  0.3694  0.0560
  130OSM    O1413877   3.146   2.992   3.285  0.0122  0.2581  0.1527
  130OSM    O1113878   3.076   3.032   3.510 -0.2757 -0.2985 -0.4219
  130OSM    O1213879   2.989   3.177   3.330  0.0654  0.4149 -0.0401
  130OSM    C1S13880   2.984   3.028   3.620 -0.1890  0.8987  0.1040
  130OSM    H1S13881   2.945   2.924   3.617  0.9955  0.3445  1.9115
  130OSM    H1T13882   2.893   3.090   3.607  0.0601  0.9995 -1.2482
  130OSM     NF13883   2.976   3.038   3.863 -0.1434 -0.2240  0.5931
  130OSM    HNF13884   2.929   3.104   3.920 -2.6155 -0.8303 -0.6199
  130OSM    C2S13885   3.051   3.079   3.744 -0.0701 -0.1070 -0.7100
  130OSM    H2S13886   3.153   3.038   3.759 -0.5066 -1.0340 -0.2348
  130OSM    C3S13887   3.071   3.234   3.739  0.2212 -0.0974 -0.3581
  130OSM    H3S13888   2.977   3.294   3.744 -1.0270 -1.8758 -1.1341
  130OSM     O313889   3.132   3.275   3.617 -0.0679 -0.2817  0.0044
  130OSM    HO313890   3.115   3.205   3.554  0.5254  0.8749 -1.5076
  130OSM    C4S13891   3.135   3.288   3.863  0.5684  0.1702  0.5267
  130OSM    H4S13892   3.069   3.337   3.936  0.4181 -2.3483  2.2213
  130OSM    C5S13893   3.265   3.287   3.892  0.0200  0.1818  0.6515
  130OSM    H5S13894   3.333   3.253   3.812 -0.8477 -2.5815  0.9760
  130OSM    C6S13895   3.320   3.333   4.023  0.1287  0.0236 -0.1947
  130OSM    H6S13896   3.395   3.412   4.001  2.4314 -1.1486  2.7590
  130OSM    H6T13897   3.382   3.253   4.067 -0.0021 -0.2924 -0.5749
  130OSM    C7S13898   3.219   3.370   4.137 -0.0308 -0.0131 -0.3683
  130OSM    H7S13899   3.181   3.273   4.175  1.8278 -0.3541  0.7328
  130OSM    H7T13900   3.140   3.444   4.111  0.9122  0.1245 -3.2603
  130OSM    C8S13901   3.294   3.420   4.262 -0.6106 -0.0950 -0.5249
  130OSM    H8S13902   3.331   3.524   4.249 -0.1265  0.1959  2.4292
  130OSM    H8T13903   3.382   3.354   4.276 -2.1571 -2.0571  0.5024
  130OSM    C9S13904   3.213   3.412   4.382  1.0965  0.0021  0.4797
  130OSM    H9S13905   3.205   3.307   4.415  1.0775 -0.1271  0.0748
  130OSM    H9T13906   3.113   3.460   4.369  1.8818  1.7436  0.5324
  130OSM   C10S13907   3.280   3.494   4.497  0.1703 -0.4107 -0.4590
  130OSM   H10S13908   3.295   3.599   4.467 -0.6495  0.1432  0.9731
  130OSM   H10T13909   3.379   3.448   4.518 -0.0219 -1.1544 -1.1363
  130OSM   C11S13910   3.189   3.494   4.618  0.7536 -0.2476 -0.7680
  130OSM   H11S13911   3.170   3.387   4.644 -1.3348 -0.7481 -3.8046
  130OSM   H11T13912   3.087   3.534   4.602  0.6524 -0.3467 -0.3809
  130OSM   C12S13913   3.236   3.568   4.746  0.1553 -0.6226  0.3506
  130OSM   H12S13914   3.267   3.670   4.714 -0.2945 -0.1055  1.4916
  130OSM   H12T13915   3.332   3.528   4.786  0.2666 -0.9619 -0.2528
  130OSM   C13S13916   3.129   3.566   4.860 -0.2208  0.6518  0.1040
  130OSM   H13S13917   3.085   3.467   4.883  1.8750 -0.1059  1.0202
  130OSM   H13T13918   3.047   3.633   4.825 -1.2073 -0.2687  0.6137
  130OSM   C14S13919   3.185   3.640   4.982  0.0634  0.6049  0.3249
  130OSM   H14S13920   3.199   3.748   4.957  0.0784  0.5268 -0.0012
  130OSM   H14T13921   3.282   3.588   4.996  0.2187  0.2497 -1.7648
  130OSM   C15S13922   3.111   3.631   5.112 -0.0539 -0.1161 -0.0543
  130OSM   H15S13923   3.085   3.526   5.140 -1.2126  0.7630  2.3756
  130OSM   H15T13924   3.017   3.689   5.099 -0.5067 -0.8835 -0.2715
  130OSM   C16S13925   3.189   3.689   5.228 -0.0583 -0.2009  0.8983
  130OSM   H16S13926   3.219   3.795   5.215 -0.2886 -0.0290  1.7375
  130OSM   H16T13927   3.283   3.629   5.234 -0.1699 -0.3027  1.7731
  130OSM   C17S13928   3.124   3.666   5.368 -0.2344 -0.1433 -0.8477
  130OSM   H17S13929   3.048   3.586   5.356  0.8065 -1.4985  1.0678
  130OSM   H17T13930   3.066   3.757   5.394  1.9095  0.3073  3.2006
  130OSM   C18S13931   3.211   3.643   5.493  0.0028  0.1868 -0.0759
  130OSM   H18S13932   3.274   3.552   5.480  2.2025  1.5889  0.3069
  130OSM   H18T13933   3.143   3.629   5.580 -1.1112 -2.7435 -1.2725
  130OSM   H18U13934   3.289   3.720   5.511 -0.8141  1.3348 -1.2860
  130OSM    C1F13935   2.962   2.909   3.892 -0.1297 -0.9638 -0.0079
  130OSM     OF13936   3.008   2.825   3.817 -0.1106 -0.4510  0.6030
  130OSM    C2F13937   2.890   2.874   4.021  0.3849  0.3002  0.9429
  130OSM    H2F13938   2.796   2.933   4.027  0.8647  1.1603  0.3129
  130OSM    H2G13939   2.957   2.918   4.099  0.5448  3.5642 -0.8239
  130OSM    C3F13940   2.875   2.725   4.056  0.5960  0.9052  0.1357
  130OSM    H3F13941   2.957   2.667   4.009 -0.3398  1.0087 -1.7299
  130OSM    H3G13942   2.781   2.693   4.007  0.5614  0.3289  0.5721
  130OSM    C4F13943   2.874   2.709   4.203 -0.3793  0.5584 -0.8749
  130OSM    H4F13944   2.975   2.746   4.233  0.4463 -1.4065 -1.1142
  130OSM    H4G13945   2.873   2.601   4.230 -1.7056  0.5184 -0.9968
  130OSM    C5F13946   2.770   2.787   4.289  0.4317  0.4322  0.2065
  130OSM    H5F13947   2.670   2.753   4.256  0.6712 -1.5373  1.3531
  130OSM    H5G13948   2.792   2.896   4.287 -0.9917  0.7754  1.5812
  130OSM    C6F13949   2.788   2.761   4.440 -0.6826  0.0850  1.0757
  130OSM    H6F13950   2.890   2.793   4.468 -0.0659 -0.4403 -0.4606
  130OSM    H6G13951   2.783   2.653   4.463  1.3087 -0.4365 -0.5922
  130OSM    C7F13952   2.697   2.843   4.525  0.2064  0.0852 -0.2097
  130OSM    H7F13953   2.597   2.838   4.475 -0.5384 -3.1730  1.3399
  130OSM    H7G13954   2.736   2.946   4.532 -2.4001  1.0591  3.9574
  130OSM    C8F13955   2.679   2.791   4.673  0.7971 -0.7633  0.3705
  130OSM    H8F13956   2.779   2.800   4.722  0.6538 -3.1226  1.2181
  130OSM    H8G13957   2.641   2.687   4.670  1.1450 -0.8832 -0.1636
  130OSM    C9F13958   2.574   2.881   4.744  0.5891 -0.1517 -0.0435
  130OSM    H9F13959   2.503   2.914   4.667  1.9160 -0.6595 -1.5105
  130OSM   C10F13960   2.563   2.915   4.871 -0.4025 -0.1444  0.0340
  130OSM   H10F13961   2.490   2.992   4.903 -1.0220  0.0924 -1.8588
  130OSM   C11F13962   2.656   2.869   4.976 -0.5133  0.3099 -0.3731
  130OSM   H11F13963   2.717   2.948   5.024  1.3816  0.3726 -2.6949
  130OSM   H11G13964   2.734   2.806   4.928 -0.2664  0.8128 -0.6321
  130OSM   C12F13965   2.578   2.790   5.091 -0.1425  0.6301 -0.4730
  130OSM   H12F13966   2.519   2.710   5.042 -0.9118  1.6961 -1.3623
  130OSM   H12G13967   2.503   2.853   5.144 -1.8111 -1.5212 -0.1587
  130OSM   C13F13968   2.662   2.719   5.200  0.0555 -0.5870 -0.0774
  130OSM   H13F13969   2.734   2.650   5.151 -0.5197 -2.4138  1.5027
  130OSM   H13G13970   2.606   2.657   5.273  1.4636 -1.1079  0.6102
  130OSM   C14F13971   2.743   2.817   5.290  0.4703 -0.3839  0.5344
  130OSM   H14F13972   2.804   2.882   5.224  1.4471  0.9879  2.6877
  130OSM   H14G13973   2.816   2.754   5.346  0.1802  0.2080  1.6155
  130OSM   C15F13974   2.655   2.897   5.383  0.1600  0.9448  0.3468
  130OSM   H15F13975   2.602   2.828   5.451  1.0975  0.3357  0.4766
  130OSM   H15G13976   2.574   2.953   5.331 -1.1766 -1.1243  0.0688
  130OSM   C16F13977   2.738   2.991   5.484  0.2938 -0.6026 -0.0628
  130OSM   H16F13978   2.662   3.060   5.527  0.9368  0.2528 -0.2667
  130OSM   H16G13979   2.818   3.040   5.425  0.0068 -1.8000 -1.5060
  130OSM   C17F13980   2.795   2.922   5.604  0.5861 -0.0457 -0.0266
  130OSM   H17F13981   2.875   2.847   5.581  2.6467  0.9373  3.2511
  130OSM   H17G13982   2.709   2.870   5.651  0.0953  0.0115 -0.8428
  130OSM   C18F13983   2.834   3.020   5.716  0.6048 -0.0524  0.7230
  130OSM   H18F13984   2.759   3.101   5.728 -0.5922 -1.1354  0.8160
  130OSM   H18G13985   2.932   3.072   5.708  0.1338  0.6740 -0.5354
  130OSM   H18H13986   2.831   2.962   5.811 -0.5396  1.4677  1.6712
  131OSM      N13987   1.802   1.621   3.594 -0.3411 -0.0742 -0.3535
  131OSM    C1513988   1.910   1.526   3.638 -0.2945  0.2009 -0.7086
  131OSM   H15A13989   1.984   1.569   3.704 -0.4462  0.6809 -0.8485
  131OSM   H15B13990   1.944   1.481   3.545 -0.8355 -3.0599  0.5438
  131OSM   H15C13991   1.865   1.441   3.686 -0.9281  0.9614  0.0809
  131OSM    C1413992   1.864   1.741   3.522  0.2557  0.2101  0.3135
  131OSM   H14A13993   1.794   1.809   3.475 -0.5849 -1.7824 -1.4865
  131OSM   H14B13994   1.937   1.712   3.449  2.1083  1.6450  1.5070
  131OSM   H14C13995   1.919   1.800   3.594  0.1452 -0.3708  0.8839
  131OSM    C1313996   1.710   1.543   3.504  0.1434 -0.6408  0.4528
  131OSM   H13A13997   1.651   1.469   3.556 -1.6508 -0.0856 -0.7024
  131OSM   H13B13998   1.759   1.495   3.420  1.9688  1.7737  0.0230
  131OSM   H13C13999   1.639   1.607   3.454  1.1042 -1.0172 -1.5023
  131OSM    C1214000   1.720   1.663   3.713 -0.3231  0.1203  0.3516
  131OSM   H12A14001   1.633   1.713   3.671 -0.6815 -2.0698 -1.7377
  131OSM   H12B14002   1.780   1.725   3.778 -0.0509  0.4505 -0.2111
  131OSM    C1114003   1.663   1.552   3.805 -0.3020 -0.1781  0.0745
  131OSM   H11A14004   1.622   1.612   3.889 -0.2803 -2.7450  2.0574
  131OSM   H11B14005   1.743   1.484   3.842  0.1305  1.4229  2.2944
  131OSM      P14006   1.427   1.511   3.702 -0.0092 -0.1062  0.0258
  131OSM    O1314007   1.413   1.660   3.711  0.5010  0.0563 -0.1656
  131OSM    O1414008   1.391   1.451   3.571 -0.0489 -0.1094 -0.3189
  131OSM    O1114009   1.343   1.440   3.816  0.2081 -0.0055  0.6154
  131OSM    O1214010   1.570   1.465   3.744 -0.3710 -0.2926  0.3199
  131OSM    C1S14011   1.305   1.301   3.791  0.5706 -0.0891  0.2493
  131OSM    H1S14012   1.378   1.240   3.734 -0.7961 -0.5995 -1.0396
  131OSM    H1T14013   1.211   1.306   3.730  0.5226  0.6885  0.3789
  131OSM     NF14014   1.263   1.083   3.903 -0.0745  0.5108  0.1173
  131OSM    HNF14015   1.175   1.038   3.892  1.0278 -1.6204 -0.5860
  131OSM    C2S14016   1.274   1.227   3.924 -0.2056 -0.1483  0.0250
  131OSM    H2S14017   1.365   1.244   3.986 -0.4440  1.1557  0.0541
  131OSM    C3S14018   1.154   1.296   3.997 -0.1793 -0.8881 -0.9233
  131OSM    H3S14019   1.058   1.279   3.944 -1.2321 -1.3133  1.0350
  131OSM     O314020   1.163   1.439   3.994  0.7341 -0.1173  0.4039
  131OSM    HO314021   1.241   1.455   3.940  1.1380 -0.0710  0.9882
  131OSM    C4S14022   1.125   1.244   4.129  0.5899  0.1818 -0.6543
  131OSM    H4S14023   1.026   1.197   4.145 -0.3258  2.1438 -0.3041
  131OSM    C5S14024   1.185   1.278   4.240 -0.1971 -1.0305  0.5279
  131OSM    H5S14025   1.248   1.369   4.240 -0.6316 -0.7205  0.1439
  131OSM    C6S14026   1.135   1.233   4.376 -0.1549  0.5792 -0.1866
  131OSM    H6S14027   1.063   1.308   4.416  0.1065  0.1030  1.2241
  131OSM    H6T14028   1.221   1.235   4.446  0.1713  2.1430 -0.6071
  131OSM    C7S14029   1.049   1.102   4.387 -0.0274  0.7042  0.1604
  131OSM    H7S14030   1.097   1.024   4.325  1.1639  0.8294  0.9102
  131OSM    H7T14031   0.946   1.122   4.349 -0.9882 -1.3604  1.4812
  131OSM    C8S14032   1.037   1.055   4.530  0.2138 -0.0695 -0.3434
  131OSM    H8S14033   1.024   1.138   4.603  0.3086  1.1428 -1.6672
  131OSM    H8T14034   1.127   0.998   4.560 -1.1551 -1.1589  1.9437
  131OSM    C9S14035   0.915   0.959   4.548  0.0176 -0.4896  0.1854
  131OSM    H9S14036   0.916   0.873   4.478 -1.6298 -1.3577  1.1780
  131OSM    H9T14037   0.833   1.030   4.523 -0.3113 -0.8010  0.3775
  131OSM   C10S14038   0.897   0.911   4.692  0.0066 -0.9771  0.6990
  131OSM   H10S14039   0.998   0.909   4.738  0.0004 -1.2101  0.7039
  131OSM   H10T14040   0.860   0.806   4.696  0.3380 -1.0931  0.7584
  131OSM   C11S14041   0.793   0.996   4.764 -0.2157  0.3169  0.1524
  131OSM   H11S14042   0.686   0.983   4.737 -0.2296  1.9876 -0.7048
  131OSM   H11T14043   0.821   1.102   4.750  0.3785 -0.1304 -2.4848
  131OSM   C12S14044   0.792   0.954   4.912  0.2975  0.6873 -1.4162
  131OSM   H12S14045   0.889   0.984   4.957 -0.3127  0.5346  0.0585
  131OSM   H12T14046   0.776   0.845   4.926 -1.3103  0.8769 -1.6400
  131OSM   C13S14047   0.672   1.023   4.990  0.1896  0.0530 -0.0279
  131OSM   H13S14048   0.576   0.981   4.953 -0.5090  1.2434  0.3939
  131OSM   H13T14049   0.667   1.132   4.972 -0.5259  0.5027  2.4341
  131OSM   C14S14050   0.684   0.995   5.136  0.3746  0.0312 -0.3840
  131OSM   H14S14051   0.768   1.045   5.188  0.3000 -1.1432  0.9272
  131OSM   H14T14052   0.703   0.887   5.156 -1.3720  0.2031  2.9467
  131OSM   C15S14053   0.542   1.020   5.207 -0.8215  0.6017 -0.5320
  131OSM   H15S14054   0.461   1.005   5.133 -2.4010 -2.4057  1.5583
  131OSM   H15T14055   0.530   1.125   5.239  0.0225 -0.0853  2.3951
  131OSM   C16S14056   0.507   0.927   5.332 -0.1396  0.1903  0.5146
  131OSM   H16S14057   0.596   0.934   5.398 -0.3671  0.1561  0.8287
  131OSM   H16T14058   0.502   0.820   5.302  0.9933 -0.2975  1.9482
  131OSM   C17S14059   0.387   0.974   5.416 -0.9472 -0.4952 -0.6162
  131OSM   H17S14060   0.300   0.994   5.349 -0.4023  1.1529 -0.8719
  131OSM   H17T14061   0.403   1.063   5.480 -1.5341  0.5878 -1.9243
  131OSM   C18S14062   0.341   0.864   5.510  0.5193  0.9305 -0.5896
  131OSM   H18S14063   0.380   0.872   5.614  1.2316  0.1845 -0.7852
  131OSM   H18T14064   0.366   0.765   5.468  1.7099  1.0502 -0.1988
  131OSM   H18U14065   0.231   0.874   5.517  0.2286 -1.1233 -1.5377
  131OSM    C1F14066   1.364   0.999   3.883  0.4037  0.4577  0.5862
  131OSM     OF14067   1.478   1.049   3.870  0.3232 -0.3187 -0.1964
  131OSM    C2F14068   1.330   0.847   3.869  0.3167 -0.5228  0.0804
  131OSM    H2F14069   1.376   0.830   3.769 -0.3238  0.4768 -0.4089
  131OSM    H2G14070   1.219   0.834   3.864  0.0954  0.8435  1.0650
  131OSM    C3F14071   1.374   0.763   3.986 -0.1269  1.1655 -0.3513
  131OSM    H3F14072   1.485   0.767   3.989 -0.0099 -1.1143  0.1443
  131OSM    H3G14073   1.342   0.662   3.953 -0.7020  1.5921 -1.1162
  131OSM    C4F14074   1.313   0.805   4.121  0.2898  0.2612  0.4233
  131OSM    H4F14075   1.206   0.831   4.111  0.3400  0.1506 -0.4486
  131OSM    H4G14076   1.356   0.902   4.155  2.9835 -1.4952  2.4854
  131OSM    C5F14077   1.329   0.697   4.235  0.0044 -0.2946 -0.0467
  131OSM    H5F14078   1.434   0.660   4.238 -0.9975 -3.4612 -0.2790
  131OSM    H5G14079   1.268   0.609   4.205 -0.9387 -0.2737  1.6570
  131OSM    C6F14080   1.272   0.761   4.364  0.4843  1.0108  0.3225
  131OSM    H6F14081   1.163   0.781   4.359  0.3631  0.5671  1.0360
  131OSM    H6G14082   1.325   0.855   4.388  1.3678  0.8523 -0.8991
  131OSM    C7F14083   1.281   0.659   4.478  0.1655 -0.1002 -0.2844
  131OSM    H7F14084   1.385   0.622   4.489 -0.2806 -1.2841  0.1232
  131OSM    H7G14085   1.210   0.577   4.455 -1.4553  0.1841  3.0311
  131OSM    C8F14086   1.233   0.719   4.615  0.4704 -0.4751 -0.5050
  131OSM    H8F14087   1.127   0.752   4.611  0.1684 -0.9793  1.8829
  131OSM    H8G14088   1.305   0.803   4.616 -0.6224  0.4865  0.3358
  131OSM    C9F14089   1.277   0.640   4.734 -0.2188 -0.3700 -1.0568
  131OSM    H9F14090   1.387   0.636   4.729 -0.1386  0.4523 -0.0974
  131OSM   C10F14091   1.207   0.573   4.824  0.4037  0.2976 -0.4128
  131OSM   H10F14092   1.270   0.518   4.895 -1.0789  0.4772  1.0975
  131OSM   C11F14093   1.057   0.569   4.837  0.1942  0.0221  0.2613
  131OSM   H11F14094   1.029   0.462   4.843  1.9862 -0.6521 -1.9233
  131OSM   H11G14095   1.012   0.607   4.743  0.7630 -0.2203 -0.1138
  131OSM   C12F14096   0.996   0.654   4.953  0.9937 -0.3516 -0.4958
  131OSM   H12F14097   0.886   0.666   4.944  1.1622  1.7126 -0.0654
  131OSM   H12G14098   1.035   0.757   4.941 -0.1098 -0.0258 -1.4574
  131OSM   C13F14099   1.044   0.589   5.086  0.0669 -0.0486 -0.0117
  131OSM   H13F14100   1.155   0.590   5.081  0.0367 -0.0472 -0.6813
  131OSM   H13G14101   0.999   0.487   5.090  0.2766 -0.1697 -0.6570
  131OSM   C14F14102   1.008   0.676   5.202 -0.5881 -0.2020 -0.2642
  131OSM   H14F14103   0.899   0.701   5.197 -0.5659 -0.3228 -2.2668
  131OSM   H14G14104   1.067   0.770   5.200  0.0753 -0.5112  2.0191
  131OSM   C15F14105   1.038   0.616   5.345 -0.5265  0.4761  0.3302
  131OSM   H15F14106   1.008   0.695   5.418 -1.3708  0.5594 -0.0888
  131OSM   H15G14107   1.146   0.595   5.357 -0.3051  2.2254  2.0297
  131OSM   C16F14108   0.973   0.479   5.362 -0.4011  0.4291  0.1131
  131OSM   H16F14109   1.002   0.407   5.282 -2.1300 -0.3116  0.1069
  131OSM   H16G14110   0.864   0.499   5.353 -0.9166 -1.1361  2.0384
  131OSM   C17F14111   1.008   0.410   5.493  0.2324  0.0998  0.3106
  131OSM   H17F14112   1.006   0.482   5.577  0.1420 -0.6776  0.9813
  131OSM   H17G14113   1.114   0.376   5.494  0.1074 -0.4352 -1.2252
  131OSM   C18F14114   0.909   0.296   5.524 -0.7354  0.3399 -0.1280
  131OSM   H18F14115   0.810   0.319   5.479 -1.4759 -1.1613  0.6580
  131OSM   H18G14116   0.896   0.296   5.634  2.7689 -1.7174  0.4446
  131OSM   H18H14117   0.940   0.198   5.483 -1.5641  0.2848 -0.6333
  132OSM      N14118   1.116   1.218   3.321 -0.0514 -0.1440  0.3246
  132OSM    C1514119   1.252   1.186   3.260 -0.4036 -0.1470  0.2951
  132OSM   H15A14120   1.265   1.232   3.163 -2.3276 -0.4244 -0.1220
  132OSM   H15B14121   1.263   1.079   3.247  0.9503  0.0281 -0.1585
  132OSM   H15C14122   1.334   1.220   3.321 -0.7157 -0.6014  0.9819
  132OSM    C1414123   1.098   1.364   3.337 -0.0333 -0.1758 -0.5952
  132OSM   H14A14124   1.028   1.405   3.408 -0.5273  1.4232 -1.9568
  132OSM   H14B14125   1.070   1.418   3.248  0.0191 -0.1296 -0.5843
  132OSM   H14C14126   1.195   1.408   3.356  0.6477 -1.5455 -0.7786
  132OSM    C1314127   1.011   1.175   3.233 -0.5490 -0.2694 -0.4791
  132OSM   H13A14128   1.005   1.240   3.147  0.9622  2.0557  1.0500
  132OSM   H13B14129   0.915   1.169   3.283 -1.1453  0.5162 -1.5115
  132OSM   H13C14130   1.015   1.074   3.196 -3.8346  0.1096 -2.1800
  132OSM    C1214131   1.104   1.155   3.455 -0.7068 -0.3251 -0.5774
  132OSM   H12A14132   1.009   1.184   3.498 -0.6869 -1.8811  0.6263
  132OSM   H12B14133   1.180   1.207   3.512 -2.8378  0.7473  1.4368
  132OSM    C1114134   1.124   1.004   3.467  0.5763 -0.3002  0.6086
  132OSM   H11A14135   1.141   0.980   3.574  1.1533  0.3054  0.6612
  132OSM   H11B14136   1.225   0.978   3.429  0.9861  1.7058  0.1671
  132OSM      P14137   0.891   0.895   3.433 -0.6908 -0.0055 -0.7323
  132OSM    O1314138   0.791   0.927   3.330 -0.1261 -0.2502  0.1633
  132OSM    O1414139   0.908   0.755   3.478  0.3921  0.1774  0.1732
  132OSM    O1114140   0.870   1.006   3.549  0.0960  0.3733  0.1654
  132OSM    O1214141   1.030   0.930   3.388 -0.1545  0.3555 -0.3976
  132OSM    C1S14142   0.754   1.001   3.636 -0.4356 -0.4725 -0.2353
  132OSM    H1S14143   0.660   0.973   3.583 -1.4772 -1.3139  1.9436
  132OSM    H1T14144   0.742   1.100   3.685  0.3607 -1.5106  2.2361
  132OSM     NF14145   0.641   0.907   3.835  0.1935 -0.1430  0.1271
  132OSM    HNF14146   0.639   0.956   3.921  0.2074 -1.7673  1.1056
  132OSM    C2S14147   0.764   0.912   3.763 -0.1388  0.5243  0.4821
  132OSM    H2S14148   0.786   0.809   3.727  0.1916 -0.1118  2.3576
  132OSM    C3S14149   0.881   0.959   3.855 -0.4165 -0.1436  0.1288
  132OSM    H3S14150   0.868   1.064   3.890  1.1530 -0.6325  2.4032
  132OSM     O314151   1.008   0.964   3.787  0.4204 -0.1279 -0.1109
  132OSM    HO314152   0.985   0.960   3.694 -1.7370 -1.4835  0.4268
  132OSM    C4S14153   0.889   0.868   3.984  0.2741 -0.4318  0.7278
  132OSM    H4S14154   0.824   0.903   4.066 -2.3781 -0.6944 -1.1657
  132OSM    C5S14155   0.953   0.753   3.998  0.0599 -0.2794  0.1048
  132OSM    H5S14156   1.025   0.727   3.919  0.4094  0.4549  0.1654
  132OSM    C6S14157   0.954   0.661   4.119 -0.3438  0.3647  0.1418
  132OSM    H6S14158   0.961   0.726   4.209  1.9915 -1.3324  1.2808
  132OSM    H6T14159   1.038   0.589   4.110 -2.5795 -2.3226 -0.7052
  132OSM    C7S14160   0.823   0.583   4.115 -0.1038  0.8230  0.7775
  132OSM    H7S14161   0.833   0.511   4.031 -2.7268  1.1858  0.0482
  132OSM    H7T14162   0.738   0.654   4.103  0.3778  1.1167 -1.1304
  132OSM    C8S14163   0.802   0.501   4.244  0.3152  0.5977 -0.0698
  132OSM    H8S14164   0.890   0.441   4.276  1.2735  1.6645 -0.6215
  132OSM    H8T14165   0.724   0.423   4.234  1.4994 -0.6783  0.3164
  132OSM    C9S14166   0.758   0.586   4.365 -0.4251  0.3724  0.3743
  132OSM    H9S14167   0.673   0.651   4.335  0.5769  1.5750  0.0721
  132OSM    H9T14168   0.838   0.655   4.400 -0.0494  0.3615 -0.4519
  132OSM   C10S14169   0.703   0.499   4.473  0.4750  0.9860 -0.6229
  132OSM   H10S14170   0.790   0.449   4.520  0.2775  1.6510  0.4899
  132OSM   H10T14171   0.636   0.416   4.441 -1.2056  1.0369  2.4432
  132OSM   C11S14172   0.650   0.571   4.596 -0.0221  0.4482 -0.3256
  132OSM   H11S14173   0.543   0.598   4.584 -0.3953 -0.6767  0.2698
  132OSM   H11T14174   0.707   0.666   4.609 -0.3100  0.6843 -0.7723
  132OSM   C12S14175   0.656   0.486   4.717  0.1727  0.3859  0.2641
  132OSM   H12S14176   0.751   0.429   4.720  0.0086  0.1544  2.1191
  132OSM   H12T14177   0.580   0.406   4.706 -0.2696  0.7758  0.4313
  132OSM   C13S14178   0.621   0.561   4.849  1.0110  0.0117 -0.2797
  132OSM   H13S14179   0.520   0.606   4.842  0.4002 -1.1594  0.6343
  132OSM   H13T14180   0.688   0.647   4.870 -0.7475  1.1585  0.9818
  132OSM   C14S14181   0.633   0.458   4.957 -1.1999 -0.6741 -0.3599
  132OSM   H14S14182   0.732   0.413   4.933 -0.6414  0.2276  0.1482
  132OSM   H14T14183   0.548   0.387   4.955 -0.8649 -1.5559  4.4043
  132OSM   C15S14184   0.655   0.505   5.100 -0.0305  0.4131 -0.2209
  132OSM   H15S14185   0.729   0.587   5.089 -0.9794  1.4777  1.0301
  132OSM   H15T14186   0.695   0.422   5.161  1.1370 -0.6927 -2.3750
  132OSM   C16S14187   0.533   0.574   5.160  0.3148 -0.1153  0.4087
  132OSM   H16S14188   0.505   0.655   5.088 -0.3685  0.7038  1.5567
  132OSM   H16T14189   0.562   0.635   5.249  0.3592 -0.5316  0.6798
  132OSM   C17S14190   0.429   0.476   5.200 -0.1528  0.1255 -0.2556
  132OSM   H17S14191   0.467   0.381   5.242 -2.0785 -0.2077  0.8501
  132OSM   H17T14192   0.378   0.446   5.106  1.5235 -1.9775 -0.5529
  132OSM   C18S14193   0.327   0.532   5.294  0.6351  0.3281 -0.4167
  132OSM   H18S14194   0.257   0.450   5.321  1.1656  0.2839  0.8824
  132OSM   H18T14195   0.269   0.620   5.259 -0.6109  0.8337  2.5783
  132OSM   H18U14196   0.375   0.561   5.389 -0.8342  1.9451 -0.1209
  132OSM    C1F14197   0.529   0.853   3.776  0.1529 -0.3468 -0.0027
  132OSM     OF14198   0.531   0.784   3.675  0.8821 -0.7794  0.6374
  132OSM    C2F14199   0.394   0.879   3.837  0.7311 -0.5526  0.0436
  132OSM    H2F14200   0.332   0.941   3.769 -0.0915  0.1624  1.3925
  132OSM    H2G14201   0.408   0.935   3.932  1.7340 -0.0899 -0.3563
  132OSM    C3F14202   0.293   0.755   3.854  0.3069 -0.5149  1.0257
  132OSM    H3F14203   0.271   0.701   3.759  0.0781  2.7903 -0.9907
  132OSM    H3G14204   0.196   0.803   3.879 -0.1054 -0.9989  0.3794
  132OSM    C4F14205   0.344   0.674   3.974  0.3786 -0.9844  0.1452
  132OSM    H4F14206   0.315   0.735   4.062 -1.5283  1.3839 -1.9814
  132OSM    H4G14207   0.455   0.661   3.978  0.3750 -0.8777  3.0879
  132OSM    C5F14208   0.292   0.522   3.990  0.4304 -0.2229  0.7613
  132OSM    H5F14209   0.300   0.474   3.890  0.2488 -0.4066  0.8349
  132OSM    H5G14210   0.183   0.521   4.013  0.1866 -1.7805 -0.3240
  132OSM    C6F14211   0.372   0.438   4.086  0.7855 -0.8827 -0.4168
  132OSM    H6F14212   0.481   0.438   4.065  1.1409  0.3622  1.1951
  132OSM    H6G14213   0.344   0.330   4.091 -0.6550 -0.4800  1.3131
  132OSM    C7F14214   0.364   0.491   4.237 -0.6073  0.7835  0.2075
  132OSM    H7F14215   0.401   0.596   4.238  3.2384 -0.3869 -0.2230
  132OSM    H7G14216   0.439   0.435   4.297 -1.3303  0.2392  0.6192
  132OSM    C8F14217   0.220   0.476   4.307 -0.0617  0.3945 -1.2538
  132OSM    H8F14218   0.195   0.368   4.315  0.6880  0.2436 -0.8127
  132OSM    H8G14219   0.150   0.539   4.249 -0.0160  2.7375  1.0593
  132OSM    C9F14220   0.224   0.542   4.447  0.5040  0.5613  0.3745
  132OSM    H9F14221   0.229   0.651   4.439  0.3312  0.5812  0.5316
  132OSM   C10F14222   0.205   0.495   4.575 -0.2404  0.1776  0.3537
  132OSM   H10F14223   0.226   0.565   4.657 -0.8021  0.6696  0.0850
  132OSM   C11F14224   0.179   0.350   4.604 -0.2823  0.8406  0.8090
  132OSM   H11F14225   0.220   0.290   4.520 -1.5216  0.0139  0.7671
  132OSM   H11G14226   0.070   0.328   4.595  0.3705 -1.9191 -2.1245
  132OSM   C12F14227   0.233   0.289   4.737 -0.4585  1.0642 -0.6597
  132OSM   H12F14228   0.330   0.333   4.767 -0.6555  0.9264  0.1997
  132OSM   H12G14229   0.248   0.180   4.723  0.0807  0.8831  1.1081
  132OSM   C13F14230   0.144   0.289   4.859 -0.1537  0.0023  0.4117
  132OSM   H13F14231   0.189   0.231   4.942 -1.9808 -1.2054  0.6031
  132OSM   H13G14232   0.049   0.238   4.832  0.2802 -1.2129  1.1037
  132OSM   C14F14233   0.110   0.432   4.906 -0.0216 -0.6446 -0.7496
  132OSM   H14F14234   0.048   0.487   4.833 -1.0648  0.4529  0.9012
  132OSM   H14G14235   0.208   0.480   4.927 -0.0793 -1.0795  0.6178
  132OSM   C15F14236   0.034   0.423   5.037  0.0705  0.1476 -0.8582
  132OSM   H15F14237   0.087   0.359   5.111 -0.2080  2.2143  1.2466
  132OSM   H15G14238  -0.067   0.381   5.019  1.2689 -3.7955  0.5791
  132OSM   C16F14239   0.022   0.566   5.103  0.1069  0.7529  0.1003
  132OSM   H16F14240  -0.026   0.626   5.023  0.4019 -0.9253 -1.3779
  132OSM   H16G14241   0.121   0.614   5.115 -0.1394  1.3990 -0.3466
  132OSM   C17F14242  -0.066   0.566   5.230  0.5303 -0.4477 -0.3058
  132OSM   H17F14243  -0.016   0.496   5.301 -0.8879 -1.7160 -0.5205
  132OSM   H17G14244  -0.166   0.528   5.201  1.1729 -1.2891 -1.4882
  132OSM   C18F14245  -0.087   0.708   5.291  0.5231 -0.1336  0.0529
  132OSM   H18F14246   0.013   0.754   5.306  0.5381 -0.1622  0.0405
  132OSM   H18G14247  -0.139   0.687   5.387 -1.5377  0.3773 -0.8878
  132OSM   H18H14248  -0.139   0.774   5.219  1.9163  0.7663 -0.1688
  133OSM      N14249   4.893   2.899   3.226  0.0552 -0.1389  0.3218
  133OSM    C1514250   5.028   2.955   3.243  0.1005  0.5676  0.2317
  133OSM   H15A14251   5.094   2.896   3.305 -0.0756  0.3327  0.1974
  133OSM   H15B14252   5.019   3.049   3.296 -0.9006  0.4288  0.3163
  133OSM   H15C14253   5.079   2.952   3.148 -0.5640 -1.2327 -0.1058
  133OSM    C1414254   4.821   2.984   3.129 -0.1277  0.0014 -0.0382
  133OSM   H14A14255   4.721   2.947   3.116 -1.6017  3.3354  0.8099
  133OSM   H14B14256   4.877   2.979   3.036  0.8338 -0.1905  0.5330
  133OSM   H14C14257   4.807   3.088   3.157  1.2280 -0.4565  2.7393
  133OSM    C1314258   4.908   2.762   3.175  0.3792 -0.2374 -0.0284
  133OSM   H13A14259   4.812   2.718   3.154 -1.3657  2.4606  1.7644
  133OSM   H13B14260   4.956   2.701   3.250  0.3495 -1.1556 -0.7341
  133OSM   H13C14261   4.972   2.761   3.088  2.9200 -1.5839  1.7154
  133OSM    C1214262   4.818   2.898   3.361 -0.2549  0.0339 -0.0784
  133OSM   H12A14263   4.725   2.843   3.351  0.1885 -0.8236  0.3675
  133OSM   H12B14264   4.781   2.997   3.384 -0.9187 -0.7661  2.7367
  133OSM    C1114265   4.903   2.848   3.481  0.6011  0.7881 -0.2356
  133OSM   H11A14266   4.840   2.844   3.573 -0.9294 -1.0750 -1.3025
  133OSM   H11B14267   4.988   2.920   3.489  1.5133 -0.2630 -0.2052
  133OSM      P14268   5.099   2.675   3.508 -0.0766 -0.2361  0.8431
  133OSM    O1314269   5.124   2.538   3.455 -0.8840  0.3489  0.1326
  133OSM    O1414270   5.202   2.777   3.469  0.4390 -0.1348 -0.6136
  133OSM    O1114271   5.082   2.694   3.662 -0.3223 -0.3880  0.3583
  133OSM    O1214272   4.952   2.715   3.453 -0.1236 -1.2068 -0.5317
  133OSM    C1S14273   4.982   2.632   3.739  0.0090  0.0714 -0.1373
  133OSM    H1S14274   4.982   2.521   3.733  1.9019 -0.0347  1.0989
  133OSM    H1T14275   4.883   2.670   3.705 -0.7435 -0.1611  1.7156
  133OSM     NF14276   4.913   2.603   3.974  0.0983 -0.4471 -0.1219
  133OSM    HNF14277   4.823   2.643   3.988  0.4059  0.8990 -1.7315
  133OSM    C2S14278   5.002   2.680   3.884  0.1484  1.0409 -0.4490
  133OSM    H2S14279   5.109   2.655   3.903 -0.5138 -1.6125  0.2353
  133OSM    C3S14280   4.998   2.828   3.890 -0.7736 -0.6271 -0.0160
  133OSM    H3S14281   4.913   2.871   3.834 -0.4556  1.0569  0.7289
  133OSM     O314282   5.109   2.886   3.824  0.2079  0.1872 -0.4143
  133OSM    HO314283   5.121   2.824   3.751 -0.9453 -1.5752  0.8156
  133OSM    C4S14284   4.993   2.874   4.036 -0.6452  0.0177  0.3999
  133OSM    H4S14285   5.084   2.882   4.098 -0.6400  3.1257  0.1525
  133OSM    C5S14286   4.889   2.921   4.102  0.1465 -0.4622 -0.0040
  133OSM    H5S14287   4.787   2.930   4.061  0.5236 -1.6574 -1.2854
  133OSM    C6S14288   4.899   2.949   4.248  0.2788 -0.3682 -0.1350
  133OSM    H6S14289   4.972   3.032   4.264 -1.2786  0.9647  0.4233
  133OSM    H6T14290   4.942   2.865   4.307 -0.1695 -0.5095 -0.0051
  133OSM    C7S14291   4.767   2.989   4.321 -0.0254  0.3813  0.6116
  133OSM    H7S14292   4.683   2.918   4.314 -3.2652  3.7833  1.5997
  133OSM    H7T14293   4.739   3.088   4.278  0.6169  0.2859 -0.0410
  133OSM    C8S14294   4.770   3.009   4.475 -0.3197 -0.2857 -0.5417
  133OSM    H8S14295   4.683   3.070   4.507  1.2362  0.8736  1.7478
  133OSM    H8T14296   4.862   3.063   4.507 -0.6701 -0.8970  1.6501
  133OSM    C9S14297   4.764   2.882   4.561  0.0765 -0.0102 -0.2602
  133OSM    H9S14298   4.864   2.837   4.547  0.3985  1.0079 -1.3903
  133OSM    H9T14299   4.684   2.815   4.524  2.2416 -2.3716 -0.9079
  133OSM   C10S14300   4.749   2.911   4.706  0.2569  0.2038 -0.6648
  133OSM   H10S14301   4.703   3.008   4.731  2.1952  0.9795  0.0882
  133OSM   H10T14302   4.849   2.935   4.747  0.2885  0.2101 -0.7453
  133OSM   C11S14303   4.701   2.795   4.795 -0.1849  0.0295 -0.7182
  133OSM   H11S14304   4.772   2.710   4.786 -0.0242  0.2011 -1.1022
  133OSM   H11T14305   4.604   2.765   4.751 -0.4736  0.1569 -0.1799
  133OSM   C12S14306   4.696   2.822   4.946 -0.0990 -0.7838  0.5579
  133OSM   H12S14307   4.631   2.909   4.969  4.0059  2.8562 -0.1555
  133OSM   H12T14308   4.797   2.857   4.977 -0.7985  1.5077  0.4080
  133OSM   C13S14309   4.662   2.693   5.023  0.2086  0.1121 -0.6550
  133OSM   H13S14310   4.723   2.618   4.969  2.0924  0.6897  0.5563
  133OSM   H13T14311   4.555   2.677   4.998  0.1158  1.7373 -1.4857
  133OSM   C14S14312   4.686   2.684   5.178  0.2764 -0.0042 -0.1183
  133OSM   H14S14313   4.603   2.730   5.235  1.4642 -1.1675  2.7965
  133OSM   H14T14314   4.778   2.741   5.203 -0.1632  0.5153  0.3228
  133OSM   C15S14315   4.696   2.542   5.233  0.3965  0.0085  0.0287
  133OSM   H15S14316   4.787   2.486   5.202  0.6545  1.0500 -1.1942
  133OSM   H15T14317   4.605   2.494   5.192  0.1558 -0.1018  0.6913
  133OSM   C16S14318   4.682   2.534   5.383  0.4123 -0.4870 -0.1019
  133OSM   H16S14319   4.596   2.593   5.420 -0.0688 -1.3644  0.1862
  133OSM   H16T14320   4.767   2.574   5.442 -0.8482  1.0140  0.7526
  133OSM   C17S14321   4.654   2.396   5.440  0.2956 -0.4347  0.5405
  133OSM   H17S14322   4.559   2.365   5.392  0.8873 -0.7142 -0.4700
  133OSM   H17T14323   4.620   2.417   5.544 -1.6785  1.8710 -0.4628
  133OSM   C18S14324   4.759   2.287   5.445 -1.1474  0.9373  0.8786
  133OSM   H18S14325   4.722   2.188   5.478 -1.2096  1.4187  2.3239
  133OSM   H18T14326   4.848   2.318   5.503 -1.2156  0.9310  0.9888
  133OSM   H18U14327   4.802   2.262   5.346  1.5170  0.7947  1.9982
  133OSM    C1F14328   4.926   2.480   4.006  0.0514  0.0331  0.2723
  133OSM     OF14329   5.027   2.416   3.974 -0.6328 -0.2984  0.2871
  133OSM    C2F14330   4.812   2.424   4.082  0.4928  0.4585 -0.7387
  133OSM    H2F14331   4.784   2.326   4.037 -0.5888 -0.5800  1.9726
  133OSM    H2G14332   4.720   2.483   4.065  0.0036  0.6588  2.0880
  133OSM    C3F14333   4.822   2.435   4.234  1.0170 -0.6102  0.1170
  133OSM    H3F14334   4.824   2.544   4.256 -0.3160 -0.7901  1.3318
  133OSM    H3G14335   4.910   2.377   4.270  1.5817  0.2014  0.0602
  133OSM    C4F14336   4.700   2.366   4.308  0.5739 -0.4812 -0.4039
  133OSM    H4F14337   4.705   2.259   4.280 -1.0821 -0.6696 -0.0722
  133OSM    H4G14338   4.608   2.412   4.264  0.6140 -0.3844 -0.3874
  133OSM    C5F14339   4.709   2.399   4.459  0.1851  0.2308  0.5476
  133OSM    H5F14340   4.711   2.509   4.478  0.4496  0.5108 -0.9592
  133OSM    H5G14341   4.805   2.353   4.489 -0.5339 -0.5302  1.7593
  133OSM    C6F14342   4.610   2.338   4.561  0.0801  0.0062 -0.0995
  133OSM    H6F14343   4.611   2.227   4.552 -0.9000 -0.0752  0.6757
  133OSM    H6G14344   4.507   2.372   4.534  0.9968  0.8127 -2.9704
  133OSM    C7F14345   4.631   2.384   4.707  0.1725 -0.3098 -0.1035
  133OSM    H7F14346   4.590   2.486   4.721  1.2175  0.0150  0.6757
  133OSM    H7G14347   4.741   2.393   4.719  0.1465 -1.4171  1.1843
  133OSM    C8F14348   4.572   2.288   4.813 -0.3581 -1.1055 -0.3451
  133OSM    H8F14349   4.591   2.190   4.765 -0.5992 -0.6456 -1.4128
  133OSM    H8G14350   4.462   2.300   4.820 -0.3825 -1.3813 -0.2528
  133OSM    C9F14351   4.644   2.301   4.950  1.1728  0.0213  0.1719
  133OSM    H9F14352   4.684   2.399   4.982 -1.6678  1.0776  0.7977
  133OSM   C10F14353   4.670   2.201   5.032 -0.2739 -0.1087  0.8195
  133OSM   H10F14354   4.717   2.235   5.125 -1.3689  1.5443  0.8224
  133OSM   C11F14355   4.612   2.070   5.010 -0.1292  0.4430 -0.2533
  133OSM   H11F14356   4.667   2.011   4.934 -2.1891 -1.3363 -0.4633
  133OSM   H11G14357   4.505   2.073   4.979  0.3903  2.0958 -2.0561
  133OSM   C12F14358   4.623   1.968   5.131 -0.2395 -0.6964  0.2411
  133OSM   H12F14359   4.732   1.963   5.151 -0.3552 -4.1096  0.6456
  133OSM   H12G14360   4.585   1.866   5.108 -1.0320 -0.8939  2.2424
  133OSM   C13F14361   4.562   2.016   5.261 -0.3431  0.5682 -0.4100
  133OSM   H13F14362   4.451   2.017   5.256 -0.4412 -1.2720  0.6553
  133OSM   H13G14363   4.585   2.120   5.291  2.6344 -0.6242  1.9823
  133OSM   C14F14364   4.599   1.919   5.381 -0.1451  0.2052  0.4915
  133OSM   H14F14365   4.709   1.904   5.380 -0.0982  0.4333 -1.2962
  133OSM   H14G14366   4.558   1.820   5.352 -3.7888  2.3274 -2.5925
  133OSM   C15F14367   4.535   1.953   5.513  0.4806 -0.2797  0.4041
  133OSM   H15F14368   4.432   1.911   5.507  0.5702 -0.7716  2.0330
  133OSM   H15G14369   4.545   2.061   5.538 -0.0048 -0.0979 -0.1519
  133OSM   C16F14370   4.589   1.874   5.632 -0.1941  0.9375  0.3382
  133OSM   H16F14371   4.581   1.767   5.603  0.3958  1.2582 -1.1238
  133OSM   H16G14372   4.520   1.895   5.716  0.1016  0.5309  0.6833
  133OSM   C17F14373   4.738   1.890   5.662  0.0411  0.1656  0.0259
  133OSM   H17F14374   4.761   1.994   5.632 -0.7924 -0.1341 -1.7930
  133OSM   H17G14375   4.799   1.816   5.607  1.7927  1.9263 -0.5174
  133OSM   C18F14376   4.756   1.876   5.815 -0.0581  0.4691 -0.3408
  133OSM   H18F14377   4.704   1.955   5.873 -1.9707  0.6419 -2.1566
  133OSM   H18G14378   4.865   1.871   5.830  0.1344 -1.0390 -1.8791
  133OSM   H18H14379   4.721   1.775   5.844 -1.3021  1.2463  1.0049
  134OSM      N14380   4.316   0.495   3.649 -0.0240  0.0058 -0.6220
  134OSM    C1514381   4.397   0.421   3.755  0.0174  0.3697 -0.1860
  134OSM   H15A14382   4.413   0.478   3.845 -2.2741 -0.1090  0.6123
  134OSM   H15B14383   4.497   0.412   3.716  0.2262  3.1418 -0.4891
  134OSM   H15C14384   4.363   0.320   3.772  1.2312  0.1324  0.9390
  134OSM    C1414385   4.379   0.627   3.635  0.2410 -0.4010 -0.3059
  134OSM   H14A14386   4.332   0.696   3.566 -0.5013  0.4331  1.0040
  134OSM   H14B14387   4.486   0.632   3.617  0.0286  2.9499 -1.3570
  134OSM   H14C14388   4.374   0.667   3.735  1.8728  0.6103 -0.5904
  134OSM    C1314389   4.328   0.418   3.521 -0.2139  0.0858 -0.1439
  134OSM   H13A14390   4.287   0.319   3.532 -2.8022  1.1850  1.0362
  134OSM   H13B14391   4.428   0.409   3.481 -0.6527 -1.8971 -0.8891
  134OSM   H13C14392   4.276   0.466   3.440 -1.0660  1.0117  0.9082
  134OSM    C1214393   4.164   0.512   3.681 -0.0061 -1.6379 -0.0781
  134OSM   H12A14394   4.108   0.555   3.599 -0.4283 -0.7507  0.6552
  134OSM   H12B14395   4.157   0.586   3.759 -1.5398 -0.0843 -1.6009
  134OSM    C1114396   4.085   0.396   3.731  0.4339 -0.0995 -0.2969
  134OSM   H11A14397   4.000   0.449   3.779  1.7345  2.1515 -0.3620
  134OSM   H11B14398   4.142   0.355   3.817  0.7608  0.6301 -0.1660
  134OSM      P14399   3.915   0.271   3.574 -0.6552 -0.1004  0.0808
  134OSM    O1314400   3.861   0.394   3.519  0.4015  0.2266  0.1531
  134OSM    O1414401   3.929   0.168   3.472  0.3463 -0.0935  0.3706
  134OSM    O1114402   3.833   0.212   3.694  1.0029 -0.1550 -0.1532
  134OSM    O1214403   4.057   0.298   3.638  0.4458 -0.1125 -0.0543
  134OSM    C1S14404   3.862   0.086   3.757  0.0081  0.7007  0.2182
  134OSM    H1S14405   3.955   0.046   3.711 -0.8830  0.5594 -1.5503
  134OSM    H1T14406   3.779   0.012   3.746 -2.1828  2.9785  0.5796
  134OSM     NF14407   3.946  -0.010   3.966 -0.8690  0.3851  0.0031
  134OSM    HNF14408   3.890  -0.091   3.979 -0.4793  0.1111  0.0081
  134OSM    C2S14409   3.882   0.107   3.907 -0.0097  0.2852 -0.3904
  134OSM    H2S14410   3.949   0.194   3.924 -1.7107  1.7869 -1.0320
  134OSM    C3S14411   3.740   0.143   3.964  0.3164 -0.3370 -0.7034
  134OSM    H3S14412   3.679   0.050   3.959  0.2998 -0.3140 -0.9103
  134OSM     O314413   3.663   0.246   3.899  0.2794 -0.6561  0.5705
  134OSM    HO314414   3.722   0.265   3.826  0.1897  0.6439  0.8230
  134OSM    C4S14415   3.753   0.173   4.109 -0.6462  1.0701 -0.1247
  134OSM    H4S14416   3.792   0.275   4.126  1.1157  0.0420  2.7404
  134OSM    C5S14417   3.711   0.094   4.209  0.5092 -0.2277  0.5562
  134OSM    H5S14418   3.662  -0.003   4.189  1.5408 -0.1266 -3.2828
  134OSM    C6S14419   3.709   0.148   4.360  0.2322  0.5649  1.1248
  134OSM    H6S14420   3.701   0.062   4.429  0.3014  1.0957  1.8121
  134OSM    H6T14421   3.616   0.207   4.377  0.4276  0.9098  1.0239
  134OSM    C7S14422   3.841   0.223   4.396  0.5893  0.3440  0.4079
  134OSM    H7S14423   3.848   0.309   4.326 -0.2335  0.0955  0.0053
  134OSM    H7T14424   3.935   0.164   4.395  0.6852  0.4836 -1.1201
  134OSM    C8S14425   3.831   0.291   4.538  0.4391  0.1821  0.7139
  134OSM    H8S14426   3.753   0.370   4.535  0.7879  0.5101 -0.5266
  134OSM    H8T14427   3.926   0.339   4.566 -0.2332  0.2485  3.0476
  134OSM    C9S14428   3.792   0.188   4.647  0.0923 -0.0942  0.4443
  134OSM    H9S14429   3.869   0.108   4.654 -0.6346 -0.7730  0.8808
  134OSM    H9T14430   3.688   0.156   4.624 -0.1990  0.3401  1.1191
  134OSM   C10S14431   3.774   0.242   4.789 -0.2438  0.2212 -0.1187
  134OSM   H10S14432   3.677   0.295   4.794 -0.1730  0.3416 -0.0134
  134OSM   H10T14433   3.851   0.319   4.808  0.3102 -0.3223 -0.1148
  134OSM   C11S14434   3.780   0.130   4.889 -0.2270 -0.0132 -0.4918
  134OSM   H11S14435   3.719   0.052   4.840  0.8329 -0.0894 -1.7613
  134OSM   H11T14436   3.735   0.157   4.987  0.2512  0.6954 -0.4549
  134OSM   C12S14437   3.919   0.075   4.932 -0.3554 -0.7522 -0.3931
  134OSM   H12S14438   3.962   0.038   4.836 -1.9053  1.7630 -2.1704
  134OSM   H12T14439   3.913  -0.017   4.994  1.3922  0.1727  1.2269
  134OSM   C13S14440   4.007   0.179   5.015  0.1855  0.4235  0.8801
  134OSM   H13S14441   3.956   0.276   5.000 -2.0733 -0.9389 -1.0004
  134OSM   H13T14442   4.111   0.183   4.975 -0.1436 -0.4254 -0.0840
  134OSM   C14S14443   4.002   0.143   5.162  0.4767  0.1130 -0.2583
  134OSM   H14S14444   4.050   0.044   5.177  2.1750  1.1905  1.9754
  134OSM   H14T14445   3.893   0.132   5.178  0.6064 -0.5220  0.2172
  134OSM   C15S14446   4.060   0.251   5.257  0.1029  0.6869  0.1031
  134OSM   H15S14447   4.019   0.352   5.237 -1.8249 -0.0337  0.1893
  134OSM   H15T14448   4.170   0.256   5.248  0.4762  1.2590  3.4971
  134OSM   C16S14449   4.021   0.218   5.405  0.4901  0.5953  0.1651
  134OSM   H16S14450   4.061   0.116   5.425 -1.0389  0.3480  2.2326
  134OSM   H16T14451   3.912   0.206   5.415  0.5351  1.4881  2.1756
  134OSM   C17S14452   4.080   0.301   5.515  0.1208  0.3563  0.2399
  134OSM   H17S14453   4.038   0.402   5.496  0.9404  0.5724 -0.5165
  134OSM   H17T14454   4.191   0.308   5.513  0.4384 -2.6981  1.2769
  134OSM   C18S14455   4.030   0.249   5.648  1.1491  0.2259 -0.3232
  134OSM   H18S14456   4.077   0.310   5.728  1.2273 -0.8173  0.4441
  134OSM   H18T14457   4.059   0.142   5.657 -0.3512 -0.0471  1.8831
  134OSM   H18U14458   3.919   0.244   5.644  1.0049  1.9242  0.5678
  134OSM    C1F14459   4.084  -0.019   3.970 -0.1997 -0.2778 -0.2743
  134OSM     OF14460   4.157   0.062   3.912 -0.3744 -0.8659  0.1588
  134OSM    C2F14461   4.137  -0.139   4.040 -0.7379 -0.1063  0.2815
  134OSM    H2F14462   4.205  -0.203   3.979  1.2818  0.0102  2.2667
  134OSM    H2G14463   4.052  -0.200   4.076 -2.1214 -0.2352 -2.9650
  134OSM    C3F14464   4.230  -0.080   4.158 -0.1553  0.3935  0.1074
  134OSM    H3F14465   4.311  -0.013   4.121  0.4122 -0.1438  0.3539
  134OSM    H3G14466   4.273  -0.172   4.204 -0.9813 -0.4736 -0.7873
  134OSM    C4F14467   4.152  -0.005   4.269  0.4726  0.0392  0.1836
  134OSM    H4F14468   4.083  -0.079   4.315 -0.2703 -0.3628 -1.5206
  134OSM    H4G14469   4.105   0.083   4.220 -1.2592 -2.4693 -3.0096
  134OSM    C5F14470   4.256   0.031   4.376 -0.2339 -0.1233  0.0245
  134OSM    H5F14471   4.330   0.101   4.331 -0.4656 -0.0544 -0.2535
  134OSM    H5G14472   4.315  -0.059   4.401  3.4753  1.9264 -0.6168
  134OSM    C6F14473   4.201   0.079   4.511 -0.1618 -0.0372 -0.8099
  134OSM    H6F14474   4.117   0.015   4.542  1.3174 -1.2529  0.9118
  134OSM    H6G14475   4.173   0.185   4.493  0.9754  0.2834 -0.8215
  134OSM    C7F14476   4.305   0.082   4.624 -0.3141  0.3718 -0.4871
  134OSM    H7F14477   4.401   0.095   4.570  0.8188 -0.0472  1.3204
  134OSM    H7G14478   4.323  -0.012   4.680  2.4133  0.5867 -0.8986
  134OSM    C8F14479   4.274   0.198   4.724 -0.4275  0.6329  0.6829
  134OSM    H8F14480   4.167   0.204   4.755 -0.1537  2.4026  1.3627
  134OSM    H8G14481   4.292   0.286   4.658  1.3421  0.2243  0.5809
  134OSM    C9F14482   4.366   0.203   4.845 -0.1371 -0.3608 -0.2146
  134OSM    H9F14483   4.407   0.103   4.864  1.7261  0.4693  0.3419
  134OSM   C10F14484   4.389   0.311   4.917  0.3505  0.4404  0.4704
  134OSM   H10F14485   4.453   0.309   5.006 -0.6487 -0.1470  1.1891
  134OSM   C11F14486   4.323   0.445   4.891  0.3773  1.0748 -0.0984
  134OSM   H11F14487   4.263   0.449   4.798 -0.5349  1.9601  0.5106
  134OSM   H11G14488   4.394   0.530   4.886  0.8608  0.6439 -0.7579
  134OSM   C12F14489   4.229   0.485   5.008 -0.1374 -0.0399  1.0091
  134OSM   H12F14490   4.261   0.468   5.113  1.6044  0.4391  0.5882
  134OSM   H12G14491   4.134   0.432   4.986  0.6310 -1.5349  1.1575
  134OSM   C13F14492   4.194   0.646   4.998  0.1723  0.2668  0.0767
  134OSM   H13F14493   4.175   0.669   4.891 -1.2816 -0.8857  0.0602
  134OSM   H13G14494   4.287   0.701   5.025 -0.0447 -0.1240  1.7068
  134OSM   C14F14495   4.076   0.676   5.088  0.5442  0.3014  0.2623
  134OSM   H14F14496   4.114   0.646   5.188 -0.4850  4.9685  2.3038
  134OSM   H14G14497   3.989   0.616   5.056  0.5510 -0.4256  1.5472
  134OSM   C15F14498   4.048   0.821   5.102  0.6784 -0.1241  0.4905
  134OSM   H15F14499   4.032   0.871   5.004 -0.5609  2.2538  1.8211
  134OSM   H15G14500   4.139   0.871   5.141  0.1731  0.5858  0.7900
  134OSM   C16F14501   3.927   0.870   5.189  0.1469  0.6979  0.5794
  134OSM   H16F14502   3.833   0.828   5.149  1.0377 -1.1883  0.3562
  134OSM   H16G14503   3.920   0.980   5.174  1.2597  0.6386 -0.5456
  134OSM   C17F14504   3.932   0.815   5.333  0.2964 -0.5354 -0.2150
  134OSM   H17F14505   4.030   0.853   5.370 -0.1013  0.9415 -0.6287
  134OSM   H17G14506   3.918   0.705   5.324  2.0848 -1.0965  2.5766
  134OSM   C18F14507   3.810   0.863   5.417 -0.1469  1.0717 -0.3829
  134OSM   H18F14508   3.830   0.837   5.523 -1.1558  1.5321 -0.0668
  134OSM   H18G14509   3.717   0.820   5.373 -0.3956  2.5882 -1.4394
  134OSM   H18H14510   3.801   0.974   5.411  1.6211  1.3295  1.0116
  135OSM      N14511   6.517   3.826   3.605 -0.5408  0.0294 -0.4242
  135OSM    C1514512   6.625   3.832   3.707 -0.1029 -0.1584 -0.1957
  135OSM   H15A14513   6.711   3.774   3.678 -0.3298  0.1095 -1.4630
  135OSM   H15B14514   6.588   3.799   3.803  2.7562  2.6238  2.0892
  135OSM   H15C14515   6.657   3.935   3.715 -0.6883 -0.0777  1.6244
  135OSM    C1414516   6.462   3.686   3.579  0.3418 -0.4790 -0.0703
  135OSM   H14A14517   6.399   3.678   3.491  0.5928 -0.4465 -0.2547
  135OSM   H14B14518   6.409   3.658   3.669 -1.5719 -1.2665 -1.3721
  135OSM   H14C14519   6.538   3.611   3.563  0.3150 -1.2427  2.8497
  135OSM    C1314520   6.397   3.897   3.663  0.0165 -0.4432  0.7699
  135OSM   H13A14521   6.426   4.000   3.674  1.9298 -0.8563 -0.0149
  135OSM   H13B14522   6.372   3.873   3.765 -0.5336 -1.5823  0.3916
  135OSM   H13C14523   6.316   3.882   3.593  0.6108  0.3227 -0.0998
  135OSM    C1214524   6.560   3.898   3.483 -0.0376  0.2610  0.1224
  135OSM   H12A14525   6.474   3.908   3.420  0.1647  1.8096  0.0707
  135OSM   H12B14526   6.625   3.832   3.427 -0.9060 -2.4474  2.0538
  135OSM    C1114527   6.625   4.037   3.490 -0.1054  0.1357  0.6365
  135OSM   H11A14528   6.646   4.067   3.385 -1.7742 -0.2309  0.1661
  135OSM   H11B14529   6.722   4.028   3.542  0.1654 -3.1899 -0.1859
  135OSM      P14530   6.604   4.275   3.585  0.4870  0.3382 -0.6150
  135OSM    O1314531   6.729   4.297   3.510 -0.0229  0.9013 -0.0680
  135OSM    O1414532   6.500   4.379   3.565 -0.4225  0.3288 -0.1177
  135OSM    O1114533   6.631   4.258   3.741  0.2596 -0.6691 -0.1365
  135OSM    O1214534   6.535   4.136   3.542 -0.1106  0.2447 -0.7820
  135OSM    C1S14535   6.537   4.193   3.825 -0.0292 -0.1482  0.1259
  135OSM    H1S14536   6.568   4.087   3.836 -0.0995 -0.1929 -0.0993
  135OSM    H1T14537   6.431   4.188   3.791  0.4431 -0.4430 -1.4008
  135OSM     NF14538   6.436   4.179   4.051 -0.1683 -0.1371  0.4325
  135OSM    HNF14539   6.344   4.216   4.065 -0.0307 -0.1434  1.4204
  135OSM    C2S14540   6.530   4.256   3.969 -0.2061  0.1474 -0.9080
  135OSM    H2S14541   6.633   4.240   4.008 -0.2782  1.4333 -0.1128
  135OSM    C3S14542   6.494   4.405   3.960  0.2242 -0.0419 -0.7602
  135OSM    H3S14543   6.398   4.416   3.907  0.6839 -0.4294 -1.6959
  135OSM     O314544   6.578   4.490   3.891 -0.2216  0.1604 -0.1543
  135OSM    HO314545   6.654   4.438   3.863  0.4947  0.7253  0.6822
  135OSM    C4S14546   6.457   4.459   4.101  0.4366 -0.3226 -0.0693
  135OSM    H4S14547   6.350   4.447   4.125 -0.1764  1.4878 -1.5809
  135OSM    C5S14548   6.534   4.515   4.201 -0.2879 -0.1386  0.1854
  135OSM    H5S14549   6.640   4.533   4.177 -0.2893 -0.3497  0.0237
  135OSM    C6S14550   6.482   4.556   4.334  0.4643 -0.1837 -0.0073
  135OSM    H6S14551   6.447   4.660   4.316 -0.9317 -0.6005  0.1882
  135OSM    H6T14552   6.560   4.557   4.413  1.4358 -0.2303 -0.9391
  135OSM    C7S14553   6.368   4.472   4.397 -0.0807  0.2126  0.6143
  135OSM    H7S14554   6.411   4.369   4.404  0.9542  0.6972  1.7376
  135OSM    H7T14555   6.286   4.457   4.324  0.4754  1.7106 -0.3622
  135OSM    C8S14556   6.319   4.512   4.530 -0.5017  0.3064 -0.0650
  135OSM    H8S14557   6.246   4.434   4.559 -1.6187  1.9946  1.9597
  135OSM    H8T14558   6.271   4.612   4.523 -0.0935  0.4760 -0.5647
  135OSM    C9S14559   6.424   4.523   4.638 -0.7281  0.5147  0.6822
  135OSM    H9S14560   6.494   4.609   4.629 -0.4212  0.3039  1.0199
  135OSM    H9T14561   6.483   4.429   4.631 -1.4473  0.0701  0.4821
  135OSM   C10S14562   6.369   4.532   4.786 -0.1742 -0.2950  0.7039
  135OSM   H10S14563   6.301   4.444   4.798 -1.9351  0.9057 -0.0617
  135OSM   H10T14564   6.306   4.622   4.797  0.6946  0.4249 -0.0834
  135OSM   C11S14565   6.479   4.527   4.883 -0.4029  0.2743 -0.0026
  135OSM   H11S14566   6.551   4.611   4.870  0.6413 -0.2015  2.2115
  135OSM   H11T14567   6.534   4.432   4.868  1.0257  1.2849 -1.5454
  135OSM   C12S14568   6.439   4.534   5.029 -0.0165  0.0766  0.1638
  135OSM   H12S14569   6.532   4.543   5.088  1.3760 -1.0423 -1.7327
  135OSM   H12T14570   6.397   4.434   5.054  1.2413 -1.0280 -1.7867
  135OSM   C13S14571   6.350   4.644   5.070  0.2956 -0.3329  0.2582
  135OSM   H13S14572   6.259   4.643   5.006  1.1991  0.4769 -1.0749
  135OSM   H13T14573   6.391   4.747   5.068  1.2609 -0.6723  1.5690
  135OSM   C14S14574   6.295   4.630   5.213 -0.4493  0.0048 -0.6182
  135OSM   H14S14575   6.248   4.530   5.207 -1.6429  0.4929  0.1004
  135OSM   H14T14576   6.221   4.709   5.238 -0.9501 -0.1445 -1.6278
  135OSM   C15S14577   6.408   4.635   5.321  0.4780  0.2925 -0.3718
  135OSM   H15S14578   6.445   4.739   5.327 -1.1012  1.0120 -2.0853
  135OSM   H15T14579   6.499   4.578   5.291 -0.2521 -1.0294 -0.1496
  135OSM   C16S14580   6.358   4.579   5.453  0.2423  0.0108 -0.8697
  135OSM   H16S14581   6.328   4.475   5.427  1.9706 -0.7358 -0.0311
  135OSM   H16T14582   6.271   4.633   5.498 -0.7948 -0.8081 -1.8152
  135OSM   C17S14583   6.456   4.570   5.570  0.1572 -0.0611 -0.2898
  135OSM   H17S14584   6.412   4.517   5.656  0.4581 -1.6884 -1.1027
  135OSM   H17T14585   6.474   4.675   5.602 -2.6118  0.7784 -1.2292
  135OSM   C18S14586   6.593   4.506   5.534 -0.5788 -0.2538 -0.3532
  135OSM   H18S14587   6.662   4.574   5.480 -0.8587 -2.0220 -3.1516
  135OSM   H18T14588   6.571   4.428   5.458 -1.5126  0.1432 -0.4959
  135OSM   H18U14589   6.647   4.464   5.622 -1.6809  3.1791  2.1345
  135OSM    C1F14590   6.457   4.053   4.085 -0.0021  0.3692 -1.5714
  135OSM     OF14591   6.572   4.006   4.076  0.7757 -0.1857  0.4286
  135OSM    C2F14592   6.342   3.970   4.144  0.6305 -0.0114 -0.8280
  135OSM    H2F14593   6.316   3.905   4.057 -1.9445  1.1350 -1.0141
  135OSM    H2G14594   6.257   4.039   4.164  1.4941  1.3715 -1.7421
  135OSM    C3F14595   6.387   3.886   4.269  0.7626 -0.0405 -0.0647
  135OSM    H3F14596   6.414   3.963   4.344  0.6601  0.1557 -0.2289
  135OSM    H3G14597   6.476   3.820   4.261 -0.6080 -2.1132  1.0166
  135OSM    C4F14598   6.272   3.801   4.339 -0.0277 -0.1146 -0.3047
  135OSM    H4F14599   6.261   3.709   4.278  0.5260  0.2791 -1.0309
  135OSM    H4G14600   6.186   3.869   4.317  0.6014  1.1259  0.9276
  135OSM    C5F14601   6.304   3.767   4.483 -0.4147  0.0816  0.5261
  135OSM    H5F14602   6.375   3.684   4.504  0.4417  1.1931  2.2881
  135OSM    H5G14603   6.207   3.724   4.516 -0.8754  0.5495 -0.1890
  135OSM    C6F14604   6.340   3.882   4.580  0.1389  0.4511 -0.1304
  135OSM    H6F14605   6.422   3.933   4.525 -1.1428  2.1814 -0.5329
  135OSM    H6G14606   6.375   3.842   4.678 -0.4904  0.6021  0.1567
  135OSM    C7F14607   6.227   3.983   4.610 -0.6285  0.5089  0.7927
  135OSM    H7F14608   6.144   3.920   4.650 -1.5047  1.2989  0.2775
  135OSM    H7G14609   6.195   4.032   4.515 -0.8788  1.5774  1.4129
  135OSM    C8F14610   6.271   4.095   4.701  0.2994 -0.6662 -0.7773
  135OSM    H8F14611   6.215   4.189   4.686  2.3358  1.3008  2.7845
  135OSM    H8G14612   6.379   4.115   4.684 -0.1516  1.7357 -1.1673
  135OSM    C9F14613   6.254   4.060   4.845  0.4161  0.3893  0.3806
  135OSM    H9F14614   6.343   4.020   4.897  0.9275 -0.0115 -0.7656
  135OSM   C10F14615   6.140   4.080   4.917 -0.2876 -0.2283 -0.4727
  135OSM   H10F14616   6.142   4.049   5.022  0.4121  0.8288 -0.1563
  135OSM   C11F14617   6.004   4.125   4.868  0.6144 -0.3923 -0.5240
  135OSM   H11F14618   5.932   4.040   4.866  0.9903 -0.7698  0.6838
  135OSM   H11G14619   6.003   4.160   4.763  0.5884  0.0505 -0.3804
  135OSM   C12F14620   5.944   4.235   4.953 -0.5978  0.7411 -0.3882
  135OSM   H12F14621   5.849   4.277   4.915 -1.6409  1.8030  2.9719
  135OSM   H12G14622   6.012   4.324   4.957  1.1045 -0.5337  1.4492
  135OSM   C13F14623   5.929   4.201   5.105  0.7146  0.5835 -0.3007
  135OSM   H13F14624   5.892   4.287   5.164  1.4577  0.5483  0.2236
  135OSM   H13G14625   6.028   4.168   5.144 -0.2100 -0.9110  0.9110
  135OSM   C14F14626   5.827   4.093   5.138 -0.4911  0.2051  0.1793
  135OSM   H14F14627   5.833   4.038   5.235 -1.7697 -1.7795 -0.7989
  135OSM   H14G14628   5.861   4.011   5.072  1.0598  2.3616 -1.8710
  135OSM   C15F14629   5.684   4.136   5.108  0.2750 -0.0814  0.4699
  135OSM   H15F14630   5.617   4.052   5.079  0.8806 -1.9265  3.8608
  135OSM   H15G14631   5.689   4.195   5.014 -1.1103  1.4166  1.2821
  135OSM   C16F14632   5.626   4.223   5.221 -0.2586 -0.2517  0.1491
  135OSM   H16F14633   5.540   4.286   5.190  0.0249  0.4034  0.6517
  135OSM   H16G14634   5.698   4.296   5.265 -1.6619  2.0035 -1.0953
  135OSM   C17F14635   5.580   4.146   5.344  0.3184  0.0599  0.8708
  135OSM   H17F14636   5.665   4.092   5.391 -0.5978 -0.3104  2.1702
  135OSM   H17G14637   5.499   4.076   5.316  1.0897 -1.1473  1.5887
  135OSM   C18F14638   5.522   4.236   5.460  0.1622  0.0922  0.5117
  135OSM   H18F14639   5.600   4.303   5.500  1.2275  0.3375 -1.7976
  135OSM   H18G14640   5.480   4.169   5.538  1.1443 -1.7873 -0.5048
  135OSM   H18H14641   5.438   4.297   5.422  1.7948  1.4202 -1.1639
  136OSM      N14642   0.893   4.951   3.536  0.4746  0.0707  0.0845
  136OSM    C1514643   0.974   4.885   3.430 -0.2566  0.0827  0.2094
  136OSM   H15A14644   1.063   4.943   3.412  0.0581  0.1099  1.7624
  136OSM   H15B14645   0.927   4.877   3.333 -0.9551  0.3952  0.5149
  136OSM   H15C14646   1.003   4.784   3.453 -0.0877 -0.1363 -0.9228
  136OSM    C1414647   0.833   5.079   3.479 -0.8223 -0.1258  0.0207
  136OSM   H14A14648   0.914   5.138   3.440 -1.5114 -0.1544 -1.5220
  136OSM   H14B14649   0.791   5.133   3.563  0.9117  0.8055  0.3233
  136OSM   H14C14650   0.767   5.060   3.395 -0.6213  2.3807 -0.8014
  136OSM    C1314651   0.770   4.871   3.567  0.5432 -0.0679  0.1588
  136OSM   H13A14652   0.706   4.872   3.479 -0.8278  0.8210  1.1281
  136OSM   H13B14653   0.711   4.912   3.648  0.3415  0.5902 -0.3098
  136OSM   H13C14654   0.791   4.768   3.591 -0.3758  0.6296  4.8636
  136OSM    C1214655   0.969   4.967   3.665  0.3400  0.1942 -0.4970
  136OSM   H12A14656   1.002   4.870   3.699  0.9873  0.0612 -1.4587
  136OSM   H12B14657   0.896   4.990   3.740  0.4843 -3.0717  0.7803
  136OSM    C1114658   1.086   5.070   3.677  0.0190 -0.3036  0.6975
  136OSM   H11A14659   1.130   5.091   3.777 -0.7688  0.1306  0.9597
  136OSM   H11B14660   1.047   5.165   3.635  0.2749  0.4148  2.0302
  136OSM      P14661   1.311   4.939   3.612  0.0129  0.3620  0.0527
  136OSM    O1314662   1.268   4.797   3.610  0.4075  0.2276  0.0566
  136OSM    O1414663   1.414   4.982   3.517  0.1254  0.3216 -0.8715
  136OSM    O1114664   1.355   4.978   3.757 -0.6214  0.0518  0.0890
  136OSM    O1214665   1.187   5.028   3.589  0.1385  0.2278  0.1908
  136OSM    C1S14666   1.381   5.110   3.798  0.7600  0.2252 -0.0606
  136OSM    H1S14667   1.313   5.180   3.745 -1.2905 -1.0395  0.7751
  136OSM    H1T14668   1.487   5.127   3.768  1.5595  0.1779  2.4538
  136OSM     NF14669   1.402   5.274   3.976 -0.9106 -0.3146 -0.0892
  136OSM    HNF14670   1.490   5.276   4.022 -0.0440  0.9925 -1.7017
  136OSM    C2S14671   1.367   5.140   3.946  0.1613 -0.4192  0.3693
  136OSM    H2S14672   1.259   5.134   3.971 -0.5633  0.3392 -2.2753
  136OSM    C3S14673   1.456   5.036   4.022 -0.3401  0.1582 -0.6112
  136OSM    H3S14674   1.562   5.068   4.010  0.4856 -1.8489  0.7421
  136OSM     O314675   1.455   4.896   3.983  0.1463 -0.2914 -0.2859
  136OSM    HO314676   1.418   4.886   3.895  1.0225 -1.5629 -0.5332
  136OSM    C4S14677   1.429   5.060   4.174 -0.1789  0.0345 -0.2017
  136OSM    H4S14678   1.466   5.160   4.201  2.0388 -0.1420 -2.1915
  136OSM    C5S14679   1.348   4.992   4.264  0.4716  0.3580 -0.0747
  136OSM    H5S14680   1.286   4.915   4.215 -2.6002  2.5283  0.1253
  136OSM    C6S14681   1.312   5.034   4.407  0.5022  0.6751 -0.0573
  136OSM    H6S14682   1.307   4.945   4.474  0.3586 -0.5582 -1.6433
  136OSM    H6T14683   1.208   5.071   4.394 -0.4952 -2.6980 -3.2824
  136OSM    C7S14684   1.398   5.146   4.466  0.1995  0.2966 -0.1039
  136OSM    H7S14685   1.386   5.240   4.407  2.3530  0.3675 -0.4870
  136OSM    H7T14686   1.507   5.125   4.463  0.7373  2.7261  0.2504
  136OSM    C8S14687   1.365   5.188   4.614  0.1653  0.2493 -1.0743
  136OSM    H8S14688   1.254   5.195   4.625  0.3484  0.8165  0.6344
  136OSM    H8T14689   1.407   5.288   4.636 -0.3670  0.9089 -2.8278
  136OSM    C9S14690   1.421   5.086   4.707 -0.0951  0.3394 -0.3719
  136OSM    H9S14691   1.528   5.116   4.707  0.4982 -1.6090 -1.2353
  136OSM    H9T14692   1.421   4.982   4.668  2.4144  0.7222 -1.6210
  136OSM   C10S14693   1.366   5.095   4.856 -0.5340 -0.4235  0.9848
  136OSM   H10S14694   1.442   5.044   4.918  1.1629  0.4691 -0.2687
  136OSM   H10T14695   1.278   5.029   4.866 -1.3615  0.6793  1.2241
  136OSM   C11S14696   1.330   5.227   4.917 -0.0928  0.0912 -0.0258
  136OSM   H11S14697   1.244   5.268   4.859  0.1298  0.0628 -0.3784
  136OSM   H11T14698   1.417   5.295   4.903  0.7552 -1.2622 -1.5844
  136OSM   C12S14699   1.286   5.212   5.064 -0.3334  0.0768  0.7038
  136OSM   H12S14700   1.352   5.149   5.127 -0.6861  0.9754  2.0322
  136OSM   H12T14701   1.188   5.159   5.072  0.0468 -0.3754  3.4318
  136OSM   C13S14702   1.271   5.343   5.138 -0.8445  0.3430  0.4329
  136OSM   H13S14703   1.187   5.403   5.097 -2.1417 -3.0639 -2.3919
  136OSM   H13T14704   1.363   5.400   5.112 -1.6073  0.5136 -2.1704
  136OSM   C14S14705   1.259   5.330   5.286 -0.4787 -0.0306 -0.4696
  136OSM   H14S14706   1.284   5.427   5.335 -0.3032 -0.9258  1.2946
  136OSM   H14T14707   1.327   5.251   5.322  1.2547  0.4296 -2.5521
  136OSM   C15S14708   1.113   5.310   5.334 -1.0356 -0.0934 -0.2315
  136OSM   H15S14709   1.080   5.214   5.288 -1.1595  0.1191 -0.5891
  136OSM   H15T14710   1.046   5.391   5.297 -1.4807 -0.0097  0.7189
  136OSM   C16S14711   1.109   5.298   5.494  0.6016  0.4176  0.9078
  136OSM   H16S14712   1.154   5.387   5.543  2.0998  0.3425 -0.2356
  136OSM   H16T14713   1.174   5.219   5.539  2.1024  1.1993  0.2029
  136OSM   C17S14714   0.961   5.290   5.541  0.3296  0.1562 -0.5254
  136OSM   H17S14715   0.906   5.212   5.483  0.1182 -0.1589  0.0873
  136OSM   H17T14716   0.910   5.386   5.518  1.8911  0.9179 -0.9329
  136OSM   C18S14717   0.951   5.258   5.690  0.7305 -0.3645  0.1669
  136OSM   H18S14718   1.026   5.320   5.744  1.1051 -0.2310 -0.4935
  136OSM   H18T14719   0.984   5.152   5.703  1.0152 -0.5352 -1.6885
  136OSM   H18U14720   0.858   5.282   5.746 -0.6554 -0.6386 -1.9232
  136OSM    C1F14721   1.326   5.383   3.954  0.7543  0.6346 -0.2682
  136OSM     OF14722   1.213   5.377   3.900 -0.6086  0.2262 -0.1525
  136OSM    C2F14723   1.402   5.512   3.982  0.8319  0.4030  1.0680
  136OSM    H2F14724   1.424   5.551   3.880  0.9700 -1.9531  0.1273
  136OSM    H2G14725   1.496   5.489   4.037  0.7182 -2.6285  0.2061
  136OSM    C3F14726   1.307   5.607   4.067  0.6714  0.2050 -0.0549
  136OSM    H3F14727   1.211   5.635   4.019 -0.3318 -1.5640  0.8554
  136OSM    H3G14728   1.361   5.704   4.075 -1.9462  1.6802  1.0669
  136OSM    C4F14729   1.280   5.558   4.215 -0.1530  0.4410  0.2396
  136OSM    H4F14730   1.312   5.451   4.219 -2.7498 -0.4148  0.0597
  136OSM    H4G14731   1.170   5.558   4.227 -0.4821 -1.9030 -1.8899
  136OSM    C5F14732   1.359   5.645   4.315 -0.2322  0.9771  0.4840
  136OSM    H5F14733   1.311   5.744   4.327 -0.6251  0.4985  4.4994
  136OSM    H5G14734   1.467   5.658   4.295  0.6105 -0.1379  3.6680
  136OSM    C6F14735   1.364   5.579   4.451  0.1523  0.1865  0.3122
  136OSM    H6F14736   1.396   5.472   4.446  0.1654  0.2162 -0.2620
  136OSM    H6G14737   1.265   5.567   4.499  1.2383  0.4447  2.8021
  136OSM    C7F14738   1.456   5.668   4.540 -0.1624  0.2179  0.2707
  136OSM    H7F14739   1.423   5.774   4.539  0.5022  0.4280 -0.3678
  136OSM    H7G14740   1.556   5.671   4.492  0.9333 -4.4636  1.7292
  136OSM    C8F14741   1.476   5.609   4.682  0.0499 -0.8193  0.5861
  136OSM    H8F14742   1.555   5.672   4.728 -1.1882 -0.2781  2.0757
  136OSM    H8G14743   1.521   5.508   4.675 -0.4045 -1.0054  0.2833
  136OSM    C9F14744   1.346   5.597   4.766 -0.2030  0.1229  0.5661
  136OSM    H9F14745   1.273   5.525   4.728 -0.2020  0.3458  0.1327
  136OSM   C10F14746   1.323   5.651   4.887 -0.1967 -0.8686  0.1807
  136OSM   H10F14747   1.222   5.645   4.930 -0.1726  2.2969  0.8696
  136OSM   C11F14748   1.421   5.728   4.966  0.7349 -0.0629  0.2176
  136OSM   H11F14749   1.469   5.816   4.918  0.2683  0.8495  1.3741
  136OSM   H11G14750   1.495   5.654   5.003  3.1503  2.3505  0.5384
  136OSM   C12F14751   1.358   5.787   5.101 -0.0259 -0.0567  0.2730
  136OSM   H12F14752   1.279   5.862   5.081 -0.2557 -0.6491 -1.2013
  136OSM   H12G14753   1.442   5.840   5.151 -0.9357  2.3285 -0.5990
  136OSM   C13F14754   1.303   5.685   5.209 -0.0483  0.3981 -0.5018
  136OSM   H13F14755   1.398   5.633   5.235 -0.2157  0.2872 -0.1174
  136OSM   H13G14756   1.239   5.609   5.159 -2.5266  2.5728 -0.8249
  136OSM   C14F14757   1.249   5.765   5.330 -0.6015  0.4641 -0.1974
  136OSM   H14F14758   1.189   5.852   5.295  1.0304  0.8035 -2.3899
  136OSM   H14G14759   1.339   5.789   5.391 -1.3014 -1.8163  1.8733
  136OSM   C15F14760   1.161   5.676   5.414  0.9802 -0.3134  0.3253
  136OSM   H15F14761   1.223   5.604   5.471  0.5769 -0.8951  0.0369
  136OSM   H15G14762   1.098   5.610   5.350 -1.3765  1.0792  1.0623
  136OSM   C16F14763   1.082   5.760   5.512  0.1879  0.4153 -0.4895
  136OSM   H16F14764   0.989   5.805   5.471 -2.2170 -3.4704  0.1503
  136OSM   H16G14765   1.150   5.833   5.561 -0.6647  0.5507  0.5322
  136OSM   C17F14766   1.029   5.664   5.624  0.3065  0.1945  0.1011
  136OSM   H17F14767   1.114   5.601   5.657 -0.2296 -0.5860  0.0039
  136OSM   H17G14768   0.944   5.608   5.581 -1.1035  1.5333  1.0323
  136OSM   C18F14769   0.973   5.724   5.755  0.8934 -0.6247 -0.4554
  136OSM   H18F14770   1.048   5.782   5.812 -2.5763  0.1979  3.7845
  136OSM   H18G14771   0.938   5.639   5.818 -2.7675  0.0153 -1.3626
  136OSM   H18H14772   0.885   5.791   5.748  1.6437  0.7986  2.4330
  137OSM      N14773   5.709   3.004   3.637 -0.2815  0.6358 -0.7757
  137OSM    C1514774   5.807   2.903   3.580 -0.2610  0.1381  0.9652
  137OSM   H15A14775   5.760   2.814   3.540  0.4137  0.0103  0.4574
  137OSM   H15B14776   5.868   2.862   3.658  0.9580 -1.4585 -0.7528
  137OSM   H15C14777   5.863   2.945   3.498 -1.1693  0.9782  0.7489
  137OSM    C1414778   5.607   3.052   3.540  0.4100  0.3299 -0.2318
  137OSM   H14A14779   5.661   3.104   3.463 -0.9396  0.9984 -0.7725
  137OSM   H14B14780   5.546   3.124   3.592  0.8814  0.4897  0.1057
  137OSM   H14C14781   5.545   2.973   3.499 -0.3075  0.2839  0.8823
  137OSM    C1314782   5.633   2.941   3.752 -0.2663  0.3948  0.0084
  137OSM   H13A14783   5.569   3.016   3.795 -1.1378 -0.7410  0.7567
  137OSM   H13B14784   5.701   2.893   3.821  1.7044  2.7484 -0.1766
  137OSM   H13C14785   5.564   2.867   3.713 -0.8074  0.2463  1.2019
  137OSM    C1214786   5.790   3.116   3.695 -0.0902  0.3635  0.0063
  137OSM   H12A14787   5.842   3.161   3.612  0.4690 -0.4162 -0.0804
  137OSM   H12B14788   5.871   3.074   3.752  0.7431 -0.0863 -1.4425
  137OSM    C1114789   5.729   3.232   3.784 -0.0961 -0.5757  0.3984
  137OSM   H11A14790   5.812   3.302   3.807  1.1534 -2.1287  0.8412
  137OSM   H11B14791   5.685   3.184   3.874 -1.1391  0.6666  0.5829
  137OSM      P14792   5.657   3.397   3.596  0.0205  0.0031  0.4151
  137OSM    O1314793   5.769   3.341   3.519 -0.0165 -0.1738 -0.0758
  137OSM    O1414794   5.536   3.429   3.516 -0.1290 -0.2948 -0.5349
  137OSM    O1114795   5.710   3.532   3.670 -0.5128 -0.5419  0.2898
  137OSM    O1214796   5.624   3.299   3.714  0.5195  0.2682 -0.1570
  137OSM    C1S14797   5.634   3.600   3.773 -1.2955 -0.0200 -0.4816
  137OSM    H1S14798   5.525   3.607   3.752 -1.4258  1.3193  0.4398
  137OSM    H1T14799   5.662   3.707   3.762  1.0765 -0.3792  1.2309
  137OSM     NF14800   5.560   3.618   3.994  0.2512 -0.4297 -0.3573
  137OSM    HNF14801   5.581   3.699   4.049  0.4120 -0.2650 -0.6625
  137OSM    C2S14802   5.665   3.561   3.920  0.0571 -0.6208 -0.2135
  137OSM    H2S14803   5.657   3.450   3.921 -0.8798 -0.5640  0.3906
  137OSM    C3S14804   5.806   3.610   3.958  0.5449 -0.2022  0.1345
  137OSM    H3S14805   5.814   3.718   3.935  1.2337  0.0693  1.4931
  137OSM     O314806   5.911   3.561   3.872 -1.0498 -0.2844 -0.3474
  137OSM    HO314807   5.867   3.544   3.788  1.7391  0.4395 -2.0627
  137OSM    C4S14808   5.842   3.589   4.107 -0.4679  0.0657 -0.1915
  137OSM    H4S14809   5.809   3.669   4.174 -0.7740  0.0673 -0.3437
  137OSM    C5S14810   5.901   3.482   4.159 -0.2786 -0.4172 -0.7875
  137OSM    H5S14811   5.911   3.391   4.098  1.3845  0.1471 -1.3951
  137OSM    C6S14812   5.944   3.459   4.304 -0.5094  0.1551  0.7018
  137OSM    H6S14813   6.054   3.446   4.312 -0.6136 -0.3591  1.3696
  137OSM    H6T14814   5.906   3.363   4.345  0.0139  0.3434  1.6529
  137OSM    C7S14815   5.911   3.560   4.406  0.6694  0.3307 -0.4702
  137OSM    H7S14816   5.800   3.567   4.413  0.7963  1.5217  0.7676
  137OSM    H7T14817   5.962   3.658   4.396  0.4309  0.5719  0.5496
  137OSM    C8S14818   5.975   3.524   4.547  0.2432 -0.0266  0.0847
  137OSM    H8S14819   6.084   3.539   4.535 -0.2177  2.6679 -1.7393
  137OSM    H8T14820   5.964   3.418   4.578  2.9611 -0.0625  1.1488
  137OSM    C9S14821   5.934   3.621   4.657 -0.7017  0.8635 -0.2980
  137OSM    H9S14822   5.825   3.616   4.674 -0.7446 -1.2079 -0.9967
  137OSM    H9T14823   5.949   3.726   4.624 -0.4686  0.2571 -2.2447
  137OSM   C10S14824   6.029   3.618   4.782  0.0900  0.0063  0.3793
  137OSM   H10S14825   6.137   3.615   4.758  0.5222  1.7453  1.9065
  137OSM   H10T14826   6.001   3.522   4.830  2.2376 -0.4930  0.7215
  137OSM   C11S14827   6.012   3.726   4.888  0.4885  0.9938 -0.3351
  137OSM   H11S14828   5.906   3.752   4.908  0.1988 -0.7504  0.6374
  137OSM   H11T14829   6.069   3.816   4.858  3.6453 -0.7825 -0.1984
  137OSM   C12S14830   6.060   3.673   5.024 -0.6018  0.3393 -0.4841
  137OSM   H12S14831   6.123   3.753   5.068 -0.5030 -0.0141  0.0313
  137OSM   H12T14832   6.132   3.588   5.016 -2.8042 -1.8397  1.2513
  137OSM   C13S14833   5.940   3.633   5.113 -0.2181  0.2627 -0.7988
  137OSM   H13S14834   5.874   3.553   5.071 -1.7405  1.1311 -0.1310
  137OSM   H13T14835   5.876   3.721   5.133 -0.0386 -0.1047  1.7851
  137OSM   C14S14836   5.985   3.590   5.253 -0.1009 -0.1743  0.0544
  137OSM   H14S14837   6.051   3.675   5.282 -0.0824  0.0893 -0.7471
  137OSM   H14T14838   6.026   3.487   5.244 -0.4324 -0.4214  1.2102
  137OSM   C15S14839   5.867   3.575   5.357 -0.1791 -0.2445  0.2556
  137OSM   H15S14840   5.914   3.534   5.449  1.4972  1.1794  0.0922
  137OSM   H15T14841   5.797   3.498   5.318  1.6418 -1.7809 -0.1442
  137OSM   C16S14842   5.787   3.705   5.381  0.1227  0.2158 -0.0628
  137OSM   H16S14843   5.745   3.741   5.285 -1.6863  1.3461  1.0906
  137OSM   H16T14844   5.865   3.771   5.425  1.3776 -0.8092 -0.6881
  137OSM   C17S14845   5.675   3.691   5.483  0.4738 -0.6324 -0.0884
  137OSM   H17S14846   5.717   3.649   5.577 -0.1817  0.2151  0.6041
  137OSM   H17T14847   5.589   3.640   5.433 -0.4133  1.0426 -0.3399
  137OSM   C18S14848   5.621   3.832   5.522  0.3899  0.5116  0.8792
  137OSM   H18S14849   5.707   3.897   5.549  1.8413 -1.4466  1.1357
  137OSM   H18T14850   5.546   3.813   5.602  0.4500 -2.6408  0.3141
  137OSM   H18U14851   5.568   3.879   5.436  0.7253  0.6005  0.7204
  137OSM    C1F14852   5.439   3.574   4.000 -0.3737  0.3882  0.4769
  137OSM     OF14853   5.410   3.470   3.945 -0.1356 -0.6533  0.6339
  137OSM    C2F14854   5.334   3.660   4.059  0.0665  0.2247 -0.6492
  137OSM    H2F14855   5.236   3.639   4.012  0.3027  0.4476 -1.2490
  137OSM    H2G14856   5.351   3.767   4.034 -1.6018  0.7469  0.2436
  137OSM    C3F14857   5.323   3.633   4.209 -0.5561 -0.0007 -0.3879
  137OSM    H3F14858   5.305   3.526   4.234  1.9258 -0.5618 -0.7243
  137OSM    H3G14859   5.227   3.678   4.244  1.5882  1.7748  4.0167
  137OSM    C4F14860   5.439   3.693   4.300 -0.0218 -0.7533  0.7460
  137OSM    H4F14861   5.429   3.802   4.281  0.0301 -0.7823  0.5504
  137OSM    H4G14862   5.534   3.645   4.269 -0.2620 -0.7589 -0.0098
  137OSM    C5F14863   5.404   3.667   4.446 -0.4838  0.1319  0.5553
  137OSM    H5F14864   5.294   3.676   4.458 -0.6651  0.7555 -1.1726
  137OSM    H5G14865   5.444   3.741   4.518 -0.4756 -0.9916  1.7399
  137OSM    C6F14866   5.459   3.534   4.491  0.0279  0.1687  0.0045
  137OSM    H6F14867   5.567   3.538   4.470 -0.1823  1.6441 -0.9560
  137OSM    H6G14868   5.417   3.454   4.426 -0.5731  0.0447  0.5313
  137OSM    C7F14869   5.423   3.499   4.637  0.4137  0.1086  0.7414
  137OSM    H7F14870   5.312   3.510   4.644  0.5306  2.4769 -0.0606
  137OSM    H7G14871   5.467   3.573   4.707  0.7309 -3.1703  4.3932
  137OSM    C8F14872   5.473   3.354   4.679 -0.1354  0.1615  0.5375
  137OSM    H8F14873   5.424   3.287   4.605 -2.3252  2.2804 -0.0252
  137OSM    H8G14874   5.436   3.318   4.778  1.8361 -1.6112  0.7152
  137OSM    C9F14875   5.625   3.335   4.673  0.2331 -0.3486 -0.4236
  137OSM    H9F14876   5.674   3.332   4.575  0.6354  1.3893 -0.2982
  137OSM   C10F14877   5.705   3.334   4.779  0.7516  0.2610  0.0730
  137OSM   H10F14878   5.814   3.324   4.768  0.6729  0.3025 -0.7710
  137OSM   C11F14879   5.665   3.347   4.928  0.7241  0.4776  0.7003
  137OSM   H11F14880   5.576   3.413   4.938  0.2406  0.0668 -0.6623
  137OSM   H11G14881   5.755   3.369   4.990  2.0202 -2.3840  0.0102
  137OSM   C12F14882   5.626   3.210   4.992 -0.5398  1.0002 -0.2211
  137OSM   H12F14883   5.714   3.159   5.036 -0.4727  0.5812 -0.8336
  137OSM   H12G14884   5.574   3.142   4.921 -0.6250  0.1366  0.6439
  137OSM   C13F14885   5.531   3.231   5.114  0.1328  0.3931  0.6505
  137OSM   H13F14886   5.510   3.129   5.152  3.0924 -0.1751  0.9790
  137OSM   H13G14887   5.432   3.271   5.083 -0.0263 -1.2961 -1.1970
  137OSM   C14F14888   5.591   3.325   5.221 -0.3579  0.7262  0.0887
  137OSM   H14F14889   5.583   3.425   5.174 -0.7556  1.2426  1.2272
  137OSM   H14G14890   5.689   3.302   5.268 -0.6907 -0.6593  0.1696
  137OSM   C15F14891   5.490   3.331   5.342 -0.5860  0.2978  0.0203
  137OSM   H15F14892   5.388   3.341   5.298 -1.0240 -2.8053  0.0587
  137OSM   H15G14893   5.504   3.422   5.403  0.9904  1.1585 -1.5383
  137OSM   C16F14894   5.490   3.210   5.445 -0.2875  0.0299  1.0777
  137OSM   H16F14895   5.474   3.118   5.386  0.8318 -1.0316  2.3730
  137OSM   H16G14896   5.411   3.223   5.523 -0.3536 -0.7184  1.1350
  137OSM   C17F14897   5.610   3.184   5.534 -0.5224 -0.0542 -0.1849
  137OSM   H17F14898   5.626   3.268   5.605  0.6592  0.4934 -1.0704
  137OSM   H17G14899   5.703   3.190   5.474  0.8744  0.1684  1.8811
  137OSM   C18F14900   5.596   3.065   5.621  0.3278  0.7704 -0.1010
  137OSM   H18F14901   5.689   3.031   5.672 -0.4363 -3.3101 -1.1189
  137OSM   H18G14902   5.564   2.969   5.575 -0.2009  0.7668  0.2653
  137OSM   H18H14903   5.530   3.080   5.709  1.7476 -2.7616  1.7564
  138OSM      N14904   3.580   0.087   3.180  0.2101  0.0051  0.3996
  138OSM    C1514905   3.609   0.086   3.030 -0.8273  0.3952 -0.6361
  138OSM   H15A14906   3.541   0.022   2.976 -0.1916 -0.6594 -0.2199
  138OSM   H15B14907   3.707   0.044   3.011 -1.2954 -1.3369  0.5665
  138OSM   H15C14908   3.607   0.188   2.995 -1.3203  1.1747  1.5034
  138OSM    C1414909   3.595  -0.046   3.225  0.3270 -0.3654 -0.1137
  138OSM   H14A14910   3.554  -0.117   3.155  0.2964  1.1074 -1.6604
  138OSM   H14B14911   3.561  -0.071   3.324 -1.0409  0.5392 -0.3336
  138OSM   H14C14912   3.702  -0.064   3.227  0.4580  0.3956  1.3833
  138OSM    C1314913   3.666   0.176   3.268 -0.2788 -0.1217 -0.0046
  138OSM   H13A14914   3.648   0.174   3.375  1.5528 -1.5281  0.3326
  138OSM   H13B14915   3.685   0.275   3.230 -0.9880 -0.9730 -2.7990
  138OSM   H13C14916   3.764   0.131   3.269  0.8585  2.2034 -0.5236
  138OSM    C1214917   3.429   0.125   3.182 -0.5411 -0.5691  0.2162
  138OSM   H12A14918   3.393   0.095   3.279 -0.6134  0.5861  0.5497
  138OSM   H12B14919   3.386   0.055   3.111 -0.5632 -0.5864  0.2461
  138OSM    C1114920   3.366   0.263   3.156 -0.3626  0.1321  0.2563
  138OSM   H11A14921   3.259   0.260   3.183  0.0573  0.5374  2.1197
  138OSM   H11B14922   3.381   0.285   3.048  0.7143 -0.6033  0.2322
  138OSM      P14923   3.390   0.427   3.356 -0.1694  0.0267 -0.1944
  138OSM    O1314924   3.491   0.524   3.409  0.5356 -0.6001  0.3821
  138OSM    O1414925   3.250   0.469   3.338 -0.3008 -0.0227  0.3347
  138OSM    O1114926   3.389   0.297   3.451  0.0754 -0.3617 -0.4472
  138OSM    O1214927   3.440   0.366   3.221  0.3856  0.0078  0.3173
  138OSM    C1S14928   3.441   0.315   3.577 -0.3537  0.3604 -0.0831
  138OSM    H1S14929   3.406   0.412   3.619  0.4091 -0.4494  2.6385
  138OSM    H1T14930   3.552   0.315   3.569 -0.2883  1.0077  0.7339
  138OSM     NF14931   3.390   0.256   3.813 -0.1907  0.1375 -0.2792
  138OSM    HNF14932   3.480   0.251   3.856 -0.5416  0.5989  0.5317
  138OSM    C2S14933   3.380   0.215   3.672 -0.4035 -0.1841 -0.6525
  138OSM    H2S14934   3.270   0.203   3.656 -1.2453  1.7554  2.6413
  138OSM    C3S14935   3.441   0.072   3.645 -0.2226 -0.3099  0.3346
  138OSM    H3S14936   3.550   0.083   3.664 -0.1264  1.3071 -0.9304
  138OSM     O314937   3.439   0.030   3.510  0.0586 -0.4745 -0.2685
  138OSM    HO314938   3.406   0.109   3.467  1.6499  0.4231  0.0989
  138OSM    C4S14939   3.395  -0.019   3.748 -0.1564 -0.3571 -0.0456
  138OSM    H4S14940   3.286  -0.037   3.750 -0.0921 -0.7869 -0.3056
  138OSM    C5S14941   3.469  -0.085   3.832  0.1476 -0.3832 -0.1683
  138OSM    H5S14942   3.577  -0.085   3.811  0.1036 -0.5233 -0.3981
  138OSM    C6S14943   3.399  -0.175   3.929  0.5034  0.9021 -0.2718
  138OSM    H6S14944   3.455  -0.271   3.925 -2.2972 -0.9380  1.4142
  138OSM    H6T14945   3.299  -0.208   3.895  1.1382 -3.0388  1.1698
  138OSM    C7S14946   3.386  -0.127   4.071  0.1108  0.3514  0.2145
  138OSM    H7S14947   3.335  -0.028   4.071 -3.0413 -1.1300  0.3822
  138OSM    H7T14948   3.488  -0.113   4.112  0.2389 -1.7900  0.7467
  138OSM    C8S14949   3.309  -0.218   4.165  0.3155 -0.0925 -0.0819
  138OSM    H8S14950   3.354  -0.319   4.157 -1.4619 -1.0402  1.1485
  138OSM    H8T14951   3.202  -0.231   4.138  0.4115  1.8606 -1.5957
  138OSM    C9S14952   3.313  -0.170   4.316 -0.3347  0.5105 -0.3641
  138OSM    H9S14953   3.269  -0.067   4.315  0.6614  0.9720  1.0847
  138OSM    H9T14954   3.420  -0.150   4.337 -0.5909  0.8764  0.6919
  138OSM   C10S14955   3.250  -0.255   4.422  0.5231 -0.5035 -0.3562
  138OSM   H10S14956   3.317  -0.342   4.436  0.6171 -0.4137 -0.2422
  138OSM   H10T14957   3.151  -0.298   4.396  0.5268 -0.9003  0.2525
  138OSM   C11S14958   3.241  -0.180   4.559  0.5768  0.4451  0.1241
  138OSM   H11S14959   3.193  -0.080   4.553 -0.6311  0.1178  2.8498
  138OSM   H11T14960   3.346  -0.161   4.590  0.6368 -0.8966  0.8158
  138OSM   C12S14961   3.166  -0.270   4.660  0.5748  0.9452  0.4221
  138OSM   H12S14962   3.208  -0.372   4.648 -0.1399  0.6762  0.1675
  138OSM   H12T14963   3.056  -0.277   4.652  0.6394 -2.1659  1.1237
  138OSM   C13S14964   3.206  -0.227   4.804 -0.3159 -0.7538 -0.4453
  138OSM   H13S14965   3.182  -0.119   4.816 -0.9389 -1.0433  1.1285
  138OSM   H13T14966   3.317  -0.236   4.809 -0.3690 -0.7655  2.8992
  138OSM   C14S14967   3.127  -0.322   4.895 -0.1147 -0.4926 -0.5154
  138OSM   H14S14968   3.167  -0.426   4.890 -0.3191 -0.7144  1.3790
  138OSM   H14T14969   3.018  -0.335   4.878 -0.1202 -0.1244 -0.7537
  138OSM   C15S14970   3.144  -0.281   5.041 -0.5113 -0.0715 -0.4502
  138OSM   H15S14971   3.109  -0.181   5.074  1.3950 -0.2493  2.5472
  138OSM   H15T14972   3.254  -0.277   5.051 -0.4635 -0.6748 -0.7363
  138OSM   C16S14973   3.092  -0.379   5.144 -0.2154  0.2947 -0.1421
  138OSM   H16S14974   3.139  -0.480   5.137  1.9859  1.3709 -2.3209
  138OSM   H16T14975   2.981  -0.390   5.136 -0.4210  0.4238  2.0113
  138OSM   C17S14976   3.103  -0.337   5.290  0.1685 -0.1121  0.6040
  138OSM   H17S14977   3.039  -0.396   5.358 -1.5230  1.1917  0.2113
  138OSM   H17T14978   3.069  -0.232   5.304  1.4428  0.1780  1.8007
  138OSM   C18S14979   3.245  -0.339   5.345  0.6200  0.5442  0.2513
  138OSM   H18S14980   3.268  -0.447   5.353 -1.6672  0.0042  0.0649
  138OSM   H18T14981   3.256  -0.297   5.447 -2.0286  0.1438  0.7512
  138OSM   H18U14982   3.319  -0.291   5.277  0.7987 -1.7000 -1.2350
  138OSM    C1F14983   3.311   0.347   3.866  0.5731  0.2377  0.6137
  138OSM     OF14984   3.215   0.377   3.813  0.2882  0.5294 -0.1987
  138OSM    C2F14985   3.353   0.409   3.991 -0.1876  0.7184 -0.1673
  138OSM    H2F14986   3.400   0.505   3.961  4.0768 -0.8559  0.7484
  138OSM    H2G14987   3.429   0.341   4.036 -0.6698  0.1613 -0.1860
  138OSM    C3F14988   3.238   0.451   4.084  0.6606  0.0987 -0.3100
  138OSM    H3F14989   3.182   0.533   4.034  2.1859 -0.1163 -2.5122
  138OSM    H3G14990   3.287   0.509   4.166  1.4484 -0.9054 -0.0497
  138OSM    C4F14991   3.155   0.338   4.148  0.2229  0.2475 -0.0208
  138OSM    H4F14992   3.086   0.306   4.067  1.9286 -0.5252 -1.2320
  138OSM    H4G14993   3.091   0.372   4.232 -0.3977 -0.3245 -0.2461
  138OSM    C5F14994   3.237   0.221   4.197  0.1532  0.5096 -0.1495
  138OSM    H5F14995   3.283   0.184   4.103 -0.6220  0.9955 -0.7337
  138OSM    H5G14996   3.181   0.136   4.243 -2.7009  2.8283  0.9437
  138OSM    C6F14997   3.356   0.256   4.290 -0.0848 -0.4955 -0.4562
  138OSM    H6F14998   3.431   0.324   4.245  1.5334 -0.6830  1.8286
  138OSM    H6G14999   3.409   0.160   4.310 -0.5585 -0.6303  0.1687
  138OSM    C7F15000   3.315   0.318   4.419  0.4594 -0.3650  0.0207
  138OSM    H7F15001   3.227   0.383   4.399 -0.0103 -0.6942  0.9360
  138OSM    H7G15002   3.397   0.385   4.451  3.0576 -3.2443 -0.1875
  138OSM    C8F15003   3.268   0.223   4.532  0.4430 -0.1943 -0.1058
  138OSM    H8F15004   3.232   0.131   4.481 -0.3257  1.3929 -2.5945
  138OSM    H8G15005   3.184   0.271   4.586  0.4036  1.0977 -1.2505
  138OSM    C9F15006   3.392   0.182   4.613 -0.8229 -0.1132  0.2597
  138OSM    H9F15007   3.475   0.151   4.549 -0.6093  1.7870 -0.4429
  138OSM   C10F15008   3.405   0.183   4.747 -0.4261 -1.2627 -0.0512
  138OSM   H10F15009   3.506   0.152   4.776  1.3417  3.3771 -0.2636
  138OSM   C11F15010   3.310   0.222   4.855  0.4305  0.4251  0.7334
  138OSM   H11F15011   3.204   0.205   4.826  0.4678 -0.0752  0.8856
  138OSM   H11G15012   3.315   0.330   4.881 -2.1902  1.0582 -0.9890
  138OSM   C12F15013   3.335   0.137   4.979 -0.6803  0.2686 -0.8415
  138OSM   H12F15014   3.443   0.125   5.004 -0.8348  0.4965 -0.0479
  138OSM   H12G15015   3.288   0.037   4.963 -2.6765  0.8327  1.0238
  138OSM   C13F15016   3.266   0.199   5.100 -0.0379  0.1289  0.0126
  138OSM   H13F15017   3.155   0.202   5.093 -0.0940 -0.5999  0.5112
  138OSM   H13G15018   3.294   0.307   5.101  0.3326  0.0340  0.0477
  138OSM   C14F15019   3.293   0.125   5.228  0.2353  0.3919 -0.3745
  138OSM   H14F15020   3.401   0.140   5.253  0.4353 -0.2724 -0.8025
  138OSM   H14G15021   3.276   0.017   5.210  0.0822  0.0011  1.8683
  138OSM   C15F15022   3.205   0.172   5.345 -0.7756 -0.0711 -0.1239
  138OSM   H15F15023   3.105   0.135   5.315 -0.7854 -0.6464  0.5758
  138OSM   H15G15024   3.206   0.283   5.344  0.5562 -0.0337  1.3154
  138OSM   C16F15025   3.243   0.092   5.473 -0.0891 -0.5791 -0.7976
  138OSM   H16F15026   3.343   0.131   5.503 -1.1133  1.2475  0.5020
  138OSM   H16G15027   3.254  -0.016   5.451  0.5435 -0.3844 -1.4973
  138OSM   C17F15028   3.151   0.104   5.598  0.6029 -0.5248  0.1912
  138OSM   H17F15029   3.052   0.079   5.554  0.7923  1.4804 -1.5354
  138OSM   H17G15030   3.131   0.211   5.619  2.2532  0.2584 -1.8361
  138OSM   C18F15031   3.188   0.009   5.710  0.1967  0.8373 -0.3849
  138OSM   H18F15032   3.098  -0.028   5.762  0.3275 -0.8493 -1.3073
  138OSM   H18G15033   3.254   0.062   5.782  0.3515  1.4403 -0.9613
  138OSM   H18H15034   3.230  -0.085   5.669  0.4397  0.2124  1.2281
  139OSM      N15035   0.155   3.250   3.386 -0.3638  0.2570  0.2380
  139OSM    C1515036   0.222   3.174   3.275 -0.4430  0.1563 -0.4672
  139OSM   H15A15037   0.316   3.137   3.313 -0.0250  0.2340 -1.4063
  139OSM   H15B15038   0.259   3.238   3.197  3.2833 -0.9658  0.1549
  139OSM   H15C15039   0.162   3.088   3.247  0.1539  0.0735 -1.5251
  139OSM    C1415040   0.109   3.158   3.489 -0.1428 -0.5311  0.5450
  139OSM   H14A15041   0.035   3.095   3.444 -2.5626  1.2758  1.7733
  139OSM   H14B15042   0.075   3.208   3.579 -0.6046 -1.6664  1.0166
  139OSM   H14C15043   0.188   3.091   3.521 -0.2768 -0.4327  1.0907
  139OSM    C1315044   0.253   3.351   3.439  0.5541  0.3123 -0.2133
  139OSM   H13A15045   0.351   3.308   3.447  0.8090  0.5298 -1.8068
  139OSM   H13B15046   0.223   3.376   3.540  0.4194  0.6464 -0.3348
  139OSM   H13C15047   0.267   3.433   3.369 -0.5329 -1.4896 -2.6861
  139OSM    C1215048   0.037   3.322   3.323 -0.2829  0.7579  0.1428
  139OSM   H12A15049   0.075   3.370   3.234 -3.3875  3.2634 -0.0084
  139OSM   H12B15050  -0.000   3.404   3.382  0.9161  1.0220  0.5687
  139OSM    C1115051  -0.085   3.237   3.279  0.9472 -0.5892  0.4173
  139OSM   H11A15052  -0.045   3.152   3.220 -1.1284 -1.6479  0.4380
  139OSM   H11B15053  -0.145   3.303   3.213 -0.0246 -2.0313 -0.1786
  139OSM      P15054  -0.283   3.278   3.452  0.1739 -0.2187  0.4535
  139OSM    O1315055  -0.290   3.407   3.380 -0.3921  0.1502  0.3033
  139OSM    O1415056  -0.407   3.199   3.457 -0.4383 -0.1164 -0.0352
  139OSM    O1115057  -0.246   3.319   3.603 -0.1488  0.6186 -0.2838
  139OSM    O1215058  -0.163   3.190   3.390 -0.4069  0.2432 -0.6169
  139OSM    C1S15059  -0.194   3.223   3.692  0.2434 -0.0663 -0.0428
  139OSM    H1S15060  -0.085   3.217   3.676  0.3474  2.1638 -0.4455
  139OSM    H1T15061  -0.244   3.124   3.680  0.2309 -0.4272  2.3548
  139OSM     NF15062  -0.195   3.162   3.928 -0.0658 -0.2107  0.0292
  139OSM    HNF15063  -0.269   3.118   3.978 -1.2503  1.8291  0.1921
  139OSM    C2S15064  -0.254   3.249   3.830 -0.4064  0.4035  0.1395
  139OSM    H2S15065  -0.225   3.353   3.857  2.1124  0.2467 -1.6790
  139OSM    C3S15066  -0.407   3.239   3.835 -0.5401  0.3614  0.0499
  139OSM    H3S15067  -0.431   3.132   3.823  0.0003  0.2342  0.0687
  139OSM     O315068  -0.481   3.302   3.732  0.2475 -0.1536  0.2185
  139OSM    HO315069  -0.414   3.342   3.676  0.3059 -3.3105 -2.3240
  139OSM    C4S15070  -0.459   3.287   3.964  0.6865 -1.0512 -0.7877
  139OSM    H4S15071  -0.425   3.391   3.976  1.4363 -1.3183 -0.5096
  139OSM    C5S15072  -0.535   3.220   4.057 -0.3297 -0.0382 -0.0063
  139OSM    H5S15073  -0.569   3.118   4.032 -0.2752 -0.0307 -0.1135
  139OSM    C6S15074  -0.574   3.277   4.189 -0.0464 -0.3162  0.6361
  139OSM    H6S15075  -0.677   3.247   4.217  0.8455 -2.9131  1.3665
  139OSM    H6T15076  -0.584   3.388   4.187  1.3575 -0.1730 -1.7446
  139OSM    C7S15077  -0.482   3.230   4.300 -0.2802 -0.3416 -0.4181
  139OSM    H7S15078  -0.382   3.278   4.294 -0.6545  0.6605  0.8806
  139OSM    H7T15079  -0.472   3.119   4.300  1.5689 -0.2543 -2.4902
  139OSM    C8S15080  -0.533   3.273   4.435 -0.1450  0.2837  0.2140
  139OSM    H8S15081  -0.606   3.202   4.479  0.5572  0.1216  1.1759
  139OSM    H8T15082  -0.576   3.375   4.427  2.6227  1.5910  0.6981
  139OSM    C9S15083  -0.427   3.277   4.543 -0.6081 -0.1884 -0.4699
  139OSM    H9S15084  -0.359   3.354   4.499 -0.6726 -0.9330 -1.9225
  139OSM    H9T15085  -0.360   3.188   4.536  1.8177  1.3373  1.3422
  139OSM   C10S15086  -0.476   3.314   4.678 -0.3080  0.6530 -0.1678
  139OSM   H10S15087  -0.518   3.417   4.672  1.9864  1.6011 -1.0759
  139OSM   H10T15088  -0.381   3.322   4.734 -0.5927  1.7803  0.1761
  139OSM   C11S15089  -0.564   3.211   4.754  0.9687 -0.0235 -0.6261
  139OSM   H11S15090  -0.516   3.111   4.757  0.7424 -0.1563  2.6997
  139OSM   H11T15091  -0.662   3.188   4.706  0.7678  0.0970 -0.2732
  139OSM   C12S15092  -0.597   3.262   4.899 -0.3938 -0.1676 -0.2723
  139OSM   H12S15093  -0.648   3.359   4.882  0.1156  0.1117 -0.2132
  139OSM   H12T15094  -0.499   3.280   4.948  0.1638  2.2337 -2.0698
  139OSM   C13S15095  -0.692   3.168   4.973  0.1370  0.3801 -0.0224
  139OSM   H13S15096  -0.648   3.072   5.008  1.6661  1.4799  1.2595
  139OSM   H13T15097  -0.788   3.154   4.919 -0.1172 -2.0686  0.9140
  139OSM   C14S15098  -0.733   3.224   5.111 -0.1776  0.5056  0.3830
  139OSM   H14S15099  -0.810   3.303   5.092 -0.3243 -0.2138 -2.3138
  139OSM   H14T15100  -0.639   3.271   5.147  0.2789 -0.9893  1.2365
  139OSM   C15S15101  -0.778   3.127   5.215  0.1686 -0.2137 -0.2726
  139OSM   H15S15102  -0.701   3.047   5.219  0.8976  0.4521 -0.7733
  139OSM   H15T15103  -0.868   3.071   5.180 -2.1250  3.5219 -0.9183
  139OSM   C16S15104  -0.810   3.199   5.342  1.1056 -0.3624 -0.2233
  139OSM   H16S15105  -0.906   3.254   5.345  0.6706 -1.0969  2.4981
  139OSM   H16T15106  -0.729   3.272   5.365 -1.0264  1.6332  1.4312
  139OSM   C17S15107  -0.808   3.089   5.453 -0.6374 -0.5481  0.2788
  139OSM   H17S15108  -0.795   3.141   5.551 -0.4306 -1.7632  0.9156
  139OSM   H17T15109  -0.709   3.041   5.434 -0.2725  0.6476 -1.0360
  139OSM   C18S15110  -0.922   2.988   5.461  0.0558  0.4284  0.5284
  139OSM   H18S15111  -0.897   2.906   5.390  0.1090  1.0186 -0.1445
  139OSM   H18T15112  -1.025   3.027   5.447 -0.5169 -1.5270 -1.1412
  139OSM   H18U15113  -0.914   2.947   5.564  4.8296 -2.0943 -0.5632
  139OSM    C1F15114  -0.059   3.159   3.961  1.0269  0.0929 -0.2610
  139OSM     OF15115   0.018   3.249   3.944  0.0157 -0.4816 -0.1259
  139OSM    C2F15116  -0.024   3.029   4.017  0.7021 -0.6368  0.3072
  139OSM    H2F15117   0.010   2.970   3.930  0.6959 -0.6137  0.2890
  139OSM    H2G15118  -0.101   2.978   4.079 -0.4596 -0.5201 -1.0115
  139OSM    C3F15119   0.104   3.051   4.105  0.0602  0.3144  0.4803
  139OSM    H3F15120   0.188   3.084   4.040 -0.2852 -1.9049 -1.2254
  139OSM    H3G15121   0.139   2.947   4.128  0.1964  0.3492  0.4349
  139OSM    C4F15122   0.114   3.131   4.236  0.1715  0.2150 -0.1923
  139OSM    H4F15123   0.082   3.235   4.218 -0.7085 -0.2546 -1.4681
  139OSM    H4G15124   0.212   3.134   4.289 -0.3378 -0.5139  0.8349
  139OSM    C5F15125   0.023   3.068   4.347 -0.5096  0.3964 -0.1570
  139OSM    H5F15126   0.057   2.968   4.380  0.5892  0.3121 -1.4334
  139OSM    H5G15127  -0.076   3.047   4.300 -0.7155  0.8257  0.0804
  139OSM    C6F15128  -0.007   3.167   4.464 -0.1692 -0.2797 -0.1653
  139OSM    H6F15129  -0.117   3.170   4.477 -0.0534  0.3398  0.7575
  139OSM    H6G15130   0.021   3.274   4.456  1.5461 -0.7576 -0.8349
  139OSM    C7F15131   0.065   3.122   4.588 -0.6665  0.0095  0.2588
  139OSM    H7F15132   0.175   3.127   4.572 -0.7831 -0.6429 -0.8280
  139OSM    H7G15133   0.037   3.019   4.618 -0.7900  0.3345  1.3101
  139OSM    C8F15134   0.034   3.210   4.710 -0.4662 -0.2534 -0.1539
  139OSM    H8F15135   0.087   3.307   4.694  0.1542 -0.5752 -0.0968
  139OSM    H8G15136   0.101   3.164   4.786  0.3663  1.2068  0.0514
  139OSM    C9F15137  -0.107   3.208   4.754  0.7129  0.1460 -0.2181
  139OSM    H9F15138  -0.172   3.251   4.676  0.8297  0.0355 -0.3784
  139OSM   C10F15139  -0.156   3.189   4.878 -0.4158  0.5915 -0.2405
  139OSM   H10F15140  -0.264   3.173   4.893  0.0865 -2.3584  1.0663
  139OSM   C11F15141  -0.087   3.153   5.004  0.9458  0.4040  0.5620
  139OSM   H11F15142  -0.004   3.085   4.977 -0.7651 -1.2129 -0.8661
  139OSM   H11G15143  -0.153   3.098   5.074  1.7802 -2.4710 -0.7664
  139OSM   C12F15144  -0.033   3.282   5.080  0.0965 -0.0028  0.0130
  139OSM   H12F15145  -0.120   3.333   5.127 -0.3605 -1.2700  0.5801
  139OSM   H12G15146   0.013   3.344   5.000 -0.3389  1.7720  1.0886
  139OSM   C13F15147   0.064   3.249   5.193  1.1003  0.5676  0.1785
  139OSM   H13F15148   0.155   3.199   5.154 -1.2713 -3.0277 -1.2757
  139OSM   H13G15149   0.008   3.181   5.261 -0.5094  1.6506 -0.0163
  139OSM   C14F15150   0.120   3.375   5.261 -0.0716  0.0759 -0.2918
  139OSM   H14F15151   0.164   3.447   5.189  1.1107 -0.6068 -0.2859
  139OSM   H14G15152   0.211   3.340   5.314 -0.1948  1.2693  0.7688
  139OSM   C15F15153   0.018   3.458   5.350 -0.0807 -0.3863 -0.7562
  139OSM   H15F15154  -0.015   3.390   5.431 -0.8691 -0.1198 -0.8484
  139OSM   H15G15155  -0.076   3.480   5.296 -1.3602  0.3222  1.6554
  139OSM   C16F15156   0.072   3.584   5.414 -0.2367 -0.3302 -0.0982
  139OSM   H16F15157   0.073   3.666   5.339 -0.5095 -0.2765 -0.0458
  139OSM   H16G15158   0.176   3.553   5.436 -0.2109  1.3829  2.6332
  139OSM   C17F15159  -0.005   3.621   5.541 -0.1747  0.4632  0.0828
  139OSM   H17F15160   0.053   3.705   5.585 -2.3384  2.6737 -1.0753
  139OSM   H17G15161   0.001   3.530   5.606  0.4228 -0.0835 -0.7204
  139OSM   C18F15162  -0.151   3.669   5.513 -0.2477  0.1466 -0.3930
  139OSM   H18F15163  -0.188   3.713   5.608  2.9760 -1.7477  1.9534
  139OSM   H18G15164  -0.216   3.584   5.486  0.7023 -0.2200 -1.6289
  139OSM   H18H15165  -0.140   3.752   5.440  0.8272  0.7045  0.3717
  140OSM      N15166   5.399   0.945   3.525 -0.0540  0.3564  0.4803
  140OSM    C1515167   5.328   0.918   3.400 -0.2364  0.4519  0.0043
  140OSM   H15A15168   5.368   0.838   3.339 -1.8403 -0.0716 -0.4148
  140OSM   H15B15169   5.338   1.003   3.335 -0.7945  0.1311 -0.5091
  140OSM   H15C15170   5.225   0.891   3.416  0.3644 -2.1587 -0.1184
  140OSM    C1415171   5.545   0.968   3.499 -0.1335  0.5552 -0.0465
  140OSM   H14A15172   5.558   1.037   3.417  0.4284 -0.6554 -1.0157
  140OSM   H14B15173   5.591   0.877   3.463 -0.5730  0.2991  0.0336
  140OSM   H14C15174   5.614   0.996   3.576  0.6411 -1.2366 -0.0536
  140OSM    C1315175   5.343   1.060   3.592  0.1616 -0.0691 -0.2710
  140OSM   H13A15176   5.389   1.080   3.688  2.1389  3.8075 -1.7853
  140OSM   H13B15177   5.236   1.055   3.598  0.1125 -2.7107 -2.0594
  140OSM   H13C15178   5.361   1.152   3.538 -1.3381  0.1584 -0.4198
  140OSM    C1215179   5.383   0.828   3.620 -0.3092  0.0859 -0.2111
  140OSM   H12A15180   5.279   0.811   3.640 -0.2118 -0.0318  0.1989
  140OSM   H12B15181   5.430   0.864   3.711 -1.7110  1.9902 -0.1756
  140OSM    C1115182   5.466   0.690   3.596 -0.6735  0.2843 -0.5699
  140OSM   H11A15183   5.472   0.660   3.489  1.0720  1.3396 -0.8080
  140OSM   H11B15184   5.426   0.608   3.659  0.8355 -0.0154  0.0453
  140OSM      P15185   5.663   0.713   3.769  0.1931 -0.2898 -0.3948
  140OSM    O1315186   5.737   0.588   3.797  0.7216 -0.1090  0.7265
  140OSM    O1415187   5.724   0.845   3.799  0.6957 -0.2215 -0.0455
  140OSM    O1115188   5.537   0.696   3.863 -0.1875  0.8583  0.0214
  140OSM    O1215189   5.601   0.709   3.632  0.1817  0.3410  0.0245
  140OSM    C1S15190   5.546   0.684   4.004  0.1516 -0.3490  0.2706
  140OSM    H1S15191   5.634   0.625   4.038  0.5876  0.6245  0.8810
  140OSM    H1T15192   5.458   0.632   4.046  0.6799 -0.7005  0.9740
  140OSM     NF15193   5.585   0.789   4.227 -0.2870  0.1778 -0.4429
  140OSM    HNF15194   5.507   0.791   4.289 -0.9919 -0.0499 -1.3167
  140OSM    C2S15195   5.542   0.818   4.091 -0.7350 -0.2798  0.7230
  140OSM    H2S15196   5.616   0.886   4.043 -0.5310 -1.4381 -0.6888
  140OSM    C3S15197   5.404   0.893   4.072 -0.0918 -0.0745  1.3330
  140OSM    H3S15198   5.327   0.827   4.118 -0.7178 -2.1746 -2.3425
  140OSM     O315199   5.363   0.901   3.930 -0.8118  0.7688  0.3592
  140OSM    HO315200   5.418   0.836   3.885 -1.1053  1.2709 -0.7692
  140OSM    C4S15201   5.408   1.028   4.142  0.1983  0.8791  0.2336
  140OSM    H4S15202   5.476   1.098   4.089 -0.7950 -0.2719 -2.8118
  140OSM    C5S15203   5.331   1.057   4.250  0.3883 -0.6155  0.2460
  140OSM    H5S15204   5.262   0.986   4.299  0.1357  0.7274  1.9497
  140OSM    C6S15205   5.315   1.189   4.308 -0.4144 -0.7059  0.1233
  140OSM    H6S15206   5.215   1.195   4.357 -1.1709 -2.0183 -1.1862
  140OSM    H6T15207   5.311   1.260   4.222  0.1953  1.5894  1.8703
  140OSM    C7S15208   5.417   1.254   4.401 -0.5365 -0.2912 -0.7079
  140OSM    H7S15209   5.384   1.359   4.422  0.3789 -0.2216  0.4682
  140OSM    H7T15210   5.508   1.264   4.338 -0.2236  2.7213  0.0470
  140OSM    C8S15211   5.432   1.180   4.528 -0.8415 -0.3879 -0.8128
  140OSM    H8S15212   5.506   1.243   4.581 -1.1350 -0.5102 -0.2497
  140OSM    H8T15213   5.465   1.075   4.510 -0.0849  0.0050 -1.8414
  140OSM    C9S15214   5.319   1.187   4.633 -0.0404 -0.3969  0.8502
  140OSM    H9S15215   5.239   1.130   4.580  2.0077 -1.3122 -1.4079
  140OSM    H9T15216   5.288   1.293   4.647  0.6535  0.4958 -3.1141
  140OSM   C10S15217   5.369   1.118   4.757 -0.4414 -0.2803  0.3486
  140OSM   H10S15218   5.452   1.175   4.803 -0.5579  0.3546 -0.2210
  140OSM   H10T15219   5.403   1.013   4.740 -1.7185 -0.8948  1.3738
  140OSM   C11S15220   5.265   1.102   4.861  0.6017  0.2958 -0.0007
  140OSM   H11S15221   5.173   1.059   4.815  1.0109 -0.2978 -0.2782
  140OSM   H11T15222   5.246   1.203   4.904  2.9951  0.6813  0.2813
  140OSM   C12S15223   5.317   1.023   4.976  0.9423 -0.0499  0.1953
  140OSM   H12S15224   5.409   1.074   5.012  2.1459 -0.2484 -2.4084
  140OSM   H12T15225   5.344   0.926   4.929 -0.2972 -0.0655 -0.5174
  140OSM   C13S15226   5.218   1.007   5.089  0.5049 -0.1426  0.7274
  140OSM   H13S15227   5.123   0.962   5.052 -0.2528  2.1355 -0.2565
  140OSM   H13T15228   5.183   1.105   5.129 -2.0571 -0.2986 -0.8919
  140OSM   C14S15229   5.281   0.935   5.203 -0.1486  0.2923  0.0676
  140OSM   H14S15230   5.380   0.982   5.218 -0.3089  0.5383  0.3741
  140OSM   H14T15231   5.305   0.831   5.170 -3.4286 -0.8206  0.7838
  140OSM   C15S15232   5.209   0.942   5.336  0.1072 -0.5062  0.2220
  140OSM   H15S15233   5.265   0.870   5.399  1.5415  0.2466 -0.1342
  140OSM   H15T15234   5.107   0.905   5.315  0.6429 -1.9843  0.1056
  140OSM   C16S15235   5.221   1.085   5.403  0.2812  0.0816 -0.7252
  140OSM   H16S15236   5.183   1.145   5.318 -2.2923 -0.1076  0.1902
  140OSM   H16T15237   5.324   1.122   5.418  0.1861 -0.0263  0.3395
  140OSM   C17S15238   5.140   1.115   5.532 -1.1233 -0.2831  0.0255
  140OSM   H17S15239   5.032   1.091   5.520 -0.9863 -0.8119 -0.1867
  140OSM   H17T15240   5.140   1.225   5.542 -1.8429 -0.2224 -0.6029
  140OSM   C18S15241   5.199   1.044   5.655  0.0426 -1.0531 -0.8890
  140OSM   H18S15242   5.281   1.106   5.697 -0.9981  0.9359 -1.6518
  140OSM   H18T15243   5.234   0.939   5.656 -1.7481 -1.6900 -0.7737
  140OSM   H18U15244   5.125   1.040   5.738  1.2061  0.7957  0.3062
  140OSM    C1F15245   5.709   0.755   4.266 -0.0487  0.2280  0.1806
  140OSM     OF15246   5.810   0.769   4.200 -0.6209 -0.0573  0.1601
  140OSM    C2F15247   5.721   0.701   4.409 -0.2153  0.6025  0.1201
  140OSM    H2F15248   5.700   0.592   4.406 -3.1570  1.0137  1.8996
  140OSM    H2G15249   5.645   0.745   4.478 -1.9379 -1.4052 -0.3888
  140OSM    C3F15250   5.863   0.724   4.462 -0.4399  0.0726 -0.3919
  140OSM    H3F15251   5.916   0.820   4.445  0.2754  0.2958  2.6406
  140OSM    H3G15252   5.929   0.644   4.422 -1.9377 -0.3454 -2.1903
  140OSM    C4F15253   5.861   0.700   4.615 -0.6681 -0.0870 -1.4042
  140OSM    H4F15254   5.967   0.681   4.643 -0.8453  0.9671  0.1698
  140OSM    H4G15255   5.804   0.611   4.647 -2.7415  2.1031  1.6026
  140OSM    C5F15256   5.806   0.820   4.702  0.1436 -0.2889 -0.0064
  140OSM    H5F15257   5.706   0.858   4.670 -1.0224 -1.3387  2.1615
  140OSM    H5G15258   5.875   0.907   4.692 -2.4303  2.2039  2.2106
  140OSM    C6F15259   5.793   0.773   4.853  0.3736  0.0202  0.3452
  140OSM    H6F15260   5.882   0.716   4.885 -1.2694 -1.7652  1.9889
  140OSM    H6G15261   5.711   0.698   4.853  0.4585 -0.1245 -1.6217
  140OSM    C7F15262   5.759   0.887   4.946 -0.2107 -0.5018  0.4427
  140OSM    H7F15263   5.697   0.963   4.895 -1.3430  0.2818  2.8395
  140OSM    H7G15264   5.853   0.937   4.978  1.3591 -3.2759  0.5513
  140OSM    C8F15265   5.679   0.836   5.067  0.2774 -0.1853  0.1531
  140OSM    H8F15266   5.598   0.765   5.042  0.0170 -0.1512  0.8896
  140OSM    H8G15267   5.636   0.931   5.106  1.7920  0.7090 -0.2541
  140OSM    C9F15268   5.762   0.782   5.176  0.4104  0.0773  0.6296
  140OSM    H9F15269   5.842   0.715   5.140 -0.8380  0.0369 -2.4573
  140OSM   C10F15270   5.740   0.796   5.309  0.2442  0.2061  0.1632
  140OSM   H10F15271   5.800   0.752   5.391 -0.8571  0.3070  1.0389
  140OSM   C11F15272   5.650   0.896   5.377  0.1286  0.1098  0.0264
  140OSM   H11F15273   5.568   0.944   5.319 -0.7952 -1.6837 -0.2113
  140OSM   H11G15274   5.710   0.984   5.410 -0.1466 -0.1202  1.2000
  140OSM   C12F15275   5.578   0.830   5.496 -0.7830  0.2576 -0.3104
  140OSM   H12F15276   5.628   0.743   5.544  0.2274 -0.1295 -2.0021
  140OSM   H12G15277   5.487   0.779   5.458 -0.8470  1.1880 -1.4242
  140OSM   C13F15278   5.525   0.926   5.602 -0.3279 -0.9901 -0.1347
  140OSM   H13F15279   5.434   0.882   5.648 -0.8062  1.5420  1.5122
  140OSM   H13G15280   5.500   1.021   5.549  2.7894 -0.0242 -0.0367
  140OSM   C14F15281   5.629   0.961   5.709 -0.7811 -0.0135  0.4184
  140OSM   H14F15282   5.709   1.024   5.663  0.5410 -0.8748  1.4667
  140OSM   H14G15283   5.685   0.874   5.749 -0.5052  0.1247  0.3413
  140OSM   C15F15284   5.571   1.035   5.834 -0.2094 -0.1583  0.3276
  140OSM   H15F15285   5.516   1.127   5.805  0.4187  0.6069  1.4942
  140OSM   H15G15286   5.662   1.058   5.893  0.8249 -1.7543 -0.5486
  140OSM   C16F15287   5.487   0.952   5.929 -0.8806 -0.1661 -0.3957
  140OSM   H16F15288   5.408   0.906   5.866  0.4936 -1.4653 -1.2463
  140OSM   H16G15289   5.450   1.017   6.011  1.0416 -0.4377  0.7513
  140OSM   C17F15290   5.567   0.831   5.991 -0.0441 -0.2232 -0.9751
  140OSM   H17F15291   5.651   0.872   6.051 -1.1172 -0.1334  0.5242
  140OSM   H17G15292   5.615   0.768   5.914 -1.1005 -1.1028 -0.9317
  140OSM   C18F15293   5.477   0.742   6.079 -0.0094 -0.2605 -0.9610
  140OSM   H18F15294   5.535   0.672   6.143 -1.9014  1.3518  2.8429
  140OSM   H18G15295   5.402   0.682   6.024  0.0231 -2.0728  0.8317
  140OSM   H18H15296   5.426   0.811   6.149 -1.8275 -0.4449 -2.0559
  141OSM      N15297   0.461   4.292   3.379  0.1884 -0.2664 -0.8183
  141OSM    C1515298   0.370   4.407   3.369 -0.1480  0.0536  0.0540
  141OSM   H15A15299   0.372   4.436   3.265  1.1742 -0.9311 -0.2106
  141OSM   H15B15300   0.398   4.485   3.438 -0.3403  0.3474 -0.1954
  141OSM   H15C15301   0.269   4.376   3.391 -1.2572  2.0598 -1.7779
  141OSM    C1415302   0.420   4.207   3.260 -0.8449 -0.5699  0.1085
  141OSM   H14A15303   0.466   4.110   3.275 -0.5059 -0.2680  1.0827
  141OSM   H14B15304   0.464   4.245   3.170  1.8303 -2.6788  0.3757
  141OSM   H14C15305   0.313   4.196   3.255 -0.8502 -0.2791 -0.4522
  141OSM    C1315306   0.607   4.343   3.371 -0.1873 -0.2585 -0.0620
  141OSM   H13A15307   0.651   4.408   3.445 -0.5774  0.4935 -0.4767
  141OSM   H13B15308   0.628   4.390   3.277  0.5158 -0.4295  0.0066
  141OSM   H13C15309   0.679   4.263   3.377  3.0584  2.5147  1.4236
  141OSM    C1215310   0.434   4.218   3.505 -0.6837 -0.0701 -0.1872
  141OSM   H12A15311   0.330   4.190   3.505 -0.6614 -0.1823  0.8310
  141OSM   H12B15312   0.460   4.276   3.592  3.8806  0.2337 -1.4871
  141OSM    C1115313   0.512   4.078   3.509 -0.5169 -0.2856  0.4657
  141OSM   H11A15314   0.540   4.056   3.614  1.1846 -0.9381 -0.1034
  141OSM   H11B15315   0.604   4.080   3.448  0.4167 -0.7661  1.8024
  141OSM      P15316   0.295   3.935   3.507 -0.3547  0.0758 -0.2114
  141OSM    O1315317   0.185   4.024   3.469 -0.8253  0.0353 -0.6823
  141OSM    O1415318   0.264   3.793   3.486  0.3136  0.1395  0.6941
  141OSM    O1115319   0.325   3.954   3.665 -0.7237  0.1381  0.3458
  141OSM    O1215320   0.435   3.978   3.448  0.2429  0.2264 -0.7309
  141OSM    C1S15321   0.222   3.894   3.751 -0.2846  0.3959 -0.3298
  141OSM    H1S15322   0.189   3.794   3.715  0.2948 -0.3499  1.1320
  141OSM    H1T15323   0.136   3.963   3.770  0.0559  1.5405 -2.6477
  141OSM     NF15324   0.148   3.836   3.973  0.0465  0.1954 -0.6015
  141OSM    HNF15325   0.099   3.915   4.009  2.3906  1.9978 -1.0351
  141OSM    C2S15326   0.269   3.868   3.895  0.8152 -0.9963 -0.0959
  141OSM    H2S15327   0.333   3.778   3.885 -0.0117 -1.8286  1.5793
  141OSM    C3S15328   0.369   3.983   3.954 -0.0398 -0.8748  0.2484
  141OSM    H3S15329   0.315   4.078   3.972  0.3995 -0.7790  1.0806
  141OSM     O315330   0.482   4.016   3.867 -0.5660 -0.0339  0.0586
  141OSM    HO315331   0.447   3.984   3.783  0.4439 -0.9271 -0.0448
  141OSM    C4S15332   0.415   3.943   4.093  0.2607 -0.0559  1.2075
  141OSM    H4S15333   0.337   3.954   4.170  0.5687 -2.1997  1.9031
  141OSM    C5S15334   0.534   3.895   4.139  0.4648  0.1019  0.5252
  141OSM    H5S15335   0.616   3.890   4.065 -0.4857  0.4082 -0.5889
  141OSM    C6S15336   0.543   3.854   4.283 -0.4622  0.3652  0.1407
  141OSM    H6S15337   0.633   3.794   4.308 -2.5726 -1.8876  3.2446
  141OSM    H6T15338   0.458   3.785   4.301 -1.8407  1.8374 -0.4983
  141OSM    C7S15339   0.525   3.965   4.391 -0.4216  1.0837  0.0429
  141OSM    H7S15340   0.423   4.004   4.377 -1.0426 -0.9132 -1.6326
  141OSM    H7T15341   0.605   4.042   4.389 -0.8575  1.5500  0.3027
  141OSM    C8S15342   0.524   3.919   4.540 -0.0898 -0.7438  0.4250
  141OSM    H8S15343   0.618   3.861   4.545 -0.2726 -0.9262  2.8011
  141OSM    H8T15344   0.434   3.856   4.555 -1.5244  0.5710 -1.9769
  141OSM    C9S15345   0.526   4.030   4.645 -0.5170 -0.0804  0.2778
  141OSM    H9S15346   0.438   4.091   4.616 -0.2969  0.5900  1.0100
  141OSM    H9T15347   0.615   4.095   4.635 -1.7626  1.7548  0.6921
  141OSM   C10S15348   0.524   3.962   4.793  0.5280 -0.3855  0.5068
  141OSM   H10S15349   0.631   3.944   4.812  0.6306  0.0278  0.3442
  141OSM   H10T15350   0.463   3.869   4.793  2.1584 -1.4844  0.3934
  141OSM   C11S15351   0.480   4.059   4.901 -0.4015 -0.0165 -0.4155
  141OSM   H11S15352   0.375   4.084   4.873 -0.6041 -0.7181 -0.2987
  141OSM   H11T15353   0.542   4.152   4.904  0.5887 -0.5777 -1.8822
  141OSM   C12S15354   0.470   3.989   5.039 -0.2015  1.0560  0.1046
  141OSM   H12S15355   0.561   3.934   5.070 -0.6846 -0.5094 -1.1289
  141OSM   H12T15356   0.397   3.906   5.027 -0.6263  1.2187  1.4386
  141OSM   C13S15357   0.425   4.086   5.147 -0.5130 -0.2984 -0.1225
  141OSM   H13S15358   0.320   4.106   5.118 -0.7359 -1.6447 -0.3124
  141OSM   H13T15359   0.494   4.173   5.157  0.6430 -1.2283  0.1672
  141OSM   C14S15360   0.419   4.012   5.274  0.2660  1.0267 -0.2161
  141OSM   H14S15361   0.369   3.915   5.253 -1.2599  1.4556  1.2079
  141OSM   H14T15362   0.372   4.071   5.356 -2.1849  1.5088 -1.8414
  141OSM   C15S15363   0.561   3.981   5.341  0.0764  0.1053 -0.3285
  141OSM   H15S15364   0.590   4.077   5.388  1.0128 -1.3893  2.3489
  141OSM   H15T15365   0.645   3.953   5.274  1.3480  1.7089  0.5173
  141OSM   C16S15366   0.557   3.868   5.440 -0.4324 -0.4029  0.1344
  141OSM   H16S15367   0.652   3.816   5.467 -1.9780 -2.1743  2.5698
  141OSM   H16T15368   0.508   3.780   5.392 -0.7816 -0.4739  0.6152
  141OSM   C17S15369   0.474   3.900   5.567  0.8224 -0.0068 -0.2841
  141OSM   H17S15370   0.377   3.947   5.541  1.1774  2.3503  2.1794
  141OSM   H17T15371   0.533   3.975   5.624 -1.1181  0.1635  1.5935
  141OSM   C18S15372   0.447   3.779   5.650 -0.2165 -0.2770 -0.3942
  141OSM   H18S15373   0.401   3.807   5.747  1.1205  1.4620 -0.2044
  141OSM   H18T15374   0.539   3.725   5.677  0.7684  1.6184  0.2371
  141OSM   H18U15375   0.374   3.706   5.609 -0.8347 -0.2006  0.5319
  141OSM    C1F15376   0.089   3.720   3.948 -0.1315  0.0677  0.0063
  141OSM     OF15377   0.141   3.639   3.875  0.1895  0.1797  0.2003
  141OSM    C2F15378  -0.044   3.700   4.011  0.1377  0.3000 -0.6395
  141OSM    H2F15379  -0.118   3.661   3.938 -0.4721  1.7295 -0.8310
  141OSM    H2G15380  -0.080   3.801   4.040  0.7579  0.0545  1.1277
  141OSM    C3F15381  -0.023   3.604   4.128 -0.5432 -0.1615 -0.0870
  141OSM    H3F15382   0.040   3.653   4.205  0.2007  0.7289 -1.2252
  141OSM    H3G15383   0.029   3.512   4.092  0.3515  0.5045 -0.5129
  141OSM    C4F15384  -0.161   3.567   4.187  0.1356  0.7027  0.2419
  141OSM    H4F15385  -0.197   3.485   4.121 -0.0443  0.9028  0.0907
  141OSM    H4G15386  -0.225   3.654   4.161  0.0070 -0.0608 -2.2868
  141OSM    C5F15387  -0.164   3.521   4.332 -0.0405  0.5286  0.4949
  141OSM    H5F15388  -0.091   3.438   4.345  0.1438  0.5750 -0.1997
  141OSM    H5G15389  -0.265   3.482   4.359 -0.5019 -0.1574 -1.9922
  141OSM    C6F15390  -0.131   3.637   4.432  0.2419 -0.2886  0.5221
  141OSM    H6F15391  -0.217   3.707   4.430 -0.2242 -0.8004  1.5267
  141OSM    H6G15392  -0.037   3.678   4.389  0.0163  0.4548  0.7270
  141OSM    C7F15393  -0.090   3.600   4.579  0.1355  0.1213 -0.2875
  141OSM    H7F15394  -0.020   3.673   4.623 -0.4391  0.4419  0.1144
  141OSM    H7G15395  -0.036   3.503   4.571 -0.6817 -0.2284 -2.4350
  141OSM    C8F15396  -0.206   3.605   4.676 -0.2534  0.0731  0.3012
  141OSM    H8F15397  -0.284   3.539   4.633 -0.0627  0.6305 -0.9574
  141OSM    H8G15398  -0.263   3.701   4.671  0.6155  0.5908  0.0451
  141OSM    C9F15399  -0.188   3.541   4.812  0.3216  0.1074  0.4663
  141OSM    H9F15400  -0.083   3.512   4.829  1.0493  1.6686 -1.1562
  141OSM   C10F15401  -0.265   3.553   4.922  0.0422  0.4625 -0.0851
  141OSM   H10F15402  -0.240   3.489   5.008  1.2261  1.1931  0.1366
  141OSM   C11F15403  -0.399   3.634   4.915 -0.3260  0.3768  0.0554
  141OSM   H11F15404  -0.471   3.557   4.952  0.2424 -1.0114 -1.6327
  141OSM   H11G15405  -0.426   3.674   4.815  2.5032  1.1119 -0.5040
  141OSM   C12F15406  -0.377   3.753   5.005  0.8966  0.5060 -0.0055
  141OSM   H12F15407  -0.467   3.814   4.981  2.2365  1.3344 -3.6962
  141OSM   H12G15408  -0.291   3.821   4.986  0.7554  1.5775  2.7678
  141OSM   C13F15409  -0.372   3.711   5.150 -0.3580 -0.2584 -0.3340
  141OSM   H13F15410  -0.282   3.651   5.180  0.4313  0.8944 -0.3243
  141OSM   H13G15411  -0.461   3.647   5.167  0.5349 -0.9462  2.2647
  141OSM   C14F15412  -0.394   3.820   5.254 -0.0129 -0.4938  0.5220
  141OSM   H14F15413  -0.319   3.901   5.239  0.6542 -1.3919 -1.2420
  141OSM   H14G15414  -0.381   3.774   5.354 -2.5696  1.6666  2.0151
  141OSM   C15F15415  -0.539   3.876   5.243 -0.3402 -0.8977 -0.3144
  141OSM   H15F15416  -0.606   3.787   5.241 -3.6748  1.4050 -1.7461
  141OSM   H15G15417  -0.556   3.933   5.149 -0.6442  0.8482  0.7560
  141OSM   C16F15418  -0.585   3.966   5.362 -0.1390 -0.4460 -0.7159
  141OSM   H16F15419  -0.579   3.923   5.464 -0.4287 -0.3600 -0.6594
  141OSM   H16G15420  -0.689   4.002   5.345  0.2040  0.6719 -0.5724
  141OSM   C17F15421  -0.488   4.091   5.365  0.1440  0.1030 -0.0182
  141OSM   H17F15422  -0.481   4.135   5.264 -2.0189  0.9140  0.1343
  141OSM   H17G15423  -0.387   4.051   5.389  0.1175 -0.4030 -0.7340
  141OSM   C18F15424  -0.517   4.192   5.479 -0.1357  0.2353  0.4386
  141OSM   H18F15425  -0.510   4.141   5.578  0.6703  1.4546  1.0511
  141OSM   H18G15426  -0.622   4.226   5.469 -0.8186 -1.5301  1.1829
  141OSM   H18H15427  -0.442   4.274   5.482 -2.0442  2.0515  0.6501
  142OSM      N15428   2.150   6.169   3.467 -0.1030 -0.4877  0.0850
  142OSM    C1515429   2.020   6.148   3.393 -0.2071 -0.6530  0.2293
  142OSM   H15A15430   1.978   6.239   3.353  0.3427 -0.4260  0.1585
  142OSM   H15B15431   1.941   6.108   3.454  1.9683 -1.9998  2.3664
  142OSM   H15C15432   2.037   6.087   3.306 -1.1960 -0.3248 -0.2067
  142OSM    C1415433   2.223   6.035   3.482 -0.3463  0.4204 -0.7547
  142OSM   H14A15434   2.311   6.051   3.543 -1.0770  0.5995  0.2819
  142OSM   H14B15435   2.245   5.992   3.386  1.9515  0.3032 -0.2431
  142OSM   H14C15436   2.168   5.956   3.531  0.4883  0.4218  0.2415
  142OSM    C1315437   2.231   6.253   3.370  0.4080 -0.2459  0.2789
  142OSM   H13A15438   2.240   6.210   3.271  2.0486  0.2146  0.2022
  142OSM   H13B15439   2.335   6.271   3.394  1.7356 -1.7344 -3.5835
  142OSM   H13C15440   2.194   6.353   3.357  2.1835  0.5237  0.8242
  142OSM    C1215441   2.132   6.241   3.603 -0.5014  0.2845  0.1963
  142OSM   H12A15442   2.221   6.238   3.665  0.0529 -0.0610 -0.6015
  142OSM   H12B15443   2.063   6.184   3.664  1.1706 -0.2663  1.6524
  142OSM    C1115444   2.096   6.390   3.597  0.0753 -0.3646  0.0083
  142OSM   H11A15445   2.170   6.459   3.552 -1.2597  1.7605  0.9466
  142OSM   H11B15446   2.089   6.432   3.699 -0.8898 -0.0420 -0.1776
  142OSM      P15447   1.828   6.381   3.606  0.3929 -0.2547 -0.1590
  142OSM    O1315448   1.722   6.382   3.500  0.1958 -0.1051 -0.2218
  142OSM    O1415449   1.828   6.254   3.688 -0.5532  0.2502 -0.1138
  142OSM    O1115450   1.809   6.501   3.705  0.5224  0.1574 -0.0598
  142OSM    O1215451   1.966   6.403   3.533 -0.4708  0.5394 -0.3360
  142OSM    C1S15452   1.852   6.637   3.688 -0.2767  0.6482 -0.1724
  142OSM    H1S15453   1.839   6.679   3.586  1.9461  3.4338  0.5628
  142OSM    H1T15454   1.960   6.637   3.716 -0.0851 -2.6577 -0.4609
  142OSM     NF15455   1.791   6.867   3.745  0.0970 -0.2155 -0.7580
  142OSM    HNF15456   1.871   6.913   3.781 -0.7628  1.3574 -0.7914
  142OSM    C2S15457   1.780   6.733   3.788 -0.1510 -0.4992  0.2591
  142OSM    H2S15458   1.673   6.701   3.787 -1.0115  2.0746 -2.0249
  142OSM    C3S15459   1.835   6.715   3.929 -0.6076  0.4052  0.1345
  142OSM    H3S15460   1.942   6.745   3.924 -0.0684 -1.2936  0.6588
  142OSM     O315461   1.843   6.582   3.970  0.2404  0.3183  0.1612
  142OSM    HO315462   1.810   6.535   3.893  1.2670 -1.1983  0.6071
  142OSM    C4S15463   1.766   6.803   4.027 -0.5648  0.3896 -0.1992
  142OSM    H4S15464   1.809   6.903   4.019  0.3669  0.1419  1.3845
  142OSM    C5S15465   1.655   6.776   4.099 -0.3508 -0.1343 -0.4742
  142OSM    H5S15466   1.616   6.673   4.094  0.2518 -0.3733 -0.3969
  142OSM    C6S15467   1.577   6.866   4.181 -0.8028 -0.3139 -0.7067
  142OSM    H6S15468   1.470   6.860   4.151 -0.6151 -1.5523 -1.1996
  142OSM    H6T15469   1.621   6.968   4.184 -0.9749 -0.2558  2.0660
  142OSM    C7S15470   1.573   6.830   4.334 -0.6580  0.3341 -0.7320
  142OSM    H7S15471   1.562   6.720   4.348 -2.3974  0.6154  0.3789
  142OSM    H7T15472   1.486   6.878   4.384  0.9617  2.2525  0.4115
  142OSM    C8S15473   1.701   6.872   4.403  0.2100  0.3186 -0.2426
  142OSM    H8S15474   1.700   6.976   4.443 -1.7611 -0.0032  0.6530
  142OSM    H8T15475   1.785   6.845   4.337 -0.3906 -1.6546 -0.2549
  142OSM    C9S15476   1.716   6.790   4.530 -0.2638  0.0039 -0.3032
  142OSM    H9S15477   1.819   6.803   4.570  0.4090 -2.4182 -1.0493
  142OSM    H9T15478   1.708   6.682   4.505  0.0767 -0.3205  0.9079
  142OSM   C10S15479   1.607   6.830   4.635  0.0547  0.4268  0.3986
  142OSM   H10S15480   1.511   6.834   4.580 -0.0613 -2.9406  0.1263
  142OSM   H10T15481   1.622   6.933   4.674 -3.8990  1.3062 -0.0129
  142OSM   C11S15482   1.590   6.726   4.746  1.2966 -1.1019 -0.3769
  142OSM   H11S15483   1.636   6.628   4.722  1.5792 -0.8673 -0.8258
  142OSM   H11T15484   1.481   6.721   4.766  1.1576 -0.0002 -0.7791
  142OSM   C12S15485   1.671   6.767   4.874 -0.0662  0.5967 -0.4504
  142OSM   H12S15486   1.661   6.874   4.900  0.4421  0.1820  1.7141
  142OSM   H12T15487   1.778   6.740   4.860 -0.4133 -0.9871 -0.3005
  142OSM   C13S15488   1.622   6.687   5.004 -0.3986  0.2459 -0.0115
  142OSM   H13S15489   1.635   6.579   4.980 -0.1703  0.5208 -1.2047
  142OSM   H13T15490   1.513   6.696   5.022 -0.0943 -0.7276  2.8233
  142OSM   C14S15491   1.702   6.703   5.133  0.5561  0.1267 -0.0194
  142OSM   H14S15492   1.689   6.809   5.164  0.7954  0.1031  0.1643
  142OSM   H14T15493   1.811   6.684   5.125  0.6234 -2.0753  3.7832
  142OSM   C15S15494   1.646   6.607   5.240 -0.7475 -0.1052 -0.7392
  142OSM   H15S15495   1.675   6.502   5.218 -0.8057 -0.4739  0.8239
  142OSM   H15T15496   1.536   6.603   5.251 -0.6360 -0.2280  0.4362
  142OSM   C16S15497   1.695   6.639   5.383  0.4782 -0.4016 -0.4326
  142OSM   H16S15498   1.632   6.592   5.462 -1.8265  1.3043 -1.1287
  142OSM   H16T15499   1.679   6.749   5.381 -0.1766 -0.4783  0.1425
  142OSM   C17S15500   1.840   6.627   5.417 -0.2496 -0.5665 -0.2604
  142OSM   H17S15501   1.903   6.683   5.345 -0.2946 -2.0277 -1.4937
  142OSM   H17T15502   1.861   6.518   5.427 -0.8001 -0.8095 -1.5550
  142OSM   C18S15503   1.872   6.689   5.557 -0.1145 -0.2297  0.6465
  142OSM   H18S15504   1.817   6.784   5.571  0.0202  0.1385 -1.0877
  142OSM   H18T15505   1.982   6.702   5.565  0.1070 -2.1534  1.3344
  142OSM   H18U15506   1.844   6.609   5.629 -0.8817 -2.0600 -1.5440
  142OSM    C1F15507   1.733   6.922   3.639  0.6491 -0.3635  0.0933
  142OSM     OF15508   1.650   6.866   3.567 -0.0024 -0.1427 -0.4164
  142OSM    C2F15509   1.764   7.070   3.616 -0.9990  0.1632 -0.0554
  142OSM    H2F15510   1.708   7.108   3.528  0.0358 -1.0057 -1.2507
  142OSM    H2G15511   1.874   7.064   3.601 -1.1301 -2.7792 -0.3602
  142OSM    C3F15512   1.743   7.154   3.737 -0.5369 -0.2955  0.2647
  142OSM    H3F15513   1.772   7.256   3.705  1.0850  0.0676  2.6344
  142OSM    H3G15514   1.806   7.132   3.825  1.3414 -1.7034 -1.3233
  142OSM    C4F15515   1.593   7.159   3.777 -0.2046 -0.9391 -0.3138
  142OSM    H4F15516   1.568   7.061   3.823  0.2286  0.3022  2.8199
  142OSM    H4G15517   1.526   7.174   3.689 -1.0636  3.3695  0.8255
  142OSM    C5F15518   1.560   7.262   3.892 -0.3313 -0.7238  0.5556
  142OSM    H5F15519   1.452   7.249   3.910 -0.8337  0.1213 -1.4948
  142OSM    H5G15520   1.576   7.361   3.844 -0.4767 -0.0657  1.8218
  142OSM    C6F15521   1.648   7.237   4.021  0.6319  0.7298 -0.0749
  142OSM    H6F15522   1.756   7.222   4.002  0.7766 -0.5781  1.5378
  142OSM    H6G15523   1.612   7.141   4.064  0.0040 -0.3185 -2.7464
  142OSM    C7F15524   1.623   7.357   4.112 -0.1947  1.3346  0.4090
  142OSM    H7F15525   1.514   7.377   4.120 -0.3448  0.7946 -0.2283
  142OSM    H7G15526   1.671   7.439   4.055  1.6065 -0.8927 -1.5153
  142OSM    C8F15527   1.698   7.355   4.245  0.9736 -0.1457 -0.2008
  142OSM    H8F15528   1.704   7.460   4.283 -0.2539  0.8253 -2.5197
  142OSM    H8G15529   1.804   7.325   4.227  0.8063 -1.8794  1.4564
  142OSM    C9F15530   1.641   7.247   4.330 -0.4486  0.1772  0.4252
  142OSM    H9F15531   1.598   7.163   4.274  0.9149  0.3584 -0.9625
  142OSM   C10F15532   1.629   7.252   4.465 -0.2398 -1.0463  0.4545
  142OSM   H10F15533   1.566   7.175   4.511 -0.6854 -1.6456 -1.1050
  142OSM   C11F15534   1.680   7.361   4.556 -0.7476 -0.3730 -0.1352
  142OSM   H11F15535   1.615   7.450   4.539 -1.7560 -0.7548  1.5005
  142OSM   H11G15536   1.788   7.380   4.538 -0.4625 -0.8281  1.0278
  142OSM   C12F15537   1.665   7.344   4.705  0.4467 -0.6634 -0.7263
  142OSM   H12F15538   1.562   7.317   4.740  1.1370 -2.1621  0.2570
  142OSM   H12G15539   1.697   7.436   4.757  0.1915 -1.7179  1.3849
  142OSM   C13F15540   1.761   7.240   4.767 -0.4430  0.4581  0.2703
  142OSM   H13F15541   1.866   7.264   4.741  0.2554 -1.3565  1.1929
  142OSM   H13G15542   1.737   7.138   4.729 -2.8652  0.6652  1.0326
  142OSM   C14F15543   1.754   7.214   4.918  0.6528 -0.2373 -0.3236
  142OSM   H14F15544   1.655   7.171   4.939  0.6241 -0.8817 -1.6961
  142OSM   H14G15545   1.765   7.314   4.966  0.4733 -0.8182  0.9812
  142OSM   C15F15546   1.856   7.121   4.978 -0.0841  0.2744  0.8308
  142OSM   H15F15547   1.961   7.157   4.979  0.3131 -0.8565  0.8984
  142OSM   H15G15548   1.852   7.026   4.921 -0.9095 -0.2727  1.7649
  142OSM   C16F15549   1.848   7.076   5.120  0.1339 -0.3661 -1.4903
  142OSM   H16F15550   1.746   7.033   5.126 -0.7033  1.6833  1.1896
  142OSM   H16G15551   1.847   7.160   5.193  2.5804 -0.5343 -1.1872
  142OSM   C17F15552   1.938   6.964   5.167  0.0605 -0.0992  0.3043
  142OSM   H17F15553   1.938   6.890   5.084  0.6318 -0.7317  0.8519
  142OSM   H17G15554   1.887   6.915   5.253 -0.8238  1.2611  0.5801
  142OSM   C18F15555   2.074   7.016   5.220 -0.2170  0.2304  0.3129
  142OSM   H18F15556   2.131   6.928   5.254 -0.6285  0.2356  1.0233
  142OSM   H18G15557   2.058   7.089   5.302 -0.8484 -0.0111  0.4114
  142OSM   H18H15558   2.133   7.053   5.133  0.6751 -1.9502 -0.0658
  143OSM      N15559   1.388   0.245   3.283 -0.6682 -0.1572 -0.8380
  143OSM    C1515560   1.394   0.321   3.150 -0.9042  0.0174 -0.2132
  143OSM   H15A15561   1.461   0.278   3.078 -0.0730 -0.5204  0.8508
  143OSM   H15B15562   1.429   0.422   3.165 -0.0192  0.1197 -2.5789
  143OSM   H15C15563   1.292   0.330   3.115 -1.5773  1.0803  1.8616
  143OSM    C1415564   1.340   0.105   3.252  0.4026 -0.5247  0.2215
  143OSM   H14A15565   1.240   0.105   3.211 -0.0449 -0.8433  1.2753
  143OSM   H14B15566   1.334   0.031   3.331 -0.6022 -0.8524 -0.1417
  143OSM   H14C15567   1.391   0.067   3.166  0.0747 -3.9844  1.3901
  143OSM    C1315568   1.526   0.235   3.343  0.6511 -0.0773  0.0750
  143OSM   H13A15569   1.577   0.178   3.266  0.1134  0.8540 -1.0004
  143OSM   H13B15570   1.532   0.183   3.438 -0.3732  0.1710  0.2804
  143OSM   H13C15571   1.571   0.333   3.344 -0.5789  0.5029  0.1015
  143OSM    C1215572   1.294   0.314   3.387 -0.4494  0.4174  0.8693
  143OSM   H12A15573   1.209   0.355   3.333 -0.1500 -0.5629 -0.3847
  143OSM   H12B15574   1.350   0.398   3.426  2.6206 -0.9812 -0.2176
  143OSM    C1115575   1.222   0.233   3.491 -0.4868  0.5398 -0.1482
  143OSM   H11A15576   1.180   0.296   3.572 -2.1542  3.1314 -2.7899
  143OSM   H11B15577   1.287   0.162   3.546 -2.2169 -1.5074 -0.5885
  143OSM      P15578   0.991   0.246   3.376  0.2666  0.1850  0.3494
  143OSM    O1315579   1.033   0.364   3.303 -0.3630  0.1068  0.1606
  143OSM    O1415580   0.897   0.156   3.301 -0.1568 -0.1966 -0.5037
  143OSM    O1115581   0.922   0.282   3.511 -0.2129 -0.1615  0.3168
  143OSM    O1215582   1.112   0.161   3.429 -0.3296  0.4549  0.0894
  143OSM    C1S15583   0.845   0.192   3.580 -0.3045 -0.2985  0.2273
  143OSM    H1S15584   0.833   0.095   3.526 -1.1694  0.1943 -0.4826
  143OSM    H1T15585   0.740   0.226   3.584 -1.2666 -3.0495  0.7685
  143OSM     NF15586   0.835   0.065   3.788  0.2359 -0.3324 -0.1313
  143OSM    HNF15587   0.771   0.091   3.860 -1.6620  0.5742 -2.0389
  143OSM    C2S15588   0.910   0.166   3.720  1.0155  0.0467  0.5891
  143OSM    H2S15589   1.006   0.115   3.698 -0.1565 -1.5255 -1.1847
  143OSM    C3S15590   0.928   0.298   3.806 -0.2984 -0.1474  0.3788
  143OSM    H3S15591   0.828   0.328   3.843 -0.5123 -0.8642  0.4034
  143OSM     O315592   0.954   0.414   3.733  0.1643  0.4501  0.0126
  143OSM    HO315593   0.945   0.374   3.646  2.0380  0.1451 -0.0714
  143OSM    C4S15594   1.026   0.287   3.916  0.4479  0.1863 -0.1412
  143OSM    H4S15595   0.985   0.226   3.998 -2.4534  2.2910  0.1123
  143OSM    C5S15596   1.158   0.336   3.917 -0.3426 -0.9949  0.0279
  143OSM    H5S15597   1.197   0.397   3.833  0.9140 -2.3600 -0.4066
  143OSM    C6S15598   1.245   0.321   4.039  0.5771  0.0977  0.0521
  143OSM    H6S15599   1.302   0.415   4.060 -0.6955  0.7296  0.8276
  143OSM    H6T15600   1.319   0.242   4.015  1.2919  0.2275  1.6789
  143OSM    C7S15601   1.169   0.289   4.174 -0.4939 -0.7995  0.9831
  143OSM    H7S15602   1.113   0.193   4.162 -0.8940 -0.6160  1.3538
  143OSM    H7T15603   1.100   0.374   4.190  2.3097  2.3094 -1.7646
  143OSM    C8S15604   1.263   0.278   4.293 -0.3703  0.5702  0.1912
  143OSM    H8S15605   1.327   0.369   4.296 -0.9972  1.0013  2.2610
  143OSM    H8T15606   1.329   0.189   4.282 -1.3597 -0.1435 -0.0432
  143OSM    C9S15607   1.187   0.258   4.427 -0.0582 -0.0533  0.1134
  143OSM    H9S15608   1.126   0.166   4.427  0.0390 -0.1221  0.6206
  143OSM    H9T15609   1.118   0.344   4.441 -1.0846 -0.6033 -1.3651
  143OSM   C10S15610   1.275   0.254   4.554 -0.8694  0.2067 -0.3556
  143OSM   H10S15611   1.341   0.343   4.565 -1.2771  0.2124  3.7029
  143OSM   H10T15612   1.330   0.157   4.547 -0.6200  0.3432 -0.3165
  143OSM   C11S15613   1.195   0.244   4.683  0.1332 -0.3687  0.5184
  143OSM   H11S15614   1.125   0.159   4.668  0.5079 -0.6529  0.3786
  143OSM   H11T15615   1.142   0.342   4.688  0.3319 -0.2436  0.1980
  143OSM   C12S15616   1.292   0.235   4.800  0.2821 -1.1564 -0.0607
  143OSM   H12S15617   1.362   0.320   4.812 -1.1347  0.1461 -0.6804
  143OSM   H12T15618   1.346   0.142   4.770  3.2126  0.0613  1.1608
  143OSM   C13S15619   1.221   0.207   4.944  0.6576 -0.2073  0.3818
  143OSM   H13S15620   1.130   0.143   4.939  0.3544  0.2317  0.2454
  143OSM   H13T15621   1.172   0.305   4.964 -0.5944 -0.8619  0.6503
  143OSM   C14S15622   1.318   0.155   5.051  0.3329 -0.1563 -0.0508
  143OSM   H14S15623   1.409   0.219   5.054  0.5132 -0.4024 -0.2793
  143OSM   H14T15624   1.348   0.055   5.013  1.8955  0.5926 -0.8849
  143OSM   C15S15625   1.259   0.150   5.191 -0.1179 -0.6810  0.3026
  143OSM   H15S15626   1.158   0.104   5.188 -0.5636  0.2272  0.8815
  143OSM   H15T15627   1.242   0.255   5.223 -0.1541 -0.0581 -1.6452
  143OSM   C16S15628   1.352   0.086   5.295  0.3076 -0.3364 -0.0208
  143OSM   H16S15629   1.451   0.137   5.302 -0.4240  0.9891  1.2674
  143OSM   H16T15630   1.354  -0.023   5.276  1.0235 -0.1335 -1.2513
  143OSM   C17S15631   1.299   0.114   5.440  0.2685  0.5257 -0.1706
  143OSM   H17S15632   1.188   0.113   5.442  0.2359  2.1595  0.2704
  143OSM   H17T15633   1.317   0.220   5.468 -0.7843  1.1430 -1.6901
  143OSM   C18S15634   1.358   0.018   5.534 -0.4536 -0.7322  0.6703
  143OSM   H18S15635   1.315  -0.084   5.531  0.8717 -1.2951 -0.3042
  143OSM   H18T15636   1.354   0.053   5.639  2.8647  0.4298  0.5494
  143OSM   H18U15637   1.467   0.006   5.514 -0.3603  0.9908 -0.0654
  143OSM    C1F15638   0.824  -0.054   3.740  0.1712 -0.4657 -0.3922
  143OSM     OF15639   0.902  -0.091   3.654  0.5874  0.9062  0.2747
  143OSM    C2F15640   0.713  -0.143   3.794 -0.2821 -0.6955  1.4987
  143OSM    H2F15641   0.660  -0.179   3.704  1.7174  0.5667 -0.2700
  143OSM    H2G15642   0.638  -0.085   3.852 -1.1894 -0.4704  0.1266
  143OSM    C3F15643   0.768  -0.244   3.892  0.4142  0.0144 -0.2952
  143OSM    H3F15644   0.837  -0.195   3.964 -0.0494  0.8280 -0.4001
  143OSM    H3G15645   0.819  -0.325   3.835 -0.8304 -1.3903  0.5009
  143OSM    C4F15646   0.646  -0.312   3.963 -0.6465  0.3391 -0.4779
  143OSM    H4F15647   0.574  -0.364   3.896 -1.3883  1.4095 -0.5469
  143OSM    H4G15648   0.585  -0.238   4.021  0.1164 -0.5996  1.6282
  143OSM    C5F15649   0.694  -0.437   4.054 -0.2458  0.1088 -0.8733
  143OSM    H5F15650   0.770  -0.401   4.127 -0.2314  1.3370 -1.4781
  143OSM    H5G15651   0.756  -0.511   3.999  0.8073 -0.0016  0.4245
  143OSM    C6F15652   0.583  -0.517   4.125 -1.2059 -0.1569 -0.8869
  143OSM    H6F15653   0.523  -0.574   4.051 -1.0089  0.9389 -1.9394
  143OSM    H6G15654   0.514  -0.449   4.182  0.8135  1.0926  0.1888
  143OSM    C7F15655   0.638  -0.626   4.219 -0.1188 -0.3920 -0.1405
  143OSM    H7F15656   0.699  -0.700   4.162  1.6784  0.5256  0.5047
  143OSM    H7G15657   0.553  -0.683   4.263 -1.5894  2.0490  0.3491
  143OSM    C8F15658   0.731  -0.584   4.335 -0.2862 -0.8180 -0.5162
  143OSM    H8F15659   0.814  -0.530   4.286 -0.6854 -0.3320 -0.6735
  143OSM    H8G15660   0.780  -0.664   4.394 -1.5405 -0.2980  1.3067
  143OSM    C9F15661   0.651  -0.490   4.423  0.2870  0.3975  0.5067
  143OSM    H9F15662   0.611  -0.398   4.376  2.3448  0.5966 -0.9916
  143OSM   C10F15663   0.625  -0.509   4.548 -0.0866  0.0118 -0.2530
  143OSM   H10F15664   0.570  -0.430   4.601  0.1400  1.0449 -1.4937
  143OSM   C11F15665   0.660  -0.631   4.631 -0.3232 -0.9461 -0.7780
  143OSM   H11F15666   0.761  -0.673   4.607 -0.0384  0.0093 -1.2909
  143OSM   H11G15667   0.585  -0.713   4.623 -0.1142 -1.1822 -0.3508
  143OSM   C12F15668   0.662  -0.608   4.786 -0.1919 -0.8153  0.0982
  143OSM   H12F15669   0.708  -0.507   4.791 -3.2969  0.8374 -1.7019
  143OSM   H12G15670   0.725  -0.685   4.836  0.9855  0.6323  0.9203
  143OSM   C13F15671   0.526  -0.606   4.850  0.1617  0.2683 -0.0618
  143OSM   H13F15672   0.477  -0.706   4.854 -0.7743  0.7276  0.4256
  143OSM   H13G15673   0.466  -0.533   4.792  0.1154 -0.7822 -1.3906
  143OSM   C14F15674   0.526  -0.571   5.000 -0.2607 -0.4997  0.2103
  143OSM   H14F15675   0.582  -0.478   5.020 -0.2213 -0.5809  0.4874
  143OSM   H14G15676   0.574  -0.656   5.052 -0.5824  0.3886  2.0252
  143OSM   C15F15677   0.390  -0.541   5.064  0.0478 -0.6042 -0.0001
  143OSM   H15F15678   0.344  -0.642   5.079  0.9755 -0.7751  2.1740
  143OSM   H15G15679   0.342  -0.475   4.989  0.8219  0.8403  0.7389
  143OSM   C16F15680   0.404  -0.464   5.195  0.3348 -0.3277  0.6244
  143OSM   H16F15681   0.485  -0.388   5.182  0.6366 -0.7573 -0.1310
  143OSM   H16G15682   0.444  -0.534   5.271 -3.7704 -1.7493  1.6749
  143OSM   C17F15683   0.276  -0.412   5.248 -0.0171 -0.0984  0.1603
  143OSM   H17F15684   0.195  -0.488   5.253 -0.1209  0.0780  2.3098
  143OSM   H17G15685   0.224  -0.342   5.179 -1.5403 -1.3343  0.0122
  143OSM   C18F15686   0.278  -0.354   5.390 -0.5922 -0.7172  0.4190
  143OSM   H18F15687   0.330  -0.256   5.391  1.1467 -1.6034  1.7737
  143OSM   H18G15688   0.336  -0.416   5.461  1.4665  1.4589  0.7493
  143OSM   H18H15689   0.178  -0.329   5.432 -1.9001 -0.8021 -2.4038
  144OSM      N15690   5.442   4.739   3.338  0.0146 -0.0250  0.2167
  144OSM    C1515691   5.413   4.790   3.201  0.0824  0.6560  0.2962
  144OSM   H15A15692   5.426   4.897   3.206 -0.1208  0.6177  2.3663
  144OSM   H15B15693   5.309   4.775   3.175  0.5289  0.5786 -1.5649
  144OSM   H15C15694   5.467   4.739   3.123  0.7826  2.1075 -0.2033
  144OSM    C1415695   5.405   4.598   3.357  0.5430  0.0574  0.1189
  144OSM   H14A15696   5.456   4.535   3.285  1.4558 -1.1623  1.7635
  144OSM   H14B15697   5.300   4.583   3.337  0.5662 -0.6681  0.5066
  144OSM   H14C15698   5.418   4.561   3.458  0.8311  1.6323  0.6822
  144OSM    C1315699   5.591   4.748   3.359 -0.3422 -0.4120  0.4100
  144OSM   H13A15700   5.638   4.685   3.285  1.3974  0.9272  0.3140
  144OSM   H13B15701   5.620   4.698   3.451  1.6646  1.0093  0.6093
  144OSM   H13C15702   5.628   4.849   3.369 -0.0919 -0.3703 -0.8706
  144OSM    C1215703   5.371   4.826   3.436 -0.2612  0.6069 -0.4042
  144OSM   H12A15704   5.265   4.808   3.441 -0.4041  1.7210  2.5940
  144OSM   H12B15705   5.386   4.931   3.416 -1.7263  1.0908  0.8026
  144OSM    C1115706   5.397   4.807   3.580 -0.4496  0.3837 -0.0511
  144OSM   H11A15707   5.494   4.856   3.604 -0.5890  1.1725 -1.0167
  144OSM   H11B15708   5.422   4.703   3.611  3.1007  0.8348 -0.9408
  144OSM      P15709   5.177   4.809   3.730 -0.2561  0.2831  0.1803
  144OSM    O1315710   5.114   4.903   3.821  0.4781 -0.5561  0.1778
  144OSM    O1415711   5.094   4.742   3.628 -0.3869 -0.7842 -0.2583
  144OSM    O1115712   5.255   4.700   3.822 -0.4237 -0.1882  0.6749
  144OSM    O1215713   5.294   4.880   3.659 -0.1337  0.0468 -0.0755
  144OSM    C1S15714   5.367   4.734   3.902  0.1562 -0.4208  0.5252
  144OSM    H1S15715   5.400   4.839   3.888 -1.8772  0.0611 -1.0970
  144OSM    H1T15716   5.454   4.682   3.858 -0.8085 -2.4206  0.8744
  144OSM     NF15717   5.441   4.766   4.133 -0.4382  0.0820  0.0988
  144OSM    HNF15718   5.472   4.691   4.192  1.3645 -0.1037 -1.0168
  144OSM    C2S15719   5.326   4.734   4.051 -0.3933  0.2425  0.1079
  144OSM    H2S15720   5.256   4.819   4.064 -0.5360  0.0934  0.3230
  144OSM    C3S15721   5.264   4.599   4.096 -0.1519  0.4187  0.1731
  144OSM    H3S15722   5.347   4.526   4.106 -1.2699 -0.8778  0.3780
  144OSM     O315723   5.179   4.538   3.996 -0.0216  0.1740 -0.5898
  144OSM    HO315724   5.193   4.592   3.918 -0.3332  0.8552 -0.1892
  144OSM    C4S15725   5.194   4.608   4.230 -0.1788 -0.2766  0.0722
  144OSM    H4S15726   5.103   4.669   4.226  0.1795  0.3774  1.3972
  144OSM    C5S15727   5.217   4.540   4.347 -0.7469 -1.0005 -0.3643
  144OSM    H5S15728   5.307   4.480   4.367 -1.0234 -1.1619  0.4418
  144OSM    C6S15729   5.140   4.557   4.473  0.1690 -0.0028 -1.0834
  144OSM    H6S15730   5.078   4.648   4.486  0.1901 -0.1700  0.4179
  144OSM    H6T15731   5.217   4.572   4.552 -0.7909 -2.2000  0.3726
  144OSM    C7S15732   5.058   4.438   4.520 -0.0082  0.3656  0.3406
  144OSM    H7S15733   5.117   4.355   4.563 -0.1884 -0.2405 -0.5480
  144OSM    H7T15734   4.987   4.397   4.445 -0.9373  0.4631  1.1536
  144OSM    C8S15735   4.965   4.478   4.629  0.0357  0.3571 -0.0320
  144OSM    H8S15736   4.900   4.560   4.592  0.2187 -0.0848 -1.3738
  144OSM    H8T15737   5.019   4.508   4.721  0.8892 -3.2304  0.7992
  144OSM    C9S15738   4.888   4.357   4.668  0.2376  0.2503 -0.2677
  144OSM    H9S15739   4.932   4.257   4.650 -3.7002 -1.4841 -1.4368
  144OSM    H9T15740   4.802   4.348   4.598 -0.7675  1.0832  0.7914
  144OSM   C10S15741   4.838   4.363   4.811 -0.4618  0.4933 -0.0224
  144OSM   H10S15742   4.931   4.353   4.872  0.0791 -1.6759 -1.0849
  144OSM   H10T15743   4.767   4.281   4.835 -0.8007  0.6121 -0.6033
  144OSM   C11S15744   4.754   4.483   4.848  0.3826 -0.0146 -0.4630
  144OSM   H11S15745   4.665   4.500   4.785  0.4873  1.3312 -0.2867
  144OSM   H11T15746   4.800   4.580   4.817 -0.5236 -0.7087 -4.5675
  144OSM   C12S15747   4.703   4.477   4.987  0.4401 -0.1545 -0.2240
  144OSM   H12S15748   4.779   4.501   5.065 -0.5173  1.9055  0.1460
  144OSM   H12T15749   4.657   4.381   5.019 -0.6001  0.5635  0.4964
  144OSM   C13S15750   4.598   4.593   5.007  0.2197  0.6093  0.4559
  144OSM   H13S15751   4.559   4.590   5.111 -2.3053  1.0349 -0.3928
  144OSM   H13T15752   4.512   4.588   4.935  0.7533 -3.8169 -0.1248
  144OSM   C14S15753   4.658   4.733   5.002 -0.0317 -0.4842  0.7728
  144OSM   H14S15754   4.708   4.759   4.906  0.1743  0.4179  1.1088
  144OSM   H14T15755   4.737   4.725   5.079 -0.2169 -3.2880  0.7884
  144OSM   C15S15756   4.559   4.846   5.039  0.0655 -0.4788 -0.5804
  144OSM   H15S15757   4.524   4.819   5.141 -0.1944  0.0648 -0.5211
  144OSM   H15T15758   4.469   4.863   4.976 -1.4578  1.2255  1.8491
  144OSM   C16S15759   4.633   4.977   5.055 -0.3577  0.5308  0.0160
  144OSM   H16S15760   4.675   5.029   4.966 -1.3062  0.5850 -0.4147
  144OSM   H16T15761   4.712   4.955   5.130 -1.2047 -0.6999  0.5861
  144OSM   C17S15762   4.541   5.072   5.132 -0.1743 -0.0447  0.1995
  144OSM   H17S15763   4.593   5.170   5.118  0.6509 -0.7593 -2.3721
  144OSM   H17T15764   4.541   5.050   5.241  2.0628 -2.2933 -0.1549
  144OSM   C18S15765   4.402   5.076   5.078 -0.9733 -0.3285  0.2132
  144OSM   H18S15766   4.341   4.985   5.093  0.6509 -1.2186  1.8928
  144OSM   H18T15767   4.413   5.104   4.971  1.0405 -1.5439  0.0569
  144OSM   H18U15768   4.348   5.167   5.113  0.1003  1.1328 -1.7061
  144OSM    C1F15769   5.517   4.877   4.136  0.0135 -0.7725  0.5380
  144OSM     OF15770   5.481   4.980   4.073  0.0028  0.6220  0.0272
  144OSM    C2F15771   5.646   4.872   4.219 -0.0674 -0.1901  0.3586
  144OSM    H2F15772   5.725   4.932   4.169 -0.6096 -0.6517 -1.1164
  144OSM    H2G15773   5.683   4.767   4.217  1.1074  0.1941 -1.6289
  144OSM    C3F15774   5.627   4.909   4.357  0.4704  0.1185 -0.7155
  144OSM    H3F15775   5.605   5.017   4.366  1.7196  0.3744 -0.5110
  144OSM    H3G15776   5.728   4.904   4.403 -0.5315 -0.1742  1.5801
  144OSM    C4F15777   5.519   4.834   4.439  0.3978 -0.3243 -0.8267
  144OSM    H4F15778   5.536   4.725   4.425  0.2439 -0.6670  1.3946
  144OSM    H4G15779   5.421   4.873   4.404  1.1736  2.2295 -0.3411
  144OSM    C5F15780   5.521   4.878   4.583 -0.1251  0.1878  0.5408
  144OSM    H5F15781   5.500   4.987   4.584  0.1718  0.3987 -3.0804
  144OSM    H5G15782   5.628   4.870   4.612  0.3423 -1.3835 -1.4537
  144OSM    C6F15783   5.416   4.795   4.659 -0.9178 -0.2064 -0.8444
  144OSM    H6F15784   5.428   4.685   4.657 -0.6198 -0.2060  0.1731
  144OSM    H6G15785   5.321   4.823   4.608  0.3365  2.1518 -2.0907
  144OSM    C7F15786   5.392   4.840   4.803  0.0214  0.5093 -0.0955
  144OSM    H7F15787   5.338   4.937   4.802 -3.9483 -1.4400  1.5062
  144OSM    H7G15788   5.485   4.852   4.862  0.3019  0.4333 -0.5131
  144OSM    C8F15789   5.298   4.743   4.881 -0.1715  0.2036 -0.7291
  144OSM    H8F15790   5.321   4.755   4.989 -0.9914 -1.1715 -0.3715
  144OSM    H8G15791   5.328   4.640   4.853 -1.8533 -1.0969  1.8863
  144OSM    C9F15792   5.156   4.761   4.839  0.2786 -0.6549  0.4585
  144OSM    H9F15793   5.152   4.754   4.729  1.9129 -4.2777  0.5159
  144OSM   C10F15794   5.046   4.746   4.913 -0.3755  0.0920  0.3660
  144OSM   H10F15795   4.950   4.775   4.868 -0.4085  3.2445  2.1635
  144OSM   C11F15796   5.041   4.731   5.064 -0.2125  0.1162 -0.1981
  144OSM   H11F15797   4.941   4.765   5.097 -0.3301  0.6646 -1.0887
  144OSM   H11G15798   5.113   4.807   5.103 -1.0743  1.1610 -0.6021
  144OSM   C12F15799   5.083   4.594   5.105 -0.3142 -0.2205  0.2629
  144OSM   H12F15800   5.145   4.545   5.027 -2.6640 -2.3286 -0.4137
  144OSM   H12G15801   4.992   4.532   5.116  0.3637 -1.1455  0.7275
  144OSM   C13F15802   5.145   4.586   5.247  0.1767  0.0982  0.4278
  144OSM   H13F15803   5.171   4.480   5.269  1.4616  0.5799  1.3045
  144OSM   H13G15804   5.075   4.621   5.326 -2.1588  0.3344 -1.6370
  144OSM   C14F15805   5.279   4.652   5.256  0.6072 -0.7224  0.5496
  144OSM   H14F15806   5.265   4.762   5.262 -0.9796 -0.7727 -1.3675
  144OSM   H14G15807   5.349   4.632   5.173 -0.3192  0.4958 -0.5625
  144OSM   C15F15808   5.346   4.622   5.392  0.2122  0.1844  0.1175
  144OSM   H15F15809   5.362   4.512   5.404 -1.0912 -0.1322 -0.8144
  144OSM   H15G15810   5.280   4.658   5.474 -0.3003 -0.1296 -0.1481
  144OSM   C16F15811   5.483   4.687   5.395 -0.3013  0.5543  0.1174
  144OSM   H16F15812   5.490   4.798   5.386 -1.5595  1.0408  3.4676
  144OSM   H16G15813   5.545   4.640   5.317  0.0129  1.2042 -0.0289
  144OSM   C17F15814   5.562   4.650   5.527  0.4390 -1.0419 -0.4207
  144OSM   H17F15815   5.659   4.705   5.529 -0.7940  1.2478  1.2096
  144OSM   H17G15816   5.569   4.540   5.527  0.7215 -1.0463  1.2029
  144OSM   C18F15817   5.489   4.698   5.656 -0.5166  0.5802 -0.5340
  144OSM   H18F15818   5.456   4.803   5.649  1.3866  1.2502 -0.2046
  144OSM   H18G15819   5.554   4.679   5.745 -2.3641  0.0941  0.7764
  144OSM   H18H15820   5.401   4.633   5.674  0.9468 -1.1215  0.8643
  145SAPE     N15821   5.147   6.247   7.974  0.2997 -0.1515 -0.6996
  145SAPE   HN115822   5.131   6.147   7.997  2.7695 -0.6527 -0.8491
  145SAPE   HN215823   5.216   6.266   7.898  1.1379  2.7321  0.6306
  145SAPE   HN315824   5.190   6.287   8.060 -1.5212  0.2768  0.0614
  145SAPE   C1215825   5.008   6.314   7.962 -0.5426  0.1224 -0.0839
  145SAPE  H12A15826   5.023   6.420   7.932 -3.7244  0.6525 -0.2158
  145SAPE  H12B15827   4.969   6.306   8.065  0.6381  1.0665  0.4603
  145SAPE   C1115828   4.908   6.245   7.868 -0.1082 -0.2601 -0.2400
  145SAPE  H11A15829   4.938   6.265   7.763 -0.7996 -0.7841 -0.5504
  145SAPE  H11B15830   4.813   6.295   7.898  0.6260  1.0116  0.0306
  145SAPE     P15831   4.785   6.017   7.896 -0.3507  0.4221 -0.0672
  145SAPE   O1315832   4.768   6.006   8.044 -0.4325 -0.7509  0.1010
  145SAPE   O1415833   4.667   6.081   7.829 -0.1809 -0.6772  0.0479
  145SAPE   O1215834   4.911   6.107   7.887 -0.3161 -0.0842 -0.0164
  145SAPE   O1115835   4.824   5.881   7.827  0.6052 -0.0210 -0.2137
  145SAPE    C115836   4.937   5.865   7.740 -0.0153 -0.3305  0.2936
  145SAPE    HA15837   5.028   5.917   7.777 -0.8813  0.5462  1.2267
  145SAPE    HB15838   4.957   5.756   7.739  0.0073 -0.3330  0.6737
  145SAPE    C215839   4.903   5.894   7.591  0.1021 -0.0166  0.2483
  145SAPE    HS15840   4.793   5.880   7.580 -0.1165  2.0271 -0.6498
  145SAPE   O2115841   4.979   5.813   7.500  0.2102  0.0112  0.1524
  145SAPE   C2115842   4.941   5.683   7.488 -0.6793 -1.0441 -0.5136
  145SAPE   O2215843   4.838   5.638   7.533 -0.5532  0.4350 -0.2852
  145SAPE   C2215844   5.051   5.615   7.414  0.4324 -0.1251  0.2429
  145SAPE   H2R15845   5.143   5.641   7.470  0.2710 -0.5091  0.6906
  145SAPE   H2S15846   5.022   5.508   7.425  0.8258 -0.0769  1.9396
  145SAPE    C315847   4.910   6.051   7.556  0.0598 -0.2778 -0.6901
  145SAPE    HX15848   5.001   6.084   7.610 -1.2003  1.3348  0.5430
  145SAPE    HY15849   4.831   6.099   7.618 -0.7205 -0.8187 -1.2324
  145SAPE   O3115850   4.918   6.085   7.416  0.0625 -0.0902 -0.1527
  145SAPE   C3115851   4.801   6.082   7.359  0.7622 -0.4545  0.0338
  145SAPE   O3215852   4.697   6.033   7.399  0.3866 -0.1588 -0.0233
  145SAPE   C3215853   4.812   6.150   7.224 -0.1647 -0.4863  0.0772
  145SAPE   H2X15854   4.871   6.244   7.227  1.2540 -1.2035 -2.2658
  145SAPE   H2Y15855   4.712   6.195   7.204 -0.0427 -0.0431  0.4494
  145SAPE   C2315856   5.058   5.668   7.266 -0.1590  0.0186 -0.2396
  145SAPE   H3R15857   5.150   5.624   7.221 -0.6112 -0.5201 -0.6499
  145SAPE   H3S15858   5.062   5.779   7.276 -0.7045 -0.0350  0.5793
  145SAPE   C2415859   4.940   5.632   7.172  0.6112  0.1188  0.0074
  145SAPE   H4R15860   4.854   5.696   7.200 -0.8265 -0.7956 -2.0432
  145SAPE   H4S15861   4.912   5.525   7.166  0.1148  0.2544 -0.1369
  145SAPE   C2515862   4.963   5.664   7.020 -0.5690 -0.0670  0.0156
  145SAPE   H5R15863   4.962   5.773   7.005 -1.5946  0.0083  0.5627
  145SAPE   C2615864   5.011   5.589   6.918  1.3042 -0.6728 -0.1135
  145SAPE   H6R15865   5.006   5.634   6.818 -3.0523  0.7460  0.5120
  145SAPE   C2715866   5.012   5.440   6.925  0.4490  0.8797  0.7551
  145SAPE   H7R15867   4.929   5.395   6.866  0.3096  0.4258  1.2859
  145SAPE   H7S15868   4.997   5.412   7.031 -2.4540  3.9404  1.3198
  145SAPE   C2815869   5.152   5.400   6.871  0.4389 -0.7963 -0.3813
  145SAPE   H8R15870   5.231   5.470   6.904  0.2097 -0.5250 -0.4029
  145SAPE   C2915871   5.189   5.295   6.796 -0.3758 -0.5576 -0.9898
  145SAPE   H9R15872   5.297   5.283   6.779 -0.2686  1.9415 -2.5543
  145SAPE  C21015873   5.102   5.198   6.730  0.2194 -0.5387 -0.7679
  145SAPE  H10R15874   5.002   5.241   6.752  1.5891  3.0581 -0.8707
  145SAPE  H10S15875   5.113   5.103   6.786  1.4350  0.8381  1.4412
  145SAPE  C21115876   5.120   5.183   6.580 -0.1668 -0.0915 -0.0486
  145SAPE  H11R15877   5.198   5.111   6.553  0.2160  0.1583  0.3939
  145SAPE  C21215878   5.079   5.267   6.483 -0.0679 -0.6133  0.7052
  145SAPE  H12R15879   5.101   5.240   6.379 -1.8060 -2.5700  0.7838
  145SAPE  C21315880   4.999   5.391   6.503  0.1592  0.2413 -0.0457
  145SAPE  H13R15881   4.979   5.414   6.610 -0.4368  1.0525 -0.3143
  145SAPE  H13S15882   4.897   5.390   6.458 -0.1370  0.3132  0.6051
  145SAPE  C21415883   5.079   5.515   6.456  0.2319  0.4208  0.4665
  145SAPE  H14R15884   5.115   5.586   6.532  0.3191  1.1724 -0.2569
  145SAPE  C21515885   5.089   5.558   6.329 -0.4595 -0.6752 -0.0781
  145SAPE  H15R15886   5.133   5.656   6.309 -0.5894 -1.0646 -2.6294
  145SAPE  C21615887   5.043   5.491   6.206 -0.5943 -0.1278 -0.1106
  145SAPE  H16R15888   4.943   5.529   6.178 -0.6227  1.3108  1.7500
  145SAPE  H16S15889   5.032   5.381   6.223  0.4087 -0.2196  0.0256
  145SAPE  C21715890   5.132   5.508   6.078  0.1645 -0.0576 -0.4526
  145SAPE  H17R15891   5.126   5.616   6.050  1.3707  0.0169 -0.4883
  145SAPE  H17S15892   5.084   5.458   5.991  1.6119 -0.5186 -1.0180
  145SAPE  C21815893   5.280   5.468   6.103  0.7847  0.0650  0.4339
  145SAPE  H18R15894   5.279   5.374   6.161 -0.7768  0.1050  0.5108
  145SAPE  H18S15895   5.319   5.551   6.165 -2.5007  2.4953 -0.4719
  145SAPE  C21915896   5.357   5.455   5.967  0.2195 -0.4158 -0.5045
  145SAPE  H19R15897   5.316   5.369   5.910 -0.9047 -0.2778  0.0888
  145SAPE  H19S15898   5.461   5.419   5.987 -0.2878 -2.1408 -0.7934
  145SAPE  C22015899   5.370   5.575   5.881  0.3864  0.0177  0.3374
  145SAPE  H20R15900   5.270   5.582   5.833  0.6977 -0.7068 -0.4458
  145SAPE  H20S15901   5.452   5.576   5.806 -0.1867  0.2817 -0.2914
  145SAPE  H20T15902   5.387   5.659   5.952 -2.1378 -0.1472  1.2386
  145SAPE   C3315903   4.862   6.068   7.109 -0.6186 -0.6846 -0.6878
  145SAPE   H3X15904   4.837   5.962   7.128  0.5553 -0.5335  2.3328
  145SAPE   H3Y15905   4.972   6.055   7.101 -0.5294 -1.5333  1.2856
  145SAPE   C3415906   4.800   6.128   6.987 -0.2400  0.0348 -0.1413
  145SAPE   H4X15907   4.829   6.234   6.974 -0.1211 -0.0302 -0.4075
  145SAPE   H4Y15908   4.689   6.127   6.992 -0.2085 -1.6929  1.4950
  145SAPE   C3515909   4.834   6.043   6.858  0.3249  0.0141 -0.7310
  145SAPE   H5X15910   4.741   5.988   6.830  0.1321 -0.1598  0.2231
  145SAPE   H5Y15911   4.920   5.977   6.882  2.6885  2.1567 -2.7926
  145SAPE   C3615912   4.882   6.118   6.735  0.7029 -0.9713  0.6429
  145SAPE   H6X15913   4.982   6.157   6.761  0.2419 -0.2946  1.4301
  145SAPE   H6Y15914   4.802   6.190   6.707  0.5505 -1.5632 -0.5356
  145SAPE   C3715915   4.903   6.015   6.622  0.2343 -0.1435 -0.6477
  145SAPE   H7X15916   4.810   5.958   6.602 -0.0826 -1.1691  3.0961
  145SAPE   H7Y15917   4.973   5.941   6.668  1.3940  2.0974  1.3775
  145SAPE   C3815918   4.958   6.070   6.491 -0.6634  0.2250  0.0715
  145SAPE   H8X15919   5.048   6.122   6.531 -0.9620 -2.1416  4.5204
  145SAPE   H8Y15920   4.895   6.151   6.449 -1.1157 -0.4043 -0.4902
  145SAPE   C3915921   4.992   5.966   6.381  0.3252 -0.2770 -0.0352
  145SAPE   H9X15922   4.899   5.907   6.367  0.3343 -1.0469  2.7081
  145SAPE   H9Y15923   5.069   5.902   6.430 -0.5361 -0.2983  1.3369
  145SAPE  C31015924   5.052   6.026   6.255 -0.1287  0.0247  0.6297
  145SAPE  H10X15925   5.161   6.041   6.272  0.6436 -0.5050 -3.0308
  145SAPE  H10Y15926   5.027   6.127   6.214  0.9459 -0.0492 -0.2733
  145SAPE  C31115927   5.040   5.924   6.132  0.0888  0.1161 -0.2457
  145SAPE  H11X15928   4.947   5.865   6.149  0.8949 -1.3295 -0.7544
  145SAPE  H11Y15929   5.125   5.853   6.137 -0.2046 -0.3358 -1.3525
  145SAPE  C31215930   5.015   5.996   5.997 -0.1497  0.1851 -0.0342
  145SAPE  H12X15931   4.924   6.060   6.003 -0.3413 -0.1141  0.3233
  145SAPE  H12Y15932   5.001   5.924   5.913  1.3777 -0.8638  0.5584
  145SAPE  C31315933   5.133   6.080   5.950 -0.5163 -0.6706 -0.0274
  145SAPE  H13X15934   5.227   6.027   5.978 -0.7793 -0.0796  2.1759
  145SAPE  H13Y15935   5.125   6.182   5.994  1.2003 -0.3567 -0.3657
  145SAPE  C31415936   5.140   6.119   5.795  0.0390 -0.4791 -0.0306
  145SAPE  H14X15937   5.055   6.185   5.767  2.0244  2.4284  0.3851
  145SAPE  H14Y15938   5.135   6.017   5.751  0.7796 -0.8429  0.6889
  145SAPE  C31515939   5.274   6.182   5.752  0.0090 -0.6145  0.6011
  145SAPE  H15X15940   5.302   6.176   5.644 -1.6083 -0.5736  0.1462
  145SAPE  H15Y15941   5.353   6.120   5.797  0.5062 -0.9638 -0.6920
  145SAPE  C31615942   5.290   6.328   5.803 -0.2206 -0.5333  0.5128
  145SAPE  H16X15943   5.262   6.339   5.910 -0.9642 -0.5063  0.3229
  145SAPE  H16Y15944   5.228   6.393   5.737  2.1290  1.1990 -0.1452
  145SAPE  C31715945   5.438   6.360   5.782  0.9343 -0.4041  0.4511
  145SAPE  H17X15946   5.470   6.317   5.684 -0.0930 -1.4583  0.5380
  145SAPE  H17Y15947   5.495   6.315   5.866  1.2576  0.9210  0.9581
  145SAPE  C31815948   5.469   6.509   5.796 -0.5637  0.1155  0.1601
  145SAPE  H18X15949   5.396   6.559   5.729 -1.1596  1.6614  1.8953
  145SAPE  H18Y15950   5.571   6.539   5.762 -1.0163  3.0827  1.1171
  145SAPE  H18Z15951   5.458   6.553   5.897  3.3919  0.0148  0.7974
  146SAPE     N15952   4.645   0.463   8.332  0.0945 -0.1781 -0.5020
  146SAPE   HN115953   4.744   0.462   8.300  0.0009  2.0135 -1.0421
  146SAPE   HN215954   4.616   0.557   8.299 -0.3830  0.2766  1.1185
  146SAPE   HN315955   4.648   0.477   8.435 -1.4114 -0.0910 -0.4578
  146SAPE   C1215956   4.571   0.340   8.300  0.0966  0.4843 -0.0445
  146SAPE  H12A15957   4.547   0.331   8.192  0.1221  0.7029 -0.0684
  146SAPE  H12B15958   4.469   0.346   8.344  0.2754  0.2715  0.4014
  146SAPE   C1115959   4.649   0.212   8.354 -0.7298  0.0925  0.2796
  146SAPE  H11A15960   4.597   0.121   8.317 -1.6061  1.3579 -1.7563
  146SAPE  H11B15961   4.643   0.210   8.465 -0.9274  0.7520  0.2869
  146SAPE     P15962   4.862   0.131   8.208  0.0208 -0.4917  0.2827
  146SAPE   O1315963   5.001   0.168   8.208 -0.1617  0.1090  0.1367
  146SAPE   O1415964   4.832  -0.010   8.232  0.6262  0.0961 -0.2959
  146SAPE   O1215965   4.788   0.227   8.314  0.4363 -0.0137 -0.1553
  146SAPE   O1115966   4.800   0.176   8.078 -0.2384 -0.2370 -0.0594
  146SAPE    C115967   4.823   0.306   8.021 -0.1056  0.1567  0.7881
  146SAPE    HA15968   4.786   0.389   8.085  1.5381  1.0400  0.6490
  146SAPE    HB15969   4.928   0.324   7.989  0.2178 -1.1210  1.0559
  146SAPE    C215970   4.740   0.315   7.887 -0.7835 -1.0719 -1.4813
  146SAPE    HS15971   4.795   0.385   7.821 -1.1659  0.4958 -0.2044
  146SAPE   O2115972   4.602   0.365   7.899 -0.3751 -0.1394 -0.0528
  146SAPE   C2115973   4.595   0.497   7.917 -0.4948 -0.4853 -0.7858
  146SAPE   O2215974   4.681   0.573   7.950 -0.5203  0.4920  0.1099
  146SAPE   C2215975   4.456   0.541   7.897 -0.4896 -0.3064 -0.0296
  146SAPE   H2R15976   4.422   0.500   7.800 -0.6261 -0.7145  0.1898
  146SAPE   H2S15977   4.404   0.498   7.985 -1.8773 -0.9544 -1.1272
  146SAPE    C315978   4.740   0.176   7.828  0.6026 -0.1943  0.0637
  146SAPE    HX15979   4.672   0.105   7.881  0.3231  0.4110  0.5164
  146SAPE    HY15980   4.841   0.131   7.840  0.4901 -1.3793 -2.5137
  146SAPE   O3115981   4.712   0.180   7.691  0.0914 -0.2232 -0.5072
  146SAPE   C3115982   4.735   0.069   7.620  0.9067  0.6255 -0.1997
  146SAPE   O3215983   4.758  -0.040   7.665 -0.6198 -0.0608 -0.0301
  146SAPE   C3215984   4.701   0.115   7.478  0.3020 -0.1401  0.4515
  146SAPE   H2X15985   4.763   0.207   7.467  0.2140 -0.0455  0.7432
  146SAPE   H2Y15986   4.598   0.154   7.469  0.0663 -0.4132  1.8015
  146SAPE   C2315987   4.439   0.698   7.912 -0.5310 -0.4592 -0.4258
  146SAPE   H3R15988   4.470   0.736   8.012 -2.8437 -1.9322  0.9443
  146SAPE   H3S15989   4.331   0.721   7.914 -0.1512  1.8632  3.0017
  146SAPE   C2415990   4.503   0.785   7.800  0.3492 -0.1177  0.3563
  146SAPE   H4R15991   4.483   0.734   7.703 -1.7811  0.9088  0.2110
  146SAPE   H4S15992   4.614   0.787   7.814 -0.0286  1.2781  4.3609
  146SAPE   C2515993   4.459   0.932   7.797  0.4820 -0.2393  0.1036
  146SAPE   H5R15994   4.487   0.994   7.884  0.2159 -3.2048  2.4594
  146SAPE   C2615995   4.392   0.980   7.696  0.5610 -0.9074  0.1236
  146SAPE   H6R15996   4.367   1.087   7.700 -0.2985 -1.0051 -1.4585
  146SAPE   C2715997   4.343   0.909   7.574  0.5222 -0.0289 -1.2078
  146SAPE   H7R15998   4.236   0.931   7.555 -0.1704 -0.2829  1.8548
  146SAPE   H7S15999   4.346   0.798   7.575  0.2517 -0.1839  3.1940
  146SAPE   C2816000   4.436   0.958   7.463  0.8110 -0.2508 -0.6000
  146SAPE   H8R16001   4.543   0.944   7.479  0.7998 -1.1714 -1.2327
  146SAPE   C2916002   4.402   1.004   7.341 -0.5189 -0.0243  0.9461
  146SAPE   H9R16003   4.485   1.027   7.273  0.3402 -0.7289  1.7289
  146SAPE  C21016004   4.262   1.030   7.289 -0.4477 -0.0709 -0.7219
  146SAPE  H10R16005   4.191   1.052   7.371 -0.3273 -2.1711  0.0055
  146SAPE  H10S16006   4.229   0.939   7.236 -0.1993 -0.0271 -0.9565
  146SAPE  C21116007   4.267   1.152   7.192  0.3472  0.5393 -0.3996
  146SAPE  H11R16008   4.257   1.249   7.243 -3.3929 -0.4631  1.1371
  146SAPE  C21216009   4.295   1.155   7.062  0.1741 -0.3881 -0.4721
  146SAPE  H12R16010   4.298   1.254   7.013 -1.4562 -1.0995 -2.1608
  146SAPE  C21316011   4.328   1.035   6.977  0.0594  0.2440  0.1113
  146SAPE  H13R16012   4.309   0.944   7.039 -0.7531 -0.4425 -1.0976
  146SAPE  H13S16013   4.436   1.040   6.955 -0.0146 -0.9357 -0.6090
  146SAPE  C21416014   4.247   1.040   6.853  0.2447  0.3319  0.1516
  146SAPE  H14R16015   4.219   1.136   6.809 -1.4785 -0.5779 -0.8778
  146SAPE  C21516016   4.195   0.938   6.793 -0.0680 -0.2920  0.3770
  146SAPE  H15R16017   4.139   0.953   6.699  1.0584 -0.0180 -0.2763
  146SAPE  C21616018   4.204   0.795   6.841 -0.1249  0.5138  0.0168
  146SAPE  H16R16019   4.100   0.758   6.856 -0.0821  0.6691  0.7264
  146SAPE  H16S16020   4.245   0.781   6.943  0.5335  1.6430 -0.0736
  146SAPE  C21716021   4.289   0.711   6.744  0.1848 -0.0847  0.1567
  146SAPE  H17R16022   4.388   0.759   6.730  1.1897 -2.1469 -0.2579
  146SAPE  H17S16023   4.247   0.693   6.642 -3.8117 -0.0460  1.6362
  146SAPE  C21816024   4.330   0.578   6.808  0.8009  0.1463  0.9571
  146SAPE  H18R16025   4.235   0.536   6.849 -0.9028  1.6271 -1.2427
  146SAPE  H18S16026   4.407   0.602   6.884  3.6209 -0.0426 -1.6850
  146SAPE  C21916027   4.410   0.484   6.721 -0.7264  1.0498 -0.4123
  146SAPE  H19R16028   4.384   0.483   6.613 -1.2360  0.1960 -0.2908
  146SAPE  H19S16029   4.377   0.385   6.759  0.2250  1.5034  1.7474
  146SAPE  C22016030   4.556   0.485   6.729 -0.4633  0.0240  0.5145
  146SAPE  H20R16031   4.604   0.405   6.668 -0.0740  1.1182 -0.6456
  146SAPE  H20S16032   4.599   0.467   6.831  0.3146  0.4138  0.2609
  146SAPE  H20T16033   4.599   0.582   6.695  1.5835  0.1368  3.0723
  146SAPE   C3316034   4.741   0.016   7.373  0.4172 -0.1197  0.1193
  146SAPE   H3X16035   4.685  -0.079   7.385 -0.4808  0.4204  0.3554
  146SAPE   H3Y16036   4.846  -0.017   7.385  0.3908  0.6347  3.4787
  146SAPE   C3416037   4.717   0.069   7.230  0.0478 -0.2887  0.1373
  146SAPE   H4X16038   4.784   0.017   7.159 -1.4841 -0.2597 -1.4109
  146SAPE   H4Y16039   4.733   0.179   7.222  2.3679 -0.5307  0.8515
  146SAPE   C3516040   4.579   0.031   7.191  0.0841 -0.1340 -0.2955
  146SAPE   H5X16041   4.510   0.050   7.276  2.2811  0.2207  1.4997
  146SAPE   H5Y16042   4.572  -0.080   7.182 -0.5201  0.0607 -3.4356
  146SAPE   C3616043   4.531   0.094   7.065  0.5925 -0.2922  0.4822
  146SAPE   H6X16044   4.525   0.202   7.086  0.2231 -0.4496  1.2253
  146SAPE   H6Y16045   4.427   0.056   7.055  0.8981 -1.4691  1.5088
  146SAPE   C3716046   4.609   0.049   6.946  0.5550  0.4280  0.1578
  146SAPE   H7X16047   4.653  -0.053   6.958  1.2885  0.7576  0.3102
  146SAPE   H7Y16048   4.699   0.111   6.925  1.7079 -1.7727 -1.9292
  146SAPE   C3816049   4.532   0.055   6.813 -0.5767  0.0077  0.2526
  146SAPE   H8X16050   4.501   0.159   6.787 -0.2049 -0.5999 -3.0952
  146SAPE   H8Y16051   4.442  -0.009   6.821  1.4770 -3.3548 -1.3490
  146SAPE   C3916052   4.606   0.002   6.686 -0.2726  0.2776 -0.0510
  146SAPE   H9X16053   4.546   0.015   6.594  1.7110  1.1215 -1.2937
  146SAPE   H9Y16054   4.644  -0.102   6.699 -0.3242  0.2539 -0.0862
  146SAPE  C31016055   4.731   0.083   6.647  0.2243  0.3219  0.0207
  146SAPE  H10X16056   4.808   0.062   6.724 -0.9694 -1.6756  0.7276
  146SAPE  H10Y16057   4.705   0.191   6.652  0.3514  0.4437 -1.4849
  146SAPE  C31116058   4.794   0.050   6.511  0.5738  0.1135  0.4696
  146SAPE  H11X16059   4.820  -0.058   6.509 -0.9686 -0.2879 -0.8255
  146SAPE  H11Y16060   4.890   0.104   6.504  1.1055 -0.9433 -0.8173
  146SAPE  C31216061   4.715   0.089   6.378 -0.4755 -0.6622  0.8028
  146SAPE  H12X16062   4.632   0.016   6.378  1.1459 -2.6028  1.5820
  146SAPE  H12Y16063   4.790   0.081   6.296 -0.3775  1.1157  0.6703
  146SAPE  C31316064   4.657   0.231   6.383 -0.6765  0.6502  0.8064
  146SAPE  H13X16065   4.748   0.293   6.399  0.3276 -1.0005  1.6366
  146SAPE  H13Y16066   4.587   0.237   6.468 -1.4298 -2.0202  0.4510
  146SAPE  C31416067   4.570   0.280   6.269 -0.6541  0.0394  0.0281
  146SAPE  H14X16068   4.489   0.207   6.245  0.1999 -1.5701  1.8592
  146SAPE  H14Y16069   4.626   0.309   6.177  1.5899  0.9861  1.6207
  146SAPE  C31516070   4.508   0.415   6.315  0.2974 -0.1185  0.1485
  146SAPE  H15X16071   4.594   0.479   6.344  1.0956 -0.7646 -0.7032
  146SAPE  H15Y16072   4.432   0.394   6.393  1.4578  0.1216  1.3636
  146SAPE  C31616073   4.447   0.498   6.201 -0.3570  0.4036 -0.2005
  146SAPE  H16X16074   4.373   0.445   6.138  0.0562  0.6450 -0.9065
  146SAPE  H16Y16075   4.530   0.522   6.130  0.7448 -2.1078  0.1334
  146SAPE  C31716076   4.383   0.634   6.244  0.6506  0.6679  0.2776
  146SAPE  H17X16077   4.279   0.613   6.276 -0.4521  1.1167 -2.6891
  146SAPE  H17Y16078   4.371   0.688   6.148  0.9878  1.9960  0.9679
  146SAPE  C31816079   4.457   0.717   6.347 -1.0644 -0.2743  0.1074
  146SAPE  H18X16080   4.463   0.662   6.444  1.0099  0.3900  0.4205
  146SAPE  H18Y16081   4.413   0.813   6.381 -0.7005 -0.0676 -0.0032
  146SAPE  H18Z16082   4.557   0.729   6.300 -1.3898 -2.5192 -1.3078
  147SAPE     N16083   3.647   3.281   7.626  0.7365  0.5931 -0.7755
  147SAPE   HN116084   3.577   3.352   7.595  1.3886  2.4388  1.7026
  147SAPE   HN216085   3.685   3.316   7.716 -1.8558 -1.4681  1.3036
  147SAPE   HN316086   3.726   3.270   7.559  0.5430  0.2133 -0.9493
  147SAPE   C1216087   3.559   3.158   7.657  0.0429  0.1198  0.7130
  147SAPE  H12A16088   3.493   3.189   7.741 -0.1658 -1.2713  1.0847
  147SAPE  H12B16089   3.629   3.079   7.690  0.4285 -0.2529 -0.9248
  147SAPE   C1116090   3.460   3.119   7.544  0.2071 -0.9217 -0.1325
  147SAPE  H11A16091   3.519   3.090   7.455  2.1730 -1.1682  1.1976
  147SAPE  H11B16092   3.410   3.212   7.511  0.8182 -0.6436 -0.2780
  147SAPE     P16093   3.390   2.866   7.610  0.0462 -0.4514 -0.0177
  147SAPE   O1316094   3.538   2.844   7.644  0.3526  0.0250 -0.1173
  147SAPE   O1416095   3.294   2.821   7.712  0.1787 -0.2613  0.5795
  147SAPE   O1216096   3.364   3.020   7.581 -0.7093 -0.4432 -0.1595
  147SAPE   O1116097   3.360   2.797   7.479  0.2338  0.6857 -0.8335
  147SAPE    C116098   3.249   2.842   7.394 -0.2320 -0.6609  0.7927
  147SAPE    HA16099   3.190   2.757   7.354 -2.9642  1.5678 -0.2682
  147SAPE    HB16100   3.182   2.904   7.457  0.0279 -0.0018  0.4197
  147SAPE    C216101   3.316   2.914   7.269 -0.2678  0.0623 -0.0873
  147SAPE    HS16102   3.421   2.943   7.292  0.6664 -2.5451 -0.6986
  147SAPE   O2116103   3.234   3.029   7.246 -0.9037  0.3665 -0.7884
  147SAPE   C2116104   3.295   3.142   7.226 -0.4324 -0.1097  1.0612
  147SAPE   O2216105   3.416   3.163   7.214 -0.8549  0.3173 -0.0243
  147SAPE   C2216106   3.187   3.248   7.205 -0.6935 -0.2711  0.3526
  147SAPE   H2R16107   3.161   3.233   7.098  0.6710 -1.6273  0.1663
  147SAPE   H2S16108   3.101   3.225   7.271 -1.3519  1.6740  0.2093
  147SAPE    C316109   3.337   2.834   7.134 -0.4213  0.0206 -0.7580
  147SAPE    HX16110   3.246   2.770   7.138 -0.7073  0.2122 -2.9092
  147SAPE    HY16111   3.421   2.762   7.142 -0.8522 -0.4535 -0.4641
  147SAPE   O3116112   3.328   2.910   7.009 -0.2491  0.3419 -0.4694
  147SAPE   C3116113   3.444   2.961   6.970 -0.4609  0.0799 -0.8888
  147SAPE   O3216114   3.552   2.945   7.030  0.7737 -0.0225 -0.6854
  147SAPE   C3216115   3.422   3.037   6.843  0.2521  0.6838 -0.1345
  147SAPE   H2X16116   3.386   2.965   6.768  0.5984 -0.8762  1.1414
  147SAPE   H2Y16117   3.517   3.079   6.804  1.0797  0.5045  1.6124
  147SAPE   C2316118   3.244   3.389   7.233  0.0941 -0.1032 -0.2872
  147SAPE   H3R16119   3.342   3.399   7.182  0.6366  1.0760  0.9264
  147SAPE   H3S16120   3.262   3.388   7.343 -1.5677  0.5119  0.0139
  147SAPE   C2416121   3.153   3.507   7.203  0.6319 -0.3612  0.2631
  147SAPE   H4R16122   3.054   3.493   7.253  0.3499  1.3591  0.2459
  147SAPE   H4S16123   3.131   3.511   7.094  0.1586 -0.8022  0.3362
  147SAPE   C2516124   3.219   3.640   7.232 -0.0296 -0.0771  0.1924
  147SAPE   H5R16125   3.186   3.680   7.329 -0.9220  1.3841 -0.6715
  147SAPE   C2616126   3.303   3.721   7.155 -0.0593  0.5289  0.4985
  147SAPE   H6R16127   3.325   3.812   7.212 -0.7201  0.4804  0.8485
  147SAPE   C2716128   3.351   3.702   7.013  0.2752  0.8487  0.4246
  147SAPE   H7R16129   3.375   3.594   7.003 -1.6034  0.3151  1.2103
  147SAPE   H7S16130   3.442   3.762   6.995  1.5979 -1.6030 -1.7808
  147SAPE   C2816131   3.249   3.744   6.909  0.2650  0.6037  0.3292
  147SAPE   H8R16132   3.166   3.673   6.897  1.9989 -1.4415 -0.3729
  147SAPE   C2916133   3.233   3.867   6.848  1.2732  0.7704  0.2433
  147SAPE   H9R16134   3.141   3.875   6.789  0.3132 -2.4581  1.1355
  147SAPE  C21016135   3.307   3.991   6.854 -0.8552 -0.1597 -0.3451
  147SAPE  H10R16136   3.253   4.066   6.792 -0.6815  1.6185  1.5357
  147SAPE  H10S16137   3.404   3.992   6.799 -0.2515  0.5780  0.6919
  147SAPE  C21116138   3.343   4.045   6.990  0.1957  0.7944 -0.2281
  147SAPE  H11R16139   3.322   3.982   7.078  0.7177  1.3385  0.2953
  147SAPE  C21216140   3.396   4.165   7.023  0.4006  0.3794  0.2195
  147SAPE  H12R16141   3.421   4.184   7.128 -2.3668 -2.3090  1.5065
  147SAPE  C21316142   3.440   4.263   6.917 -0.3122  0.0672 -0.2010
  147SAPE  H13R16143   3.461   4.216   6.818 -0.6935  0.5234 -0.5036
  147SAPE  H13S16144   3.532   4.320   6.941 -1.6751  1.8180  1.0970
  147SAPE  C21416145   3.322   4.356   6.897 -0.5002 -0.1000  0.1595
  147SAPE  H14R16146   3.243   4.347   6.974 -0.5227  1.4237  0.3495
  147SAPE  C21516147   3.309   4.456   6.804  0.9506  0.1613  0.2913
  147SAPE  H15R16148   3.220   4.519   6.794  0.3888 -0.6292  0.2244
  147SAPE  C21616149   3.406   4.494   6.695 -0.0720 -0.3621  0.4933
  147SAPE  H16R16150   3.480   4.411   6.695 -0.0911 -0.3806  0.1413
  147SAPE  H16S16151   3.446   4.597   6.712 -1.5149 -0.2889  4.3726
  147SAPE  C21716152   3.345   4.490   6.556  0.1527  0.1895 -0.0495
  147SAPE  H17R16153   3.251   4.549   6.565  0.1245 -0.0874  1.7184
  147SAPE  H17S16154   3.329   4.382   6.539 -0.0260  0.0742  0.8243
  147SAPE  C21816155   3.435   4.549   6.450  0.3285  0.0124  0.4467
  147SAPE  H18R16156   3.529   4.491   6.452  0.1548 -0.2466  1.5954
  147SAPE  H18S16157   3.453   4.655   6.476 -0.9488  0.5864 -0.8215
  147SAPE  C21916158   3.373   4.552   6.309  0.1913 -1.0256  0.3752
  147SAPE  H19R16159   3.282   4.614   6.323  1.0304  0.1179  0.9774
  147SAPE  H19S16160   3.363   4.444   6.285  2.9418 -1.2917  0.1413
  147SAPE  C22016161   3.467   4.627   6.205  0.5883  0.0928  0.0482
  147SAPE  H20R16162   3.488   4.731   6.238 -2.0706  0.8856 -0.4580
  147SAPE  H20S16163   3.433   4.628   6.099 -1.7148 -1.8433  0.6769
  147SAPE  H20T16164   3.556   4.562   6.193 -0.7008 -1.6297 -0.4694
  147SAPE   C3316165   3.343   3.174   6.853  0.3639 -0.0515 -0.0337
  147SAPE   H3X16166   3.392   3.237   6.929  2.5461 -1.5634 -0.0956
  147SAPE   H3Y16167   3.240   3.151   6.886 -0.1119  0.9652 -0.7537
  147SAPE   C3416168   3.346   3.235   6.711 -0.3280  0.1315  0.4100
  147SAPE   H4X16169   3.287   3.177   6.638 -0.0359  0.8118 -0.3777
  147SAPE   H4Y16170   3.453   3.236   6.682 -0.2997  0.9502  0.5371
  147SAPE   C3516171   3.302   3.381   6.691 -0.3682  0.9238 -0.2389
  147SAPE   H5X16172   3.346   3.447   6.769  2.6751 -2.8775  1.5586
  147SAPE   H5Y16173   3.199   3.392   6.731 -0.0895  0.4119  0.6300
  147SAPE   C3616174   3.312   3.440   6.554  0.4411 -0.8430  0.1641
  147SAPE   H6X16175   3.242   3.388   6.485 -0.2518  1.0546 -0.6380
  147SAPE   H6Y16176   3.414   3.428   6.511  0.4967  0.8907 -0.2470
  147SAPE   C3716177   3.288   3.595   6.558 -0.3760  0.6756 -0.2465
  147SAPE   H7X16178   3.364   3.636   6.628  0.3492  1.0205 -1.2221
  147SAPE   H7Y16179   3.187   3.620   6.597 -0.4355 -0.1831  0.1802
  147SAPE   C3816180   3.302   3.669   6.424 -0.0858  0.4484  0.6158
  147SAPE   H8X16181   3.228   3.621   6.356  1.3055 -1.0785  0.1094
  147SAPE   H8Y16182   3.404   3.647   6.383 -0.5228  0.5084 -0.5466
  147SAPE   C3916183   3.282   3.822   6.427 -0.1724 -0.2064  0.0286
  147SAPE   H9X16184   3.356   3.859   6.501  1.3232 -1.5467 -0.7402
  147SAPE   H9Y16185   3.192   3.854   6.483 -0.6770 -0.8104 -0.4229
  147SAPE  C31016186   3.294   3.884   6.290 -0.6415  0.4226  0.0031
  147SAPE  H10X16187   3.201   3.848   6.241 -0.8605 -1.0142  1.4033
  147SAPE  H10Y16188   3.385   3.847   6.239 -0.0556  0.8401  0.7217
  147SAPE  C31116189   3.290   4.036   6.290  0.3376 -0.2771  0.0597
  147SAPE  H11X16190   3.388   4.056   6.338  0.9660 -3.0265  0.0934
  147SAPE  H11Y16191   3.200   4.065   6.347  0.9241  0.5685  0.5849
  147SAPE  C31216192   3.289   4.090   6.144  0.4726  0.2790  0.1696
  147SAPE  H12X16193   3.222   4.034   6.075  0.8448 -0.0406  0.0607
  147SAPE  H12Y16194   3.389   4.063   6.105  0.5181  0.1869  0.3482
  147SAPE  C31316195   3.260   4.236   6.137 -0.5643 -0.7429  0.7438
  147SAPE  H13X16196   3.355   4.283   6.171 -0.4254 -1.3318  1.1834
  147SAPE  H13Y16197   3.186   4.269   6.213  2.1173  0.6635  2.9314
  147SAPE  C31416198   3.220   4.287   5.998 -0.1917  0.1668 -0.0195
  147SAPE  H14X16199   3.113   4.262   5.980 -0.8123  0.9492  2.1923
  147SAPE  H14Y16200   3.277   4.232   5.920 -1.5898 -1.1540 -0.1513
  147SAPE  C31516201   3.250   4.439   5.974 -0.5867 -0.1187  0.3135
  147SAPE  H15X16202   3.360   4.446   5.956 -0.4180  0.0781  1.3623
  147SAPE  H15Y16203   3.222   4.482   6.073  1.8962  0.1836  0.9471
  147SAPE  C31616204   3.166   4.491   5.860 -0.5444 -0.7158 -0.5793
  147SAPE  H16X16205   3.064   4.458   5.887  0.3714 -3.6725 -0.3808
  147SAPE  H16Y16206   3.190   4.450   5.759  2.5313 -0.0279 -0.2420
  147SAPE  C31716207   3.185   4.644   5.857  0.1062 -0.0870 -0.6590
  147SAPE  H17X16208   3.293   4.668   5.850  0.6238 -1.7752  0.6851
  147SAPE  H17Y16209   3.142   4.675   5.955 -0.0248 -3.9450  0.6866
  147SAPE  C31816210   3.105   4.710   5.745 -0.3084  0.1022 -0.1105
  147SAPE  H18X16211   3.154   4.684   5.649  0.4161  0.4403  0.1616
  147SAPE  H18Y16212   3.105   4.821   5.756 -2.7740  0.0549  1.2812
  147SAPE  H18Z16213   2.998   4.679   5.751 -0.5515  0.1534 -2.9191
  148SAPE     N16214   3.197   5.388   7.718  0.3881  0.0365  0.3648
  148SAPE   HN116215   3.099   5.372   7.750 -0.2769  1.9836 -0.5895
  148SAPE   HN216216   3.256   5.417   7.799 -0.5398 -2.8146  2.2655
  148SAPE   HN316217   3.195   5.474   7.660  0.8678 -0.2188 -0.0378
  148SAPE   C1216218   3.246   5.265   7.640  0.3281 -0.0557  0.5753
  148SAPE  H12A16219   3.357   5.266   7.641  0.3617 -0.1260  2.7859
  148SAPE  H12B16220   3.206   5.264   7.537 -2.9998 -0.2364  1.7419
  148SAPE   C1116221   3.190   5.127   7.702 -0.3854  0.0089  0.3519
  148SAPE  H11A16222   3.209   5.044   7.631 -3.6663 -0.5582 -0.0146
  148SAPE  H11B16223   3.081   5.147   7.703 -0.7062 -1.6004  0.2659
  148SAPE     P16224   3.374   5.004   7.844  0.0684 -0.4294  0.2243
  148SAPE   O1316225   3.491   5.093   7.852 -0.5062 -0.2467  0.2483
  148SAPE   O1416226   3.344   4.909   7.955 -0.5384  0.5786 -0.1927
  148SAPE   O1216227   3.248   5.104   7.827  0.1519 -0.3466 -0.1087
  148SAPE   O1116228   3.380   4.920   7.711 -0.1258 -0.1119  0.6407
  148SAPE    C116229   3.506   4.860   7.664 -0.4343  0.1930 -0.1487
  148SAPE    HA16230   3.596   4.886   7.724 -0.6958 -1.8167  1.1994
  148SAPE    HB16231   3.510   4.753   7.693 -0.8696  0.2281  0.0387
  148SAPE    C216232   3.528   4.888   7.515 -0.4972 -0.0339 -0.0325
  148SAPE    HS16233   3.537   4.998   7.514 -1.0748  0.0250 -1.0234
  148SAPE   O2116234   3.412   4.829   7.446 -0.2290 -0.4964  0.5577
  148SAPE   C2116235   3.386   4.890   7.330  0.3766 -0.3938 -0.6068
  148SAPE   O2216236   3.431   5.001   7.299  0.1773  0.0024 -0.8002
  148SAPE   C2216237   3.283   4.813   7.252  0.0591  0.7166  0.4568
  148SAPE   H2R16238   3.322   4.709   7.242 -1.3132  0.2774 -0.6318
  148SAPE   H2S16239   3.191   4.799   7.312  0.4251  1.6235  1.2519
  148SAPE    C316240   3.663   4.838   7.460 -0.4894 -0.1637  0.2067
  148SAPE    HX16241   3.664   4.728   7.476  0.8274 -0.0937  0.7643
  148SAPE    HY16242   3.747   4.879   7.522 -0.2307  1.7227 -1.2746
  148SAPE   O3116243   3.690   4.857   7.320 -0.0577  0.0780  0.0176
  148SAPE   C3116244   3.746   4.971   7.281  0.5851 -0.4430  0.3745
  148SAPE   O3216245   3.751   5.072   7.347 -0.4373  0.2706 -0.8936
  148SAPE   C3216246   3.787   4.961   7.128  0.3842  0.0177 -0.2983
  148SAPE   H2X16247   3.879   4.899   7.120 -0.0120 -0.7974  1.0161
  148SAPE   H2Y16248   3.824   5.061   7.096  0.3655  0.4829  1.0645
  148SAPE   C2316249   3.276   4.873   7.112  0.9504  0.7287 -0.6242
  148SAPE   H3R16250   3.372   4.915   7.074  2.5626 -0.6512  1.6629
  148SAPE   H3S16251   3.196   4.950   7.118 -0.7167 -0.8971 -0.9160
  148SAPE   C2416252   3.236   4.773   6.998 -0.4036  0.0351 -0.1297
  148SAPE   H4R16253   3.320   4.701   6.997 -2.0924 -2.0536 -0.8781
  148SAPE   H4S16254   3.232   4.838   6.908  0.9290  0.0843 -0.1588
  148SAPE   C2516255   3.101   4.709   7.019  0.4686  0.3637  0.1728
  148SAPE   H5R16256   3.061   4.698   7.121  0.7957  0.2006  0.2872
  148SAPE   C2616257   3.014   4.700   6.913 -0.0984  0.2010  0.3273
  148SAPE   H6R16258   2.915   4.653   6.924  0.0375 -0.0111  0.6377
  148SAPE   C2716259   3.040   4.735   6.769  0.0832  0.7181 -0.1419
  148SAPE   H7R16260   2.976   4.671   6.705  0.1933 -0.6082  1.0220
  148SAPE   H7S16261   3.142   4.708   6.736 -1.1610 -1.3745 -2.5927
  148SAPE   C2816262   3.009   4.875   6.735  0.0300 -0.0556  0.0915
  148SAPE   H8R16263   3.040   4.945   6.814  2.3146 -0.2155 -0.6085
  148SAPE   C2916264   2.959   4.915   6.617 -0.3729 -0.1696  0.4930
  148SAPE   H9R16265   2.964   5.023   6.594 -1.5216  0.2966  2.1838
  148SAPE  C21016266   2.916   4.840   6.495  0.0877 -0.0459  0.4759
  148SAPE  H10R16267   2.816   4.877   6.463 -0.6925 -0.2164  2.5625
  148SAPE  H10S16268   2.900   4.733   6.519 -1.3248 -0.4629 -1.9255
  148SAPE  C21116269   3.016   4.854   6.390 -0.1019  0.3528  0.4674
  148SAPE  H11R16270   3.109   4.799   6.408  1.4228  2.4093 -0.7000
  148SAPE  C21216271   2.996   4.885   6.262  0.3627 -0.1960  0.6312
  148SAPE  H12R16272   3.079   4.896   6.191 -0.3554  2.6127  0.1010
  148SAPE  C21316273   2.861   4.933   6.206 -1.6780  0.5023  0.7919
  148SAPE  H13R16274   2.771   4.892   6.256 -1.1860 -0.1584  1.1571
  148SAPE  H13S16275   2.863   4.901   6.100  1.7317  1.6738  0.3763
  148SAPE  C21416276   2.858   5.083   6.208 -0.1804  0.3255  0.1611
  148SAPE  H14R16277   2.818   5.133   6.298  0.6793  1.2696  0.0401
  148SAPE  C21516278   2.912   5.165   6.119 -0.0057  0.0643 -0.1231
  148SAPE  H15R16279   2.889   5.273   6.128  0.0411  0.2116 -1.6018
  148SAPE  C21616280   2.989   5.126   5.998 -0.7948 -0.0295 -0.1197
  148SAPE  H16R16281   3.044   5.030   6.006  0.1326  0.3752 -1.3807
  148SAPE  H16S16282   3.074   5.197   5.994 -0.8388  0.0078 -0.3777
  148SAPE  C21716283   2.921   5.148   5.859  0.1622  0.1531 -0.5022
  148SAPE  H17R16284   3.004   5.154   5.786  0.9642 -1.3845  0.2432
  148SAPE  H17S16285   2.880   5.250   5.842 -1.5548 -0.4450 -0.1940
  148SAPE  C21816286   2.804   5.052   5.830  0.4692  0.1914  0.5561
  148SAPE  H18R16287   2.725   5.054   5.907 -0.9046 -1.7219 -0.7222
  148SAPE  H18S16288   2.848   4.951   5.845  0.1396  0.0219  0.3757
  148SAPE  C21916289   2.726   5.066   5.703 -0.0185  0.1559 -0.0412
  148SAPE  H19R16290   2.799   5.051   5.621  0.9838  2.1159  0.4160
  148SAPE  H19S16291   2.698   5.174   5.704 -1.9380 -0.2004 -2.9407
  148SAPE  C22016292   2.595   4.988   5.689 -0.0581 -0.6766 -0.0253
  148SAPE  H20R16293   2.527   5.025   5.769 -0.1826 -0.4723 -0.2255
  148SAPE  H20S16294   2.612   4.879   5.705  1.4739 -0.5312 -0.4913
  148SAPE  H20T16295   2.563   4.990   5.583  0.6722  2.0999 -0.2657
  148SAPE   C3316296   3.669   4.907   7.047  0.1351 -0.3087 -0.6084
  148SAPE   H3X16297   3.581   4.968   7.078  1.6663  1.4566  0.4773
  148SAPE   H3Y16298   3.650   4.802   7.080  1.4196  0.2506  2.1881
  148SAPE   C3416299   3.685   4.924   6.895  0.6285  0.0900  0.5149
  148SAPE   H4X16300   3.778   4.876   6.858  1.5160  1.5114  0.8092
  148SAPE   H4Y16301   3.703   5.033   6.880 -0.4071  0.7148  3.1133
  148SAPE   C3516302   3.566   4.875   6.806 -0.2700 -0.2889  0.1781
  148SAPE   H5X16303   3.474   4.916   6.853  0.5211 -1.8411  3.3644
  148SAPE   H5Y16304   3.568   4.764   6.805 -1.1107 -0.3764 -2.9887
  148SAPE   C3616305   3.568   4.930   6.660 -0.3538  0.4072  1.1828
  148SAPE   H6X16306   3.640   4.879   6.592 -0.5608  2.4299 -0.6830
  148SAPE   H6Y16307   3.590   5.038   6.672  0.2297  0.5699 -0.9796
  148SAPE   C3716308   3.429   4.929   6.596 -0.0141 -0.0031 -0.3982
  148SAPE   H7X16309   3.356   4.992   6.652  0.7344  0.4183  0.1074
  148SAPE   H7Y16310   3.381   4.829   6.586 -0.2911  0.1111 -0.2170
  148SAPE   C3816311   3.439   4.996   6.459 -0.3187  0.4212 -0.5775
  148SAPE   H8X16312   3.514   4.940   6.400  1.1171  0.3380  1.2273
  148SAPE   H8Y16313   3.486   5.096   6.467  2.1355 -0.5695 -1.6052
  148SAPE   C3916314   3.308   5.014   6.385  0.5866 -0.2659  0.3557
  148SAPE   H9X16315   3.239   5.072   6.450 -0.4725  0.1760 -1.0954
  148SAPE   H9Y16316   3.264   4.913   6.369  0.1749 -0.0338 -0.0370
  148SAPE  C31016317   3.332   5.100   6.254  0.0591  0.7828 -0.3195
  148SAPE  H10X16318   3.405   5.183   6.265  0.8297  0.3034 -1.5790
  148SAPE  H10Y16319   3.237   5.145   6.217  0.5446  0.3453 -2.2073
  148SAPE  C31116320   3.381   5.006   6.141 -0.0677 -0.7492 -0.2416
  148SAPE  H11X16321   3.309   4.921   6.146 -0.6242 -0.4673 -2.6129
  148SAPE  H11Y16322   3.485   4.973   6.163  0.6792  1.5314 -0.1750
  148SAPE  C31216323   3.380   5.075   6.011  0.4784  0.4056  0.5142
  148SAPE  H12X16324   3.276   5.111   5.994  0.0492 -1.7818 -2.3419
  148SAPE  H12Y16325   3.380   5.002   5.927  0.1465  1.5084 -0.4740
  148SAPE  C31316326   3.485   5.185   5.991  0.0579 -0.3568 -0.1071
  148SAPE  H13X16327   3.586   5.140   6.004 -0.5939 -1.8999 -0.1106
  148SAPE  H13Y16328   3.464   5.256   6.073  1.9715  1.9029 -1.4354
  148SAPE  C31416329   3.469   5.266   5.865 -0.5587  0.0971  0.5654
  148SAPE  H14X16330   3.361   5.272   5.839 -1.3107 -2.2164  2.7447
  148SAPE  H14Y16331   3.513   5.189   5.798  0.9285  0.4289  1.1212
  148SAPE  C31516332   3.563   5.388   5.851 -0.2208  0.0478 -0.6418
  148SAPE  H15X16333   3.665   5.352   5.827 -0.3140 -0.9650  0.4131
  148SAPE  H15Y16334   3.571   5.438   5.951 -0.1693 -0.1821 -0.5306
  148SAPE  C31616335   3.511   5.482   5.745 -0.3407  0.3142  0.5975
  148SAPE  H16X16336   3.400   5.483   5.750 -0.4824  0.2574 -1.7563
  148SAPE  H16Y16337   3.531   5.438   5.645  0.7501 -1.0977  1.3953
  148SAPE  C31716338   3.565   5.625   5.733 -0.1779  0.0181 -0.8961
  148SAPE  H17X16339   3.675   5.616   5.723  0.0347  1.3057  0.0598
  148SAPE  H17Y16340   3.542   5.666   5.833 -1.7552 -0.6757 -0.9447
  148SAPE  C31816341   3.496   5.706   5.622  0.1184 -1.4459  0.0702
  148SAPE  H18X16342   3.499   5.654   5.523 -2.3140 -0.2058 -0.7298
  148SAPE  H18Y16343   3.529   5.811   5.614 -0.3018 -1.3588 -0.6385
  148SAPE  H18Z16344   3.387   5.705   5.639  0.1658  1.2630  0.9223
  149SAPE     N16345   2.386   0.416   8.194 -0.2751 -0.3273 -0.3186
  149SAPE   HN116346   2.340   0.485   8.256 -0.0310  0.3727 -0.8984
  149SAPE   HN216347   2.314   0.355   8.152  0.2925 -2.0392  1.0558
  149SAPE   HN316348   2.456   0.351   8.236 -0.3680 -0.9794 -1.1524
  149SAPE   C1216349   2.454   0.516   8.109 -0.0476  0.2677 -0.2346
  149SAPE  H12A16350   2.488   0.474   8.012 -0.0764  1.2373 -0.6788
  149SAPE  H12B16351   2.544   0.556   8.159 -0.1810  0.9344 -0.5130
  149SAPE   C1116352   2.353   0.626   8.064  0.1888  0.7879  0.0785
  149SAPE  H11A16353   2.267   0.586   8.007 -0.2214  1.1064  0.4657
  149SAPE  H11B16354   2.403   0.697   7.995 -0.5437 -0.3533 -1.6951
  149SAPE     P16355   2.304   0.840   8.215 -0.0521  0.1716 -0.3395
  149SAPE   O1316356   2.167   0.872   8.251 -0.0211  0.2795  0.2832
  149SAPE   O1416357   2.403   0.869   8.318  0.0435  0.3934  0.9093
  149SAPE   O1216358   2.294   0.684   8.181 -0.5385 -1.0267  0.7161
  149SAPE   O1116359   2.350   0.896   8.078  0.2885 -0.1595  0.1351
  149SAPE    C116360   2.409   1.021   8.057  0.6335 -0.3285  0.4165
  149SAPE    HA16361   2.331   1.101   8.055  0.9669 -0.0057  0.3706
  149SAPE    HB16362   2.483   1.048   8.135  1.1789  1.2858 -0.6056
  149SAPE    C216363   2.485   1.024   7.922  0.1437 -0.1101 -0.0635
  149SAPE    HS16364   2.405   1.031   7.845  1.4640 -0.2046 -1.4935
  149SAPE   O2116365   2.559   0.899   7.898 -0.0562 -0.1378 -0.1887
  149SAPE   C2116366   2.544   0.845   7.778 -0.5395  0.8207  0.2732
  149SAPE   O2216367   2.494   0.892   7.676 -0.5355 -0.7474 -0.0697
  149SAPE   C2216368   2.621   0.723   7.779 -0.4483 -0.3747 -0.6829
  149SAPE   H2R16369   2.706   0.725   7.708  1.8502 -3.1093  1.7008
  149SAPE   H2S16370   2.665   0.706   7.880  0.4109  0.7372 -0.8517
  149SAPE    C316371   2.566   1.158   7.902  0.0940  0.6299  0.4890
  149SAPE    HX16372   2.657   1.134   7.962  0.1004 -0.8249 -0.0707
  149SAPE    HY16373   2.510   1.238   7.956 -0.0662  0.4565  0.5818
  149SAPE   O3116374   2.592   1.181   7.767  0.2663  0.0869 -0.5846
  149SAPE   C3116375   2.501   1.245   7.697  0.4059 -0.0135  0.4877
  149SAPE   O3216376   2.395   1.287   7.748 -0.2330  0.0178  0.8344
  149SAPE   C3216377   2.537   1.247   7.552  0.1473 -0.2593 -0.0200
  149SAPE   H2X16378   2.616   1.175   7.520  0.1460 -0.4040  0.2931
  149SAPE   H2Y16379   2.591   1.343   7.537 -0.4886  0.1467  0.2557
  149SAPE   C2316380   2.541   0.598   7.743 -0.0676  0.3421  0.8160
  149SAPE   H3R16381   2.436   0.603   7.778  0.3948 -2.2772  2.8765
  149SAPE   H3S16382   2.576   0.513   7.805  1.4156  1.9990  2.4106
  149SAPE   C2416383   2.560   0.565   7.596 -0.1524 -0.3362  0.4368
  149SAPE   H4R16384   2.666   0.546   7.570 -0.8238 -3.3901 -0.5349
  149SAPE   H4S16385   2.523   0.645   7.529  0.6935 -1.4887 -1.4968
  149SAPE   C2516386   2.491   0.435   7.564 -0.4492  0.1209 -0.2170
  149SAPE   H5R16387   2.421   0.415   7.646 -1.9933  4.0979 -0.3027
  149SAPE   C2616388   2.499   0.367   7.449 -0.6566  1.4438  0.1616
  149SAPE   H6R16389   2.442   0.275   7.430 -0.1465  1.4799 -1.6590
  149SAPE   C2716390   2.579   0.411   7.326  0.5504  0.3118 -0.3176
  149SAPE   H7R16391   2.606   0.518   7.326  1.6594  0.0582  1.0356
  149SAPE   H7S16392   2.515   0.398   7.236 -1.1798 -0.1383  0.9140
  149SAPE   C2816393   2.699   0.320   7.299 -0.1891  0.3566 -0.6850
  149SAPE   H8R16394   2.740   0.270   7.389  0.0357  0.5628 -0.6708
  149SAPE   C2916395   2.750   0.297   7.176 -0.1224  0.5108 -0.1895
  149SAPE   H9R16396   2.834   0.227   7.166 -0.8291 -0.2483 -0.9523
  149SAPE  C21016397   2.689   0.353   7.047 -0.1064  0.0333 -0.2220
  149SAPE  H10R16398   2.728   0.455   7.027 -0.6416  0.1666 -0.5972
  149SAPE  H10S16399   2.581   0.379   7.055 -0.1709 -0.1040 -0.5941
  149SAPE  C21116400   2.707   0.263   6.926 -0.1807  0.1024 -0.2330
  149SAPE  H11R16401   2.731   0.158   6.949 -0.1477 -0.5064 -2.8103
  149SAPE  C21216402   2.680   0.288   6.802  0.5237 -0.1630  0.6103
  149SAPE  H12R16403   2.713   0.214   6.728  2.3754  0.3227  0.9062
  149SAPE  C21316404   2.640   0.422   6.736 -0.6287  0.5169  0.0918
  149SAPE  H13R16405   2.732   0.476   6.703 -1.0268  0.2004 -1.6312
  149SAPE  H13S16406   2.587   0.491   6.805 -0.2411 -0.4068  1.3388
  149SAPE  C21416407   2.561   0.389   6.615 -0.2201  0.6600  0.3345
  149SAPE  H14R16408   2.466   0.337   6.630  0.1990 -1.5303 -3.4600
  149SAPE  C21516409   2.595   0.417   6.489 -0.3614  0.3515  0.2563
  149SAPE  H15R16410   2.520   0.400   6.410 -0.3017 -0.5670  0.3870
  149SAPE  C21616411   2.719   0.492   6.442 -0.2732 -0.3905 -0.0614
  149SAPE  H16R16412   2.799   0.431   6.397  2.0007 -0.1749  3.3550
  149SAPE  H16S16413   2.768   0.543   6.528  1.5445 -0.2767 -1.1193
  149SAPE  C21716414   2.707   0.604   6.333 -0.0698 -0.3108  0.3822
  149SAPE  H17R16415   2.798   0.666   6.319 -1.7777  2.4490  0.6920
  149SAPE  H17S16416   2.638   0.679   6.378 -1.3090  0.2666 -2.2872
  149SAPE  C21816417   2.660   0.557   6.194 -0.0193 -0.4404 -0.3239
  149SAPE  H18R16418   2.565   0.501   6.206  0.4160 -0.7123  2.8671
  149SAPE  H18S16419   2.728   0.474   6.165  2.8614  0.9985  1.7539
  149SAPE  C21916420   2.659   0.674   6.091 -0.4127  0.4540 -0.1563
  149SAPE  H19R16421   2.759   0.721   6.096  1.1864 -2.7340  0.6495
  149SAPE  H19S16422   2.589   0.755   6.121  0.4484  1.1895 -0.1006
  149SAPE  C22016423   2.631   0.633   5.945 -0.0980  0.2938 -0.0945
  149SAPE  H20R16424   2.527   0.592   5.946 -0.3099  0.8072  1.7300
  149SAPE  H20S16425   2.704   0.554   5.917  2.6483  2.9229 -0.8637
  149SAPE  H20T16426   2.624   0.722   5.879  2.0722  2.1668  2.0376
  149SAPE   C3316427   2.407   1.234   7.468 -0.5022  0.3511  0.7408
  149SAPE   H3X16428   2.326   1.295   7.512 -2.0200  0.4908 -2.0023
  149SAPE   H3Y16429   2.363   1.131   7.467  0.6447 -0.1611  1.4266
  149SAPE   C3416430   2.439   1.282   7.323 -0.0062 -0.5423 -0.0131
  149SAPE   H4X16431   2.515   1.221   7.269  1.0167  0.7219 -0.0547
  149SAPE   H4Y16432   2.477   1.387   7.328  2.2091 -1.2629 -0.4679
  149SAPE   C3516433   2.311   1.306   7.244  0.0632  0.3405  0.0074
  149SAPE   H5X16434   2.280   1.404   7.287  2.8168  0.7005  1.4013
  149SAPE   H5Y16435   2.225   1.237   7.258  0.3162  0.4958  2.8190
  149SAPE   C3616436   2.336   1.327   7.101 -0.4840  0.5113  0.4367
  149SAPE   H6X16437   2.370   1.233   7.052  0.5207  1.1229 -0.0784
  149SAPE   H6Y16438   2.415   1.404   7.092 -1.0382  1.0604  0.1571
  149SAPE   C3716439   2.219   1.378   7.009 -0.6739 -0.1631 -0.0152
  149SAPE   H7X16440   2.209   1.486   7.035  0.6446 -0.1610  0.5598
  149SAPE   H7Y16441   2.133   1.317   7.043  1.2781 -3.0925  0.0758
  149SAPE   C3816442   2.242   1.371   6.858  0.0689  0.4999 -0.3581
  149SAPE   H8X16443   2.266   1.269   6.821  0.2246  0.8669 -1.2907
  149SAPE   H8Y16444   2.338   1.426   6.845  0.5754  0.1000  1.3966
  149SAPE   C3916445   2.129   1.425   6.773 -0.3701 -0.2755 -0.1180
  149SAPE   H9X16446   2.103   1.528   6.806 -1.1964  0.4787 -2.8373
  149SAPE   H9Y16447   2.036   1.365   6.777 -0.0004 -0.8675 -0.2928
  149SAPE  C31016448   2.168   1.427   6.626  0.0851  0.1409  0.0804
  149SAPE  H10X16449   2.200   1.326   6.592  1.8763  0.4605  0.6996
  149SAPE  H10Y16450   2.254   1.493   6.602  0.7685 -0.6285  0.3410
  149SAPE  C31116451   2.053   1.467   6.522 -0.8346 -0.2615 -0.3045
  149SAPE  H11X16452   1.994   1.549   6.567 -0.5792  0.6594 -1.5839
  149SAPE  H11Y16453   1.984   1.379   6.520 -2.1384  0.7344 -1.1184
  149SAPE  C31216454   2.105   1.502   6.383 -0.8400  0.0856  0.1538
  149SAPE  H12X16455   2.139   1.410   6.333  0.4854  0.1220  0.9378
  149SAPE  H12Y16456   2.196   1.566   6.392  0.7740 -1.9018 -1.2913
  149SAPE  C31316457   2.001   1.583   6.310 -0.0242  0.4447 -0.4930
  149SAPE  H13X16458   1.968   1.675   6.364 -1.6423 -0.1894 -0.3473
  149SAPE  H13Y16459   1.919   1.513   6.285  0.7449 -0.4349 -0.6174
  149SAPE  C31416460   2.050   1.646   6.184 -0.2956  0.1055 -0.3360
  149SAPE  H14X16461   2.127   1.725   6.197 -0.3717  0.2652 -0.8176
  149SAPE  H14Y16462   1.967   1.690   6.125 -0.7558  1.7299  1.3938
  149SAPE  C31516463   2.117   1.539   6.087  0.7328 -0.8748  0.4700
  149SAPE  H15X16464   2.040   1.461   6.071 -2.6617  2.0029  1.3397
  149SAPE  H15Y16465   2.217   1.508   6.125  2.4845  3.4361 -0.0000
  149SAPE  C31616466   2.148   1.597   5.951 -0.1126 -0.7267  0.0831
  149SAPE  H16X16467   2.245   1.563   5.907  0.2222 -0.4990  0.6340
  149SAPE  H16Y16468   2.156   1.708   5.958  1.9888 -0.8327  0.1285
  149SAPE  C31716469   2.035   1.575   5.848 -0.5334  0.4688  0.1151
  149SAPE  H17X16470   1.939   1.544   5.895  0.5589 -1.5954  1.0919
  149SAPE  H17Y16471   2.066   1.495   5.778 -2.0642  0.4346 -0.5524
  149SAPE  C31816472   1.999   1.705   5.774  0.1502 -0.5891  0.1331
  149SAPE  H18X16473   1.946   1.779   5.838 -2.1088 -1.7348 -0.2897
  149SAPE  H18Y16474   1.921   1.682   5.697  2.0016 -0.0795 -2.0003
  149SAPE  H18Z16475   2.092   1.747   5.732  0.8252 -1.3480  0.8313
  150SAPE     N16476   2.532   2.437   8.019  0.2101  0.4726 -0.8950
  150SAPE   HN116477   2.499   2.510   7.952  0.4876  1.5362  0.0832
  150SAPE   HN216478   2.473   2.454   8.103  0.1523  2.3720 -1.2561
  150SAPE   HN316479   2.628   2.458   8.054 -0.6350  1.8553  0.7532
  150SAPE   C1216480   2.509   2.304   7.952  0.8827 -0.6683 -0.0039
  150SAPE  H12A16481   2.476   2.237   8.034  1.6379 -0.9013  0.1238
  150SAPE  H12B16482   2.603   2.258   7.915  0.6670 -1.5364  0.4998
  150SAPE   C1116483   2.398   2.302   7.847  0.3759 -0.2765  0.0893
  150SAPE  H11A16484   2.387   2.207   7.791  1.0805 -1.3899  1.7656
  150SAPE  H11B16485   2.426   2.380   7.773  1.0275 -0.5114  0.0832
  150SAPE     P16486   2.158   2.398   7.857  0.0889 -0.5730  0.0003
  150SAPE   O1316487   2.101   2.503   7.946  0.0191 -0.2935 -0.0505
  150SAPE   O1416488   2.196   2.439   7.719 -0.1858  0.1816 -0.2299
  150SAPE   O1216489   2.280   2.330   7.930 -0.3007  0.1239  0.3720
  150SAPE   O1116490   2.055   2.279   7.833 -0.4050 -0.4214  0.2835
  150SAPE    C116491   2.112   2.151   7.799  0.3051 -0.6306 -0.3512
  150SAPE    HA16492   2.175   2.160   7.708  2.0140  3.2636  0.9956
  150SAPE    HB16493   2.177   2.114   7.882  1.4039  0.9938 -0.4366
  150SAPE    C216494   1.998   2.056   7.776  0.1607  0.0070 -0.4816
  150SAPE    HS16495   1.955   2.036   7.876 -0.8915  1.5810 -0.5919
  150SAPE   O2116496   2.054   1.942   7.709 -0.1273 -0.5277 -0.7188
  150SAPE   C2116497   2.009   1.828   7.743  0.2026 -0.4980  0.1708
  150SAPE   O2216498   1.928   1.809   7.840  0.1931 -0.0631 -0.2474
  150SAPE   C2216499   2.065   1.717   7.647  0.3712 -0.4101 -1.1298
  150SAPE   H2R16500   2.116   1.760   7.559  0.4722  1.7760 -0.0709
  150SAPE   H2S16501   2.136   1.656   7.708  3.0727  2.1069 -1.5232
  150SAPE    C316502   1.885   2.113   7.695  0.9820 -0.0170  0.3610
  150SAPE    HX16503   1.914   2.137   7.590  0.2530  0.6090  0.2967
  150SAPE    HY16504   1.860   2.210   7.744 -0.6381  0.5789 -1.5123
  150SAPE   O3116505   1.765   2.034   7.698  0.4955  0.6073  0.3632
  150SAPE   C3116506   1.685   2.034   7.802  0.5777 -0.5132 -0.4021
  150SAPE   O3216507   1.700   2.095   7.906  0.6105 -0.3555  0.4160
  150SAPE   C3216508   1.554   1.959   7.767  0.2964  0.0423  0.2351
  150SAPE   H2X16509   1.533   1.903   7.860 -0.4857 -1.1292 -0.6159
  150SAPE   H2Y16510   1.581   1.886   7.687 -0.5994  2.0200 -1.9877
  150SAPE   C2316511   1.965   1.611   7.597 -0.0451 -0.5077  0.4562
  150SAPE   H3R16512   1.885   1.590   7.671 -0.6518  1.0097  0.2635
  150SAPE   H3S16513   2.008   1.510   7.581  3.5615  0.7984  0.8535
  150SAPE   C2416514   1.911   1.648   7.451 -0.9828 -0.6678  0.3858
  150SAPE   H4R16515   1.847   1.564   7.417 -0.8654 -0.3290 -0.7129
  150SAPE   H4S16516   1.999   1.649   7.383 -1.1824  2.2939  0.0666
  150SAPE   C2516517   1.828   1.776   7.453 -0.1171 -0.1781 -0.1777
  150SAPE   H5R16518   1.768   1.791   7.543  0.0928  2.0495 -0.3688
  150SAPE   C2616519   1.828   1.865   7.357 -0.4313 -0.4906 -0.4904
  150SAPE   H6R16520   1.743   1.932   7.343  0.1788  0.3982  0.0021
  150SAPE   C2716521   1.912   1.848   7.232 -0.6081  0.2294  0.2419
  150SAPE   H7R16522   1.883   1.748   7.192  2.4832 -0.9225  0.5708
  150SAPE   H7S16523   2.021   1.835   7.251 -0.3575 -0.9719 -1.7979
  150SAPE   C2816524   1.897   1.962   7.141 -0.4221  1.2257 -0.0085
  150SAPE   H8R16525   1.944   2.055   7.175 -0.0281  0.6316  1.0984
  150SAPE   C2916526   1.848   1.956   7.018  0.1854  0.1300 -0.0725
  150SAPE   H9R16527   1.852   2.039   6.946 -0.5714 -0.7095 -1.1066
  150SAPE  C21016528   1.806   1.828   6.965  0.7093 -0.4417  0.1570
  150SAPE  H10R16529   1.759   1.766   7.045 -0.4420  1.3225  0.8970
  150SAPE  H10S16530   1.896   1.767   6.942  2.1728  1.7818 -0.3070
  150SAPE  C21116531   1.703   1.820   6.851  0.2284  0.5535 -0.1598
  150SAPE  H11R16532   1.603   1.785   6.879 -0.4978  1.1022 -1.9551
  150SAPE  C21216533   1.722   1.850   6.718 -0.7163  0.0636 -0.4012
  150SAPE  H12R16534   1.643   1.831   6.643  0.8242 -2.1698 -1.5936
  150SAPE  C21316535   1.849   1.904   6.656  0.4095 -0.0095  0.4167
  150SAPE  H13R16536   1.894   1.826   6.592 -1.1956 -1.6369  1.1943
  150SAPE  H13S16537   1.929   1.928   6.729 -0.6420  0.6220  1.4009
  150SAPE  C21416538   1.820   2.034   6.580  0.4666 -0.4906 -0.2065
  150SAPE  H14R16539   1.776   2.111   6.645  0.0937 -0.7520 -0.1483
  150SAPE  C21516540   1.848   2.069   6.452  0.0658  0.3963  0.1943
  150SAPE  H15R16541   1.818   2.169   6.416  1.5358  0.4951 -0.8509
  150SAPE  C21616542   1.906   1.978   6.350  0.2552 -0.3375 -0.2017
  150SAPE  H16R16543   1.829   1.905   6.319 -0.3038  0.4620 -0.7394
  150SAPE  H16S16544   1.994   1.927   6.395 -0.8911 -1.3843  0.9438
  150SAPE  C21716545   1.951   2.068   6.229 -0.5887  0.6972 -0.0612
  150SAPE  H17R16546   2.002   1.991   6.167 -1.1719  2.2180 -2.5316
  150SAPE  H17S16547   2.026   2.149   6.244 -1.7321  1.7233  0.1961
  150SAPE  C21816548   1.838   2.125   6.142  0.5559 -0.8227 -0.0574
  150SAPE  H18R16549   1.786   2.204   6.200  1.4901  1.9310 -2.7302
  150SAPE  H18S16550   1.774   2.037   6.120  0.5267 -0.4312 -1.6212
  150SAPE  C21916551   1.890   2.189   6.011  0.5211  0.1138  0.1828
  150SAPE  H19R16552   1.959   2.270   6.043 -0.7885  0.1746  3.2303
  150SAPE  H19S16553   1.811   2.238   5.950 -0.7658 -0.9696  0.8872
  150SAPE  C22016554   1.952   2.085   5.914  0.0138 -0.4712  0.3491
  150SAPE  H20R16555   1.869   2.026   5.870  0.1806  0.2389 -0.9798
  150SAPE  H20S16556   2.017   2.013   5.969  2.7099  2.0283  0.6645
  150SAPE  H20T16557   2.015   2.133   5.837  3.0071 -2.4361  1.3816
  150SAPE   C3316558   1.452   2.051   7.718  0.3720 -0.3448  0.5215
  150SAPE   H3X16559   1.462   2.145   7.778 -0.2504 -0.4096  0.7300
  150SAPE   H3Y16560   1.355   1.999   7.730  0.6501 -0.9288  0.2813
  150SAPE   C3416561   1.461   2.097   7.569 -0.1677 -0.4295  0.2883
  150SAPE   H4X16562   1.567   2.128   7.558 -1.0814  2.2032 -2.3228
  150SAPE   H4Y16563   1.409   2.195   7.559  1.6111  0.6529  1.1379
  150SAPE   C3516564   1.418   1.996   7.464  0.1401 -0.2392 -0.6525
  150SAPE   H5X16565   1.311   1.968   7.475  0.1343  0.2659  0.9073
  150SAPE   H5Y16566   1.475   1.902   7.480 -0.9127 -0.7843  0.0904
  150SAPE   C3616567   1.451   2.055   7.328 -0.4112  0.1376  1.2585
  150SAPE   H6X16568   1.558   2.083   7.316  0.3527 -3.0659 -0.3178
  150SAPE   H6Y16569   1.388   2.146   7.318  2.0872  2.0468  1.7290
  150SAPE   C3716570   1.417   1.972   7.206  0.6822  0.2431 -0.5470
  150SAPE   H7X16571   1.314   1.935   7.222  1.7030 -1.7001  2.2586
  150SAPE   H7Y16572   1.485   1.886   7.191  1.2180  0.5383  0.1248
  150SAPE   C3816573   1.415   2.054   7.073  0.0713  0.8482 -0.0359
  150SAPE   H8X16574   1.524   2.073   7.059  0.2478  0.9371  1.3264
  150SAPE   H8Y16575   1.361   2.148   7.097 -2.5573 -0.9636  1.5809
  150SAPE   C3916576   1.351   1.983   6.953  0.2251 -0.5000 -0.3588
  150SAPE   H9X16577   1.246   1.959   6.979 -0.1777  0.9949 -0.4946
  150SAPE   H9Y16578   1.405   1.891   6.921  0.8488  0.0260 -0.8449
  150SAPE  C31016579   1.347   2.086   6.835 -0.5192  0.8933  0.1289
  150SAPE  H10X16580   1.414   2.173   6.853  0.1868  0.7473 -1.6244
  150SAPE  H10Y16581   1.242   2.123   6.829 -0.3155  1.8426  1.7330
  150SAPE  C31116582   1.369   2.025   6.692  0.7638  0.6213  0.3404
  150SAPE  H11X16583   1.275   1.967   6.682  1.9053 -1.0448 -1.2006
  150SAPE  H11Y16584   1.452   1.952   6.690  0.3063  0.0781  0.8588
  150SAPE  C31216585   1.401   2.125   6.574 -0.0355  1.2407  0.5904
  150SAPE  H12X16586   1.487   2.190   6.602  2.2132 -0.2407 -2.2927
  150SAPE  H12Y16587   1.315   2.195   6.571 -2.5515 -1.3728  3.6503
  150SAPE  C31316588   1.429   2.056   6.434 -0.2471 -0.5888 -0.1195
  150SAPE  H13X16589   1.328   2.015   6.411 -0.9271  2.2554 -2.9386
  150SAPE  H13Y16590   1.497   1.968   6.441 -0.0618 -0.3365  1.9681
  150SAPE  C31416591   1.452   2.156   6.318  0.5566 -0.0866 -0.7614
  150SAPE  H14X16592   1.548   2.209   6.336 -0.6340  1.5714  1.3137
  150SAPE  H14Y16593   1.376   2.234   6.339 -0.5814 -0.7404 -2.2253
  150SAPE  C31516594   1.426   2.107   6.180  0.3446 -0.5439  0.0138
  150SAPE  H15X16595   1.324   2.063   6.171  0.1411 -0.6210  2.0958
  150SAPE  H15Y16596   1.493   2.021   6.159 -1.3765 -1.9200 -0.0988
  150SAPE  C31616597   1.453   2.219   6.079 -0.5325 -0.2758  0.0029
  150SAPE  H16X16598   1.564   2.225   6.088 -0.5224 -0.1850 -0.1859
  150SAPE  H16Y16599   1.401   2.308   6.118 -2.3180 -1.1585 -0.2621
  150SAPE  C31716600   1.423   2.185   5.933  0.1262 -0.4225 -0.5065
  150SAPE  H17X16601   1.315   2.210   5.926 -0.4510 -0.7094  4.0739
  150SAPE  H17Y16602   1.432   2.076   5.914 -0.9651 -0.8779  1.2952
  150SAPE  C31816603   1.506   2.256   5.831  0.0100 -1.0027  0.2281
  150SAPE  H18X16604   1.515   2.364   5.854 -2.0372 -0.6681 -0.3006
  150SAPE  H18Y16605   1.459   2.253   5.731  1.7001 -0.8199 -0.5960
  150SAPE  H18Z16606   1.602   2.200   5.830 -0.5394 -1.9694  0.2286
  151SAPE     N16607   5.537   0.740   8.010  0.1482  0.0241  0.1578
  151SAPE   HN116608   5.472   0.795   8.071 -0.1634 -0.3707  0.1924
  151SAPE   HN216609   5.630   0.741   8.057 -0.7257  2.1343  2.0199
  151SAPE   HN316610   5.543   0.794   7.922 -1.3484  1.5663  0.9356
  151SAPE   C1216611   5.504   0.604   7.964  0.0776  0.4751 -0.4085
  151SAPE  H12A16612   5.482   0.541   8.053 -2.4845  0.8341 -0.6974
  151SAPE  H12B16613   5.584   0.559   7.902 -1.4943  0.2062 -2.3614
  151SAPE   C1116614   5.366   0.600   7.895  0.6660  0.6328 -0.3135
  151SAPE  H11A16615   5.350   0.500   7.851 -2.0815  0.9918 -0.2994
  151SAPE  H11B16616   5.367   0.667   7.806 -0.6606 -0.0000 -0.8254
  151SAPE     P16617   5.140   0.547   8.016  0.6115 -0.5459 -0.3576
  151SAPE   O1316618   5.195   0.418   8.057 -0.3693 -0.3586 -0.5142
  151SAPE   O1416619   5.053   0.607   8.122 -0.3861 -0.1603 -0.3123
  151SAPE   O1216620   5.262   0.643   7.990  0.0891  0.0579 -0.5031
  151SAPE   O1116621   5.059   0.543   7.883  0.6569 -0.0592 -0.2481
  151SAPE    C116622   5.020   0.652   7.809 -0.1424 -0.5130  0.0171
  151SAPE    HA16623   4.957   0.723   7.866 -0.5604 -0.2827 -0.7181
  151SAPE    HB16624   5.113   0.701   7.773 -0.3972  0.1996  0.3241
  151SAPE    C216625   4.941   0.612   7.678 -0.5006  0.1313 -0.4881
  151SAPE    HS16626   4.872   0.533   7.717  0.2877  0.3576  1.5054
  151SAPE   O2116627   5.039   0.549   7.591  0.1172 -0.4336  0.3250
  151SAPE   C2116628   4.983   0.486   7.494 -0.6458  1.0649  0.4728
  151SAPE   O2216629   4.868   0.456   7.480 -0.3337  0.1366 -0.1113
  151SAPE   C2216630   5.097   0.443   7.397  0.2593  0.1435 -0.6515
  151SAPE   H2R16631   5.195   0.462   7.446 -1.1482  0.8858  2.0879
  151SAPE   H2S16632   5.086   0.335   7.370 -0.7411  0.2498 -0.6806
  151SAPE    C316633   4.868   0.736   7.614 -0.5600  0.4699  0.7896
  151SAPE    HX16634   4.821   0.784   7.702 -1.2508  0.2399  0.5483
  151SAPE    HY16635   4.788   0.704   7.544 -1.4913  2.7645  0.6908
  151SAPE   O3116636   4.963   0.821   7.537 -0.1939  0.3836 -0.7105
  151SAPE   C3116637   4.958   0.947   7.554  1.1397  0.7302 -0.4226
  151SAPE   O3216638   4.879   1.008   7.628 -0.1791  0.1888  0.3919
  151SAPE   C3216639   5.060   1.025   7.471 -0.3935 -0.0131  0.1947
  151SAPE   H2X16640   5.100   0.943   7.408  0.4569 -1.7046  2.7611
  151SAPE   H2Y16641   5.140   1.072   7.533 -1.3732  1.5163  0.3554
  151SAPE   C2316642   5.083   0.518   7.260  0.0416 -0.0793  0.2858
  151SAPE   H3R16643   4.996   0.484   7.200 -0.6287  1.2606  0.4740
  151SAPE   H3S16644   5.164   0.477   7.195 -0.6182 -0.4171 -0.3336
  151SAPE   C2416645   5.098   0.668   7.280 -0.0473 -0.0146 -0.0619
  151SAPE   H4R16646   5.191   0.685   7.338 -0.1836 -2.6444  1.1011
  151SAPE   H4S16647   5.011   0.706   7.338 -0.1889  1.0359 -0.9228
  151SAPE   C2516648   5.097   0.737   7.147 -0.0098  0.4001 -0.0479
  151SAPE   H5R16649   5.011   0.724   7.079  0.5840  0.6461 -0.8697
  151SAPE   C2616650   5.184   0.828   7.104  0.3290 -0.3337  0.7509
  151SAPE   H6R16651   5.174   0.862   7.000  1.7663  1.1888  1.0646
  151SAPE   C2716652   5.318   0.864   7.168  0.9569 -0.0687 -0.6500
  151SAPE   H7R16653   5.306   0.877   7.278 -2.4080  0.8360 -1.0379
  151SAPE   H7S16654   5.350   0.964   7.132  1.8275  0.2988  1.0362
  151SAPE   C2816655   5.424   0.761   7.150 -0.1041 -0.1603  0.1985
  151SAPE   H8R16656   5.463   0.717   7.243  2.3220 -2.3772 -1.6859
  151SAPE   C2916657   5.473   0.710   7.038 -0.2968 -0.1805  0.0393
  151SAPE   H9R16658   5.548   0.630   7.040  1.4060  1.3377 -0.7109
  151SAPE  C21016659   5.433   0.749   6.900  0.3739 -0.1547 -0.9260
  151SAPE  H10R16660   5.459   0.855   6.879  0.7746  0.6202  2.7500
  151SAPE  H10S16661   5.322   0.744   6.897  0.4091 -1.4773 -0.8526
  151SAPE  C21116662   5.497   0.652   6.801  0.6528 -1.1702  0.4350
  151SAPE  H11R16663   5.604   0.634   6.818  1.1405  1.5644  0.7889
  151SAPE  C21216664   5.425   0.597   6.697 -0.2320 -0.2684  0.0466
  151SAPE  H12R16665   5.482   0.531   6.630  0.2273  1.2594 -1.1057
  151SAPE  C21316666   5.283   0.618   6.657 -0.2444 -0.9710  0.3820
  151SAPE  H13R16667   5.241   0.706   6.710 -0.3782  1.1284 -2.9296
  151SAPE  H13S16668   5.233   0.528   6.697  1.4743 -2.1545 -0.0153
  151SAPE  C21416669   5.269   0.646   6.510 -0.3819  1.0162 -0.0469
  151SAPE  H14R16670   5.318   0.577   6.439 -0.4025  1.1827 -0.2222
  151SAPE  C21516671   5.183   0.736   6.459 -0.6551  0.4632 -0.3416
  151SAPE  H15R16672   5.196   0.767   6.355 -2.1196  2.3677 -0.0032
  151SAPE  C21616673   5.090   0.823   6.537  0.0676  0.3185 -0.0931
  151SAPE  H16R16674   5.139   0.906   6.593  0.4249 -1.2198  2.0006
  151SAPE  H16S16675   5.037   0.765   6.616 -1.0286 -1.0817 -1.7999
  151SAPE  C21716676   4.972   0.874   6.456 -0.2201  0.0796  0.6570
  151SAPE  H17R16677   4.893   0.904   6.527 -0.8421 -0.4100  0.1830
  151SAPE  H17S16678   4.927   0.782   6.413 -1.1682  0.5260  0.6680
  151SAPE  C21816679   5.014   0.990   6.358  0.5291 -0.3962 -0.8112
  151SAPE  H18R16680   5.113   0.971   6.312  1.3301  0.7651  0.3562
  151SAPE  H18S16681   5.032   1.078   6.424  2.1562 -0.8956 -0.5537
  151SAPE  C21916682   4.909   1.018   6.251  0.1344 -0.4862 -0.1833
  151SAPE  H19R16683   4.830   1.075   6.303  1.2919 -0.9379  2.2395
  151SAPE  H19S16684   4.878   0.921   6.205  1.7270 -0.9707 -0.2938
  151SAPE  C22016685   4.952   1.113   6.141 -0.1941  0.8587 -0.8828
  151SAPE  H20R16686   4.867   1.141   6.076 -1.8412 -0.5179  0.5674
  151SAPE  H20S16687   5.028   1.066   6.075  2.1251  2.4546  0.5106
  151SAPE  H20T16688   4.999   1.197   6.196  2.0117 -1.0718  0.4005
  151SAPE   C3316689   5.002   1.150   7.390 -0.1014  0.0816  0.7761
  151SAPE   H3X16690   5.074   1.234   7.386  1.2529 -1.0742 -0.0446
  151SAPE   H3Y16691   4.909   1.183   7.442  1.2992  1.0905  2.7450
  151SAPE   C3416692   4.949   1.120   7.245 -0.5097 -0.4717 -0.4667
  151SAPE   H4X16693   4.867   1.047   7.257 -0.7037 -0.6053 -2.3037
  151SAPE   H4Y16694   5.035   1.080   7.186 -0.1694  2.6738 -2.3782
  151SAPE   C3516695   4.905   1.241   7.167 -0.4411  0.1834 -0.0813
  151SAPE   H5X16696   4.993   1.304   7.141 -0.4943  0.2383 -0.1259
  151SAPE   H5Y16697   4.835   1.304   7.225 -3.0977 -2.6336  0.0125
  151SAPE   C3616698   4.839   1.194   7.035  0.3809  0.8246 -0.6310
  151SAPE   H6X16699   4.747   1.136   7.058  1.0800 -0.5295 -1.1465
  151SAPE   H6Y16700   4.914   1.125   6.992  1.4213  0.4877  1.5845
  151SAPE   C3716701   4.809   1.313   6.938  0.0599 -0.7280  0.3312
  151SAPE   H7X16702   4.906   1.352   6.904  0.0217  0.0122  1.0499
  151SAPE   H7Y16703   4.775   1.401   6.997 -0.4789 -1.2823  0.8697
  151SAPE   C3816704   4.714   1.281   6.821  0.3063 -0.3328 -0.2562
  151SAPE   H8X16705   4.720   1.354   6.738 -0.7702 -2.4007 -2.2658
  151SAPE   H8Y16706   4.608   1.284   6.853 -0.0790  0.9085 -1.5649
  151SAPE   C3916707   4.739   1.138   6.754  0.1519  0.3286  0.0515
  151SAPE   H9X16708   4.682   1.063   6.813 -1.7175  1.1746 -0.6024
  151SAPE   H9Y16709   4.849   1.124   6.765  0.0465  0.7442  1.9825
  151SAPE  C31016710   4.699   1.120   6.607  0.6239 -0.5972 -0.4586
  151SAPE  H10X16711   4.714   1.016   6.572 -1.9541 -0.6094 -1.7774
  151SAPE  H10Y16712   4.748   1.194   6.540  3.2798 -1.0127  0.8750
  151SAPE  C31116713   4.547   1.141   6.572  0.3642  0.0545  0.3688
  151SAPE  H11X16714   4.504   1.242   6.585 -1.3433 -0.5999  0.0994
  151SAPE  H11Y16715   4.492   1.072   6.640 -1.2014  0.1173 -0.7697
  151SAPE  C31216716   4.500   1.089   6.439 -0.7093 -0.6367 -0.8062
  151SAPE  H12X16717   4.394   1.056   6.445 -0.4247 -1.3399  1.0634
  151SAPE  H12Y16718   4.558   1.002   6.400  1.8453 -0.0037  1.3447
  151SAPE  C31316719   4.513   1.202   6.339  0.4531  0.6557 -0.3620
  151SAPE  H13X16720   4.607   1.254   6.312  1.2598 -0.9386 -0.7260
  151SAPE  H13Y16721   4.439   1.273   6.380 -1.0060 -2.0527  2.0405
  151SAPE  C31416722   4.463   1.150   6.200  1.0113 -0.0983  0.5084
  151SAPE  H14X16723   4.371   1.088   6.204  1.4576 -0.9816 -1.5589
  151SAPE  H14Y16724   4.543   1.079   6.172 -0.7256 -1.3873 -1.4972
  151SAPE  C31516725   4.448   1.256   6.094 -0.1748 -0.4224 -0.2100
  151SAPE  H15X16726   4.407   1.206   6.004  1.6271 -0.8349 -0.8368
  151SAPE  H15Y16727   4.542   1.305   6.060 -0.8912  0.1174 -1.4943
  151SAPE  C31616728   4.350   1.373   6.129 -0.0232  0.8652  0.6172
  151SAPE  H16X16729   4.353   1.438   6.038 -0.4826 -0.2465 -0.2226
  151SAPE  H16Y16730   4.385   1.438   6.211  2.6298 -0.2350  0.4364
  151SAPE  C31716731   4.200   1.339   6.147 -0.0239  0.9635  0.2541
  151SAPE  H17X16732   4.195   1.274   6.238 -0.2818 -0.3766 -0.6892
  151SAPE  H17Y16733   4.169   1.282   6.057 -1.0621 -0.7011  1.6026
  151SAPE  C31816734   4.118   1.464   6.162  0.3499 -0.0217 -0.2594
  151SAPE  H18X16735   4.012   1.435   6.151  0.1239  0.3860  0.7213
  151SAPE  H18Y16736   4.131   1.538   6.081  1.2985 -0.3579 -0.4279
  151SAPE  H18Z16737   4.135   1.516   6.259 -1.6239 -1.6126  1.0250
  152SAPE     N16738   3.018   0.353   8.480 -0.3431  0.4210  0.1536
  152SAPE   HN116739   3.051   0.433   8.539  0.4698  0.8027 -0.7934
  152SAPE   HN216740   2.919   0.335   8.503 -0.3214 -3.6628 -2.0994
  152SAPE   HN316741   3.072   0.271   8.514 -0.4845  0.4281  0.3951
  152SAPE   C1216742   3.044   0.368   8.328  0.0835 -0.2251 -0.5333
  152SAPE  H12A16743   3.153   0.390   8.322 -0.3039  2.2108  0.3221
  152SAPE  H12B16744   2.991   0.461   8.299 -1.3774 -0.2693  1.7503
  152SAPE   C1116745   3.000   0.239   8.258 -0.0577  0.0995  0.5832
  152SAPE  H11A16746   3.002   0.245   8.147  0.8480  0.9111  0.6281
  152SAPE  H11B16747   2.899   0.214   8.295  0.7333 -2.4178  1.2510
  152SAPE     P16748   3.086  -0.018   8.261  0.0492 -0.3730  0.1494
  152SAPE   O1316749   3.181  -0.081   8.357 -0.0483 -0.4764 -0.1519
  152SAPE   O1416750   2.945  -0.065   8.265  0.4999  0.1139 -0.6114
  152SAPE   O1216751   3.101   0.140   8.283  0.3639 -0.2145  0.3753
  152SAPE   O1116752   3.149  -0.050   8.121 -0.6677  0.3786 -0.2159
  152SAPE    C116753   3.091   0.007   8.001 -0.2216 -0.0624  0.5569
  152SAPE    HA16754   2.981  -0.007   7.992 -0.4395  1.1649  1.1367
  152SAPE    HB16755   3.113   0.115   7.989 -0.2039  0.3148  3.3833
  152SAPE    C216756   3.134  -0.070   7.877 -0.0229  0.3618 -0.0228
  152SAPE    HS16757   3.245  -0.072   7.889 -0.0193  1.4100  0.1815
  152SAPE   O2116758   3.098  -0.003   7.757 -0.5877 -0.0748 -1.1014
  152SAPE   C2116759   3.171   0.088   7.709  0.2592  0.0228  0.1573
  152SAPE   O2216760   3.281   0.115   7.749 -0.9636 -0.6091 -0.2317
  152SAPE   C2216761   3.101   0.151   7.586 -0.0313 -0.4059  0.0403
  152SAPE   H2R16762   3.120   0.080   7.503  1.2970 -0.3045  0.2310
  152SAPE   H2S16763   2.990   0.154   7.598  0.0027  0.4278  0.1714
  152SAPE    C316764   3.084  -0.219   7.874  0.0011  0.4099 -0.4429
  152SAPE    HX16765   2.974  -0.217   7.892  0.0015  0.0203 -0.3836
  152SAPE    HY16766   3.137  -0.274   7.955 -0.2770 -1.2170 -1.3130
  152SAPE   O3116767   3.101  -0.284   7.748 -0.1001  0.2880  0.4865
  152SAPE   C3116768   3.058  -0.411   7.746  0.2588  0.3245 -0.1985
  152SAPE   O3216769   3.059  -0.485   7.843 -0.6856  0.3976 -0.3682
  152SAPE   C3216770   3.020  -0.451   7.608  0.3131  0.1641  0.3201
  152SAPE   H2X16771   2.963  -0.365   7.567  1.5813  0.4362 -0.9761
  152SAPE   H2Y16772   2.958  -0.543   7.614 -2.0868  1.7233  0.8727
  152SAPE   C2316773   3.157   0.291   7.549  0.3257 -0.2586 -0.0509
  152SAPE   H3R16774   3.247   0.276   7.485 -0.4293  1.0549 -1.4887
  152SAPE   H3S16775   3.179   0.341   7.646 -0.4831  0.4619 -0.2299
  152SAPE   C2416776   3.062   0.392   7.477 -0.7779 -0.1610  0.3586
  152SAPE   H4R16777   2.959   0.399   7.517 -0.4081  1.1125  1.1303
  152SAPE   H4S16778   3.061   0.341   7.378  0.3385  2.0882 -0.8902
  152SAPE   C2516779   3.138   0.524   7.463 -0.2595  0.0957  0.5642
  152SAPE   H5R16780   3.161   0.573   7.558  0.0187  0.9190  0.0810
  152SAPE   C2616781   3.171   0.582   7.346 -0.4833  0.0408  0.1138
  152SAPE   H6R16782   3.218   0.681   7.351 -0.9956  0.2537  1.0422
  152SAPE   C2716783   3.154   0.526   7.203  0.1946  0.0733 -0.1518
  152SAPE   H7R16784   3.154   0.415   7.200 -2.9621 -0.0291  0.2192
  152SAPE   H7S16785   3.235   0.565   7.137 -0.6400  0.9603 -0.6839
  152SAPE   C2816786   3.010   0.559   7.144 -0.1124  0.3804 -0.8813
  152SAPE   H8R16787   2.927   0.529   7.209 -0.6449  0.1548 -1.6555
  152SAPE   C2916788   2.991   0.580   7.011  0.2020 -0.2929  0.4720
  152SAPE   H9R16789   2.890   0.581   6.967 -0.0307 -0.5186  0.9944
  152SAPE  C21016790   3.100   0.593   6.904  0.0246  0.2735  0.0121
  152SAPE  H10R16791   3.178   0.514   6.906  0.4126  0.6195 -0.9960
  152SAPE  H10S16792   3.154   0.690   6.911  1.6883 -0.6875  1.6990
  152SAPE  C21116793   3.045   0.594   6.767  0.3594  0.5825  0.1485
  152SAPE  H11R16794   2.935   0.593   6.763  0.2776 -0.3629  1.8090
  152SAPE  C21216795   3.120   0.582   6.659  0.0461  0.1004 -0.5902
  152SAPE  H12R16796   3.083   0.571   6.557 -0.6005 -0.8516 -0.2704
  152SAPE  C21316797   3.275   0.599   6.667  0.0763  0.3577  0.0590
  152SAPE  H13R16798   3.305   0.642   6.765 -3.3473 -0.3227  1.5550
  152SAPE  H13S16799   3.297   0.677   6.591 -0.7169 -0.0412 -0.6056
  152SAPE  C21416800   3.346   0.475   6.626 -0.6610 -0.4998 -0.5104
  152SAPE  H14R16801   3.339   0.402   6.708 -0.3815  1.8318  1.7120
  152SAPE  C21516802   3.426   0.453   6.523 -0.0563 -0.7213  0.4838
  152SAPE  H15R16803   3.452   0.349   6.500  2.5210  0.1198 -0.7924
  152SAPE  C21616804   3.465   0.547   6.411 -0.0808  0.3970  0.2759
  152SAPE  H16R16805   3.575   0.559   6.398 -0.1206 -0.2360 -0.6820
  152SAPE  H16S16806   3.435   0.653   6.427  0.3660  0.5131  0.3689
  152SAPE  C21716807   3.390   0.488   6.286 -0.1888  0.2359  0.2072
  152SAPE  H17R16808   3.385   0.566   6.207  2.0021  0.8402  0.5895
  152SAPE  H17S16809   3.283   0.470   6.307 -0.1908  1.2563  1.1576
  152SAPE  C21816810   3.453   0.366   6.223  0.2280  0.6261 -0.5173
  152SAPE  H18R16811   3.451   0.279   6.293  0.5841 -0.5907 -1.9770
  152SAPE  H18S16812   3.557   0.398   6.205  0.5084  0.4173  0.6575
  152SAPE  C21916813   3.387   0.327   6.089 -0.7323 -0.0186  0.2742
  152SAPE  H19R16814   3.281   0.301   6.109  0.0408 -1.1076  3.7927
  152SAPE  H19S16815   3.440   0.236   6.054 -0.5595 -0.1190  0.7877
  152SAPE  C22016816   3.405   0.429   5.981 -0.7075  0.1195  0.0487
  152SAPE  H20R16817   3.327   0.508   5.991 -0.7228 -0.0612  1.4667
  152SAPE  H20S16818   3.391   0.369   5.888  0.8671 -1.7753  0.9846
  152SAPE  H20T16819   3.508   0.470   5.979 -0.5275 -0.3189  0.1955
  152SAPE   C3316820   3.135  -0.487   7.505  0.6323  0.6396 -0.2766
  152SAPE   H3X16821   3.185  -0.581   7.536  0.8989 -0.8366 -4.5120
  152SAPE   H3Y16822   3.206  -0.402   7.496  0.8252  0.4611 -0.4375
  152SAPE   C3416823   3.071  -0.525   7.368 -0.9593  0.5198  0.2246
  152SAPE   H4X16824   3.160  -0.539   7.303 -0.6547 -1.6480  1.0387
  152SAPE   H4Y16825   3.019  -0.434   7.332  1.0348  2.4402  1.8890
  152SAPE   C3516826   2.974  -0.642   7.359 -0.1335  0.2846  0.0015
  152SAPE   H5X16827   2.884  -0.633   7.424 -1.5122 -0.3118 -1.7420
  152SAPE   H5Y16828   3.030  -0.732   7.390 -1.8919 -0.8186  0.1366
  152SAPE   C3616829   2.925  -0.661   7.212 -0.0570 -0.5537 -0.6598
  152SAPE   H6X16830   2.868  -0.755   7.197 -0.5569 -0.6611  1.6048
  152SAPE   H6Y16831   3.017  -0.674   7.150 -0.1294 -4.3542 -0.1991
  152SAPE   C3716832   2.848  -0.550   7.145  0.1313 -0.5580 -0.6113
  152SAPE   H7X16833   2.899  -0.453   7.159 -0.2349 -0.4575  0.0629
  152SAPE   H7Y16834   2.755  -0.535   7.204  0.9554  1.9700  0.1521
  152SAPE   C3816835   2.794  -0.581   7.005 -0.1718  0.5985 -0.5364
  152SAPE   H8X16836   2.690  -0.618   6.995 -0.1324  0.3390 -0.0387
  152SAPE   H8Y16837   2.865  -0.652   6.958 -0.4569 -0.7160  0.9243
  152SAPE   C3916838   2.799  -0.456   6.908  1.1341 -0.3351  0.5162
  152SAPE   H9X16839   2.900  -0.411   6.915  0.3721  1.8675 -1.1217
  152SAPE   H9Y16840   2.735  -0.376   6.952  2.5792  0.7549  0.7011
  152SAPE  C31016841   2.763  -0.499   6.762 -0.2524  0.1365  0.3547
  152SAPE  H10X16842   2.661  -0.541   6.762  0.0305 -0.7660 -2.6487
  152SAPE  H10Y16843   2.840  -0.567   6.719  0.4754  0.6769  0.7619
  152SAPE  C31116844   2.761  -0.389   6.655  0.2301 -0.1471  0.8125
  152SAPE  H11X16845   2.860  -0.343   6.635  0.4891 -0.5887  1.0714
  152SAPE  H11Y16846   2.702  -0.304   6.695 -0.2971 -1.0211  1.9350
  152SAPE  C31216847   2.699  -0.426   6.507  0.4772  0.1145 -0.6061
  152SAPE  H12X16848   2.696  -0.331   6.450  0.6889  0.9276  0.6927
  152SAPE  H12Y16849   2.591  -0.450   6.520  0.5339  1.0080  2.2137
  152SAPE  C31316850   2.776  -0.535   6.442  0.4872  0.3865  0.0763
  152SAPE  H13X16851   2.703  -0.610   6.406  0.1542  0.9532 -0.4426
  152SAPE  H13Y16852   2.833  -0.588   6.522  0.2587 -0.0808 -0.0705
  152SAPE  C31416853   2.856  -0.485   6.318  0.3356 -0.3932 -0.3862
  152SAPE  H14X16854   2.900  -0.582   6.285  0.1869 -1.4804  2.3228
  152SAPE  H14Y16855   2.941  -0.421   6.348  1.1768 -1.9419  0.6915
  152SAPE  C31516856   2.783  -0.408   6.201  0.1196 -0.0421 -0.2478
  152SAPE  H15X16857   2.752  -0.310   6.241 -0.8753 -1.4031  2.5643
  152SAPE  H15Y16858   2.693  -0.462   6.166  1.2820 -0.7490 -2.3430
  152SAPE  C31616859   2.882  -0.374   6.091 -0.0146 -0.0489  0.0337
  152SAPE  H16X16860   2.919  -0.469   6.046 -1.0752  0.7758 -2.7739
  152SAPE  H16Y16861   2.965  -0.313   6.132 -1.1629  1.9423 -0.4529
  152SAPE  C31716862   2.817  -0.289   5.985 -0.2412  0.5298 -0.2481
  152SAPE  H17X16863   2.776  -0.198   6.035 -0.2708 -0.3532  1.3990
  152SAPE  H17Y16864   2.728  -0.343   5.947  0.3709  0.2345 -1.2790
  152SAPE  C31816865   2.916  -0.247   5.873 -0.0364  0.5215  0.1810
  152SAPE  H18X16866   2.970  -0.156   5.906  0.4824  0.9953 -1.8779
  152SAPE  H18Y16867   2.860  -0.203   5.788 -0.5712  1.1221  0.8212
  152SAPE  H18Z16868   2.982  -0.330   5.842  0.4927  0.6747  0.8570
  153SAPE     N16869   6.410   3.006   7.995 -0.1097 -0.1981  0.4491
  153SAPE   HN116870   6.446   3.067   8.072  2.1957 -0.8743 -0.0273
  153SAPE   HN216871   6.466   2.920   7.982 -0.4537 -0.5650  1.3257
  153SAPE   HN316872   6.398   3.066   7.911 -1.6500 -0.2489  0.5964
  153SAPE   C1216873   6.270   2.982   8.036  0.6195 -0.4395  0.5380
  153SAPE  H12A16874   6.228   3.085   8.035  2.3956  0.3187 -0.6425
  153SAPE  H12B16875   6.278   2.931   8.135  2.8940  1.6956  1.5712
  153SAPE   C1116876   6.190   2.911   7.930 -0.1002  1.3962  0.0651
  153SAPE  H11A16877   6.198   2.943   7.824  2.4753  1.8607  0.3192
  153SAPE  H11B16878   6.082   2.909   7.953 -0.6313  0.4558 -2.2680
  153SAPE     P16879   6.172   2.653   7.999  0.2671  0.4028 -0.1795
  153SAPE   O1316880   6.238   2.530   7.945 -0.2177 -0.0785  0.0859
  153SAPE   O1416881   6.186   2.685   8.141 -0.1495 -0.2272 -0.7177
  153SAPE   O1216882   6.238   2.775   7.930  0.0533 -0.1021 -0.7622
  153SAPE   O1116883   6.013   2.660   7.970  0.0218 -0.1349  0.0752
  153SAPE    C116884   5.952   2.694   7.852 -0.3311 -0.4031  0.3261
  153SAPE    HA16885   5.890   2.784   7.872 -2.0483 -1.8013  1.6401
  153SAPE    HB16886   6.025   2.726   7.775 -0.2601  0.1116  0.6007
  153SAPE    C216887   5.850   2.583   7.812 -0.0569 -0.3088  0.6131
  153SAPE    HS16888   5.795   2.556   7.905 -2.4407 -0.7124 -0.8320
  153SAPE   O2116889   5.918   2.467   7.767  0.3208  0.3691  0.2123
  153SAPE   C2116890   5.861   2.349   7.785 -0.1909  0.8470 -0.0891
  153SAPE   O2216891   5.752   2.331   7.835 -0.5229 -0.3997  0.2107
  153SAPE   C2216892   5.956   2.242   7.743 -0.3327 -0.1267 -0.3773
  153SAPE   H2R16893   5.946   2.237   7.633 -1.4353  1.5591 -0.4014
  153SAPE   H2S16894   6.061   2.266   7.769 -0.8831  1.4933  0.5424
  153SAPE    C316895   5.752   2.640   7.708 -0.0182  1.1821 -0.7175
  153SAPE    HX16896   5.715   2.737   7.748  0.7756  1.1318  0.1614
  153SAPE    HY16897   5.663   2.577   7.687 -0.2465  1.2639 -0.0230
  153SAPE   O3116898   5.833   2.670   7.594 -0.3559 -0.1109  0.4529
  153SAPE   C3116899   5.862   2.572   7.506  0.3264 -0.6774 -0.6749
  153SAPE   O3216900   5.807   2.467   7.492  0.1509 -0.3740  0.3753
  153SAPE   C3216901   5.989   2.617   7.420 -0.0849 -0.1423  0.0509
  153SAPE   H2X16902   6.065   2.658   7.491  1.2708 -1.2529 -0.7127
  153SAPE   H2Y16903   5.956   2.699   7.354 -1.2859 -0.9882 -0.4397
  153SAPE   C2316904   5.925   2.096   7.790  0.6196  0.1091 -0.6365
  153SAPE   H3R16905   5.816   2.082   7.774  0.6725 -0.3737 -0.5792
  153SAPE   H3S16906   5.932   2.105   7.900 -0.4967  1.6667 -0.6633
  153SAPE   C2416907   6.015   1.998   7.712 -0.0945  0.1009 -0.8948
  153SAPE   H4R16908   5.987   1.897   7.747  0.1038 -0.4389 -2.2287
  153SAPE   H4S16909   6.119   2.019   7.746  0.3817 -0.7161 -1.8211
  153SAPE   C2516910   6.031   1.996   7.563 -0.2472  0.4234 -0.3537
  153SAPE   H5R16911   5.943   1.947   7.520  0.8301 -1.5747 -0.4033
  153SAPE   C2616912   6.123   2.047   7.483  0.4893  0.2192  0.6062
  153SAPE   H6R16913   6.112   2.019   7.377 -1.3129  1.4345  0.4409
  153SAPE   C2716914   6.257   2.110   7.516  0.4832 -0.7315 -0.1214
  153SAPE   H7R16915   6.280   2.109   7.625 -1.2640 -2.1658  0.2788
  153SAPE   H7S16916   6.247   2.218   7.494 -0.7550 -1.3052 -2.6596
  153SAPE   C2816917   6.370   2.048   7.444  0.1916 -0.4458  0.0885
  153SAPE   H8R16918   6.433   1.980   7.503  0.3037 -0.3333  0.1010
  153SAPE   C2916919   6.400   2.091   7.321 -0.4847 -0.3020 -0.1366
  153SAPE   H9R16920   6.488   2.047   7.273 -0.9959 -0.7633 -0.6749
  153SAPE  C21016921   6.323   2.181   7.234  0.1111 -0.3066 -0.5910
  153SAPE  H10R16922   6.351   2.288   7.244 -0.9162 -0.1907  1.7686
  153SAPE  H10S16923   6.215   2.187   7.259  0.0350 -2.7308 -0.1631
  153SAPE  C21116924   6.348   2.138   7.090  0.3612  0.1950  0.5364
  153SAPE  H11R16925   6.280   2.064   7.047  1.1351 -1.3564  1.8811
  153SAPE  C21216926   6.439   2.190   7.010 -0.3483 -0.3874 -0.0567
  153SAPE  H12R16927   6.442   2.155   6.906 -0.4601 -4.3723  1.1292
  153SAPE  C21316928   6.543   2.293   7.051  0.3845  0.5873  0.0174
  153SAPE  H13R16929   6.582   2.281   7.154 -0.2160  0.9408  0.2980
  153SAPE  H13S16930   6.497   2.394   7.056 -0.5426  0.1544  0.5067
  153SAPE  C21416931   6.652   2.311   6.952 -0.5655 -0.1709  0.3619
  153SAPE  H14R16932   6.632   2.385   6.873  1.5255  0.2485  0.1511
  153SAPE  C21516933   6.783   2.273   6.967  0.4702  0.2744  0.6510
  153SAPE  H15R16934   6.850   2.291   6.882 -1.3388  1.6203 -0.5789
  153SAPE  C21616935   6.845   2.187   7.075  0.0969 -0.2710 -0.4143
  153SAPE  H16R16936   6.901   2.100   7.035 -0.9662 -0.8775 -0.6289
  153SAPE  H16S16937   6.757   2.148   7.131  1.2041 -2.2181  0.0665
  153SAPE  C21716938   6.933   2.268   7.174  0.6963 -0.5417  0.3062
  153SAPE  H17R16939   6.968   2.192   7.248  0.5404 -0.4989  0.4256
  153SAPE  H17S16940   6.867   2.346   7.215  3.1848  0.7826  2.0375
  153SAPE  C21816941   7.046   2.347   7.102  0.3452  0.8900 -0.1819
  153SAPE  H18R16942   7.009   2.427   7.034  1.2519 -0.1039 -1.9349
  153SAPE  H18S16943   7.100   2.271   7.041  2.1582  2.6369 -0.8739
  153SAPE  C21916944   7.144   2.405   7.210 -0.7024  0.1780 -0.8934
  153SAPE  H19R16945   7.186   2.331   7.281 -0.8730  0.6997 -0.2384
  153SAPE  H19S16946   7.097   2.471   7.285  0.5088 -0.6207  0.6251
  153SAPE  C22016947   7.263   2.494   7.159  0.7086  0.0809 -0.0370
  153SAPE  H20R16948   7.240   2.598   7.128 -0.5349  0.3473  1.6827
  153SAPE  H20S16949   7.316   2.431   7.084  0.6991 -0.6964  0.5961
  153SAPE  H20T16950   7.334   2.503   7.244  0.8889  0.7848 -0.2522
  153SAPE   C3316951   6.051   2.501   7.333  0.3407  0.2760  0.5148
  153SAPE   H3X16952   6.056   2.403   7.385  0.0981  0.2771  0.5427
  153SAPE   H3Y16953   6.156   2.531   7.313 -0.3294  2.8823  0.5194
  153SAPE   C3416954   5.976   2.494   7.198  0.2265  0.8690 -0.4002
  153SAPE   H4X16955   5.957   2.590   7.146 -1.3340  0.3404 -0.8835
  153SAPE   H4Y16956   5.875   2.449   7.212  0.2365  1.0323  0.1945
  153SAPE   C3516957   6.048   2.395   7.112  0.5326 -0.0550  0.5038
  153SAPE   H5X16958   6.067   2.302   7.169 -0.9282 -1.1609 -0.7144
  153SAPE   H5Y16959   6.146   2.440   7.085  0.4440  0.6195  1.2615
  153SAPE   C3616960   5.971   2.347   6.982 -0.3573  0.2446 -0.2545
  153SAPE   H6X16961   5.964   2.442   6.925  0.6921  2.2756  2.7679
  153SAPE   H6Y16962   5.873   2.304   7.015  0.4669 -1.7350 -0.2263
  153SAPE   C3716963   6.037   2.227   6.912  0.9928 -0.1039 -0.6040
  153SAPE   H7X16964   6.052   2.138   6.977 -0.4305 -2.3337 -3.1456
  153SAPE   H7Y16965   6.138   2.264   6.886  0.5427  1.5255 -0.1632
  153SAPE   C3816966   5.961   2.197   6.787  0.0986 -0.3233  0.3896
  153SAPE   H8X16967   5.947   2.291   6.730 -3.0142  0.3726  2.0746
  153SAPE   H8Y16968   5.853   2.174   6.801 -0.3904  0.3843 -1.8778
  153SAPE   C3916969   6.019   2.094   6.691  0.4973  0.2294 -0.4574
  153SAPE   H9X16970   6.004   1.995   6.740 -0.4649  1.5039  2.0016
  153SAPE   H9Y16971   6.129   2.109   6.685  0.9247 -1.2523  2.0490
  153SAPE  C31016972   5.961   2.106   6.549  0.7018 -0.1106 -0.1877
  153SAPE  H10X16973   5.992   2.208   6.517  0.0939  0.0013 -0.4404
  153SAPE  H10Y16974   5.851   2.092   6.548  0.7792 -0.7564 -1.8459
  153SAPE  C31116975   6.023   2.011   6.454  0.0794  0.4238  0.4793
  153SAPE  H11X16976   5.998   1.907   6.486 -0.6225 -0.9346 -3.8152
  153SAPE  H11Y16977   6.134   2.014   6.450  0.0912  0.9410  1.1802
  153SAPE  C31216978   5.976   2.003   6.307 -0.6861 -0.1774  0.3136
  153SAPE  H12X16979   5.865   1.992   6.306 -1.1053  1.5881  4.7261
  153SAPE  H12Y16980   6.013   1.906   6.268 -1.1175  0.0335 -0.6660
  153SAPE  C31316981   6.023   2.111   6.205 -0.1806 -0.5984  0.6182
  153SAPE  H13X16982   6.124   2.148   6.231 -1.7772  2.9317  2.5591
  153SAPE  H13Y16983   5.961   2.203   6.219  0.6890  0.0513  0.2309
  153SAPE  C31416984   6.008   2.055   6.063 -0.2448 -0.6065 -0.1936
  153SAPE  H14X16985   5.931   1.975   6.061 -0.3364 -0.5097 -1.9462
  153SAPE  H14Y16986   6.102   2.013   6.022 -0.5333  0.8402 -2.4897
  153SAPE  C31516987   5.972   2.165   5.959 -0.1703  0.2726  0.4969
  153SAPE  H15X16988   5.864   2.191   5.967 -0.5023 -0.7325 -0.5151
  153SAPE  H15Y16989   5.986   2.123   5.858  2.7162 -0.2560  1.0287
  153SAPE  C31616990   6.047   2.298   5.971  0.7801  0.0866 -0.1708
  153SAPE  H16X16991   6.051   2.347   6.070 -0.6091  1.5648 -0.8098
  153SAPE  H16Y16992   5.981   2.367   5.914  0.5210  0.3749  0.4721
  153SAPE  C31716993   6.177   2.285   5.892 -0.3978  0.2272 -0.0552
  153SAPE  H17X16994   6.247   2.213   5.939  0.2705  0.7218 -0.2871
  153SAPE  H17Y16995   6.227   2.383   5.904  0.6632 -0.3445  0.2867
  153SAPE  C31816996   6.168   2.257   5.741 -0.4563  0.2114  0.6349
  153SAPE  H18X16997   6.267   2.270   5.692 -0.0133 -1.2807  1.1017
  153SAPE  H18Y16998   6.103   2.326   5.682 -1.8628 -2.8795 -1.6716
  153SAPE  H18Z16999   6.130   2.158   5.708 -2.3319  1.0956 -0.0560
  154SAPE     N17000   5.195   0.142   7.990 -0.5431 -0.4336 -0.3380
  154SAPE   HN117001   5.137   0.229   7.988 -0.1866 -0.1153  1.3771
  154SAPE   HN217002   5.179   0.090   7.902 -0.5231  1.5679 -1.5873
  154SAPE   HN317003   5.146   0.098   8.071  1.7156 -1.7804  0.4041
  154SAPE   C1217004   5.335   0.164   8.039 -0.2554  0.6574  0.1090
  154SAPE  H12A17005   5.327   0.219   8.135  2.0068  1.2154  0.0324
  154SAPE  H12B17006   5.385   0.227   7.963 -0.9099 -2.1752 -2.9277
  154SAPE   C1117007   5.406   0.022   8.053  0.0743  0.6014  0.4041
  154SAPE  H11A17008   5.402  -0.027   7.953 -0.2174  2.3487 -0.4716
  154SAPE  H11B17009   5.355  -0.049   8.122 -1.1175 -0.5576 -1.5539
  154SAPE     P17010   5.626  -0.105   8.112  0.0767  0.2586 -0.2978
  154SAPE   O1317011   5.749  -0.077   8.190 -0.2471 -0.4811  0.0476
  154SAPE   O1417012   5.535  -0.196   8.188  0.4362 -0.1587  0.0515
  154SAPE   O1217013   5.539   0.030   8.097  0.5190 -0.7118  0.2386
  154SAPE   O1117014   5.648  -0.155   7.969 -0.1841 -0.2248  0.3917
  154SAPE    C117015   5.722  -0.084   7.870  0.3633 -0.7620  1.0836
  154SAPE    HA17016   5.782  -0.003   7.918  0.9745 -1.9087  2.3485
  154SAPE    HB17017   5.806  -0.142   7.826 -0.5760 -0.2711 -1.5425
  154SAPE    C217018   5.624  -0.027   7.760  0.3248 -0.6686 -0.4533
  154SAPE    HS17019   5.563   0.048   7.815  0.7346  0.3581 -1.3754
  154SAPE   O2117020   5.540  -0.139   7.716 -0.2153 -0.4509  0.0439
  154SAPE   C2117021   5.416  -0.100   7.665  0.6347  1.3430 -0.0664
  154SAPE   O2217022   5.384   0.018   7.649 -0.3215  0.0201  0.5613
  154SAPE   C2217023   5.331  -0.223   7.657 -0.3405  0.6723 -0.3250
  154SAPE   H2R17024   5.386  -0.311   7.618  0.0220  0.3676  0.8413
  154SAPE   H2S17025   5.314  -0.249   7.763  2.2883  0.3152  0.0529
  154SAPE    C317026   5.693   0.048   7.641  0.7852  1.0356 -0.6783
  154SAPE    HX17027   5.757   0.121   7.695  2.4038 -1.4419  0.9608
  154SAPE    HY17028   5.623   0.107   7.578  0.2140 -0.4205 -1.4519
  154SAPE   O3117029   5.763  -0.037   7.547  0.4991  0.2448 -0.0042
  154SAPE   C3117030   5.859   0.027   7.476 -0.1111  0.9373 -0.5626
  154SAPE   O3217031   5.900   0.136   7.503  0.3831 -0.1131 -0.7991
  154SAPE   C3217032   5.896  -0.053   7.354 -0.6972  0.5672 -0.0194
  154SAPE   H2X17033   5.797  -0.086   7.317 -0.5175 -0.8731  0.7040
  154SAPE   H2Y17034   5.948  -0.146   7.383 -1.0287 -0.2851 -2.0012
  154SAPE   C2317035   5.198  -0.188   7.583  0.6030  0.2817  0.4176
  154SAPE   H3R17036   5.227  -0.169   7.477 -0.3307 -0.4497  0.0204
  154SAPE   H3S17037   5.156  -0.098   7.633  0.2126 -0.3190  1.1885
  154SAPE   C2417038   5.092  -0.296   7.609  0.6215 -0.3882  0.1120
  154SAPE   H4R17039   4.994  -0.259   7.573  0.6579 -0.6720 -0.2953
  154SAPE   H4S17040   5.084  -0.301   7.719 -0.8789 -0.4461  0.0200
  154SAPE   C2517041   5.112  -0.434   7.543  0.3901 -0.1290  0.2113
  154SAPE   H5R17042   5.143  -0.516   7.609  1.2415  1.3231  1.6517
  154SAPE   C2617043   5.059  -0.473   7.426 -0.1708 -0.3344  0.8463
  154SAPE   H6R17044   5.061  -0.580   7.399 -1.3261 -0.3603  0.8338
  154SAPE   C2717045   4.997  -0.381   7.317  0.1030  0.4763  0.0294
  154SAPE   H7R17046   4.977  -0.276   7.347  0.5897  0.2249  1.3039
  154SAPE   H7S17047   4.894  -0.420   7.304 -0.0550  1.0077 -0.3613
  154SAPE   C2817048   5.071  -0.383   7.187  0.6946 -0.0881 -1.0376
  154SAPE   H8R17049   5.176  -0.417   7.190  0.6714 -0.1155 -0.2099
  154SAPE   C2917050   5.014  -0.348   7.064  0.5394 -0.0178 -0.4803
  154SAPE   H9R17051   5.071  -0.363   6.971  0.5985 -0.6543 -0.3459
  154SAPE  C21017052   4.878  -0.283   7.028 -0.3373 -0.1010 -0.7117
  154SAPE  H10R17053   4.835  -0.236   7.119  0.8852  0.3007 -0.3288
  154SAPE  H10S17054   4.817  -0.370   6.996  0.2944  0.0754 -2.5354
  154SAPE  C21117055   4.884  -0.193   6.915  0.1868 -0.6025 -0.0005
  154SAPE  H11R17056   4.897  -0.085   6.936 -0.1388 -0.4137 -0.7584
  154SAPE  C21217057   4.894  -0.227   6.783 -0.3005  0.6549 -0.0576
  154SAPE  H12R17058   4.888  -0.144   6.711  2.4970  2.1831  1.2888
  154SAPE  C21317059   4.902  -0.363   6.723  0.3679  0.2635  0.3297
  154SAPE  H13R17060   4.831  -0.374   6.639 -1.6659 -1.0344  2.0954
  154SAPE  H13S17061   4.872  -0.447   6.790 -0.5129  0.2447 -0.0757
  154SAPE  C21417062   5.035  -0.408   6.677  0.3226 -0.0286  0.2719
  154SAPE  H14R17063   5.097  -0.468   6.745 -0.3658 -1.6648 -0.4872
  154SAPE  C21517064   5.085  -0.392   6.553 -0.2937  0.0716  0.0853
  154SAPE  H15R17065   5.186  -0.431   6.531 -0.6590 -0.4835 -0.6661
  154SAPE  C21617066   5.023  -0.309   6.446  0.0373 -0.2086  0.5029
  154SAPE  H16R17067   5.105  -0.249   6.402  0.0886 -1.1342 -0.7323
  154SAPE  H16S17068   4.940  -0.242   6.478 -0.4010 -0.4443 -0.1160
  154SAPE  C21717069   4.976  -0.397   6.328 -0.0254 -0.1672 -0.3233
  154SAPE  H17R17070   4.916  -0.477   6.377  0.2179  0.2101  0.6213
  154SAPE  H17S17071   5.060  -0.450   6.279  1.5555  1.6336  0.3142
  154SAPE  C21817072   4.902  -0.311   6.226  0.0890 -0.2538  0.1222
  154SAPE  H18R17073   4.957  -0.225   6.183 -0.4159 -1.3327 -2.9978
  154SAPE  H18S17074   4.809  -0.276   6.275  0.9162  1.6025  0.4377
  154SAPE  C21917075   4.867  -0.396   6.101  0.1642  0.4566  0.0125
  154SAPE  H19R17076   4.783  -0.362   6.037 -0.0900 -1.9268 -1.0170
  154SAPE  H19S17077   4.827  -0.494   6.133 -0.8264  0.3424 -1.4726
  154SAPE  C22017078   4.989  -0.411   6.007 -0.3999  0.2108 -0.1448
  154SAPE  H20R17079   4.964  -0.481   5.925  2.2110 -2.3347  1.0470
  154SAPE  H20S17080   5.079  -0.445   6.062  0.2453  1.8032 -0.1648
  154SAPE  H20T17081   5.017  -0.313   5.963 -0.3707  0.4038  0.3050
  154SAPE   C3317082   5.964   0.005   7.223  0.4785 -0.1265  0.3054
  154SAPE   H3X17083   6.071   0.004   7.255  0.4152 -1.1579  0.5379
  154SAPE   H3Y17084   5.932   0.108   7.199  2.2487  0.5195  0.5798
  154SAPE   C3417085   5.938  -0.088   7.104  0.0619  0.8319 -0.4808
  154SAPE   H4X17086   5.828  -0.107   7.103  0.4052 -1.4142 -1.6554
  154SAPE   H4Y17087   5.984  -0.187   7.123 -0.4937  0.9776  2.1263
  154SAPE   C3517088   5.981  -0.022   6.975 -0.3990  0.3488  0.0659
  154SAPE   H5X17089   6.092  -0.007   6.979 -0.0263 -1.5455 -1.5835
  154SAPE   H5Y17090   5.930   0.076   6.963 -1.0424  0.0536  0.3662
  154SAPE   C3617091   5.940  -0.104   6.856 -0.1326 -0.6831  0.1332
  154SAPE   H6X17092   5.829  -0.096   6.855 -0.4475 -3.6342  1.7304
  154SAPE   H6Y17093   5.971  -0.209   6.870  0.6955 -0.4314  0.2360
  154SAPE   C3717094   6.023  -0.060   6.733 -0.8789 -0.4791  0.0232
  154SAPE   H7X17095   6.126  -0.063   6.774 -0.2957  0.4828 -1.3080
  154SAPE   H7Y17096   6.001   0.046   6.709  1.4262  0.3633  1.2944
  154SAPE   C3817097   6.013  -0.155   6.612 -0.3725  0.2469  0.5772
  154SAPE   H8X17098   5.909  -0.166   6.576  1.0070 -2.1784 -3.3730
  154SAPE   H8Y17099   6.057  -0.254   6.639  2.9004  1.6699  0.9085
  154SAPE   C3917100   6.095  -0.117   6.489 -0.0319  0.4499  0.4117
  154SAPE   H9X17101   6.088  -0.202   6.419 -3.2985  0.5854  0.4322
  154SAPE   H9Y17102   6.200  -0.088   6.514 -0.1872 -1.9088  4.6152
  154SAPE  C31017103   6.033   0.003   6.412  0.0010  1.0115 -0.4306
  154SAPE  H10X17104   6.029   0.089   6.481 -1.8322 -0.5735  1.5800
  154SAPE  H10Y17105   5.931  -0.024   6.377  0.7165  0.4518 -2.2034
  154SAPE  C31117106   6.096   0.047   6.277 -0.6245  0.7321  0.1569
  154SAPE  H11X17107   6.191   0.097   6.305  0.5302 -0.6470 -1.1770
  154SAPE  H11Y17108   6.035   0.122   6.222 -2.8878 -3.1779 -3.2829
  154SAPE  C31217109   6.133  -0.071   6.187 -0.5302 -0.1099  0.6415
  154SAPE  H12X17110   6.203  -0.138   6.241 -0.5214 -0.1173  0.6210
  154SAPE  H12Y17111   6.187  -0.022   6.103  1.2559 -2.2196  0.4883
  154SAPE  C31317112   6.009  -0.143   6.136 -0.4801  0.3948  0.1539
  154SAPE  H13X17113   5.962  -0.066   6.072  3.2921  1.8566 -1.1486
  154SAPE  H13Y17114   5.951  -0.165   6.228 -0.2698  0.6991  0.3599
  154SAPE  C31417115   6.043  -0.265   6.052 -0.3694 -0.1958  0.0489
  154SAPE  H14X17116   6.088  -0.344   6.116  1.2792  0.7624  0.1171
  154SAPE  H14Y17117   6.124  -0.243   5.979  0.1524  1.9268  1.1801
  154SAPE  C31517118   5.918  -0.324   5.984 -0.1301 -0.0904  0.5465
  154SAPE  H15X17119   5.857  -0.233   5.962  0.9216  0.7227  0.9193
  154SAPE  H15Y17120   5.871  -0.393   6.056 -1.5229  0.8145  0.5541
  154SAPE  C31617121   5.948  -0.403   5.857 -0.6355  0.9384 -0.1367
  154SAPE  H16X17122   6.024  -0.478   5.887  0.2326  2.1795  0.8309
  154SAPE  H16Y17123   5.998  -0.336   5.784  0.8729  0.6460  0.5910
  154SAPE  C31717124   5.828  -0.449   5.780  0.2017  0.2401  0.4251
  154SAPE  H17X17125   5.773  -0.364   5.734  0.4788  0.4272  0.4355
  154SAPE  H17Y17126   5.753  -0.493   5.850 -0.8975  1.4737  0.0668
  154SAPE  C31817127   5.854  -0.559   5.683  0.4106 -0.1938 -0.0507
  154SAPE  H18X17128   5.910  -0.646   5.725  0.9395  0.3831  0.4510
  154SAPE  H18Y17129   5.911  -0.526   5.593  0.2846  0.0909 -0.0264
  154SAPE  H18Z17130   5.761  -0.597   5.635  2.1696 -2.5350 -1.9263
  155SAPE     N17131   5.124   2.051   8.623  0.3930 -0.4776 -0.1678
  155SAPE   HN117132   5.115   2.103   8.533 -0.0333 -1.9717 -1.0263
  155SAPE   HN217133   5.026   2.033   8.655  0.1903  1.4565  0.4396
  155SAPE   HN317134   5.166   2.111   8.697 -1.7271  1.2868 -0.2730
  155SAPE   C1217135   5.185   1.916   8.603 -0.1605  0.3360  0.2914
  155SAPE  H12A17136   5.152   1.853   8.688  2.5946 -0.9789  0.5047
  155SAPE  H12B17137   5.295   1.932   8.597 -0.0211 -0.9239 -1.1736
  155SAPE   C1117138   5.140   1.852   8.463 -0.0376 -0.1033  0.5326
  155SAPE  H11A17139   5.031   1.844   8.442 -0.0096  0.2562  0.2431
  155SAPE  H11B17140   5.187   1.751   8.475  0.8479  0.4749  2.2450
  155SAPE     P17141   5.303   1.857   8.246  0.2018 -0.5597  0.6460
  155SAPE   O1317142   5.414   1.953   8.227 -0.1100 -0.0603  0.2498
  155SAPE   O1417143   5.340   1.720   8.286 -0.2792 -0.1624  0.1214
  155SAPE   O1217144   5.201   1.919   8.351  0.0689  0.1399 -0.2705
  155SAPE   O1117145   5.231   1.853   8.106 -0.4604  0.5977  0.2831
  155SAPE    C117146   5.130   1.754   8.075 -0.6575 -0.1190 -0.1359
  155SAPE    HA17147   5.121   1.676   8.153 -0.5742 -0.5189 -0.5214
  155SAPE    HB17148   5.030   1.801   8.081  0.9251  3.8576 -1.5700
  155SAPE    C217149   5.154   1.685   7.940 -0.3730  0.5126  0.0558
  155SAPE    HS17150   5.222   1.601   7.965 -0.2739  0.8654  1.0097
  155SAPE   O2117151   5.211   1.782   7.852  0.1197 -0.1202 -0.2494
  155SAPE   C2117152   5.341   1.789   7.845  0.4681  0.3950 -0.6755
  155SAPE   O2217153   5.416   1.717   7.911  0.4821 -0.0781 -0.9735
  155SAPE   C2217154   5.386   1.895   7.748 -0.5355 -0.1864 -0.2956
  155SAPE   H2R17155   5.369   1.988   7.806  0.8851  0.0379 -0.2045
  155SAPE   H2S17156   5.496   1.879   7.745 -0.7009 -1.7481  0.7653
  155SAPE    C317157   5.022   1.628   7.871 -0.1438 -0.7242  0.4015
  155SAPE    HX17158   4.983   1.544   7.932  0.5545 -2.1534 -1.0360
  155SAPE    HY17159   5.049   1.576   7.777 -2.0126  0.6024 -0.9406
  155SAPE   O3117160   4.918   1.726   7.857  0.5262  0.0479  0.1154
  155SAPE   C3117161   4.832   1.712   7.755  0.1760  0.2680 -0.3622
  155SAPE   O3217162   4.822   1.609   7.688  0.1560  0.2948 -0.0412
  155SAPE   C3217163   4.774   1.846   7.716  0.8833  0.2477 -0.2687
  155SAPE   H2X17164   4.832   1.889   7.631  0.1502  1.2151 -0.2999
  155SAPE   H2Y17165   4.785   1.914   7.804 -2.5235  0.2050  0.3080
  155SAPE   C2317166   5.327   1.892   7.608  0.3593 -0.1768  0.3544
  155SAPE   H3R17167   5.370   1.978   7.552  1.6847 -1.7650 -1.2008
  155SAPE   H3S17168   5.217   1.908   7.612  0.6322  1.9695  0.2421
  155SAPE   C2417169   5.375   1.772   7.526 -0.0833  0.7902  0.2304
  155SAPE   H4R17170   5.484   1.762   7.546 -0.2569  2.3865  2.2747
  155SAPE   H4S17171   5.378   1.796   7.417 -1.1019  0.9093  0.2218
  155SAPE   C2517172   5.293   1.653   7.563 -0.1091 -1.4073 -0.6436
  155SAPE   H5R17173   5.337   1.592   7.644  3.2603  1.6422  0.0725
  155SAPE   C2617174   5.187   1.623   7.497 -0.2824 -0.3489  0.1148
  155SAPE   H6R17175   5.117   1.541   7.516  0.6710 -1.5283 -1.2670
  155SAPE   C2717176   5.126   1.697   7.377  0.1893 -0.2535  0.0353
  155SAPE   H7R17177   5.152   1.648   7.281  1.3255  1.0440 -0.3582
  155SAPE   H7S17178   5.172   1.798   7.371  1.7767 -0.7488  2.2987
  155SAPE   C2817179   4.980   1.700   7.395  0.3737  0.0624  1.0362
  155SAPE   H8R17180   4.944   1.720   7.497 -1.4033  0.4380  0.3766
  155SAPE   C2917181   4.882   1.682   7.304  0.3045  0.0603  0.1391
  155SAPE   H9R17182   4.782   1.719   7.329  1.2503  2.4066  0.7638
  155SAPE  C21017183   4.898   1.647   7.157  0.8530 -0.5343  0.3307
  155SAPE  H10R17184   4.792   1.628   7.128  0.6070 -0.1668  0.9565
  155SAPE  H10S17185   4.966   1.561   7.141  1.0774 -0.2443 -0.3021
  155SAPE  C21117186   4.958   1.769   7.081 -0.9309  0.0753  0.2792
  155SAPE  H11R17187   4.983   1.862   7.134  0.9260 -0.7585  0.9503
  155SAPE  C21217188   4.963   1.766   6.948  0.0317  0.2728  0.0875
  155SAPE  H12R17189   5.020   1.848   6.901  1.2068 -1.0728 -0.9365
  155SAPE  C21317190   4.928   1.658   6.853  0.1392 -0.7115  0.6989
  155SAPE  H13R17191   4.819   1.638   6.852 -0.2196  0.6275  3.0278
  155SAPE  H13S17192   4.975   1.571   6.904  0.1059  0.7130  3.3616
  155SAPE  C21417193   4.987   1.691   6.718  0.3005 -0.4883  0.2874
  155SAPE  H14R17194   4.935   1.773   6.666 -2.5136 -1.2224  1.7226
  155SAPE  C21517195   5.082   1.619   6.653  0.3594  0.5665 -0.5599
  155SAPE  H15R17196   5.110   1.655   6.553  0.5403 -0.5272 -0.9224
  155SAPE  C21617197   5.146   1.494   6.712  0.0163  0.0775 -0.6041
  155SAPE  H16R17198   5.125   1.455   6.814  2.5645  0.5421  0.1730
  155SAPE  H16S17199   5.256   1.507   6.720  0.2256 -1.5657 -0.4844
  155SAPE  C21717200   5.131   1.379   6.613  0.9039  0.1832 -0.1632
  155SAPE  H17R17201   5.173   1.407   6.514  2.2249  0.1701  0.3777
  155SAPE  H17S17202   5.023   1.351   6.618  0.8650  0.3673  0.0182
  155SAPE  C21817203   5.196   1.240   6.643 -0.0879 -0.0639 -0.5614
  155SAPE  H18R17204   5.145   1.160   6.585 -2.1738 -0.0734  1.1400
  155SAPE  H18S17205   5.170   1.206   6.746 -1.7358  0.2532 -0.8407
  155SAPE  C21917206   5.349   1.221   6.636 -0.1726  0.5450  0.9986
  155SAPE  H19R17207   5.400   1.301   6.693 -0.7332 -0.2500  2.6962
  155SAPE  H19S17208   5.389   1.219   6.532  0.7067  0.8166  1.3258
  155SAPE  C22017209   5.391   1.090   6.709  0.5976  0.0514 -0.3707
  155SAPE  H20R17210   5.367   0.999   6.650 -0.6337 -0.4051  0.7869
  155SAPE  H20S17211   5.335   1.097   6.805 -1.9641  0.8236 -1.8290
  155SAPE  H20T17212   5.502   1.091   6.719  0.6259 -1.5377 -0.2511
  155SAPE   C3317213   4.618   1.838   7.681 -0.5729  0.2233 -0.8811
  155SAPE   H3X17214   4.558   1.788   7.760 -0.4882  1.1008 -0.2432
  155SAPE   H3Y17215   4.609   1.777   7.589  0.4441 -3.0636  1.0472
  155SAPE   C3417216   4.552   1.975   7.650 -0.1035 -0.0164  0.1331
  155SAPE   H4X17217   4.573   2.049   7.730  2.0313 -1.6907  1.2328
  155SAPE   H4Y17218   4.441   1.965   7.642 -0.0210 -0.3478 -0.6137
  155SAPE   C3517219   4.599   2.035   7.513  0.5144 -0.8695  0.1602
  155SAPE   H5X17220   4.710   2.040   7.514  0.5637 -1.5736 -1.0053
  155SAPE   H5Y17221   4.561   2.139   7.508  3.6917  0.3518 -2.4366
  155SAPE   C3617222   4.561   1.961   7.379  0.4915  0.4772  0.3035
  155SAPE   H6X17223   4.454   1.949   7.405  0.9932 -0.8244  1.9583
  155SAPE   H6Y17224   4.616   1.865   7.370 -0.8512 -0.3474  0.5796
  155SAPE   C3717225   4.575   2.040   7.241 -0.6789  0.1014 -0.9321
  155SAPE   H7X17226   4.580   2.146   7.274  5.2525 -0.5020  1.2709
  155SAPE   H7Y17227   4.482   2.026   7.181  0.1214  1.1818 -2.4840
  155SAPE   C3817228   4.703   2.005   7.162 -0.1069  0.0063 -0.0068
  155SAPE   H8X17229   4.707   1.897   7.137  1.0954 -0.4253  1.8540
  155SAPE   H8Y17230   4.786   2.021   7.234 -0.8599 -3.4813  1.8487
  155SAPE   C3917231   4.733   2.091   7.041  0.2228 -0.6949  0.5952
  155SAPE   H9X17232   4.837   2.080   7.003  0.3657  3.0668 -0.5841
  155SAPE   H9Y17233   4.727   2.201   7.061 -2.4738 -0.2654 -1.8767
  155SAPE  C31017234   4.638   2.056   6.921  0.1066 -0.5812 -0.5921
  155SAPE  H10X17235   4.538   2.104   6.926 -0.6489 -2.0448 -0.9908
  155SAPE  H10Y17236   4.619   1.947   6.921 -0.5677 -0.4888  1.2530
  155SAPE  C31117237   4.712   2.081   6.793 -0.3658  0.7866 -0.5216
  155SAPE  H11X17238   4.793   2.006   6.779  1.1864  2.5725 -1.7281
  155SAPE  H11Y17239   4.773   2.174   6.798 -0.2316  0.7464 -1.2949
  155SAPE  C31217240   4.627   2.102   6.671 -0.0712  0.5122  0.2179
  155SAPE  H12X17241   4.554   2.184   6.689 -1.9066 -1.6600  3.6896
  155SAPE  H12Y17242   4.571   2.012   6.639 -0.2143  0.3947  0.7882
  155SAPE  C31317243   4.717   2.148   6.553 -0.5303 -0.0707  0.5215
  155SAPE  H13X17244   4.810   2.088   6.545  1.4007  2.8598 -0.8225
  155SAPE  H13Y17245   4.746   2.250   6.585 -0.9461 -0.3745  1.9258
  155SAPE  C31417246   4.647   2.156   6.417  0.4006 -0.5183  0.6972
  155SAPE  H14X17247   4.554   2.214   6.434  0.6950  0.6312 -1.2845
  155SAPE  H14Y17248   4.617   2.052   6.393 -0.1889 -0.0368 -0.7283
  155SAPE  C31517249   4.741   2.222   6.303  0.2855  0.2634 -0.6721
  155SAPE  H15X17250   4.839   2.171   6.313 -0.0255 -0.6572 -2.0159
  155SAPE  H15Y17251   4.752   2.330   6.324  2.0294  0.6254 -3.1042
  155SAPE  C31617252   4.692   2.207   6.162  0.7040  0.4597 -0.3381
  155SAPE  H16X17253   4.630   2.297   6.146  2.5917  1.6234 -1.4871
  155SAPE  H16Y17254   4.625   2.118   6.159 -0.0298  0.8888  1.9940
  155SAPE  C31717255   4.807   2.215   6.068 -0.5779  0.5725  0.2024
  155SAPE  H17X17256   4.771   2.160   5.979 -2.3278 -1.7063  2.1896
  155SAPE  H17Y17257   4.897   2.165   6.110 -1.4709 -0.0653  1.4356
  155SAPE  C31817258   4.836   2.365   6.036  0.5998 -0.0583 -0.5134
  155SAPE  H18X17259   4.928   2.378   5.975 -0.7599  0.3637 -2.5867
  155SAPE  H18Y17260   4.854   2.414   6.134  0.9828  1.1472 -1.1691
  155SAPE  H18Z17261   4.756   2.414   5.975  1.7595 -0.0652 -2.1061
  156SAPE     N17262   1.919   0.700   8.208 -0.6960 -0.8305  0.3599
  156SAPE   HN117263   1.835   0.733   8.156 -1.0292  0.1781  1.4858
  156SAPE   HN217264   1.878   0.696   8.304  1.4837  2.0685  1.5678
  156SAPE   HN317265   1.990   0.775   8.211 -0.5144 -1.0261  2.2892
  156SAPE   C1217266   1.987   0.565   8.167  0.7380  0.1443 -0.4826
  156SAPE  H12A17267   2.049   0.516   8.245  1.2599 -0.1246 -1.0595
  156SAPE  H12B17268   2.054   0.589   8.082 -0.1527 -2.6540 -2.0961
  156SAPE   C1117269   1.878   0.461   8.118  0.9429 -0.0781  0.3262
  156SAPE  H11A17270   1.931   0.366   8.096 -0.4306 -0.5018 -1.4203
  156SAPE  H11B17271   1.843   0.488   8.016  2.1714 -0.4230 -0.2019
  156SAPE     P17272   1.698   0.308   8.243 -0.0465 -0.2361  0.4262
  156SAPE   O1317273   1.780   0.235   8.349 -0.1657 -0.2046 -0.3070
  156SAPE   O1417274   1.551   0.319   8.278 -0.4738 -0.0258  0.1078
  156SAPE   O1217275   1.774   0.444   8.211  0.0679  0.5070 -0.0574
  156SAPE   O1117276   1.715   0.229   8.103 -0.2291 -0.2811  0.2138
  156SAPE    C117277   1.618   0.233   7.995 -0.0334 -0.0825  0.0142
  156SAPE    HA17278   1.550   0.145   7.998 -0.8737  0.5393 -0.4063
  156SAPE    HB17279   1.552   0.320   8.013 -0.6809 -1.0617  2.7985
  156SAPE    C217280   1.704   0.248   7.867  0.3777  0.0015 -0.3900
  156SAPE    HS17281   1.775   0.333   7.881 -0.3119  0.3638  1.0275
  156SAPE   O2117282   1.604   0.273   7.764  0.0550  0.0615  0.7350
  156SAPE   C2117283   1.640   0.354   7.667  0.6878 -0.6792 -0.5000
  156SAPE   O2217284   1.750   0.402   7.655  0.0181 -0.0198  0.6222
  156SAPE   C2217285   1.520   0.380   7.583  0.6975 -0.0462  0.5136
  156SAPE   H2R17286   1.434   0.343   7.643 -0.2002  1.6122  0.3053
  156SAPE   H2S17287   1.499   0.488   7.589  3.1067  0.4465  1.4588
  156SAPE    C317288   1.784   0.118   7.834  0.6943 -0.2333 -1.3617
  156SAPE    HX17289   1.837   0.086   7.926 -2.0095 -0.6572  0.1572
  156SAPE    HY17290   1.855   0.133   7.751 -0.5475  4.1087 -1.9048
  156SAPE   O3117291   1.689   0.004   7.813  0.2864 -0.0598 -0.0484
  156SAPE   C3117292   1.666  -0.025   7.690 -0.0143  0.5880 -0.3938
  156SAPE   O3217293   1.720   0.031   7.598 -0.2077 -0.5997  0.7005
  156SAPE   C3217294   1.565  -0.136   7.670 -0.1458 -0.5629 -0.5612
  156SAPE   H2X17295   1.471  -0.081   7.692  1.6432  2.4979  0.1427
  156SAPE   H2Y17296   1.590  -0.217   7.741  0.3516  1.0926  1.2321
  156SAPE   C2317297   1.526   0.304   7.450 -0.0989 -0.2588  0.9990
  156SAPE   H3R17298   1.424   0.305   7.407  0.3686 -1.4064 -0.1946
  156SAPE   H3S17299   1.553   0.196   7.452  2.1500  0.2150 -0.2305
  156SAPE   C2417300   1.631   0.359   7.360 -0.4896  0.0060 -0.0025
  156SAPE   H4R17301   1.646   0.295   7.270  0.9300 -0.5553  0.6023
  156SAPE   H4S17302   1.732   0.345   7.404 -0.7915  0.4413  0.8526
  156SAPE   C2517303   1.598   0.495   7.312 -0.1125  0.6975  0.7504
  156SAPE   H5R17304   1.637   0.573   7.380 -1.4883  0.5277  1.7820
  156SAPE   C2617305   1.562   0.526   7.182  0.2806  0.0571 -0.4354
  156SAPE   H6R17306   1.556   0.633   7.155 -4.5003  0.1060 -0.0101
  156SAPE   C2717307   1.537   0.424   7.076  0.1713  0.5168  1.0571
  156SAPE   H7R17308   1.432   0.446   7.047  0.1247  1.4674  1.8648
  156SAPE   H7S17309   1.539   0.323   7.121  2.7108  0.5313  1.1501
  156SAPE   C2817310   1.633   0.429   6.953  0.3442  0.7614 -0.1810
  156SAPE   H8R17311   1.729   0.377   6.969 -0.7324 -0.9100  1.1828
  156SAPE   C2917312   1.608   0.475   6.834 -0.5265  0.2278 -0.2669
  156SAPE   H9R17313   1.686   0.462   6.757  0.2592  1.0231  0.3860
  156SAPE  C21017314   1.487   0.557   6.792 -0.9949  0.7145  0.0962
  156SAPE  H10R17315   1.508   0.665   6.806 -1.2478  0.5718  1.8490
  156SAPE  H10S17316   1.399   0.541   6.859 -0.1264 -3.8569  0.4562
  156SAPE  C21117317   1.468   0.530   6.644  0.1629 -0.2648 -0.6510
  156SAPE  H11R17318   1.494   0.428   6.611  0.7484 -0.7898  1.3056
  156SAPE  C21217319   1.405   0.609   6.559  0.3603 -0.3298  0.0475
  156SAPE  H12R17320   1.396   0.575   6.455 -1.4536  1.1188 -0.3332
  156SAPE  C21317321   1.349   0.753   6.589 -0.0859  0.3432  0.1369
  156SAPE  H13R17322   1.373   0.790   6.691 -0.2336 -1.4015  0.8344
  156SAPE  H13S17323   1.240   0.738   6.605 -0.1157 -2.9272 -2.0680
  156SAPE  C21417324   1.371   0.864   6.485  0.3956  0.1068 -0.0898
  156SAPE  H14R17325   1.455   0.932   6.509  1.5088 -0.9731 -0.7774
  156SAPE  C21517326   1.306   0.890   6.372  0.4621 -0.2513 -0.5979
  156SAPE  H15R17327   1.338   0.985   6.326  0.2269 -0.7130 -1.7503
  156SAPE  C21617328   1.196   0.816   6.297 -0.4630 -0.2080  0.0267
  156SAPE  H16R17329   1.142   0.754   6.372  1.4698  0.9367  2.5462
  156SAPE  H16S17330   1.232   0.749   6.216 -0.1188 -0.3885  0.3193
  156SAPE  C21717331   1.103   0.908   6.225 -0.0707 -0.3869  0.5374
  156SAPE  H17R17332   1.052   0.981   6.293 -0.7211  0.0394 -0.3867
  156SAPE  H17S17333   1.016   0.853   6.182  0.7820 -2.5250  1.3989
  156SAPE  C21817334   1.183   0.982   6.116  0.6839 -0.5063  0.6646
  156SAPE  H18R17335   1.243   0.907   6.060 -1.4843 -1.9058  0.1091
  156SAPE  H18S17336   1.243   1.055   6.174 -0.8888  0.0342  1.6926
  156SAPE  C21917337   1.092   1.058   6.023  0.6757  1.0642 -0.2295
  156SAPE  H19R17338   1.002   1.102   6.071  0.4101  0.9682 -0.6252
  156SAPE  H19S17339   1.059   0.982   5.948  1.2792  0.2980  0.2703
  156SAPE  C22017340   1.142   1.176   5.946  0.4140 -0.3529  0.2335
  156SAPE  H20R17341   1.065   1.236   5.894  0.7724  0.2656  0.4144
  156SAPE  H20S17342   1.215   1.144   5.869  0.3387 -0.2663  0.1271
  156SAPE  H20T17343   1.192   1.248   6.015 -0.9597  0.9704 -0.1158
  156SAPE   C3317344   1.557  -0.195   7.529  0.4201  0.3017 -0.4035
  156SAPE   H3X17345   1.488  -0.281   7.545  0.5890  0.4041  1.0258
  156SAPE   H3Y17346   1.652  -0.248   7.506 -0.7324 -1.4176 -1.4165
  156SAPE   C3417347   1.487  -0.105   7.422 -0.3368  0.6325  0.4787
  156SAPE   H4X17348   1.459  -0.002   7.454  4.0500  2.9676 -2.1954
  156SAPE   H4Y17349   1.415  -0.176   7.377  2.9434 -1.1177 -2.5214
  156SAPE   C3517350   1.589  -0.070   7.312 -0.3368 -0.1826  0.4887
  156SAPE   H5X17351   1.652  -0.161   7.298  2.9744  1.7043  2.1022
  156SAPE   H5Y17352   1.664   0.004   7.345 -1.0761  0.8024  0.0278
  156SAPE   C3617353   1.529  -0.034   7.171 -0.5908  0.4338  0.1531
  156SAPE   H6X17354   1.463   0.055   7.179 -0.6271  0.4149  0.0625
  156SAPE   H6Y17355   1.467  -0.120   7.140  0.4131  0.4066 -1.9365
  156SAPE   C3717356   1.636   0.003   7.067 -0.4976  0.0003  0.0149
  156SAPE   H7X17357   1.702  -0.085   7.047 -1.8042 -0.7537 -1.2366
  156SAPE   H7Y17358   1.699   0.085   7.106 -0.2619  0.4372 -1.2443
  156SAPE   C3817359   1.575   0.044   6.932  0.0198 -0.4024  0.7970
  156SAPE   H8X17360   1.512   0.135   6.942 -0.7424 -0.4776 -2.1941
  156SAPE   H8Y17361   1.501  -0.035   6.907  0.7673 -0.7215 -0.4992
  156SAPE   C3917362   1.682   0.065   6.819 -0.2733  0.0607 -0.7679
  156SAPE   H9X17363   1.751  -0.020   6.838 -0.8585 -0.2140  0.2021
  156SAPE   H9Y17364   1.744   0.154   6.840 -1.1991  0.4889  0.2139
  156SAPE  C31017365   1.611   0.082   6.693  0.2186 -0.2184 -0.0222
  156SAPE  H10X17366   1.546   0.171   6.686  2.2669  1.5508  1.7793
  156SAPE  H10Y17367   1.552  -0.010   6.671 -1.1314 -0.1333  2.7838
  156SAPE  C31117368   1.705   0.106   6.566  0.4432  0.1504 -0.0977
  156SAPE  H11X17369   1.772   0.019   6.549  0.2334 -0.0551  0.1106
  156SAPE  H11Y17370   1.766   0.194   6.593 -2.0533  2.0179 -0.1245
  156SAPE  C31217371   1.635   0.155   6.438 -0.0203  0.5176  0.2853
  156SAPE  H12X17372   1.546   0.213   6.471 -0.4836 -0.4232  0.7389
  156SAPE  H12Y17373   1.573   0.077   6.388 -1.5501  2.7020 -1.4319
  156SAPE  C31317374   1.731   0.227   6.341  0.4080  0.3667  0.7898
  156SAPE  H13X17375   1.797   0.151   6.292 -0.4269 -0.7477  1.3371
  156SAPE  H13Y17376   1.788   0.309   6.389  0.8306  2.2245 -2.5760
  156SAPE  C31417377   1.657   0.292   6.229 -0.1662  0.0696 -0.1541
  156SAPE  H14X17378   1.579   0.358   6.273 -0.0568  1.4370 -1.9148
  156SAPE  H14Y17379   1.603   0.212   6.173 -3.8168  1.7811  0.5876
  156SAPE  C31517380   1.741   0.368   6.124 -0.0257 -0.2730  0.0992
  156SAPE  H15X17381   1.793   0.299   6.055 -2.3682 -1.9592 -0.1283
  156SAPE  H15Y17382   1.819   0.423   6.180  1.2023 -0.0148 -1.8093
  156SAPE  C31617383   1.667   0.463   6.032  0.1162  0.3535 -0.4057
  156SAPE  H16X17384   1.579   0.400   6.007  0.8170 -2.4206  3.2314
  156SAPE  H16Y17385   1.723   0.496   5.943  1.9242 -0.1148  0.5096
  156SAPE  C31717386   1.617   0.586   6.105  0.0248  0.1897 -0.1123
  156SAPE  H17X17387   1.671   0.673   6.062  1.2349 -1.5025 -2.2411
  156SAPE  H17Y17388   1.657   0.585   6.208  0.4254 -2.7020 -0.2236
  156SAPE  C31817389   1.466   0.616   6.120 -0.0096  0.2012  1.0175
  156SAPE  H18X17390   1.407   0.530   6.158 -0.8229 -0.2255 -1.0806
  156SAPE  H18Y17391   1.423   0.653   6.024 -0.8394 -2.8567  0.0956
  156SAPE  H18Z17392   1.465   0.706   6.186  2.2552  1.8826 -1.0891
  157SAPE     N17393   5.732   3.928   7.630 -0.6423  0.6180 -0.9982
  157SAPE   HN117394   5.761   3.969   7.721  0.0354 -3.2237  0.7208
  157SAPE   HN217395   5.786   3.839   7.633  0.5620  1.3546  1.0033
  157SAPE   HN317396   5.781   3.974   7.550  0.0067 -0.0440 -0.9956
  157SAPE   C1217397   5.580   3.906   7.611  0.4014 -0.4476  0.1807
  157SAPE  H12A17398   5.529   3.999   7.578 -2.7373 -2.3438 -0.7980
  157SAPE  H12B17399   5.542   3.887   7.714 -0.9653 -0.6811 -0.3412
  157SAPE   C1117400   5.541   3.784   7.528  0.9192 -0.4026  0.1749
  157SAPE  H11A17401   5.575   3.800   7.424  1.7856 -0.8876  0.3694
  157SAPE  H11B17402   5.431   3.794   7.517  0.9120  0.2660  0.8479
  157SAPE     P17403   5.696   3.580   7.531  0.3823 -0.4861  0.2632
  157SAPE   O1317404   5.805   3.679   7.552  0.3136  0.1412 -0.6010
  157SAPE   O1417405   5.706   3.457   7.605  0.4513 -0.3159 -0.1343
  157SAPE   O1217406   5.561   3.651   7.578 -0.3608 -0.2310  0.4720
  157SAPE   O1117407   5.681   3.545   7.371 -0.1556  0.0137 -0.3283
  157SAPE    C117408   5.558   3.496   7.314  0.5426  0.3987 -0.8531
  157SAPE    HA17409   5.534   3.390   7.336 -2.0120  1.3250  1.5558
  157SAPE    HB17410   5.471   3.560   7.340  0.9806  1.3057 -1.5742
  157SAPE    C217411   5.580   3.506   7.156  0.4176  0.1653  0.2828
  157SAPE    HS17412   5.487   3.477   7.103  0.9736 -0.0591 -0.6098
  157SAPE   O2117413   5.684   3.406   7.119  1.0933  0.0777 -0.5174
  157SAPE   C2117414   5.649   3.317   7.021 -0.6645 -0.8089 -0.1861
  157SAPE   O2217415   5.544   3.308   6.969 -0.3803  0.3137 -0.2137
  157SAPE   C2217416   5.777   3.256   6.982 -0.2091  0.7528 -0.6748
  157SAPE   H2R17417   5.844   3.341   6.957  0.4839 -0.1289 -1.9023
  157SAPE   H2S17418   5.815   3.204   7.073 -0.0970 -0.2437 -1.2755
  157SAPE    C317419   5.617   3.655   7.110  0.0236  0.4451 -0.3852
  157SAPE    HX17420   5.723   3.678   7.136  0.6306 -0.5750 -1.8138
  157SAPE    HY17421   5.548   3.730   7.153  0.9012  1.5724 -0.8917
  157SAPE   O3117422   5.603   3.650   6.970 -0.3723  0.4356  0.5304
  157SAPE   C3117423   5.480   3.693   6.922 -0.7003  0.0999  0.1592
  157SAPE   O3217424   5.387   3.733   6.987 -0.8524  1.0882 -0.9346
  157SAPE   C3217425   5.475   3.653   6.773 -0.3599  0.8436  0.7963
  157SAPE   H2X17426   5.517   3.550   6.771  0.3806  1.0678 -2.8356
  157SAPE   H2Y17427   5.547   3.725   6.728  1.0101 -0.6497  0.5192
  157SAPE   C2317428   5.771   3.154   6.867 -0.4977  0.8115  0.6602
  157SAPE   H3R17429   5.750   3.193   6.765 -1.1708 -2.1335 -0.4262
  157SAPE   H3S17430   5.685   3.088   6.889 -0.6401  0.3022 -1.2133
  157SAPE   C2417431   5.907   3.090   6.857  0.1176 -0.2851 -0.2127
  157SAPE   H4R17432   5.934   3.059   6.961 -0.3961  1.0400  0.3304
  157SAPE   H4S17433   5.990   3.163   6.844  0.5769 -0.8116 -0.3069
  157SAPE   C2517434   5.905   2.983   6.756  0.7055 -0.4130 -0.1001
  157SAPE   H5R17435   5.883   2.879   6.784  0.1770  0.2374  2.0261
  157SAPE   C2617436   5.945   2.996   6.632 -0.2641  0.8311  0.4972
  157SAPE   H6R17437   5.935   2.907   6.568  0.1742  0.0288  1.5077
  157SAPE   C2717438   5.995   3.113   6.550  0.2371  0.1064 -0.2076
  157SAPE   H7R17439   5.999   3.196   6.624  0.2114 -0.1012  0.0301
  157SAPE   H7S17440   5.918   3.145   6.476  1.8299  2.3771 -0.9911
  157SAPE   C2817441   6.131   3.097   6.495 -0.0065  0.2066  0.0214
  157SAPE   H8R17442   6.211   3.093   6.571 -0.0221  1.0521  0.0917
  157SAPE   C2917443   6.157   3.106   6.364 -0.5782 -0.2797  0.1076
  157SAPE   H9R17444   6.261   3.117   6.330 -0.8691  1.9830 -0.1789
  157SAPE  C21017445   6.058   3.112   6.245  0.3738 -0.3927 -0.3212
  157SAPE  H10R17446   5.960   3.074   6.279  0.3316  0.2676  0.3102
  157SAPE  H10S17447   6.095   3.051   6.160  0.0325 -1.4869  0.2930
  157SAPE  C21117448   6.033   3.259   6.208 -0.3535  0.0754 -0.9921
  157SAPE  H11R17449   6.045   3.326   6.294  1.6497  0.4340 -1.5026
  157SAPE  C21217450   6.037   3.316   6.091  0.5486  0.3025 -0.3012
  157SAPE  H12R17451   6.016   3.424   6.092  0.9607  0.3969 -1.0534
  157SAPE  C21317452   6.019   3.252   5.959 -0.3644 -0.4525 -0.3506
  157SAPE  H13R17453   6.044   3.144   5.958  0.5489 -0.2666 -1.9139
  157SAPE  H13S17454   6.096   3.290   5.888 -0.7209  2.4293  0.6594
  157SAPE  C21417455   5.875   3.270   5.906 -0.6882  0.5556  0.7430
  157SAPE  H14R17456   5.859   3.364   5.852 -0.8387  0.5202  0.7257
  157SAPE  C21517457   5.764   3.207   5.940  0.6042 -0.2882 -0.9401
  157SAPE  H15R17458   5.671   3.237   5.888  0.0241 -2.9386 -1.5921
  157SAPE  C21617459   5.746   3.098   6.046 -0.3529 -0.4088 -0.3591
  157SAPE  H16R17460   5.838   3.043   6.075 -0.2873 -0.1331 -0.0361
  157SAPE  H16S17461   5.681   3.014   6.016  0.7989 -1.6616  0.5491
  157SAPE  C21717462   5.669   3.160   6.167  0.1268 -0.2360 -0.1077
  157SAPE  H17R17463   5.719   3.249   6.209  0.0865  1.3097 -3.0604
  157SAPE  H17S17464   5.664   3.080   6.244 -0.9601 -0.1187 -0.0363
  157SAPE  C21817465   5.520   3.205   6.133 -0.5736 -0.0477  0.2398
  157SAPE  H18R17466   5.486   3.124   6.066  0.6659 -0.5490  0.1949
  157SAPE  H18S17467   5.500   3.300   6.078 -0.5227 -0.1373  0.0670
  157SAPE  C21917468   5.427   3.202   6.254  0.7267  0.0899 -0.3614
  157SAPE  H19R17469   5.417   3.103   6.303 -2.8987  0.8471  0.7658
  157SAPE  H19S17470   5.328   3.216   6.206  0.7726 -0.2717 -0.5623
  157SAPE  C22017471   5.448   3.312   6.360  0.7509 -0.3884  0.3758
  157SAPE  H20R17472   5.531   3.287   6.430  1.2579 -1.0830 -0.4438
  157SAPE  H20S17473   5.355   3.314   6.421  1.2078 -0.8658  1.1054
  157SAPE  H20T17474   5.460   3.414   6.319  2.0175  0.6220  3.0797
  157SAPE   C3317475   5.352   3.664   6.698  0.3690 -0.1321 -0.0452
  157SAPE   H3X17476   5.326   3.771   6.704  0.0575 -0.1871 -0.3607
  157SAPE   H3Y17477   5.264   3.599   6.716  0.4454  0.0618  1.1141
  157SAPE   C3417478   5.387   3.640   6.547 -0.3017  0.2746 -0.7895
  157SAPE   H4X17479   5.407   3.535   6.518 -1.9337 -0.1138 -0.5890
  157SAPE   H4Y17480   5.482   3.695   6.526  0.9387 -0.6801  1.8501
  157SAPE   C3517481   5.288   3.708   6.456 -0.0308  0.7341  0.4486
  157SAPE   H5X17482   5.276   3.818   6.471 -0.3172  1.2297 -2.7082
  157SAPE   H5Y17483   5.190   3.659   6.474  0.6016 -1.2259 -1.1187
  157SAPE   C3617484   5.324   3.696   6.304  0.1001 -0.1412 -0.4685
  157SAPE   H6X17485   5.377   3.603   6.275 -0.0504 -0.6946  0.9502
  157SAPE   H6Y17486   5.398   3.779   6.293  0.0871 -0.1126 -0.3473
  157SAPE   C3717487   5.205   3.726   6.206 -0.3989 -0.4104  0.1576
  157SAPE   H7X17488   5.235   3.782   6.114  0.5950  1.5469  1.5789
  157SAPE   H7Y17489   5.156   3.799   6.274  0.7970  2.0059 -1.4197
  157SAPE   C3817490   5.106   3.611   6.176 -0.0978  0.3829  0.0208
  157SAPE   H8X17491   5.034   3.645   6.099  0.9619  1.0056 -0.7137
  157SAPE   H8Y17492   5.039   3.588   6.261 -0.0755 -0.0043 -0.0643
  157SAPE   C3917493   5.151   3.479   6.107 -0.3383 -0.2864  0.7055
  157SAPE   H9X17494   5.213   3.415   6.173 -0.0792  0.8033  1.5449
  157SAPE   H9Y17495   5.217   3.497   6.020 -1.5332 -0.2669 -0.2163
  157SAPE  C31017496   5.026   3.394   6.065  0.1481 -0.1828  0.8301
  157SAPE  H10X17497   4.973   3.456   5.989  2.9340  0.5002 -0.6943
  157SAPE  H10Y17498   4.961   3.374   6.152 -0.6805 -0.2689  0.2060
  157SAPE  C31117499   5.063   3.256   5.993  0.2059  0.5834 -0.2515
  157SAPE  H11X17500   5.100   3.185   6.070  0.8551  1.8847  0.6824
  157SAPE  H11Y17501   5.148   3.279   5.925  0.2084 -0.1044 -0.4893
  157SAPE  C31217502   4.938   3.201   5.922 -0.3862 -0.1473  0.0745
  157SAPE  H12X17503   4.900   3.277   5.850  0.2517 -0.3818 -0.5126
  157SAPE  H12Y17504   4.858   3.166   5.991 -1.0640 -0.3995 -0.8107
  157SAPE  C31317505   4.961   3.063   5.858  0.0193  0.8013 -0.4746
  157SAPE  H13X17506   5.027   3.074   5.769  2.0463  0.8026  0.9641
  157SAPE  H13Y17507   4.871   3.013   5.817  0.6484 -1.1106  0.3515
  157SAPE  C31417508   5.026   2.947   5.944  0.0192 -0.4817  0.5056
  157SAPE  H14X17509   5.134   2.968   5.962  0.0277 -0.8765  0.9475
  157SAPE  H14Y17510   5.013   2.859   5.878 -2.1689  1.3994 -1.7326
  157SAPE  C31517511   4.956   2.921   6.078 -0.0041  0.7666 -0.7467
  157SAPE  H15X17512   4.934   3.018   6.126 -1.7893  0.1574 -0.2474
  157SAPE  H15Y17513   5.028   2.868   6.144  0.5700 -0.5258 -2.3325
  157SAPE  C31617514   4.818   2.848   6.073 -0.2860  0.4764  0.1860
  157SAPE  H16X17515   4.831   2.763   6.003  0.9599 -1.4406  2.5475
  157SAPE  H16Y17516   4.750   2.928   6.037 -0.9985 -0.2571 -0.1238
  157SAPE  C31717517   4.771   2.802   6.209 -0.5516 -0.2296 -0.3188
  157SAPE  H17X17518   4.751   2.888   6.276 -1.1896  0.3773 -1.2602
  157SAPE  H17Y17519   4.872   2.764   6.236  0.8953  2.5377 -1.5546
  157SAPE  C31817520   4.662   2.688   6.217  0.9649 -0.6425  0.0597
  157SAPE  H18X17521   4.575   2.720   6.156  1.2014  5.2782  2.1696
  157SAPE  H18Y17522   4.618   2.669   6.318 -0.6214 -2.0265 -0.8422
  157SAPE  H18Z17523   4.706   2.594   6.176 -0.6733 -0.2509 -2.8656
  158SAPE     N17524   1.926   5.494   8.173  0.3401 -0.5975  0.0220
  158SAPE   HN117525   1.910   5.596   8.185  2.6588 -0.0907 -0.8058
  158SAPE   HN217526   2.003   5.487   8.103  1.2410  0.1482  0.9235
  158SAPE   HN317527   1.844   5.446   8.128  0.0519 -1.0531  1.0011
  158SAPE   C1217528   1.958   5.425   8.305  0.3738 -0.6562  0.0163
  158SAPE  H12A17529   1.861   5.386   8.343 -0.2768  0.7950 -0.1258
  158SAPE  H12B17530   2.004   5.499   8.374 -0.1704 -3.0126  3.1347
  158SAPE   C1117531   2.035   5.293   8.282  0.2436  0.1021  0.0301
  158SAPE  H11A17532   1.974   5.224   8.220  0.2486 -0.4188  0.5973
  158SAPE  H11B17533   2.036   5.245   8.383 -0.5885  2.8604  1.4594
  158SAPE     P17534   2.199   5.270   8.075  0.1861  0.4527  0.2134
  158SAPE   O1317535   2.346   5.295   8.070  0.7537  0.9222  0.7799
  158SAPE   O1417536   2.158   5.126   8.070 -0.3091 -0.6424  0.1431
  158SAPE   O1217537   2.162   5.314   8.224  0.1777 -0.8825  0.1512
  158SAPE   O1117538   2.109   5.359   7.991  0.0080  0.1299  0.2534
  158SAPE    C117539   2.027   5.313   7.879  0.6019 -0.0607  0.1746
  158SAPE    HA17540   1.971   5.219   7.897 -1.4200  0.9114 -0.7904
  158SAPE    HB17541   1.952   5.393   7.865  0.8025  0.0151 -0.5175
  158SAPE    C217542   2.107   5.277   7.751  0.2836 -0.2426 -0.3875
  158SAPE    HS17543   2.185   5.202   7.773 -0.7088 -1.5090 -1.0150
  158SAPE   O2117544   2.168   5.398   7.709  0.1058 -0.1243  0.0212
  158SAPE   C2117545   2.284   5.374   7.636  0.2743 -0.3101 -0.1748
  158SAPE   O2217546   2.336   5.269   7.615 -0.2759 -0.3659  0.1806
  158SAPE   C2217547   2.341   5.498   7.576 -0.0648 -0.2121 -0.5789
  158SAPE   H2R17548   2.262   5.575   7.563 -1.4403 -1.1050  1.7788
  158SAPE   H2S17549   2.418   5.542   7.644 -2.5179  0.3030  2.0462
  158SAPE    C317550   2.011   5.224   7.636  0.0803  0.1077 -0.5640
  158SAPE    HX17551   1.965   5.129   7.670 -0.7015  0.5005 -0.5138
  158SAPE    HY17552   2.076   5.204   7.548  0.8560 -1.4454  0.3179
  158SAPE   O3117553   1.905   5.310   7.606 -0.0800  0.2136 -0.3014
  158SAPE   C3117554   1.843   5.276   7.496  0.5376 -0.6145  0.5299
  158SAPE   O3217555   1.868   5.169   7.435  0.6358  0.6071 -0.2220
  158SAPE   C3217556   1.732   5.380   7.469  0.7280 -0.9276  0.3394
  158SAPE   H2X17557   1.762   5.483   7.496 -2.4932  0.1927  0.0792
  158SAPE   H2Y17558   1.657   5.353   7.545 -0.7695  0.5333 -0.5541
  158SAPE   C2317559   2.412   5.479   7.440 -0.0947  0.1719  0.1886
  158SAPE   H3R17560   2.506   5.420   7.447 -0.0477  0.2013 -0.1523
  158SAPE   H3S17561   2.452   5.572   7.393  0.8177 -1.3428 -2.2587
  158SAPE   C2417562   2.316   5.412   7.338  0.5548 -0.8833  0.1303
  158SAPE   H4R17563   2.278   5.309   7.356 -1.4367 -0.6153 -2.0352
  158SAPE   H4S17564   2.377   5.402   7.246  1.0058 -0.8877  0.4300
  158SAPE   C2517565   2.185   5.490   7.314  0.0741 -0.5661 -0.3510
  158SAPE   H5R17566   2.119   5.495   7.402  0.5432  0.6811 -0.0563
  158SAPE   C2617567   2.149   5.546   7.202 -0.6047  0.5896  0.0929
  158SAPE   H6R17568   2.060   5.611   7.192  1.3731  3.1216 -3.0921
  158SAPE   C2717569   2.227   5.549   7.074 -0.3267  0.3201  0.9930
  158SAPE   H7R17570   2.184   5.478   7.000  1.3426 -1.1845  1.4070
  158SAPE   H7S17571   2.329   5.511   7.096 -0.1456 -0.4875 -0.9418
  158SAPE   C2817572   2.241   5.692   7.035  0.4484  0.2218 -0.3850
  158SAPE   H8R17573   2.266   5.764   7.114  1.9375 -1.4271  0.7269
  158SAPE   C2917574   2.230   5.738   6.907  0.2363 -0.2912 -0.1034
  158SAPE   H9R17575   2.240   5.846   6.895 -0.7792 -0.1668  0.0789
  158SAPE  C21017576   2.213   5.654   6.781 -0.1530 -0.7644 -0.3245
  158SAPE  H10R17577   2.106   5.645   6.756 -0.3741 -1.1828  0.7344
  158SAPE  H10S17578   2.246   5.550   6.799 -1.4270 -0.9957  0.7932
  158SAPE  C21117579   2.286   5.715   6.661  0.2208  0.1188  0.1234
  158SAPE  H11R17580   2.394   5.732   6.674  0.2417  0.1476 -0.0797
  158SAPE  C21217581   2.235   5.745   6.539 -0.4930 -0.5754 -0.4924
  158SAPE  H12R17582   2.304   5.797   6.472  0.4391 -0.6153  0.4206
  158SAPE  C21317583   2.088   5.728   6.494  0.8261  0.1964  0.1956
  158SAPE  H13R17584   2.013   5.766   6.567 -1.1402 -0.1338 -1.5640
  158SAPE  H13S17585   2.080   5.617   6.490  3.7472 -0.0553 -1.4861
  158SAPE  C21417586   2.058   5.799   6.362  0.0429 -0.3434  0.1576
  158SAPE  H14R17587   2.068   5.908   6.363  0.4291 -0.3369 -1.5584
  158SAPE  C21517588   2.001   5.746   6.252  0.3158 -0.0409  0.3751
  158SAPE  H15R17589   1.986   5.812   6.165 -1.1109 -1.6123 -0.6386
  158SAPE  C21617590   1.962   5.602   6.231 -0.3473 -0.1722  1.1942
  158SAPE  H16R17591   1.852   5.604   6.213 -0.2070  0.8441  0.3801
  158SAPE  H16S17592   1.966   5.540   6.323 -0.2762 -0.5360  0.9446
  158SAPE  C21717593   2.019   5.530   6.112 -0.7540  0.7571  0.4369
  158SAPE  H17R17594   1.983   5.426   6.124 -0.8281  0.8225  0.7819
  158SAPE  H17S17595   2.129   5.525   6.121 -0.8723 -0.5224  1.4969
  158SAPE  C21817596   1.977   5.574   5.966 -0.5100 -0.3833 -0.3008
  158SAPE  H18R17597   2.042   5.523   5.892 -2.4641 -0.6106 -1.9318
  158SAPE  H18S17598   1.984   5.685   5.953 -1.6095  0.1933  3.0178
  158SAPE  C21917599   1.838   5.530   5.940 -0.1623 -0.5373 -0.0778
  158SAPE  H19R17600   1.774   5.589   6.010 -0.0643 -1.4469  0.8063
  158SAPE  H19S17601   1.829   5.424   5.972  1.5943 -0.9786 -0.9299
  158SAPE  C22017602   1.794   5.537   5.797 -0.7805  0.1690  0.0730
  158SAPE  H20R17603   1.845   5.467   5.728  1.9055  1.9996  0.0640
  158SAPE  H20S17604   1.805   5.642   5.761 -2.2761  0.2412 -0.2203
  158SAPE  H20T17605   1.687   5.515   5.778 -0.8381  1.6059 -1.4622
  158SAPE   C3317606   1.677   5.383   7.324  0.4751 -0.1502  0.1029
  158SAPE   H3X17607   1.585   5.446   7.330  0.3350 -0.4564  1.6385
  158SAPE   H3Y17608   1.648   5.283   7.288 -1.4129  0.0447  0.9377
  158SAPE   C3417609   1.764   5.462   7.227  0.4657 -0.0030 -0.1397
  158SAPE   H4X17610   1.859   5.406   7.214 -0.0885 -0.5327 -2.3354
  158SAPE   H4Y17611   1.796   5.556   7.276  0.1852  1.4842 -2.6630
  158SAPE   C3517612   1.691   5.478   7.093  0.4771 -0.3129 -0.0734
  158SAPE   H5X17613   1.584   5.500   7.112  0.1049 -1.1048 -1.1768
  158SAPE   H5Y17614   1.694   5.374   7.055  2.4278 -1.6355  3.2738
  158SAPE   C3617615   1.777   5.562   6.992  0.2862 -0.3531  0.0912
  158SAPE   H6X17616   1.868   5.504   6.967 -0.1336 -1.2324  0.5311
  158SAPE   H6Y17617   1.795   5.657   7.047 -0.0642 -1.8595  3.0235
  158SAPE   C3717618   1.712   5.583   6.855  0.1665 -0.0392 -0.4104
  158SAPE   H7X17619   1.605   5.611   6.873  0.1848  0.1921 -0.6538
  158SAPE   H7Y17620   1.684   5.494   6.796 -3.0549 -0.0357  0.8666
  158SAPE   C3817621   1.798   5.682   6.777  0.1327 -0.8486 -0.2009
  158SAPE   H8X17622   1.889   5.622   6.754  0.4176 -0.7579  0.6566
  158SAPE   H8Y17623   1.831   5.763   6.845  1.0012  0.3194 -1.9578
  158SAPE   C3917624   1.721   5.740   6.653  0.1711  0.0212 -0.0124
  158SAPE   H9X17625   1.787   5.823   6.618 -0.4953  1.0062  1.0167
  158SAPE   H9Y17626   1.636   5.793   6.700 -0.9088 -2.7922  1.4044
  158SAPE  C31017627   1.689   5.644   6.541 -0.2787  0.4983 -0.1738
  158SAPE  H10X17628   1.641   5.556   6.589  0.5542  0.8633  1.3972
  158SAPE  H10Y17629   1.784   5.618   6.490 -0.4392 -1.4443  0.4347
  158SAPE  C31117630   1.585   5.684   6.426 -0.1185 -0.1891 -0.2421
  158SAPE  H11X17631   1.609   5.785   6.387  0.8305 -0.8073 -1.3042
  158SAPE  H11Y17632   1.485   5.691   6.474 -0.8165  0.2885 -1.7103
  158SAPE  C31217633   1.563   5.572   6.328  0.4492  0.0023 -0.0393
  158SAPE  H12X17634   1.530   5.485   6.390  0.8182  0.5810  0.9909
  158SAPE  H12Y17635   1.662   5.550   6.283  0.4705  2.4332 -1.3371
  158SAPE  C31317636   1.467   5.588   6.212 -0.4236 -0.1327 -0.2894
  158SAPE  H13X17637   1.358   5.592   6.234 -0.4127  0.8240 -0.3475
  158SAPE  H13Y17638   1.464   5.490   6.160 -1.6339 -1.4299  2.0488
  158SAPE  C31417639   1.510   5.705   6.125 -0.0282  0.6157 -0.4975
  158SAPE  H14X17640   1.621   5.697   6.123 -0.0827 -2.4146  1.4618
  158SAPE  H14Y17641   1.477   5.804   6.162 -0.2113 -0.3608  2.2046
  158SAPE  C31517642   1.458   5.700   5.980 -0.2552  0.0023  0.5967
  158SAPE  H15X17643   1.349   5.682   5.994 -0.1850 -0.9822 -0.0510
  158SAPE  H15Y17644   1.502   5.612   5.930  0.1604 -0.0132  0.9811
  158SAPE  C31617645   1.484   5.821   5.891 -0.0765 -0.1300 -0.2635
  158SAPE  H16X17646   1.590   5.853   5.901  1.0059 -3.4059  0.0575
  158SAPE  H16Y17647   1.438   5.913   5.933  2.1829  0.6953  0.5559
  158SAPE  C31717648   1.428   5.799   5.751  0.0233 -0.1018  0.4022
  158SAPE  H17X17649   1.416   5.902   5.710 -0.2833  0.3814  1.6583
  158SAPE  H17Y17650   1.326   5.757   5.758  0.3141 -1.0478 -0.6861
  158SAPE  C31817651   1.501   5.710   5.650  0.3019  0.1119 -0.1882
  158SAPE  H18X17652   1.503   5.602   5.677 -0.9272  0.3165  0.7676
  158SAPE  H18Y17653   1.604   5.742   5.621  0.9079 -1.3007  0.2832
  158SAPE  H18Z17654   1.447   5.723   5.554 -1.1279  2.1761  0.8250
  159SAPE     N17655   4.258   3.659   3.881 -0.3692 -0.0553  0.6968
  159SAPE   HN117656   4.259   3.730   3.957  0.3567  0.4695  0.2070
  159SAPE   HN217657   4.297   3.699   3.793 -0.0927 -1.7579  0.0054
  159SAPE   HN317658   4.161   3.639   3.849  0.4885 -1.7915 -1.0422
  159SAPE   C1217659   4.304   3.517   3.915  0.2698 -0.3750  0.6490
  159SAPE  H12A17660   4.234   3.459   3.978 -0.6280  0.1322  0.1331
  159SAPE  H12B17661   4.397   3.532   3.974  0.8647 -1.1277 -0.0750
  159SAPE   C1117662   4.325   3.434   3.790 -0.2032  0.4140  0.3579
  159SAPE  H11A17663   4.221   3.407   3.762 -0.4884  1.1511  0.7006
  159SAPE  H11B17664   4.378   3.344   3.830  1.4789  0.8321 -0.8233
  159SAPE     P17665   4.520   3.442   3.616 -0.2177  0.2347  0.3168
  159SAPE   O1317666   4.489   3.301   3.580 -0.0336 -0.9315 -0.4065
  159SAPE   O1417667   4.553   3.538   3.506 -0.0923 -0.2826 -0.0143
  159SAPE   O1217668   4.395   3.500   3.686 -0.8876  0.0873  0.6111
  159SAPE   O1117669   4.620   3.450   3.739  0.9638  0.0197  0.3171
  159SAPE    C117670   4.660   3.572   3.802 -0.3870  0.2262 -0.5556
  159SAPE    HA17671   4.611   3.663   3.760 -2.3036  0.5931  2.2029
  159SAPE    HB17672   4.653   3.562   3.912 -0.0060  0.7535 -0.4792
  159SAPE    C217673   4.814   3.594   3.784  0.2539  0.6333 -0.2246
  159SAPE    HS17674   4.836   3.584   3.676 -0.9523  2.0520 -0.6364
  159SAPE   O2117675   4.878   3.487   3.858 -0.5102 -0.1149 -0.5455
  159SAPE   C2117676   5.004   3.467   3.844 -0.2405  0.1709  0.4857
  159SAPE   O2217677   5.079   3.517   3.758 -0.3575 -0.6560 -0.9393
  159SAPE   C2217678   5.049   3.359   3.943 -0.2739  0.9793 -0.0639
  159SAPE   H2R17679   4.992   3.269   3.912 -0.0793  0.5406  0.8087
  159SAPE   H2S17680   5.158   3.351   3.921 -0.3254 -1.4434  0.2739
  159SAPE    C317681   4.861   3.737   3.835 -0.0142  1.0078 -0.3476
  159SAPE    HX17682   4.822   3.817   3.768  0.7497  0.4012 -1.5634
  159SAPE    HY17683   4.972   3.732   3.822 -0.0254 -2.1172 -0.0337
  159SAPE   O3117684   4.820   3.760   3.967  0.5260  0.0714  0.1203
  159SAPE   C3117685   4.904   3.774   4.068 -0.2487 -0.3014  0.9571
  159SAPE   O3217686   5.024   3.787   4.061 -0.3637 -1.0269 -0.5079
  159SAPE   C3217687   4.826   3.772   4.195  0.0183 -0.1904 -0.3226
  159SAPE   H2X17688   4.744   3.698   4.199  0.3422 -0.4983  1.2704
  159SAPE   H2Y17689   4.779   3.872   4.208  0.3158 -0.2485  1.4518
  159SAPE   C2317690   5.028   3.397   4.092  0.0211  0.1602  0.3243
  159SAPE   H3R17691   4.927   3.438   4.116 -0.6907 -1.3297  0.0216
  159SAPE   H3S17692   5.084   3.490   4.112 -2.4029  1.7380  0.1829
  159SAPE   C2417693   5.066   3.288   4.187 -0.1112 -0.2509 -1.0061
  159SAPE   H4R17694   4.995   3.205   4.173 -3.0719  1.6894  1.2887
  159SAPE   H4S17695   5.029   3.319   4.287 -1.3844  0.5069 -1.6933
  159SAPE   C2517696   5.211   3.254   4.204  0.5851  0.3612  0.4879
  159SAPE   H5R17697   5.268   3.264   4.110  0.7686 -1.2234  0.4046
  159SAPE   C2617698   5.267   3.212   4.314  0.8243  0.3932 -0.0588
  159SAPE   H6R17699   5.371   3.178   4.307  0.6439  0.1178 -2.0759
  159SAPE   C2717700   5.190   3.172   4.442 -0.8210  0.3142 -0.1880
  159SAPE   H7R17701   5.093   3.128   4.411 -0.7028  1.0804 -1.7294
  159SAPE   H7S17702   5.168   3.259   4.508 -0.0492 -0.8763  1.7393
  159SAPE   C2817703   5.265   3.078   4.531 -0.8345  0.1024 -0.3985
  159SAPE   H8R17704   5.349   3.025   4.483 -0.4929  0.3686 -0.1025
  159SAPE   C2917705   5.233   3.036   4.653  0.2404  0.8276 -0.6154
  159SAPE   H9R17706   5.298   2.969   4.711  0.7040  1.3320 -0.5417
  159SAPE  C21017707   5.117   3.077   4.739 -0.2530 -0.2600  0.4328
  159SAPE  H10R17708   5.072   2.997   4.801 -0.4641  0.6726  1.5348
  159SAPE  H10S17709   5.038   3.117   4.671  0.2486  0.8316  0.4634
  159SAPE  C21117710   5.151   3.206   4.814  0.4819  0.8646 -0.2722
  159SAPE  H11R17711   5.198   3.283   4.750 -0.6659 -0.8270 -3.3618
  159SAPE  C21217712   5.148   3.218   4.947 -0.6509 -0.2655 -0.3818
  159SAPE  H12R17713   5.185   3.310   4.993 -0.8259 -1.1431  1.6243
  159SAPE  C21317714   5.112   3.099   5.030 -0.0684  0.2876  0.2420
  159SAPE  H13R17715   5.174   3.014   4.996  1.1303  1.3328 -0.2887
  159SAPE  H13S17716   5.003   3.075   5.026  0.3648 -2.1247  1.3067
  159SAPE  C21417717   5.156   3.123   5.172  0.1318  0.0687 -0.0811
  159SAPE  H14R17718   5.226   3.206   5.188 -1.0555  1.0668  0.0294
  159SAPE  C21517719   5.108   3.072   5.286 -0.3215  0.7875  0.8570
  159SAPE  H15R17720   5.141   3.096   5.388 -1.2327  1.2744  1.0588
  159SAPE  C21617721   4.998   2.959   5.291 -0.1599 -0.2726 -1.0337
  159SAPE  H16R17722   4.939   2.954   5.197 -1.2657 -1.0894 -0.3090
  159SAPE  H16S17723   4.924   2.979   5.371  0.0904  1.8830 -1.2800
  159SAPE  C21717724   5.059   2.816   5.300 -0.1082 -0.6331  0.4549
  159SAPE  H17R17725   5.161   2.805   5.257  0.2592  2.0566  0.4752
  159SAPE  H17S17726   4.996   2.757   5.231 -1.6697  1.9419 -0.4735
  159SAPE  C21817727   5.064   2.745   5.441  0.4307  0.4307 -0.3325
  159SAPE  H18R17728   5.101   2.641   5.425  0.2181  0.4103 -0.6985
  159SAPE  H18S17729   4.961   2.720   5.476  1.2306 -1.5385  0.7755
  159SAPE  C21917730   5.146   2.814   5.549  0.2772  0.1877 -0.1667
  159SAPE  H19R17731   5.132   2.756   5.643 -0.4797 -0.4985 -0.6938
  159SAPE  H19S17732   5.105   2.917   5.554  1.1575  0.5179  3.2580
  159SAPE  C22017733   5.290   2.825   5.526 -0.2225 -0.6915 -0.3537
  159SAPE  H20R17734   5.341   2.727   5.512  0.4158 -0.6795  1.6170
  159SAPE  H20S17735   5.335   2.871   5.617 -2.8304  0.7268  0.3138
  159SAPE  H20T17736   5.311   2.885   5.434 -1.6889  0.5521  0.0962
  159SAPE   C3317737   4.906   3.737   4.327 -0.4961  0.7495  0.7845
  159SAPE   H3X17738   4.935   3.835   4.371 -0.5246  1.9795 -1.7181
  159SAPE   H3Y17739   5.003   3.695   4.293 -2.3582 -3.0844 -0.3331
  159SAPE   C3417740   4.844   3.637   4.425 -0.4937 -0.5447  0.1420
  159SAPE   H4X17741   4.763   3.579   4.375 -2.6221  1.3904  1.1761
  159SAPE   H4Y17742   4.798   3.693   4.509  0.3131  0.5469 -0.1281
  159SAPE   C3517743   4.955   3.538   4.473  1.0375 -0.4933  0.0381
  159SAPE   H5X17744   5.019   3.610   4.529  1.2862  0.0310 -0.8990
  159SAPE   H5Y17745   5.026   3.513   4.392  3.5044  2.7835  0.9565
  159SAPE   C3617746   4.898   3.412   4.543 -0.5199  0.2652  0.5334
  159SAPE   H6X17747   4.989   3.362   4.583  0.9645  2.7388  0.4549
  159SAPE   H6Y17748   4.847   3.343   4.473  1.3311  1.0025 -1.6837
  159SAPE   C3717749   4.812   3.447   4.672  0.6141  0.3060  0.0317
  159SAPE   H7X17750   4.722   3.502   4.639  1.1643  2.2833  1.5922
  159SAPE   H7Y17751   4.863   3.521   4.737  1.7187 -1.3629  1.1623
  159SAPE   C3817752   4.780   3.329   4.762  0.2197  0.4558 -0.2493
  159SAPE   H8X17753   4.873   3.267   4.770 -0.6256 -0.8287 -0.0591
  159SAPE   H8Y17754   4.696   3.272   4.718 -0.8027  1.6216  0.1450
  159SAPE   C3917755   4.737   3.365   4.912  0.4004  0.3295  0.0044
  159SAPE   H9X17756   4.645   3.426   4.907 -1.4473 -2.3364 -1.1048
  159SAPE   H9Y17757   4.824   3.422   4.952  1.1456  0.8340 -2.1752
  159SAPE  C31017758   4.715   3.235   4.987 -0.1396 -0.0738  0.0245
  159SAPE  H10X17759   4.792   3.167   4.946 -0.9855  0.8371 -3.3913
  159SAPE  H10Y17760   4.617   3.198   4.948 -0.8945  0.5218  1.2775
  159SAPE  C31117761   4.705   3.243   5.143 -0.5796  0.1043 -0.5767
  159SAPE  H11X17762   4.627   3.313   5.180  0.9354  1.8454 -0.5627
  159SAPE  H11Y17763   4.802   3.275   5.186 -1.5869 -0.6479  2.5318
  159SAPE  C31217764   4.680   3.108   5.209 -0.4022  0.1034 -0.3594
  159SAPE  H12X17765   4.757   3.035   5.177  0.8521  2.7829 -4.0871
  159SAPE  H12Y17766   4.581   3.075   5.170  0.3266  1.1389 -3.3226
  159SAPE  C31317767   4.660   3.124   5.367  0.8388  0.5641 -0.3007
  159SAPE  H13X17768   4.580   3.195   5.398  0.2469 -0.2058 -0.0256
  159SAPE  H13Y17769   4.755   3.171   5.399  1.7435 -0.1655 -1.7931
  159SAPE  C31417770   4.643   2.991   5.433  0.4245  0.2489  0.2408
  159SAPE  H14X17771   4.724   2.917   5.414 -0.2612 -0.7654  1.1404
  159SAPE  H14Y17772   4.546   2.943   5.409  1.2430 -1.7665  0.7857
  159SAPE  C31517773   4.630   2.998   5.585  0.1689 -0.0215 -0.7701
  159SAPE  H15X17774   4.554   3.073   5.614  0.2428 -0.5818  1.0204
  159SAPE  H15Y17775   4.719   3.027   5.645  0.0499  1.7753 -1.4024
  159SAPE  C31617776   4.573   2.869   5.642 -0.4376 -0.5802 -0.0039
  159SAPE  H16X17777   4.503   2.819   5.572  1.5343 -2.7329 -0.5609
  159SAPE  H16Y17778   4.504   2.886   5.728  1.4564  1.4139  1.2215
  159SAPE  C31717779   4.688   2.764   5.673 -0.3824 -0.4107  0.2914
  159SAPE  H17X17780   4.761   2.820   5.736  0.1698 -0.1618 -0.5505
  159SAPE  H17Y17781   4.733   2.719   5.582  0.4438  0.2498  0.3564
  159SAPE  C31817782   4.637   2.642   5.750 -0.3521 -0.5885 -0.3414
  159SAPE  H18X17783   4.587   2.671   5.845  2.4366  1.2753  0.7011
  159SAPE  H18Y17784   4.734   2.595   5.780 -0.4772 -0.6511 -0.0307
  159SAPE  H18Z17785   4.569   2.579   5.689 -3.3842  0.7937  1.3530
  160SAPE     N17786   4.544   1.521   3.693  0.4942  0.2387  0.3017
  160SAPE   HN117787   4.559   1.485   3.597 -0.9868  1.7196 -0.5431
  160SAPE   HN217788   4.498   1.614   3.680 -0.3706 -0.3796 -1.4256
  160SAPE   HN317789   4.640   1.528   3.731  0.2756 -2.3180  1.5009
  160SAPE   C1217790   4.448   1.427   3.772  0.5540 -0.3408  0.2924
  160SAPE  H12A17791   4.346   1.430   3.729  1.1830 -1.5977 -1.4105
  160SAPE  H12B17792   4.447   1.467   3.875  1.0463 -2.3852  1.1445
  160SAPE   C1117793   4.515   1.286   3.773  0.4107  0.4168  0.1390
  160SAPE  H11A17794   4.457   1.231   3.849 -1.2068  1.4599 -0.2755
  160SAPE  H11B17795   4.621   1.292   3.807 -0.5001  2.8544  2.9081
  160SAPE     P17796   4.498   1.071   3.618 -0.3795 -0.1685 -0.2966
  160SAPE   O1317797   4.482   1.041   3.475  0.0001  0.0598 -0.2515
  160SAPE   O1417798   4.616   1.007   3.678 -0.3029 -0.0919  0.4522
  160SAPE   O1217799   4.506   1.230   3.641  0.7909  0.1056  0.6845
  160SAPE   O1117800   4.363   1.040   3.696  0.4773 -0.5446 -0.4689
  160SAPE    C117801   4.241   1.104   3.654  0.6227  0.1960  0.1739
  160SAPE    HA17802   4.248   1.214   3.643  0.8483  0.0768 -0.9485
  160SAPE    HB17803   4.216   1.060   3.555 -0.6825  0.6598  0.2745
  160SAPE    C217804   4.128   1.080   3.761  1.0976  0.2229  0.1368
  160SAPE    HS17805   4.026   1.075   3.717  1.5730 -0.5648 -0.9267
  160SAPE   O2117806   4.142   1.190   3.852  0.1451 -0.3145 -0.0885
  160SAPE   C2117807   4.030   1.241   3.901 -0.1133 -0.0287  0.6600
  160SAPE   O2217808   3.922   1.206   3.854  0.0523 -1.0440  0.0810
  160SAPE   C2217809   4.064   1.334   4.016 -0.6448 -0.1834  0.1326
  160SAPE   H2R17810   4.101   1.266   4.096 -1.5608  0.2405  0.9266
  160SAPE   H2S17811   4.142   1.410   3.993 -1.3015  0.2738 -0.6264
  160SAPE    C317812   4.156   0.941   3.828 -0.0239 -0.3588 -0.0307
  160SAPE    HX17813   4.251   0.927   3.884  0.0654 -3.1619 -0.7307
  160SAPE    HY17814   4.162   0.864   3.748  1.1721  0.5353 -0.8512
  160SAPE   O3117815   4.058   0.913   3.927 -0.5407 -0.3313  0.1744
  160SAPE   C3117816   4.017   0.791   3.947 -0.2090 -0.2532  0.1569
  160SAPE   O3217817   4.067   0.692   3.894 -0.0857 -0.0645  0.7729
  160SAPE   C3217818   3.887   0.794   4.022  0.3913 -0.6104 -0.9081
  160SAPE   H2X17819   3.820   0.871   3.978 -0.4255  0.7772  2.4062
  160SAPE   H2Y17820   3.911   0.822   4.127 -1.0761 -3.1550  0.1978
  160SAPE   C2317821   3.952   1.424   4.053  0.8802  0.1809 -0.0314
  160SAPE   H3R17822   3.851   1.377   4.049 -0.2566  1.9406  3.3669
  160SAPE   H3S17823   3.953   1.509   3.982  0.2660  0.2569  0.0490
  160SAPE   C2417824   3.959   1.483   4.194  0.0721 -0.2044 -0.7271
  160SAPE   H4R17825   4.065   1.517   4.200 -0.1478  0.6471 -1.3473
  160SAPE   H4S17826   3.959   1.394   4.260  0.6988 -1.5331 -2.4437
  160SAPE   C2517827   3.860   1.592   4.221 -0.0071 -0.1698 -0.6514
  160SAPE   H5R17828   3.861   1.682   4.159 -1.9558  0.8897  0.7291
  160SAPE   C2617829   3.769   1.598   4.317  0.4527 -0.0231 -1.1318
  160SAPE   H6R17830   3.700   1.684   4.319 -0.5106 -0.8061  0.6347
  160SAPE   C2717831   3.747   1.492   4.419 -0.4593 -0.2250 -0.0233
  160SAPE   H7R17832   3.687   1.405   4.382  1.3078 -1.8802  0.8121
  160SAPE   H7S17833   3.666   1.534   4.482 -0.7124  1.0444 -1.1633
  160SAPE   C2817834   3.859   1.458   4.519  0.0226 -0.8289  0.8309
  160SAPE   H8R17835   3.961   1.465   4.478 -0.0544  2.4809  0.9183
  160SAPE   C2917836   3.838   1.438   4.645 -0.1131 -1.2021  0.0442
  160SAPE   H9R17837   3.925   1.432   4.713  0.1963  0.5591 -0.1487
  160SAPE  C21017838   3.706   1.425   4.722 -0.5146  0.2570  0.0603
  160SAPE  H10R17839   3.717   1.350   4.804 -1.5598  1.5259  1.4045
  160SAPE  H10S17840   3.620   1.391   4.660 -0.3323 -1.4470  0.6687
  160SAPE  C21117841   3.656   1.562   4.775  0.2787  1.2093 -0.2703
  160SAPE  H11R17842   3.667   1.645   4.704 -1.3678  0.8645 -0.9694
  160SAPE  C21217843   3.599   1.579   4.895  0.7148  0.3335 -0.3708
  160SAPE  H12R17844   3.567   1.683   4.914 -3.4035 -0.3479 -2.5011
  160SAPE  C21317845   3.596   1.475   5.000 -0.2400 -0.2704 -0.6091
  160SAPE  H13R17846   3.597   1.369   4.967  0.5046 -0.0055 -1.4864
  160SAPE  H13S17847   3.497   1.484   5.049  0.3269  0.3585  0.4599
  160SAPE  C21417848   3.708   1.491   5.102 -0.5254  0.6617  0.2005
  160SAPE  H14R17849   3.773   1.579   5.101 -0.6680  0.7843  1.0561
  160SAPE  C21517850   3.732   1.411   5.210  0.3104 -0.2541  0.0586
  160SAPE  H15R17851   3.828   1.422   5.263 -0.6891 -0.9973  2.1442
  160SAPE  C21617852   3.652   1.298   5.275  0.1750  0.1909  0.9250
  160SAPE  H16R17853   3.701   1.199   5.265 -0.1205  0.1906 -0.9157
  160SAPE  H16S17854   3.557   1.283   5.218  1.7885 -0.6275 -1.7735
  160SAPE  C21717855   3.616   1.340   5.422  0.2591 -0.3897  0.2366
  160SAPE  H17R17856   3.574   1.443   5.423 -0.8612 -0.7382 -2.4588
  160SAPE  H17S17857   3.716   1.354   5.468  0.8632  1.7524 -1.5255
  160SAPE  C21817858   3.521   1.230   5.484 -0.1201  0.5477  0.7553
  160SAPE  H18R17859   3.571   1.131   5.471 -1.0859  0.0571  0.6789
  160SAPE  H18S17860   3.427   1.204   5.431  0.2260 -1.1272  0.8945
  160SAPE  C21917861   3.519   1.237   5.636  0.3092 -0.4630 -0.0435
  160SAPE  H19R17862   3.445   1.315   5.664  2.2921  2.3296 -2.0037
  160SAPE  H19S17863   3.616   1.280   5.669  0.3680 -0.4158 -0.2749
  160SAPE  C22017864   3.490   1.103   5.708 -0.2468  0.4614 -0.9572
  160SAPE  H20R17865   3.504   1.123   5.816 -1.5693  0.2902 -0.7406
  160SAPE  H20S17866   3.566   1.029   5.674  1.0543  0.5178  1.6160
  160SAPE  H20T17867   3.388   1.063   5.690  0.1634 -0.8767 -0.4667
  160SAPE   C3317868   3.816   0.658   4.022 -0.5773 -0.1222 -0.8221
  160SAPE   H3X17869   3.891   0.579   4.042 -1.3136 -0.4740  0.8098
  160SAPE   H3Y17870   3.774   0.632   3.923 -1.3643 -0.9650 -0.2852
  160SAPE   C3417871   3.714   0.634   4.130  0.3632 -0.0052  0.7778
  160SAPE   H4X17872   3.662   0.537   4.118 -0.6194  0.6950 -1.0639
  160SAPE   H4Y17873   3.638   0.715   4.123  1.3397  0.8313 -0.7073
  160SAPE   C3517874   3.772   0.642   4.274 -0.4623  0.4532 -0.3376
  160SAPE   H5X17875   3.820   0.742   4.282 -0.7019  0.4636  1.4658
  160SAPE   H5Y17876   3.850   0.565   4.289  0.2941  1.6182  2.2670
  160SAPE   C3617877   3.672   0.617   4.386  0.3177  0.3067  0.0174
  160SAPE   H6X17878   3.611   0.524   4.378 -2.2453  2.0350 -1.9095
  160SAPE   H6Y17879   3.595   0.696   4.372  1.7048  1.5609 -0.6551
  160SAPE   C3717880   3.716   0.647   4.530  0.0899  0.5606 -0.1197
  160SAPE   H7X17881   3.736   0.756   4.527 -1.0655  0.7832 -0.1719
  160SAPE   H7Y17882   3.811   0.591   4.541  0.7236  2.0036  3.4494
  160SAPE   C3817883   3.618   0.599   4.643 -0.0310  0.4464 -0.4257
  160SAPE   H8X17884   3.591   0.496   4.615 -0.2356  0.4568 -0.2714
  160SAPE   H8Y17885   3.527   0.660   4.624  1.4757  3.5538  1.4148
  160SAPE   C3917886   3.677   0.617   4.791  0.0942 -0.1355  0.0381
  160SAPE   H9X17887   3.695   0.723   4.820 -1.0704  0.5908 -1.7241
  160SAPE   H9Y17888   3.774   0.563   4.796 -0.6815 -1.6780 -0.8395
  160SAPE  C31017889   3.578   0.554   4.886  0.8160  0.5266 -0.5760
  160SAPE  H10X17890   3.542   0.454   4.853 -0.7488  0.4802  1.1288
  160SAPE  H10Y17891   3.491   0.622   4.881  2.2164  2.5162  0.8840
  160SAPE  C31117892   3.630   0.540   5.028 -0.1823  0.6272  0.4659
  160SAPE  H11X17893   3.664   0.641   5.060 -0.0860  0.6258  0.3695
  160SAPE  H11Y17894   3.717   0.470   5.033 -0.1129  0.5159 -1.4829
  160SAPE  C31217895   3.524   0.488   5.124 -0.3734  0.6518 -0.2214
  160SAPE  H12X17896   3.503   0.381   5.104 -3.7472  1.3116 -0.7865
  160SAPE  H12Y17897   3.433   0.551   5.119 -0.4118  0.9176  2.3642
  160SAPE  C31317898   3.569   0.501   5.277 -0.3050  0.2347  0.5481
  160SAPE  H13X17899   3.577   0.610   5.293  1.1581  0.2676 -0.2685
  160SAPE  H13Y17900   3.669   0.455   5.291 -1.1876 -1.8698  0.4369
  160SAPE  C31417901   3.473   0.436   5.372  0.3659  0.1981 -0.2099
  160SAPE  H14X17902   3.442   0.339   5.328 -0.0019  1.0057 -1.7829
  160SAPE  H14Y17903   3.385   0.503   5.379  0.3174  0.0222  1.1030
  160SAPE  C31517904   3.530   0.396   5.512  0.3017 -0.3100  0.4062
  160SAPE  H15X17905   3.613   0.323   5.501 -1.9167 -2.6429 -2.8918
  160SAPE  H15Y17906   3.444   0.339   5.554  0.8054 -0.7056  0.9147
  160SAPE  C31617907   3.562   0.518   5.594 -0.3463  0.2594 -0.3794
  160SAPE  H16X17908   3.498   0.520   5.685 -1.0327  0.1788 -0.8503
  160SAPE  H16Y17909   3.551   0.611   5.533  0.1047  0.2048 -0.5485
  160SAPE  C31717910   3.705   0.535   5.644  0.0913 -0.6607  0.0079
  160SAPE  H17X17911   3.783   0.544   5.566  2.0343 -1.3554  1.7728
  160SAPE  H17Y17912   3.742   0.441   5.690 -0.0924 -0.3943  0.7153
  160SAPE  C31817913   3.717   0.646   5.755  0.0945  0.0640 -0.2164
  160SAPE  H18X17914   3.638   0.627   5.831 -1.8747 -0.0987 -2.2243
  160SAPE  H18Y17915   3.701   0.748   5.714  1.7778  0.4545  0.0005
  160SAPE  H18Z17916   3.814   0.651   5.809 -0.2519  2.1638  0.3044
  161SAPE     N17917   4.211   2.463   3.461 -0.2153  0.3856  0.1561
  161SAPE   HN117918   4.303   2.494   3.422  0.4276 -0.2695  1.0964
  161SAPE   HN217919   4.221   2.460   3.565 -0.4589  1.2662  0.2118
  161SAPE   HN317920   4.191   2.370   3.418  0.8934  0.6573 -1.0062
  161SAPE   C1217921   4.108   2.570   3.428 -0.7947 -0.1541 -0.0855
  161SAPE  H12A17922   4.013   2.540   3.476 -0.8884  1.2197  0.6245
  161SAPE  H12B17923   4.104   2.569   3.317  0.8962 -1.5887 -0.1950
  161SAPE   C1117924   4.167   2.706   3.467 -0.2535 -0.2218  0.1669
  161SAPE  H11A17925   4.176   2.709   3.578  0.6213 -2.9222  0.2600
  161SAPE  H11B17926   4.088   2.773   3.427  0.7842  0.2330 -1.2279
  161SAPE     P17927   4.405   2.836   3.452 -0.1237 -0.4414  0.0798
  161SAPE   O1317928   4.527   2.799   3.383 -0.1402  0.9269 -0.4269
  161SAPE   O1417929   4.351   2.970   3.434  0.1834 -0.8711  0.0057
  161SAPE   O1217930   4.296   2.737   3.400 -0.2154 -0.1222 -0.0613
  161SAPE   O1117931   4.415   2.813   3.609 -0.1880 -0.4888 -0.2352
  161SAPE    C117932   4.542   2.791   3.676  0.0697 -0.3282  0.1299
  161SAPE    HA17933   4.551   2.682   3.691  1.1799 -0.2846 -0.1669
  161SAPE    HB17934   4.633   2.813   3.618  1.6916  1.0840  2.9892
  161SAPE    C217935   4.553   2.885   3.801 -0.6572 -0.1047 -0.1895
  161SAPE    HS17936   4.659   2.886   3.833 -0.2236 -4.1672 -1.0505
  161SAPE   O2117937   4.467   2.829   3.899  0.4850  0.0786 -0.1941
  161SAPE   C2117938   4.513   2.730   3.972  0.7157 -0.5832  0.4692
  161SAPE   O2217939   4.629   2.692   3.960 -0.3287  0.2417 -0.3125
  161SAPE   C2217940   4.418   2.684   4.079  0.1753  0.5728 -0.0086
  161SAPE   H2R17941   4.317   2.730   4.075 -1.8026 -3.2276  1.4887
  161SAPE   H2S17942   4.415   2.574   4.061  2.1218  0.4889 -0.0273
  161SAPE    C317943   4.510   3.033   3.776  0.4186 -0.2200  0.2922
  161SAPE    HX17944   4.404   3.036   3.743  1.2649 -0.3516 -2.7157
  161SAPE    HY17945   4.562   3.076   3.688 -1.4187 -0.7316 -1.0862
  161SAPE   O3117946   4.520   3.113   3.897 -0.0246 -0.0936  0.0791
  161SAPE   C3117947   4.646   3.162   3.914  0.0560 -0.0530  0.1062
  161SAPE   O3217948   4.736   3.137   3.836 -0.1708  0.7629  0.0583
  161SAPE   C3217949   4.645   3.266   4.022  0.4323  0.5248  0.4820
  161SAPE   H2X17950   4.623   3.366   3.979 -0.6674 -0.1761 -0.6287
  161SAPE   H2Y17951   4.747   3.265   4.066  0.8440 -1.5148 -0.4084
  161SAPE   C2317952   4.473   2.693   4.222  0.5783 -0.1593 -1.1725
  161SAPE   H3R17953   4.523   2.791   4.239  0.5630  0.0022 -2.0123
  161SAPE   H3S17954   4.545   2.609   4.221 -1.5980 -2.1320 -2.1624
  161SAPE   C2417955   4.357   2.661   4.327 -0.4358 -0.5466  0.8792
  161SAPE   H4R17956   4.315   2.560   4.304 -0.1373 -1.5511  4.1919
  161SAPE   H4S17957   4.273   2.728   4.303 -0.2365 -0.2976  0.8755
  161SAPE   C2517958   4.404   2.672   4.460  0.2240  0.0005 -0.9169
  161SAPE   H5R17959   4.478   2.594   4.484 -1.3335 -0.9676  1.1165
  161SAPE   C2617960   4.362   2.759   4.557 -0.2130 -0.3714 -0.2296
  161SAPE   H6R17961   4.395   2.739   4.660  0.7371 -2.1364 -0.8360
  161SAPE   C2717962   4.266   2.875   4.533 -0.0224 -0.5062  0.3107
  161SAPE   H7R17963   4.182   2.883   4.605  0.2720  1.7286  0.4694
  161SAPE   H7S17964   4.231   2.884   4.428 -0.5415  2.5650  0.6758
  161SAPE   C2817965   4.344   3.002   4.543  0.5766 -1.0212  0.3069
  161SAPE   H8R17966   4.408   3.012   4.454  0.1357  0.7149  0.1427
  161SAPE   C2917967   4.331   3.110   4.623 -0.3883  0.3896 -0.2378
  161SAPE   H9R17968   4.411   3.185   4.624  1.1826 -1.1060 -2.7163
  161SAPE  C21017969   4.244   3.125   4.749  0.0709  0.5907  0.8158
  161SAPE  H10R17970   4.142   3.086   4.728 -0.4336  2.2345  0.0379
  161SAPE  H10S17971   4.221   3.231   4.776  1.0173  0.8955  0.4498
  161SAPE  C21117972   4.310   3.042   4.856 -0.0148 -0.1888 -0.5213
  161SAPE  H11R17973   4.328   2.936   4.833 -0.0997 -0.2149 -0.4692
  161SAPE  C21217974   4.332   3.089   4.987 -0.2284 -0.2584 -0.0616
  161SAPE  H12R17975   4.375   3.025   5.065  1.9956  0.2461 -0.7899
  161SAPE  C21317976   4.293   3.228   5.029  0.4336 -0.9672  0.4076
  161SAPE  H13R17977   4.343   3.303   4.964  0.7195 -1.8500 -0.4152
  161SAPE  H13S17978   4.337   3.230   5.131 -0.1594  0.7255  0.6682
  161SAPE  C21417979   4.147   3.259   5.033  0.8356  0.0490  0.1797
  161SAPE  H14R17980   4.094   3.309   4.951  1.3590 -0.7357 -0.6493
  161SAPE  C21517981   4.057   3.210   5.126  0.6176 -0.5884 -0.7329
  161SAPE  H15R17982   3.950   3.235   5.125  0.4439 -1.2763  0.1457
  161SAPE  C21617983   4.102   3.130   5.242  0.8341  0.2904  0.5663
  161SAPE  H16R17984   4.171   3.190   5.306 -0.7164  0.5335  2.0954
  161SAPE  H16S17985   4.156   3.039   5.207  0.1637  0.5724 -1.2728
  161SAPE  C21717986   3.988   3.069   5.325  0.5528 -0.2089  0.5329
  161SAPE  H17R17987   3.915   3.152   5.338  0.8763  0.7550 -2.8931
  161SAPE  H17S17988   4.021   3.036   5.426 -0.0515 -2.0683  0.1570
  161SAPE  C21817989   3.905   2.960   5.246 -0.8732  0.1048  0.3524
  161SAPE  H18R17990   3.974   2.873   5.241  0.9921  1.5462  0.1050
  161SAPE  H18S17991   3.895   2.991   5.139  3.2722 -1.5363 -0.6822
  161SAPE  C21917992   3.773   2.918   5.294  0.2969  0.6214  0.7642
  161SAPE  H19R17993   3.725   2.848   5.222  0.3820 -0.9066  2.1164
  161SAPE  H19S17994   3.711   3.008   5.314  0.0777  0.8522 -0.7943
  161SAPE  C22017995   3.785   2.839   5.420 -0.4484 -0.3170  0.2508
  161SAPE  H20R17996   3.682   2.806   5.444 -0.4280 -0.5532  0.0221
  161SAPE  H20S17997   3.830   2.893   5.506  2.1107  0.1135 -1.2331
  161SAPE  H20T17998   3.828   2.739   5.396 -1.2493 -0.3670 -1.0830
  161SAPE   C3317999   4.533   3.263   4.133  0.6182 -0.2589  0.2962
  161SAPE   H3X18000   4.537   3.166   4.188 -0.2898 -0.3393  0.2321
  161SAPE   H3Y18001   4.429   3.259   4.093  0.0246  0.3696  1.7342
  161SAPE   C3418002   4.553   3.376   4.237  0.0145  0.1439 -0.0323
  161SAPE   H4X18003   4.580   3.470   4.184  0.3605  0.1729  0.1913
  161SAPE   H4Y18004   4.645   3.363   4.298  0.5411 -0.3059 -0.9077
  161SAPE   C3518005   4.438   3.393   4.327 -0.8129 -0.5007 -0.3120
  161SAPE   H5X18006   4.411   3.300   4.381 -0.5450  0.3328  1.3286
  161SAPE   H5Y18007   4.347   3.436   4.281  0.1564  0.1144 -1.7065
  161SAPE   C3618008   4.483   3.496   4.441 -0.1350  0.4300  0.4262
  161SAPE   H6X18009   4.504   3.601   4.411  1.0813  0.3787  1.0382
  161SAPE   H6Y18010   4.585   3.476   4.482  0.2650  2.2024  0.3830
  161SAPE   C3718011   4.380   3.499   4.557  0.1727 -0.9987  0.1806
  161SAPE   H7X18012   4.383   3.408   4.620  1.7242 -0.1918  1.3375
  161SAPE   H7Y18013   4.279   3.505   4.511  0.6666 -0.2753 -0.8594
  161SAPE   C3818014   4.413   3.619   4.647  0.1322  0.1402  0.4400
  161SAPE   H8X18015   4.380   3.718   4.609 -0.1707 -0.4123 -0.7951
  161SAPE   H8Y18016   4.522   3.634   4.662 -0.1822  3.5293  0.1336
  161SAPE   C3918017   4.370   3.603   4.789  0.2914 -0.2787 -0.5396
  161SAPE   H9X18018   4.400   3.695   4.844 -2.0067 -0.0227  0.3960
  161SAPE   H9Y18019   4.425   3.516   4.828  0.6228  0.0136 -0.3524
  161SAPE  C31018020   4.222   3.572   4.819  0.8261  0.5393 -0.0228
  161SAPE  H10X18021   4.213   3.462   4.803 -1.0763  0.7972 -0.9924
  161SAPE  H10Y18022   4.166   3.615   4.734  0.6777 -0.4276 -0.4289
  161SAPE  C31118023   4.183   3.629   4.959 -0.3062  0.4080 -0.5992
  161SAPE  H11X18024   4.241   3.713   5.001  0.1955 -0.9486  1.6137
  161SAPE  H11Y18025   4.207   3.550   5.034 -2.7063 -0.8401 -1.0371
  161SAPE  C31218026   4.042   3.667   4.960  0.3565  0.2741  0.3711
  161SAPE  H12X18027   3.976   3.586   4.923 -1.9552  0.4545  3.5947
  161SAPE  H12Y18028   4.033   3.759   4.899 -0.8574  0.5532  0.9402
  161SAPE  C31318029   3.992   3.697   5.103  0.0391 -0.2106  0.4530
  161SAPE  H13X18030   3.888   3.734   5.097  0.2042  0.2149  0.1874
  161SAPE  H13Y18031   4.059   3.776   5.145 -2.7474  3.2132 -1.0090
  161SAPE  C31418032   3.985   3.576   5.198 -0.0787  0.3979  0.0400
  161SAPE  H14X18033   4.089   3.538   5.210 -0.2740 -0.0520  0.3408
  161SAPE  H14Y18034   3.916   3.502   5.153 -1.8948  1.8929  0.2355
  161SAPE  C31518035   3.922   3.605   5.338  0.5039 -0.7088  0.7780
  161SAPE  H15X18036   3.828   3.661   5.318  0.2879 -1.2187  0.3442
  161SAPE  H15Y18037   3.991   3.672   5.395 -0.7619  2.2183 -0.9527
  161SAPE  C31618038   3.885   3.481   5.408 -0.0373  0.1085 -0.0312
  161SAPE  H16X18039   3.979   3.426   5.433  0.9633  1.4816 -0.6865
  161SAPE  H16Y18040   3.830   3.416   5.336  0.1823  1.5289 -1.5538
  161SAPE  C31718041   3.809   3.508   5.538  0.2289 -0.8395  0.0176
  161SAPE  H17X18042   3.839   3.604   5.584  1.0491 -1.8903  1.7809
  161SAPE  H17Y18043   3.837   3.421   5.601  0.1164  0.0954  1.3979
  161SAPE  C31818044   3.658   3.511   5.522  0.4034  0.2244  0.9463
  161SAPE  H18X18045   3.623   3.599   5.464  0.7030 -0.1652  0.1441
  161SAPE  H18Y18046   3.604   3.519   5.618 -1.8287  0.2644 -0.2362
  161SAPE  H18Z18047   3.624   3.414   5.480  2.3075  1.0252 -2.9460
  162SAPE     N18048   5.146   5.725   3.751 -0.1617  0.1932 -0.1231
  162SAPE   HN118049   5.066   5.768   3.803 -0.2195 -0.9027  0.7371
  162SAPE   HN218050   5.153   5.770   3.658 -1.4265  2.6269  0.8644
  162SAPE   HN318051   5.119   5.625   3.746 -1.1218  0.4905 -1.1028
  162SAPE   C1218052   5.279   5.744   3.817 -0.2899 -0.2799  0.4136
  162SAPE  H12A18053   5.267   5.706   3.921 -2.1349 -3.4805 -0.8064
  162SAPE  H12B18054   5.285   5.852   3.842 -4.5570 -0.3536  2.7882
  162SAPE   C1118055   5.391   5.661   3.754  0.4614 -0.1581 -0.4880
  162SAPE  H11A18056   5.384   5.671   3.644 -0.7972 -1.0761 -0.5081
  162SAPE  H11B18057   5.364   5.557   3.781 -2.4985  0.6609 -0.0372
  162SAPE     P18058   5.637   5.753   3.748  0.3340 -0.0984 -0.1055
  162SAPE   O1318059   5.627   5.739   3.601  0.0354 -0.0317 -0.3750
  162SAPE   O1418060   5.644   5.891   3.798 -0.1821  0.7305 -0.4185
  162SAPE   O1218061   5.519   5.682   3.816 -0.4032  0.2521 -0.3421
  162SAPE   O1118062   5.768   5.682   3.798 -0.2803 -0.4809 -0.5469
  162SAPE    C118063   5.769   5.542   3.813  0.1090  0.0348  0.3831
  162SAPE    HA18064   5.677   5.497   3.771  1.8165 -1.4039 -2.1118
  162SAPE    HB18065   5.856   5.499   3.759 -1.8018 -1.1594 -1.9151
  162SAPE    C218066   5.785   5.496   3.962  0.9737 -0.2564  0.4900
  162SAPE    HS18067   5.808   5.387   3.958 -0.6182 -0.5885 -0.2409
  162SAPE   O2118068   5.671   5.524   4.041 -0.3851 -0.8806 -0.8746
  162SAPE   C2118069   5.567   5.449   4.015  0.3283 -0.3603  0.0746
  162SAPE   O2218070   5.567   5.349   3.947 -0.2011  0.1414 -0.2390
  162SAPE   C2218071   5.444   5.508   4.088  0.8927  0.1875 -0.4356
  162SAPE   H2R18072   5.455   5.618   4.084  0.1643  0.2631 -0.4162
  162SAPE   H2S18073   5.361   5.468   4.026  1.6615 -3.2444  0.5423
  162SAPE    C318074   5.913   5.558   4.035  0.7399 -0.2050  0.2949
  162SAPE    HX18075   5.892   5.667   4.049  0.9180 -0.2150  0.6453
  162SAPE    HY18076   5.999   5.543   3.967 -0.2857  0.7443 -1.2619
  162SAPE   O3118077   5.932   5.487   4.161 -0.2008  0.3913 -0.2642
  162SAPE   C3118078   5.962   5.563   4.265  0.4364  0.3332 -0.0357
  162SAPE   O3218079   5.982   5.682   4.258  0.3023 -0.0300  0.6790
  162SAPE   C3218080   5.943   5.481   4.396 -0.1711  0.3030  0.1886
  162SAPE   H2X18081   5.953   5.546   4.485 -1.7271  0.1225  0.5130
  162SAPE   H2Y18082   6.022   5.404   4.410  0.0165  0.2954 -0.8110
  162SAPE   C2318083   5.429   5.450   4.228  0.3218  0.8357  0.6503
  162SAPE   H3R18084   5.525   5.466   4.282  0.5267 -0.3373  0.6578
  162SAPE   H3S18085   5.397   5.343   4.224  0.4150  0.8454 -0.8588
  162SAPE   C2418086   5.318   5.529   4.308 -0.2874  0.2047 -0.3013
  162SAPE   H4R18087   5.357   5.633   4.312 -1.2432  0.6333 -1.4433
  162SAPE   H4S18088   5.316   5.480   4.408  1.4600 -5.2650 -2.5824
  162SAPE   C2518089   5.180   5.533   4.250  0.1520  0.2952  0.1943
  162SAPE   H5R18090   5.169   5.503   4.145  2.1700  0.3893 -0.0814
  162SAPE   C2618091   5.074   5.550   4.324  0.5040 -0.6257 -0.3882
  162SAPE   H6R18092   4.978   5.553   4.271 -0.2238 -0.0096  0.9090
  162SAPE   C2718093   5.064   5.588   4.471 -0.0525 -0.1667  0.0390
  162SAPE   H7R18094   5.161   5.631   4.503 -0.6246  1.8836 -0.7999
  162SAPE   H7S18095   5.054   5.494   4.528 -0.9935  0.2079  0.5007
  162SAPE   C2818096   4.958   5.687   4.490 -0.3917  0.4741 -0.0887
  162SAPE   H8R18097   4.995   5.788   4.465  0.3728 -0.0530 -1.1987
  162SAPE   C2918098   4.825   5.677   4.500 -0.8431 -0.8879 -0.3840
  162SAPE   H9R18099   4.761   5.767   4.497 -0.6483 -0.7502 -0.3766
  162SAPE  C21018100   4.741   5.552   4.512 -0.0770  0.7953  0.1492
  162SAPE  H10R18101   4.803   5.473   4.462 -0.5602 -0.1096  0.9460
  162SAPE  H10S18102   4.647   5.555   4.453 -1.2463 -1.0300  1.7862
  162SAPE  C21118103   4.704   5.510   4.656 -0.7708  0.9717  0.4769
  162SAPE  H11R18104   4.681   5.592   4.724  0.5086  0.6187  1.3843
  162SAPE  C21218105   4.694   5.381   4.701  0.5346 -0.3431  0.5761
  162SAPE  H12R18106   4.674   5.357   4.806  1.6249  2.3655  1.4872
  162SAPE  C21318107   4.709   5.252   4.624 -0.4184  0.1576 -0.1945
  162SAPE  H13R18108   4.704   5.168   4.696  1.7628 -0.9131 -1.1969
  162SAPE  H13S18109   4.809   5.243   4.577 -0.4933  2.1913 -0.8415
  162SAPE  C21418110   4.609   5.240   4.511  0.5857 -0.8839 -0.6070
  162SAPE  H14R18111   4.616   5.315   4.430  0.7936 -0.5025 -0.2401
  162SAPE  C21518112   4.514   5.146   4.496  0.5132  0.0315 -0.2062
  162SAPE  H15R18113   4.444   5.163   4.413 -0.7961  1.4825  1.1250
  162SAPE  C21618114   4.469   5.039   4.589 -0.0821 -0.4101  0.3321
  162SAPE  H16R18115   4.494   5.058   4.696  0.0134 -1.4623  0.5042
  162SAPE  H16S18116   4.528   4.951   4.557  0.3643 -1.3575  3.3879
  162SAPE  C21718117   4.313   5.006   4.586  0.7621 -0.1459  0.4274
  162SAPE  H17R18118   4.301   4.912   4.644 -0.0729  0.1716  0.7753
  162SAPE  H17S18119   4.290   4.989   4.478  1.9484  3.0741 -0.4512
  162SAPE  C21818120   4.236   5.114   4.650  0.1373 -0.0137 -0.1213
  162SAPE  H18R18121   4.253   5.207   4.590 -0.6978  0.7255  0.7615
  162SAPE  H18S18122   4.293   5.133   4.744 -0.9433  1.6749  0.2305
  162SAPE  C21918123   4.095   5.080   4.689  0.6540 -0.0436 -0.1486
  162SAPE  H19R18124   4.110   5.001   4.765  0.7602  0.8893  0.8250
  162SAPE  H19S18125   4.038   5.036   4.605  0.9616  0.1668 -0.4695
  162SAPE  C22018126   4.018   5.202   4.743  1.2223  0.4368  0.5571
  162SAPE  H20R18127   4.001   5.275   4.661 -2.2959 -0.3808  0.3870
  162SAPE  H20S18128   4.078   5.249   4.823  1.5255 -2.3598  2.0758
  162SAPE  H20T18129   3.924   5.160   4.786  1.5274 -0.0410  0.7623
  162SAPE   C3318130   5.804   5.408   4.395  0.0633  0.4767 -0.3678
  162SAPE   H3X18131   5.808   5.310   4.344 -1.7507  1.0556 -1.7022
  162SAPE   H3Y18132   5.730   5.472   4.343 -1.9230 -0.4885  1.1630
  162SAPE   C3418133   5.748   5.397   4.540 -0.4238  0.2704 -0.3757
  162SAPE   H4X18134   5.738   5.503   4.573 -1.2481  0.2583 -0.5802
  162SAPE   H4Y18135   5.820   5.344   4.606  0.8356 -0.4489 -2.2389
  162SAPE   C3518136   5.611   5.328   4.554  0.4783  1.2817  0.5575
  162SAPE   H5X18137   5.618   5.228   4.506 -2.2004  0.8630  0.8476
  162SAPE   H5Y18138   5.558   5.399   4.488  0.7259  0.4728 -0.5352
  162SAPE   C3618139   5.548   5.317   4.696  0.0423  0.0042 -0.0342
  162SAPE   H6X18140   5.442   5.284   4.688  0.0321 -0.3083  1.1373
  162SAPE   H6Y18141   5.543   5.416   4.747 -0.8904 -0.1478  0.1858
  162SAPE   C3718142   5.612   5.215   4.790  0.1771 -0.2960  0.5164
  162SAPE   H7X18143   5.712   5.250   4.824 -0.0789  0.1509  0.8113
  162SAPE   H7Y18144   5.633   5.125   4.728  0.7881  0.2409 -0.0748
  162SAPE   C3818145   5.534   5.182   4.920 -0.1301 -0.0359  0.1670
  162SAPE   H8X18146   5.434   5.139   4.899 -0.2621  0.1600  0.4001
  162SAPE   H8Y18147   5.506   5.274   4.974  1.5013  0.4475  0.2568
  162SAPE   C3918148   5.607   5.082   5.014 -0.4059  0.4739 -0.9685
  162SAPE   H9X18149   5.695   5.131   5.061  0.0718 -1.9308  0.8427
  162SAPE   H9Y18150   5.653   4.994   4.965 -0.3288 -0.3846  0.6016
  162SAPE  C31018151   5.529   5.033   5.133  0.6934  0.2836 -0.2896
  162SAPE  H10X18152   5.590   4.969   5.200 -1.0734 -2.3771 -1.0958
  162SAPE  H10Y18153   5.454   4.961   5.093  0.0196 -1.0349  3.0434
  162SAPE  C31118154   5.463   5.145   5.218 -0.7167  0.5214 -0.1935
  162SAPE  H11X18155   5.405   5.222   5.163 -0.2031  0.8641 -0.2696
  162SAPE  H11Y18156   5.556   5.195   5.252  0.7624  0.0770 -3.2568
  162SAPE  C31218157   5.383   5.087   5.338  0.2592  0.4542 -0.2078
  162SAPE  H12X18158   5.374   5.157   5.425 -2.2917  0.6210 -0.5346
  162SAPE  H12Y18159   5.434   5.001   5.386 -0.2827  0.6530  0.7493
  162SAPE  C31318160   5.242   5.048   5.297 -0.2749 -0.3769 -0.0934
  162SAPE  H13X18161   5.242   4.966   5.222 -0.7857 -0.9702  0.5417
  162SAPE  H13Y18162   5.201   5.138   5.247 -1.3294 -0.8428 -0.1162
  162SAPE  C31418163   5.158   5.009   5.421 -0.6879  0.9304 -0.0895
  162SAPE  H14X18164   5.157   5.086   5.502  1.0520  2.0721 -1.0939
  162SAPE  H14Y18165   5.221   4.926   5.457  0.5326  0.7161 -2.5202
  162SAPE  C31518166   5.021   4.961   5.380 -0.6263 -0.0945 -0.4119
  162SAPE  H15X18167   5.030   4.898   5.289 -0.4340  0.4098 -0.7462
  162SAPE  H15Y18168   4.971   5.050   5.336 -0.4697 -0.1320 -0.6645
  162SAPE  C31618169   4.952   4.878   5.482  0.9268  0.0271 -0.1962
  162SAPE  H16X18170   4.920   4.945   5.565  0.8806  0.1969 -0.3514
  162SAPE  H16Y18171   5.012   4.801   5.537  1.6049  0.1869 -0.6968
  162SAPE  C31718172   4.808   4.822   5.452 -0.0869  0.7422  0.0283
  162SAPE  H17X18173   4.824   4.723   5.406 -1.4749 -0.0408  1.1240
  162SAPE  H17Y18174   4.772   4.896   5.377 -1.3465 -1.0260 -1.2018
  162SAPE  C31818175   4.716   4.804   5.567 -0.6997 -0.1667 -0.3734
  162SAPE  H18X18176   4.695   4.905   5.609 -2.5235  0.3609 -2.3193
  162SAPE  H18Y18177   4.765   4.739   5.642 -2.2012 -1.7651 -0.7061
  162SAPE  H18Z18178   4.618   4.757   5.540 -0.6227 -1.0269  0.7884
  163SAPE     N18179   1.252   4.578   3.746  0.5303 -0.3761  0.6169
  163SAPE   HN118180   1.294   4.603   3.838  0.2963  0.9481  0.3851
  163SAPE   HN218181   1.325   4.531   3.689  4.3260  3.1050  2.0564
  163SAPE   HN318182   1.238   4.670   3.700 -1.3577 -0.7107  0.4741
  163SAPE   C1218183   1.117   4.519   3.776  0.1118  0.6082 -0.5375
  163SAPE  H12A18184   1.106   4.485   3.882 -2.6175 -0.6925 -1.1454
  163SAPE  H12B18185   1.115   4.422   3.722  2.2948  0.5923 -0.7049
  163SAPE   C1118186   1.006   4.617   3.739 -0.4537  0.6043  0.0498
  163SAPE  H11A18187   1.030   4.662   3.640 -1.3450  2.0464  0.4612
  163SAPE  H11B18188   1.011   4.705   3.807  0.4634  0.8180 -0.2881
  163SAPE     P18189   0.801   4.466   3.662  0.1503 -0.2591  0.7601
  163SAPE   O1318190   0.684   4.535   3.600  0.1110  0.2841 -0.1711
  163SAPE   O1418191   0.901   4.411   3.571  0.1210  0.4353  0.0916
  163SAPE   O1218192   0.868   4.569   3.755 -0.3278 -0.3339  0.7568
  163SAPE   O1118193   0.760   4.356   3.759 -0.3340  0.3295  0.0984
  163SAPE    C118194   0.837   4.234   3.795 -0.0645 -0.6520  0.1014
  163SAPE    HA18195   0.820   4.155   3.719  1.8355 -0.7118 -0.3225
  163SAPE    HB18196   0.947   4.246   3.791  0.0229 -1.2499  0.5323
  163SAPE    C218197   0.802   4.190   3.940  0.0573 -0.3788 -0.4721
  163SAPE    HS18198   0.693   4.202   3.955  0.5233  0.7848  2.7721
  163SAPE   O2118199   0.871   4.280   4.037 -0.4334 -0.0210 -0.2796
  163SAPE   C2118200   0.805   4.391   4.064  0.7645 -0.0082  0.0114
  163SAPE   O2218201   0.688   4.410   4.040  0.1103  0.0023  0.3503
  163SAPE   C2218202   0.884   4.507   4.130  0.2423  0.1360  0.2804
  163SAPE   H2R18203   0.894   4.481   4.237  1.8849 -0.4147  0.0254
  163SAPE   H2S18204   0.978   4.528   4.075 -0.1812  1.6454  0.0954
  163SAPE    C318205   0.840   4.044   3.974  0.4985 -0.1500  0.2285
  163SAPE    HX18206   0.928   4.022   3.910  1.2864  0.9343  0.9133
  163SAPE    HY18207   0.759   3.982   3.929 -0.2802  0.4553  0.7524
  163SAPE   O3118208   0.861   4.014   4.109  0.0660 -0.5603  0.4668
  163SAPE   C3118209   0.983   4.036   4.155  0.3523 -0.1006 -0.1364
  163SAPE   O3218210   1.075   4.070   4.089  0.1876  0.5791 -0.2812
  163SAPE   C3218211   0.991   4.011   4.304  0.0610 -0.2555  0.4881
  163SAPE   H2X18212   0.976   3.906   4.336 -1.3546  0.4235  2.2159
  163SAPE   H2Y18213   0.916   4.083   4.344 -1.1548 -0.0790 -1.9392
  163SAPE   C2318214   0.802   4.642   4.133  0.4517  0.8538  0.0862
  163SAPE   H3R18215   0.717   4.617   4.201  1.0166 -2.3760 -0.2617
  163SAPE   H3S18216   0.753   4.674   4.039  0.4277  1.4083  0.2815
  163SAPE   C2418217   0.892   4.759   4.168 -0.0905 -0.3895 -0.1717
  163SAPE   H4R18218   0.958   4.771   4.079  1.7007  2.6295  1.4352
  163SAPE   H4S18219   0.968   4.736   4.245  2.5888  1.7774 -1.9827
  163SAPE   C2518220   0.825   4.892   4.197  0.0413  0.5256 -0.0374
  163SAPE   H5R18221   0.772   4.929   4.109  1.4070  2.9296  0.0916
  163SAPE   C2618222   0.815   4.958   4.311  0.1616 -0.2474 -0.3635
  163SAPE   H6R18223   0.774   5.060   4.304  0.8365  0.0879  0.4746
  163SAPE   C2718224   0.870   4.919   4.445 -0.2170 -0.0966  0.4590
  163SAPE   H7R18225   0.968   4.967   4.467 -1.5843  2.1000  2.2731
  163SAPE   H7S18226   0.890   4.810   4.449  1.1315  0.1210  4.5509
  163SAPE   C2818227   0.787   4.943   4.564 -0.2625 -0.5093  0.1744
  163SAPE   H8R18228   0.682   4.949   4.531 -0.0217  1.7691 -0.3002
  163SAPE   C2918229   0.817   4.976   4.695 -0.1088 -0.0602 -0.2661
  163SAPE   H9R18230   0.734   4.990   4.765  0.0314  0.9187 -0.2732
  163SAPE  C21018231   0.961   4.996   4.758 -0.1589  0.5657  0.6673
  163SAPE  H10R18232   0.982   5.101   4.787  0.4170  0.4635  0.6438
  163SAPE  H10S18233   1.042   4.983   4.683 -0.1080  0.3249  0.7644
  163SAPE  C21118234   0.980   4.913   4.879  0.4515 -0.0083 -1.0068
  163SAPE  H11R18235   1.051   4.829   4.881  0.4639  0.0131 -0.1399
  163SAPE  C21218236   0.920   4.931   4.998  0.0829  0.5577  0.1266
  163SAPE  H12R18237   0.953   4.875   5.087  2.7940  1.8214  0.0199
  163SAPE  C21318238   0.819   5.039   5.026  0.7453 -1.2805 -0.0220
  163SAPE  H13R18239   0.725   5.009   4.976  0.2427 -1.3680  0.9405
  163SAPE  H13S18240   0.855   5.129   4.971  0.8502 -0.0681  1.9208
  163SAPE  C21418241   0.806   5.082   5.174 -0.2076 -0.6276 -0.0762
  163SAPE  H14R18242   0.829   5.188   5.191 -1.8982  0.1250 -2.0091
  163SAPE  C21518243   0.749   4.999   5.268 -0.5559  0.8818 -0.0648
  163SAPE  H15R18244   0.730   5.037   5.369 -0.5034  0.0379  0.2789
  163SAPE  C21618245   0.684   4.858   5.244 -0.7816 -0.2824 -0.3618
  163SAPE  H16R18246   0.708   4.829   5.140  1.9419 -0.6396  0.2712
  163SAPE  H16S18247   0.576   4.865   5.266 -0.1749  2.2506  2.4787
  163SAPE  C21718248   0.762   4.741   5.319  0.3993  0.2428 -0.0129
  163SAPE  H17R18249   0.871   4.745   5.295  0.2928 -0.7244 -0.7117
  163SAPE  H17S18250   0.724   4.643   5.283  1.6441 -0.4023  0.3730
  163SAPE  C21818251   0.749   4.746   5.475  0.2671  0.8166  0.2005
  163SAPE  H18R18252   0.644   4.760   5.509 -0.3261  0.9156 -1.5801
  163SAPE  H18S18253   0.800   4.839   5.507  0.3122  1.5480 -1.8304
  163SAPE  C21918254   0.819   4.623   5.527 -0.8673  0.0931  0.0130
  163SAPE  H19R18255   0.875   4.662   5.615 -1.1982  0.2312  0.1649
  163SAPE  H19S18256   0.888   4.593   5.445  0.6152  3.3712 -0.1157
  163SAPE  C22018257   0.740   4.494   5.557 -0.4725 -0.0856  0.6322
  163SAPE  H20R18258   0.808   4.430   5.616  0.2657  0.3917  0.3278
  163SAPE  H20S18259   0.715   4.424   5.475 -0.9716 -1.4105  1.8887
  163SAPE  H20T18260   0.646   4.518   5.612  0.1598  2.8008  0.6485
  163SAPE   C3318261   1.134   4.035   4.358 -0.1165 -0.1017  0.3997
  163SAPE   H3X18262   1.166   4.141   4.348  1.1672 -0.4334  0.7968
  163SAPE   H3Y18263   1.195   3.969   4.293 -0.4061 -0.6482  0.6756
  163SAPE   C3418264   1.150   3.984   4.504  0.5475 -0.1031  0.3908
  163SAPE   H4X18265   1.159   3.874   4.494  0.6287  0.1388 -3.6491
  163SAPE   H4Y18266   1.070   4.023   4.571 -0.3477 -0.3008 -0.5483
  163SAPE   C3518267   1.287   4.025   4.560 -0.2870  0.0544 -0.6757
  163SAPE   H5X18268   1.289   4.136   4.568 -0.2854  0.1612 -1.9604
  163SAPE   H5Y18269   1.366   3.997   4.487 -0.4701  2.1545 -1.7737
  163SAPE   C3618270   1.316   3.967   4.705 -0.0587  0.3140 -0.0767
  163SAPE   H6X18271   1.333   3.857   4.699 -0.5120  0.0284  2.4345
  163SAPE   H6Y18272   1.220   3.968   4.761  0.0154 -0.7479  0.0913
  163SAPE   C3718273   1.421   4.052   4.778  0.0636 -0.4701  0.1409
  163SAPE   H7X18274   1.388   4.158   4.767 -0.1665 -0.6597 -1.2030
  163SAPE   H7Y18275   1.518   4.050   4.724  0.9949  1.0275  1.6422
  163SAPE   C3818276   1.462   3.994   4.918 -0.1098  0.4756  0.2893
  163SAPE   H8X18277   1.515   3.897   4.905  1.1391  1.1511  0.2013
  163SAPE   H8Y18278   1.367   3.966   4.969  0.0317 -4.2651 -1.5369
  163SAPE   C3918279   1.522   4.093   5.015  0.4985  0.2262  1.3201
  163SAPE   H9X18280   1.463   4.187   5.022  0.6114  0.6726 -2.0595
  163SAPE   H9Y18281   1.628   4.112   4.988  0.6552 -3.3885 -1.1868
  163SAPE  C31018282   1.530   4.033   5.150 -0.8398 -0.0084  0.0551
  163SAPE  H10X18283   1.597   3.946   5.136  0.3909  1.1553 -1.6872
  163SAPE  H10Y18284   1.432   3.993   5.183 -1.3056  1.8238  1.0117
  163SAPE  C31118285   1.590   4.107   5.274  0.9396 -0.5707  0.9837
  163SAPE  H11X18286   1.697   4.130   5.261  0.6602  0.6136  0.6594
  163SAPE  H11Y18287   1.579   4.048   5.367 -2.3410 -2.1262 -0.2303
  163SAPE  C31218288   1.538   4.256   5.297  0.7122 -0.8215 -0.4641
  163SAPE  H12X18289   1.429   4.264   5.319  0.8170 -0.9284  0.1245
  163SAPE  H12Y18290   1.559   4.302   5.199  1.2696  0.0355  0.0492
  163SAPE  C31318291   1.620   4.342   5.392  0.0885  0.8251  0.0012
  163SAPE  H13X18292   1.637   4.443   5.351  0.9194  0.1110 -1.4957
  163SAPE  H13Y18293   1.724   4.304   5.387  0.3350  1.4913  0.0345
  163SAPE  C31418294   1.550   4.356   5.530  0.5547  0.2808 -0.0690
  163SAPE  H14X18295   1.529   4.255   5.572 -0.2520  0.2616 -0.4962
  163SAPE  H14Y18296   1.456   4.414   5.516 -0.2374 -0.9977 -0.2053
  163SAPE  C31518297   1.639   4.430   5.632  0.1578  0.0914  0.9996
  163SAPE  H15X18298   1.738   4.384   5.654 -0.4120 -1.5577  0.2984
  163SAPE  H15Y18299   1.568   4.424   5.718 -1.9477 -1.2785 -0.7249
  163SAPE  C31618300   1.664   4.577   5.607  0.2229 -0.2952 -0.0385
  163SAPE  H16X18301   1.566   4.617   5.573  1.0636  2.0413  0.0727
  163SAPE  H16Y18302   1.746   4.597   5.535 -0.0244 -0.1823 -0.2883
  163SAPE  C31718303   1.703   4.661   5.734  0.9688  0.2132 -0.3054
  163SAPE  H17X18304   1.793   4.609   5.774 -0.4588  0.1191  3.1142
  163SAPE  H17Y18305   1.625   4.637   5.809  0.3036 -0.9815 -1.3488
  163SAPE  C31818306   1.712   4.811   5.701 -0.0561 -0.2433  0.1185
  163SAPE  H18X18307   1.790   4.842   5.627 -1.2701  1.2460 -0.6113
  163SAPE  H18Y18308   1.734   4.865   5.796 -0.3512  0.0569  0.0208
  163SAPE  H18Z18309   1.624   4.852   5.647  0.4977  2.5106  1.1115
  164SAPE     N18310   3.977   3.479   3.307 -0.2186  0.2461 -0.1070
  164SAPE   HN118311   3.964   3.415   3.388 -0.5010  1.6119  0.9674
  164SAPE   HN218312   3.879   3.507   3.286 -0.7476 -0.3992  1.3813
  164SAPE   HN318313   4.003   3.418   3.227 -0.8670 -2.3971  1.5646
  164SAPE   C1218314   4.072   3.584   3.349 -0.0341  0.6792 -0.5018
  164SAPE  H12A18315   4.019   3.679   3.368  0.3423  0.6462  0.7684
  164SAPE  H12B18316   4.150   3.607   3.273 -0.3545  1.7602 -0.5176
  164SAPE   C1118317   4.144   3.553   3.484  0.5905  0.0186 -0.5609
  164SAPE  H11A18318   4.186   3.645   3.531 -1.4493 -0.6061  2.8183
  164SAPE  H11B18319   4.226   3.480   3.466  1.6318  1.0105  0.0283
  164SAPE     P18320   3.948   3.594   3.660  0.2880  0.1707  0.1888
  164SAPE   O1318321   3.819   3.531   3.620 -0.6334  0.2257  0.0678
  164SAPE   O1418322   3.993   3.606   3.804  0.3836 -0.4515  0.7463
  164SAPE   O1218323   4.046   3.504   3.583  0.2697  0.3111  0.0964
  164SAPE   O1118324   3.960   3.726   3.575  0.0641  0.4144  0.2522
  164SAPE    C118325   4.019   3.842   3.629  0.0391 -0.4639  0.1813
  164SAPE    HA18326   4.090   3.818   3.711  0.6182  2.4884  0.6321
  164SAPE    HB18327   4.076   3.900   3.554 -2.1821 -0.2946 -1.4781
  164SAPE    C218328   3.911   3.946   3.681 -0.4449  0.8412 -1.0796
  164SAPE    HS18329   3.966   4.026   3.736  2.6642 -1.6787 -0.2484
  164SAPE   O2118330   3.821   3.880   3.768  0.0238 -0.3702  0.7869
  164SAPE   C2118331   3.875   3.854   3.894  1.0514 -0.4053 -0.0687
  164SAPE   O2218332   3.985   3.883   3.937  0.5650  0.3523 -0.7121
  164SAPE   C2218333   3.770   3.783   3.974  0.5197  0.1985 -0.3478
  164SAPE   H2R18334   3.676   3.841   3.966 -0.4563 -0.9131  2.2261
  164SAPE   H2S18335   3.745   3.685   3.929 -1.2328  0.7503 -0.6421
  164SAPE    C318336   3.826   4.014   3.575 -0.4962 -0.6320  0.2890
  164SAPE    HX18337   3.781   3.946   3.499  0.7742 -1.2423  0.0514
  164SAPE    HY18338   3.897   4.070   3.510 -0.6131 -0.8127  0.0030
  164SAPE   O3118339   3.729   4.113   3.625  0.4174 -0.0322 -0.8736
  164SAPE   C3118340   3.610   4.061   3.636 -0.6747 -0.5342  0.3148
  164SAPE   O3218341   3.570   3.950   3.606  0.1675  0.1202 -0.3935
  164SAPE   C3218342   3.515   4.172   3.687  0.1536  0.0966 -0.7816
  164SAPE   H2X18343   3.476   4.229   3.600 -2.8226 -0.8862 -0.2286
  164SAPE   H2Y18344   3.548   4.249   3.759 -3.0309 -0.2870  1.3033
  164SAPE   C2318345   3.804   3.768   4.126 -0.1981  0.0162 -0.3217
  164SAPE   H3R18346   3.824   3.872   4.161  0.4757  0.2874 -1.4728
  164SAPE   H3S18347   3.894   3.704   4.141  0.5989  1.1950  0.0512
  164SAPE   C2418348   3.685   3.716   4.207  0.1635 -0.7564  0.2822
  164SAPE   H4R18349   3.725   3.687   4.307 -2.4057 -1.1763  1.2666
  164SAPE   H4S18350   3.638   3.628   4.157  0.2757 -0.5265 -0.2320
  164SAPE   C2518351   3.572   3.816   4.228  0.2277  0.0644 -0.9244
  164SAPE   H5R18352   3.492   3.815   4.152 -0.3738  0.8335 -0.3313
  164SAPE   C2618353   3.565   3.893   4.342  0.3705  0.4046  0.4217
  164SAPE   H6R18354   3.486   3.970   4.339  2.0718  2.1802 -2.0850
  164SAPE   C2718355   3.660   3.907   4.456 -0.5172 -0.2859 -0.3350
  164SAPE   H7R18356   3.758   3.943   4.416  0.0718  1.0465  2.1392
  164SAPE   H7S18357   3.693   3.812   4.502  0.5824  0.4248  0.3951
  164SAPE   C2818358   3.632   3.996   4.576 -0.3065 -0.4216 -0.7167
  164SAPE   H8R18359   3.572   4.085   4.552  0.4115  0.9255  2.0615
  164SAPE   C2918360   3.669   3.967   4.704  0.3386  0.3930 -1.1599
  164SAPE   H9R18361   3.639   4.040   4.781 -1.4258  0.7123 -2.0851
  164SAPE  C21018362   3.736   3.850   4.757  0.2027  0.0290  0.2961
  164SAPE  H10R18363   3.792   3.872   4.850 -1.4644 -2.6897  2.1035
  164SAPE  H10S18364   3.803   3.813   4.677 -3.6826 -0.5714 -3.0605
  164SAPE  C21118365   3.636   3.744   4.790 -0.3968  0.0210  0.2153
  164SAPE  H11R18366   3.620   3.680   4.702  0.6867 -0.5273  0.4056
  164SAPE  C21218367   3.567   3.729   4.906 -0.0877 -0.5720  0.6539
  164SAPE  H12R18368   3.487   3.654   4.913 -1.7589  1.2409  1.5958
  164SAPE  C21318369   3.585   3.811   5.031 -0.5944  0.2534 -0.1652
  164SAPE  H13R18370   3.693   3.837   5.043 -0.3430 -0.0082 -1.6393
  164SAPE  H13S18371   3.569   3.747   5.120  0.1498  0.9768  0.5032
  164SAPE  C21418372   3.515   3.943   5.044  0.1500 -1.0202  0.1107
  164SAPE  H14R18373   3.479   3.981   4.947 -1.8497  1.4354  1.6829
  164SAPE  C21518374   3.476   4.007   5.156  0.4577 -0.0562  0.3770
  164SAPE  H15R18375   3.428   4.106   5.149 -0.6749 -0.6214 -0.2194
  164SAPE  C21618376   3.505   3.981   5.296  0.0455  0.4184 -0.0151
  164SAPE  H16R18377   3.604   3.934   5.310  0.0368  0.4491  0.1480
  164SAPE  H16S18378   3.427   3.908   5.327  0.7663 -0.2914  0.1699
  164SAPE  C21718379   3.506   4.102   5.388 -0.2831 -0.4025  0.5659
  164SAPE  H17R18380   3.418   4.169   5.378 -1.5034 -1.7831  1.5743
  164SAPE  H17S18381   3.596   4.164   5.369 -0.3129 -0.4209  0.3653
  164SAPE  C21818382   3.490   4.065   5.533 -0.7856 -0.4511 -0.0946
  164SAPE  H18R18383   3.564   3.989   5.565 -2.7032 -2.4200 -0.0779
  164SAPE  H18S18384   3.387   4.026   5.552 -0.7705 -0.4195  0.0591
  164SAPE  C21918385   3.502   4.186   5.614  0.3227 -0.0134 -0.4691
  164SAPE  H19R18386   3.411   4.249   5.601  0.2698  0.0037 -0.0542
  164SAPE  H19S18387   3.599   4.226   5.577 -0.2550  2.5542  0.5581
  164SAPE  C22018388   3.521   4.152   5.765 -0.4853  0.1523  1.2210
  164SAPE  H20R18389   3.616   4.097   5.781 -0.8507 -0.7315  0.4452
  164SAPE  H20S18390   3.445   4.080   5.804  0.7236 -2.4512 -0.9282
  164SAPE  H20T18391   3.528   4.243   5.829  1.1408 -1.0222  2.8163
  164SAPE   C3318392   3.383   4.103   3.749 -0.4762 -0.3251  0.2205
  164SAPE   H3X18393   3.366   4.024   3.672  1.7517 -0.7140  0.0676
  164SAPE   H3Y18394   3.302   4.179   3.748  1.3112  1.7112 -1.4517
  164SAPE   C3418395   3.385   4.028   3.887  0.6314  0.5832  0.1290
  164SAPE   H4X18396   3.432   3.929   3.867  0.2687  0.5719 -0.6825
  164SAPE   H4Y18397   3.278   4.008   3.911  1.3544 -1.8036  1.7030
  164SAPE   C3518398   3.444   4.117   3.995 -0.1294 -0.1369  0.0309
  164SAPE   H5X18399   3.552   4.135   3.973  0.2137 -2.4192 -0.3561
  164SAPE   H5Y18400   3.435   4.067   4.094 -1.8300 -0.1892 -0.1164
  164SAPE   C3618401   3.366   4.257   4.007  0.2029  0.3241  0.0923
  164SAPE   H6X18402   3.370   4.297   3.904 -1.0012 -2.4421 -1.1237
  164SAPE   H6Y18403   3.439   4.320   4.064 -0.1341  0.8409 -0.0383
  164SAPE   C3718404   3.228   4.255   4.077  0.0473 -0.0061  0.3360
  164SAPE   H7X18405   3.242   4.205   4.174 -1.4115  4.3271  3.0845
  164SAPE   H7Y18406   3.162   4.202   4.004  0.0346  0.3133  0.1123
  164SAPE   C3818407   3.153   4.387   4.107  0.8133  0.2959 -0.5148
  164SAPE   H8X18408   3.138   4.440   4.011  0.8898 -1.2906 -1.4360
  164SAPE   H8Y18409   3.210   4.450   4.179  1.8391  0.1856 -1.2161
  164SAPE   C3918410   3.022   4.364   4.179 -0.2378 -0.4905  0.6474
  164SAPE   H9X18411   3.045   4.308   4.272  0.8156  0.9001  1.2538
  164SAPE   H9Y18412   2.965   4.307   4.102 -1.3390  1.6144 -0.1949
  164SAPE  C31018413   2.945   4.492   4.215 -0.3774 -0.2800 -0.4537
  164SAPE  H10X18414   2.939   4.558   4.125  2.1704 -1.1726 -1.3666
  164SAPE  H10Y18415   2.994   4.550   4.296 -0.8150  1.5310 -1.4111
  164SAPE  C31118416   2.805   4.471   4.271  0.3461  0.4488 -1.0960
  164SAPE  H11X18417   2.747   4.393   4.218  0.5811 -1.5544  1.4353
  164SAPE  H11Y18418   2.742   4.563   4.263  1.9169  1.5540 -1.3410
  164SAPE  C31218419   2.801   4.449   4.425 -0.3265  0.5385  0.3092
  164SAPE  H12X18420   2.874   4.523   4.465  1.2360 -0.0464 -1.3157
  164SAPE  H12Y18421   2.844   4.351   4.457 -1.4105  0.0410  0.2750
  164SAPE  C31318422   2.663   4.462   4.487  0.6712  0.1541  0.2594
  164SAPE  H13X18423   2.591   4.398   4.432 -1.3516  0.7091  2.1126
  164SAPE  H13Y18424   2.624   4.566   4.492 -2.4896 -0.9321  1.1481
  164SAPE  C31418425   2.651   4.405   4.630  0.1724 -0.0548  0.6598
  164SAPE  H14X18426   2.693   4.303   4.632 -0.6072 -0.4199 -0.4147
  164SAPE  H14Y18427   2.542   4.398   4.653 -0.2941  1.6163 -0.7710
  164SAPE  C31518428   2.721   4.499   4.735 -0.4119  0.5920 -0.0870
  164SAPE  H15X18429   2.680   4.601   4.719 -0.1734  0.8906  1.1615
  164SAPE  H15Y18430   2.830   4.501   4.713  0.1093 -1.4438  1.9175
  164SAPE  C31618431   2.696   4.469   4.883  0.0755 -0.2065  0.6549
  164SAPE  H16X18432   2.722   4.365   4.908 -0.9795 -0.6147  0.1467
  164SAPE  H16Y18433   2.591   4.487   4.917  0.1267  0.0991  0.6588
  164SAPE  C31718434   2.784   4.545   4.980 -0.0729  0.0878  0.3039
  164SAPE  H17X18435   2.739   4.644   5.002 -2.0502  0.4340 -4.2470
  164SAPE  H17Y18436   2.877   4.566   4.923 -0.5809  1.9526  0.1146
  164SAPE  C31818437   2.819   4.467   5.105 -0.0819 -0.2821  0.4798
  164SAPE  H18X18438   2.881   4.536   5.166  0.3800 -0.9888  0.8282
  164SAPE  H18Y18439   2.870   4.369   5.094  0.5680 -0.0778  1.4973
  164SAPE  H18Z18440   2.729   4.444   5.165 -2.3712  0.7879 -2.3237
  165SAPE     N18441   1.966   3.488   3.305 -0.3140  0.2481  0.3847
  165SAPE   HN118442   1.945   3.434   3.391  1.1500 -2.4753 -0.8454
  165SAPE   HN218443   1.895   3.472   3.230 -0.3354 -0.2945  0.5180
  165SAPE   HN318444   2.044   3.436   3.259 -2.3431 -2.0419 -0.7170
  165SAPE   C1218445   2.003   3.631   3.336  0.7094  0.2157  0.4644
  165SAPE  H12A18446   1.910   3.691   3.323 -0.0197 -0.5910  1.7465
  165SAPE  H12B18447   2.083   3.661   3.265  0.0615  0.9176  0.0082
  165SAPE   C1118448   2.035   3.643   3.485 -0.3673  0.2228 -1.1150
  165SAPE  H11A18449   1.940   3.611   3.533  0.7829 -3.0384 -0.8047
  165SAPE  H11B18450   2.059   3.748   3.513  1.8876  0.2014 -2.6420
  165SAPE     P18451   2.292   3.599   3.547  0.3050  0.0142 -0.0734
  165SAPE   O1318452   2.376   3.481   3.557  0.0434  0.2833 -0.3250
  165SAPE   O1418453   2.324   3.700   3.442  0.3782 -0.7561 -0.3130
  165SAPE   O1218454   2.141   3.551   3.527 -0.0854  0.1173 -0.6334
  165SAPE   O1118455   2.267   3.669   3.686  0.2653 -0.2905 -0.3790
  165SAPE    C118456   2.358   3.776   3.721  0.4271 -0.5216 -0.2097
  165SAPE    HA18457   2.460   3.736   3.739  0.0594 -0.8482  1.3720
  165SAPE    HB18458   2.369   3.854   3.644 -0.3078 -0.2899 -0.0955
  165SAPE    C218459   2.323   3.845   3.856  0.6126 -0.1361 -0.1385
  165SAPE    HS18460   2.414   3.900   3.889 -0.3609  0.6890  1.2281
  165SAPE   O2118461   2.284   3.758   3.960  0.0323  0.5807 -1.0391
  165SAPE   C2118462   2.370   3.659   3.989  0.1055 -0.1710  0.1796
  165SAPE   O2218463   2.487   3.658   3.959 -0.4110 -0.3170 -0.7000
  165SAPE   C2218464   2.300   3.559   4.083  0.3033  0.1374  0.5441
  165SAPE   H2R18465   2.196   3.589   4.106  1.0709  2.0678  1.7453
  165SAPE   H2S18466   2.298   3.468   4.018  0.7665 -0.0464  0.7812
  165SAPE    C318467   2.206   3.938   3.841 -0.1142  0.0090  0.4067
  165SAPE    HX18468   2.124   3.877   3.797 -0.8829  0.8661  0.6366
  165SAPE    HY18469   2.232   4.018   3.768  0.0681  0.8709  1.3978
  165SAPE   O3118470   2.164   4.004   3.962  0.8292  0.3627 -0.5672
  165SAPE   C3118471   2.054   3.946   4.014  0.0632  0.0537 -0.3480
  165SAPE   O3218472   1.999   3.839   3.980 -0.0499 -0.2817 -0.1050
  165SAPE   C3218473   2.020   4.032   4.136  0.2484 -0.2516 -0.2959
  165SAPE   H2X18474   1.964   4.122   4.105 -1.2323 -0.7198  0.9043
  165SAPE   H2Y18475   2.118   4.061   4.180 -0.9935 -0.3540  2.7586
  165SAPE   C2318476   2.370   3.519   4.223 -0.0888  0.8404  0.7609
  165SAPE   H3R18477   2.472   3.491   4.190  0.2432  0.8215  1.7944
  165SAPE   H3S18478   2.319   3.428   4.263  1.2388  1.0111  3.0020
  165SAPE   C2418479   2.361   3.627   4.325  0.1795 -0.2031  1.2207
  165SAPE   H4R18480   2.405   3.721   4.287  0.6326 -0.1817  1.7909
  165SAPE   H4S18481   2.433   3.595   4.404 -0.9211  0.9518  2.7530
  165SAPE   C2518482   2.218   3.652   4.361  0.0968  0.8306 -0.2671
  165SAPE   H5R18483   2.148   3.684   4.281 -0.4345 -0.4804 -0.3630
  165SAPE   C2618484   2.165   3.632   4.483 -0.6761 -0.4435 -0.1114
  165SAPE   H6R18485   2.057   3.643   4.503 -0.1676  0.4094  2.4738
  165SAPE   C2718486   2.220   3.595   4.613 -0.4233  0.5076 -0.0319
  165SAPE   H7R18487   2.329   3.576   4.602 -0.4275 -0.4130  1.2793
  165SAPE   H7S18488   2.166   3.498   4.623  0.9858 -0.4562 -1.1643
  165SAPE   C2818489   2.198   3.696   4.720 -0.0369 -0.0491 -0.1061
  165SAPE   H8R18490   2.183   3.797   4.679  1.2576 -0.6464 -2.2272
  165SAPE   C2918491   2.199   3.657   4.847 -0.0163  0.5909  0.4739
  165SAPE   H9R18492   2.196   3.734   4.924  1.1073 -0.0305  1.1545
  165SAPE  C21018493   2.219   3.519   4.894  0.2286 -0.0077  0.7554
  165SAPE  H10R18494   2.312   3.529   4.953  1.0472 -0.6818 -0.3755
  165SAPE  H10S18495   2.237   3.438   4.819  1.9191 -0.5493  1.7044
  165SAPE  C21118496   2.109   3.486   4.993  0.4158  0.5260  0.9876
  165SAPE  H11R18497   2.019   3.448   4.941  1.8548 -1.2583 -0.3344
  165SAPE  C21218498   2.123   3.491   5.129 -0.1168 -0.3611  0.6582
  165SAPE  H12R18499   2.033   3.470   5.189  0.1735  0.1195  1.2641
  165SAPE  C21318500   2.254   3.525   5.203  0.2469 -0.0292 -0.4846
  165SAPE  H13R18501   2.349   3.511   5.147  1.3756  4.1662  0.0373
  165SAPE  H13S18502   2.246   3.459   5.293  0.9407  1.0611  0.4118
  165SAPE  C21418503   2.261   3.675   5.234 -0.3522 -0.0427  0.6565
  165SAPE  H14R18504   2.329   3.722   5.161  2.0951  0.6488  3.1823
  165SAPE  C21518505   2.204   3.742   5.337  0.6052  0.2219 -0.4217
  165SAPE  H15R18506   2.224   3.850   5.341 -0.2816  0.4240 -1.0998
  165SAPE  C21618507   2.128   3.676   5.450  0.2027  0.2468  0.2072
  165SAPE  H16R18508   2.082   3.582   5.411  2.0957 -0.4874 -0.4000
  165SAPE  H16S18509   2.042   3.742   5.474  0.1757  0.4495 -0.4418
  165SAPE  C21718510   2.199   3.643   5.585  0.4496  0.0019  0.7721
  165SAPE  H17R18511   2.270   3.558   5.574  0.3077  0.1418 -1.7327
  165SAPE  H17S18512   2.113   3.610   5.648  0.7543 -1.8144  0.3006
  165SAPE  C21818513   2.267   3.762   5.654 -0.0209  0.3938  0.2602
  165SAPE  H18R18514   2.346   3.784   5.580 -0.2755 -0.1130 -0.1650
  165SAPE  H18S18515   2.326   3.720   5.738  1.1530 -0.8100 -1.1139
  165SAPE  C21918516   2.196   3.892   5.696 -0.3251  0.6736 -0.5072
  165SAPE  H19R18517   2.148   3.938   5.607 -1.7948  0.4018  0.1306
  165SAPE  H19S18518   2.268   3.966   5.737  0.3498 -0.2373  0.0116
  165SAPE  C22018519   2.080   3.871   5.796 -0.2830 -0.5852  0.4580
  165SAPE  H20R18520   2.098   3.804   5.882 -1.9381  0.0420  1.3496
  165SAPE  H20S18521   1.998   3.827   5.735  0.8814  0.2739 -1.8737
  165SAPE  H20T18522   2.038   3.970   5.825  0.6360  0.1427 -0.5986
  165SAPE   C3318523   1.961   3.949   4.255  0.6707 -0.5784  0.7596
  165SAPE   H3X18524   2.024   3.862   4.281  1.7669 -0.2023 -0.5263
  165SAPE   H3Y18525   1.859   3.916   4.225 -1.4804  3.3269  2.9966
  165SAPE   C3418526   1.961   4.038   4.382  0.3554  0.7478  0.0707
  165SAPE   H4X18527   1.885   4.117   4.364 -0.0753  0.7997  1.9103
  165SAPE   H4Y18528   2.060   4.084   4.402  0.7000  1.0850 -2.1751
  165SAPE   C3518529   1.921   3.966   4.515 -0.5813 -0.6080 -0.0133
  165SAPE   H5X18530   1.950   3.859   4.511 -2.9452 -1.3125  0.0561
  165SAPE   H5Y18531   1.810   3.971   4.518 -0.5663  2.3686 -1.4818
  165SAPE   C3618532   1.974   4.039   4.641  0.6066  0.3730  0.3890
  165SAPE   H6X18533   1.918   4.134   4.654  1.0341  0.5615  0.9176
  165SAPE   H6Y18534   2.084   4.055   4.643  0.6833  0.6822 -2.6055
  165SAPE   C3718535   1.930   3.957   4.768 -0.1868  0.3672  0.4895
  165SAPE   H7X18536   1.971   3.854   4.763 -2.1648 -0.4192 -0.4876
  165SAPE   H7Y18537   1.821   3.940   4.762 -0.1532 -0.3108  1.6910
  165SAPE   C3818538   1.975   4.025   4.898  0.8043 -0.1445 -0.8157
  165SAPE   H8X18539   1.934   4.126   4.919  0.9513 -0.3335  0.4316
  165SAPE   H8Y18540   2.084   4.031   4.880  1.1517 -4.2610 -1.0417
  165SAPE   C3918541   1.955   3.950   5.027 -0.4795 -0.6630  0.2805
  165SAPE   H9X18542   1.998   3.849   5.010  3.5170  1.2328 -2.1524
  165SAPE   H9Y18543   1.845   3.949   5.043 -0.7800  1.3995 -1.2937
  165SAPE  C31018544   2.027   4.010   5.147 -0.4536  0.2737  0.1380
  165SAPE  H10X18545   2.137   4.001   5.134 -0.5220 -0.3708 -0.0215
  165SAPE  H10Y18546   1.996   3.965   5.244 -0.3864 -0.2273 -0.0675
  165SAPE  C31118547   2.011   4.162   5.157 -0.2144 -0.1169  0.6576
  165SAPE  H11X18548   1.905   4.175   5.124 -0.0565  0.1014  0.2295
  165SAPE  H11Y18549   2.069   4.214   5.078  0.1180 -3.1404 -1.2697
  165SAPE  C31218550   2.031   4.231   5.294 -0.1636  0.0771 -0.0160
  165SAPE  H12X18551   2.135   4.213   5.329 -0.0529  1.9719  0.6943
  165SAPE  H12Y18552   1.959   4.194   5.369  0.1963 -2.7007 -0.9150
  165SAPE  C31318553   2.016   4.383   5.280 -0.1072 -0.7522  0.1627
  165SAPE  H13X18554   1.911   4.409   5.254 -0.5346 -0.9088  1.6540
  165SAPE  H13Y18555   2.086   4.415   5.200  0.5204 -0.5651  0.7860
  165SAPE  C31418556   2.043   4.460   5.408  0.2983 -0.4960 -0.0295
  165SAPE  H14X18557   2.142   4.435   5.451 -0.1093 -1.0309  0.6293
  165SAPE  H14Y18558   1.973   4.443   5.493  0.7099  2.1549  0.9389
  165SAPE  C31518559   2.013   4.612   5.385 -0.1103 -0.1238 -0.3470
  165SAPE  H15X18560   1.910   4.647   5.362  0.0680  0.9155  0.3592
  165SAPE  H15Y18561   2.077   4.639   5.298  0.5825  2.6398  0.9041
  165SAPE  C31618562   2.051   4.688   5.504  0.0946  0.0553 -0.8819
  165SAPE  H16X18563   2.157   4.665   5.528  0.0338  1.0195  0.4488
  165SAPE  H16Y18564   1.990   4.666   5.594 -0.0907  1.4987 -0.6231
  165SAPE  C31718565   2.041   4.845   5.503 -0.9160 -1.0137 -0.0652
  165SAPE  H17X18566   1.938   4.881   5.481 -0.8702 -0.8484 -0.0084
  165SAPE  H17Y18567   2.116   4.876   5.427  0.5468  0.4566  1.8565
  165SAPE  C31818568   2.091   4.905   5.636  0.0114 -1.0476  0.3139
  165SAPE  H18X18569   2.196   4.876   5.660 -0.0689 -1.9723 -0.3642
  165SAPE  H18Y18570   2.025   4.863   5.714 -1.8434 -1.6901 -1.5000
  165SAPE  H18Z18571   2.083   5.016   5.635  0.5944 -1.0006  0.2539
  166SAPE     N18572   4.147   5.341   3.612  0.6601  0.2308  0.1484
  166SAPE   HN118573   4.105   5.302   3.525 -1.7198  0.8999  0.9144
  166SAPE   HN218574   4.178   5.438   3.591 -0.0214  0.7850  1.5986
  166SAPE   HN318575   4.236   5.293   3.634 -0.8014 -1.6001  2.6826
  166SAPE   C1218576   4.041   5.335   3.721  0.2527  0.0212 -0.5059
  166SAPE  H12A18577   4.074   5.381   3.816 -0.4551 -3.5459  1.6677
  166SAPE  H12B18578   4.011   5.231   3.748 -0.2076  0.0707 -0.8063
  166SAPE   C1118579   3.915   5.408   3.677  0.9758  0.6424  0.1108
  166SAPE  H11A18580   3.943   5.515   3.670  0.9061  0.7676  1.4709
  166SAPE  H11B18581   3.834   5.397   3.752  0.6232 -0.5417 -0.4240
  166SAPE     P18582   3.800   5.459   3.452  0.1240 -0.6891 -0.3389
  166SAPE   O1318583   3.898   5.565   3.421  0.0316  0.2975  0.1957
  166SAPE   O1418584   3.746   5.384   3.340 -0.2142 -0.0847 -0.6949
  166SAPE   O1218585   3.872   5.359   3.546 -0.5415 -0.1231  0.0401
  166SAPE   O1118586   3.680   5.505   3.544  0.5097 -0.5473 -0.5557
  166SAPE    C118587   3.669   5.645   3.567 -0.0912 -0.5777  0.1434
  166SAPE    HA18588   3.762   5.684   3.613  1.1595 -2.9661 -0.2156
  166SAPE    HB18589   3.663   5.706   3.474 -0.4294 -0.0206  0.5173
  166SAPE    C218590   3.548   5.677   3.654  0.3544 -0.1909 -0.5208
  166SAPE    HS18591   3.533   5.787   3.658  1.0221 -0.0619 -1.3039
  166SAPE   O2118592   3.561   5.612   3.786 -0.3285 -0.2292 -0.1946
  166SAPE   C2118593   3.648   5.665   3.876 -0.8092 -0.1360 -0.1238
  166SAPE   O2218594   3.697   5.781   3.873 -0.5778  0.6919  0.0431
  166SAPE   C2218595   3.673   5.567   3.994  0.1231  0.0282  0.3243
  166SAPE   H2R18596   3.571   5.526   4.008 -0.1358  0.4077 -0.4321
  166SAPE   H2S18597   3.748   5.489   3.968  1.1360  0.9557  0.4104
  166SAPE    C318598   3.414   5.625   3.598  0.0183 -0.3376 -0.1249
  166SAPE    HX18599   3.407   5.516   3.576  0.1422 -1.0530  2.8865
  166SAPE    HY18600   3.405   5.679   3.502 -2.1952  0.0214  0.2445
  166SAPE   O3118601   3.300   5.647   3.682 -0.0242  0.6187  0.5623
  166SAPE   C3118602   3.259   5.775   3.688  0.6993  0.2726 -0.7581
  166SAPE   O3218603   3.305   5.863   3.616 -0.6085  0.3410 -0.5959
  166SAPE   C3218604   3.168   5.799   3.814  0.2243  0.0219  0.2446
  166SAPE   H2X18605   3.087   5.725   3.831 -0.8764  1.6208  2.5418
  166SAPE   H2Y18606   3.114   5.894   3.796 -1.2108 -0.7368  0.4279
  166SAPE   C2318607   3.730   5.619   4.124  0.2485  0.0999  0.5178
  166SAPE   H3R18608   3.671   5.709   4.149  0.5959  0.4347  0.1300
  166SAPE   H3S18609   3.835   5.644   4.099 -0.9403  2.2615 -2.9469
  166SAPE   C2418610   3.716   5.521   4.236  0.3086 -0.9680  0.1946
  166SAPE   H4R18611   3.642   5.442   4.213  0.6307 -1.1264 -0.3220
  166SAPE   H4S18612   3.670   5.584   4.316  1.4010  0.8093 -0.5109
  166SAPE   C2518613   3.846   5.462   4.289  0.5692  0.8322  0.4675
  166SAPE   H5R18614   3.912   5.404   4.223 -0.6437 -1.9927  1.6022
  166SAPE   C2618615   3.892   5.482   4.417  0.3336 -0.3117 -0.4210
  166SAPE   H6R18616   3.992   5.442   4.441 -0.7558 -2.4456  0.8864
  166SAPE   C2718617   3.824   5.570   4.527  0.7293  0.8519 -0.1820
  166SAPE   H7R18618   3.756   5.647   4.485  1.3869  1.6066  0.1038
  166SAPE   H7S18619   3.894   5.640   4.577 -1.0203  1.0338  2.1683
  166SAPE   C2818620   3.731   5.484   4.620 -0.2113 -0.0683  0.7879
  166SAPE   H8R18621   3.747   5.375   4.620 -1.5548 -0.2856 -0.1273
  166SAPE   C2918622   3.628   5.532   4.692  0.5816 -0.2032  0.1448
  166SAPE   H9R18623   3.578   5.461   4.759  0.7218 -0.2050  0.2465
  166SAPE  C21018624   3.583   5.672   4.702 -0.2719  0.3088  0.1382
  166SAPE  H10R18625   3.635   5.746   4.637  0.8507  0.4944  1.2074
  166SAPE  H10S18626   3.597   5.712   4.805  2.4550  1.2570 -0.5123
  166SAPE  C21118627   3.434   5.683   4.669  0.3454  0.0268  0.7588
  166SAPE  H11R18628   3.422   5.702   4.561 -0.5783  1.2606  1.0526
  166SAPE  C21218629   3.322   5.651   4.743  0.2240  0.0563  0.2856
  166SAPE  H12R18630   3.222   5.658   4.699  0.4637  1.2228 -0.0967
  166SAPE  C21318631   3.318   5.625   4.887  0.7367  0.0171 -0.5077
  166SAPE  H13R18632   3.388   5.541   4.907  0.0835 -0.4890 -0.3142
  166SAPE  H13S18633   3.215   5.593   4.915  0.6247  2.3937  2.2164
  166SAPE  C21418634   3.347   5.748   4.969 -0.0512 -0.0856 -0.0460
  166SAPE  H14R18635   3.320   5.845   4.924  1.6487  0.6886  0.5031
  166SAPE  C21518636   3.401   5.757   5.094  0.1322 -0.3904 -0.3482
  166SAPE  H15R18637   3.419   5.851   5.147 -0.1611 -0.3106 -0.3846
  166SAPE  C21618638   3.447   5.639   5.180 -0.1386  0.0825  0.3809
  166SAPE  H16R18639   3.388   5.544   5.177 -2.2319  1.2963  1.0892
  166SAPE  H16S18640   3.438   5.669   5.286  1.1733 -0.4540  0.6539
  166SAPE  C21718641   3.594   5.618   5.149  0.1050  0.0705  0.1110
  166SAPE  H17R18642   3.650   5.691   5.212 -2.1997  1.9432  0.1411
  166SAPE  H17S18643   3.600   5.630   5.039 -1.7025 -0.2363 -0.0423
  166SAPE  C21818644   3.658   5.477   5.156 -0.5101  0.3071  0.3960
  166SAPE  H18R18645   3.764   5.470   5.124 -0.9708  2.1378 -1.7507
  166SAPE  H18S18646   3.604   5.409   5.087  0.6286 -0.1517 -0.0756
  166SAPE  C21918647   3.641   5.417   5.291 -0.0326  0.0189 -0.1185
  166SAPE  H19R18648   3.669   5.309   5.287  1.9721  0.5258 -0.7049
  166SAPE  H19S18649   3.534   5.425   5.318 -0.0623  1.9839 -0.6542
  166SAPE  C22018650   3.727   5.489   5.401  0.4254  0.1864  0.2026
  166SAPE  H20R18651   3.828   5.509   5.359  1.2569 -1.1856  1.4530
  166SAPE  H20S18652   3.742   5.425   5.491 -0.1100  0.7000  0.6573
  166SAPE  H20T18653   3.694   5.590   5.431  2.4471  0.5788  1.2984
  166SAPE   C3318654   3.244   5.794   3.949  0.0941 -0.3835 -0.1001
  166SAPE   H3X18655   3.175   5.830   4.028 -0.5348 -2.8639  0.5600
  166SAPE   H3Y18656   3.340   5.851   3.953  0.6101 -1.2742  2.1516
  166SAPE   C3418657   3.274   5.646   3.986 -0.4823  0.0982  0.1806
  166SAPE   H4X18658   3.373   5.629   3.937  1.2078  4.6367  1.4827
  166SAPE   H4Y18659   3.190   5.580   3.956  1.4827 -2.9400  0.8641
  166SAPE   C3518660   3.303   5.627   4.134  0.3398 -0.5396  0.2452
  166SAPE   H5X18661   3.225   5.674   4.198  1.7952  0.2471  1.5127
  166SAPE   H5Y18662   3.401   5.674   4.153  0.2347  0.6558 -1.8745
  166SAPE   C3618663   3.304   5.477   4.178 -0.4892  0.2792  1.2327
  166SAPE   H6X18664   3.380   5.422   4.118 -0.1139  1.5695  0.4801
  166SAPE   H6Y18665   3.204   5.431   4.159 -0.5854  1.1641 -0.7145
  166SAPE   C3718666   3.337   5.461   4.324 -0.5269  0.8293 -0.3941
  166SAPE   H7X18667   3.284   5.539   4.383 -2.1630  1.1086 -2.1217
  166SAPE   H7Y18668   3.445   5.478   4.341 -0.7261  0.0078  2.1064
  166SAPE   C3818669   3.306   5.321   4.371  0.5273  0.2264  1.1845
  166SAPE   H8X18670   3.364   5.250   4.308  2.1977  2.7732 -0.3408
  166SAPE   H8Y18671   3.201   5.287   4.358  1.0362 -1.1121  0.4905
  166SAPE   C3918672   3.343   5.311   4.521  0.5645  0.7100 -0.1781
  166SAPE   H9X18673   3.289   5.396   4.569  1.3362  1.0006  0.1960
  166SAPE   H9Y18674   3.451   5.327   4.538  0.4899 -0.3591  1.6837
  166SAPE  C31018675   3.302   5.175   4.581 -0.2346 -0.2199 -0.0159
  166SAPE  H10X18676   3.351   5.102   4.513  1.8437  0.9856  0.0857
  166SAPE  H10Y18677   3.192   5.163   4.580 -0.3298  0.5978 -0.6832
  166SAPE  C31118678   3.355   5.158   4.725 -0.0558  0.4976  0.3018
  166SAPE  H11X18679   3.456   5.203   4.732  0.7003 -0.6812 -1.9639
  166SAPE  H11Y18680   3.378   5.050   4.738  1.2339  0.6323 -0.7165
  166SAPE  C31218681   3.269   5.225   4.835 -0.2870  0.8868 -0.1229
  166SAPE  H12X18682   3.179   5.163   4.853  0.2591 -0.0765 -0.5752
  166SAPE  H12Y18683   3.240   5.319   4.784 -0.6048  0.9718  0.2105
  166SAPE  C31318684   3.352   5.248   4.961 -0.8259 -0.8981  0.0090
  166SAPE  H13X18685   3.424   5.333   4.953 -2.7619  0.7972 -0.2290
  166SAPE  H13Y18686   3.407   5.153   4.975 -0.4835 -0.6365  0.4872
  166SAPE  C31418687   3.270   5.275   5.085  0.5779 -0.1713 -0.1426
  166SAPE  H14X18688   3.163   5.247   5.072  0.5154  0.7998 -1.8867
  166SAPE  H14Y18689   3.257   5.384   5.096 -1.0552 -0.5238  2.1450
  166SAPE  C31518690   3.322   5.203   5.209  0.6733 -0.2094 -0.2888
  166SAPE  H15X18691   3.430   5.227   5.220  0.7575  0.0710 -1.5670
  166SAPE  H15Y18692   3.309   5.094   5.190  1.8432 -0.6818  1.3855
  166SAPE  C31618693   3.246   5.231   5.342  0.4839  0.1369 -0.5352
  166SAPE  H16X18694   3.140   5.198   5.338  0.2516  0.6770  0.6723
  166SAPE  H16Y18695   3.248   5.342   5.352  2.5644  0.1160 -0.3530
  166SAPE  C31718696   3.318   5.178   5.467 -0.5430  0.1358  0.1664
  166SAPE  H17X18697   3.300   5.262   5.538 -1.7570  1.0362 -1.1457
  166SAPE  H17Y18698   3.428   5.180   5.449 -0.6906 -2.3664 -1.5225
  166SAPE  C31818699   3.280   5.035   5.520  0.6575 -0.7121  0.3893
  166SAPE  H18X18700   3.354   5.010   5.599  2.8797 -0.4626 -1.5309
  166SAPE  H18Y18701   3.271   4.948   5.452 -0.9113 -0.8112  0.6789
  166SAPE  H18Z18702   3.176   5.039   5.561 -1.2748 -1.3981 -3.9276
  167SAPE     N18703   3.895   5.089   2.934 -0.5752  0.1298  0.1875
  167SAPE   HN118704   3.927   4.991   2.943  1.9321  0.7665 -0.8950
  167SAPE   HN218705   3.830   5.112   3.013  0.3885 -0.3365  1.1341
  167SAPE   HN318706   3.853   5.111   2.842  0.6667  3.0913  0.2090
  167SAPE   C1218707   4.013   5.181   2.951 -0.2756 -0.3146 -0.6455
  167SAPE  H12A18708   3.990   5.285   2.920  1.0407 -0.1785 -1.2351
  167SAPE  H12B18709   4.109   5.151   2.903  0.1624  0.3843 -0.2270
  167SAPE   C1118710   4.051   5.204   3.104 -0.1017  0.8594  0.0699
  167SAPE  H11A18711   3.984   5.282   3.147 -2.4927 -0.0356 -1.7690
  167SAPE  H11B18712   4.157   5.235   3.093  0.2909  0.0348  1.4238
  167SAPE     P18713   4.074   5.080   3.331  0.1410  0.3179 -0.1291
  167SAPE   O1318714   4.179   4.982   3.373 -0.3228  0.3929 -0.4902
  167SAPE   O1418715   4.093   5.215   3.384 -0.3437 -0.1404  0.1625
  167SAPE   O1218716   4.052   5.087   3.176 -0.5059  0.0279  0.5518
  167SAPE   O1118717   3.923   5.030   3.364 -0.6114 -0.0391  0.0080
  167SAPE    C118718   3.899   4.889   3.355  0.4666  0.0382  0.1179
  167SAPE    HA18719   3.801   4.885   3.303  0.8040  0.4446 -0.5598
  167SAPE    HB18720   3.977   4.843   3.291  0.0623 -0.6397  0.1036
  167SAPE    C218721   3.890   4.808   3.490  0.1190 -0.5575 -0.0813
  167SAPE    HS18722   3.804   4.737   3.482 -0.0572 -0.3521 -0.0027
  167SAPE   O2118723   3.884   4.899   3.606 -0.2126  0.2349  0.5451
  167SAPE   C2118724   3.765   4.963   3.592  1.0612  0.3565 -0.6056
  167SAPE   O2218725   3.670   4.915   3.524  0.0611 -0.2000  0.0570
  167SAPE   C2218726   3.749   5.084   3.677  0.1572 -0.5975  0.6062
  167SAPE   H2R18727   3.840   5.147   3.673 -0.4763  0.6183  3.0245
  167SAPE   H2S18728   3.663   5.145   3.642  0.7488  0.0063  0.1843
  167SAPE    C318729   4.020   4.713   3.508 -0.0048  0.1254 -0.0461
  167SAPE    HX18730   4.108   4.779   3.520  0.9269 -0.6235 -2.2489
  167SAPE    HY18731   4.037   4.654   3.416  0.0346 -0.5522  0.3868
  167SAPE   O3118732   4.009   4.650   3.632  0.1333 -0.3676  0.7630
  167SAPE   C3118733   3.943   4.528   3.634  0.3935 -0.2376  0.1965
  167SAPE   O3218734   3.878   4.482   3.539 -0.4986  0.6274 -0.2895
  167SAPE   C3218735   4.003   4.453   3.754 -0.0981 -0.2597 -0.0324
  167SAPE   H2X18736   4.006   4.523   3.840  0.9217  0.5252 -0.6816
  167SAPE   H2Y18737   4.104   4.412   3.732  0.5049  1.1259  0.0533
  167SAPE   C2318738   3.725   5.037   3.818  0.4649  0.4541  0.2531
  167SAPE   H3R18739   3.808   4.969   3.850 -0.8465 -0.5547  1.6683
  167SAPE   H3S18740   3.644   4.962   3.808  0.5874  0.4169 -0.4763
  167SAPE   C2418741   3.701   5.147   3.920 -0.5702 -0.8733  0.1688
  167SAPE   H4R18742   3.791   5.210   3.928 -0.6055 -0.6486 -1.0302
  167SAPE   H4S18743   3.697   5.100   4.021  3.5091  0.2698  1.0499
  167SAPE   C2518744   3.580   5.226   3.874 -0.0021 -0.0892  0.2270
  167SAPE   H5R18745   3.618   5.319   3.827 -0.7006  1.7150  3.0176
  167SAPE   C2618746   3.459   5.222   3.917  0.6873  0.1629  0.4420
  167SAPE   H6R18747   3.389   5.285   3.860  1.3010  0.0773 -0.4277
  167SAPE   C2718748   3.402   5.115   4.011 -0.5477 -0.4313  0.0226
  167SAPE   H7R18749   3.400   5.149   4.117 -1.3814  0.5996 -0.3120
  167SAPE   H7S18750   3.482   5.039   4.017  0.4950  0.6151 -0.2053
  167SAPE   C2818751   3.272   5.062   3.958 -0.7633 -0.1281 -0.6301
  167SAPE   H8R18752   3.262   5.061   3.849 -2.5616 -1.1553 -0.4933
  167SAPE   C2918753   3.169   5.014   4.040  0.1522 -0.8375 -0.3774
  167SAPE   H9R18754   3.074   4.982   3.995 -2.1062  0.8205  2.8241
  167SAPE  C21018755   3.159   4.994   4.188 -0.0917  0.6456  0.0764
  167SAPE  H10R18756   3.067   5.049   4.219 -1.4303 -0.0381 -2.3900
  167SAPE  H10S18757   3.243   5.050   4.234  1.0785 -1.1357  0.1783
  167SAPE  C21118758   3.143   4.847   4.232  0.1405  0.2835 -0.6664
  167SAPE  H11R18759   3.162   4.776   4.151  2.8348  0.8160 -0.5711
  167SAPE  C21218760   3.102   4.801   4.349 -0.5914 -0.5195  0.4740
  167SAPE  H12R18761   3.116   4.692   4.358  0.7197 -0.2669  1.8201
  167SAPE  C21318762   3.061   4.871   4.471  0.2394 -0.1486 -0.1435
  167SAPE  H13R18763   3.030   4.975   4.447 -0.1915  0.2148  1.8045
  167SAPE  H13S18764   3.151   4.895   4.533 -0.1612 -1.9707  1.2313
  167SAPE  C21418765   2.952   4.793   4.544  0.2312  0.4601 -0.4105
  167SAPE  H14R18766   2.867   4.765   4.479 -0.8091  1.0130  0.6793
  167SAPE  C21518767   2.949   4.767   4.676  0.0091 -0.2422 -0.0183
  167SAPE  H15R18768   2.852   4.723   4.705 -0.3166 -0.3059 -1.1383
  167SAPE  C21618769   3.050   4.792   4.784  0.6316  0.2706 -0.2652
  167SAPE  H16R18770   3.147   4.819   4.737 -0.1547  2.7829 -0.5862
  167SAPE  H16S18771   3.053   4.701   4.847 -0.7202  0.3986  0.0181
  167SAPE  C21718772   2.986   4.902   4.878 -0.1801 -0.1785  0.7078
  167SAPE  H17R18773   2.882   4.885   4.911 -0.2611 -2.0840 -0.3753
  167SAPE  H17S18774   2.990   4.986   4.806 -1.0771 -2.4131 -2.1169
  167SAPE  C21818775   3.085   4.929   4.995  0.0758  0.4412 -0.2633
  167SAPE  H18R18776   3.067   5.032   5.030 -1.2717  0.6624 -1.5215
  167SAPE  H18S18777   3.189   4.916   4.956  0.6657 -0.1897  1.4124
  167SAPE  C21918778   3.054   4.835   5.117  0.5014  0.5615 -0.1458
  167SAPE  H19R18779   3.140   4.830   5.188 -0.5773 -2.0035  1.1302
  167SAPE  H19S18780   3.026   4.729   5.098  2.8465 -0.1133 -0.1485
  167SAPE  C22018781   2.938   4.886   5.212  0.1318  1.2426 -0.0019
  167SAPE  H20R18782   2.961   4.972   5.279  2.1945  0.0455  0.9306
  167SAPE  H20S18783   2.918   4.792   5.268  3.2269  0.3170 -0.2528
  167SAPE  H20T18784   2.853   4.928   5.155 -0.7480  1.1597  1.2077
  167SAPE   C3318785   3.920   4.326   3.787  0.5980  0.2539  0.2223
  167SAPE   H3X18786   3.933   4.259   3.699 -0.5768 -0.4581  0.5624
  167SAPE   H3Y18787   3.811   4.346   3.788  0.6076  0.5129  2.4313
  167SAPE   C3418788   3.950   4.254   3.921 -0.2111  0.7680  0.1784
  167SAPE   H4X18789   4.048   4.203   3.908 -0.1374  0.8997  0.2166
  167SAPE   H4Y18790   3.876   4.172   3.937 -0.7671  0.9830 -1.2274
  167SAPE   C3518791   3.958   4.350   4.039  0.3828  0.2582 -0.2483
  167SAPE   H5X18792   3.877   4.423   4.017  1.6453  0.7247 -4.0120
  167SAPE   H5Y18793   4.055   4.403   4.038  0.1397  0.7121 -0.3305
  167SAPE   C3618794   3.926   4.289   4.172 -0.2974 -0.5762 -0.4604
  167SAPE   H6X18795   3.942   4.369   4.248 -0.1710  1.5708 -2.6310
  167SAPE   H6Y18796   3.996   4.205   4.194  1.6759  0.3515 -2.7458
  167SAPE   C3718797   3.774   4.269   4.184  0.4402 -0.0279  0.0875
  167SAPE   H7X18798   3.735   4.188   4.119  0.1199 -0.1658  0.4441
  167SAPE   H7Y18799   3.728   4.367   4.160  1.6101  0.4116 -0.4541
  167SAPE   C3818800   3.730   4.242   4.331  0.0226 -0.4778  0.2134
  167SAPE   H8X18801   3.813   4.185   4.378 -0.7738  0.3554  2.8160
  167SAPE   H8Y18802   3.631   4.191   4.326 -0.4243  0.4995 -1.6961
  167SAPE   C3918803   3.709   4.369   4.410  0.4671  0.0017 -0.1387
  167SAPE   H9X18804   3.779   4.448   4.375  0.4615  0.3580  0.6197
  167SAPE   H9Y18805   3.732   4.358   4.519 -0.5850  0.1327  0.1115
  167SAPE  C31018806   3.563   4.415   4.403 -0.8044 -1.0370  0.3910
  167SAPE  H10X18807   3.530   4.383   4.302 -1.7043 -0.9920  0.6625
  167SAPE  H10Y18808   3.568   4.526   4.408 -3.9254 -0.8440  3.4898
  167SAPE  C31118809   3.473   4.373   4.518  1.2112 -0.0979 -0.0085
  167SAPE  H11X18810   3.508   4.400   4.620  0.9749 -1.3948  0.4479
  167SAPE  H11Y18811   3.456   4.263   4.522  0.4053  0.0494  2.4237
  167SAPE  C31218812   3.336   4.440   4.516  1.1628 -0.2159  0.1773
  167SAPE  H12X18813   3.277   4.402   4.430  1.6502 -0.8925  0.1344
  167SAPE  H12Y18814   3.335   4.551   4.507  2.3512 -0.2360 -0.4052
  167SAPE  C31318815   3.244   4.418   4.638  0.4706 -1.0265 -0.5586
  167SAPE  H13X18816   3.217   4.311   4.647 -2.0245 -0.4100 -0.1578
  167SAPE  H13Y18817   3.149   4.463   4.602  0.4640  0.1971  0.8791
  167SAPE  C31418818   3.287   4.478   4.768  0.0060  0.0492 -0.1398
  167SAPE  H14X18819   3.270   4.588   4.769  1.7082  0.3695  1.8321
  167SAPE  H14Y18820   3.397   4.459   4.771 -0.0086 -0.4297 -1.7370
  167SAPE  C31518821   3.236   4.410   4.896 -0.3666 -0.3565  0.1590
  167SAPE  H15X18822   3.282   4.309   4.889 -1.4577 -0.7906 -1.1748
  167SAPE  H15Y18823   3.125   4.403   4.898 -0.3176 -1.1163  0.3286
  167SAPE  C31618824   3.283   4.486   5.022  0.9639 -0.3653  0.2507
  167SAPE  H16X18825   3.239   4.586   5.006  1.7505  1.0512  5.1614
  167SAPE  H16Y18826   3.394   4.485   5.011  1.0390 -1.2428  0.9448
  167SAPE  C31718827   3.228   4.436   5.152 -0.1846  0.1668 -0.5130
  167SAPE  H17X18828   3.277   4.339   5.177  1.3660  1.1334  0.3267
  167SAPE  H17Y18829   3.119   4.415   5.139 -0.1110  0.3927 -1.6265
  167SAPE  C31818830   3.255   4.536   5.269  0.4892 -0.6536  0.4732
  167SAPE  H18X18831   3.187   4.621   5.248  0.8775  0.4749  3.3337
  167SAPE  H18Y18832   3.354   4.586   5.282 -0.0929  0.5963  0.2705
  167SAPE  H18Z18833   3.225   4.484   5.362  1.1008 -1.9457 -0.0262
  168SAPE     N18834   6.191   5.593   3.406 -0.8913 -0.1750 -0.0756
  168SAPE   HN118835   6.096   5.621   3.439 -1.1962 -1.2258 -0.0170
  168SAPE   HN218836   6.189   5.528   3.325 -0.0433 -2.1376  1.3750
  168SAPE   HN318837   6.243   5.540   3.480  2.4796  0.7937 -1.5820
  168SAPE   C1218838   6.275   5.714   3.367  0.4109 -0.2302 -0.1329
  168SAPE  H12A18839   6.218   5.768   3.289 -0.6201 -0.1908  0.6327
  168SAPE  H12B18840   6.370   5.671   3.328  0.1100 -1.6004  0.5764
  168SAPE   C1118841   6.315   5.795   3.489 -0.7967 -0.3697 -0.0362
  168SAPE  H11A18842   6.334   5.730   3.577 -0.7215 -0.5560 -0.1894
  168SAPE  H11B18843   6.222   5.846   3.524 -1.4272 -2.8404  2.2175
  168SAPE     P18844   6.422   6.033   3.460  0.6662 -0.0058  0.6401
  168SAPE   O1318845   6.545   6.067   3.384  0.0241 -0.4094  0.2245
  168SAPE   O1418846   6.292   6.075   3.396  0.3817 -0.1530 -0.1972
  168SAPE   O1218847   6.432   5.877   3.466 -0.2236  0.6079  0.6412
  168SAPE   O1118848   6.429   6.082   3.607 -0.0394 -0.4140  0.0695
  168SAPE    C118849   6.561   6.095   3.676  0.4169  0.2477  0.1094
  168SAPE    HA18850   6.627   6.140   3.598 -1.8878  0.0452 -2.0846
  168SAPE    HB18851   6.561   6.164   3.763  1.8081 -1.1510  1.2711
  168SAPE    C218852   6.611   5.955   3.732 -0.1967 -0.6238 -0.3616
  168SAPE    HS18853   6.596   5.892   3.642  0.7382 -0.9811 -0.2789
  168SAPE   O2118854   6.523   5.913   3.835  0.2095  0.0696  0.2540
  168SAPE   C2118855   6.491   5.787   3.829  0.5321 -0.5731 -0.3456
  168SAPE   O2218856   6.539   5.705   3.752  0.3864 -0.0228 -0.0072
  168SAPE   C2218857   6.366   5.763   3.916 -0.3014  0.2784  0.7530
  168SAPE   H2R18858   6.356   5.842   3.993 -0.5224  0.7429  0.2505
  168SAPE   H2S18859   6.283   5.770   3.843  0.3320  3.0762  0.1704
  168SAPE    C318860   6.761   5.954   3.774 -0.3126  0.5092 -0.4354
  168SAPE    HX18861   6.828   5.972   3.687  0.5711  1.4532  0.4154
  168SAPE    HY18862   6.788   5.854   3.813 -0.4305  0.9947  0.9604
  168SAPE   O3118863   6.789   6.048   3.886 -0.3202  0.0015 -0.5132
  168SAPE   C3118864   6.905   6.035   3.952  0.2012  0.5236 -0.1933
  168SAPE   O3218865   6.996   5.955   3.929  0.6308 -0.2223  0.4623
  168SAPE   C3218866   6.911   6.127   4.075  0.2379 -0.0269  0.2801
  168SAPE   H2X18867   6.805   6.123   4.109  0.3656 -1.6901  0.5789
  168SAPE   H2Y18868   6.932   6.231   4.044 -2.3137  0.1990 -1.0118
  168SAPE   C2318869   6.368   5.623   3.978  0.1278 -0.7344 -0.3882
  168SAPE   H3R18870   6.367   5.545   3.899 -0.4527 -0.2663 -0.8610
  168SAPE   H3S18871   6.275   5.597   4.035 -1.2193  0.3815 -1.9747
  168SAPE   C2418872   6.489   5.614   4.076 -0.8246  0.3247  0.5304
  168SAPE   H4R18873   6.576   5.652   4.020 -1.1234 -1.4101 -1.2014
  168SAPE   H4S18874   6.517   5.511   4.107 -0.2695 -0.4891 -2.3992
  168SAPE   C2518875   6.451   5.695   4.204  0.0820 -0.1353  0.6361
  168SAPE   H5R18876   6.469   5.803   4.191 -0.0372 -0.3071 -1.3812
  168SAPE   C2618877   6.401   5.649   4.320 -0.4197 -0.1768  0.3140
  168SAPE   H6R18878   6.362   5.730   4.383 -2.7814  0.5245 -1.8754
  168SAPE   C2718879   6.339   5.513   4.344  0.1613  0.3693 -0.3525
  168SAPE   H7R18880   6.318   5.459   4.249 -1.8643 -1.1017  0.8604
  168SAPE   H7S18881   6.239   5.525   4.391 -0.0180  1.3835 -0.9520
  168SAPE   C2818882   6.437   5.439   4.434  0.1384 -0.7509 -0.1053
  168SAPE   H8R18883   6.530   5.406   4.386  0.1478  2.0984 -2.2326
  168SAPE   C2918884   6.422   5.430   4.569  0.2429 -0.0154 -0.2351
  168SAPE   H9R18885   6.496   5.367   4.621 -1.0231 -1.4429 -0.0864
  168SAPE  C21018886   6.309   5.489   4.652 -0.1378  0.4492 -0.3916
  168SAPE  H10R18887   6.284   5.584   4.600 -0.0695  0.5971 -0.1535
  168SAPE  H10S18888   6.348   5.508   4.754 -1.7038  0.1478  0.2919
  168SAPE  C21118889   6.185   5.397   4.652 -0.3647 -0.6615 -0.0170
  168SAPE  H11R18890   6.179   5.334   4.562  1.2453  0.3392 -0.8746
  168SAPE  C21218891   6.089   5.378   4.751 -0.2263  0.1678 -0.2274
  168SAPE  H12R18892   6.009   5.303   4.738 -0.0317  0.2996 -2.6028
  168SAPE  C21318893   6.085   5.445   4.886 -0.1358  0.0223 -0.0168
  168SAPE  H13R18894   6.147   5.536   4.903  1.0461 -0.2820 -2.2904
  168SAPE  H13S18895   6.113   5.365   4.958  0.8264  1.3234  1.1103
  168SAPE  C21418896   5.944   5.497   4.911  0.2653  0.1971  0.6042
  168SAPE  H14R18897   5.875   5.499   4.825  1.3003 -0.2136 -0.2652
  168SAPE  C21518898   5.897   5.546   5.029 -0.1369 -0.7415  0.3689
  168SAPE  H15R18899   5.792   5.578   5.028  0.1585  0.2471 -0.5528
  168SAPE  C21618900   5.977   5.562   5.159 -0.7095 -0.6432  0.4434
  168SAPE  H16R18901   6.056   5.640   5.153 -1.5832  0.4186  2.0926
  168SAPE  H16S18902   6.025   5.466   5.187  1.2869  0.0827 -0.2944
  168SAPE  C21718903   5.892   5.589   5.282 -0.0148 -0.4124 -0.3437
  168SAPE  H17R18904   5.851   5.690   5.261  0.0661 -0.5532 -1.2118
  168SAPE  H17S18905   5.969   5.586   5.362 -1.4479  0.1012  1.1036
  168SAPE  C21818906   5.766   5.499   5.299  0.5216  0.6015 -0.4700
  168SAPE  H18R18907   5.785   5.394   5.270 -0.9917  0.9364 -2.9980
  168SAPE  H18S18908   5.686   5.548   5.239  0.6062  1.0141 -0.2517
  168SAPE  C21918909   5.710   5.511   5.448 -0.2232 -0.9124 -0.1142
  168SAPE  H19R18910   5.702   5.619   5.472  3.5430 -0.6239  0.3497
  168SAPE  H19S18911   5.787   5.465   5.513 -0.9729 -0.7837  0.8761
  168SAPE  C22018912   5.570   5.455   5.462  0.2068  0.5508  0.9092
  168SAPE  H20R18913   5.514   5.472   5.367  0.6734  1.3360  0.7702
  168SAPE  H20S18914   5.503   5.492   5.542  0.8047 -3.3856  3.4945
  168SAPE  H20T18915   5.561   5.344   5.472  1.0011  0.6831  3.6111
  168SAPE   C3318916   7.015   6.088   4.187 -0.1516  1.0486 -0.2867
  168SAPE   H3X18917   7.043   6.172   4.254 -0.9478  1.1010 -0.0061
  168SAPE   H3Y18918   7.109   6.050   4.142 -0.1538 -0.4916  0.9026
  168SAPE   C3418919   6.969   5.977   4.282 -0.0781  0.3621  0.4829
  168SAPE   H4X18920   7.053   5.951   4.350  0.4449 -1.8817 -0.9097
  168SAPE   H4Y18921   6.940   5.885   4.226 -2.7484  0.8429  0.9307
  168SAPE   C3518922   6.848   6.015   4.373  0.7310 -0.7248 -0.0529
  168SAPE   H5X18923   6.751   6.037   4.324  1.6719  2.5272 -0.7579
  168SAPE   H5Y18924   6.862   6.110   4.429 -1.5821  1.6940 -3.1952
  168SAPE   C3618925   6.818   5.897   4.466 -0.0613  0.5238 -0.5466
  168SAPE   H6X18926   6.891   5.880   4.548  0.6000  2.7031 -0.6035
  168SAPE   H6Y18927   6.816   5.810   4.398 -1.0022 -1.8717  2.3090
  168SAPE   C3718928   6.679   5.917   4.528 -0.2384 -0.1345  0.5916
  168SAPE   H7X18929   6.608   5.916   4.443  2.2074 -0.1183 -1.5569
  168SAPE   H7Y18930   6.677   6.020   4.571  1.1900  0.8388 -1.5286
  168SAPE   C3818931   6.650   5.815   4.634  0.0627  0.4563 -0.2892
  168SAPE   H8X18932   6.736   5.784   4.697  2.5504  1.2150 -3.0884
  168SAPE   H8Y18933   6.611   5.730   4.574  0.2302  1.5578 -2.0492
  168SAPE   C3918934   6.548   5.868   4.741 -0.7663 -0.2702  0.4506
  168SAPE   H9X18935   6.453   5.881   4.685 -0.8099 -1.7266  0.1408
  168SAPE   H9Y18936   6.588   5.969   4.764 -1.1970 -0.3850  1.8104
  168SAPE  C31018937   6.511   5.782   4.867  0.3024  0.6452 -0.1883
  168SAPE  H10X18938   6.611   5.768   4.915 -0.0992  0.4985  0.6222
  168SAPE  H10Y18939   6.485   5.684   4.822 -1.9607  2.0524 -2.2157
  168SAPE  C31118940   6.414   5.855   4.953  0.1941  0.5941  0.1926
  168SAPE  H11X18941   6.365   5.774   5.010  4.1448  0.3533  3.7443
  168SAPE  H11Y18942   6.337   5.908   4.893 -0.6506  1.9976  2.3458
  168SAPE  C31218943   6.479   5.949   5.053 -0.6478 -0.5938  0.1516
  168SAPE  H12X18944   6.515   6.032   4.989 -0.8741  0.6637  1.6150
  168SAPE  H12Y18945   6.556   5.897   5.115  0.4802 -0.3017 -0.9513
  168SAPE  C31318946   6.383   6.020   5.162 -0.8673 -0.4568 -0.1595
  168SAPE  H13X18947   6.311   6.091   5.117  0.1639 -0.2710 -1.5558
  168SAPE  H13Y18948   6.444   6.084   5.228  0.2877 -1.5430 -0.1435
  168SAPE  C31418949   6.306   5.921   5.260  0.8996  0.2535  0.0908
  168SAPE  H14X18950   6.378   5.854   5.311  0.9073  1.7156  2.1231
  168SAPE  H14Y18951   6.223   5.858   5.220  0.4421  0.5360  0.5772
  168SAPE  C31518952   6.226   5.989   5.373 -0.1519 -0.2700  1.2020
  168SAPE  H15X18953   6.149   6.056   5.328 -1.6240 -0.6646  3.0337
  168SAPE  H15Y18954   6.291   6.052   5.436  1.1105  0.5053 -0.7681
  168SAPE  C31618955   6.169   5.886   5.467 -0.4518  0.0313 -0.1175
  168SAPE  H16X18956   6.235   5.834   5.540 -0.3345 -1.4799 -1.2586
  168SAPE  H16Y18957   6.142   5.795   5.411 -0.6612  0.5173 -0.8130
  168SAPE  C31718958   6.047   5.939   5.545 -0.1281 -0.1839 -0.5081
  168SAPE  H17X18959   5.971   5.967   5.470  0.8514 -0.2299 -1.5457
  168SAPE  H17Y18960   6.062   6.036   5.597 -1.2189 -0.2598 -0.0267
  168SAPE  C31818961   5.991   5.835   5.648  0.2804  0.2092  0.1391
  168SAPE  H18X18962   6.061   5.791   5.722  0.4940  2.1398  1.1621
  168SAPE  H18Y18963   5.946   5.753   5.588 -0.1236 -0.1599  0.9279
  168SAPE  H18Z18964   5.906   5.889   5.695 -0.0538 -1.4064  1.4947
  169SAPE     N18965   6.530   0.404   3.316  0.1478  0.2300 -0.1651
  169SAPE   HN118966   6.530   0.499   3.273 -0.5280  0.3216  0.0366
  169SAPE   HN218967   6.535   0.334   3.239 -1.0060 -0.3352  0.2634
  169SAPE   HN318968   6.440   0.389   3.364  0.7260 -0.0498  0.8609
  169SAPE   C1218969   6.647   0.393   3.406  0.0003  0.3598 -0.2254
  169SAPE  H12A18970   6.736   0.412   3.341 -1.2165  1.4142 -1.6669
  169SAPE  H12B18971   6.656   0.286   3.435 -2.5295  0.2154  0.2216
  169SAPE   C1118972   6.647   0.489   3.519 -0.5162  0.0502  0.1415
  169SAPE  H11A18973   6.732   0.476   3.589  0.3954  0.7555 -0.8125
  169SAPE  H11B18974   6.560   0.455   3.580 -1.5347  0.9615 -0.7498
  169SAPE     P18975   6.551   0.726   3.564 -0.2203 -0.2975 -0.2503
  169SAPE   O1318976   6.629   0.854   3.558 -0.1957 -0.0290  0.1619
  169SAPE   O1418977   6.410   0.734   3.511 -0.0336  0.4939 -0.5797
  169SAPE   O1218978   6.628   0.620   3.473 -0.2111 -0.3219  0.1691
  169SAPE   O1118979   6.554   0.668   3.715 -0.2458  0.2039  0.1311
  169SAPE    C118980   6.667   0.712   3.799  0.3147 -0.9928  0.1378
  169SAPE    HA18981   6.761   0.696   3.743  1.5871  0.0065  1.9182
  169SAPE    HB18982   6.653   0.821   3.810 -1.6676 -1.1560 -0.2900
  169SAPE    C218983   6.674   0.644   3.939 -0.3890 -0.4325  0.2111
  169SAPE    HS18984   6.576   0.678   3.980 -2.8050 -1.8040 -3.8000
  169SAPE   O2118985   6.795   0.688   4.003  0.0034  0.5625 -0.1714
  169SAPE   C2118986   6.781   0.818   4.050 -0.2388 -0.0853 -0.4118
  169SAPE   O2218987   6.689   0.892   4.031  0.1465 -0.5381  0.3987
  169SAPE   C2218988   6.900   0.860   4.130  0.2970 -0.1313  0.2035
  169SAPE   H2R18989   6.929   0.789   4.210 -0.4318  0.6223  1.1552
  169SAPE   H2S18990   6.990   0.870   4.065  0.3514  1.5037  0.4795
  169SAPE    C318991   6.655   0.492   3.935 -0.5023  0.6797 -0.4182
  169SAPE    HX18992   6.716   0.450   3.852 -0.1377 -1.7641  0.9806
  169SAPE    HY18993   6.550   0.460   3.920 -0.4539 -1.2063  2.4770
  169SAPE   O3118994   6.715   0.433   4.056  0.1903  0.2237  0.5755
  169SAPE   C3118995   6.646   0.438   4.165 -0.5586 -0.1704 -0.2876
  169SAPE   O3218996   6.533   0.483   4.169  0.3041  0.1582  0.3030
  169SAPE   C3218997   6.728   0.402   4.287  0.2045 -0.3478 -0.4121
  169SAPE   H2X18998   6.776   0.487   4.339 -3.6140  0.6410  1.8377
  169SAPE   H2Y18999   6.817   0.347   4.250 -0.5196 -0.4761 -2.0812
  169SAPE   C2319000   6.876   1.005   4.184 -0.8372  0.2657 -0.1685
  169SAPE   H3R19001   6.814   1.064   4.113 -1.2000  0.5748  0.4011
  169SAPE   H3S19002   6.976   1.052   4.193 -0.3281 -0.9655  0.8402
  169SAPE   C2419003   6.808   1.010   4.320 -0.1077  0.4559 -0.3856
  169SAPE   H4R19004   6.779   1.116   4.338  0.5222  0.6350 -0.3821
  169SAPE   H4S19005   6.885   0.989   4.398 -0.6823 -0.1849  0.0112
  169SAPE   C2519006   6.690   0.916   4.339 -0.4566 -0.0222 -0.3032
  169SAPE   H5R19007   6.599   0.938   4.280 -0.8019 -0.6650 -0.0242
  169SAPE   C2619008   6.677   0.815   4.426 -0.8539 -0.6849 -0.0954
  169SAPE   H6R19009   6.586   0.753   4.426 -1.9644  0.8669 -0.8013
  169SAPE   C2719010   6.782   0.784   4.528  0.6744 -0.2259  0.1264
  169SAPE   H7R19011   6.884   0.797   4.487  1.6868  0.4127  2.6109
  169SAPE   H7S19012   6.770   0.674   4.540  1.3415 -0.3419 -0.2264
  169SAPE   C2819013   6.750   0.865   4.655  0.5500  0.1752  0.2455
  169SAPE   H8R19014   6.818   0.951   4.663  1.8369 -0.6885 -0.9964
  169SAPE   C2919015   6.658   0.853   4.750  0.5710  0.5063 -0.2657
  169SAPE   H9R19016   6.645   0.921   4.835 -2.2753 -0.9749  0.5988
  169SAPE  C21019017   6.545   0.749   4.758  0.0042  0.5605 -0.1755
  169SAPE  H10R19018   6.554   0.681   4.845  1.0582 -0.9434 -1.4136
  169SAPE  H10S19019   6.553   0.686   4.667 -1.9287  0.1526 -0.1012
  169SAPE  C21119020   6.413   0.818   4.763 -0.1858 -0.0216  0.4361
  169SAPE  H11R19021   6.393   0.876   4.671  1.0508  2.3068  1.5466
  169SAPE  C21219022   6.338   0.853   4.867 -0.2735 -0.7570 -0.1655
  169SAPE  H12R19023   6.237   0.887   4.841 -0.8167 -3.0755 -1.3126
  169SAPE  C21319024   6.347   0.805   5.012  0.2525 -0.1673  0.2159
  169SAPE  H13R19025   6.380   0.699   5.001 -0.8530 -0.3389 -1.8769
  169SAPE  H13S19026   6.247   0.792   5.058  1.5970 -1.0255  3.1832
  169SAPE  C21419027   6.445   0.893   5.097  0.5485 -0.4922 -0.0179
  169SAPE  H14R19028   6.548   0.858   5.104  1.5342  1.9218 -1.0423
  169SAPE  C21519029   6.414   1.012   5.160 -0.1436  0.3459 -0.1550
  169SAPE  H15R19030   6.491   1.073   5.209  2.4873 -1.2105 -2.0587
  169SAPE  C21619031   6.276   1.074   5.176 -0.0834  0.0074  0.1114
  169SAPE  H16R19032   6.201   1.040   5.101 -1.7896 -0.8205  2.0988
  169SAPE  H16S19033   6.288   1.179   5.143 -0.7265  0.2357  0.5701
  169SAPE  C21719034   6.208   1.065   5.310 -0.6916  0.2093 -0.4874
  169SAPE  H17R19035   6.228   0.967   5.358 -0.6993  1.0458  1.3026
  169SAPE  H17S19036   6.099   1.057   5.291 -0.8500 -0.7790  0.7737
  169SAPE  C21819037   6.232   1.174   5.410 -0.7108 -0.3580  1.1962
  169SAPE  H18R19038   6.219   1.271   5.358  0.8513 -1.1379 -0.7601
  169SAPE  H18S19039   6.339   1.163   5.436 -1.0733 -1.8520  2.2336
  169SAPE  C21919040   6.168   1.154   5.550 -0.3247  0.2262  0.5178
  169SAPE  H19R19041   6.234   1.198   5.628 -0.3125  0.4260  0.3945
  169SAPE  H19S19042   6.151   1.047   5.575 -0.5837 -0.5864 -2.7221
  169SAPE  C22019043   6.033   1.226   5.582 -0.3053 -0.7238  0.5926
  169SAPE  H20R19044   5.984   1.194   5.676 -0.3345 -0.4559  0.6694
  169SAPE  H20S19045   5.972   1.217   5.489 -0.4511 -0.4883  0.6646
  169SAPE  H20T19046   6.066   1.332   5.586 -0.2610 -0.7676  1.6471
  169SAPE   C3319047   6.641   0.330   4.400  0.1380 -0.0540 -0.6164
  169SAPE   H3X19048   6.715   0.275   4.461  1.8358  0.8679 -1.7422
  169SAPE   H3Y19049   6.570   0.262   4.349 -0.4674  1.1023 -1.3439
  169SAPE   C3419050   6.558   0.426   4.488  0.6791  0.1231 -0.0514
  169SAPE   H4X19051   6.496   0.499   4.433  0.5316  0.0746  0.0479
  169SAPE   H4Y19052   6.632   0.491   4.540  0.5438  0.3098 -0.0904
  169SAPE   C3519053   6.473   0.358   4.604  0.1538  0.6207 -0.6283
  169SAPE   H5X19054   6.388   0.307   4.552 -0.4369  2.0200 -1.1079
  169SAPE   H5Y19055   6.415   0.430   4.666 -2.4337 -2.6997  1.1414
  169SAPE   C3619056   6.548   0.263   4.693  0.8364  0.3150  0.0252
  169SAPE   H6X19057   6.654   0.296   4.704  1.2650 -0.3181 -1.7877
  169SAPE   H6Y19058   6.547   0.166   4.640 -2.0578  0.3621 -0.1690
  169SAPE   C3719059   6.492   0.247   4.836 -0.1807  0.2180 -0.2705
  169SAPE   H7X19060   6.391   0.204   4.823  0.5305 -2.1524  1.4284
  169SAPE   H7Y19061   6.481   0.340   4.895  0.6959  0.2479 -0.1420
  169SAPE   C3819062   6.563   0.144   4.920  0.0118 -0.5252  0.4288
  169SAPE   H8X19063   6.668   0.178   4.929  0.3528 -1.4955  0.3071
  169SAPE   H8Y19064   6.573   0.048   4.865 -0.4976  0.4720 -1.5164
  169SAPE   C3919065   6.501   0.125   5.062  0.2372  0.2271 -0.5445
  169SAPE   H9X19066   6.539   0.213   5.119  2.3361  0.7248 -2.5783
  169SAPE   H9Y19067   6.561   0.048   5.115 -1.8704  0.1193  1.8835
  169SAPE  C31019068   6.350   0.105   5.083  0.7954  0.5163  0.4902
  169SAPE  H10X19069   6.321   0.023   5.014  1.4061  1.5641 -1.0778
  169SAPE  H10Y19070   6.290   0.197   5.064 -1.2160 -0.7103  0.5787
  169SAPE  C31119071   6.314   0.051   5.224  0.5339 -0.1110  0.1350
  169SAPE  H11X19072   6.383  -0.033   5.246  0.9691  0.3172  0.4247
  169SAPE  H11Y19073   6.211   0.011   5.213  0.5265  0.0708 -0.5005
  169SAPE  C31219074   6.308   0.158   5.341 -0.0518  0.2950  0.9559
  169SAPE  H12X19075   6.242   0.238   5.302  1.1789  1.6826  1.6329
  169SAPE  H12Y19076   6.414   0.192   5.352  1.3622 -2.3532 -2.5551
  169SAPE  C31319077   6.248   0.106   5.467 -0.0322  0.3358  0.3177
  169SAPE  H13X19078   6.328   0.037   5.503 -1.7670 -0.2178  3.4622
  169SAPE  H13Y19079   6.154   0.053   5.442 -0.0021 -1.0905  2.8353
  169SAPE  C31419080   6.201   0.225   5.560  0.2741 -0.4892 -0.0046
  169SAPE  H14X19081   6.119   0.281   5.510  0.0496 -0.5502  0.2971
  169SAPE  H14Y19082   6.290   0.288   5.581 -0.1468 -0.5250  2.0548
  169SAPE  C31519083   6.150   0.179   5.697  0.5144 -0.7567 -0.2813
  169SAPE  H15X19084   6.089   0.264   5.736 -0.4480 -0.9112 -1.3851
  169SAPE  H15Y19085   6.225   0.149   5.773  1.9251  1.1414 -0.8576
  169SAPE  C31619086   6.039   0.073   5.686  0.3110 -0.1860 -0.3112
  169SAPE  H16X19087   6.057  -0.020   5.628  0.0668  0.3987 -1.3600
  169SAPE  H16Y19088   5.971   0.116   5.609  1.9771 -1.9424 -2.9369
  169SAPE  C31719089   5.967   0.043   5.822 -0.3751  0.0711  0.5270
  169SAPE  H17X19090   5.990   0.120   5.899 -2.4334  0.2833  0.9771
  169SAPE  H17Y19091   6.016  -0.054   5.842  4.4278  1.7280 -1.6297
  169SAPE  C31819092   5.819   0.020   5.809 -0.4007 -0.5892  0.3798
  169SAPE  H18X19093   5.769   0.111   5.769  1.8938  0.5479 -0.1009
  169SAPE  H18Y19094   5.765  -0.002   5.904 -0.6025  1.3583  0.7629
  169SAPE  H18Z19095   5.802  -0.066   5.742 -1.1481  0.7713 -1.2407
  170SAPE     N19096   5.844   3.971   3.376 -0.4288  0.1857 -0.2012
  170SAPE   HN119097   5.777   3.933   3.445  1.4451 -0.1300  1.5615
  170SAPE   HN219098   5.830   3.936   3.279  0.0980  1.5247 -0.7872
  170SAPE   HN319099   5.939   3.937   3.405 -0.6977 -0.2533  0.1812
  170SAPE   C1219100   5.864   4.116   3.392  0.3745 -0.7797  0.2230
  170SAPE  H12A19101   5.801   4.173   3.320 -2.2398 -1.9505  1.4426
  170SAPE  H12B19102   5.966   4.138   3.355  0.3279 -1.6614 -0.4684
  170SAPE   C1119103   5.848   4.160   3.534  0.6417 -0.0038  0.3490
  170SAPE  H11A19104   5.740   4.151   3.558  0.0020 -0.7778 -2.4835
  170SAPE  H11B19105   5.861   4.269   3.548 -3.4799  1.0256 -2.2695
  170SAPE     P19106   6.082   4.070   3.632  0.1184 -0.3770  0.1083
  170SAPE   O1319107   6.112   4.002   3.759 -0.0881  0.0455  0.1183
  170SAPE   O1419108   6.142   4.012   3.508  0.2872 -0.0454  0.3593
  170SAPE   O1219109   5.921   4.072   3.617  0.1760  0.0825  0.8170
  170SAPE   O1119110   6.122   4.213   3.644  0.1513 -0.5226  0.3385
  170SAPE    C119111   6.194   4.280   3.757  0.4019  0.2601 -0.0404
  170SAPE    HA19112   6.237   4.201   3.822 -2.6048  0.1709  2.0322
  170SAPE    HB19113   6.286   4.337   3.731  0.5469 -0.9263 -2.3796
  170SAPE    C219114   6.109   4.371   3.856 -0.1523  0.6176  0.2861
  170SAPE    HS19115   6.178   4.420   3.928 -0.6794  0.5586  0.8407
  170SAPE   O2119116   6.028   4.278   3.932  0.0794  0.0912 -0.1472
  170SAPE   C2119117   6.065   4.245   4.052  0.4585 -0.1696  0.3975
  170SAPE   O2219118   6.168   4.283   4.106  0.9618 -0.2617  0.0796
  170SAPE   C2219119   5.958   4.153   4.118  0.3888 -0.1102 -0.0875
  170SAPE   H2R19120   5.862   4.210   4.124  0.7535  0.5195 -0.1637
  170SAPE   H2S19121   5.935   4.065   4.053 -2.5389  0.0065  0.6263
  170SAPE    C319122   6.022   4.473   3.786 -0.1863  0.2474  0.2678
  170SAPE    HX19123   5.964   4.417   3.709  1.5042 -0.9849 -0.1528
  170SAPE    HY19124   6.090   4.544   3.734 -1.5074  1.0366 -0.4481
  170SAPE   O3119125   5.950   4.535   3.894  0.4180 -0.0832  0.2655
  170SAPE   C3119126   6.007   4.634   3.964  0.0919 -0.1540  0.4945
  170SAPE   O3219127   6.111   4.690   3.924 -0.8118 -0.3630 -0.4754
  170SAPE   C3219128   5.928   4.670   4.085 -0.5065  0.3163  0.4966
  170SAPE   H2X19129   5.827   4.625   4.080 -0.4785  0.0973  1.5842
  170SAPE   H2Y19130   5.909   4.779   4.096  1.2400  0.6692  0.2722
  170SAPE   C2319131   5.979   4.104   4.260 -0.0194  0.6417 -0.5505
  170SAPE   H3R19132   5.975   4.175   4.346  0.7438 -2.2620  2.0809
  170SAPE   H3S19133   6.085   4.069   4.257 -0.5153 -1.3883  1.8919
  170SAPE   C2419134   5.913   3.970   4.296  0.1249  0.6497  0.1954
  170SAPE   H4R19135   5.966   3.929   4.384 -2.2300  0.9808  1.8637
  170SAPE   H4S19136   5.919   3.891   4.219 -3.0638  1.8267 -1.4795
  170SAPE   C2519137   5.767   4.001   4.331  0.0258 -0.7477 -0.4121
  170SAPE   H5R19138   5.714   4.046   4.245 -1.9288 -0.8448  0.6856
  170SAPE   C2619139   5.702   3.976   4.442 -0.7475 -0.9832  0.3647
  170SAPE   H6R19140   5.594   3.993   4.428 -0.5004  0.5818  0.0836
  170SAPE   C2719141   5.754   3.929   4.579 -0.3523 -0.1995  0.4929
  170SAPE   H7R19142   5.864   3.946   4.578 -0.3814  0.7255 -2.9801
  170SAPE   H7S19143   5.748   3.818   4.581  0.1338 -0.2530 -0.4756
  170SAPE   C2819144   5.689   4.006   4.688 -0.6653  0.7511  0.4574
  170SAPE   H8R19145   5.714   4.112   4.703  0.4937  0.7644 -1.2386
  170SAPE   C2919146   5.611   3.939   4.774 -0.0776  0.4040 -0.5648
  170SAPE   H9R19147   5.569   3.996   4.859  0.4349 -1.0133  0.6898
  170SAPE  C21019148   5.572   3.795   4.790 -0.2786 -0.0476 -0.5565
  170SAPE  H10R19149   5.622   3.745   4.705  1.9216 -0.3217  0.8315
  170SAPE  H10S19150   5.462   3.791   4.778 -0.5247  0.9697  1.0680
  170SAPE  C21119151   5.614   3.724   4.921 -0.3767 -0.1267  0.7433
  170SAPE  H11R19152   5.723   3.707   4.926  0.2554  2.8254 -0.6394
  170SAPE  C21219153   5.540   3.700   5.024 -0.2839  0.2260 -0.2542
  170SAPE  H12R19154   5.583   3.637   5.102  1.5346 -1.5198 -2.5065
  170SAPE  C21319155   5.395   3.741   5.041  0.0063  0.0661 -0.0073
  170SAPE  H13R19156   5.359   3.781   4.943  0.1239 -1.9400 -0.9146
  170SAPE  H13S19157   5.395   3.827   5.111  0.9868 -0.3081  0.4650
  170SAPE  C21419158   5.317   3.628   5.093  0.0414  0.2408  0.4560
  170SAPE  H14R19159   5.321   3.544   5.022 -0.8024 -0.2383  0.9547
  170SAPE  C21519160   5.256   3.605   5.214  0.6311 -0.0056  0.1482
  170SAPE  H15R19161   5.233   3.502   5.245 -0.2900  0.6247  1.6828
  170SAPE  C21619162   5.248   3.707   5.321 -0.2602 -0.5379 -0.1739
  170SAPE  H16R19163   5.162   3.778   5.322  1.3237  1.4847  0.5017
  170SAPE  H16S19164   5.337   3.775   5.318 -0.5831 -0.0630  0.6323
  170SAPE  C21719165   5.255   3.647   5.463 -0.0365  0.4576 -0.1958
  170SAPE  H17R19166   5.314   3.719   5.523 -0.1003 -1.5637  2.4767
  170SAPE  H17S19167   5.324   3.559   5.457 -0.3089  0.1663  0.7596
  170SAPE  C21819168   5.124   3.621   5.540 -0.2406  0.0575  0.5759
  170SAPE  H18R19169   5.077   3.722   5.534 -2.3799 -0.8995 -0.1519
  170SAPE  H18S19170   5.150   3.588   5.642 -0.5219 -0.5801  0.4477
  170SAPE  C21919171   5.023   3.515   5.479 -0.4863 -0.2638  0.2734
  170SAPE  H19R19172   5.072   3.416   5.470 -0.6602 -0.4062  0.8830
  170SAPE  H19S19173   5.004   3.533   5.371  0.3730 -2.3377 -0.2845
  170SAPE  C22019174   4.898   3.499   5.560  0.2604 -0.2938  0.1402
  170SAPE  H20R19175   4.842   3.421   5.506 -1.2302  1.8701 -1.6221
  170SAPE  H20S19176   4.845   3.597   5.561  0.8893  0.0555 -0.2661
  170SAPE  H20T19177   4.917   3.462   5.663 -0.1235 -1.2607 -0.1270
  170SAPE   C3319178   5.982   4.618   4.219  0.1466  0.1999  0.4113
  170SAPE   H3X19179   6.079   4.669   4.239  0.0632  0.6023 -0.1828
  170SAPE   H3Y19180   6.004   4.510   4.205 -0.7102 -0.0553  0.9875
  170SAPE   C3419181   5.897   4.654   4.337  0.0998 -0.4653 -0.8568
  170SAPE   H4X19182   5.795   4.619   4.309  0.2869 -0.5888 -1.4066
  170SAPE   H4Y19183   5.888   4.765   4.342  0.8955 -0.2828 -2.5773
  170SAPE   C3519184   5.934   4.578   4.462 -0.5539  0.1479 -0.1363
  170SAPE   H5X19185   6.043   4.587   4.482 -0.7478  1.6387  0.3620
  170SAPE   H5Y19186   5.907   4.470   4.455 -1.8674  0.4430  0.1949
  170SAPE   C3619187   5.868   4.636   4.582  0.2006  0.3958 -0.7654
  170SAPE   H6X19188   5.758   4.643   4.569 -0.0783 -0.9638  0.5300
  170SAPE   H6Y19189   5.896   4.742   4.601  3.1640 -0.1458 -1.7431
  170SAPE   C3719190   5.894   4.559   4.717  1.0605  0.1024  0.5263
  170SAPE   H7X19191   6.003   4.553   4.738  1.3531 -0.3731 -0.9572
  170SAPE   H7Y19192   5.848   4.459   4.697  1.5070  0.3541 -2.1914
  170SAPE   C3819193   5.824   4.642   4.826 -0.6236 -0.9391 -0.0541
  170SAPE   H8X19194   5.718   4.669   4.810  0.0246  1.2147 -0.9195
  170SAPE   H8Y19195   5.874   4.741   4.821 -0.1504 -1.2107 -0.8700
  170SAPE   C3919196   5.839   4.582   4.960 -0.3888 -0.0095  0.2809
  170SAPE   H9X19197   5.942   4.544   4.976  0.6046  1.6357 -1.7016
  170SAPE   H9Y19198   5.768   4.499   4.979 -0.2834  0.3131  2.3704
  170SAPE  C31019199   5.805   4.678   5.077  0.2548 -0.1587 -0.1054
  170SAPE  H10X19200   5.703   4.713   5.049  0.9528  1.5582 -0.6267
  170SAPE  H10Y19201   5.878   4.761   5.067  0.3182 -0.3158 -1.0556
  170SAPE  C31119202   5.816   4.625   5.222 -0.5032  0.6390  0.7941
  170SAPE  H11X19203   5.756   4.532   5.234 -0.2455  0.6706  2.5228
  170SAPE  H11Y19204   5.758   4.701   5.278  0.0370  0.8225  1.1006
  170SAPE  C31219205   5.962   4.600   5.272 -0.1883  0.2600 -0.5335
  170SAPE  H12X19206   6.024   4.687   5.241 -0.4908  0.0238 -1.8661
  170SAPE  H12Y19207   6.005   4.507   5.228 -1.3236 -0.0497 -1.0285
  170SAPE  C31319208   5.956   4.592   5.422 -0.3576 -0.7880  0.7299
  170SAPE  H13X19209   5.905   4.685   5.456 -0.3732 -0.2312 -0.7586
  170SAPE  H13Y19210   6.057   4.574   5.464 -0.2336 -0.7480  0.4515
  170SAPE  C31419211   5.876   4.469   5.465 -0.0651  0.1553  0.0170
  170SAPE  H14X19212   5.897   4.386   5.394 -2.1312 -0.8377  0.4807
  170SAPE  H14Y19213   5.768   4.494   5.475  0.1415  2.2429 -2.1618
  170SAPE  C31519214   5.920   4.419   5.605 -0.3984  0.3205 -0.0737
  170SAPE  H15X19215   5.873   4.485   5.681  1.6562  1.4892  0.2575
  170SAPE  H15Y19216   6.031   4.414   5.617 -0.5767 -0.5710  1.5939
  170SAPE  C31619217   5.862   4.274   5.634  0.3503 -0.1525 -0.2544
  170SAPE  H16X19218   5.868   4.228   5.533  0.0250 -0.7099 -0.0216
  170SAPE  H16Y19219   5.754   4.291   5.652  0.2073 -1.4090  0.1038
  170SAPE  C31719220   5.932   4.196   5.746  0.5703 -0.0456  0.6457
  170SAPE  H17X19221   5.907   4.240   5.845 -1.7872  1.4664 -0.5532
  170SAPE  H17Y19222   6.043   4.202   5.733  0.3844 -1.8875 -3.2714
  170SAPE  C31819223   5.885   4.047   5.742 -0.3645  0.0131  0.0346
  170SAPE  H18X19224   5.933   3.985   5.664  0.1403 -2.2210  2.0187
  170SAPE  H18Y19225   5.778   4.019   5.752 -1.0046  1.9842 -0.7046
  170SAPE  H18Z19226   5.938   4.002   5.828  0.2924 -0.6774 -0.7164
  171SAPE     N19227   6.604   5.236   3.161  0.5816 -0.5732 -0.1950
  171SAPE   HN119228   6.677   5.162   3.160  0.1362 -1.0297  0.3615
  171SAPE   HN219229   6.539   5.217   3.240 -0.0235  1.7498 -0.0678
  171SAPE   HN319230   6.554   5.240   3.070 -1.8181  0.4904  1.0855
  171SAPE   C1219231   6.671   5.368   3.198 -0.0670  0.3579  0.4735
  171SAPE  H12A19232   6.594   5.444   3.224 -0.8664 -0.4235  0.4503
  171SAPE  H12B19233   6.727   5.404   3.109 -1.7673  1.0203 -0.3858
  171SAPE   C1119234   6.766   5.342   3.317  0.6185  0.2774 -0.3648
  171SAPE  H11A19235   6.698   5.298   3.393 -0.6522  0.7394 -1.2008
  171SAPE  H11B19236   6.798   5.441   3.354  0.1010 -0.4038  2.0974
  171SAPE     P19237   6.885   5.107   3.341  0.5512  0.1007  0.5342
  171SAPE   O1319238   6.769   5.032   3.293 -0.4572  0.4548 -0.2604
  171SAPE   O1419239   7.018   5.068   3.288 -0.1575 -0.3120  0.1301
  171SAPE   O1219240   6.867   5.251   3.284 -0.1196  0.1712  0.2105
  171SAPE   O1119241   6.887   5.120   3.497 -0.1674  0.1782 -0.0045
  171SAPE    C119242   7.018   5.161   3.555 -0.3059 -0.1091 -0.1178
  171SAPE    HA19243   7.077   5.068   3.568 -1.4297 -0.8244  0.0328
  171SAPE    HB19244   7.065   5.241   3.494 -0.8865  1.0930  0.9546
  171SAPE    C219245   6.985   5.224   3.699 -0.0820 -0.0088  0.3689
  171SAPE    HS19246   7.083   5.274   3.715 -0.5171  1.3326 -0.8667
  171SAPE   O2119247   6.945   5.132   3.797 -0.3214 -0.5572 -0.2543
  171SAPE   C2119248   7.034   5.047   3.843  0.2048 -0.0068  0.8987
  171SAPE   O2219249   7.148   5.033   3.794 -0.3023 -0.3421 -0.5818
  171SAPE   C2219250   6.986   4.980   3.966  0.0856 -0.9061  0.0130
  171SAPE   H2R19251   6.904   5.034   4.018 -1.9471 -1.2520 -2.6130
  171SAPE   H2S19252   6.934   4.891   3.924 -2.8390  0.3148  0.8148
  171SAPE    C319253   6.877   5.335   3.693 -0.7189  0.4050  0.2853
  171SAPE    HX19254   6.780   5.298   3.652 -0.9975 -0.9113  2.0338
  171SAPE    HY19255   6.903   5.413   3.618  0.2385  0.2007  0.4033
  171SAPE   O3119256   6.854   5.400   3.818  0.5890  0.1077  0.1439
  171SAPE   C3119257   6.919   5.509   3.848  0.1124  0.0636 -0.2278
  171SAPE   O3219258   7.007   5.555   3.783 -0.4292 -0.2299  0.5054
  171SAPE   C3219259   6.875   5.561   3.986 -0.7854 -0.1595 -0.6076
  171SAPE   H2X19260   6.779   5.511   4.014 -1.2275  0.3992 -1.0860
  171SAPE   H2Y19261   6.854   5.670   3.979  2.6293  0.6346  0.0037
  171SAPE   C2319262   7.102   4.931   4.056  0.3515 -0.5022 -0.4101
  171SAPE   H3R19263   7.155   4.851   4.000 -1.6205 -1.4308 -1.0446
  171SAPE   H3S19264   7.060   4.884   4.147 -0.9925  1.8250  0.2761
  171SAPE   C2419265   7.197   5.040   4.112 -0.0316 -0.5274 -0.0568
  171SAPE   H4R19266   7.257   5.095   4.037 -1.3880  1.0549 -0.0439
  171SAPE   H4S19267   7.282   4.997   4.168  0.7386  0.2467 -0.6024
  171SAPE   C2519268   7.123   5.135   4.198  0.5878  0.3159 -0.4891
  171SAPE   H5R19269   7.070   5.214   4.141  0.9356  2.5565  2.0602
  171SAPE   C2619270   7.120   5.139   4.335  0.3693 -0.5143 -0.4221
  171SAPE   H6R19271   7.070   5.224   4.383  0.2925 -2.3158  3.0182
  171SAPE   C2719272   7.175   5.037   4.431 -0.3388  0.5802 -1.2466
  171SAPE   H7R19273   7.273   5.083   4.458 -0.4316  0.0782  0.0394
  171SAPE   H7S19274   7.205   4.945   4.378 -1.6619 -0.2951 -0.5492
  171SAPE   C2819275   7.090   5.009   4.557  0.0707 -0.1557 -0.1914
  171SAPE   H8R19276   6.996   4.958   4.530  1.3156 -1.6319 -1.9743
  171SAPE   C2919277   7.117   5.039   4.688 -0.2521  0.2931  0.1759
  171SAPE   H9R19278   7.046   5.018   4.769  0.1904 -0.3497  0.4008
  171SAPE  C21019279   7.228   5.128   4.740  0.1777 -0.2713 -0.2577
  171SAPE  H10R19280   7.183   5.228   4.757 -0.0649 -0.8038  2.8657
  171SAPE  H10S19281   7.315   5.130   4.671  1.7199  2.3499  1.5920
  171SAPE  C21119282   7.278   5.070   4.871 -0.2623  0.0440  0.4740
  171SAPE  H11R19283   7.350   4.989   4.852  1.6476  2.1802 -2.1574
  171SAPE  C21219284   7.216   5.084   4.992 -1.0701  0.6459  0.6467
  171SAPE  H12R19285   7.270   5.040   5.077 -1.3438 -0.4585  0.2587
  171SAPE  C21319286   7.105   5.177   5.026  0.2201  0.2832  0.0025
  171SAPE  H13R19287   7.037   5.118   5.092 -0.0751  0.5942 -0.0218
  171SAPE  H13S19288   7.043   5.208   4.940 -0.7593  0.9266  0.9101
  171SAPE  C21419289   7.164   5.293   5.106  0.1438 -0.3889  0.9221
  171SAPE  H14R19290   7.270   5.282   5.132  0.5064  0.9416  0.1027
  171SAPE  C21519291   7.106   5.405   5.154  0.0409 -1.1500  0.5295
  171SAPE  H15R19292   7.162   5.476   5.217 -1.9785  3.0199 -1.9296
  171SAPE  C21619293   6.965   5.442   5.144 -0.3804  0.3374  0.2116
  171SAPE  H16R19294   6.905   5.358   5.103  0.1250  0.9055 -1.8312
  171SAPE  H16S19295   6.944   5.531   5.082  0.5602  0.3326 -0.1316
  171SAPE  C21719296   6.903   5.460   5.286  0.1304 -0.5120 -0.1045
  171SAPE  H17R19297   6.955   5.532   5.354  0.7581 -0.9771 -0.0836
  171SAPE  H17S19298   6.898   5.361   5.335 -1.4875 -1.3594 -1.8599
  171SAPE  C21819299   6.757   5.510   5.273  0.2666 -0.2995 -0.1349
  171SAPE  H18R19300   6.703   5.487   5.368  3.9094  1.3879  2.5834
  171SAPE  H18S19301   6.711   5.453   5.190 -0.0181 -1.5990  0.8754
  171SAPE  C21919302   6.743   5.658   5.237  0.5500  0.0472  0.0607
  171SAPE  H19R19303   6.646   5.671   5.185 -0.5153 -1.5028  1.5338
  171SAPE  H19S19304   6.822   5.689   5.166 -1.4273 -0.2227 -2.4256
  171SAPE  C22019305   6.746   5.745   5.362 -0.0005 -0.1375 -0.3486
  171SAPE  H20R19306   6.843   5.739   5.416  0.0845 -0.6560 -0.5561
  171SAPE  H20S19307   6.659   5.721   5.426  0.7624 -1.6639  0.1544
  171SAPE  H20T19308   6.738   5.853   5.335  0.0279  0.1977  0.9125
  171SAPE   C3319309   6.973   5.527   4.097  0.3958  0.1524 -0.0262
  171SAPE   H3X19310   7.071   5.571   4.070  0.6563 -0.9149 -0.8839
  171SAPE   H3Y19311   6.989   5.417   4.105 -0.2365  0.0145 -0.6229
  171SAPE   C3419312   6.903   5.571   4.230  0.1618  0.3543  0.2817
  171SAPE   H4X19313   6.803   5.523   4.233  1.0816 -1.6492  0.5403
  171SAPE   H4Y19314   6.869   5.676   4.241 -0.2356  0.1648  0.9031
  171SAPE   C3519315   6.977   5.531   4.354  0.0198 -0.2133 -0.6343
  171SAPE   H5X19316   7.037   5.610   4.404  0.5983 -0.5883 -0.7190
  171SAPE   H5Y19317   7.055   5.453   4.340  1.2563  0.0550  3.4353
  171SAPE   C3619318   6.882   5.468   4.455 -0.0011  0.3001 -0.6554
  171SAPE   H6X19319   6.833   5.384   4.400  0.8198  0.5789 -1.8655
  171SAPE   H6Y19320   6.796   5.532   4.484  1.1029  1.2838  0.5761
  171SAPE   C3719321   6.962   5.413   4.575  0.6941  0.1354  0.7057
  171SAPE   H7X19322   7.000   5.492   4.644 -0.7018  0.0311  1.6271
  171SAPE   H7Y19323   7.051   5.364   4.529 -0.2007 -0.5570 -0.3207
  171SAPE   C3819324   6.882   5.321   4.667  0.2897  0.6420 -0.3811
  171SAPE   H8X19325   6.954   5.290   4.745 -1.7031 -3.5846  0.0755
  171SAPE   H8Y19326   6.858   5.231   4.606  0.9351  0.0290  0.2572
  171SAPE   C3919327   6.760   5.386   4.727 -0.6749 -0.7967  0.8529
  171SAPE   H9X19328   6.673   5.405   4.662  0.5007  2.0710 -0.0350
  171SAPE   H9Y19329   6.782   5.482   4.777 -1.3445 -0.0937 -0.1809
  171SAPE  C31019330   6.710   5.302   4.842 -0.3458  0.0560  0.0674
  171SAPE  H10X19331   6.797   5.289   4.910  0.3269  0.5954 -0.6778
  171SAPE  H10Y19332   6.683   5.199   4.810  0.1524  0.0226 -0.2516
  171SAPE  C31119333   6.588   5.350   4.921 -0.3403 -0.1220  0.9656
  171SAPE  H11X19334   6.498   5.355   4.856 -1.8347  1.1926  3.0044
  171SAPE  H11Y19335   6.601   5.456   4.952 -2.8628  1.0078 -1.3756
  171SAPE  C31219336   6.562   5.258   5.043  0.1657 -0.2125  0.9337
  171SAPE  H12X19337   6.660   5.231   5.089  0.6786  2.4527  1.5347
  171SAPE  H12Y19338   6.507   5.171   5.000  1.7555 -1.5937  1.5534
  171SAPE  C31319339   6.471   5.332   5.138 -1.0332 -0.4516  0.0933
  171SAPE  H13X19340   6.368   5.337   5.095 -0.7628  0.0820 -0.5033
  171SAPE  H13Y19341   6.496   5.436   5.166  0.7578 -0.4882 -1.1824
  171SAPE  C31419342   6.461   5.263   5.274 -0.2193 -0.6954  0.2777
  171SAPE  H14X19343   6.558   5.222   5.310 -0.5547 -1.0874  0.7568
  171SAPE  H14Y19344   6.390   5.177   5.262 -1.6834 -0.0190  3.1809
  171SAPE  C31519345   6.419   5.357   5.394  0.5504  0.0338 -0.3092
  171SAPE  H15X19346   6.339   5.423   5.354  0.0834  0.2790  0.9917
  171SAPE  H15Y19347   6.501   5.423   5.429  0.4296  0.4934 -0.8856
  171SAPE  C31619348   6.354   5.271   5.506 -0.5635 -0.0383  0.2456
  171SAPE  H16X19349   6.427   5.190   5.526  0.1639  0.7241  0.7118
  171SAPE  H16Y19350   6.264   5.235   5.452 -0.3929  1.2623 -1.0001
  171SAPE  C31719351   6.308   5.354   5.633  0.0003  0.2650  0.1099
  171SAPE  H17X19352   6.399   5.353   5.696 -0.6924 -0.9398  1.1282
  171SAPE  H17Y19353   6.241   5.286   5.690  0.6992 -1.2520 -0.8181
  171SAPE  C31819354   6.250   5.491   5.601 -0.8773 -0.1980 -0.0848
  171SAPE  H18X19355   6.208   5.542   5.691 -1.1959  2.3003 -1.5594
  171SAPE  H18Y19356   6.183   5.478   5.514 -0.9418 -1.0309  0.0775
  171SAPE  H18Z19357   6.331   5.555   5.560  2.4526 -3.7734  0.3530
  172SAPE     N19358   6.383   2.442   3.563  0.2031  0.2376  0.1959
  172SAPE   HN119359   6.392   2.411   3.464  1.3171 -0.8305  0.6055
  172SAPE   HN219360   6.479   2.443   3.601 -1.2254  0.1133  4.2030
  172SAPE   HN319361   6.318   2.374   3.607  0.3098 -1.4809 -2.0781
  172SAPE   C1219362   6.329   2.572   3.584 -0.2861  0.7372  0.7001
  172SAPE  H12A19363   6.220   2.562   3.563  0.2653 -2.4800 -1.2591
  172SAPE  H12B19364   6.376   2.635   3.505  0.2514 -0.5932 -0.0757
  172SAPE   C1119365   6.346   2.607   3.727  0.9236  0.4073 -0.1453
  172SAPE  H11A19366   6.297   2.526   3.784  0.0630 -1.2027 -3.0024
  172SAPE  H11B19367   6.284   2.697   3.748  0.0255 -0.3548  0.4753
  172SAPE     P19368   6.554   2.720   3.855  0.0870  0.4804  0.0333
  172SAPE   O1319369   6.698   2.703   3.867  1.1297  0.1684  0.3051
  172SAPE   O1419370   6.510   2.855   3.814  0.7204  0.4194  0.0288
  172SAPE   O1219371   6.493   2.613   3.761 -0.7088  0.0696 -0.0842
  172SAPE   O1119372   6.496   2.677   3.992  0.4216  0.5523 -0.3083
  172SAPE    C119373   6.515   2.541   4.044 -0.3597 -0.2657 -0.2684
  172SAPE    HA19374   6.435   2.471   4.014  1.6273 -2.1331 -1.4294
  172SAPE    HB19375   6.607   2.501   3.995  0.6268  2.0635 -0.4662
  172SAPE    C219376   6.522   2.536   4.199  0.8014  0.3847  0.9128
  172SAPE    HS19377   6.567   2.442   4.236 -1.6933  0.0544  3.5062
  172SAPE   O2119378   6.391   2.553   4.255 -0.3408 -0.4143  0.1291
  172SAPE   C2119379   6.305   2.448   4.241  0.6561  0.1356 -0.7725
  172SAPE   O2219380   6.348   2.339   4.203  0.2129 -0.1076  0.1927
  172SAPE   C2219381   6.162   2.502   4.270 -0.2690 -0.0527 -0.1503
  172SAPE   H2R19382   6.128   2.563   4.184  3.1334 -1.8014 -2.9707
  172SAPE   H2S19383   6.090   2.418   4.261 -1.8391  1.1701  0.3562
  172SAPE    C319384   6.618   2.651   4.242 -0.6346  0.0969  0.0332
  172SAPE    HX19385   6.618   2.745   4.183  2.4448  0.0888 -0.1343
  172SAPE    HY19386   6.723   2.620   4.224 -0.7558  0.5836 -1.6282
  172SAPE   O3119387   6.608   2.672   4.383 -0.7282  0.0212 -0.5073
  172SAPE   C3119388   6.554   2.780   4.425 -0.0908 -0.2094 -0.0382
  172SAPE   O3219389   6.490   2.862   4.360  0.0033 -0.1313  0.4740
  172SAPE   C3219390   6.576   2.803   4.572  0.0128  0.3260  0.0982
  172SAPE   H2X19391   6.625   2.901   4.589  0.1542  0.0845  1.1680
  172SAPE   H2Y19392   6.637   2.724   4.620  0.2932  1.5901  1.9171
  172SAPE   C2319393   6.147   2.575   4.405 -0.1948 -0.0560  0.2461
  172SAPE   H3R19394   6.042   2.611   4.412 -0.1866 -0.0354  0.2674
  172SAPE   H3S19395   6.191   2.677   4.406  0.4075 -0.3160  0.6293
  172SAPE   C2419396   6.190   2.489   4.528 -0.1902 -0.9261  0.6993
  172SAPE   H4R19397   6.175   2.553   4.618 -0.9203 -0.7276  0.4458
  172SAPE   H4S19398   6.298   2.469   4.516 -0.4777 -2.4713  0.4415
  172SAPE   C2519399   6.127   2.357   4.567  0.1103  0.1689  1.0092
  172SAPE   H5R19400   6.102   2.304   4.473 -2.9046  0.6038  1.4724
  172SAPE   C2619401   6.092   2.304   4.680  0.0291  0.1122  0.4661
  172SAPE   H6R19402   6.040   2.207   4.671  2.0920 -1.0242  0.0079
  172SAPE   C2719403   6.111   2.366   4.820  0.0055  0.4571  0.7129
  172SAPE   H7R19404   6.146   2.471   4.818  0.6931  0.2528 -2.0009
  172SAPE   H7S19405   6.194   2.309   4.868  0.3108 -0.1817 -0.5338
  172SAPE   C2819406   5.983   2.365   4.887 -0.4037 -0.0365  0.3094
  172SAPE   H8R19407   5.893   2.319   4.843 -0.0982 -2.5936  2.1453
  172SAPE   C2919408   5.965   2.412   5.008 -0.2797  0.1703 -0.2744
  172SAPE   H9R19409   5.867   2.415   5.057  0.4690  0.3654  1.2632
  172SAPE  C21019410   6.076   2.468   5.102  0.1528  0.2274  0.4025
  172SAPE  H10R19411   6.059   2.576   5.118 -1.0229 -0.0638  1.1725
  172SAPE  H10S19412   6.171   2.460   5.044 -0.0999 -1.2220  0.1481
  172SAPE  C21119413   6.091   2.392   5.234 -0.0596  1.3767  0.3451
  172SAPE  H11R19414   6.088   2.282   5.229  0.0666  1.3660  0.5045
  172SAPE  C21219415   6.115   2.445   5.356 -0.2646 -0.6738  0.1941
  172SAPE  H12R19416   6.117   2.374   5.440  0.4421  0.1126  0.8540
  172SAPE  C21319417   6.125   2.590   5.388 -0.0193  0.0161 -0.6027
  172SAPE  H13R19418   6.043   2.613   5.459  0.3888 -0.9581  0.2131
  172SAPE  H13S19419   6.113   2.650   5.295 -3.1530 -0.1167 -0.3854
  172SAPE  C21419420   6.261   2.610   5.458  0.1475 -0.0381 -0.3692
  172SAPE  H14R19421   6.351   2.560   5.421  1.4226  1.9848 -0.1121
  172SAPE  C21519422   6.285   2.695   5.561  0.3241 -0.0189 -0.0995
  172SAPE  H15R19423   6.389   2.714   5.594  0.2379 -0.0810  0.2068
  172SAPE  C21619424   6.185   2.790   5.623  0.7171  0.0075  0.9153
  172SAPE  H16R19425   6.085   2.751   5.592  2.2232 -1.0149 -3.3518
  172SAPE  H16S19426   6.210   2.886   5.575  0.5370  0.8308  2.4004
  172SAPE  C21719427   6.203   2.825   5.770 -0.1019  0.4208  0.2109
  172SAPE  H17R19428   6.156   2.922   5.796 -2.0075 -0.7186  1.2219
  172SAPE  H17S19429   6.311   2.829   5.795 -0.1023  0.8737  0.1592
  172SAPE  C21819430   6.141   2.721   5.864  0.0247  0.0894  0.4702
  172SAPE  H18R19431   6.149   2.749   5.971 -0.2099  1.8290  0.0541
  172SAPE  H18S19432   6.203   2.630   5.848 -0.4566 -0.5764  2.1143
  172SAPE  C21919433   5.993   2.697   5.827  0.0301  0.1374 -0.1606
  172SAPE  H19R19434   5.959   2.632   5.911  0.9958 -0.2816 -0.0857
  172SAPE  H19S19435   5.984   2.633   5.737 -1.4204 -0.5100  0.4056
  172SAPE  C22019436   5.889   2.805   5.824 -0.1406  0.5252 -0.2045
  172SAPE  H20R19437   5.916   2.864   5.734  1.3240  0.2359  0.0169
  172SAPE  H20S19438   5.886   2.873   5.912  2.9767  0.2653  0.2077
  172SAPE  H20T19439   5.789   2.757   5.817  0.8407 -1.7088  0.2743
  172SAPE   C3319440   6.446   2.799   4.647 -0.0326 -0.0604 -0.2920
  172SAPE   H3X19441   6.394   2.702   4.635 -0.5963  0.0459  1.0529
  172SAPE   H3Y19442   6.383   2.883   4.610  1.5142  1.1886 -0.1983
  172SAPE   C3419443   6.457   2.815   4.796 -0.1084 -0.5740 -0.1599
  172SAPE   H4X19444   6.503   2.911   4.828 -1.3063 -0.4253  1.2282
  172SAPE   H4Y19445   6.514   2.734   4.845  0.2444  1.3722  2.9512
  172SAPE   C3519446   6.322   2.814   4.865 -0.5738  0.1193  1.1373
  172SAPE   H5X19447   6.254   2.735   4.828 -0.0399  0.2043 -0.0703
  172SAPE   H5Y19448   6.271   2.908   4.836 -0.1918  0.5576  1.8409
  172SAPE   C3619449   6.321   2.793   5.018  0.4336 -0.2544 -0.0162
  172SAPE   H6X19450   6.357   2.690   5.038 -0.1017 -0.2658  0.9326
  172SAPE   H6Y19451   6.217   2.805   5.054  0.6895  0.2989  0.5556
  172SAPE   C3719452   6.427   2.885   5.085  0.5758  0.8168  0.7385
  172SAPE   H7X19453   6.390   2.986   5.059 -1.1173  0.5255  1.8038
  172SAPE   H7Y19454   6.526   2.870   5.037  0.2944  1.5134 -0.0813
  172SAPE   C3819455   6.420   2.872   5.242  0.3715  0.3545  0.1469
  172SAPE   H8X19456   6.455   2.772   5.276  1.3884  1.1633  1.5772
  172SAPE   H8Y19457   6.314   2.876   5.276 -0.2208 -2.4283 -1.0290
  172SAPE   C3919458   6.512   2.981   5.321 -0.1559  0.4833 -0.4921
  172SAPE   H9X19459   6.615   2.951   5.292  0.3497  0.6574  1.0115
  172SAPE   H9Y19460   6.505   2.970   5.431  1.5537 -1.9008 -0.5444
  172SAPE  C31019461   6.507   3.127   5.284  0.0662 -0.5075 -0.8735
  172SAPE  H10X19462   6.462   3.153   5.186  0.4553  1.0498 -0.6701
  172SAPE  H10Y19463   6.609   3.171   5.277 -0.2621  0.4775  0.2008
  172SAPE  C31119464   6.426   3.202   5.388  0.5141 -0.1312 -1.0757
  172SAPE  H11X19465   6.467   3.176   5.488 -1.9111  1.7209  0.5351
  172SAPE  H11Y19466   6.325   3.154   5.382 -0.1957  1.4020 -1.9772
  172SAPE  C31219467   6.416   3.351   5.355  0.1693  0.3050  0.0418
  172SAPE  H12X19468   6.386   3.364   5.248 -1.6904 -0.3922  0.4297
  172SAPE  H12Y19469   6.518   3.389   5.374  0.3097  0.3252 -0.7269
  172SAPE  C31319470   6.315   3.426   5.447 -0.8884 -0.0102 -0.8229
  172SAPE  H13X19471   6.205   3.416   5.434 -1.2861  1.4980  0.8671
  172SAPE  H13Y19472   6.335   3.534   5.429 -0.9935  0.1725  0.0728
  172SAPE  C31419473   6.341   3.412   5.601  0.2474 -0.2700  0.3863
  172SAPE  H14X19474   6.449   3.412   5.624  0.5082  2.8892 -0.3603
  172SAPE  H14Y19475   6.299   3.322   5.652  0.2780 -0.3738  0.2265
  172SAPE  C31519476   6.283   3.527   5.682  0.2685 -0.2328 -0.4497
  172SAPE  H15X19477   6.326   3.627   5.658 -0.4365  0.8064  2.2142
  172SAPE  H15Y19478   6.312   3.506   5.787  0.8502  0.6719 -0.4185
  172SAPE  C31619479   6.132   3.543   5.673  0.5044 -0.3059 -0.4046
  172SAPE  H16X19480   6.085   3.446   5.699 -1.9289  0.2463 -2.3417
  172SAPE  H16Y19481   6.095   3.565   5.570 -0.8230  0.9310  0.2920
  172SAPE  C31719482   6.064   3.653   5.765  0.8206  0.2986  0.3395
  172SAPE  H17X19483   5.965   3.670   5.718 -0.1845 -3.1048  0.9499
  172SAPE  H17Y19484   6.124   3.746   5.749 -2.2269  2.0806 -1.5750
  172SAPE  C31819485   6.051   3.620   5.917  0.1123 -0.2893 -0.4950
  172SAPE  H18X19486   6.045   3.715   5.974  0.2437 -0.0921 -0.8100
  172SAPE  H18Y19487   6.148   3.573   5.941  0.9879  1.6416 -0.0924
  172SAPE  H18Z19488   5.962   3.557   5.939 -0.5072  1.2941  1.8262
  173SLPC     N19489   6.467   0.345   7.912 -0.0252 -0.2656 -0.0073
  173SLPC   C1319490   6.338   0.395   7.858  0.5450 -0.3124  0.0451
  173SLPC  H13A19491   6.354   0.486   7.801  2.2592 -0.9514 -0.5549
  173SLPC  H13B19492   6.282   0.320   7.804 -0.8715 -0.2614  1.3534
  173SLPC  H13C19493   6.270   0.433   7.934 -1.1609  1.8162 -2.3631
  173SLPC   C1419494   6.449   0.249   8.021 -0.4417  0.4986 -0.1159
  173SLPC  H14A19495   6.418   0.150   7.989 -1.8953  0.6547  0.7609
  173SLPC  H14B19496   6.541   0.227   8.073 -1.8144 -1.0848  1.7852
  173SLPC  H14C19497   6.380   0.290   8.093  2.4099  1.3578  2.3404
  173SLPC   C1519498   6.523   0.465   7.980 -1.0519  0.2003 -0.1968
  173SLPC  H15A19499   6.524   0.550   7.914  0.6945  0.4286  0.0789
  173SLPC  H15B19500   6.461   0.498   8.062 -0.3676 -2.5305  1.5791
  173SLPC  H15C19501   6.622   0.452   8.022 -0.5960  3.1529 -0.1980
  173SLPC   C1219502   6.553   0.294   7.807 -0.2049 -0.8371  0.4424
  173SLPC  H12A19503   6.512   0.202   7.769 -0.5995 -0.9175  1.0429
  173SLPC  H12B19504   6.650   0.272   7.847  1.0158 -0.2778 -2.0357
  173SLPC   C1119505   6.586   0.379   7.682  0.5248  0.3402  0.2169
  173SLPC  H11A19506   6.495   0.423   7.636  0.1660 -0.4852  0.1111
  173SLPC  H11B19507   6.624   0.312   7.602 -2.0617 -0.7223 -0.2170
  173SLPC     P19508   6.838   0.445   7.731  0.4958  0.3323  0.8692
  173SLPC   O1319509   6.910   0.573   7.702  0.7475  0.2832  0.0765
  173SLPC   O1419510   6.849   0.376   7.860  0.6484 -0.6108  0.3292
  173SLPC   O1219511   6.685   0.472   7.713  0.4569 -0.3528  0.3120
  173SLPC   O1119512   6.879   0.347   7.623  0.5000  0.1093  0.1880
  173SLPC    C119513   6.874   0.203   7.638  0.5969  0.2156 -0.2266
  173SLPC    HA19514   6.823   0.160   7.727  1.1212 -2.9850 -1.3374
  173SLPC    HB19515   6.806   0.160   7.562 -1.2904  0.2366  1.3731
  173SLPC    C219516   7.008   0.131   7.639 -0.1153 -0.2910 -0.1460
  173SLPC    HS19517   7.072   0.175   7.718  0.1544  1.5838 -1.3278
  173SLPC   O2119518   7.060   0.149   7.502  0.0652 -0.1116 -0.3239
  173SLPC   C2119519   7.193   0.146   7.503 -0.2828  0.0110  0.2456
  173SLPC   O2219520   7.269   0.136   7.596  0.7725 -0.6514  0.1849
  173SLPC   C2219521   7.237   0.165   7.363 -0.6246 -0.5273 -0.5234
  173SLPC   H2R19522   7.180   0.092   7.301 -0.7675  0.5674 -1.7335
  173SLPC   H2S19523   7.209   0.264   7.321  1.7157  0.3659 -0.1282
  173SLPC    C319524   6.983  -0.021   7.668  0.7008  0.1381  0.2513
  173SLPC    HX19525   6.952  -0.026   7.774 -1.8348 -1.4381 -0.4774
  173SLPC    HY19526   7.070  -0.090   7.661  0.2544 -0.3253 -1.2338
  173SLPC   O3119527   6.875  -0.080   7.598 -0.0108  0.2145  0.3526
  173SLPC   C3119528   6.911  -0.145   7.489  0.1477  0.9700  0.5479
  173SLPC   O3219529   7.027  -0.160   7.450  0.2947 -0.0575 -0.2839
  173SLPC   C3219530   6.784  -0.186   7.411 -0.0769 -0.5569  0.4143
  173SLPC   H2X19531   6.724  -0.225   7.497 -1.5802 -1.3176 -0.9150
  173SLPC   H2Y19532   6.810  -0.267   7.340 -1.3116 -0.7584  0.1577
  173SLPC   C2319533   7.385   0.115   7.343  0.0753  1.0569 -0.3932
  173SLPC   H3R19534   7.408   0.021   7.398 -1.2450  1.0923  0.2536
  173SLPC   H3S19535   7.451   0.192   7.389 -0.0683  0.8485  0.1734
  173SLPC   C2419536   7.416   0.108   7.188  0.1767  0.5065  0.4099
  173SLPC   H4R19537   7.324   0.053   7.157  2.5334 -1.4710 -3.9768
  173SLPC   H4S19538   7.498   0.037   7.164  2.8623  3.4225  0.2853
  173SLPC   C2519539   7.423   0.236   7.109 -0.4700  0.1301  0.4149
  173SLPC   H5R19540   7.506   0.304   7.139  0.6695 -0.3771 -1.3818
  173SLPC   H5S19541   7.328   0.293   7.103 -0.5317  0.0580  0.7022
  173SLPC   C2619542   7.451   0.213   6.958 -0.0325 -0.2831  0.0985
  173SLPC   H6R19543   7.379   0.155   6.897  0.3448 -1.4410  0.7184
  173SLPC   H6S19544   7.544   0.153   6.950  1.1018  1.0936  1.8294
  173SLPC   C2719545   7.483   0.339   6.875 -0.1390  0.4156 -0.1140
  173SLPC   H7R19546   7.514   0.290   6.780 -2.4767 -3.3076  0.8350
  173SLPC   H7S19547   7.566   0.387   6.932 -0.5721  0.8481  0.1549
  173SLPC   C2819548   7.381   0.448   6.849  0.4063 -0.2768  0.3840
  173SLPC   H8R19549   7.442   0.520   6.790 -0.3699  0.5172  0.5452
  173SLPC   H8S19550   7.346   0.486   6.947 -0.1394 -0.0824  0.1153
  173SLPC   C2919551   7.263   0.405   6.767  0.3708 -0.2873  0.4038
  173SLPC   H9R19552   7.165   0.412   6.817 -1.0570  2.0134 -2.3872
  173SLPC  C21019553   7.261   0.368   6.635  0.0902 -0.2349 -0.3025
  173SLPC  H10R19554   7.172   0.327   6.584  0.0694 -1.5748  0.7762
  173SLPC  C21119555   7.388   0.374   6.549  0.0332 -0.5157  0.8459
  173SLPC  H11R19556   7.402   0.276   6.499 -2.4794 -0.8841  0.6932
  173SLPC  H11S19557   7.477   0.405   6.608  0.1124  0.1140  0.4025
  173SLPC  C21219558   7.367   0.464   6.425 -0.8354 -0.2300 -0.4182
  173SLPC  H12R19559   7.262   0.478   6.395 -1.6036 -1.4000  1.5496
  173SLPC  C21319560   7.465   0.509   6.344 -0.4421  0.2534  0.1774
  173SLPC  H13R19561   7.431   0.576   6.263 -1.4530 -0.3020  0.1207
  173SLPC  C21419562   7.611   0.494   6.354  0.1723 -0.4488 -0.0350
  173SLPC  H14R19563   7.634   0.389   6.324 -1.3453 -0.7955 -0.0265
  173SLPC  H14S19564   7.641   0.509   6.460 -0.6887  1.2122  0.0014
  173SLPC  C21519565   7.690   0.589   6.255 -0.5508  0.1917 -0.6337
  173SLPC  H15R19566   7.788   0.603   6.305 -0.0631 -2.3769 -0.7268
  173SLPC  H15S19567   7.643   0.690   6.258 -0.0378  0.4440 -0.9693
  173SLPC  C21619568   7.711   0.525   6.118  0.7753 -0.9892 -0.2131
  173SLPC  H16R19569   7.611   0.482   6.100  0.8178 -2.5144  2.5927
  173SLPC  H16S19570   7.771   0.432   6.130  1.1289 -0.6230  1.0863
  173SLPC  C21719571   7.756   0.616   5.999  0.0444  0.0585  0.8117
  173SLPC  H17R19572   7.838   0.682   6.033 -0.2203  0.2529  1.0805
  173SLPC  H17S19573   7.674   0.685   5.970 -2.4486 -1.5619  3.4511
  173SLPC  C21819574   7.796   0.526   5.879 -0.4935 -0.6440  0.5391
  173SLPC  H18R19575   7.711   0.466   5.839 -0.4492 -0.9911  0.9648
  173SLPC  H18S19576   7.873   0.452   5.910 -1.9414 -2.3143  0.3059
  173SLPC  H18T19577   7.832   0.599   5.802 -2.5260  0.3330  0.4448
  173SLPC   C3319578   6.706  -0.071   7.341 -0.3081 -0.6082  0.0182
  173SLPC   H3X19579   6.682   0.017   7.404 -0.2997  1.3415 -2.5471
  173SLPC   H3Y19580   6.607  -0.109   7.306 -0.9178  1.1276 -0.2535
  173SLPC   C3419581   6.778  -0.029   7.214 -0.3178  0.0651  0.1469
  173SLPC   H4X19582   6.828  -0.119   7.174 -0.1350  0.9262 -1.6778
  173SLPC   H4Y19583   6.855   0.051   7.220 -0.5211  0.4351 -1.7115
  173SLPC   C3519584   6.675   0.033   7.110  0.3385  0.3396 -0.3727
  173SLPC   H5X19585   6.638   0.129   7.153 -1.9304 -1.6023  2.3944
  173SLPC   H5Y19586   6.587  -0.034   7.117  0.0276  0.8922  2.2312
  173SLPC   C3619587   6.732   0.056   6.972 -0.4729  0.7254  0.4585
  173SLPC   H6X19588   6.652   0.075   6.898  0.2767  0.6818 -0.3804
  173SLPC   H6Y19589   6.782  -0.037   6.938 -3.7427 -1.2369  0.6027
  173SLPC   C3719590   6.816   0.191   6.969 -0.2532 -0.1860 -0.0857
  173SLPC   H7X19591   6.916   0.165   7.009  0.8173  1.3499 -1.6376
  173SLPC   H7Y19592   6.773   0.277   7.026  0.8883  0.5764 -0.3373
  173SLPC   C3819593   6.839   0.236   6.823 -0.8429  0.1426  0.2877
  173SLPC   H8X19594   6.887   0.155   6.765 -1.2017  1.7192 -2.3933
  173SLPC   H8Y19595   6.910   0.322   6.821  0.2573 -0.7410 -0.1785
  173SLPC   C3919596   6.719   0.291   6.738  0.3987 -0.4071  0.3725
  173SLPC   H9X19597   6.657   0.359   6.800 -1.4224 -0.8456 -0.8886
  173SLPC   H9Y19598   6.658   0.204   6.705 -2.7322  2.1735 -1.2279
  173SLPC  C31019599   6.764   0.356   6.608 -0.0936 -0.1949  0.3186
  173SLPC  H10X19600   6.862   0.317   6.574 -0.7220  1.1162 -3.4860
  173SLPC  H10Y19601   6.772   0.465   6.631  0.1460  0.5616 -2.8726
  173SLPC  C31119602   6.665   0.354   6.489 -0.2744  0.1820  0.3079
  173SLPC  H11X19603   6.563   0.348   6.533 -0.2330  0.1404  0.3978
  173SLPC  H11Y19604   6.696   0.262   6.436  0.2345  2.6268 -4.1866
  173SLPC  C31219605   6.683   0.467   6.390 -0.0772 -0.1134  0.4500
  173SLPC  H12X19606   6.793   0.486   6.384 -0.0736 -0.6073 -2.2320
  173SLPC  H12Y19607   6.638   0.559   6.433  1.9875  0.3723  1.7608
  173SLPC  C31319608   6.633   0.434   6.251  0.4987 -0.9199  1.0164
  173SLPC  H13X19609   6.690   0.352   6.203  1.2862  0.2612 -0.1464
  173SLPC  H13Y19610   6.644   0.522   6.184  3.7663  2.0802  4.9148
  173SLPC  C31419611   6.481   0.408   6.256  0.0782  0.2484  0.1626
  173SLPC  H14X19612   6.424   0.497   6.287 -1.3479 -0.4144 -0.4658
  173SLPC  H14Y19613   6.469   0.334   6.338  1.0028 -1.0649 -0.8336
  173SLPC  C31519614   6.415   0.348   6.123 -0.3196 -0.2877 -0.5886
  173SLPC  H15X19615   6.315   0.311   6.153  0.3715 -2.5246 -0.8486
  173SLPC  H15Y19616   6.488   0.265   6.110 -0.5004 -0.8210  1.5226
  173SLPC  C31619617   6.418   0.445   6.008  0.2368  0.7990 -0.3316
  173SLPC  H16X19618   6.520   0.490   6.013  0.5382  0.0042  1.3145
  173SLPC  H16Y19619   6.330   0.512   6.021 -0.5037 -0.3345  0.7210
  173SLPC  C31719620   6.431   0.373   5.873 -0.1275 -0.0279  0.4723
  173SLPC  H17X19621   6.334   0.323   5.852 -0.1026 -0.2128  0.7940
  173SLPC  H17Y19622   6.505   0.292   5.892  0.6321  0.8388  1.3267
  173SLPC  C31819623   6.459   0.470   5.755  0.9153  0.7340  0.1778
  173SLPC  H18X19624   6.557   0.522   5.751  1.0244  0.6369  1.1768
  173SLPC  H18Y19625   6.376   0.543   5.750 -2.3357 -2.5488  1.7673
  173SLPC  H18Z19626   6.448   0.401   5.669  0.7001  1.0990 -0.0864
  174SLPC     N19627   4.076   1.380   8.385  0.1320 -0.0954  0.6710
  174SLPC   C1319628   3.999   1.492   8.453  0.2916  0.6533  0.0951
  174SLPC  H13A19629   3.983   1.566   8.376  2.5483  2.8614  1.5991
  174SLPC  H13B19630   3.911   1.451   8.500  0.3204 -2.0096 -1.9445
  174SLPC  H13C19631   4.070   1.528   8.526  1.0671 -0.1589 -0.2460
  174SLPC   C1419632   4.095   1.275   8.493 -0.3960 -0.6935  0.8930
  174SLPC  H14A19633   4.158   1.199   8.450  1.2267  1.0887 -0.0713
  174SLPC  H14B19634   4.144   1.311   8.582 -0.5633 -0.0364  0.7254
  174SLPC  H14C19635   4.000   1.231   8.518 -0.6899 -0.0177  1.0065
  174SLPC   C1519636   4.217   1.429   8.351 -0.6235  0.2543 -0.6322
  174SLPC  H15A19637   4.285   1.352   8.318 -0.4952  0.2856 -0.4359
  174SLPC  H15B19638   4.212   1.502   8.271  0.3751 -0.8839 -1.7987
  174SLPC  H15C19639   4.258   1.475   8.439 -2.0652  0.8627 -0.2431
  174SLPC   C1219640   4.013   1.321   8.263  0.1303  0.1699 -0.1175
  174SLPC  H12A19641   3.908   1.303   8.282 -0.5645  1.0688 -2.6824
  174SLPC  H12B19642   4.062   1.228   8.238  1.5466  0.7821  0.2916
  174SLPC   C1119643   4.015   1.414   8.140  0.7540 -0.1535  0.2124
  174SLPC  H11A19644   3.972   1.360   8.053 -1.2052 -0.3762  1.2634
  174SLPC  H11B19645   4.119   1.434   8.107  1.0030 -2.2533 -0.3984
  174SLPC     P19646   3.779   1.532   8.167 -0.3125  0.0780 -0.0646
  174SLPC   O1319647   3.729   1.420   8.248  0.6457  0.5804 -0.2683
  174SLPC   O1419648   3.723   1.669   8.203 -0.0956 -0.2982 -0.6177
  174SLPC   O1219649   3.940   1.534   8.164  0.0034 -0.1404 -0.2203
  174SLPC   O1119650   3.738   1.502   8.020 -0.5814  0.6457 -0.1751
  174SLPC    C119651   3.784   1.550   7.898 -0.3077 -0.3638 -0.1662
  174SLPC    HA19652   3.705   1.619   7.861  0.8814  0.7079 -0.7647
  174SLPC    HB19653   3.876   1.611   7.905  1.0408 -2.3837  0.9024
  174SLPC    C219654   3.800   1.434   7.792  0.0162  0.3817 -0.1687
  174SLPC    HS19655   3.900   1.391   7.816 -0.7372 -0.6540  1.3440
  174SLPC   O2119656   3.787   1.489   7.663 -0.3856  0.0208 -0.5196
  174SLPC   C2119657   3.871   1.435   7.574 -0.0545 -0.4235  0.8134
  174SLPC   O2219658   3.969   1.366   7.600  0.5675  0.5725 -0.4408
  174SLPC   C2219659   3.829   1.489   7.431  0.2050  0.1463 -0.0660
  174SLPC   H2R19660   3.728   1.457   7.399 -0.0461  0.9748 -0.1033
  174SLPC   H2S19661   3.827   1.599   7.442  2.2861  0.7856 -4.0884
  174SLPC    C319662   3.699   1.311   7.824  1.0806  0.5269  0.3633
  174SLPC    HX19663   3.595   1.347   7.835  0.5854 -0.9239  0.6300
  174SLPC    HY19664   3.728   1.278   7.926  0.7930 -0.2491  0.2040
  174SLPC   O3119665   3.715   1.210   7.712 -0.1547  0.1948  0.4035
  174SLPC   C3119666   3.807   1.119   7.728  0.0389 -0.1570  0.1422
  174SLPC   O3219667   3.884   1.106   7.823  0.2927 -0.1528  0.2700
  174SLPC   C3219668   3.797   1.007   7.619  0.1920  0.1651  0.2951
  174SLPC   H2X19669   3.688   0.993   7.600  0.3121  0.8898 -1.0464
  174SLPC   H2Y19670   3.837   0.910   7.654 -1.6039 -0.8940 -0.4489
  174SLPC   C2319671   3.934   1.443   7.325  0.7265  1.1842  0.3074
  174SLPC   H3R19672   3.933   1.332   7.336  0.8298  1.3141  1.8692
  174SLPC   H3S19673   4.035   1.486   7.344  0.2454  3.9843 -2.7094
  174SLPC   C2419674   3.897   1.478   7.179 -0.5631  0.2971  0.4690
  174SLPC   H4R19675   3.901   1.589   7.175  0.5919  0.2720  0.5951
  174SLPC   H4S19676   3.792   1.460   7.147 -0.3760  2.4675 -1.6001
  174SLPC   C2519677   4.002   1.435   7.077  0.2837 -0.5920  0.0042
  174SLPC   H5R19678   4.014   1.325   7.085  1.0911 -0.4321  1.4425
  174SLPC   H5S19679   4.098   1.489   7.094 -0.5176  1.1477 -0.7728
  174SLPC   C2619680   3.976   1.481   6.930  0.3278  0.1433 -0.5078
  174SLPC   H6R19681   3.995   1.590   6.929 -1.7184  0.5757  0.9197
  174SLPC   H6S19682   3.869   1.476   6.902 -0.0459 -0.1511  0.8722
  174SLPC   C2719683   4.059   1.406   6.833 -0.7491 -0.1379 -0.4950
  174SLPC   H7R19684   4.058   1.295   6.835  2.1495 -0.2979 -1.6520
  174SLPC   H7S19685   4.162   1.440   6.857 -0.7133 -0.1107 -0.6834
  174SLPC   C2819686   4.038   1.445   6.687  0.0433 -0.9632 -0.0328
  174SLPC   H8R19687   4.066   1.552   6.674 -3.5180  0.4165  1.9271
  174SLPC   H8S19688   3.931   1.451   6.655  0.0031  1.0561  0.3330
  174SLPC   C2919689   4.113   1.351   6.596  0.6146 -0.0637 -0.0114
  174SLPC   H9R19690   4.071   1.250   6.585  2.1564 -0.4872 -3.1063
  174SLPC  C21019691   4.230   1.375   6.540  0.0978  0.2635 -0.2587
  174SLPC  H10R19692   4.273   1.300   6.472  2.6746  2.0142 -0.7212
  174SLPC  C21119693   4.308   1.498   6.550 -0.0727 -0.3646  0.3222
  174SLPC  H11R19694   4.242   1.586   6.569 -1.2585 -0.4323 -2.9758
  174SLPC  H11S19695   4.358   1.527   6.455 -3.6166 -1.9975 -2.2359
  174SLPC  C21219696   4.412   1.509   6.658  0.4214 -0.7343 -0.0894
  174SLPC  H12R19697   4.401   1.447   6.749  0.2310  1.0039  1.1338
  174SLPC  C21319698   4.534   1.573   6.644  0.2706 -0.1034 -0.1508
  174SLPC  H13R19699   4.599   1.570   6.733  0.8793 -0.6969 -0.6132
  174SLPC  C21419700   4.589   1.663   6.538  0.2269  0.1812  0.2836
  174SLPC  H14R19701   4.660   1.732   6.589 -0.6904  1.6939 -0.4048
  174SLPC  H14S19702   4.509   1.735   6.513 -0.8223 -0.2875  2.1576
  174SLPC  C21519703   4.643   1.606   6.404 -0.8060  0.0770  0.6074
  174SLPC  H15R19704   4.670   1.696   6.345 -0.8336  1.2092  2.2880
  174SLPC  H15S19705   4.562   1.558   6.345  1.1267  0.0882 -2.2544
  174SLPC  C21619706   4.759   1.508   6.403  0.1576 -0.5031 -0.7979
  174SLPC  H16R19707   4.726   1.402   6.412  0.2634 -0.5564 -1.0264
  174SLPC  H16S19708   4.815   1.533   6.496  0.6686  1.4223 -1.5853
  174SLPC  C21719709   4.855   1.522   6.285 -0.3260  1.1310 -0.1901
  174SLPC  H17R19710   4.803   1.498   6.190  3.4090  0.8601 -2.3668
  174SLPC  H17S19711   4.928   1.439   6.300 -3.7728 -2.1621 -0.2875
  174SLPC  C21819712   4.927   1.650   6.289 -0.2143  0.0148  0.8777
  174SLPC  H18R19713   4.971   1.676   6.388  0.7863  0.2466  0.3896
  174SLPC  H18S19714   4.857   1.730   6.255  0.3030 -0.6758 -2.0829
  174SLPC  H18T19715   5.016   1.650   6.222 -0.1729  2.2763  0.8587
  174SLPC   C3319716   3.861   1.053   7.485 -0.2830  0.1775  0.6291
  174SLPC   H3X19717   3.970   1.073   7.486 -0.4290  0.9934  0.5831
  174SLPC   H3Y19718   3.808   1.145   7.454 -0.5378 -0.4302 -0.8257
  174SLPC   C3419719   3.842   0.945   7.372 -0.5553 -0.1477 -0.0366
  174SLPC   H4X19720   3.742   0.897   7.362  0.2644 -1.9663  0.0739
  174SLPC   H4Y19721   3.909   0.858   7.390 -1.6834 -1.4141 -1.6561
  174SLPC   C3519722   3.872   1.005   7.237 -0.6216 -0.6164  0.4100
  174SLPC   H5X19723   3.976   1.039   7.255 -1.6875  2.8566  0.7725
  174SLPC   H5Y19724   3.820   1.102   7.219 -0.3055 -0.6779 -0.9468
  174SLPC   C3619725   3.849   0.924   7.112 -0.3642  0.0459 -0.6375
  174SLPC   H6X19726   3.761   0.857   7.116 -0.6416  0.0474 -3.7334
  174SLPC   H6Y19727   3.945   0.870   7.100 -1.1767 -1.9219  1.1675
  174SLPC   C3719728   3.828   1.016   6.991  0.4919 -0.2758  0.3484
  174SLPC   H7X19729   3.923   1.069   6.971  0.1019  1.6011  2.8431
  174SLPC   H7Y19730   3.747   1.093   6.998 -1.1119 -1.7387 -1.1112
  174SLPC   C3819731   3.783   0.935   6.862  0.5136 -0.8221  0.0156
  174SLPC   H8X19732   3.717   0.852   6.896  2.9211 -2.3901  1.1392
  174SLPC   H8Y19733   3.863   0.877   6.812  1.3996  0.1590  0.2712
  174SLPC   C3919734   3.713   1.023   6.757  0.0499  0.2039 -0.0178
  174SLPC   H9X19735   3.757   1.125   6.758  0.5035  0.0339 -0.9205
  174SLPC   H9Y19736   3.603   1.038   6.764 -0.2425 -0.9361 -1.6175
  174SLPC  C31019737   3.748   0.983   6.611 -0.0666 -1.0904 -0.3020
  174SLPC  H10X19738   3.666   1.029   6.551 -1.0653 -0.4936  1.4675
  174SLPC  H10Y19739   3.742   0.875   6.585 -1.0245 -1.5896  1.7693
  174SLPC  C31119740   3.872   1.056   6.558  0.1499 -0.2554 -0.2063
  174SLPC  H11X19741   3.943   1.049   6.644  0.1469  0.6133 -0.1177
  174SLPC  H11Y19742   3.852   1.166   6.559 -1.6421 -0.5184  1.9407
  174SLPC  C31219743   3.920   0.995   6.431  0.0144  0.0341  0.1083
  174SLPC  H12X19744   3.842   1.011   6.353  2.2124  1.0010 -2.0016
  174SLPC  H12Y19745   3.933   0.885   6.441 -2.5192 -0.3252  0.0820
  174SLPC  C31319746   4.044   1.046   6.367  0.7776  0.5353  0.6595
  174SLPC  H13X19747   4.119   1.063   6.447 -0.4174 -3.6537  3.0271
  174SLPC  H13Y19748   4.024   1.136   6.306 -2.5901 -0.3511  0.2381
  174SLPC  C31419749   4.113   0.948   6.284  0.0749  0.0353 -0.5138
  174SLPC  H14X19750   4.108   0.849   6.334 -0.6418  1.0418  1.5248
  174SLPC  H14Y19751   4.220   0.976   6.271  0.0696  0.4266  0.2260
  174SLPC  C31519752   4.044   0.921   6.152  0.0590  0.0270  0.0190
  174SLPC  H15X19753   4.056   1.014   6.092 -0.4230 -0.8346 -1.4587
  174SLPC  H15Y19754   3.935   0.902   6.165 -0.4217  2.7314  0.7208
  174SLPC  C31619755   4.112   0.802   6.080 -0.2267 -0.4411  0.1151
  174SLPC  H16X19756   4.106   0.720   6.155 -0.1147  0.6784  1.3807
  174SLPC  H16Y19757   4.218   0.831   6.061 -0.7745  0.7329 -1.4151
  174SLPC  C31719758   4.041   0.736   5.954  0.7864 -0.0246 -0.1623
  174SLPC  H17X19759   4.042   0.807   5.868 -0.2481  1.4971  1.0252
  174SLPC  H17Y19760   3.932   0.726   5.975  0.7086 -0.1071 -0.6028
  174SLPC  C31819761   4.083   0.592   5.926  0.1418 -0.0261 -0.1865
  174SLPC  H18X19762   4.013   0.541   5.856 -1.6442 -1.1659  2.2798
  174SLPC  H18Y19763   4.086   0.538   6.023 -0.5224  0.4021  0.0809
  174SLPC  H18Z19764   4.181   0.586   5.875  2.0228  3.1905  2.6364
  175SLPC     N19765   6.389   1.880   8.120 -0.6235 -0.6638  0.3161
  175SLPC   C1319766   6.391   2.003   8.207  0.0054 -0.1074  1.0287
  175SLPC  H13A19767   6.294   2.049   8.220 -0.4493 -0.7079 -0.1115
  175SLPC  H13B19768   6.442   1.992   8.301 -1.2839 -2.3794  1.5423
  175SLPC  H13C19769   6.443   2.081   8.152  0.2182 -1.1160 -0.2535
  175SLPC   C1419770   6.311   1.778   8.194  0.0376  0.1433 -0.2814
  175SLPC  H14A19771   6.348   1.750   8.291 -1.3365 -0.4743  0.0943
  175SLPC  H14B19772   6.213   1.815   8.224 -1.7988 -4.1193 -0.3610
  175SLPC  H14C19773   6.295   1.688   8.138 -0.4094 -0.3375  0.5845
  175SLPC   C1519774   6.527   1.825   8.100 -0.5152 -0.5268  0.0603
  175SLPC  H15A19775   6.581   1.813   8.193 -0.5393 -2.0411 -0.0921
  175SLPC  H15B19776   6.522   1.727   8.054  1.4499 -1.0000  0.7408
  175SLPC  H15C19777   6.585   1.888   8.034 -1.8618  0.3032 -0.3775
  175SLPC   C1219778   6.323   1.921   7.993  0.0677 -0.7458  0.5110
  175SLPC  H12A19779   6.233   1.981   8.004  0.4947  0.5186 -2.1271
  175SLPC  H12B19780   6.271   1.836   7.951 -4.9903  1.5140  1.3981
  175SLPC   C1119781   6.417   1.987   7.879 -0.1818  0.9802  0.6002
  175SLPC  H11A19782   6.348   2.023   7.800  0.1597 -2.4878 -1.4797
  175SLPC  H11B19783   6.489   1.912   7.839 -1.7997  0.0542 -0.6637
  175SLPC     P19784   6.614   2.163   7.916  0.0956 -0.5746 -0.4959
  175SLPC   O1319785   6.638   2.252   8.030  0.3556  0.7960 -0.1296
  175SLPC   O1419786   6.709   2.055   7.900 -0.3569  0.3866 -0.1930
  175SLPC   O1219787   6.468   2.109   7.932 -0.6284  0.1308 -0.3886
  175SLPC   O1119788   6.609   2.253   7.788 -0.2733 -0.0737  0.0208
  175SLPC    C119789   6.575   2.212   7.659  0.2232 -0.0266  0.4315
  175SLPC    HA19790   6.602   2.105   7.642  0.2918  0.1283 -0.4461
  175SLPC    HB19791   6.465   2.223   7.648  0.3699 -1.0791 -3.6783
  175SLPC    C219792   6.636   2.300   7.541  0.0674 -0.3240 -0.1643
  175SLPC    HS19793   6.638   2.227   7.456  2.2819 -1.0751  0.4591
  175SLPC   O2119794   6.768   2.365   7.565  0.0218  0.5005  0.2528
  175SLPC   C2119795   6.870   2.284   7.546 -0.0064 -0.3440 -0.3383
  175SLPC   O2219796   6.865   2.164   7.512  0.1204 -0.3611 -0.2107
  175SLPC   C2219797   7.000   2.356   7.578  0.2477  0.3962 -0.0901
  175SLPC   H2R19798   7.016   2.447   7.517 -0.6585  0.8394  0.3146
  175SLPC   H2S19799   6.977   2.398   7.678  0.8055  2.0465 -0.6283
  175SLPC    C319800   6.537   2.414   7.489 -0.2775 -0.2070 -0.0947
  175SLPC    HX19801   6.513   2.477   7.578  1.3131 -0.7422  0.7559
  175SLPC    HY19802   6.442   2.368   7.453 -0.2950 -0.5832  0.4186
  175SLPC   O3119803   6.585   2.488   7.377  0.7422  0.5957  0.6918
  175SLPC   C3119804   6.574   2.616   7.384 -0.4383  0.3787  0.4520
  175SLPC   O3219805   6.567   2.679   7.487  0.1922  0.1471  1.0996
  175SLPC   C3219806   6.588   2.677   7.249  0.4442 -0.6394  0.2190
  175SLPC   H2X19807   6.516   2.762   7.245  2.2067  0.8903  0.0287
  175SLPC   H2Y19808   6.551   2.602   7.176 -0.7304 -1.0535  1.1862
  175SLPC   C2319809   7.127   2.266   7.578  0.0645  0.4592  0.5742
  175SLPC   H3R19810   7.151   2.239   7.473 -1.2545 -0.8944  0.6001
  175SLPC   H3S19811   7.108   2.173   7.635 -0.0927  1.3938  2.1040
  175SLPC   C2419812   7.247   2.343   7.641 -0.2583 -0.1804 -0.4607
  175SLPC   H4R19813   7.238   2.359   7.751 -0.9563 -1.9862 -0.2150
  175SLPC   H4S19814   7.242   2.441   7.590  0.0941  0.0295 -0.0992
  175SLPC   C2519815   7.386   2.273   7.626 -0.0716 -0.0896  0.3562
  175SLPC   H5R19816   7.363   2.165   7.634 -1.5263  0.0703 -1.1340
  175SLPC   H5S19817   7.457   2.309   7.704 -2.1306  1.5187  1.5911
  175SLPC   C2619818   7.461   2.310   7.492  0.9947 -0.0492  0.0008
  175SLPC   H6R19819   7.398   2.283   7.404  1.5214 -2.4435  0.2829
  175SLPC   H6S19820   7.543   2.236   7.485  1.0159  0.1285 -3.4480
  175SLPC   C2719821   7.520   2.450   7.489  0.1917 -0.2884  0.7844
  175SLPC   H7R19822   7.573   2.470   7.584  0.3116 -0.6453  0.7941
  175SLPC   H7S19823   7.435   2.520   7.476  1.8473  1.4087 -1.9538
  175SLPC   C2819824   7.626   2.456   7.372  0.6878 -0.7049  0.3697
  175SLPC   H8R19825   7.573   2.453   7.275  0.7503  0.9981  0.2391
  175SLPC   H8S19826   7.677   2.358   7.377 -1.3604 -1.8327  0.0029
  175SLPC   C2919827   7.722   2.573   7.374  0.8407 -0.0876 -0.3164
  175SLPC   H9R19828   7.788   2.579   7.461 -0.2339 -0.4250  0.5428
  175SLPC  C21019829   7.724   2.671   7.284  0.0220  0.1482 -0.2269
  175SLPC  H10R19830   7.807   2.743   7.286  0.1112  0.0863 -1.1376
  175SLPC  C21119831   7.641   2.682   7.160 -0.3201  0.1715 -0.3854
  175SLPC  H11R19832   7.552   2.616   7.169 -0.1246 -0.3125 -1.7407
  175SLPC  H11S19833   7.698   2.645   7.072 -0.0902  2.0325 -1.0586
  175SLPC  C21219834   7.591   2.823   7.130  0.4048  0.0276  0.2435
  175SLPC  H12R19835   7.617   2.894   7.210 -0.6026 -0.1962  0.7720
  175SLPC  C21319836   7.519   2.865   7.027  0.8780 -0.4460  0.1670
  175SLPC  H13R19837   7.507   2.974   7.012 -1.6171 -0.6153  0.3983
  175SLPC  C21419838   7.484   2.778   6.908  0.9447 -0.4693  0.0014
  175SLPC  H14R19839   7.376   2.793   6.887  1.0667  0.8379  0.2045
  175SLPC  H14S19840   7.504   2.670   6.926 -0.7583 -0.7715  0.2473
  175SLPC  C21519841   7.554   2.812   6.775  1.0093 -0.3643  1.0182
  175SLPC  H15R19842   7.665   2.822   6.783  0.9388  0.5359  0.9904
  175SLPC  H15S19843   7.521   2.917   6.762 -3.2054 -1.7374 -1.5238
  175SLPC  C21619844   7.514   2.730   6.647 -0.7196 -0.0454 -0.4793
  175SLPC  H16R19845   7.403   2.736   6.652 -0.7755 -1.5886  2.1575
  175SLPC  H16S19846   7.554   2.627   6.661  0.2217  0.1956 -1.2724
  175SLPC  C21719847   7.583   2.796   6.527  0.1393 -0.6384 -0.7485
  175SLPC  H17R19848   7.566   2.905   6.537  0.6765 -0.6362  0.2489
  175SLPC  H17S19849   7.525   2.759   6.439 -1.1311  1.6328 -0.9313
  175SLPC  C21819850   7.725   2.749   6.504 -0.4327 -0.1545  0.3311
  175SLPC  H18R19851   7.727   2.640   6.482  1.2363  0.0563 -0.7378
  175SLPC  H18S19852   7.780   2.771   6.599  0.5837 -0.1203 -0.2449
  175SLPC  H18T19853   7.767   2.805   6.418 -1.2942  2.5327  1.5580
  175SLPC   C3319854   6.728   2.728   7.206  0.7131 -0.2808  0.1059
  175SLPC   H3X19855   6.799   2.650   7.174  0.0027 -1.6043  1.6192
  175SLPC   H3Y19856   6.785   2.790   7.278 -1.6170 -0.2616  2.0822
  175SLPC   C3419857   6.698   2.825   7.090  0.3040 -0.2246 -0.0518
  175SLPC   H4X19858   6.787   2.890   7.080 -1.3232  2.4971  1.7911
  175SLPC   H4Y19859   6.621   2.895   7.129  1.5617  0.8389  0.5997
  175SLPC   C3519860   6.674   2.750   6.959 -0.2247 -0.6907  0.3078
  175SLPC   H5X19861   6.675   2.832   6.884  0.1561  0.3121  1.3795
  175SLPC   H5Y19862   6.573   2.703   6.950 -0.5361  0.3469 -2.6918
  175SLPC   C3619863   6.783   2.652   6.903 -0.8489  0.2203  0.1108
  175SLPC   H6X19864   6.755   2.637   6.797  0.0746 -1.3379  0.0595
  175SLPC   H6Y19865   6.764   2.557   6.958 -0.2933  0.6180  1.0195
  175SLPC   C3719866   6.927   2.704   6.913 -0.2654 -0.7155 -0.0945
  175SLPC   H7X19867   6.996   2.617   6.910  1.1875  0.4134 -1.9647
  175SLPC   H7Y19868   6.944   2.763   7.006 -0.0424  0.7915 -1.0553
  175SLPC   C3819869   6.965   2.793   6.790  0.7472  0.1416 -0.0399
  175SLPC   H8X19870   6.896   2.880   6.785 -0.6022 -0.6857  2.3344
  175SLPC   H8Y19871   6.939   2.728   6.704  0.6020 -2.1841  1.6420
  175SLPC   C3919872   7.112   2.836   6.791 -0.6800  0.6809  0.1380
  175SLPC   H9X19873   7.152   2.741   6.834 -3.2123  0.7548  2.9404
  175SLPC   H9Y19874   7.127   2.917   6.865 -0.6025  0.9478 -0.1668
  175SLPC  C31019875   7.172   2.882   6.658 -0.0678 -0.0389 -0.5408
  175SLPC  H10X19876   7.281   2.899   6.670 -0.1293 -0.8141  1.4233
  175SLPC  H10Y19877   7.125   2.982   6.642 -0.0316  0.3072  1.2901
  175SLPC  C31119878   7.145   2.789   6.539 -0.0842  0.1109  0.4137
  175SLPC  H11X19879   7.036   2.787   6.520  0.0139 -0.1159 -0.1662
  175SLPC  H11Y19880   7.196   2.691   6.549 -0.2832  0.0979  1.3695
  175SLPC  C31219881   7.197   2.844   6.401 -0.6057 -0.1248  0.5397
  175SLPC  H12X19882   7.306   2.854   6.414 -0.5556  0.3098 -0.1836
  175SLPC  H12Y19883   7.155   2.945   6.383 -0.4969 -0.0736  0.5790
  175SLPC  C31319884   7.169   2.754   6.281  0.0352 -0.4428  0.5453
  175SLPC  H13X19885   7.059   2.737   6.269 -0.5404  0.9593  3.1146
  175SLPC  H13Y19886   7.213   2.653   6.296 -0.9862 -1.6282 -3.3497
  175SLPC  C31419887   7.228   2.826   6.159 -0.9921  0.1699  0.1649
  175SLPC  H14X19888   7.208   2.935   6.155 -0.0212  0.3645  0.3507
  175SLPC  H14Y19889   7.190   2.770   6.071  3.2690 -0.5902 -1.4529
  175SLPC  C31519890   7.379   2.797   6.150 -0.4086 -0.8345 -0.1703
  175SLPC  H15X19891   7.373   2.687   6.133  0.1687 -0.8440 -0.3393
  175SLPC  H15Y19892   7.433   2.816   6.245 -0.0034  1.1394 -0.7527
  175SLPC  C31619893   7.463   2.868   6.039  0.2377  0.4659  0.3069
  175SLPC  H16X19894   7.435   2.975   6.031 -2.8031 -0.3271 -1.1162
  175SLPC  H16Y19895   7.434   2.830   5.938  2.6355  3.7319 -1.8241
  175SLPC  C31719896   7.614   2.858   6.062 -0.0177  0.0836  0.1961
  175SLPC  H17X19897   7.632   2.780   6.138 -0.2335 -0.2407 -0.0814
  175SLPC  H17Y19898   7.657   2.955   6.096  1.0747  0.6104 -2.4341
  175SLPC  C31819899   7.694   2.806   5.937 -0.2679  0.3733  0.5029
  175SLPC  H18X19900   7.800   2.837   5.929 -0.1831 -0.2630 -1.1789
  175SLPC  H18Y19901   7.650   2.864   5.853  1.1512  0.8660  0.0665
  175SLPC  H18Z19902   7.682   2.698   5.915 -2.4398  0.6812 -0.0669
  176SLPC     N19903   0.507   1.001   7.854 -0.7777  0.2370 -0.0510
  176SLPC   C1319904   0.380   1.026   7.933 -0.3682 -0.1329 -0.0449
  176SLPC  H13A19905   0.296   1.038   7.866 -0.0295 -0.0003 -0.4553
  176SLPC  H13B19906   0.363   0.953   8.010 -0.2043 -2.2243 -1.8867
  176SLPC  H13C19907   0.391   1.119   7.986  0.0948 -0.1646 -0.0765
  176SLPC   C1419908   0.486   0.911   7.745 -0.5886 -0.2945  0.8449
  176SLPC  H14A19909   0.573   0.903   7.681 -0.6811  0.6855  0.5889
  176SLPC  H14B19910   0.471   0.808   7.774 -0.1175 -0.1573  1.5991
  176SLPC  H14C19911   0.401   0.935   7.682 -0.4424 -2.3321 -0.2384
  176SLPC   C1519912   0.615   0.937   7.945 -0.2329  0.0803  0.4270
  176SLPC  H15A19913   0.597   0.833   7.965 -0.2903 -0.4007 -1.9086
  176SLPC  H15B19914   0.710   0.951   7.895 -1.1680  0.2393 -1.3606
  176SLPC  H15C19915   0.611   0.984   8.042 -2.3531  0.2818  0.2775
  176SLPC   C1219916   0.554   1.136   7.798 -0.3339  0.1950  0.6253
  176SLPC  H12A19917   0.650   1.109   7.755 -0.2491  0.4019  0.6857
  176SLPC  H12B19918   0.579   1.196   7.884  0.2619  1.7828 -0.6109
  176SLPC   C1119919   0.469   1.217   7.707  0.2478  0.9279  0.0765
  176SLPC  H11A19920   0.430   1.164   7.617 -0.0538  1.3130 -0.0289
  176SLPC  H11B19921   0.534   1.300   7.671  0.4047  0.3234 -1.0985
  176SLPC     P19922   0.379   1.394   7.877  0.2242 -0.1619 -0.0801
  176SLPC   O1319923   0.243   1.429   7.908 -0.3762 -0.6695  0.5222
  176SLPC   O1419924   0.474   1.350   7.982 -0.2006 -0.6893 -0.8427
  176SLPC   O1219925   0.358   1.274   7.778  0.0674  0.4155 -0.0208
  176SLPC   O1119926   0.454   1.511   7.796  0.2597  0.1813  0.3047
  176SLPC    C119927   0.381   1.564   7.679  1.1729  0.2059  1.0886
  176SLPC    HA19928   0.384   1.504   7.585 -0.9336  2.1455 -0.3511
  176SLPC    HB19929   0.271   1.572   7.698  0.7774  3.3908 -1.5299
  176SLPC    C219930   0.429   1.703   7.647 -0.3699 -0.1999  0.5454
  176SLPC    HS19931   0.403   1.767   7.734  0.2010  1.5779 -0.5543
  176SLPC   O2119932   0.352   1.751   7.536  0.1034 -0.4046  0.0140
  176SLPC   C2119933   0.357   1.886   7.523 -0.3242  0.1023 -0.4204
  176SLPC   O2219934   0.416   1.962   7.594  0.3733 -0.8149 -0.8967
  176SLPC   C2219935   0.275   1.927   7.403  0.1584 -0.0809  0.0455
  176SLPC   H2R19936   0.193   1.854   7.384  2.1206 -2.6183  0.8800
  176SLPC   H2S19937   0.226   2.025   7.424 -0.9761 -1.0148  2.0420
  176SLPC    C319938   0.581   1.699   7.611 -0.4590 -0.1732  0.0415
  176SLPC    HX19939   0.634   1.654   7.698 -1.7832 -3.9971 -0.9599
  176SLPC    HY19940   0.629   1.798   7.593  1.4892 -0.6284  2.2436
  176SLPC   O3119941   0.607   1.619   7.496  0.1332  0.6605 -0.3055
  176SLPC   C3119942   0.735   1.568   7.493 -0.1774 -0.7026  0.1616
  176SLPC   O3219943   0.817   1.582   7.583  0.3957  0.1453  0.3066
  176SLPC   C3219944   0.756   1.503   7.359 -0.6866 -0.1036 -0.4100
  176SLPC   H2X19945   0.665   1.453   7.319 -2.0105  1.4308  0.5949
  176SLPC   H2Y19946   0.842   1.433   7.368  1.3618  2.1805 -1.2841
  176SLPC   C2319947   0.354   1.946   7.271  0.0417  0.5918  0.8918
  176SLPC   H3R19948   0.435   2.020   7.286 -0.7033  1.5741  0.1847
  176SLPC   H3S19949   0.290   2.004   7.200 -0.5062  1.9424  2.4207
  176SLPC   C2419950   0.410   1.821   7.207  0.9089  0.4629 -0.2191
  176SLPC   H4R19951   0.333   1.740   7.209 -1.2247  2.2686 -2.5719
  176SLPC   H4S19952   0.497   1.781   7.264  1.0572  0.7429 -0.2496
  176SLPC   C2519953   0.454   1.838   7.056 -0.6602 -0.0734 -0.1375
  176SLPC   H5R19954   0.534   1.763   7.041 -1.2714 -0.7086 -0.2546
  176SLPC   H5S19955   0.495   1.941   7.042 -2.0896  0.4582 -0.5979
  176SLPC   C2619956   0.338   1.830   6.954 -0.0351  0.0853 -0.1899
  176SLPC   H6R19957   0.278   1.923   6.952  0.2540  0.2666 -2.4850
  176SLPC   H6S19958   0.287   1.736   6.986 -0.6828  0.3283 -0.4991
  176SLPC   C2719959   0.392   1.809   6.813 -0.5599  0.3624 -0.0533
  176SLPC   H7R19960   0.436   1.707   6.811  0.3741  0.7386  0.6150
  176SLPC   H7S19961   0.471   1.881   6.786 -0.5224 -0.4277 -2.2727
  176SLPC   C2819962   0.280   1.809   6.710  0.0497 -0.5942  0.3356
  176SLPC   H8R19963   0.243   1.914   6.710 -0.8867 -0.9140  0.7173
  176SLPC   H8S19964   0.201   1.736   6.737 -0.6798 -0.3357 -0.9942
  176SLPC   C2919965   0.348   1.797   6.578  0.3965  0.6387  0.3293
  176SLPC   H9R19966   0.457   1.785   6.571  0.3782  0.5749  0.1218
  176SLPC  C21019967   0.273   1.784   6.467 -1.1994  0.4133  0.1245
  176SLPC  H10R19968   0.322   1.764   6.371 -2.3088  0.1706 -0.4057
  176SLPC  C21119969   0.120   1.789   6.476 -0.0206  0.5853  1.2678
  176SLPC  H11R19970   0.089   1.889   6.512 -0.4072  0.7788  0.4266
  176SLPC  H11S19971   0.089   1.710   6.547  0.8883 -0.6919  0.2919
  176SLPC  C21219972   0.036   1.777   6.346 -0.0458 -0.7823 -0.3282
  176SLPC  H12R19973   0.009   1.674   6.317 -0.6250 -0.7600  0.1125
  176SLPC  C21319974  -0.015   1.878   6.272 -0.4829  0.7700  0.2172
  176SLPC  H13R19975  -0.087   1.857   6.191 -0.7424  1.9094  0.1351
  176SLPC  C21419976   0.010   2.027   6.288 -0.3815  0.5354 -0.5868
  176SLPC  H14R19977   0.099   2.043   6.352 -1.6167  2.6940  0.6840
  176SLPC  H14S19978  -0.078   2.083   6.326 -2.3182 -1.6151 -1.5884
  176SLPC  C21519979   0.045   2.094   6.157  0.4596 -0.1062  0.5451
  176SLPC  H15R19980  -0.032   2.094   6.077  0.5041  3.2229  0.3423
  176SLPC  H15S19981   0.133   2.048   6.108  0.2037  0.7310 -0.7523
  176SLPC  C21619982   0.065   2.244   6.173  0.0942 -1.2199  0.0923
  176SLPC  H16R19983   0.132   2.279   6.091  1.0995 -0.4952  1.1903
  176SLPC  H16S19984   0.120   2.262   6.268 -0.9430 -0.4107  0.5522
  176SLPC  C21719985  -0.057   2.334   6.154 -0.6158  0.7821 -0.0791
  176SLPC  H17R19986  -0.126   2.315   6.239 -2.1109  1.4253 -1.0980
  176SLPC  H17S19987  -0.106   2.302   6.059  0.0874  0.3780 -0.3116
  176SLPC  C21819988  -0.011   2.478   6.147  0.2960  0.4523 -0.4357
  176SLPC  H18R19989   0.068   2.496   6.070  0.5346  2.4358  0.2244
  176SLPC  H18S19990   0.021   2.520   6.244  0.4489 -0.6260  0.0012
  176SLPC  H18T19991  -0.101   2.536   6.118 -0.5227 -0.3602  0.3879
  176SLPC   C3319992   0.783   1.615   7.253 -0.0812 -0.3736 -0.5322
  176SLPC   H3X19993   0.880   1.665   7.274 -0.5375  0.2528  0.1126
  176SLPC   H3Y19994   0.693   1.681   7.258 -2.1412 -3.0269 -0.1560
  176SLPC   C3419995   0.791   1.568   7.108  0.2278 -0.4809 -0.3794
  176SLPC   H4X19996   0.685   1.541   7.089  0.0430 -1.0781  1.3222
  176SLPC   H4Y19997   0.866   1.492   7.079  0.1154 -2.0530  3.0414
  176SLPC   C3519998   0.820   1.688   7.012  0.0031  0.0476 -1.2089
  176SLPC   H5X19999   0.919   1.733   7.033  0.1005 -1.6526  2.8024
  176SLPC   H5Y20000   0.755   1.776   7.027  0.8034  0.5688 -0.7063
  176SLPC   C3620001   0.807   1.647   6.863  0.8749 -0.5736  0.2141
  176SLPC   H6X20002   0.710   1.601   6.836  0.0011  1.7983 -1.0539
  176SLPC   H6Y20003   0.893   1.578   6.853  2.0932  1.0207 -0.9892
  176SLPC   C3720004   0.831   1.765   6.764  0.5561  0.2056  0.6105
  176SLPC   H7X20005   0.933   1.807   6.776  0.6501 -0.0104  0.5720
  176SLPC   H7Y20006   0.762   1.841   6.807 -0.4839 -1.0608  1.2769
  176SLPC   C3820007   0.784   1.746   6.622  0.0849  0.0687  0.2973
  176SLPC   H8X20008   0.686   1.695   6.629  1.9079 -3.8406 -0.0211
  176SLPC   H8Y20009   0.853   1.676   6.571  0.5174 -0.9118  2.1413
  176SLPC   C3920010   0.778   1.878   6.540 -0.4764 -0.8809 -0.3345
  176SLPC   H9X20011   0.860   1.949   6.561 -1.7686  0.0961  1.7648
  176SLPC   H9Y20012   0.683   1.933   6.555  0.4901  0.8376 -0.3426
  176SLPC  C31020013   0.792   1.853   6.383  0.0524 -0.4155 -0.6677
  176SLPC  H10X20014   0.696   1.810   6.346  1.3575 -1.3060 -3.2112
  176SLPC  H10Y20015   0.883   1.793   6.362  0.6514  0.8571 -1.7836
  176SLPC  C31120016   0.814   1.981   6.301 -0.4885 -0.4389  0.2495
  176SLPC  H11X20017   0.906   2.035   6.329 -0.3733 -0.8322  0.6276
  176SLPC  H11Y20018   0.726   2.046   6.320 -0.5458 -0.3760 -0.2016
  176SLPC  C31220019   0.810   1.959   6.152  0.0909 -0.1549 -0.5070
  176SLPC  H12X20020   0.770   2.048   6.098 -1.1863 -1.4795 -1.8477
  176SLPC  H12Y20021   0.750   1.869   6.127 -0.4908 -0.0984  0.6233
  176SLPC  C31320022   0.949   1.922   6.101 -0.4048 -0.4902 -0.0288
  176SLPC  H13X20023   0.989   1.864   6.187  0.1948  2.1296  1.5791
  176SLPC  H13Y20024   0.991   2.024   6.087  0.8080 -1.1308 -1.3402
  176SLPC  C31420025   0.939   1.851   5.964  0.2587 -0.1547  0.3346
  176SLPC  H14X20026   0.879   1.916   5.896  3.9922  3.2948 -0.0337
  176SLPC  H14Y20027   0.887   1.753   5.975 -0.3260 -0.2116 -2.1692
  176SLPC  C31520028   1.077   1.834   5.901  0.4278 -0.1646 -0.1804
  176SLPC  H15X20029   1.146   1.774   5.966 -0.5794  0.1328  1.2098
  176SLPC  H15Y20030   1.128   1.932   5.887  0.3627 -0.2102 -0.7415
  176SLPC  C31620031   1.091   1.777   5.761 -0.2128 -0.3807 -0.6602
  176SLPC  H16X20032   1.199   1.758   5.739  0.3642  2.9548 -1.2462
  176SLPC  H16Y20033   1.039   1.838   5.684  1.0104  1.9592  0.3002
  176SLPC  C31720034   1.028   1.637   5.753  0.1269  0.5929 -0.0673
  176SLPC  H17X20035   1.040   1.607   5.647 -1.6730  0.2121 -0.1848
  176SLPC  H17Y20036   0.918   1.649   5.757  0.1621  0.6438  1.8134
  176SLPC  C31820037   1.092   1.520   5.824  0.0528 -0.6560  0.0593
  176SLPC  H18X20038   1.197   1.511   5.788 -0.1058  1.1125 -0.9536
  176SLPC  H18Y20039   1.038   1.428   5.793 -1.5400  1.2196 -3.2596
  176SLPC  H18Z20040   1.088   1.535   5.934  2.1285  0.5601  0.0346
  177SLPC     N20041   0.963   0.322   8.046 -0.1764  0.1952 -0.0214
  177SLPC   C1320042   1.029   0.210   7.965  0.1658  0.0724 -0.8678
  177SLPC  H13A20043   1.076   0.256   7.880 -0.5398  0.8342 -0.8508
  177SLPC  H13B20044   1.104   0.155   8.021  0.8923  0.5797 -1.3300
  177SLPC  H13C20045   0.959   0.138   7.926 -1.5503  0.7979  0.7134
  177SLPC   C1420046   1.077   0.412   8.095 -0.1480  0.6352  0.0835
  177SLPC  H14A20047   1.049   0.492   8.162  0.4032 -1.7799  3.4601
  177SLPC  H14B20048   1.154   0.359   8.150  0.8839  0.0632 -1.8182
  177SLPC  H14C20049   1.123   0.452   8.006 -0.2777  1.0961  0.2226
  177SLPC   C1520050   0.886   0.260   8.147 -0.2933  0.2228 -0.3415
  177SLPC  H15A20051   0.942   0.195   8.213  0.9156  1.3185 -0.2581
  177SLPC  H15B20052   0.834   0.332   8.209 -2.3253 -0.9783 -0.5378
  177SLPC  H15C20053   0.802   0.204   8.109  0.1880 -0.1914 -0.8103
  177SLPC   C1220054   0.866   0.400   7.950 -0.1547  0.6224 -0.1754
  177SLPC  H12A20055   0.854   0.494   8.002  0.7812  1.2517 -1.0837
  177SLPC  H12B20056   0.775   0.343   7.937  1.1739 -1.6557  0.0021
  177SLPC   C1120057   0.922   0.437   7.809 -0.3405 -0.0643  0.3547
  177SLPC  H11A20058   0.840   0.497   7.765 -1.7869 -1.4013  1.1158
  177SLPC  H11B20059   0.922   0.343   7.750 -2.8604 -0.2128  0.4726
  177SLPC     P20060   1.168   0.489   7.723 -0.1407 -0.0596  0.2876
  177SLPC   O1320061   1.279   0.562   7.787  0.3022 -0.4653 -0.4075
  177SLPC   O1420062   1.187   0.343   7.715  0.1797  0.1098  0.1174
  177SLPC   O1220063   1.038   0.521   7.812 -0.2007 -0.3810  0.2490
  177SLPC   O1120064   1.146   0.554   7.581 -0.0765  0.2951  0.1720
  177SLPC    C120065   1.103   0.686   7.559  0.5007  0.7141  0.1227
  177SLPC    HA20066   0.998   0.683   7.523  0.5610 -0.4934  0.0019
  177SLPC    HB20067   1.098   0.748   7.651 -1.8844  0.5814  0.1550
  177SLPC    C220068   1.179   0.756   7.447 -0.1935 -0.2504  0.4669
  177SLPC    HS20069   1.141   0.857   7.424  1.2122 -0.1305 -1.6470
  177SLPC   O2120070   1.192   0.679   7.320 -0.5973 -0.0295  0.2305
  177SLPC   C2120071   1.099   0.723   7.233 -0.5876  0.5921  0.6083
  177SLPC   O2220072   1.011   0.805   7.261 -0.2559  0.3382 -0.4674
  177SLPC   C2220073   1.130   0.677   7.091 -0.2466  0.5259  0.0057
  177SLPC   H2R20074   1.208   0.747   7.055  1.5423 -0.1202  2.4039
  177SLPC   H2S20075   1.185   0.580   7.088  0.6685  1.0379 -0.1381
  177SLPC    C320076   1.321   0.783   7.493 -0.4204  0.2643 -0.2210
  177SLPC    HX20077   1.383   0.694   7.471  0.3681  0.4204  1.2112
  177SLPC    HY20078   1.315   0.800   7.603  0.7236  0.2303 -0.1332
  177SLPC   O3120079   1.368   0.907   7.435 -0.4877  0.1961 -0.5274
  177SLPC   C3120080   1.498   0.929   7.431 -0.5446  0.0403  0.3953
  177SLPC   O3220081   1.581   0.850   7.464  0.0583  0.1074  0.3271
  177SLPC   C3220082   1.536   1.062   7.364  0.2877 -0.6851 -1.3144
  177SLPC   H2X20083   1.646   1.052   7.353  0.8056  0.5988  1.7476
  177SLPC   H2Y20084   1.521   1.137   7.444  0.8527  0.9015 -2.6494
  177SLPC   C2320085   1.002   0.687   6.998  0.1093 -0.0796 -0.4802
  177SLPC   H3R20086   0.952   0.783   7.023  1.6747  0.0225  2.8232
  177SLPC   H3S20087   0.938   0.599   7.023 -1.3131  0.0521 -3.2598
  177SLPC   C2420088   1.045   0.672   6.852 -0.0927  0.1851  0.1182
  177SLPC   H4R20089   1.090   0.570   6.854 -2.7736 -1.1026  0.4574
  177SLPC   H4S20090   1.132   0.738   6.833  0.0322  0.1991  0.7149
  177SLPC   C2520091   0.938   0.663   6.745  0.5901 -0.0255 -0.7409
  177SLPC   H5R20092   0.857   0.594   6.777  0.5672  0.5785  0.5782
  177SLPC   H5S20093   0.967   0.629   6.643 -0.7938 -0.1021 -1.1208
  177SLPC   C2620094   0.874   0.806   6.730  0.1576 -0.3929  0.2149
  177SLPC   H6R20095   0.954   0.868   6.682  0.1657  0.4703  1.3095
  177SLPC   H6S20096   0.838   0.854   6.823 -2.9719 -1.5631 -0.2859
  177SLPC   C2720097   0.744   0.806   6.631  0.2808  0.2951  0.5961
  177SLPC   H7R20098   0.672   0.743   6.687 -0.6409  1.5456  0.8688
  177SLPC   H7S20099   0.763   0.762   6.531 -3.0765  3.2909 -1.5878
  177SLPC   C2820100   0.682   0.950   6.601  0.0032 -0.1490  0.1773
  177SLPC   H8R20101   0.758   1.006   6.544 -1.5810 -1.1056 -3.1081
  177SLPC   H8S20102   0.681   1.002   6.700  2.7992  0.4704 -0.0369
  177SLPC   C2920103   0.552   0.950   6.522  0.0843 -0.1154  0.2483
  177SLPC   H9R20104   0.474   0.886   6.566  0.8954 -1.8100 -0.6952
  177SLPC  C21020105   0.522   1.014   6.407  0.3276 -0.0334  0.5772
  177SLPC  H10R20106   0.422   0.997   6.364  0.7973 -0.3308 -0.4450
  177SLPC  C21120107   0.616   1.088   6.309  0.1276  0.2372  0.0272
  177SLPC  H11R20108   0.694   1.143   6.365  1.6820 -1.1067 -0.7377
  177SLPC  H11S20109   0.564   1.167   6.250 -2.6956 -0.8021  0.9301
  177SLPC  C21220110   0.694   0.980   6.229  0.0523  0.3278 -0.6614
  177SLPC  H12R20111   0.736   0.900   6.291  0.9137  0.7222 -0.7213
  177SLPC  C21320112   0.708   0.965   6.098 -0.4656  0.8064  0.8956
  177SLPC  H13R20113   0.772   0.889   6.051 -0.2834  1.2705  0.3718
  177SLPC  C21420114   0.655   1.061   5.996 -0.4361  0.1179 -0.1971
  177SLPC  H14R20115   0.728   1.119   5.937 -0.6896  0.3413 -0.2931
  177SLPC  H14S20116   0.585   1.133   6.044  1.1394  1.3722  0.2853
  177SLPC  C21520117   0.579   0.982   5.881 -0.5663  0.1874  0.3025
  177SLPC  H15R20118   0.535   1.072   5.832 -0.4354 -0.9881 -2.1150
  177SLPC  H15S20119   0.497   0.919   5.922  1.7053 -2.4723  1.0858
  177SLPC  C21620120   0.681   0.930   5.780  0.2955  0.9531 -0.3495
  177SLPC  H16R20121   0.785   0.927   5.820 -0.2424  1.4240  1.1669
  177SLPC  H16S20122   0.688   0.990   5.687 -0.2902 -0.5834 -1.4292
  177SLPC  C21720123   0.654   0.780   5.746 -0.1522  0.3295 -0.0763
  177SLPC  H17R20124   0.546   0.777   5.721 -0.5837  1.8804  1.3677
  177SLPC  H17S20125   0.671   0.713   5.833 -2.2558  0.3108  0.3730
  177SLPC  C21820126   0.717   0.723   5.625 -0.4567  0.6038 -0.1513
  177SLPC  H18R20127   0.695   0.782   5.534 -0.7151 -1.7145 -1.6574
  177SLPC  H18S20128   0.682   0.619   5.613 -0.0742  0.6807 -2.2015
  177SLPC  H18T20129   0.827   0.715   5.637 -0.6976 -4.7809  0.7893
  177SLPC   C3320130   1.464   1.077   7.229 -0.3341 -0.4229 -0.3133
  177SLPC   H3X20131   1.505   1.174   7.194 -1.3117 -0.6071 -2.0549
  177SLPC   H3Y20132   1.356   1.095   7.249 -0.2093 -2.2692  2.6786
  177SLPC   C3420133   1.492   0.957   7.141  0.2272 -0.7603 -0.1109
  177SLPC   H4X20134   1.422   0.878   7.174  0.1257 -0.9544 -0.7773
  177SLPC   H4Y20135   1.588   0.907   7.164 -1.2076 -3.1162  1.1353
  177SLPC   C3520136   1.486   0.970   6.992  0.5493 -0.8356 -0.1072
  177SLPC   H5X20137   1.461   0.871   6.949 -1.1194  0.2698 -1.8418
  177SLPC   H5Y20138   1.583   1.006   6.951 -0.0544 -0.2756 -1.0700
  177SLPC   C3620139   1.384   1.075   6.945  0.2911  0.0784 -0.5445
  177SLPC   H6X20140   1.433   1.172   6.969 -1.0789  0.8640 -0.8137
  177SLPC   H6Y20141   1.283   1.076   6.992  1.3328 -2.4846  2.0644
  177SLPC   C3720142   1.349   1.060   6.798  0.0623 -0.2997  0.4585
  177SLPC   H7X20143   1.283   0.971   6.788 -0.9047  0.3970  0.4986
  177SLPC   H7Y20144   1.443   1.047   6.740 -0.3115 -1.1469  0.0375
  177SLPC   C3820145   1.261   1.169   6.741  0.1438 -0.1089 -0.0437
  177SLPC   H8X20146   1.329   1.254   6.718  1.0361 -0.7732  0.0815
  177SLPC   H8Y20147   1.197   1.191   6.828  1.1154 -0.0140  0.6660
  177SLPC   C3920148   1.173   1.135   6.614 -0.2830  0.0919 -0.2007
  177SLPC   H9X20149   1.103   1.054   6.647  1.3129 -0.7550  1.2567
  177SLPC   H9Y20150   1.235   1.106   6.526  2.3775  2.4909  0.7731
  177SLPC  C31020151   1.088   1.261   6.592  0.3013 -0.1129  0.1916
  177SLPC  H10X20152   1.146   1.356   6.584 -2.8124  1.8948 -0.2848
  177SLPC  H10Y20153   1.027   1.281   6.682  2.9331 -1.7802  2.5083
  177SLPC  C31120154   1.004   1.249   6.462  0.3151  0.1254  0.0880
  177SLPC  H11X20155   0.944   1.156   6.467 -0.7908  0.7367 -1.3532
  177SLPC  H11Y20156   1.067   1.230   6.373  2.0866  1.8449  0.8911
  177SLPC  C31220157   0.908   1.365   6.419 -0.1594 -0.3642  0.2376
  177SLPC  H12X20158   0.940   1.462   6.463  0.1048 -1.0162  1.5455
  177SLPC  H12Y20159   0.813   1.335   6.469 -0.1254 -1.9588 -0.5734
  177SLPC  C31320160   0.883   1.355   6.264  0.3507 -0.2080 -0.5985
  177SLPC  H13X20161   0.841   1.253   6.247 -1.6496  0.2841  1.0202
  177SLPC  H13Y20162   0.970   1.372   6.196  0.0473 -0.3102 -1.0143
  177SLPC  C31420163   0.780   1.451   6.214 -0.2450  0.6140 -0.4546
  177SLPC  H14X20164   0.791   1.553   6.255  2.7838  0.1480  0.1446
  177SLPC  H14Y20165   0.691   1.414   6.269  1.4073 -0.6360  1.5321
  177SLPC  C31520166   0.753   1.460   6.067 -0.3500 -0.4098 -0.0912
  177SLPC  H15X20167   0.740   1.352   6.040  1.3510 -0.3585 -1.2394
  177SLPC  H15Y20168   0.848   1.490   6.017 -0.2620  2.0424  1.4093
  177SLPC  C31620169   0.638   1.547   6.020  0.3723  0.0548 -0.0837
  177SLPC  H16X20170   0.638   1.548   5.909  0.1762 -0.0889 -0.0859
  177SLPC  H16Y20171   0.660   1.650   6.054  0.9774 -0.3006  0.6392
  177SLPC  C31720172   0.504   1.511   6.071  0.2928 -0.2473 -0.0010
  177SLPC  H17X20173   0.509   1.512   6.182 -0.0323  1.0328  0.0221
  177SLPC  H17Y20174   0.472   1.409   6.043 -1.0163 -0.2668  1.4110
  177SLPC  C31820175   0.391   1.608   6.019 -0.2695 -0.3744 -0.4469
  177SLPC  H18X20176   0.397   1.604   5.908 -1.6582 -0.4511 -0.5407
  177SLPC  H18Y20177   0.406   1.709   6.061  0.0282 -0.0055 -1.3994
  177SLPC  H18Z20178   0.287   1.579   6.046 -1.2877  0.9434 -2.6285
  178SLPC     N20179   5.639   5.081   8.377 -0.0157 -0.0446 -0.3642
  178SLPC   C1320180   5.544   5.188   8.406 -0.0507  0.5931  0.1471
  178SLPC  H13A20181   5.589   5.286   8.401  1.0794  0.0342 -1.8610
  178SLPC  H13B20182   5.468   5.182   8.329 -0.3018 -1.4838  0.4956
  178SLPC  H13C20183   5.495   5.171   8.501  2.3570 -1.3606  1.1331
  178SLPC   C1420184   5.583   4.945   8.394  0.7977 -1.3916 -0.7104
  178SLPC  H14A20185   5.663   4.872   8.387  1.3774 -0.8366 -0.0745
  178SLPC  H14B20186   5.536   4.926   8.489  0.1918 -3.6281 -1.4148
  178SLPC  H14C20187   5.508   4.920   8.321  0.5942  0.6694 -1.2971
  178SLPC   C1520188   5.751   5.088   8.474  0.0754 -0.1028  0.2478
  178SLPC  H15A20189   5.802   5.183   8.474  0.0785 -0.0348 -2.5230
  178SLPC  H15B20190   5.718   5.068   8.575 -0.7575 -1.0263 -0.1906
  178SLPC  H15C20191   5.828   5.024   8.434 -0.6297  0.5554 -2.3636
  178SLPC   C1220192   5.689   5.089   8.238 -0.2210  0.0937  0.4515
  178SLPC  H12A20193   5.742   4.997   8.220  2.7365  1.1068  3.0850
  178SLPC  H12B20194   5.763   5.167   8.236  1.2557 -1.2217 -2.6447
  178SLPC   C1120195   5.591   5.101   8.121  0.1912  0.0983  0.6933
  178SLPC  H11A20196   5.658   5.111   8.034  0.0947  0.0606  0.6148
  178SLPC  H11B20197   5.525   5.190   8.123 -3.4229 -2.3312 -0.8636
  178SLPC     P20198   5.522   4.864   8.033  0.0024  0.2089 -0.1422
  178SLPC   O1320199   5.658   4.807   8.047  0.0340  0.0925 -0.1599
  178SLPC   O1420200   5.407   4.773   8.064 -0.0569 -0.3525 -0.0408
  178SLPC   O1220201   5.498   4.994   8.116 -0.3045  0.1120  0.3913
  178SLPC   O1120202   5.507   4.910   7.882 -0.2792  0.0958 -0.5583
  178SLPC    C120203   5.416   5.010   7.852  0.0019 -0.2943 -1.1653
  178SLPC    HA20204   5.325   5.011   7.915  1.3068 -2.0987  0.8766
  178SLPC    HB20205   5.462   5.110   7.871  0.8879 -0.8904 -0.0551
  178SLPC    C220206   5.363   5.000   7.705  0.4470  0.5614  0.3280
  178SLPC    HS20207   5.340   4.895   7.676 -0.9250  1.8116 -3.9708
  178SLPC   O2120208   5.472   5.035   7.624 -0.5290  0.7034  0.2608
  178SLPC   C2120209   5.491   4.986   7.503  0.4926 -0.0379 -0.0789
  178SLPC   O2220210   5.417   4.905   7.446 -0.0085  0.0316 -0.1267
  178SLPC   C2220211   5.610   5.057   7.441 -0.0969  0.2023 -0.4899
  178SLPC   H2R20212   5.567   5.134   7.373  0.2471 -1.7864 -3.1569
  178SLPC   H2S20213   5.679   5.099   7.517 -1.7125  0.9723  0.5981
  178SLPC    C320214   5.234   5.086   7.662  0.3641  0.3012  0.3785
  178SLPC    HX20215   5.250   5.192   7.692  1.1328  0.6057 -1.0371
  178SLPC    HY20216   5.141   5.068   7.720 -0.0554  3.6884  0.9979
  178SLPC   O3120217   5.208   5.093   7.517 -0.0767  0.2050 -0.0236
  178SLPC   C3120218   5.131   4.997   7.467 -0.1122  0.0226 -0.4773
  178SLPC   O3220219   5.079   4.909   7.528  0.3524  0.0051 -0.3855
  178SLPC   C3220220   5.102   5.028   7.323  0.4594  0.0386 -0.4229
  178SLPC   H2X20221   5.196   5.053   7.270  0.0595 -2.1028 -2.2861
  178SLPC   H2Y20222   5.028   5.111   7.316  0.9425  0.5814  0.6761
  178SLPC   C2320223   5.683   4.953   7.348 -0.3999  0.0140 -0.6751
  178SLPC   H3R20224   5.664   4.848   7.378 -1.2235 -0.1063 -1.5746
  178SLPC   H3S20225   5.793   4.966   7.348 -0.1651 -1.6433  0.5057
  178SLPC   C2420226   5.637   4.973   7.208 -0.2037 -0.0528  0.3292
  178SLPC   H4R20227   5.627   5.080   7.182  1.2911  0.4650  1.7142
  178SLPC   H4S20228   5.538   4.924   7.198 -0.0899  0.1258 -2.1864
  178SLPC   C2520229   5.719   4.878   7.113  0.0606  0.5117 -0.1655
  178SLPC   H5R20230   5.663   4.861   7.019 -0.5636  0.0339  0.2873
  178SLPC   H5S20231   5.732   4.780   7.164 -0.1751  0.2721 -0.5668
  178SLPC   C2620232   5.852   4.934   7.076 -0.3455  0.1428 -0.4728
  178SLPC   H6R20233   5.908   4.954   7.169 -1.5563 -0.4320  0.4053
  178SLPC   H6S20234   5.825   5.026   7.019  0.6431  1.0712  0.5236
  178SLPC   C2720235   5.938   4.857   6.970  0.3744  0.7950 -0.0151
  178SLPC   H7R20236   5.888   4.844   6.872 -0.0274  1.1176  0.1444
  178SLPC   H7S20237   5.947   4.754   7.011 -1.6595  1.2593  1.8240
  178SLPC   C2820238   6.079   4.913   6.938  0.1700  0.0995 -0.6156
  178SLPC   H8R20239   6.129   4.850   6.861  0.1396  2.6774 -2.9110
  178SLPC   H8S20240   6.141   4.904   7.029 -1.1673  1.4057  0.4768
  178SLPC   C2920241   6.074   5.058   6.892 -0.3733 -0.0424  0.0044
  178SLPC   H9R20242   6.073   5.122   6.981 -1.8824 -0.4338  0.3021
  178SLPC  C21020243   6.030   5.103   6.774 -0.1517 -0.8414  0.2505
  178SLPC  H10R20244   6.026   5.211   6.755  1.6333 -0.8784 -0.5028
  178SLPC  C21120245   5.996   5.010   6.659 -0.1072 -0.2415 -0.0142
  178SLPC  H11R20246   5.900   4.962   6.688 -0.4620  0.1171 -0.5647
  178SLPC  H11S20247   6.073   4.933   6.637 -0.7427 -0.5830 -1.1695
  178SLPC  C21220248   5.952   5.076   6.525  0.2908 -0.3543  0.0075
  178SLPC  H12R20249   5.842   5.085   6.521  0.2166 -0.9010  0.7034
  178SLPC  C21320250   6.024   5.146   6.440  0.1300  0.6651  0.0557
  178SLPC  H13R20251   5.979   5.179   6.346  2.6336 -4.2108 -3.2731
  178SLPC  C21420252   6.172   5.163   6.438 -0.4032 -0.7987 -0.4863
  178SLPC  H14R20253   6.224   5.077   6.486  0.3669  0.5597  1.2041
  178SLPC  H14S20254   6.205   5.257   6.486 -2.3181 -0.0068 -0.6066
  178SLPC  C21520255   6.233   5.169   6.292  0.7869  0.5583 -0.5160
  178SLPC  H15R20256   6.210   5.081   6.228  1.6187  1.3866 -2.0068
  178SLPC  H15S20257   6.344   5.170   6.296  0.7645  0.2118  0.3178
  178SLPC  C21620258   6.189   5.301   6.233 -0.7610  0.0704  0.1133
  178SLPC  H16R20259   6.218   5.396   6.284 -2.3108 -0.1635  1.5235
  178SLPC  H16S20260   6.078   5.309   6.234 -0.8604 -0.6905  2.3451
  178SLPC  C21720261   6.247   5.316   6.088  0.2935 -0.3831  0.2315
  178SLPC  H17R20262   6.162   5.362   6.032 -0.2142 -0.3695  1.0097
  178SLPC  H17S20263   6.254   5.212   6.049  0.2161  0.4444 -2.2085
  178SLPC  C21820264   6.375   5.397   6.082 -0.3594  0.0846 -0.1077
  178SLPC  H18R20265   6.374   5.495   6.135 -1.9093 -0.2166  0.4767
  178SLPC  H18S20266   6.404   5.428   5.979 -0.5721  3.6539  0.7732
  178SLPC  H18T20267   6.462   5.341   6.122 -0.6387  1.8743  3.3606
  178SLPC   C3320268   5.038   4.908   7.249  0.0214 -0.0360  0.3031
  178SLPC   H3X20269   4.950   4.880   7.309  0.5270 -0.6354  0.7852
  178SLPC   H3Y20270   5.111   4.824   7.243 -1.1947 -1.1625  0.9681
  178SLPC   C3420271   4.991   4.951   7.104  0.3607  0.2423  0.9487
  178SLPC   H4X20272   5.078   4.966   7.037 -1.6296  0.7625 -1.6829
  178SLPC   H4Y20273   4.925   5.039   7.120  1.5028  1.5458 -1.1663
  178SLPC   C3520274   4.899   4.842   7.042 -0.3909  0.2863 -0.2615
  178SLPC   H5X20275   4.821   4.800   7.110 -0.0249 -2.2156 -1.2731
  178SLPC   H5Y20276   4.958   4.749   7.025 -1.6221 -1.5176  4.0526
  178SLPC   C3620277   4.835   4.896   6.914 -0.0168  0.1007 -0.2367
  178SLPC   H6X20278   4.918   4.930   6.849  1.1079 -0.7044  0.7415
  178SLPC   H6Y20279   4.774   4.984   6.942 -0.8251 -0.2051 -1.0035
  178SLPC   C3720280   4.755   4.793   6.838  1.2490  1.1973  0.1764
  178SLPC   H7X20281   4.686   4.734   6.901 -0.8717  0.8038 -2.3836
  178SLPC   H7Y20282   4.824   4.717   6.795 -2.1447 -0.5680 -2.5699
  178SLPC   C3820283   4.673   4.860   6.720 -0.1348  0.3589 -0.2411
  178SLPC   H8X20284   4.598   4.933   6.757  0.0839  0.4343  0.0636
  178SLPC   H8Y20285   4.606   4.786   6.672 -1.4164  1.5927 -0.3952
  178SLPC   C3920286   4.757   4.929   6.609  0.0013  0.3227  0.0194
  178SLPC   H9X20287   4.856   4.880   6.600  0.3225  1.0520 -0.4161
  178SLPC   H9Y20288   4.774   5.033   6.642  2.3563 -0.2978  0.9845
  178SLPC  C31020289   4.699   4.919   6.471  0.2810 -0.4136  0.6950
  178SLPC  H10X20290   4.590   4.937   6.482 -0.0206 -2.4243  1.4490
  178SLPC  H10Y20291   4.724   4.817   6.435 -0.2358  0.1688 -1.5057
  178SLPC  C31120292   4.766   5.018   6.370 -0.7944  0.8634  0.2063
  178SLPC  H11X20293   4.768   5.125   6.397 -1.6155  1.3472 -1.5604
  178SLPC  H11Y20294   4.704   5.009   6.278  0.5665 -2.8898 -0.5264
  178SLPC  C31220295   4.904   4.973   6.320 -0.8424  0.0474 -0.3278
  178SLPC  H12X20296   4.892   4.868   6.287 -2.9371 -0.1702  0.9398
  178SLPC  H12Y20297   4.978   4.962   6.402 -1.4532 -2.4135 -0.0080
  178SLPC  C31320298   4.956   5.054   6.209  1.2190 -0.2145  0.5177
  178SLPC  H13X20299   4.940   5.161   6.233  1.0083  0.0564 -0.7619
  178SLPC  H13Y20300   4.897   5.044   6.116  1.5384 -0.7574  0.3682
  178SLPC  C31420301   5.110   5.024   6.192  0.5189 -0.2935  0.6370
  178SLPC  H14X20302   5.126   4.915   6.181 -0.8003 -0.7175  2.3758
  178SLPC  H14Y20303   5.163   5.051   6.286  1.3500  1.4023 -0.2696
  178SLPC  C31520304   5.169   5.086   6.059 -0.3403  0.4188 -0.1288
  178SLPC  H15X20305   5.280   5.075   6.063 -0.1516  1.9104 -0.4609
  178SLPC  H15Y20306   5.154   5.196   6.059  1.8387  0.7712  0.3652
  178SLPC  C31620307   5.113   5.020   5.929 -0.0193 -0.0574  0.0136
  178SLPC  H16X20308   5.002   5.026   5.926  0.0058 -0.0336 -1.3346
  178SLPC  H16Y20309   5.128   4.911   5.942 -0.2655 -0.2352 -1.0708
  178SLPC  C31720310   5.165   5.091   5.799 -0.0506  0.2450 -0.2648
  178SLPC  H17X20311   5.143   5.198   5.820  1.3993  0.4473  0.3943
  178SLPC  H17Y20312   5.121   5.041   5.710 -0.3197  0.6614 -0.3723
  178SLPC  C31820313   5.320   5.084   5.782 -0.1779  0.6513 -0.0922
  178SLPC  H18X20314   5.349   5.114   5.678 -3.5114 -3.8401 -2.6894
  178SLPC  H18Y20315   5.351   4.978   5.785 -0.3552  0.6141  0.3828
  178SLPC  H18Z20316   5.382   5.134   5.859  0.9875 -2.8918  1.4244
  179SLPC     N20317   1.344   6.178   3.448 -0.4631  0.2981 -0.2116
  179SLPC   C1320318   1.439   6.110   3.352  0.1008  0.1586  0.0443
  179SLPC  H13A20319   1.411   6.010   3.325 -1.0453 -0.1762  2.2608
  179SLPC  H13B20320   1.450   6.168   3.261  1.4208  0.8588  0.6062
  179SLPC  H13C20321   1.535   6.099   3.401  2.0123  2.1003 -2.9314
  179SLPC   C1420322   1.222   6.229   3.376  0.0532  0.4278  0.1082
  179SLPC  H14A20323   1.251   6.279   3.285  1.4803  1.5441  1.1197
  179SLPC  H14B20324   1.153   6.147   3.360 -0.8448  1.6858 -3.0234
  179SLPC  H14C20325   1.167   6.302   3.433  1.0810  0.5919  0.9285
  179SLPC   C1520326   1.423   6.295   3.497 -0.0625  0.1046  0.6049
  179SLPC  H15A20327   1.362   6.365   3.552  1.7232  2.6197 -0.4836
  179SLPC  H15B20328   1.511   6.259   3.548 -0.3336 -1.4314  0.0575
  179SLPC  H15C20329   1.454   6.352   3.412  1.0328 -0.4523  0.6044
  179SLPC   C1220330   1.317   6.090   3.567 -0.0483 -0.0310 -0.6890
  179SLPC  H12A20331   1.407   6.057   3.616 -0.4911 -0.0867  0.0907
  179SLPC  H12B20332   1.276   5.995   3.537  1.9103 -0.9772 -0.5173
  179SLPC   C1120333   1.227   6.145   3.673  0.5610  0.5031  0.2350
  179SLPC  H11A20334   1.252   6.251   3.696 -1.0432  0.4733  2.4700
  179SLPC  H11B20335   1.238   6.084   3.765  1.5997 -2.0802 -1.5096
  179SLPC     P20336   0.997   6.041   3.586 -0.2568  0.3351  0.0981
  179SLPC   O1320337   0.989   6.042   3.436 -0.4135  0.0238 -0.2012
  179SLPC   O1420338   1.032   5.917   3.659 -0.0269  0.4397 -0.4329
  179SLPC   O1220339   1.093   6.156   3.631 -0.3298 -0.3467 -1.1145
  179SLPC   O1120340   0.856   6.080   3.634  0.4687  0.1672 -0.2635
  179SLPC    C120341   0.827   6.144   3.760  0.4504  0.2444 -0.2691
  179SLPC    HA20342   0.915   6.198   3.800  1.0673 -0.7286 -0.2936
  179SLPC    HB20343   0.754   6.224   3.737  2.0040  2.0791  0.9065
  179SLPC    C220344   0.762   6.047   3.860  1.0067 -1.6149  0.1288
  179SLPC    HS20345   0.725   6.117   3.938  1.5289  0.2151 -1.1831
  179SLPC   O2120346   0.858   5.960   3.923 -0.8615  0.0093 -0.1199
  179SLPC   C2120347   0.932   6.020   4.015 -0.6111  0.3185  0.2298
  179SLPC   O2220348   0.921   6.132   4.058  0.2906  0.1291  0.0419
  179SLPC   C2220349   1.043   5.918   4.057  0.4316 -0.1142 -0.2265
  179SLPC   H2R20350   0.998   5.818   4.078  1.0362  0.0720  2.1340
  179SLPC   H2S20351   1.115   5.904   3.973  0.2247 -2.8977 -0.0498
  179SLPC    C320352   0.648   5.963   3.801 -0.0688  0.0118 -0.3631
  179SLPC    HX20353   0.671   5.925   3.700 -1.2835  1.7582 -1.3581
  179SLPC    HY20354   0.563   6.031   3.778 -1.6144 -0.9101  2.1004
  179SLPC   O3120355   0.602   5.861   3.894  0.2417 -0.3222 -0.0072
  179SLPC   C3120356   0.530   5.918   3.997  0.3458 -0.1350  0.3539
  179SLPC   O3220357   0.480   6.027   4.001 -0.1153  0.1883  0.4054
  179SLPC   C3220358   0.530   5.810   4.113  0.3717 -0.1319  0.5003
  179SLPC   H2X20359   0.622   5.748   4.108  0.6642  0.3145  0.2212
  179SLPC   H2Y20360   0.448   5.745   4.075  0.8607  0.8256 -2.4905
  179SLPC   C2320361   1.111   5.947   4.192 -0.1831  0.0872 -0.3883
  179SLPC   H3R20362   1.168   6.042   4.185  1.8349 -0.9131  1.2983
  179SLPC   H3S20363   1.186   5.866   4.209 -0.6211  0.1209  2.1138
  179SLPC   C2420364   1.036   5.955   4.327  0.3360  0.4756  0.0283
  179SLPC   H4R20365   0.962   5.873   4.318 -0.4049  0.9743  1.2225
  179SLPC   H4S20366   0.997   6.059   4.335  2.1520  1.2662 -0.8348
  179SLPC   C2520367   1.127   5.948   4.446 -1.0232 -0.3069 -0.7367
  179SLPC   H5R20368   1.210   6.020   4.427  1.4267 -2.2433  1.6687
  179SLPC   H5S20369   1.176   5.849   4.452  1.5077  0.6934 -2.9277
  179SLPC   C2620370   1.059   5.980   4.579 -0.0466  0.3458 -0.6036
  179SLPC   H6R20371   0.975   5.907   4.589 -0.7181  1.0086 -1.2731
  179SLPC   H6S20372   0.999   6.072   4.594 -1.0094 -0.5882  2.0176
  179SLPC   C2720373   1.151   5.966   4.700  0.3839  0.0602  0.1503
  179SLPC   H7R20374   1.216   6.056   4.708 -0.0170  0.4542 -0.8539
  179SLPC   H7S20375   1.216   5.877   4.685 -0.1521 -0.3508  0.2159
  179SLPC   C2820376   1.086   5.952   4.839  0.1574  0.1606 -0.2711
  179SLPC   H8R20377   1.171   5.936   4.910  0.4118 -2.1155 -0.9923
  179SLPC   H8S20378   1.027   5.858   4.833  1.0990 -0.4507 -0.2487
  179SLPC   C2920379   1.006   6.073   4.875 -0.0769 -0.4915  0.0091
  179SLPC   H9R20380   0.952   6.127   4.796  1.0302 -1.6290 -1.5808
  179SLPC  C21020381   0.988   6.118   5.003  0.1727  0.6000 -0.5904
  179SLPC  H10R20382   0.927   6.210   5.012 -1.5041 -0.1266 -3.2784
  179SLPC  C21120383   1.042   6.057   5.131 -0.3738 -0.7273 -0.1326
  179SLPC  H11R20384   1.053   6.133   5.211  0.9183 -3.0261  1.9905
  179SLPC  H11S20385   1.142   6.011   5.117  1.1783  1.9029  1.3313
  179SLPC  C21220386   0.949   5.952   5.182 -0.2610 -0.0737  0.1629
  179SLPC  H12R20387   0.954   5.855   5.130  0.9508 -0.2638  0.5880
  179SLPC  C21320388   0.859   5.977   5.271 -0.2781 -0.6332 -0.2072
  179SLPC  H13R20389   0.794   5.894   5.304 -0.1053 -2.1035 -3.2033
  179SLPC  C21420390   0.838   6.110   5.342  0.1150  0.4359  1.1093
  179SLPC  H14R20391   0.863   6.198   5.278 -0.9122 -0.3278 -0.4160
  179SLPC  H14S20392   0.904   6.103   5.431  0.9152 -1.6431  0.4135
  179SLPC  C21520393   0.690   6.125   5.387  0.0866  0.0424 -0.0103
  179SLPC  H15R20394   0.646   6.031   5.427 -0.9018  0.7712  0.6805
  179SLPC  H15S20395   0.630   6.146   5.295 -1.0258  0.8324  0.8641
  179SLPC  C21620396   0.673   6.229   5.502  0.4173 -0.2867 -0.6893
  179SLPC  H16R20397   0.732   6.196   5.590 -1.6077  0.1492  0.9137
  179SLPC  H16S20398   0.564   6.229   5.525  0.4763  2.2901 -0.0653
  179SLPC  C21720399   0.716   6.366   5.456  0.4013  0.6711  0.1288
  179SLPC  H17R20400   0.652   6.390   5.369 -0.5541 -0.0563  0.6115
  179SLPC  H17S20401   0.821   6.368   5.420  0.6218 -0.5865  0.6610
  179SLPC  C21820402   0.695   6.469   5.570 -1.0288  0.3691  0.5224
  179SLPC  H18R20403   0.713   6.416   5.666  0.1884 -1.7563 -0.7832
  179SLPC  H18S20404   0.593   6.512   5.567 -0.9577  0.7225  2.3026
  179SLPC  H18T20405   0.772   6.548   5.557 -0.2582 -0.6054 -1.3972
  179SLPC   C3320406   0.528   5.877   4.258 -0.1465  0.0590 -0.2288
  179SLPC   H3X20407   0.437   5.939   4.270 -1.6882 -2.1246 -0.1084
  179SLPC   H3Y20408   0.615   5.944   4.272 -1.4402  1.8163 -0.2682
  179SLPC   C3420409   0.511   5.769   4.364  0.7671  0.4287  0.2724
  179SLPC   H4X20410   0.589   5.691   4.353  1.0122  0.8908 -1.5999
  179SLPC   H4Y20411   0.426   5.704   4.335  2.4698  0.0222 -4.7939
  179SLPC   C3520412   0.513   5.833   4.502  0.2436  0.1668 -0.3338
  179SLPC   H5X20413   0.569   5.764   4.568 -0.0675 -0.2358 -0.4852
  179SLPC   H5Y20414   0.563   5.933   4.507  0.4600  0.0593 -0.3090
  179SLPC   C3620415   0.378   5.862   4.563 -0.5232  0.5429 -0.1783
  179SLPC   H6X20416   0.310   5.777   4.544  0.4837 -0.1294 -0.8850
  179SLPC   H6Y20417   0.332   5.951   4.515 -0.8187  1.8324  2.3492
  179SLPC   C3720418   0.375   5.904   4.716 -0.4830  0.1166  0.2322
  179SLPC   H7X20419   0.424   6.004   4.712  1.3602 -0.7752 -1.9456
  179SLPC   H7Y20420   0.436   5.831   4.775 -0.7292 -1.0942 -0.9718
  179SLPC   C3820421   0.230   5.916   4.770 -0.1265  0.0883 -0.5937
  179SLPC   H8X20422   0.164   5.834   4.735 -2.1212  0.8815  1.0601
  179SLPC   H8Y20423   0.192   6.008   4.720  0.3622  0.3796 -0.4346
  179SLPC   C3920424   0.225   5.937   4.922  0.1604 -0.0887 -0.5576
  179SLPC   H9X20425   0.123   5.970   4.950 -0.0848 -1.6965  0.6071
  179SLPC   H9Y20426   0.296   6.020   4.939  0.6604 -0.6851  0.3347
  179SLPC  C31020427   0.244   5.813   5.011  1.0042  0.3923 -0.8194
  179SLPC  H10X20428   0.347   5.777   4.994  1.2747  1.5551 -1.7950
  179SLPC  H10Y20429   0.177   5.727   4.991  2.4936 -1.0772  0.2710
  179SLPC  C31120430   0.212   5.845   5.165 -0.4000 -0.3616  0.4099
  179SLPC  H11X20431   0.228   5.750   5.222  0.2571  0.2519  1.2802
  179SLPC  H11Y20432   0.103   5.864   5.171 -0.2792  0.1217  1.3132
  179SLPC  C31220433   0.299   5.954   5.236  0.2144 -0.2192  0.3386
  179SLPC  H12X20434   0.297   6.046   5.174  1.8982  1.0556  2.0702
  179SLPC  H12Y20435   0.405   5.921   5.238  0.1482 -0.4587  0.0362
  179SLPC  C31320436   0.236   5.976   5.372 -0.2769 -0.0744 -0.8173
  179SLPC  H13X20437   0.234   5.881   5.430 -0.3705  0.7192  0.5023
  179SLPC  H13Y20438   0.127   5.990   5.355 -0.5629 -1.0611  0.1024
  179SLPC  C31420439   0.314   6.094   5.440 -0.3082 -0.2827  0.6026
  179SLPC  H14X20440   0.341   6.165   5.360 -0.7102 -0.9069 -0.0964
  179SLPC  H14Y20441   0.406   6.046   5.481 -0.0252  0.5097  0.9079
  179SLPC  C31520442   0.236   6.149   5.566  0.2708  0.4503  0.8485
  179SLPC  H15X20443   0.130   6.146   5.533  0.8530  1.1946 -1.2442
  179SLPC  H15Y20444   0.255   6.258   5.574  1.5873  0.3561 -0.4790
  179SLPC  C31620445   0.261   6.076   5.699 -0.5206 -0.6780 -0.0389
  179SLPC  H16X20446   0.248   5.967   5.684  2.3794 -1.0356 -0.5158
  179SLPC  H16Y20447   0.205   6.121   5.784  2.6067  3.3619  0.1919
  179SLPC  C31720448   0.394   6.103   5.764 -0.7063 -0.1332  0.4142
  179SLPC  H17X20449   0.418   6.211   5.769  1.5254 -0.5061 -0.9917
  179SLPC  H17Y20450   0.474   6.060   5.701 -0.5048 -1.7278  1.6911
  179SLPC  C31820451   0.398   6.027   5.902 -0.2022 -0.9194  0.6791
  179SLPC  H18X20452   0.348   6.090   5.979 -0.4714  1.6114 -1.4246
  179SLPC  H18Y20453   0.503   6.004   5.931  0.3297  1.0901  0.4796
  179SLPC  H18Z20454   0.343   5.931   5.891 -1.3574 -0.3039  0.9359
  180SLPC     N20455   2.481   0.975   3.181  0.1470 -0.9649  0.0200
  180SLPC   C1320456   2.444   0.853   3.101  0.0976 -0.1442  0.1161
  180SLPC  H13A20457   2.338   0.837   3.102  0.3131 -1.7418  0.7792
  180SLPC  H13B20458   2.467   0.866   2.996 -0.9183  1.7678  0.0851
  180SLPC  H13C20459   2.493   0.761   3.127 -1.7070 -2.2445 -3.2092
  180SLPC   C1420460   2.391   1.086   3.141  0.0426  0.3393 -0.6013
  180SLPC  H14A20461   2.287   1.067   3.163 -0.5387  2.1198 -1.6160
  180SLPC  H14B20462   2.423   1.178   3.189 -0.0897  0.0840 -0.0194
  180SLPC  H14C20463   2.403   1.115   3.037  0.9948  0.8557 -0.3602
  180SLPC   C1520464   2.621   1.020   3.153 -0.1757  0.8048 -0.1174
  180SLPC  H15A20465   2.693   0.940   3.166  1.2789  1.9544 -0.7775
  180SLPC  H15B20466   2.630   1.052   3.050  0.6879  0.8484 -0.0383
  180SLPC  H15C20467   2.648   1.104   3.216 -1.0304  1.4112 -0.5390
  180SLPC   C1220468   2.469   0.946   3.330  0.4651  0.0189  0.6533
  180SLPC  H12A20469   2.488   1.039   3.381  3.8529  0.7471 -1.5753
  180SLPC  H12B20470   2.552   0.878   3.345  1.8280  1.2021 -1.0768
  180SLPC   C1120471   2.349   0.870   3.387  0.4712 -0.2811 -1.1604
  180SLPC  H11A20472   2.257   0.923   3.355  0.3243  0.3291  0.2448
  180SLPC  H11B20473   2.349   0.876   3.498 -0.4466  0.4988 -1.1864
  180SLPC     P20474   2.232   0.648   3.372 -0.0905  0.0671  0.2729
  180SLPC   O1320475   2.114   0.727   3.330 -0.3907  0.5813 -0.8460
  180SLPC   O1420476   2.259   0.527   3.297 -0.1472 -0.0967 -0.2436
  180SLPC   O1220477   2.354   0.733   3.350  0.1605 -0.3432 -0.2351
  180SLPC   O1120478   2.237   0.615   3.526 -0.1794  0.0730  0.1745
  180SLPC    C120479   2.121   0.561   3.600 -0.1106  0.7617  0.5042
  180SLPC    HA20480   2.044   0.520   3.532 -0.4947  1.2974  0.6084
  180SLPC    HB20481   2.158   0.483   3.670 -0.8031 -0.4253 -0.4151
  180SLPC    C220482   2.061   0.679   3.679  0.3777 -0.1113  0.1812
  180SLPC    HS20483   2.012   0.743   3.602 -0.1864  0.3511  0.9080
  180SLPC   O2120484   2.166   0.747   3.749 -0.2883 -0.0298 -0.0978
  180SLPC   C2120485   2.173   0.874   3.740 -0.5349 -0.1968  0.5843
  180SLPC   O2220486   2.121   0.947   3.656  0.5394 -0.1848 -0.1876
  180SLPC   C2220487   2.262   0.928   3.858  0.9847 -0.3159  0.4405
  180SLPC   H2R20488   2.260   0.867   3.950 -2.3577 -1.3537 -0.2064
  180SLPC   H2S20489   2.364   0.938   3.814  0.2538  2.7476 -0.8191
  180SLPC    C320490   1.951   0.631   3.779 -0.0245 -0.0526  0.3072
  180SLPC    HX20491   1.979   0.582   3.875 -1.7739 -0.9077  0.4198
  180SLPC    HY20492   1.898   0.555   3.718  2.2157 -1.4860  0.0267
  180SLPC   O3120493   1.856   0.738   3.800 -0.0648  0.2718  0.4563
  180SLPC   C3120494   1.880   0.809   3.906 -0.3260 -0.8381  0.3935
  180SLPC   O3220495   1.981   0.797   3.974  0.0013  0.0225 -1.1161
  180SLPC   C3220496   1.769   0.908   3.925  0.0009  0.8335 -0.2122
  180SLPC   H2X20497   1.672   0.859   3.901 -0.5881  1.3980  0.9510
  180SLPC   H2Y20498   1.775   0.980   3.841 -0.8394  1.1518 -0.0044
  180SLPC   C2320499   2.214   1.070   3.906  0.4885 -0.1773  0.2802
  180SLPC   H3R20500   2.118   1.061   3.961 -0.3750  1.6326 -0.8639
  180SLPC   H3S20501   2.207   1.155   3.835  1.4581  0.1706  0.5813
  180SLPC   C2420502   2.309   1.133   4.010 -0.4611 -0.1861  0.0369
  180SLPC   H4R20503   2.410   1.145   3.967  0.1644 -0.9112  1.2592
  180SLPC   H4S20504   2.336   1.057   4.086 -2.6840  0.3109  1.4272
  180SLPC   C2520505   2.252   1.251   4.085 -0.1318 -0.7122 -0.8451
  180SLPC   H5R20506   2.146   1.230   4.111 -0.1792 -0.1989 -0.6082
  180SLPC   H5S20507   2.270   1.345   4.030 -1.1417  0.3774  0.6073
  180SLPC   C2620508   2.321   1.274   4.225  0.4420 -0.1432 -0.3924
  180SLPC   H6R20509   2.428   1.299   4.207  0.2798 -0.1772 -1.4657
  180SLPC   H6S20510   2.315   1.179   4.283  1.7943 -0.4147 -0.6438
  180SLPC   C2720511   2.265   1.393   4.310  0.5562 -0.1373  0.2661
  180SLPC   H7R20512   2.159   1.373   4.336  1.2205 -1.5370  2.1876
  180SLPC   H7S20513   2.260   1.474   4.235  0.3192  0.1234  0.5620
  180SLPC   C2820514   2.341   1.429   4.440 -0.8261 -0.4886  0.0361
  180SLPC   H8R20515   2.295   1.527   4.465 -0.3715 -0.4522  0.7677
  180SLPC   H8S20516   2.443   1.455   4.403 -2.2139  0.8692 -3.1956
  180SLPC   C2920517   2.335   1.317   4.545  0.2101 -0.2245  0.3773
  180SLPC   H9R20518   2.296   1.220   4.510 -1.0290  0.7741 -1.1254
  180SLPC  C21020519   2.387   1.331   4.665  0.7203  0.3730 -0.4702
  180SLPC  H10R20520   2.380   1.256   4.744  0.7293  1.4397  0.5744
  180SLPC  C21120521   2.448   1.464   4.705  0.7202 -0.3313  1.1469
  180SLPC  H11R20522   2.376   1.546   4.687 -0.5452 -1.3961  1.2215
  180SLPC  H11S20523   2.532   1.479   4.633  0.8936 -1.3791  1.1012
  180SLPC  C21220524   2.499   1.485   4.844  0.4865  0.3724 -1.3941
  180SLPC  H12R20525   2.597   1.438   4.859 -0.5244 -1.6553 -0.7418
  180SLPC  C21320526   2.440   1.556   4.944 -1.1796 -0.1885 -0.4029
  180SLPC  H13R20527   2.492   1.566   5.040 -0.6462  0.9850 -0.7981
  180SLPC  C21420528   2.302   1.608   4.935 -0.2444 -0.3465  0.6337
  180SLPC  H14R20529   2.245   1.572   4.847 -0.8253  2.4295 -0.2331
  180SLPC  H14S20530   2.296   1.719   4.927  1.6858 -0.2358  0.3226
  180SLPC  C21520531   2.217   1.567   5.061 -0.2229  0.1114  0.0566
  180SLPC  H15R20532   2.196   1.458   5.056 -1.8146  0.3258  1.2471
  180SLPC  H15S20533   2.116   1.610   5.044 -0.7786  0.2573  3.2180
  180SLPC  C21620534   2.262   1.615   5.195  0.2242 -0.3485  0.2813
  180SLPC  H16R20535   2.354   1.560   5.225 -1.6104 -3.5804  0.3957
  180SLPC  H16S20536   2.194   1.593   5.281 -1.7633  1.7599 -0.6562
  180SLPC  C21720537   2.301   1.770   5.205 -0.3200 -0.2797  0.1042
  180SLPC  H17R20538   2.211   1.835   5.205 -1.0259 -1.2229 -0.4601
  180SLPC  H17S20539   2.373   1.803   5.127 -0.2234 -0.0672  0.2836
  180SLPC  C21820540   2.383   1.800   5.333  0.1146  0.2943  0.5629
  180SLPC  H18R20541   2.464   1.725   5.340  0.4159  0.5251 -0.3341
  180SLPC  H18S20542   2.320   1.786   5.424 -0.5724 -1.8621 -0.1803
  180SLPC  H18T20543   2.429   1.901   5.334 -0.7872  0.7278  1.9384
  180SLPC   C3320544   1.755   0.983   4.056 -0.0132 -0.4349  0.2061
  180SLPC   H3X20545   1.670   1.053   4.046  2.2139  2.2037 -1.8722
  180SLPC   H3Y20546   1.837   1.052   4.084 -0.7492 -0.0105  1.3711
  180SLPC   C3420547   1.735   0.885   4.168  0.3609  0.9869 -0.3148
  180SLPC   H4X20548   1.817   0.811   4.180  0.9018  1.7762  1.0053
  180SLPC   H4Y20549   1.640   0.827   4.162  1.4803 -1.0884  0.8931
  180SLPC   C3520550   1.734   0.961   4.302 -0.5024  0.7734 -0.6037
  180SLPC   H5X20551   1.661   1.044   4.286 -0.4463  1.3811  1.8688
  180SLPC   H5Y20552   1.834   1.008   4.314  0.0870 -0.9807  2.9861
  180SLPC   C3620553   1.701   0.876   4.428 -0.0494  0.2104 -0.2876
  180SLPC   H6X20554   1.779   0.798   4.439 -0.6757 -0.5404 -0.9972
  180SLPC   H6Y20555   1.602   0.834   4.397  0.4021 -0.2025 -1.2046
  180SLPC   C3720556   1.683   0.969   4.552 -0.2603 -0.6337  0.5933
  180SLPC   H7X20557   1.606   1.046   4.528  0.2237 -0.9540 -2.2581
  180SLPC   H7Y20558   1.778   1.011   4.589 -1.5137 -0.0538  3.4813
  180SLPC   C3820559   1.654   0.887   4.682  0.2539  0.3989  0.1426
  180SLPC   H8X20560   1.749   0.842   4.716  0.1917  1.6721  2.1946
  180SLPC   H8Y20561   1.578   0.807   4.673 -2.6080  2.9720 -0.2703
  180SLPC   C3920562   1.607   0.984   4.795 -0.4392  0.1597  0.3500
  180SLPC   H9X20563   1.503   1.023   4.795 -0.6736 -0.2811  2.7393
  180SLPC   H9Y20564   1.680   1.067   4.776  1.9127 -1.9345 -0.2825
  180SLPC  C31020565   1.628   0.915   4.934  0.2395 -0.6459  0.5389
  180SLPC  H10X20566   1.607   0.992   5.011 -1.8611  0.5295 -1.1179
  180SLPC  H10Y20567   1.737   0.897   4.947  0.4221 -0.3924 -0.5502
  180SLPC  C31120568   1.543   0.784   4.949 -0.2419  0.2279 -0.0719
  180SLPC  H11X20569   1.545   0.713   4.863  0.2757  1.5602 -1.1845
  180SLPC  H11Y20570   1.436   0.811   4.955 -0.1334  0.8726 -0.9410
  180SLPC  C31220571   1.593   0.701   5.065  0.3268 -0.0058  0.2423
  180SLPC  H12X20572   1.576   0.766   5.154 -1.0352 -0.3394  0.2582
  180SLPC  H12Y20573   1.702   0.679   5.069  0.2400 -0.8768 -1.3625
  180SLPC  C31320574   1.505   0.574   5.079 -0.0411  0.2907  0.5385
  180SLPC  H13X20575   1.524   0.505   4.993 -0.3055  3.1493 -1.9713
  180SLPC  H13Y20576   1.399   0.601   5.060  0.9790  2.9816 -2.1620
  180SLPC  C31420577   1.540   0.498   5.197 -0.2278 -0.0012 -0.4310
  180SLPC  H14X20578   1.650   0.493   5.212  0.1633  1.3755 -2.3569
  180SLPC  H14Y20579   1.521   0.390   5.177  1.2869 -0.0455 -1.8629
  180SLPC  C31520580   1.487   0.564   5.330  0.1550  0.1806  0.0894
  180SLPC  H15X20581   1.379   0.579   5.310  0.5305 -0.3535 -2.7707
  180SLPC  H15Y20582   1.532   0.666   5.329 -0.5053  0.5009 -1.6072
  180SLPC  C31620583   1.492   0.468   5.443  0.2417 -0.0712 -0.4979
  180SLPC  H16X20584   1.587   0.412   5.453 -0.6001 -1.2394  1.3394
  180SLPC  H16Y20585   1.418   0.385   5.436 -0.9795  0.8201  1.1212
  180SLPC  C31720586   1.459   0.542   5.581 -0.2137 -1.1971 -0.8669
  180SLPC  H17X20587   1.360   0.593   5.573  0.0827 -0.7210 -1.7635
  180SLPC  H17Y20588   1.521   0.634   5.593 -2.4825  0.1646  1.1642
  180SLPC  C31820589   1.463   0.449   5.703  0.4888 -0.2052 -0.0791
  180SLPC  H18X20590   1.476   0.502   5.799 -1.6600 -0.6275  0.4954
  180SLPC  H18Y20591   1.529   0.361   5.685  1.8305  0.9315 -0.8620
  180SLPC  H18Z20592   1.362   0.403   5.705  0.7959 -0.9325  2.5184
  181SLPC     N20593   0.299   1.276   3.439  0.2036 -0.6348  0.1490
  181SLPC   C1320594   0.314   1.129   3.455 -0.2021 -0.8998  0.3434
  181SLPC  H13A20595   0.213   1.093   3.440 -0.1847 -0.8395  0.0777
  181SLPC  H13B20596   0.380   1.090   3.379 -2.7787  1.5676 -3.5670
  181SLPC  H13C20597   0.337   1.106   3.558 -0.0746 -2.0827  0.0619
  181SLPC   C1420598   0.181   1.314   3.519  0.3427 -0.7298  0.5060
  181SLPC  H14A20599   0.142   1.412   3.494  0.9691 -0.0907  1.8939
  181SLPC  H14B20600   0.102   1.242   3.526  1.1647 -1.5265  2.2796
  181SLPC  H14C20601   0.219   1.323   3.620  1.4736  0.2545  0.0255
  181SLPC   C1520602   0.283   1.317   3.299 -0.1285 -0.4837 -0.0587
  181SLPC  H15A20603   0.367   1.294   3.235 -0.1736  0.5894 -0.5302
  181SLPC  H15B20604   0.193   1.292   3.244  1.0364  0.5923 -2.6488
  181SLPC  H15C20605   0.272   1.425   3.298  0.8907 -0.2857  2.7099
  181SLPC   C1220606   0.428   1.342   3.489  0.5886  0.3569 -0.0093
  181SLPC  H12A20607   0.417   1.448   3.474 -0.7584  0.4123  1.1016
  181SLPC  H12B20608   0.512   1.305   3.432  1.8511  1.8056  0.8145
  181SLPC   C1120609   0.465   1.313   3.638 -0.4547 -0.0839  0.4392
  181SLPC  H11A20610   0.571   1.344   3.650 -0.3474 -0.2829  0.0403
  181SLPC  H11B20611   0.472   1.202   3.650  1.2745 -0.0272  0.2149
  181SLPC     P20612   0.392   1.529   3.769 -0.0779  0.4796 -0.3027
  181SLPC   O1320613   0.443   1.598   3.649  0.4636 -0.5016  0.7099
  181SLPC   O1420614   0.265   1.579   3.828 -0.5919 -0.0275 -0.3626
  181SLPC   O1220615   0.378   1.375   3.735  0.1879 -0.7323  0.2018
  181SLPC   O1120616   0.509   1.531   3.874 -0.2903 -0.2266  0.2667
  181SLPC    C120617   0.500   1.469   4.001  0.2675  0.2612 -0.2406
  181SLPC    HA20618   0.527   1.543   4.079 -0.2699 -0.1805  0.3815
  181SLPC    HB20619   0.401   1.431   4.033  0.7242 -0.0960  0.8063
  181SLPC    C220620   0.593   1.339   4.014 -0.4408 -0.4469 -0.0596
  181SLPC    HS20621   0.572   1.274   3.926  1.0302 -0.9269 -0.0843
  181SLPC   O2120622   0.564   1.273   4.135 -0.0517  0.2840 -0.6598
  181SLPC   C2120623   0.604   1.142   4.144 -0.1454  0.1518 -0.3101
  181SLPC   O2220624   0.664   1.081   4.057 -0.3705 -0.7929  0.0215
  181SLPC   C2220625   0.556   1.087   4.274  0.5624  0.0899  0.1638
  181SLPC   H2R20626   0.621   1.124   4.357  1.4389  0.2755 -0.5936
  181SLPC   H2S20627   0.455   1.130   4.292 -0.8671 -2.9914  0.0770
  181SLPC    C320628   0.753   1.377   3.989  0.1122 -0.0328 -0.7420
  181SLPC    HX20629   0.762   1.415   3.885  0.2465 -2.8863 -1.8659
  181SLPC    HY20630   0.810   1.282   3.992 -1.2941 -0.9156 -1.1883
  181SLPC   O3120631   0.803   1.483   4.082 -0.0312 -0.3650 -0.0084
  181SLPC   C3120632   0.839   1.438   4.203 -0.1592 -0.2881  0.2997
  181SLPC   O3220633   0.838   1.322   4.238  0.3238 -0.1892  0.7202
  181SLPC   C3220634   0.875   1.560   4.293 -0.0027  0.1109  0.7796
  181SLPC   H2X20635   0.804   1.636   4.254  0.4970  0.7629  1.1085
  181SLPC   H2Y20636   0.974   1.601   4.263 -0.0447 -0.6681 -0.4879
  181SLPC   C2320637   0.542   0.933   4.269  0.0122  0.3955 -1.3885
  181SLPC   H3R20638   0.635   0.895   4.316 -0.4590  1.5272  0.5675
  181SLPC   H3S20639   0.524   0.887   4.170 -2.6684  2.0259 -1.7726
  181SLPC   C2420640   0.438   0.873   4.370 -0.1805 -0.2811  0.5097
  181SLPC   H4R20641   0.453   0.763   4.375  1.4555 -0.3041 -2.2184
  181SLPC   H4S20642   0.334   0.884   4.331 -0.5530 -1.0740  1.2544
  181SLPC   C2520643   0.437   0.935   4.505  0.2485 -0.0025 -0.5083
  181SLPC   H5R20644   0.394   1.038   4.509  0.0121 -0.1276  0.4471
  181SLPC   H5S20645   0.537   0.938   4.552  0.5478  1.9273 -1.1948
  181SLPC   C2620646   0.342   0.854   4.599 -0.1307 -0.9921  0.1897
  181SLPC   H6R20647   0.365   0.746   4.604  3.7388 -0.2462  1.7930
  181SLPC   H6S20648   0.242   0.887   4.562 -0.2940 -0.4107  1.1274
  181SLPC   C2720649   0.347   0.895   4.744  0.3636  0.4947  0.3275
  181SLPC   H7R20650   0.362   1.004   4.756  1.3084  0.3960  0.1166
  181SLPC   H7S20651   0.449   0.867   4.777 -0.0063 -0.1259  0.9691
  181SLPC   C2820652   0.252   0.828   4.842  0.4343  0.1025  0.1168
  181SLPC   H8R20653   0.274   0.719   4.835  0.4215 -0.0136  1.4901
  181SLPC   H8S20654   0.149   0.842   4.805  0.3495  0.0566  0.3326
  181SLPC   C2920655   0.256   0.862   4.990  0.2066  0.9762 -0.1804
  181SLPC   H9R20656   0.333   0.806   5.045 -0.3381 -0.6902 -1.0499
  181SLPC  C21020657   0.185   0.957   5.047 -0.5296 -0.2667 -0.8033
  181SLPC  H10R20658   0.214   0.983   5.150  1.0740  1.2515 -1.5713
  181SLPC  C21120659   0.074   1.034   4.984 -0.2768 -0.3310  0.2133
  181SLPC  H11R20660   0.004   0.958   4.944 -1.1978  0.1446  0.8871
  181SLPC  H11S20661   0.111   1.104   4.907 -1.5893  0.4432  0.2550
  181SLPC  C21220662  -0.007   1.113   5.081  0.8376  0.1960  0.8517
  181SLPC  H12R20663   0.018   1.087   5.185 -0.2197 -1.0727  0.8241
  181SLPC  C21320664  -0.103   1.197   5.037  0.0305 -0.7238 -0.3481
  181SLPC  H13R20665  -0.180   1.247   5.097 -1.0889 -1.4055 -1.1731
  181SLPC  C21420666  -0.142   1.208   4.888 -0.2513 -0.1540 -0.4284
  181SLPC  H14R20667  -0.105   1.128   4.820  1.3667  2.1008 -2.4056
  181SLPC  H14S20668  -0.085   1.295   4.847 -0.6058  1.4400  2.2347
  181SLPC  C21520669  -0.291   1.216   4.873 -0.0208 -0.1507  0.3649
  181SLPC  H15R20670  -0.323   1.317   4.905  0.8125 -0.1788  1.3153
  181SLPC  H15S20671  -0.343   1.140   4.935  0.7727 -0.7870  0.2714
  181SLPC  C21620672  -0.335   1.199   4.734  0.2307  0.3363  0.8680
  181SLPC  H16R20673  -0.445   1.188   4.725  0.5856 -2.5997 -1.6353
  181SLPC  H16S20674  -0.283   1.110   4.691  0.8986  0.1851  1.9508
  181SLPC  C21720675  -0.294   1.319   4.643  0.4454  0.0759  0.0340
  181SLPC  H17R20676  -0.184   1.331   4.630  0.1929  1.2564 -1.2510
  181SLPC  H17S20677  -0.346   1.409   4.683 -1.3883 -0.6089 -0.6749
  181SLPC  C21820678  -0.343   1.298   4.499  0.3313 -0.1269 -0.6283
  181SLPC  H18R20679  -0.452   1.278   4.490  0.4994 -0.8173 -1.2033
  181SLPC  H18S20680  -0.285   1.216   4.451  1.9466  0.3329  0.4410
  181SLPC  H18T20681  -0.321   1.392   4.445 -0.0723 -0.8972 -2.1641
  181SLPC   C3320682   0.851   1.553   4.447 -0.0780 -0.2779 -0.2830
  181SLPC   H3X20683   0.918   1.474   4.485  0.4726  0.3211  0.0156
  181SLPC   H3Y20684   0.745   1.531   4.472 -0.2489  0.9251  0.1328
  181SLPC   C3420685   0.900   1.677   4.526 -0.2923 -0.1538 -0.1207
  181SLPC   H4X20686   0.818   1.752   4.534 -0.1969 -0.1027  0.4511
  181SLPC   H4Y20687   0.976   1.723   4.460  0.9704 -1.3027  0.4943
  181SLPC   C3520688   0.954   1.628   4.661  0.1789 -0.1132 -0.9154
  181SLPC   H5X20689   1.019   1.542   4.635 -0.8994 -1.7616  1.4938
  181SLPC   H5Y20690   0.879   1.593   4.735  1.7809  0.4242  1.0530
  181SLPC   C3620691   1.037   1.733   4.730  0.5625  0.4031 -0.3484
  181SLPC   H6X20692   0.983   1.828   4.710 -0.7133 -0.3089 -0.4063
  181SLPC   H6Y20693   1.135   1.751   4.681 -0.2912  3.2042 -1.2231
  181SLPC   C3720694   1.069   1.694   4.875 -0.1182  0.0964 -0.1379
  181SLPC   H7X20695   1.086   1.584   4.871 -1.1893 -0.1541  1.4361
  181SLPC   H7Y20696   0.973   1.710   4.929  0.6569  4.0804  0.3527
  181SLPC   C3820697   1.188   1.770   4.942  0.3985 -0.1803  0.1244
  181SLPC   H8X20698   1.157   1.876   4.957 -0.7914 -0.2701 -1.5082
  181SLPC   H8Y20699   1.267   1.776   4.865 -1.4784 -1.2978 -1.9909
  181SLPC   C3920700   1.246   1.706   5.069 -0.3947  0.5953 -0.4216
  181SLPC   H9X20701   1.331   1.766   5.108  1.1120  0.1350 -2.7437
  181SLPC   H9Y20702   1.277   1.602   5.041 -1.5875 -0.1053  0.7525
  181SLPC  C31020703   1.146   1.691   5.186  0.1708 -0.3660 -0.2027
  181SLPC  H10X20704   1.073   1.616   5.147  1.6190 -2.7877  1.4141
  181SLPC  H10Y20705   1.094   1.788   5.173 -0.0211 -0.4785 -0.2750
  181SLPC  C31120706   1.208   1.651   5.324  0.4371  0.3853 -0.2159
  181SLPC  H11X20707   1.136   1.651   5.408  0.5683  1.2696 -0.0891
  181SLPC  H11Y20708   1.288   1.728   5.337  2.6910 -1.9109  0.4239
  181SLPC  C31220709   1.274   1.516   5.302 -0.4127  0.3723  0.2973
  181SLPC  H12X20710   1.353   1.524   5.225 -0.4202  0.5487  0.3069
  181SLPC  H12Y20711   1.208   1.451   5.240  0.2638  0.2015 -0.2501
  181SLPC  C31320712   1.295   1.431   5.434 -0.8299 -0.6486  0.9456
  181SLPC  H13X20713   1.327   1.330   5.399  2.7540  1.8693 -4.3533
  181SLPC  H13Y20714   1.208   1.433   5.502 -0.1629  1.4892  1.8210
  181SLPC  C31420715   1.414   1.465   5.527  0.1004 -1.3375  0.0783
  181SLPC  H14X20716   1.505   1.421   5.480 -1.0183 -1.2495 -2.3347
  181SLPC  H14Y20717   1.402   1.409   5.622  0.4226  0.1548  1.0488
  181SLPC  C31520718   1.439   1.614   5.555 -0.9243 -0.0383 -0.5387
  181SLPC  H15X20719   1.339   1.661   5.565 -0.9008  0.3238 -1.8552
  181SLPC  H15Y20720   1.489   1.677   5.478  0.5184  2.5119  2.2611
  181SLPC  C31620721   1.523   1.627   5.685  0.6497 -0.1200  0.6963
  181SLPC  H16X20722   1.610   1.558   5.689  1.5508  1.0465  2.5260
  181SLPC  H16Y20723   1.454   1.596   5.766  0.1462  0.7452  0.6209
  181SLPC  C31720724   1.559   1.770   5.707  0.0765 -0.3652 -0.5007
  181SLPC  H17X20725   1.472   1.832   5.678 -0.2124 -0.1417  0.7789
  181SLPC  H17Y20726   1.638   1.791   5.631  0.7629 -0.5975  0.1372
  181SLPC  C31820727   1.591   1.805   5.854 -0.7029  0.6025  0.4233
  181SLPC  H18X20728   1.509   1.772   5.922 -0.7029 -1.7865 -0.6537
  181SLPC  H18Y20729   1.604   1.914   5.872  0.4313  0.2696  1.7601
  181SLPC  H18Z20730   1.685   1.759   5.892 -0.3550  1.0825  0.1527
  182SLPC     N20731   3.806   2.225   3.065  0.1292 -0.3677  0.0963
  182SLPC   C1320732   3.874   2.085   3.053 -0.3255 -0.6374 -0.1651
  182SLPC  H13A20733   3.805   2.002   3.054  1.6466 -2.3431  0.2306
  182SLPC  H13B20734   3.937   2.073   2.966  0.3315  0.2368  0.1644
  182SLPC  H13C20735   3.944   2.071   3.134 -0.8553  1.5893  0.7640
  182SLPC   C1420736   3.720   2.241   2.947 -0.1408 -0.4075  0.2275
  182SLPC  H14A20737   3.641   2.169   2.959  0.2470 -1.0909 -1.1120
  182SLPC  H14B20738   3.671   2.338   2.946 -1.3681 -0.9808  1.3025
  182SLPC  H14C20739   3.781   2.230   2.859 -0.6737 -2.9554  0.1156
  182SLPC   C1520740   3.916   2.323   3.065  0.4092 -0.4063 -0.5019
  182SLPC  H15A20741   3.879   2.424   3.056 -0.5056 -0.5014  1.6214
  182SLPC  H15B20742   3.979   2.325   3.153 -0.3277  2.9917  0.0820
  182SLPC  H15C20743   3.987   2.308   2.985  0.7571 -0.7618 -0.1350
  182SLPC   C1220744   3.714   2.229   3.190  0.1860 -0.3111  0.9576
  182SLPC  H12A20745   3.646   2.146   3.180  0.8019 -0.6041 -1.4223
  182SLPC  H12B20746   3.659   2.321   3.178 -0.3739 -0.7953 -0.3383
  182SLPC   C1120747   3.774   2.234   3.327 -0.3114  0.1083 -0.1814
  182SLPC  H11A20748   3.687   2.230   3.396 -0.2692  1.2039 -0.0471
  182SLPC  H11B20749   3.827   2.331   3.338 -0.4833  0.0319  1.6637
  182SLPC     P20750   4.015   2.139   3.418 -0.1096 -0.2783 -0.4150
  182SLPC   O1320751   4.095   2.013   3.407 -0.1575  0.3050  0.2450
  182SLPC   O1420752   4.074   2.259   3.353 -0.6780 -0.1313 -0.3044
  182SLPC   O1220753   3.865   2.124   3.369  0.4782 -0.0033 -0.4780
  182SLPC   O1120754   3.997   2.168   3.571  0.5388 -0.1191 -0.4074
  182SLPC    C120755   3.950   2.054   3.648  0.8445 -0.5734  0.2569
  182SLPC    HA20756   3.871   1.991   3.601  0.6442  0.7991 -1.3185
  182SLPC    HB20757   4.039   1.991   3.670  1.9001  1.0442  0.7989
  182SLPC    C220758   3.890   2.109   3.781 -0.4539  0.5117  0.5691
  182SLPC    HS20759   3.803   2.170   3.749 -1.6240 -0.2863  2.1623
  182SLPC   O2120760   3.990   2.190   3.859  0.5824  0.3959 -0.4059
  182SLPC   C2120761   3.938   2.277   3.942  0.7529  0.3689 -0.2635
  182SLPC   O2220762   3.820   2.311   3.954 -0.5729  0.3876 -0.0621
  182SLPC   C2220763   4.044   2.335   4.029  0.1984  0.3749 -0.4510
  182SLPC   H2R20764   4.131   2.266   4.033 -0.9749 -1.1406  0.1656
  182SLPC   H2S20765   4.059   2.441   4.000 -1.4172  0.5504 -0.7131
  182SLPC    C320766   3.802   1.996   3.857  1.4358 -0.7006 -0.0332
  182SLPC    HX20767   3.882   1.925   3.887  3.0542  0.7895 -0.6261
  182SLPC    HY20768   3.735   1.937   3.791  0.0546 -1.1954  1.7150
  182SLPC   O3120769   3.741   2.052   3.981 -0.2642  0.1530 -0.2812
  182SLPC   C3120770   3.621   2.105   3.958  0.4187 -0.0848  0.4982
  182SLPC   O3220771   3.563   2.112   3.849  0.6186 -0.8688 -0.3204
  182SLPC   C3220772   3.558   2.130   4.097  0.7876 -0.6058 -0.2106
  182SLPC   H2X20773   3.461   2.077   4.106 -0.7904  2.1816  0.4156
  182SLPC   H2Y20774   3.526   2.236   4.099  0.9263 -0.4151 -3.4658
  182SLPC   C2320775   4.001   2.317   4.176 -0.5648  0.7069 -0.0208
  182SLPC   H3R20776   3.994   2.211   4.207 -0.1600  0.9763  1.0297
  182SLPC   H3S20777   3.897   2.356   4.188 -0.5197  1.6663 -2.1772
  182SLPC   C2420778   4.085   2.384   4.289 -0.2354  0.1390  0.2013
  182SLPC   H4R20779   4.065   2.494   4.283 -0.4803  0.0504 -0.7082
  182SLPC   H4S20780   4.196   2.375   4.283 -0.1911  0.7713 -0.0449
  182SLPC   C2520781   4.047   2.329   4.425  0.3939  1.2027  0.6080
  182SLPC   H5R20782   4.082   2.224   4.434 -2.0430  0.0193 -2.0859
  182SLPC   H5S20783   3.937   2.324   4.442  0.2310 -0.3326 -0.5846
  182SLPC   C2620784   4.124   2.399   4.531  0.4383 -0.1312 -0.0568
  182SLPC   H6R20785   4.136   2.508   4.510  1.2800 -0.2531 -0.2687
  182SLPC   H6S20786   4.228   2.361   4.545  0.5945  0.3489  0.1381
  182SLPC   C2720787   4.059   2.397   4.669  0.1398 -0.3411 -0.0887
  182SLPC   H7R20788   4.089   2.310   4.731 -3.7392 -0.5565  1.8089
  182SLPC   H7S20789   3.951   2.379   4.648  0.4552 -2.2169 -0.3397
  182SLPC   C2820790   4.090   2.526   4.745  0.5680  0.0346 -0.0123
  182SLPC   H8R20791   4.020   2.519   4.831 -1.9963 -1.9863 -2.0761
  182SLPC   H8S20792   4.066   2.616   4.683  1.1373 -0.5501 -1.1045
  182SLPC   C2920793   4.238   2.541   4.788  0.0800  0.1572  0.0025
  182SLPC   H9R20794   4.301   2.534   4.699 -0.0514 -1.7092  0.0230
  182SLPC  C21020795   4.289   2.562   4.913  0.9131  0.3992  0.5500
  182SLPC  H10R20796   4.397   2.569   4.931  1.1329  2.0100 -1.1114
  182SLPC  C21120797   4.208   2.587   5.043  0.5826 -0.2380  0.0435
  182SLPC  H11R20798   4.228   2.507   5.117  4.0047  1.0764  0.7421
  182SLPC  H11S20799   4.099   2.579   5.025  0.6198 -1.4442  0.2196
  182SLPC  C21220800   4.230   2.724   5.097  0.0328  0.1225 -0.4820
  182SLPC  H12R20801   4.191   2.806   5.035 -0.5876  0.7559  0.7135
  182SLPC  C21320802   4.285   2.763   5.212 -0.4125  0.0403  0.8157
  182SLPC  H13R20803   4.279   2.870   5.238 -0.6020  0.0049  0.9201
  182SLPC  C21420804   4.334   2.674   5.323  0.0367 -0.0826  0.5857
  182SLPC  H14R20805   4.409   2.719   5.391  0.7579  0.6599 -0.6718
  182SLPC  H14S20806   4.369   2.579   5.277 -1.5389  1.2037 -3.7425
  182SLPC  C21520807   4.228   2.632   5.434 -0.1044 -0.3745  0.5737
  182SLPC  H15R20808   4.284   2.567   5.504  1.0864 -0.0988 -0.0945
  182SLPC  H15S20809   4.147   2.576   5.383 -2.7077  3.3472  0.2236
  182SLPC  C21620810   4.169   2.749   5.512  0.0570  0.5421 -0.4222
  182SLPC  H16R20811   4.085   2.794   5.454  0.1035  1.4246  0.1702
  182SLPC  H16S20812   4.241   2.831   5.535 -2.0384  2.4309 -0.1494
  182SLPC  C21720813   4.119   2.702   5.647 -0.3728 -0.0894  0.2791
  182SLPC  H17R20814   4.203   2.675   5.715  0.0895 -1.8770 -0.9243
  182SLPC  H17S20815   4.048   2.616   5.646 -2.8369  1.8550 -0.0056
  182SLPC  C21820816   4.043   2.814   5.717 -0.3620 -0.6517  0.0992
  182SLPC  H18R20817   3.945   2.826   5.667 -1.3630  0.8592  2.2542
  182SLPC  H18S20818   4.087   2.913   5.694 -3.0532  0.5901 -0.1087
  182SLPC  H18T20819   4.036   2.818   5.828  0.2159  1.1455  0.1070
  182SLPC   C3320820   3.641   2.108   4.223  0.4333 -0.7143  0.2395
  182SLPC   H3X20821   3.733   2.167   4.203 -0.3267  0.2621 -0.4812
  182SLPC   H3Y20822   3.666   2.000   4.229  0.6662 -0.6401  0.6054
  182SLPC   C3420823   3.583   2.151   4.357  0.3118 -0.2572 -0.4740
  182SLPC   H4X20824   3.490   2.091   4.368 -0.1972  0.2063 -1.9891
  182SLPC   H4Y20825   3.558   2.259   4.370  1.7624 -0.0255  0.5844
  182SLPC   C3520826   3.669   2.104   4.477  0.0394  0.3120 -1.2937
  182SLPC   H5X20827   3.768   2.153   4.480 -0.4720  1.3577 -0.6700
  182SLPC   H5Y20828   3.701   1.998   4.489 -2.4410 -0.1548  5.4149
  182SLPC   C3620829   3.593   2.139   4.614  0.2429 -0.1166 -1.0340
  182SLPC   H6X20830   3.487   2.111   4.595 -0.3218 -0.0073  1.5673
  182SLPC   H6Y20831   3.600   2.243   4.654  0.7309  0.0775 -1.6087
  182SLPC   C3720832   3.644   2.049   4.731  0.0320 -0.2496 -0.1766
  182SLPC   H7X20833   3.754   2.061   4.739 -0.0782  0.7898 -0.1097
  182SLPC   H7Y20834   3.619   1.944   4.706 -0.2824 -0.1238 -0.3905
  182SLPC   C3820835   3.588   2.086   4.873  0.1976 -0.0410  0.0689
  182SLPC   H8X20836   3.479   2.064   4.870 -0.2653  1.5919  2.3289
  182SLPC   H8Y20837   3.582   2.197   4.883  0.5264  0.1591 -1.5404
  182SLPC   C3920838   3.655   2.008   4.997 -0.5721 -0.0956 -0.2948
  182SLPC   H9X20839   3.762   2.036   5.000 -1.1424  2.3803 -0.7427
  182SLPC   H9Y20840   3.649   1.897   4.991 -1.9876 -0.0082 -0.9631
  182SLPC  C31020841   3.605   2.048   5.135  0.5377  0.1309  0.3143
  182SLPC  H10X20842   3.499   2.017   5.141 -0.5806  3.4094 -0.7661
  182SLPC  H10Y20843   3.596   2.158   5.136  0.5617  0.1587  2.6682
  182SLPC  C31120844   3.690   2.004   5.251 -0.1277  0.2576  0.0791
  182SLPC  H11X20845   3.797   2.032   5.239  0.0406 -0.9431 -1.5875
  182SLPC  H11Y20846   3.678   1.895   5.264 -1.8081  0.1412 -1.9582
  182SLPC  C31220847   3.644   2.063   5.384  0.0780  0.0411  0.6048
  182SLPC  H12X20848   3.540   2.029   5.405 -0.2948  0.1021 -0.9804
  182SLPC  H12Y20849   3.640   2.173   5.366  1.7951  0.0572  0.1685
  182SLPC  C31320850   3.725   2.026   5.506 -0.3197 -0.3434 -0.2534
  182SLPC  H13X20851   3.818   2.087   5.505 -1.3926  1.6072  3.3480
  182SLPC  H13Y20852   3.742   1.916   5.506 -1.0010 -0.4606  0.9524
  182SLPC  C31420853   3.662   2.065   5.643 -0.1712  0.0647  0.8201
  182SLPC  H14X20854   3.561   2.022   5.657 -0.2681 -0.2146 -0.5534
  182SLPC  H14Y20855   3.647   2.175   5.640 -0.3324  0.0221 -0.5303
  182SLPC  C31520856   3.750   2.024   5.754 -0.1324  0.3328  0.2600
  182SLPC  H15X20857   3.857   2.056   5.749 -0.2500  0.8257  0.8235
  182SLPC  H15Y20858   3.728   1.916   5.766 -2.3874  0.1002 -4.1956
  182SLPC  C31620859   3.706   2.070   5.901  0.0732 -0.8389  0.8286
  182SLPC  H16X20860   3.607   2.023   5.916  0.2774 -0.6684  2.9738
  182SLPC  H16Y20861   3.688   2.179   5.898  3.2049 -0.1605  2.5430
  182SLPC  C31720862   3.797   2.023   6.012 -0.4626 -0.3449  0.5541
  182SLPC  H17X20863   3.898   2.066   5.993  0.8357 -2.9303  1.1281
  182SLPC  H17Y20864   3.811   1.913   6.008 -1.9100 -0.5281 -0.8177
  182SLPC  C31820865   3.745   2.066   6.154 -0.2062 -0.3570  0.4039
  182SLPC  H18X20866   3.735   2.177   6.158  0.8773 -0.2111 -0.4348
  182SLPC  H18Y20867   3.821   2.042   6.232  1.4623  0.6127 -0.8449
  182SLPC  H18Z20868   3.649   2.012   6.171  1.3078 -4.1323 -1.7256
  183SLPC     N20869   5.852   0.091   3.816 -0.5087  0.0159 -0.8501
  183SLPC   C1320870   5.752   0.131   3.707  0.2983  0.3342 -0.5581
  183SLPC  H13A20871   5.752   0.053   3.632 -1.9131 -0.3793  0.0861
  183SLPC  H13B20872   5.653   0.139   3.752  1.6831 -0.5452  3.0108
  183SLPC  H13C20873   5.770   0.230   3.668 -3.5819  0.8313 -1.5198
  183SLPC   C1420874   5.835   0.199   3.922  0.2559 -0.3755  0.4391
  183SLPC  H14A20875   5.733   0.191   3.956 -1.1806  3.3716 -2.3035
  183SLPC  H14B20876   5.902   0.177   4.004  0.5746  0.0103  0.2889
  183SLPC  H14C20877   5.848   0.296   3.875 -0.5099  0.1507  1.2715
  183SLPC   C1520878   5.987   0.097   3.758  0.0626  0.5376 -0.0766
  183SLPC  H15A20879   6.058   0.101   3.839  0.4329  1.9873 -0.4514
  183SLPC  H15B20880   5.994   0.016   3.687 -2.3664 -0.1275  0.3492
  183SLPC  H15C20881   6.011   0.188   3.706  0.5000  0.3342 -0.2355
  183SLPC   C1220882   5.821  -0.043   3.870  0.2879 -0.7183  0.0233
  183SLPC  H12A20883   5.721  -0.049   3.910 -0.1760  1.9970 -0.5055
  183SLPC  H12B20884   5.902  -0.054   3.939  0.6957  1.7666  0.0342
  183SLPC   C1120885   5.826  -0.170   3.777 -0.0078 -0.3588  0.4534
  183SLPC  H11A20886   5.820  -0.257   3.845  2.2353 -1.3113 -0.4615
  183SLPC  H11B20887   5.922  -0.170   3.720  0.8400  0.5118  1.8173
  183SLPC     P20888   5.576  -0.202   3.731  0.9248 -0.1251  0.4706
  183SLPC   O1320889   5.491  -0.154   3.618 -0.0513  0.6644  0.1480
  183SLPC   O1420890   5.574  -0.348   3.744  0.2026 -0.0516  0.1476
  183SLPC   O1220891   5.717  -0.160   3.691  0.9624  0.3002  0.7110
  183SLPC   O1120892   5.537  -0.129   3.873 -0.7132  0.3797 -0.1464
  183SLPC    C120893   5.431  -0.025   3.870 -0.9518 -0.0285  0.1635
  183SLPC    HA20894   5.467   0.057   3.805 -0.2054 -1.4862 -1.3245
  183SLPC    HB20895   5.336  -0.059   3.823  0.3078 -2.4821 -0.8174
  183SLPC    C220896   5.405   0.040   4.006  0.3041  0.5101  0.2090
  183SLPC    HS20897   5.312   0.099   3.995 -0.4560 -1.0085 -2.7773
  183SLPC   O2120898   5.519   0.103   4.063  0.0727  0.0748  0.8590
  183SLPC   C2120899   5.495   0.218   4.116 -0.6649 -0.0907  0.2141
  183SLPC   O2220900   5.390   0.278   4.110  0.2587 -0.6725  0.0410
  183SLPC   C2220901   5.614   0.272   4.194  0.5124 -0.9779  0.3792
  183SLPC   H2R20902   5.697   0.199   4.202  0.6161 -0.7330  1.9019
  183SLPC   H2S20903   5.640   0.362   4.136 -1.2668 -0.1215  0.8312
  183SLPC    C320904   5.363  -0.071   4.106  0.0864 -0.5634 -0.3519
  183SLPC    HX20905   5.444  -0.147   4.094  2.1854  1.4872  0.0907
  183SLPC    HY20906   5.269  -0.124   4.080 -0.7413 -1.7235  4.1009
  183SLPC   O3120907   5.365  -0.026   4.248  0.2362 -0.1502 -0.3833
  183SLPC   C3120908   5.243   0.005   4.295 -0.0584 -0.2991  0.0480
  183SLPC   O3220909   5.138   0.007   4.235 -0.3530  0.1986  0.1285
  183SLPC   C3220910   5.266   0.033   4.440  0.7437  1.3259  0.3688
  183SLPC   H2X20911   5.281   0.143   4.449  1.4668  1.5347 -2.5210
  183SLPC   H2Y20912   5.353  -0.023   4.483  0.9705  1.8073  0.5392
  183SLPC   C2320913   5.582   0.312   4.335  0.4628 -0.5024  0.1889
  183SLPC   H3R20914   5.480   0.354   4.343 -0.1389 -2.1992  3.0317
  183SLPC   H3S20915   5.658   0.382   4.375  0.4618 -1.1583  1.4023
  183SLPC   C2420916   5.595   0.200   4.438  0.5693  0.3544  0.2044
  183SLPC   H4R20917   5.700   0.166   4.446  0.6963  0.7523  0.2493
  183SLPC   H4S20918   5.534   0.115   4.400  0.0600  0.2264  1.2829
  183SLPC   C2520919   5.543   0.241   4.578 -0.4387  0.3372  0.7136
  183SLPC   H5R20920   5.432   0.245   4.576 -0.8401 -4.5523  0.9730
  183SLPC   H5S20921   5.590   0.334   4.616  0.3761 -0.8348  2.7903
  183SLPC   C2620922   5.564   0.138   4.685 -0.0540  0.2430  0.1604
  183SLPC   H6R20923   5.670   0.126   4.718 -0.5391 -0.6481  1.4755
  183SLPC   H6S20924   5.519   0.042   4.652 -0.8565  0.5611  0.2981
  183SLPC   C2720925   5.477   0.185   4.806  0.4068 -0.1955 -0.2258
  183SLPC   H7R20926   5.376   0.212   4.770 -0.1040  1.1662  2.0367
  183SLPC   H7S20927   5.524   0.274   4.854 -0.2950 -0.6635  1.4101
  183SLPC   C2820928   5.456   0.078   4.919  0.1152 -0.7290 -0.0803
  183SLPC   H8R20929   5.422  -0.017   4.872 -0.6115 -2.0147  2.8512
  183SLPC   H8S20930   5.372   0.113   4.982  0.2965 -0.0832 -0.1882
  183SLPC   C2920931   5.584   0.071   5.007  0.2670  0.1976 -0.6962
  183SLPC   H9R20932   5.672   0.050   4.945 -0.4710  0.6319 -1.9420
  183SLPC  C21020933   5.594   0.094   5.136  0.4195 -0.4287 -0.2073
  183SLPC  H10R20934   5.690   0.095   5.190 -0.0132 -1.3011  0.6030
  183SLPC  C21120935   5.477   0.123   5.228 -0.1875  0.2310  0.5224
  183SLPC  H11R20936   5.416   0.200   5.176 -1.1285 -0.7228  0.1779
  183SLPC  H11S20937   5.515   0.175   5.318 -0.2537 -1.3746  1.4981
  183SLPC  C21220938   5.389   0.012   5.260  0.2726  0.8594 -0.0567
  183SLPC  H12R20939   5.363  -0.054   5.175 -0.7974  0.2497  0.7198
  183SLPC  C21320940   5.323   0.004   5.378  0.0983 -0.5895 -0.0950
  183SLPC  H13R20941   5.265  -0.089   5.393  1.3739 -1.3165  0.4704
  183SLPC  C21420942   5.322   0.092   5.497 -0.1203 -0.5761 -0.0785
  183SLPC  H14R20943   5.229   0.153   5.502  1.3413  1.7990 -0.4221
  183SLPC  H14S20944   5.404   0.167   5.500 -2.0195  1.6952 -1.4082
  183SLPC  C21520945   5.331   0.005   5.626 -0.1658  0.1615  0.4726
  183SLPC  H15R20946   5.342   0.081   5.706 -0.4016  0.7358 -0.0350
  183SLPC  H15S20947   5.428  -0.049   5.627  1.0335  2.1362 -1.1430
  183SLPC  C21620948   5.213  -0.082   5.662  0.0918  0.6379 -0.1296
  183SLPC  H16R20949   5.217  -0.114   5.768 -0.4944 -0.9546 -0.5476
  183SLPC  H16S20950   5.210  -0.175   5.600 -2.9174  0.2387  0.4611
  183SLPC  C21720951   5.076  -0.013   5.641 -0.2400  0.1087 -0.1889
  183SLPC  H17R20952   5.059  -0.008   5.531 -0.8383  1.7382 -0.0497
  183SLPC  H17S20953   5.087   0.090   5.682 -1.7298  0.0138  0.4896
  183SLPC  C21820954   4.961  -0.083   5.714  0.8910  0.6220 -0.2832
  183SLPC  H18R20955   4.863  -0.036   5.691  0.5488  0.9115  1.6090
  183SLPC  H18S20956   4.965  -0.081   5.825 -1.6016  0.5962 -0.1403
  183SLPC  H18T20957   4.945  -0.183   5.669 -1.2496  0.3341  0.9655
  183SLPC   C3320958   5.144  -0.024   4.516 -0.4533  0.5218 -0.1005
  183SLPC   H3X20959   5.133  -0.131   4.486  0.0378  0.2241  0.7521
  183SLPC   H3Y20960   5.046   0.016   4.482  0.1961 -0.1222 -3.0239
  183SLPC   C3420961   5.176  -0.010   4.661  0.5593  0.4664  1.0123
  183SLPC   H4X20962   5.208   0.091   4.694 -2.3832  1.9405 -0.2607
  183SLPC   H4Y20963   5.265  -0.075   4.676  1.1496  0.5641 -1.5554
  183SLPC   C3520964   5.064  -0.055   4.744  0.6185 -0.0532 -0.2552
  183SLPC   H5X20965   5.032  -0.153   4.703 -0.3275  0.0941  0.0972
  183SLPC   H5Y20966   4.987   0.020   4.719  3.2595  2.2267 -2.0838
  183SLPC   C3620967   5.089  -0.065   4.902 -0.1684 -0.1306  0.4017
  183SLPC   H6X20968   5.101   0.039   4.939 -1.5131 -0.0290  0.5859
  183SLPC   H6Y20969   5.184  -0.120   4.920 -0.3071  0.1157  1.9627
  183SLPC   C3720970   4.985  -0.138   4.977  0.4221 -0.4925  0.0884
  183SLPC   H7X20971   4.954  -0.224   4.914  1.0262 -1.1630  0.6810
  183SLPC   H7Y20972   4.899  -0.068   4.974  0.4945 -0.4234 -0.4686
  183SLPC   C3820973   5.019  -0.171   5.122 -0.4966  0.5002 -0.2487
  183SLPC   H8X20974   5.023  -0.080   5.187 -1.1060  0.0721  0.4086
  183SLPC   H8Y20975   5.114  -0.227   5.132 -1.2783 -0.5313  2.3242
  183SLPC   C3920976   4.902  -0.259   5.182 -0.1348 -0.4010 -0.4650
  183SLPC   H9X20977   4.897  -0.354   5.125  1.2715 -0.2828 -0.8399
  183SLPC   H9Y20978   4.810  -0.201   5.160 -0.6458 -1.3936 -0.9796
  183SLPC  C31020979   4.913  -0.295   5.318 -0.4670 -0.4470 -1.2393
  183SLPC  H10X20980   4.925  -0.206   5.383  1.0764 -1.1748 -0.4798
  183SLPC  H10Y20981   4.994  -0.367   5.342 -1.3517 -0.9614  0.3274
  183SLPC  C31120982   4.785  -0.362   5.361  0.5806  0.0349 -0.0983
  183SLPC  H11X20983   4.785  -0.462   5.313 -0.8564  0.6809 -1.5205
  183SLPC  H11Y20984   4.698  -0.299   5.332  0.5906  0.4646  0.7855
  183SLPC  C31220985   4.782  -0.373   5.514  0.2848  0.2201 -0.1112
  183SLPC  H12X20986   4.794  -0.269   5.552  0.0708  0.1618  0.1245
  183SLPC  H12Y20987   4.882  -0.418   5.533  0.1158 -1.3512 -2.5202
  183SLPC  C31320988   4.673  -0.467   5.575 -0.0715  0.4697 -0.3323
  183SLPC  H13X20989   4.691  -0.476   5.684 -1.1120 -1.1490 -0.2596
  183SLPC  H13Y20990   4.695  -0.569   5.536  0.0473  1.2463 -2.4175
  183SLPC  C31420991   4.530  -0.422   5.545 -0.5526 -0.2044 -0.1324
  183SLPC  H14X20992   4.522  -0.421   5.434  1.2704  1.4277 -0.3061
  183SLPC  H14Y20993   4.512  -0.320   5.585 -2.1481  0.1890 -1.7179
  183SLPC  C31520994   4.414  -0.500   5.594  0.5852  0.4041  0.0435
  183SLPC  H15X20995   4.411  -0.603   5.552  3.6465  0.9389 -1.7694
  183SLPC  H15Y20996   4.320  -0.460   5.552 -0.5295 -1.8335  0.2435
  183SLPC  C31620997   4.392  -0.498   5.742 -0.2140 -0.6678 -0.1960
  183SLPC  H16X20998   4.396  -0.394   5.779  2.5300 -0.4787 -0.8041
  183SLPC  H16Y20999   4.481  -0.552   5.781  1.8659  2.3666 -0.3921
  183SLPC  C31721000   4.255  -0.558   5.783  0.1874 -0.1333 -0.1355
  183SLPC  H17X21001   4.172  -0.497   5.743 -0.1866  0.5974  1.6550
  183SLPC  H17Y21002   4.256  -0.555   5.894  0.5771 -3.1855  0.0220
  183SLPC  C31821003   4.227  -0.703   5.741 -0.1452  0.8643 -0.2568
  183SLPC  H18X21004   4.137  -0.724   5.802  0.0008  1.5204  0.2034
  183SLPC  H18Y21005   4.312  -0.769   5.769  0.0371  1.4305  0.5712
  183SLPC  H18Z21006   4.219  -0.700   5.630 -0.6848 -0.2578 -0.2558
  184SLPC     N21007   3.034   4.596   2.797 -0.7781  0.0420  0.2822
  184SLPC   C1321008   2.909   4.530   2.841 -0.4366  0.5093 -0.0965
  184SLPC  H13A21009   2.932   4.438   2.893 -0.6526  1.7859  2.3713
  184SLPC  H13B21010   2.857   4.588   2.915 -0.9903 -0.6622  0.4695
  184SLPC  H13C21011   2.846   4.505   2.756  1.6150 -0.2082 -1.4954
  184SLPC   C1421012   2.995   4.728   2.742  0.0291  0.1487  0.7748
  184SLPC  H14A21013   2.944   4.718   2.648 -0.4951  1.6574  0.8745
  184SLPC  H14B21014   2.926   4.777   2.809 -0.9933  0.5374 -0.5193
  184SLPC  H14C21015   3.075   4.801   2.735  0.9441 -0.8958 -0.1335
  184SLPC   C1521016   3.096   4.510   2.687  0.0512 -0.3919 -0.2700
  184SLPC  H15A21017   3.178   4.561   2.639  0.0234 -0.8535 -0.8145
  184SLPC  H15B21018   3.132   4.413   2.721  1.2051 -0.6139 -2.0386
  184SLPC  H15C21019   3.029   4.488   2.605  0.4133  2.1046 -1.3116
  184SLPC   C1221020   3.137   4.605   2.912  0.3749 -0.1708 -0.8514
  184SLPC  H12A21021   3.087   4.661   2.989 -0.3109 -0.0278 -1.3920
  184SLPC  H12B21022   3.212   4.679   2.886  1.2698  0.1728  2.2765
  184SLPC   C1121023   3.201   4.476   2.978 -0.1043 -1.0158  0.7971
  184SLPC  H11A21024   3.278   4.512   3.049  0.6461 -1.9850  0.4854
  184SLPC  H11B21025   3.262   4.432   2.896  0.5021 -0.3738  0.8948
  184SLPC     P21026   3.107   4.240   2.992  0.3765 -0.1901 -0.4035
  184SLPC   O1321027   2.991   4.161   3.044 -0.4343  0.0705  0.2784
  184SLPC   O1421028   3.135   4.217   2.848  0.2097  0.0479 -0.3809
  184SLPC   O1221029   3.092   4.394   3.021  0.1626  0.2238  0.4552
  184SLPC   O1121030   3.230   4.189   3.074 -0.2220 -0.5639 -0.9623
  184SLPC    C121031   3.222   4.122   3.201 -0.4779  0.1283 -0.5145
  184SLPC    HA21032   3.137   4.053   3.220 -0.2700  0.5354  2.3224
  184SLPC    HB21033   3.320   4.070   3.208  0.7185  2.1487 -1.4732
  184SLPC    C221034   3.224   4.217   3.322  0.1067  0.0665 -0.6618
  184SLPC    HS21035   3.135   4.284   3.314 -0.0969 -0.0225  0.6476
  184SLPC   O2121036   3.340   4.301   3.324 -0.4251 -0.4625 -0.0956
  184SLPC   C2121037   3.324   4.433   3.369  0.3273  0.1924  0.1900
  184SLPC   O2221038   3.215   4.488   3.396 -0.3951  0.1241 -0.3838
  184SLPC   C2221039   3.463   4.502   3.375  0.1431  0.1413  0.3425
  184SLPC   H2R21040   3.539   4.423   3.389  1.2763  1.2550  0.6356
  184SLPC   H2S21041   3.473   4.564   3.283  0.4217  0.4046  0.5490
  184SLPC    C321042   3.217   4.143   3.449  0.3762 -0.2734  0.0154
  184SLPC    HX21043   3.320   4.104   3.464  0.6667 -0.2524 -1.7177
  184SLPC    HY21044   3.151   4.056   3.433  1.5232 -0.6107 -3.6637
  184SLPC   O3121045   3.180   4.230   3.563 -0.4821 -0.0470 -0.1985
  184SLPC   C3121046   3.048   4.235   3.590 -0.1387 -0.8321  0.1736
  184SLPC   O3221047   2.961   4.184   3.520 -0.0035 -0.3381  0.3304
  184SLPC   C3221048   3.023   4.312   3.721  0.5818  0.3880  0.3533
  184SLPC   H2X21049   3.018   4.415   3.679  0.8723  0.4917  0.5638
  184SLPC   H2Y21050   3.102   4.317   3.799 -0.5685 -1.8146  1.7621
  184SLPC   C2321051   3.468   4.617   3.484  0.5850 -0.5641  0.4344
  184SLPC   H3R21052   3.391   4.696   3.473  0.5723 -0.4314  1.4336
  184SLPC   H3S21053   3.570   4.660   3.476  0.2363  0.1631 -0.3106
  184SLPC   C2421054   3.464   4.562   3.624  0.2611 -0.9035 -0.2119
  184SLPC   H4R21055   3.560   4.508   3.632  0.9491  0.2272 -0.6751
  184SLPC   H4S21056   3.380   4.490   3.637 -0.0572 -0.5357 -0.1899
  184SLPC   C2521057   3.459   4.679   3.728  0.3180 -0.0935  0.0867
  184SLPC   H5R21058   3.367   4.740   3.712  1.3160  1.5294  0.3787
  184SLPC   H5S21059   3.549   4.740   3.704  0.2933 -0.2846 -0.5131
  184SLPC   C2621060   3.459   4.630   3.870 -0.5219  0.0885 -0.0114
  184SLPC   H6R21061   3.553   4.574   3.891 -0.5407 -0.2570 -0.8244
  184SLPC   H6S21062   3.375   4.559   3.883 -0.2988 -0.2611 -0.4432
  184SLPC   C2721063   3.437   4.736   3.981  0.0056 -0.3070  0.3679
  184SLPC   H7R21064   3.326   4.748   3.977 -0.0642  0.1718  2.4284
  184SLPC   H7S21065   3.484   4.830   3.946 -0.1437 -0.8367 -1.3342
  184SLPC   C2821066   3.480   4.679   4.115 -0.2329 -0.6826 -0.4308
  184SLPC   H8R21067   3.477   4.568   4.117  0.6423 -0.7206  1.8445
  184SLPC   H8S21068   3.413   4.717   4.195  1.1784 -0.4341  0.6770
  184SLPC   C2921069   3.623   4.718   4.137  1.1757 -0.2238 -0.6422
  184SLPC   H9R21070   3.699   4.662   4.081  1.0000 -3.5628  2.1250
  184SLPC  C21021071   3.673   4.784   4.240  0.1733 -0.1341  0.4202
  184SLPC  H10R21072   3.782   4.794   4.246  0.2216 -0.6858  0.4912
  184SLPC  C21121073   3.597   4.857   4.349  0.6391  0.3520 -0.3450
  184SLPC  H11R21074   3.562   4.779   4.420 -1.4297  0.8225 -0.7972
  184SLPC  H11S21075   3.499   4.892   4.312 -0.2345  2.4372  3.4765
  184SLPC  C21221076   3.670   4.967   4.417  0.1225  0.4881  0.0449
  184SLPC  H12R21077   3.674   5.051   4.345  0.4843 -1.8523 -2.8250
  184SLPC  C21321078   3.737   4.969   4.531  0.5744  0.3947 -0.3679
  184SLPC  H13R21079   3.781   5.065   4.563 -0.2045  1.3164 -1.9180
  184SLPC  C21421080   3.747   4.865   4.641  0.0338  0.1116  0.1293
  184SLPC  H14R21081   3.856   4.856   4.661  0.1150 -1.4157 -0.8201
  184SLPC  H14S21082   3.717   4.764   4.605  1.4345 -0.3241  0.0918
  184SLPC  C21521083   3.665   4.897   4.773  0.0138  0.5507  0.1895
  184SLPC  H15R21084   3.561   4.906   4.737  0.4498  0.3204 -1.1943
  184SLPC  H15S21085   3.705   4.997   4.800 -0.2151  0.8036 -0.3941
  184SLPC  C21621086   3.687   4.789   4.874  0.1956 -0.0012  0.1834
  184SLPC  H16R21087   3.789   4.803   4.918  0.1337  0.3108  0.2314
  184SLPC  H16S21088   3.689   4.693   4.820 -0.8974  0.6199 -0.9963
  184SLPC  C21721089   3.577   4.786   4.978 -0.1459 -0.4456  0.2789
  184SLPC  H17R21090   3.589   4.689   5.031 -1.4227 -1.8383 -1.8323
  184SLPC  H17S21091   3.483   4.775   4.921 -1.3535  1.5603  1.7737
  184SLPC  C21821092   3.569   4.901   5.079  0.0894  0.5910 -0.6012
  184SLPC  H18R21093   3.552   4.999   5.029 -1.1845 -0.4672 -2.3319
  184SLPC  H18S21094   3.659   4.913   5.144 -0.4755  0.5235  0.1989
  184SLPC  H18T21095   3.488   4.883   5.152  0.0361  3.2690  0.1295
  184SLPC   C3321096   2.884   4.281   3.791  0.4714  0.0373  0.6440
  184SLPC   H3X21097   2.807   4.286   3.710  0.4829 -1.0051  0.5503
  184SLPC   H3Y21098   2.863   4.354   3.872  0.3547  1.2124 -0.4088
  184SLPC   C3421099   2.866   4.132   3.847  0.0455 -0.4849  0.3526
  184SLPC   H4X21100   2.944   4.120   3.925  0.1241 -1.1548  0.1742
  184SLPC   H4Y21101   2.863   4.052   3.770 -0.8112 -0.3694  0.2583
  184SLPC   C3521102   2.728   4.101   3.913 -0.6325 -0.3946  0.2827
  184SLPC   H5X21103   2.706   3.992   3.902 -1.9641 -0.1815  0.7018
  184SLPC   H5Y21104   2.662   4.150   3.839 -1.6996 -0.6495  1.0324
  184SLPC   C3621105   2.704   4.156   4.052  0.5712 -0.4308 -0.6953
  184SLPC   H6X21106   2.678   4.264   4.056  1.6943 -0.1663  0.2057
  184SLPC   H6Y21107   2.796   4.142   4.113 -1.5350 -2.0848  2.4127
  184SLPC   C3721108   2.589   4.083   4.121 -0.3778 -0.5296 -0.5155
  184SLPC   H7X21109   2.612   3.975   4.127  0.0850 -0.5481 -2.1420
  184SLPC   H7Y21110   2.491   4.095   4.069 -0.6059 -0.9720 -0.1900
  184SLPC   C3821111   2.578   4.135   4.269 -0.2343 -0.2497 -0.2129
  184SLPC   H8X21112   2.537   4.238   4.271 -0.2923 -0.2536 -0.9962
  184SLPC   H8Y21113   2.678   4.122   4.316 -0.3199  1.0202  0.3864
  184SLPC   C3921114   2.479   4.052   4.358 -0.0100  0.2301  0.2060
  184SLPC   H9X21115   2.512   3.946   4.349 -2.2320 -0.5928  1.0423
  184SLPC   H9Y21116   2.376   4.057   4.318  0.1890 -0.1324 -0.3611
  184SLPC  C31021117   2.471   4.097   4.505  0.9178 -0.8926  0.6103
  184SLPC  H10X21118   2.415   4.193   4.502  3.0318  0.4281  0.4479
  184SLPC  H10Y21119   2.567   4.129   4.551  0.4355  3.2030 -0.8083
  184SLPC  C31121120   2.394   4.001   4.592  0.7305 -1.0659  0.4512
  184SLPC  H11X21121   2.446   3.903   4.600  1.4044 -0.6396  1.6300
  184SLPC  H11Y21122   2.306   3.969   4.532 -2.1179  2.3534  2.3952
  184SLPC  C31221123   2.345   4.065   4.723 -0.5630 -0.3933  0.0780
  184SLPC  H12X21124   2.262   4.001   4.759 -0.2179 -1.3375 -0.7612
  184SLPC  H12Y21125   2.303   4.166   4.705  1.9669  0.1748 -4.1153
  184SLPC  C31321126   2.446   4.054   4.844  0.6287  0.9396  0.4192
  184SLPC  H13X21127   2.541   4.103   4.814  0.9671  1.3684  2.0741
  184SLPC  H13Y21128   2.473   3.950   4.871 -0.9600  0.7444  1.3726
  184SLPC  C31421129   2.393   4.136   4.956  0.5776 -0.3941  0.2771
  184SLPC  H14X21130   2.301   4.090   4.998  0.7213  0.9388  2.1833
  184SLPC  H14Y21131   2.366   4.237   4.920 -1.5367 -0.2017  2.1831
  184SLPC  C31521132   2.480   4.137   5.072 -0.3087  0.0885  0.5816
  184SLPC  H15X21133   2.431   4.200   5.149  0.5695  0.5885  0.7309
  184SLPC  H15Y21134   2.563   4.202   5.039  0.7109 -1.2410  0.4304
  184SLPC  C31621135   2.526   4.007   5.137  0.5859  0.4543  0.6053
  184SLPC  H16X21136   2.611   3.953   5.091  1.9087  1.6002  1.6193
  184SLPC  H16Y21137   2.439   3.939   5.128 -0.1344  1.5878 -2.4676
  184SLPC  C31721138   2.555   4.030   5.292  0.2029  0.0755 -0.3373
  184SLPC  H17X21139   2.469   4.060   5.355  0.9627 -0.7342  1.1349
  184SLPC  H17Y21140   2.632   4.110   5.280  2.9613 -2.3293  0.3531
  184SLPC  C31821141   2.634   3.918   5.351 -0.1004  0.0601 -0.0125
  184SLPC  H18X21142   2.677   3.950   5.448  0.1641 -0.4376  0.0364
  184SLPC  H18Y21143   2.714   3.892   5.279  0.7007 -0.5185  1.0599
  184SLPC  H18Z21144   2.580   3.823   5.367  0.8133 -0.3168  0.9851
  185POPC     N21145   0.463   5.528   8.248 -0.6013 -0.9340  0.1255
  185POPC   C1221146   0.473   5.581   8.105  0.0780  0.2895  0.6226
  185POPC  H12A21147   0.576   5.606   8.087  0.2081  1.0267  2.2008
  185POPC  H12B21148   0.412   5.671   8.105 -1.3611 -0.6437  1.5448
  185POPC   C1321149   0.318   5.476   8.256  0.1816  0.5826  0.3723
  185POPC  H13A21150   0.298   5.407   8.175  1.8332 -0.1740  0.5720
  185POPC  H13B21151   0.293   5.432   8.351  0.1972 -0.1024  0.0693
  185POPC  H13C21152   0.245   5.555   8.242 -2.5105 -1.9112 -0.6533
  185POPC   C1421153   0.556   5.415   8.280 -0.1741 -1.0436 -0.4067
  185POPC  H14A21154   0.529   5.379   8.379 -1.1355 -0.6968 -0.5363
  185POPC  H14B21155   0.526   5.340   8.208 -3.5363 -1.5892  1.3247
  185POPC  H14C21156   0.656   5.453   8.269 -0.7545  0.7326  0.2262
  185POPC   C1521157   0.489   5.649   8.341 -0.0199 -0.0103 -0.0898
  185POPC  H15A21158   0.491   5.614   8.443 -0.6757 -0.5271 -0.2455
  185POPC  H15B21159   0.417   5.728   8.329  1.2236  1.1520 -0.1007
  185POPC  H15C21160   0.581   5.704   8.325  0.6367 -0.5947  1.4508
  185POPC   C1121161   0.434   5.481   7.984  0.3616  0.1736  0.5495
  185POPC  H11A21162   0.446   5.535   7.888 -0.6342  1.7256  1.2426
  185POPC  H11B21163   0.324   5.461   7.983  0.1162  1.3861 -1.3267
  185POPC     P21164   0.425   5.215   8.008  0.1177 -0.0522  0.5419
  185POPC   O1321165   0.301   5.244   8.083  0.2048 -0.3704 -0.1422
  185POPC   O1421166   0.509   5.117   8.078  0.8260 -0.3368 -0.0818
  185POPC   O1221167   0.505   5.354   7.993  0.0094  0.1790 -0.2300
  185POPC   O1121168   0.399   5.168   7.866  0.0412 -0.4677 -0.4211
  185POPC    C121169   0.506   5.169   7.771  0.0997  0.4743 -0.0208
  185POPC    HA21170   0.562   5.074   7.788 -1.0732 -0.7108 -2.2918
  185POPC    HB21171   0.571   5.258   7.781 -0.5937  1.3234 -2.3505
  185POPC    C221172   0.458   5.184   7.626  0.2376 -0.8165  0.2032
  185POPC    HS21173   0.542   5.167   7.555  0.5101  0.6394  0.1380
  185POPC   O2121174   0.395   5.309   7.612  0.2231 -0.6142  0.4780
  185POPC   C2121175   0.463   5.397   7.549  0.1343 -0.6018 -1.0578
  185POPC   O2221176   0.567   5.379   7.488  0.3111 -0.7525 -0.0634
  185POPC   C2221177   0.396   5.537   7.581 -0.3501  0.7212 -0.6291
  185POPC   H2R21178   0.473   5.610   7.612 -0.5696 -0.2021  2.4594
  185POPC   H2S21179   0.327   5.525   7.668  0.2697 -2.6910 -0.4782
  185POPC    C321180   0.348   5.083   7.581 -0.4052  0.6330  0.0334
  185POPC    HX21181   0.250   5.099   7.630 -0.2981 -0.7642  0.7418
  185POPC    HY21182   0.397   4.990   7.616 -0.9754 -0.8982 -2.9337
  185POPC   O3121183   0.328   5.070   7.435 -0.0980  0.1782 -0.0405
  185POPC   C3121184   0.225   5.131   7.379  0.3177 -0.2295  0.0970
  185POPC   O3221185   0.144   5.201   7.445 -0.1172  0.4899  0.1819
  185POPC   C3221186   0.232   5.100   7.239  0.7531 -0.2812  0.3443
  185POPC   H2X21187   0.209   4.993   7.223 -2.5394 -0.1207  2.7175
  185POPC   H2Y21188   0.334   5.130   7.209  1.2605 -2.6728 -0.5080
  185POPC   C2321189   0.317   5.588   7.456 -0.6403 -0.2712  0.0569
  185POPC   H3R21190   0.244   5.669   7.479 -0.9856 -0.3236 -0.7934
  185POPC   H3S21191   0.248   5.508   7.420  0.0721 -0.2357 -1.4272
  185POPC   C2421192   0.404   5.653   7.343  0.3865  0.2818 -0.0119
  185POPC   H4R21193   0.469   5.568   7.313 -0.9642 -0.7971 -0.0418
  185POPC   H4S21194   0.447   5.751   7.372 -0.2467  0.7562 -0.6405
  185POPC   C2521195   0.325   5.686   7.218  0.5870 -0.7984 -0.2437
  185POPC   H5R21196   0.309   5.795   7.202 -1.4655 -0.9269  0.6018
  185POPC   H5S21197   0.225   5.637   7.219  0.2765 -0.2145 -1.0850
  185POPC   C2621198   0.391   5.633   7.093  0.1911  0.0513  0.4441
  185POPC   H6R21199   0.403   5.522   7.096 -3.2224 -0.4696 -0.2753
  185POPC   H6S21200   0.490   5.681   7.078  0.7751 -1.5058 -1.1357
  185POPC   C2721201   0.299   5.657   6.965  0.2239  0.0602  0.1746
  185POPC   H7R21202   0.304   5.766   6.945  1.9641 -0.0433 -0.1426
  185POPC   H7S21203   0.195   5.627   6.992  0.2176 -0.1732 -0.1113
  185POPC   C2821204   0.327   5.570   6.843  0.1570  0.0646 -0.4643
  185POPC   H8R21205   0.247   5.582   6.766  0.7001  2.6307 -0.7453
  185POPC   H8S21206   0.330   5.466   6.880 -1.9689  0.5360  1.1749
  185POPC   C2921207   0.465   5.622   6.795  0.4302  0.0229 -0.8777
  185POPC   H9121208   0.549   5.623   6.867  0.6527  0.5048 -1.1411
  185POPC  C21021209   0.502   5.639   6.669 -0.2397 -0.0351  0.3791
  185POPC  H10121210   0.604   5.673   6.645 -0.9478  0.5484 -2.1370
  185POPC  C21121211   0.419   5.624   6.539  0.2071  0.4030  0.0061
  185POPC  H11R21212   0.312   5.623   6.571  0.4966  0.4610  1.0224
  185POPC  H11S21213   0.444   5.532   6.482  0.0107 -0.7355  1.6656
  185POPC  C21221214   0.439   5.735   6.441  0.0135 -0.2725  0.4402
  185POPC  H12R21215   0.548   5.749   6.426  0.3812 -1.3460  1.8476
  185POPC  H12S21216   0.422   5.835   6.485  1.0982  0.2470 -0.2846
  185POPC  C21321217   0.371   5.724   6.306 -0.2442 -0.0935 -0.0302
  185POPC  H13R21218   0.374   5.822   6.254 -0.4670  0.0263  0.1796
  185POPC  H13S21219   0.263   5.696   6.313  0.3548 -2.7532 -0.3786
  185POPC  C21421220   0.445   5.632   6.209  0.0260 -0.1388  0.1565
  185POPC  H14R21221   0.405   5.529   6.216 -1.3932  0.2363 -1.5491
  185POPC  H14S21222   0.553   5.619   6.229  0.1174  1.3528  0.7579
  185POPC  C21521223   0.425   5.679   6.063  0.2758  0.3308 -0.2553
  185POPC  H15R21224   0.479   5.775   6.049  2.4149 -0.8417 -0.4507
  185POPC  H15S21225   0.314   5.687   6.053  0.2058  0.5284  0.5584
  185POPC  C21621226   0.476   5.586   5.952  0.0862 -0.3938  0.5627
  185POPC  H16R21227   0.437   5.632   5.859 -0.4175 -0.5336  0.7012
  185POPC  H16S21228   0.438   5.482   5.964  0.3910 -0.5567  0.1557
  185POPC  C21721229   0.631   5.574   5.945  0.2077 -0.0497 -0.1570
  185POPC  H17R21230   0.679   5.554   6.044  0.3214 -2.9628 -0.7253
  185POPC  H17S21231   0.668   5.676   5.921 -1.3963  0.5523 -0.1483
  185POPC  C21821232   0.682   5.473   5.832  0.3541 -0.5643 -0.3445
  185POPC  H18R21233   0.692   5.373   5.880  1.3824  0.4672  1.7061
  185POPC  H18S21234   0.787   5.494   5.801 -0.0697 -0.6822 -2.0000
  185POPC  H18T21235   0.610   5.473   5.747  1.5947 -2.2514 -1.4880
  185POPC   C3321236   0.133   5.180   7.151 -0.4096 -0.2014  0.2062
  185POPC   H3X21237   0.155   5.288   7.165  2.6980 -0.6534 -0.4369
  185POPC   H3Y21238   0.032   5.150   7.184 -0.7479  1.5448  0.8656
  185POPC   C3421239   0.126   5.143   7.009 -0.3265  0.0046 -0.1822
  185POPC   H4X21240   0.123   5.032   7.012 -1.0343  0.0400  1.3718
  185POPC   H4Y21241   0.219   5.170   6.955  0.0501  0.6528  0.7585
  185POPC   C3521242  -0.000   5.192   6.930 -0.0525 -0.5493  0.2459
  185POPC   H5X21243  -0.002   5.302   6.948  2.9378 -0.3645 -0.1140
  185POPC   H5Y21244  -0.083   5.132   6.974  0.9783 -1.5276  0.8823
  185POPC   C3621245   0.014   5.168   6.779 -0.3056 -0.3893  0.5088
  185POPC   H6X21246  -0.087   5.177   6.736 -0.5144  0.2107  1.1070
  185POPC   H6Y21247   0.042   5.063   6.757 -1.0554 -0.4063 -0.3982
  185POPC   C3721248   0.095   5.275   6.708  0.4895 -0.3816 -0.1324
  185POPC   H7X21249   0.199   5.280   6.747 -0.3992  0.0471  2.3811
  185POPC   H7Y21250   0.054   5.370   6.747 -2.1951 -1.4301 -0.2240
  185POPC   C3821251   0.087   5.262   6.557 -0.7696 -0.5464 -0.2346
  185POPC   H8X21252  -0.019   5.249   6.525 -1.2873  0.3735  1.0107
  185POPC   H8Y21253   0.145   5.181   6.507  2.8008  1.7256 -0.1255
  185POPC   C3921254   0.150   5.391   6.497 -0.3057  0.8928  0.9671
  185POPC   H9X21255   0.249   5.403   6.545  0.1977 -1.5165  0.6462
  185POPC   H9Y21256   0.068   5.463   6.519 -1.6367  0.0812 -1.0101
  185POPC  C31021257   0.160   5.388   6.343  0.0964  0.3275  0.1534
  185POPC  H10X21258   0.236   5.310   6.322 -0.5298 -0.0747 -0.6748
  185POPC  H10Y21259   0.200   5.486   6.311 -0.8899  0.5670 -0.3794
  185POPC  C31121260   0.023   5.351   6.276  0.2376 -0.2213 -0.4542
  185POPC  H11X21261  -0.063   5.377   6.341  0.9184 -0.9529  0.7971
  185POPC  H11Y21262   0.009   5.242   6.262 -1.0276 -0.0411 -0.6708
  185POPC  C31221263   0.021   5.419   6.140 -0.3676  0.6473 -0.4344
  185POPC  H12X21264   0.040   5.528   6.154 -1.1573  0.7787 -0.3606
  185POPC  H12Y21265  -0.084   5.425   6.104 -2.3350  1.3621  4.6190
  185POPC  C31321266   0.108   5.359   6.032 -0.1251  0.5220  0.4169
  185POPC  H13X21267   0.086   5.251   6.020 -0.0743  0.7430 -2.0328
  185POPC  H13Y21268   0.217   5.354   6.053 -0.2364 -1.2812  0.7491
  185POPC  C31421269   0.090   5.434   5.896 -0.7533 -0.7128 -1.0187
  185POPC  H14X21270   0.171   5.401   5.828 -0.0495 -1.8238  0.3038
  185POPC  H14Y21271   0.107   5.544   5.905  1.3941 -1.1843  2.1652
  185POPC  C31521272  -0.042   5.408   5.832 -0.3106 -0.5031  0.3454
  185POPC  H15X21273  -0.125   5.438   5.899 -1.6942 -2.2984 -0.4978
  185POPC  H15Y21274  -0.047   5.297   5.828 -0.3397 -0.5260  0.9580
  185POPC  C31621275  -0.053   5.467   5.694  0.3070 -0.0074  0.9224
  185POPC  H16X21276  -0.002   5.565   5.682  0.3916  0.0789  1.8906
  185POPC  H16Y21277  -0.163   5.462   5.677  0.2950 -0.5683  1.1495
  185POPC  H16Z21278  -0.011   5.401   5.615  2.0409 -1.6102  3.0657
  186POPC     N21279   3.544   5.683   8.268 -0.4017  1.1863  0.4014
  186POPC   C1221280   3.621   5.763   8.172 -0.0879  0.3561 -0.1077
  186POPC  H12A21281   3.724   5.729   8.181 -0.2023  0.4849  2.3082
  186POPC  H12B21282   3.630   5.861   8.217 -1.5247  0.5208 -0.1473
  186POPC   C1321283   3.561   5.538   8.246 -0.1758 -0.3482 -0.0064
  186POPC  H13A21284   3.528   5.504   8.149 -0.8380  0.3816 -0.0376
  186POPC  H13B21285   3.667   5.517   8.242  0.1241  0.8000  1.2665
  186POPC  H13C21286   3.520   5.480   8.327  1.4705 -0.0981  1.0713
  186POPC   C1421287   3.595   5.703   8.415 -0.3794  0.1117 -0.8417
  186POPC  H14A21288   3.541   5.632   8.475 -0.2445 -0.4432 -1.3717
  186POPC  H14B21289   3.698   5.670   8.419 -0.6960 -0.8454 -0.2602
  186POPC  H14C21290   3.583   5.804   8.453 -0.2519  0.1187 -0.8184
  186POPC   C1521291   3.405   5.727   8.258  0.0183 -0.3393  0.0208
  186POPC  H15A21292   3.395   5.822   8.310 -2.7075 -0.4330 -0.1752
  186POPC  H15B21293   3.330   5.672   8.313 -0.2185  1.2093  1.3208
  186POPC  H15C21294   3.365   5.747   8.160  0.6528 -1.1820 -0.4155
  186POPC   C1121295   3.584   5.776   8.022  0.7760 -0.5920  0.3922
  186POPC  H11A21296   3.681   5.809   7.980  2.0703 -1.2555  2.7108
  186POPC  H11B21297   3.518   5.864   8.007  0.9769 -0.4338  0.4327
  186POPC     P21298   3.415   5.647   7.890 -0.2553 -0.5197 -0.1363
  186POPC   O1321299   3.316   5.736   7.960 -0.3814  0.3109  0.1333
  186POPC   O1421300   3.385   5.507   7.860  0.3220  0.0038  0.3524
  186POPC   O1221301   3.552   5.649   7.964  0.2224  0.4108  0.0958
  186POPC   O1121302   3.461   5.713   7.757  0.1806  0.0106 -0.0262
  186POPC    C121303   3.555   5.654   7.664  0.4160  0.3539 -0.3966
  186POPC    HA21304   3.500   5.655   7.567  1.6169  1.1410 -1.0953
  186POPC    HB21305   3.574   5.548   7.693 -0.4373  0.8827  2.4027
  186POPC    C221306   3.685   5.736   7.659  0.3483 -0.3693  0.6853
  186POPC    HS21307   3.720   5.745   7.764 -0.5562 -0.7700  1.0340
  186POPC   O2121308   3.650   5.861   7.588  0.2365  0.3382  0.2299
  186POPC   C2121309   3.738   5.957   7.605 -0.1392 -0.0168  0.0409
  186POPC   O2221310   3.841   5.944   7.665 -0.1597 -0.0125 -0.1492
  186POPC   C2221311   3.691   6.083   7.533 -0.0951 -0.8329  0.4470
  186POPC   H2R21312   3.701   6.170   7.601 -2.0917 -0.7258  0.6635
  186POPC   H2S21313   3.586   6.074   7.498 -0.8343  0.4336  2.1812
  186POPC    C321314   3.800   5.657   7.584  0.4075  0.2985 -0.0772
  186POPC    HX21315   3.824   5.580   7.660 -2.1837 -0.9829 -0.4433
  186POPC    HY21316   3.888   5.723   7.568 -0.9626  2.0495 -0.7539
  186POPC   O3121317   3.760   5.591   7.459  0.3116 -0.4202  0.3344
  186POPC   C3121318   3.862   5.520   7.424  0.6264  0.6543 -0.4767
  186POPC   O3221319   3.973   5.515   7.468  0.9988 -0.1273  0.4172
  186POPC   C3221320   3.817   5.424   7.308 -0.7891 -0.0976  0.1129
  186POPC   H2X21321   3.706   5.420   7.317 -0.8015  0.5991  0.3451
  186POPC   H2Y21322   3.860   5.322   7.312 -0.8693 -0.2821 -2.2699
  186POPC   C2321323   3.781   6.106   7.403 -0.0983  0.0342  1.1574
  186POPC   H3R21324   3.887   6.103   7.435  0.3292  0.8441 -0.0943
  186POPC   H3S21325   3.763   6.210   7.368 -3.1390 -0.7872 -0.1199
  186POPC   C2421326   3.754   5.994   7.302  0.3350  0.2928  0.4295
  186POPC   H4R21327   3.643   5.990   7.295  0.4246  0.4147 -1.3522
  186POPC   H4S21328   3.794   5.900   7.346  0.3421 -0.2494 -0.6969
  186POPC   C2521329   3.817   6.019   7.170 -0.7581 -0.8148 -0.1973
  186POPC   H5R21330   3.920   6.057   7.186 -0.9401  0.4001 -1.7097
  186POPC   H5S21331   3.760   6.106   7.132 -0.4015 -1.0904 -1.4122
  186POPC   C2621332   3.808   5.894   7.080  0.6842  0.0018  0.0630
  186POPC   H6R21333   3.713   5.837   7.073 -0.4167  1.4780  1.9640
  186POPC   H6S21334   3.875   5.815   7.120 -0.3930 -0.6482  0.6452
  186POPC   C2721335   3.864   5.926   6.936 -0.2311 -0.4207  0.1168
  186POPC   H7R21336   3.964   5.971   6.959 -0.6213  0.1832  0.6878
  186POPC   H7S21337   3.786   6.001   6.908 -1.6182 -1.7322  0.3796
  186POPC   C2821338   3.878   5.797   6.860 -0.1425  0.2322 -0.2048
  186POPC   H8R21339   3.928   5.718   6.920  1.4309  0.8590 -0.6605
  186POPC   H8S21340   3.939   5.819   6.770  0.0354 -0.6112 -0.2961
  186POPC   C2921341   3.738   5.749   6.811 -0.7163 -0.4353 -0.3445
  186POPC   H9121342   3.665   5.738   6.892 -1.1191  0.9017 -0.4931
  186POPC  C21021343   3.703   5.721   6.683 -0.8513 -0.0292  0.2063
  186POPC  H10121344   3.599   5.685   6.671 -0.8297  0.7382 -3.3788
  186POPC  C21121345   3.785   5.732   6.558 -0.4196 -0.2396  0.0559
  186POPC  H11R21346   3.797   5.633   6.510 -3.6066 -0.6534 -0.1330
  186POPC  H11S21347   3.886   5.767   6.587  0.2819 -4.0920  3.1300
  186POPC  C21221348   3.712   5.819   6.457  0.1509  0.4787 -0.4148
  186POPC  H12R21349   3.674   5.912   6.505  0.5230  0.3393  0.1683
  186POPC  H12S21350   3.622   5.766   6.420 -0.5906  1.4954 -0.0913
  186POPC  C21321351   3.794   5.851   6.335 -0.2091  0.4400 -0.2792
  186POPC  H13R21352   3.838   5.757   6.296  0.6817 -0.0669  1.8209
  186POPC  H13S21353   3.884   5.908   6.364  1.1286 -1.1654 -1.0845
  186POPC  C21421354   3.714   5.906   6.216 -0.6309 -0.2725 -0.0423
  186POPC  H14R21355   3.681   6.009   6.244 -3.2795 -1.5555  1.9645
  186POPC  H14S21356   3.618   5.852   6.201 -1.2835  0.2257  2.0402
  186POPC  C21521357   3.798   5.917   6.095  0.4540 -0.1813 -0.4041
  186POPC  H15R21358   3.856   5.828   6.062  2.0556  0.3568  0.8063
  186POPC  H15S21359   3.867   6.004   6.098  1.1765 -0.6112 -2.5297
  186POPC  C21621360   3.708   5.949   5.969  0.5446  1.0566  0.1935
  186POPC  H16R21361   3.641   6.033   5.999  0.5755  0.7353  1.1946
  186POPC  H16S21362   3.636   5.866   5.956 -0.4528  1.9116  0.0931
  186POPC  C21721363   3.780   5.995   5.850 -0.5311  0.7162 -0.1284
  186POPC  H17R21364   3.844   5.913   5.811 -0.0824  1.4043 -0.8633
  186POPC  H17S21365   3.845   6.082   5.875 -0.1572  0.7361 -1.1349
  186POPC  C21821366   3.691   6.036   5.740  0.0810 -0.1906  0.9958
  186POPC  H18R21367   3.597   5.976   5.741  0.4196 -0.9180 -1.7940
  186POPC  H18S21368   3.732   6.036   5.637 -1.7853  1.2930  0.1916
  186POPC  H18T21369   3.642   6.134   5.755 -0.5490  0.1812 -2.6871
  186POPC   C3321370   3.864   5.487   7.171 -0.0814  0.3378  0.0251
  186POPC   H3X21371   3.863   5.598   7.168 -1.6355  0.3376 -0.3154
  186POPC   H3Y21372   3.782   5.461   7.101  1.2719  1.5102 -2.1249
  186POPC   C3421373   3.994   5.424   7.116  0.9968 -0.4576 -0.2784
  186POPC   H4X21374   4.075   5.419   7.192  0.6396 -2.0816  0.0332
  186POPC   H4Y21375   4.036   5.503   7.049  0.8315  0.4982  0.7068
  186POPC   C3521376   3.991   5.288   7.045  0.1497  0.1135 -1.0347
  186POPC   H5X21377   3.962   5.215   7.123 -0.0580  1.3520  0.0826
  186POPC   H5Y21378   4.096   5.268   7.012  0.3024  0.0382 -0.5121
  186POPC   C3621379   3.916   5.269   6.911 -0.3180  0.3703  0.0614
  186POPC   H6X21380   3.810   5.294   6.930  0.3292  0.4581  4.6865
  186POPC   H6Y21381   3.914   5.163   6.878  0.3376  0.4205 -0.1593
  186POPC   C3721382   3.977   5.354   6.795 -0.6168 -0.1924  0.3449
  186POPC   H7X21383   4.086   5.339   6.786 -0.8044 -1.2574 -0.4205
  186POPC   H7Y21384   3.964   5.458   6.831 -0.0668 -0.7248  2.1823
  186POPC   C3821385   3.901   5.329   6.668  0.2793 -0.0661  0.5654
  186POPC   H8X21386   3.907   5.423   6.610  0.5351  0.3718  1.2916
  186POPC   H8Y21387   3.794   5.298   6.676  0.2484 -0.1127 -0.0243
  186POPC   C3921388   3.981   5.222   6.594  0.5898 -0.0851  0.4896
  186POPC   H9X21389   4.009   5.139   6.663  1.3884 -0.1186  0.1356
  186POPC   H9Y21390   4.077   5.264   6.556 -0.0379 -0.8285 -2.1581
  186POPC  C31021391   3.902   5.147   6.481 -0.0957 -0.1309  0.6005
  186POPC  H10X21392   3.818   5.206   6.438  0.0144 -0.0473  0.5012
  186POPC  H10Y21393   3.835   5.073   6.531 -1.8814  0.7558 -0.3914
  186POPC  C31121394   3.985   5.100   6.368  0.7510  0.1508  0.1830
  186POPC  H11X21395   3.917   5.061   6.289  0.5126 -0.2726  0.5876
  186POPC  H11Y21396   4.047   5.015   6.403 -0.1308  0.3308  2.3663
  186POPC  C31221397   4.059   5.204   6.297 -1.3245 -0.0264 -1.0082
  186POPC  H12X21398   4.130   5.150   6.231 -0.3335  0.6289 -0.4945
  186POPC  H12Y21399   4.134   5.253   6.363  1.1580 -1.5521 -2.5283
  186POPC  C31321400   3.968   5.306   6.223  0.3783 -0.2568 -0.1735
  186POPC  H13X21401   4.017   5.393   6.173  1.2704 -1.6476 -1.8089
  186POPC  H13Y21402   3.902   5.334   6.308 -1.8790 -3.4740 -0.6867
  186POPC  C31421403   3.873   5.249   6.114  0.1494 -1.1045  0.2482
  186POPC  H14X21404   3.776   5.303   6.124 -0.5117 -2.0521 -0.9170
  186POPC  H14Y21405   3.852   5.141   6.125  2.3060 -1.6608 -0.6462
  186POPC  C31521406   3.930   5.280   5.978 -0.2026 -0.3750  0.5119
  186POPC  H15X21407   3.932   5.391   5.966 -0.4211 -0.4867 -0.7017
  186POPC  H15Y21408   3.866   5.249   5.892  0.6415 -0.6222 -0.0465
  186POPC  C31621409   4.075   5.228   5.956 -0.1408 -0.1012 -0.3646
  186POPC  H16X21410   4.143   5.266   6.035  0.0893 -0.7008 -0.2732
  186POPC  H16Y21411   4.117   5.262   5.859 -0.9448  1.5985 -0.1674
  186POPC  H16Z21412   4.071   5.117   5.959 -0.3236 -0.1100 -0.8254
  187POPC     N21413   1.317   5.319   3.350  0.3193  0.2717  0.3258
  187POPC   C1221414   1.428   5.320   3.450  0.5077 -0.1303  0.2622
  187POPC  H12A21415   1.523   5.304   3.402 -0.8010 -2.0658 -1.8517
  187POPC  H12B21416   1.413   5.239   3.519 -0.3065  0.6217  0.9980
  187POPC   C1321417   1.191   5.325   3.419  0.5019 -0.3520 -1.0492
  187POPC  H13A21418   1.186   5.419   3.473  1.8723 -1.2962  0.8704
  187POPC  H13B21419   1.105   5.303   3.358 -0.7584 -0.4921  0.7054
  187POPC  H13C21420   1.191   5.253   3.500  2.5791  0.1280 -0.5405
  187POPC   C1421421   1.317   5.431   3.252  0.4716  0.1008  0.1031
  187POPC  H14A21422   1.391   5.420   3.174  0.5644 -2.1855  0.4403
  187POPC  H14B21423   1.222   5.437   3.201  1.3763  2.3479 -1.4755
  187POPC  H14C21424   1.317   5.522   3.310  0.9337  0.7349 -0.8694
  187POPC   C1521425   1.325   5.189   3.275  0.1933  0.0406 -0.7190
  187POPC  H15A21426   1.322   5.114   3.352  1.4328  2.2899  1.7044
  187POPC  H15B21427   1.416   5.186   3.218 -0.1805 -0.0554 -1.3122
  187POPC  H15C21428   1.246   5.177   3.202 -0.6464 -0.4278  0.2354
  187POPC   C1121429   1.447   5.451   3.530 -0.9589 -0.7249  0.4514
  187POPC  H11A21430   1.499   5.427   3.626  0.2772  0.8689  0.2276
  187POPC  H11B21431   1.352   5.499   3.562 -1.5945 -2.0005  0.5310
  187POPC     P21432   1.672   5.521   3.410  0.1417 -0.4298 -0.4381
  187POPC   O1321433   1.721   5.640   3.332 -0.4806 -0.2277 -0.5507
  187POPC   O1421434   1.688   5.388   3.350 -0.4259  0.4881  1.1828
  187POPC   O1221435   1.523   5.546   3.452  0.3886 -0.1291 -0.5324
  187POPC   O1121436   1.748   5.518   3.549  0.0649 -0.1337  0.6325
  187POPC    C121437   1.822   5.626   3.602 -0.5360 -0.1394 -0.0413
  187POPC    HA21438   1.757   5.714   3.622 -1.4139 -0.9306  0.7191
  187POPC    HB21439   1.899   5.660   3.531  0.2558  3.3311  2.2009
  187POPC    C221440   1.883   5.602   3.741  0.2448  0.7114  0.4788
  187POPC    HS21441   1.972   5.667   3.756  1.0143 -0.6406  2.1020
  187POPC   O2121442   1.921   5.465   3.755 -0.5194  0.4714  0.1197
  187POPC   C2121443   2.023   5.429   3.677 -0.4702 -0.3856 -0.7123
  187POPC   O2221444   2.092   5.498   3.608  0.0822 -0.2577  0.2902
  187POPC   C2221445   2.037   5.279   3.696  0.9867 -0.3685 -0.1162
  187POPC   H2R21446   2.122   5.239   3.636  1.6987  0.9010  0.0106
  187POPC   H2S21447   1.948   5.227   3.656  1.0786 -0.8352  0.2736
  187POPC    C321448   1.775   5.635   3.855 -0.2455 -0.0510 -0.2673
  187POPC    HX21449   1.686   5.577   3.820  0.2355 -0.8750 -0.1454
  187POPC    HY21450   1.737   5.739   3.862 -0.4475 -0.0651 -1.0654
  187POPC   O3121451   1.818   5.587   3.991  0.0873 -0.0767 -0.2881
  187POPC   C3121452   1.915   5.659   4.052  0.4712  0.4073  0.0341
  187POPC   O3221453   1.965   5.758   4.007  0.5759  0.0363  0.2910
  187POPC   C3221454   1.941   5.599   4.194 -0.1644  0.5848 -0.2085
  187POPC   H2X21455   2.028   5.539   4.162 -0.0334 -0.0721  1.2756
  187POPC   H2Y21456   1.855   5.534   4.223  0.1131  0.3929  0.1808
  187POPC   C2321457   2.058   5.220   3.837  0.2108 -0.4928  0.5822
  187POPC   H3R21458   1.969   5.159   3.864  1.2690 -1.8818  1.0653
  187POPC   H3S21459   2.063   5.296   3.918  0.4650 -0.6344  0.6994
  187POPC   C2421460   2.169   5.123   3.853 -0.0363  0.1522 -0.0590
  187POPC   H4R21461   2.173   5.115   3.964  1.0328 -2.9274 -0.2281
  187POPC   H4S21462   2.274   5.144   3.825  0.9663 -0.8713  2.6024
  187POPC   C2521463   2.132   4.982   3.802  0.0838 -0.2511 -0.4248
  187POPC   H5R21464   2.095   5.009   3.701 -0.4404  0.6769 -0.0008
  187POPC   H5S21465   2.053   4.935   3.864 -0.7889  1.6605 -0.0053
  187POPC   C2621466   2.252   4.889   3.806  0.0714  0.0407  0.2020
  187POPC   H6R21467   2.283   4.877   3.912 -1.4579 -0.8963  0.5805
  187POPC   H6S21468   2.346   4.929   3.763 -0.1613  0.0262 -0.3237
  187POPC   C2721469   2.220   4.740   3.760  0.2913  0.1448 -0.4444
  187POPC   H7R21470   2.185   4.747   3.655  0.8618  4.2954 -0.5260
  187POPC   H7S21471   2.134   4.691   3.810 -0.6590  1.9576 -0.1931
  187POPC   C2821472   2.353   4.655   3.777  0.4280  0.0631  0.3560
  187POPC   H8R21473   2.409   4.702   3.860 -0.5199  1.1331  0.4178
  187POPC   H8S21474   2.418   4.677   3.690 -1.0649  0.6595 -0.6664
  187POPC   C2921475   2.330   4.507   3.788  0.3405  0.0907 -0.1396
  187POPC   H9121476   2.342   4.449   3.695 -4.0816 -0.9644 -0.2746
  187POPC  C21021477   2.322   4.435   3.904 -0.9630  0.7238 -0.2367
  187POPC  H10121478   2.309   4.326   3.905  1.0778  0.4279 -0.5847
  187POPC  C21121479   2.325   4.491   4.044 -0.5999 -0.6710  0.4182
  187POPC  H11R21480   2.274   4.590   4.045 -1.0431 -0.8962  1.1704
  187POPC  H11S21481   2.427   4.506   4.084 -0.7545  2.1902 -0.0453
  187POPC  C21221482   2.245   4.394   4.138  0.0888 -0.6555 -0.1693
  187POPC  H12R21483   2.304   4.299   4.145  0.4474 -0.3034  2.1662
  187POPC  H12S21484   2.144   4.373   4.096  0.8704 -1.3737 -1.7856
  187POPC  C21321485   2.233   4.464   4.275  0.2195  0.8778  0.8784
  187POPC  H13R21486   2.158   4.545   4.261 -0.7686  0.1647  1.8884
  187POPC  H13S21487   2.330   4.500   4.315  1.7164  1.3227 -2.7384
  187POPC  C21421488   2.182   4.355   4.374 -0.4702  0.0836 -0.5133
  187POPC  H14R21489   2.268   4.288   4.396 -1.8123 -1.4492  0.2948
  187POPC  H14S21490   2.102   4.293   4.329 -1.4274  0.6723  0.3357
  187POPC  C21521491   2.135   4.403   4.505 -0.2139  0.0665  0.1659
  187POPC  H15R21492   2.088   4.327   4.570  1.8818  1.5307  3.6377
  187POPC  H15S21493   2.061   4.484   4.484 -0.0690 -0.0813 -0.9789
  187POPC  C21621494   2.245   4.478   4.577 -0.3344  0.0333  0.4581
  187POPC  H16R21495   2.268   4.568   4.516 -4.2851  0.7894 -0.2422
  187POPC  H16S21496   2.336   4.415   4.577 -1.9473 -2.4415 -1.0357
  187POPC  C21721497   2.217   4.522   4.719  0.9805 -0.4665  0.0398
  187POPC  H17R21498   2.158   4.447   4.775 -1.3497  0.2622 -1.3121
  187POPC  H17S21499   2.166   4.620   4.729  2.2746  0.0409  2.2972
  187POPC  C21821500   2.345   4.533   4.797  0.1978 -0.0139  0.7247
  187POPC  H18R21501   2.313   4.566   4.898 -1.9946  2.6916 -0.7279
  187POPC  H18S21502   2.403   4.606   4.737 -0.5133  0.7749  0.9883
  187POPC  H18T21503   2.380   4.427   4.805  0.3696  0.1094  1.8341
  187POPC   C3321504   1.989   5.709   4.279  0.2411  0.4824 -0.5434
  187POPC   H3X21505   2.000   5.810   4.233  1.0045  0.8911  0.4926
  187POPC   H3Y21506   2.085   5.689   4.331 -0.0292  1.6478  0.4355
  187POPC   C3421507   1.894   5.726   4.398 -0.3983  0.3935 -0.6039
  187POPC   H4X21508   1.835   5.634   4.417  3.4709 -1.8344  1.9605
  187POPC   H4Y21509   1.812   5.798   4.375 -1.2000 -0.4157 -0.3318
  187POPC   C3521510   1.954   5.748   4.538 -0.1683  0.2019 -0.1236
  187POPC   H5X21511   2.035   5.824   4.531  1.7117 -1.7066 -0.0909
  187POPC   H5Y21512   2.022   5.672   4.584  1.5949  0.4780 -2.0987
  187POPC   C3621513   1.851   5.799   4.637  0.2034  0.7708  0.3419
  187POPC   H6X21514   1.764   5.734   4.619  0.7567  0.1373 -0.0755
  187POPC   H6Y21515   1.831   5.907   4.619  0.6332  0.6123 -1.1814
  187POPC   C3721516   1.896   5.781   4.780 -0.0781 -0.4891 -0.2070
  187POPC   H7X21517   1.813   5.814   4.847  0.9905  0.5986  0.6394
  187POPC   H7Y21518   1.980   5.852   4.797 -1.7260  1.6026 -0.3816
  187POPC   C3821519   1.931   5.632   4.816 -0.1539  0.3174  0.4418
  187POPC   H8X21520   2.018   5.587   4.764 -1.9728 -1.9266 -0.8623
  187POPC   H8Y21521   1.843   5.575   4.780 -0.8166  1.3841  0.3246
  187POPC   C3921522   1.955   5.613   4.969 -0.4852  0.4529 -0.3955
  187POPC   H9X21523   2.031   5.681   5.014  1.1529 -0.4088 -1.7579
  187POPC   H9Y21524   1.981   5.506   4.983 -0.1563  0.6890  0.9173
  187POPC  C31021525   1.819   5.619   5.043  0.4351  0.5189  0.1613
  187POPC  H10X21526   1.740   5.581   4.974  1.7466 -2.4662  0.1890
  187POPC  H10Y21527   1.788   5.725   5.060  1.1197  1.1311 -2.0486
  187POPC  C31121528   1.812   5.525   5.162  0.1656  0.7472 -0.3180
  187POPC  H11X21529   1.886   5.546   5.242  0.4542  0.1137 -0.4084
  187POPC  H11Y21530   1.828   5.421   5.127  1.6343  0.5724  0.7585
  187POPC  C31221531   1.678   5.547   5.234  0.9548  0.3615  0.1192
  187POPC  H12X21532   1.598   5.521   5.161  1.8803 -0.5842 -0.5997
  187POPC  H12Y21533   1.665   5.650   5.274  1.0219  0.0041  1.1065
  187POPC  C31321534   1.662   5.444   5.353  1.0676 -0.3939 -0.4900
  187POPC  H13X21535   1.570   5.462   5.413  1.1346  1.4111 -0.8732
  187POPC  H13Y21536   1.741   5.474   5.425 -1.1680  0.6915  1.7023
  187POPC  C31421537   1.687   5.292   5.338  0.2876 -0.4381  0.4634
  187POPC  H14X21538   1.790   5.283   5.299  0.4983  1.6070  0.4193
  187POPC  H14Y21539   1.621   5.253   5.257 -0.6964  0.2116  0.9239
  187POPC  C31521540   1.692   5.218   5.471  0.5147 -0.1406  0.3209
  187POPC  H15X21541   1.768   5.269   5.533  1.3892 -0.1526 -0.7055
  187POPC  H15Y21542   1.717   5.111   5.454  1.6942 -0.0685  1.4758
  187POPC  C31621543   1.560   5.223   5.555 -0.2935  0.0083 -0.2966
  187POPC  H16X21544   1.504   5.316   5.579 -0.9099 -0.5268  0.3765
  187POPC  H16Y21545   1.563   5.162   5.648  0.5183  0.7192  0.1620
  187POPC  H16Z21546   1.484   5.176   5.490  0.1837  0.5518 -1.2784
  188POPC     N21547   1.432   3.944   3.335  0.0355 -0.2305 -0.0115
  188POPC   C1221548   1.566   4.022   3.331 -0.1957 -0.2034 -0.2358
  188POPC  H12A21549   1.545   4.128   3.334  0.9527  0.0464 -0.4061
  188POPC  H12B21550   1.612   3.993   3.237 -0.7100 -0.5272 -0.3934
  188POPC   C1321551   1.446   3.795   3.370 -0.5584  0.2525 -0.4209
  188POPC  H13A21552   1.513   3.792   3.455 -1.4301  2.0156  0.3761
  188POPC  H13B21553   1.348   3.750   3.383  0.4821 -1.5724  1.7614
  188POPC  H13C21554   1.498   3.740   3.293  1.3652  1.4592 -0.0467
  188POPC   C1421555   1.345   3.999   3.445 -0.1758 -0.0163 -0.1157
  188POPC  H14A21556   1.418   4.020   3.521  0.9445  0.4481 -1.2920
  188POPC  H14B21557   1.306   4.097   3.419 -0.4709 -0.1536 -0.1995
  188POPC  H14C21558   1.263   3.938   3.479  0.0176  0.4816  1.3171
  188POPC   C1521559   1.372   3.947   3.194 -0.1294  0.0921 -0.2717
  188POPC  H15A21560   1.431   3.882   3.131  1.1935  2.5944 -1.8043
  188POPC  H15B21561   1.354   4.041   3.144 -0.0192 -1.7022 -4.0754
  188POPC  H15C21562   1.274   3.902   3.194 -0.6257  1.0019 -2.9964
  188POPC   C1121563   1.664   3.996   3.448 -0.6167  0.2636 -0.5091
  188POPC  H11A21564   1.764   4.032   3.416  0.6966 -1.5358  1.3308
  188POPC  H11B21565   1.686   3.891   3.475 -1.1220  0.6229  1.4815
  188POPC     P21566   1.626   4.215   3.582 -0.0707 -0.3510  0.3469
  188POPC   O1321567   1.560   4.250   3.710 -0.3173  0.4653 -0.3131
  188POPC   O1421568   1.577   4.283   3.458  0.4472  0.3818 -0.7667
  188POPC   O1221569   1.616   4.055   3.565 -0.2570  0.3791 -0.2249
  188POPC   O1121570   1.774   4.252   3.594  0.0093  0.4706 -0.0556
  188POPC    C121571   1.855   4.189   3.697  0.4664 -0.4604  0.2529
  188POPC    HA21572   1.955   4.178   3.651  0.2511  0.1956 -0.3865
  188POPC    HB21573   1.806   4.094   3.730 -0.0797 -0.8821 -1.6409
  188POPC    C221574   1.879   4.290   3.818 -0.0599  0.1320 -0.4645
  188POPC    HS21575   1.958   4.244   3.881  1.8100  0.4298 -2.4732
  188POPC   O2121576   1.758   4.315   3.889 -0.1822  0.4635 -0.0918
  188POPC   C2121577   1.707   4.223   3.968  0.0650 -0.6634 -0.4081
  188POPC   O2221578   1.760   4.116   3.987 -0.1096 -0.0163  0.3448
  188POPC   C2221579   1.578   4.263   4.028  0.5006 -0.2490  0.1456
  188POPC   H2R21580   1.504   4.191   3.988 -0.8481  1.0648  0.1867
  188POPC   H2S21581   1.546   4.368   4.012 -0.2168 -0.4699  0.1218
  188POPC    C321582   1.932   4.428   3.765 -0.2127  0.2894 -0.1651
  188POPC    HX21583   1.864   4.470   3.688  1.2641  0.7556 -1.2579
  188POPC    HY21584   2.022   4.404   3.706 -0.5952 -0.2185 -0.5572
  188POPC   O3121585   1.965   4.515   3.873  0.7662 -0.0538 -0.2271
  188POPC   C3121586   1.865   4.595   3.913 -0.4374 -0.1255 -0.3261
  188POPC   O3221587   1.768   4.628   3.850 -0.4971 -0.3943  0.0079
  188POPC   C3221588   1.898   4.648   4.050  0.2690  0.2312  0.0188
  188POPC   H2X21589   2.008   4.663   4.055  0.0797  1.5190  0.9078
  188POPC   H2Y21590   1.858   4.581   4.128  1.1089  0.4493  0.6431
  188POPC   C2321591   1.570   4.227   4.185 -0.0899  0.0611  0.5762
  188POPC   H3R21592   1.609   4.123   4.186 -0.8331 -0.2253  1.1148
  188POPC   H3S21593   1.467   4.199   4.216  0.2261 -3.3255 -1.0208
  188POPC   C2421594   1.642   4.325   4.271 -0.1037  0.4874 -0.1691
  188POPC   H4R21595   1.591   4.424   4.266  0.2732  0.6635 -0.6310
  188POPC   H4S21596   1.747   4.334   4.237  1.0832 -4.3711  1.4680
  188POPC   C2521597   1.641   4.270   4.409  0.2017  0.1508  0.4143
  188POPC   H5R21598   1.677   4.165   4.410  0.6271  0.2349 -1.4324
  188POPC   H5S21599   1.536   4.267   4.445  0.0666 -3.3944  0.0894
  188POPC   C2621600   1.721   4.352   4.514 -0.0726  0.6527  0.0336
  188POPC   H6R21601   1.679   4.455   4.509  0.1820  0.7000 -2.6966
  188POPC   H6S21602   1.829   4.351   4.489 -0.3956 -2.5415 -1.7463
  188POPC   C2721603   1.693   4.311   4.659 -0.3664 -0.1254 -0.6207
  188POPC   H7R21604   1.717   4.203   4.673 -0.9612 -0.3622 -1.3495
  188POPC   H7S21605   1.589   4.326   4.695 -0.4520  2.2044 -1.7019
  188POPC   C2821606   1.778   4.399   4.754  0.6892  0.3193  0.1425
  188POPC   H8R21607   1.751   4.501   4.718 -4.1250 -1.1288 -1.1834
  188POPC   H8S21608   1.883   4.377   4.727  0.5114 -1.4032  0.7036
  188POPC   C2921609   1.756   4.367   4.898  0.3720  0.1936  0.0275
  188POPC   H9121610   1.744   4.263   4.934 -0.6613  0.3686  0.2313
  188POPC  C21021611   1.746   4.463   4.996 -0.2055  0.5333 -0.1221
  188POPC  H10121612   1.736   4.425   5.098 -1.8426 -1.0016 -0.8155
  188POPC  C21121613   1.759   4.609   4.975  0.4012 -0.2273 -0.0045
  188POPC  H11R21614   1.767   4.636   4.868 -1.9853 -0.6230 -0.3316
  188POPC  H11S21615   1.845   4.655   5.028  0.0832  0.4794 -0.0831
  188POPC  C21221616   1.635   4.693   5.006  0.1312  0.8790  0.1722
  188POPC  H12R21617   1.544   4.634   4.980  1.1742  0.4591 -2.9108
  188POPC  H12S21618   1.639   4.784   4.943  0.1129  0.6705 -0.1276
  188POPC  C21321619   1.624   4.743   5.154  0.0059 -0.0204  0.0648
  188POPC  H13R21620   1.703   4.820   5.169 -0.0012 -0.3282  1.8385
  188POPC  H13S21621   1.651   4.665   5.229  0.0872  0.1023  0.1636
  188POPC  C21421622   1.489   4.808   5.173 -1.5926  0.1301 -0.2458
  188POPC  H14R21623   1.435   4.850   5.086 -0.6916  2.1618  0.1107
  188POPC  H14S21624   1.492   4.902   5.231 -0.0486 -0.9627  1.5741
  188POPC  C21521625   1.391   4.706   5.230  0.2172  0.2498 -0.3103
  188POPC  H15R21626   1.437   4.671   5.325  0.4424  2.6902  0.5476
  188POPC  H15S21627   1.365   4.629   5.154 -2.4227  2.1920 -1.5468
  188POPC  C21621628   1.253   4.767   5.256  0.1219 -0.5085 -0.3770
  188POPC  H16R21629   1.184   4.680   5.265  1.7091 -1.7657 -0.0028
  188POPC  H16S21630   1.225   4.825   5.166 -2.8783  0.6560  1.1717
  188POPC  C21721631   1.238   4.863   5.375 -0.2247 -0.0768  0.2475
  188POPC  H17R21632   1.193   4.956   5.334 -0.8223 -0.7004 -0.5681
  188POPC  H17S21633   1.339   4.875   5.417 -0.0300 -0.4523 -0.1068
  188POPC  C21821634   1.149   4.801   5.483 -0.1321  0.0831 -0.4585
  188POPC  H18R21635   1.048   4.780   5.442 -0.4428 -0.7747  0.7094
  188POPC  H18S21636   1.154   4.869   5.571  2.4650  0.4596 -0.8155
  188POPC  H18T21637   1.186   4.702   5.516 -0.0155  1.0588  2.6956
  188POPC   C3321638   1.833   4.788   4.066 -0.2007 -1.0372 -0.6487
  188POPC   H3X21639   1.731   4.770   4.104 -0.7317  1.1445 -0.9192
  188POPC   H3Y21640   1.817   4.848   3.974 -1.2866  1.4273  1.0484
  188POPC   C3421641   1.930   4.872   4.155  0.0413 -0.1568  0.5737
  188POPC   H4X21642   2.027   4.879   4.100  0.2223 -1.4325  0.6795
  188POPC   H4Y21643   1.955   4.823   4.252 -0.2929  0.8636  1.1826
  188POPC   C3521644   1.880   5.020   4.178 -0.5273 -0.2541 -0.0860
  188POPC   H5X21645   1.790   5.016   4.242 -1.6878  0.7938 -1.5658
  188POPC   H5Y21646   1.863   5.051   4.073  1.9568  1.4370 -0.0660
  188POPC   C3621647   1.995   5.103   4.247  0.8086  0.4366  0.0653
  188POPC   H6X21648   2.028   5.183   4.178 -0.2072  0.4267 -0.4548
  188POPC   H6Y21649   2.088   5.044   4.259  1.3227  1.6114  2.5521
  188POPC   C3721650   1.950   5.168   4.376 -0.4478  0.1703  0.3005
  188POPC   H7X21651   2.036   5.226   4.417  0.6671 -0.7812 -0.6382
  188POPC   H7Y21652   1.938   5.087   4.451  1.2155 -0.7117 -0.3501
  188POPC   C3821653   1.827   5.262   4.367  0.2523 -0.5483 -1.0463
  188POPC   H8X21654   1.734   5.204   4.347 -0.7476  0.0509  1.4104
  188POPC   H8Y21655   1.842   5.332   4.283  1.1740  1.2885  0.5590
  188POPC   C3921656   1.804   5.347   4.491 -0.8412  0.2886 -0.4558
  188POPC   H9X21657   1.734   5.426   4.457 -0.3660  0.5461 -0.8583
  188POPC   H9Y21658   1.896   5.397   4.527  1.1763 -3.4363  0.0193
  188POPC  C31021659   1.746   5.268   4.608 -0.5526  0.0134  0.0976
  188POPC  H10X21660   1.697   5.172   4.579  3.2126 -2.7001  1.8677
  188POPC  H10Y21661   1.663   5.325   4.656 -0.7451  1.7904 -2.1547
  188POPC  C31121662   1.852   5.239   4.710  0.1966  0.1416  0.3234
  188POPC  H11X21663   1.907   5.334   4.729  0.6868  0.0967 -0.7977
  188POPC  H11Y21664   1.923   5.169   4.661 -0.1088  0.2220 -0.2375
  188POPC  C31221665   1.801   5.166   4.840  0.0975  0.3522  0.4952
  188POPC  H12X21666   1.762   5.063   4.827 -1.4911  0.7439  1.7838
  188POPC  H12Y21667   1.716   5.213   4.893  0.2268 -0.3934  1.3971
  188POPC  C31321668   1.915   5.144   4.943  0.1789  0.3364  0.7003
  188POPC  H13X21669   1.930   5.241   4.996 -0.3371  0.6877  0.2030
  188POPC  H13Y21670   2.002   5.102   4.887 -0.4173  0.4893 -0.3597
  188POPC  C31421671   1.878   5.048   5.060 -0.5528 -0.2805 -0.1726
  188POPC  H14X21672   1.854   4.946   5.021 -0.9120 -0.1335 -0.3443
  188POPC  H14Y21673   1.785   5.083   5.110 -0.5940 -2.3183  1.2984
  188POPC  C31521674   1.987   5.029   5.167 -0.1473 -0.0039 -0.2116
  188POPC  H15X21675   1.937   5.007   5.264  0.6138 -1.1626 -0.0523
  188POPC  H15Y21676   2.036   5.128   5.163  1.4228 -0.7681 -0.9456
  188POPC  C31621677   2.095   4.928   5.138 -0.0266  0.0067 -0.3539
  188POPC  H16X21678   2.178   4.929   5.213 -1.1379  0.1710  0.9123
  188POPC  H16Y21679   2.138   4.952   5.038 -2.3992  2.2766 -0.9227
  188POPC  H16Z21680   2.054   4.825   5.134 -0.4701  0.1153  0.9349
  189SAPI   C1221681   1.394   5.443   8.027  0.3600  0.6799 -0.6270
  189SAPI    H221682   1.480   5.403   7.969  0.0679 -0.5230 -0.2378
  189SAPI    O221683   1.264   5.396   7.991 -0.1324  0.0904  0.3501
  189SAPI   HO221684   1.259   5.393   7.895 -1.7407 -1.7134  0.4247
  189SAPI   C1321685   1.418   5.418   8.174  0.0087 -0.1003  0.6786
  189SAPI    H321686   1.513   5.470   8.200 -1.0382  2.0190  0.4015
  189SAPI    O321687   1.446   5.281   8.202  0.1490 -0.3944  0.2426
  189SAPI   HO321688   1.364   5.234   8.191  0.5472 -0.7077 -1.7277
  189SAPI   C1421689   1.309   5.477   8.259  0.7781 -0.2616  0.4169
  189SAPI    H421690   1.228   5.401   8.248 -0.1213  0.6910  0.2387
  189SAPI    O421691   1.338   5.473   8.394 -0.1270  0.0896 -0.0088
  189SAPI   HO421692   1.317   5.385   8.427  2.2050 -0.5096  0.0289
  189SAPI   C1521693   1.247   5.608   8.216 -0.0953  0.2957  0.4573
  189SAPI    H521694   1.303   5.684   8.274 -1.2997  3.4551 -2.1685
  189SAPI    O521695   1.115   5.623   8.253 -0.8849  0.0258 -0.2218
  189SAPI   HO521696   1.055   5.570   8.201 -3.2353 -0.3036  2.5826
  189SAPI   C1621697   1.270   5.657   8.072  0.2575 -0.2729 -0.4277
  189SAPI    H621698   1.183   5.634   8.006 -1.2766  1.4164  0.8952
  189SAPI    O621699   1.285   5.800   8.072 -0.4328 -0.5389  0.5117
  189SAPI   HO621700   1.196   5.835   8.064  0.0284  0.4842 -0.4573
  189SAPI   C1121701   1.387   5.593   7.993  0.7623 -0.0818 -0.5575
  189SAPI    H121702   1.473   5.634   8.051 -2.0159 -0.2356  4.1307
  189SAPI     P21703   1.433   5.556   7.728 -0.7135  0.2680 -0.2588
  189SAPI   O1321704   1.323   5.457   7.705  0.1993 -0.3762  0.0190
  189SAPI   O1421705   1.571   5.507   7.731 -0.9962  0.0628  0.6901
  189SAPI   O1221706   1.404   5.638   7.861 -0.2069 -0.0770 -0.2567
  189SAPI   O1121707   1.423   5.664   7.622  0.1210  0.1975 -0.1810
  189SAPI    C121708   1.290   5.721   7.596 -0.1948 -0.5425  0.0567
  189SAPI    HA21709   1.251   5.674   7.503 -1.2247  0.9653 -0.3247
  189SAPI    HB21710   1.219   5.693   7.677 -0.8287  1.0374  0.0854
  189SAPI    C221711   1.286   5.874   7.584 -0.3283 -0.5539  0.7151
  189SAPI    HS21712   1.182   5.912   7.573  0.0033  1.0240  2.5471
  189SAPI   O2121713   1.373   5.909   7.480  0.2514  0.0844 -0.0933
  189SAPI   C2121714   1.324   5.889   7.359  0.1171  0.5188 -0.1574
  189SAPI   O2221715   1.206   5.871   7.334 -0.1670 -0.1075  0.4673
  189SAPI   C2221716   1.437   5.878   7.265 -0.3465 -0.2638  0.1401
  189SAPI   H2R21717   1.459   5.980   7.228 -1.0441 -0.5255 -1.0468
  189SAPI   H2S21718   1.526   5.835   7.316 -0.8153 -2.6821 -0.9204
  189SAPI    C321719   1.342   5.945   7.710  0.4096 -0.3779  0.2149
  189SAPI    HX21720   1.452   5.928   7.708  0.7252  0.9474 -3.9972
  189SAPI    HY21721   1.305   5.887   7.797 -2.4977  2.1132  0.8073
  189SAPI   O3121722   1.305   6.081   7.716 -0.2250  0.5573 -1.1264
  189SAPI   C3121723   1.201   6.115   7.775 -0.3955 -0.5843  0.2878
  189SAPI   O3221724   1.127   6.047   7.836  0.0821  0.3552  0.2924
  189SAPI   C3221725   1.180   6.270   7.758  0.2379 -0.4558  0.4351
  189SAPI   H2X21726   1.230   6.312   7.848  0.0421 -1.8772  1.2348
  189SAPI   H2Y21727   1.069   6.282   7.764 -0.3120 -3.9745 -0.4755
  189SAPI   C2321728   1.406   5.805   7.130  0.1708  0.0421 -0.0967
  189SAPI   H3R21729   1.401   5.696   7.150  0.7997  0.2513  1.3545
  189SAPI   H3S21730   1.500   5.801   7.070  0.7141 -0.6648  0.7673
  189SAPI   C2421731   1.282   5.857   7.045  0.4994  0.3709 -0.8366
  189SAPI   H4R21732   1.186   5.835   7.095 -0.2742  0.4726 -2.2242
  189SAPI   H4S21733   1.282   5.790   6.956  1.0419  1.0339 -1.3444
  189SAPI   C2521734   1.299   6.002   7.003  0.4804 -0.0035  0.7209
  189SAPI   H5R21735   1.285   6.074   7.084  1.7496  1.0382  0.0590
  189SAPI   C2621736   1.341   6.043   6.880  0.1067  0.4870  0.3189
  189SAPI   H6R21737   1.341   6.152   6.864  0.9334  0.6157  1.0875
  189SAPI   C2721738   1.366   5.960   6.764  0.5926  0.0485  0.6385
  189SAPI   H7R21739   1.265   5.929   6.730  0.4238  1.4407 -0.2113
  189SAPI   H7S21740   1.420   5.867   6.790 -0.5535  0.1141  3.7571
  189SAPI   C2821741   1.451   6.022   6.655 -0.5573 -0.5176  0.5170
  189SAPI   H8R21742   1.557   6.039   6.678 -0.6096  0.7202 -0.0944
  189SAPI   C2921743   1.412   6.055   6.528  0.1858 -0.2208 -0.0536
  189SAPI   H9R21744   1.488   6.091   6.456  1.1701 -2.3864 -0.1696
  189SAPI  C21021745   1.286   6.020   6.463 -0.2473  0.2404  0.1637
  189SAPI  H10R21746   1.217   6.107   6.466  0.3024  0.6794  2.5931
  189SAPI  H10S21747   1.230   5.956   6.535  0.1082  0.4504  0.6355
  189SAPI  C21121748   1.303   5.951   6.333 -0.8422 -0.0722  0.1626
  189SAPI  H11R21749   1.350   5.852   6.336 -0.2218  0.2079 -0.2285
  189SAPI  C21221750   1.255   5.995   6.216  0.3816 -0.2448 -0.3176
  189SAPI  H12R21751   1.274   5.934   6.127 -0.7908 -1.3153  0.1453
  189SAPI  C21321752   1.182   6.118   6.182  0.1017 -0.0223  0.4893
  189SAPI  H13R21753   1.172   6.183   6.272  1.0922  0.0811  0.5334
  189SAPI  H13S21754   1.085   6.082   6.142  0.7008 -0.1660 -0.8937
  189SAPI  C21421755   1.252   6.207   6.082  0.0334  0.0865  0.1871
  189SAPI  H14R21756   1.299   6.294   6.129 -0.4371  0.3173  0.2370
  189SAPI  C21521757   1.254   6.196   5.946 -0.5362  0.1920 -0.1733
  189SAPI  H15R21758   1.316   6.269   5.892  3.2956 -1.9547  0.8923
  189SAPI  C21621759   1.196   6.087   5.859  0.5663 -0.6910 -0.1604
  189SAPI  H16R21760   1.179   5.992   5.915 -0.5584 -0.1232  0.5030
  189SAPI  H16S21761   1.281   6.061   5.793 -0.6545  0.4654 -2.3095
  189SAPI  C21721762   1.082   6.136   5.770 -0.2619  0.0308  0.5560
  189SAPI  H17R21763   0.996   6.178   5.827  0.1651 -0.8369  1.8693
  189SAPI  H17S21764   1.038   6.044   5.724 -0.8042 -0.2922  1.6811
  189SAPI  C21821765   1.133   6.224   5.654 -0.0832  0.2233 -0.6020
  189SAPI  H18R21766   1.166   6.317   5.705 -1.6265  1.9758 -2.5808
  189SAPI  H18S21767   1.047   6.254   5.590 -1.6105 -3.3465 -0.4521
  189SAPI  C21921768   1.229   6.148   5.570 -0.0973  0.1883 -0.5437
  189SAPI  H19R21769   1.187   6.051   5.535  0.2332 -0.1659  0.0110
  189SAPI  H19S21770   1.317   6.126   5.636 -0.9105  1.2119  0.9555
  189SAPI  C22021771   1.291   6.225   5.449  0.2322  1.0430  0.5876
  189SAPI  H20R21772   1.365   6.170   5.388 -0.4106  0.1765  0.5652
  189SAPI  H20S21773   1.337   6.319   5.486  1.4331  1.8589 -2.6900
  189SAPI  H20T21774   1.214   6.264   5.379 -0.8904  0.2490  1.3391
  189SAPI   C3321775   1.218   6.324   7.623 -0.1655 -0.2877  0.1263
  189SAPI   H3X21776   1.312   6.277   7.586 -1.1744 -2.8978  0.6249
  189SAPI   H3Y21777   1.233   6.434   7.622 -1.5227 -0.0622 -1.9946
  189SAPI   C3421778   1.109   6.309   7.522 -0.1968  0.0674 -0.3338
  189SAPI   H4X21779   1.013   6.343   7.566  0.5726 -0.6436  2.0258
  189SAPI   H4Y21780   1.091   6.200   7.511 -0.5177  0.0721  0.1444
  189SAPI   C3521781   1.134   6.389   7.390 -0.9597 -0.3390  0.6662
  189SAPI   H5X21782   1.244   6.375   7.378 -0.6979 -1.5401  3.7302
  189SAPI   H5Y21783   1.111   6.496   7.410 -2.1851 -0.7848  1.6851
  189SAPI   C3621784   1.071   6.341   7.263  0.1665  0.2716 -0.1967
  189SAPI   H6X21785   0.961   6.353   7.277  0.2744  0.7474  0.3125
  189SAPI   H6Y21786   1.092   6.233   7.256  0.5487  0.3138  0.2608
  189SAPI   C3721787   1.117   6.414   7.134 -0.9485  0.2357  0.0029
  189SAPI   H7X21788   1.222   6.450   7.130 -1.6713  2.4481 -0.0421
  189SAPI   H7Y21789   1.053   6.505   7.134 -2.8321 -1.0110 -1.3281
  189SAPI   C3821790   1.082   6.345   7.003  0.9354 -0.3794  0.3489
  189SAPI   H8X21791   0.973   6.323   7.006  0.9508 -0.3682  1.2694
  189SAPI   H8Y21792   1.123   6.242   6.990  1.3820  0.0035 -1.5486
  189SAPI   C3921793   1.114   6.431   6.887 -0.6034 -0.5626  0.0546
  189SAPI   H9X21794   1.224   6.421   6.875 -0.6498 -0.4868 -0.4486
  189SAPI   H9Y21795   1.092   6.538   6.910  1.4019  0.1894 -1.2672
  189SAPI  C31021796   1.051   6.373   6.766 -0.3265  0.1298 -0.8376
  189SAPI  H10X21797   0.940   6.368   6.764 -0.3854 -1.7388  1.9845
  189SAPI  H10Y21798   1.100   6.277   6.741  1.4676  1.0851 -1.1826
  189SAPI  C31121799   1.086   6.467   6.647 -0.1276  0.0231 -1.0298
  189SAPI  H11X21800   1.196   6.466   6.652 -0.1659  0.4512  2.6288
  189SAPI  H11Y21801   1.047   6.567   6.675  0.7007  0.1577 -0.3490
  189SAPI  C31221802   1.035   6.437   6.506 -0.0948 -0.1389  0.0969
  189SAPI  H12X21803   0.925   6.430   6.520 -0.0252 -3.3108 -0.2842
  189SAPI  H12Y21804   1.073   6.336   6.477 -1.0280 -0.7184  0.8355
  189SAPI  C31321805   1.086   6.542   6.401  0.1741 -0.4827 -0.6331
  189SAPI  H13X21806   1.197   6.532   6.404  0.4169  1.5314 -1.2062
  189SAPI  H13Y21807   1.059   6.646   6.429  1.2491 -0.5538  0.7819
  189SAPI  C31421808   1.039   6.521   6.257  0.3941  0.5493 -0.3013
  189SAPI  H14X21809   0.928   6.518   6.254  0.2262  3.3840  0.2239
  189SAPI  H14Y21810   1.060   6.417   6.223 -3.9611 -1.1342  1.4283
  189SAPI  C31521811   1.085   6.626   6.156  0.1825 -0.0452 -0.4635
  189SAPI  H15X21812   1.194   6.612   6.139  0.1139 -0.3400 -0.6847
  189SAPI  H15Y21813   1.073   6.727   6.201 -0.1724 -0.2601 -0.0752
  189SAPI  C31621814   1.017   6.622   6.023  0.1006  0.6779 -0.3745
  189SAPI  H16X21815   0.911   6.653   6.032 -0.5188 -1.6599  1.4411
  189SAPI  H16Y21816   1.022   6.518   5.982 -1.5644 -0.0158  1.0950
  189SAPI  C31721817   1.083   6.714   5.913  0.3255  0.9228 -0.0187
  189SAPI  H17X21818   1.086   6.809   5.970 -0.2519 -0.1919  1.9671
  189SAPI  H17Y21819   1.018   6.733   5.824  0.4436  2.2813  0.1576
  189SAPI  C31821820   1.219   6.659   5.857  0.5088 -0.1412  1.1168
  189SAPI  H18X21821   1.269   6.740   5.800  0.5565 -1.7259 -1.2421
  189SAPI  H18Y21822   1.191   6.576   5.789 -0.1946  0.6113  0.4745
  189SAPI  H18Z21823   1.289   6.630   5.939  0.3069 -2.7374  0.4592
  190SAPI   C1221824   4.070   5.998   8.230 -0.3603  0.0364 -0.8824
  190SAPI    H221825   3.979   6.044   8.274  0.6211  2.9010 -1.6104
  190SAPI    O221826   4.159   5.973   8.343 -0.6882 -0.4207 -0.0931
  190SAPI   HO221827   4.184   6.060   8.374  1.5041  0.1953 -3.0838
  190SAPI   C1321828   4.029   5.870   8.164  0.3909 -0.2184  0.1006
  190SAPI    H321829   3.966   5.895   8.076  0.3017  1.5197  0.6199
  190SAPI    O321830   3.942   5.792   8.245 -0.4280  0.5971 -0.2194
  190SAPI   HO321831   3.992   5.753   8.317  1.6860 -1.5930 -2.6354
  190SAPI   C1421832   4.152   5.794   8.126  0.1518 -0.3939  0.0155
  190SAPI    H421833   4.216   5.783   8.216 -0.7766 -0.4974  0.6717
  190SAPI    O421834   4.124   5.660   8.070  0.2668 -0.2313  0.3823
  190SAPI   HO421835   4.200   5.602   8.064 -0.0507 -0.5031 -1.3684
  190SAPI   C1521836   4.230   5.870   8.017 -0.4265  0.9054  0.4648
  190SAPI    H521837   4.170   5.858   7.925 -1.3450 -1.4604  1.3037
  190SAPI    O521838   4.360   5.815   8.002  0.3246 -0.1789 -0.2112
  190SAPI   HO521839   4.360   5.738   7.944  0.1289 -0.0409 -0.3940
  190SAPI   C1621840   4.242   6.025   8.042  0.3956 -0.0131 -0.3008
  190SAPI    H621841   4.330   6.042   8.108 -0.0795  0.5055  0.2159
  190SAPI    O621842   4.274   6.107   7.930  0.1229  0.7534  0.5622
  190SAPI   HO621843   4.202   6.101   7.868  1.9156  0.4450 -1.5987
  190SAPI   C1121844   4.133   6.090   8.125  0.1324  0.3274 -0.2453
  190SAPI    H121845   4.054   6.110   8.050  0.7636  2.8646 -0.3115
  190SAPI     P21846   4.038   6.329   8.201 -0.0222  0.2068 -0.1259
  190SAPI   O1321847   4.074   6.432   8.299 -0.3466  0.2071  0.4700
  190SAPI   O1421848   3.911   6.260   8.221  0.3814 -0.0358  1.2554
  190SAPI   O1221849   4.159   6.221   8.190  0.6617  0.0299 -0.3163
  190SAPI   O1121850   4.035   6.393   8.049  0.0482  0.1893  0.4928
  190SAPI    C121851   4.155   6.429   7.977 -0.1279  0.4012  0.6146
  190SAPI    HA21852   4.244   6.449   8.041  1.6121 -0.5500 -1.4039
  190SAPI    HB21853   4.178   6.341   7.914  0.5993  0.9478  0.1028
  190SAPI    C221854   4.137   6.547   7.878  0.6193 -0.0817  0.5102
  190SAPI    HS21855   4.099   6.642   7.921  0.3688  0.1715 -0.2497
  190SAPI   O2121856   4.050   6.498   7.774 -0.2201 -0.1306 -0.0503
  190SAPI   C2121857   3.958   6.590   7.724 -0.3038  0.5411  0.1012
  190SAPI   O2221858   3.958   6.710   7.757  0.2837  0.7047  0.4394
  190SAPI   C2221859   3.858   6.519   7.625  0.1314  0.1067  0.3441
  190SAPI   H2R21860   3.790   6.455   7.684  0.2187  1.8978  2.4937
  190SAPI   H2S21861   3.803   6.610   7.592  1.3719  0.2047 -1.6747
  190SAPI    C321862   4.276   6.592   7.809  0.1706  0.2854 -0.1754
  190SAPI    HX21863   4.343   6.613   7.895  2.7655 -0.7424 -1.8298
  190SAPI    HY21864   4.257   6.687   7.755  0.1488  0.3858  0.0074
  190SAPI   O3121865   4.322   6.497   7.718 -0.0444 -0.1642 -0.2099
  190SAPI   C3121866   4.446   6.454   7.731  0.8158  0.1121  0.1344
  190SAPI   O3221867   4.532   6.498   7.805 -0.1853  0.0399  0.3701
  190SAPI   C3221868   4.455   6.319   7.657  0.4694  0.2711 -0.1141
  190SAPI   H2X21869   4.364   6.309   7.595 -1.7867  3.1198  2.4606
  190SAPI   H2Y21870   4.441   6.233   7.726  0.7483 -0.2515 -0.7012
  190SAPI   C2321871   3.925   6.435   7.515  0.9476 -0.0643  0.5416
  190SAPI   H3R21872   3.836   6.382   7.475  0.2676 -0.4276  2.4423
  190SAPI   H3S21873   3.994   6.356   7.550 -1.1742 -2.3914 -0.2196
  190SAPI   C2421874   3.991   6.517   7.404 -0.0539 -0.2591 -0.0174
  190SAPI   H4R21875   4.074   6.581   7.443  0.4278 -0.6265 -0.4270
  190SAPI   H4S21876   3.917   6.584   7.356 -0.8754  0.3996  2.0556
  190SAPI   C2521877   4.042   6.427   7.294 -0.1384 -0.3120  0.2061
  190SAPI   H5R21878   4.132   6.373   7.326  1.4379  1.4653 -1.0718
  190SAPI   C2621879   3.987   6.402   7.171 -0.0313 -0.3505 -0.0613
  190SAPI   H6R21880   4.028   6.332   7.098 -1.9340  0.3059 -1.8791
  190SAPI   C2721881   3.860   6.455   7.116  0.3613 -0.5538  0.1197
  190SAPI   H7R21882   3.880   6.549   7.061  0.0400 -1.4279 -1.5387
  190SAPI   H7S21883   3.794   6.475   7.204 -0.4836  0.2835 -0.6791
  190SAPI   C2821884   3.787   6.367   7.024 -0.3766  0.8416 -0.0239
  190SAPI   H8R21885   3.706   6.303   7.063 -0.4338  1.6682  1.2745
  190SAPI   C2921886   3.812   6.350   6.894 -0.4713 -0.1699 -0.0117
  190SAPI   H9R21887   3.759   6.279   6.829 -0.2692  0.4002 -0.8036
  190SAPI  C21021888   3.920   6.423   6.821 -0.6483  0.7096 -0.4424
  190SAPI  H10R21889   3.981   6.339   6.782  0.9482  0.5446  2.2087
  190SAPI  H10S21890   3.983   6.480   6.891 -0.0323 -0.5788  0.0734
  190SAPI  C21121891   3.870   6.509   6.716 -0.6093  0.1031 -0.1353
  190SAPI  H11R21892   3.808   6.591   6.756  2.2304  2.5640 -0.4124
  190SAPI  C21221893   3.887   6.500   6.582  0.1622  0.5617  0.4303
  190SAPI  H12R21894   3.835   6.565   6.511  0.8669  1.1182  0.4142
  190SAPI  C21321895   3.986   6.398   6.519  0.9392 -0.5061 -0.4551
  190SAPI  H13R21896   3.944   6.333   6.440 -0.3947 -0.1322 -0.0966
  190SAPI  H13S21897   4.010   6.320   6.594 -2.0688 -2.3091 -1.1979
  190SAPI  C21421898   4.092   6.485   6.462 -0.4066 -0.2470  0.2560
  190SAPI  H14R21899   4.136   6.556   6.533 -0.6832  0.7050 -0.5098
  190SAPI  C21521900   4.138   6.502   6.335 -0.7895 -0.1499  0.4826
  190SAPI  H15R21901   4.212   6.580   6.314 -0.9465  0.3995  1.8618
  190SAPI  C21621902   4.095   6.444   6.202  0.2602  0.8080  0.1769
  190SAPI  H16R21903   4.090   6.333   6.209  0.1020  0.6111 -2.3765
  190SAPI  H16S21904   4.173   6.465   6.127  0.2833  2.0063  0.5178
  190SAPI  C21721905   3.958   6.492   6.142  0.5947 -0.5792 -0.5007
  190SAPI  H17R21906   3.969   6.602   6.151  0.1038 -0.6949  2.8174
  190SAPI  H17S21907   3.883   6.445   6.209  0.6578  0.3095  0.2020
  190SAPI  C21821908   3.933   6.460   5.990  0.1627 -0.6848 -0.2072
  190SAPI  H18R21909   3.922   6.350   5.988 -1.9332 -0.5007 -1.3899
  190SAPI  H18S21910   4.026   6.490   5.938  0.6668 -0.1307  0.9732
  190SAPI  C21921911   3.800   6.522   5.950  0.5496  0.3184  0.4785
  190SAPI  H19R21912   3.815   6.572   5.852 -1.7909 -0.5718 -0.3866
  190SAPI  H19S21913   3.776   6.597   6.029 -0.2386 -1.7875  2.3501
  190SAPI  C22021914   3.687   6.417   5.943  0.2524 -0.0444 -0.5344
  190SAPI  H20R21915   3.595   6.475   5.926 -0.4761 -1.4995 -1.8297
  190SAPI  H20S21916   3.685   6.367   6.043  0.7228 -0.4530 -0.7213
  190SAPI  H20T21917   3.703   6.344   5.861 -0.4950 -1.8529  0.8378
  190SAPI   C3321918   4.591   6.297   7.579 -0.7866 -0.4955  0.4289
  190SAPI   H3X21919   4.590   6.192   7.543  1.6104 -0.7244  0.8626
  190SAPI   H3Y21920   4.688   6.299   7.633 -0.9916 -0.9537  0.8198
  190SAPI   C3421921   4.607   6.393   7.455  0.1600 -0.0749  0.5512
  190SAPI   H4X21922   4.706   6.374   7.407  0.5669  2.8856  0.0357
  190SAPI   H4Y21923   4.616   6.501   7.479  2.2815 -0.6832  3.0295
  190SAPI   C3521924   4.499   6.387   7.344  0.1667 -0.7546  0.4393
  190SAPI   H5X21925   4.401   6.413   7.389 -1.1713 -1.3179 -1.9390
  190SAPI   H5Y21926   4.484   6.282   7.309  0.9955  0.4274 -4.1268
  190SAPI   C3621927   4.539   6.475   7.227 -0.0273  0.4916 -0.0103
  190SAPI   H6X21928   4.650   6.469   7.220 -0.0579 -0.3788  0.1341
  190SAPI   H6Y21929   4.511   6.574   7.267 -1.5199 -0.0091  0.2437
  190SAPI   C3721930   4.467   6.438   7.100  0.4617  0.4656  0.0717
  190SAPI   H7X21931   4.358   6.433   7.119 -0.1678  2.4911 -2.4946
  190SAPI   H7Y21932   4.508   6.339   7.069  3.0010  1.2099  0.7947
  190SAPI   C3821933   4.491   6.555   7.000  0.0228 -0.1009  0.0678
  190SAPI   H8X21934   4.596   6.589   6.990 -0.2468  0.6107 -0.4332
  190SAPI   H8Y21935   4.435   6.640   7.043 -1.1441  0.4423 -2.3420
  190SAPI   C3921936   4.438   6.523   6.856 -0.2730 -0.2612  0.3595
  190SAPI   H9X21937   4.411   6.619   6.808 -0.1566 -0.6779 -0.5454
  190SAPI   H9Y21938   4.348   6.458   6.857  0.6472 -1.5638  1.2293
  190SAPI  C31021939   4.543   6.451   6.764  0.0278 -1.2683  0.4451
  190SAPI  H10X21940   4.568   6.354   6.811 -1.3534 -1.1853  1.4125
  190SAPI  H10Y21941   4.638   6.509   6.772 -0.5533 -0.3777  1.1090
  190SAPI  C31121942   4.494   6.446   6.625  0.5587 -0.1991 -0.0851
  190SAPI  H11X21943   4.454   6.544   6.591  0.9008 -0.3359 -0.9189
  190SAPI  H11Y21944   4.412   6.373   6.610  0.3977 -0.0031 -0.1595
  190SAPI  C31221945   4.593   6.412   6.516  0.3253  0.7046  0.1219
  190SAPI  H12X21946   4.635   6.311   6.537  0.0363  0.4577 -0.4746
  190SAPI  H12Y21947   4.682   6.479   6.523  3.5345 -3.1654  0.2952
  190SAPI  C31321948   4.536   6.405   6.377 -0.3421 -0.8282  0.3656
  190SAPI  H13X21949   4.431   6.369   6.377 -0.4143 -0.6743  1.7945
  190SAPI  H13Y21950   4.600   6.340   6.314  0.6988 -0.3415  0.9127
  190SAPI  C31421951   4.521   6.550   6.322  0.0161 -0.0152  0.2408
  190SAPI  H14X21952   4.608   6.613   6.348  0.2083  1.1465 -2.8366
  190SAPI  H14Y21953   4.431   6.595   6.369 -0.6011 -0.9590 -0.0147
  190SAPI  C31521954   4.502   6.558   6.172 -0.2100  0.0928  0.7231
  190SAPI  H15X21955   4.442   6.472   6.135  1.3292 -0.9519  0.5704
  190SAPI  H15Y21956   4.597   6.535   6.120 -0.6017 -2.1205  0.9038
  190SAPI  C31621957   4.462   6.696   6.128  0.1014  0.1620 -0.4530
  190SAPI  H16X21958   4.540   6.775   6.140  0.6326 -0.5246  0.8181
  190SAPI  H16Y21959   4.376   6.732   6.187  0.1584 -2.5131  1.4801
  190SAPI  C31721960   4.428   6.704   5.979  0.4305  0.3504 -0.2826
  190SAPI  H17X21961   4.386   6.807   5.972  0.7602  0.5506  0.6464
  190SAPI  H17Y21962   4.350   6.632   5.946  1.3580 -0.6204 -0.3977
  190SAPI  C31821963   4.530   6.680   5.871 -0.3761  0.6625 -1.4143
  190SAPI  H18X21964   4.518   6.744   5.780 -0.5200  1.5336 -0.7988
  190SAPI  H18Y21965   4.534   6.575   5.835  3.0057  0.6607 -1.3881
  190SAPI  H18Z21966   4.625   6.708   5.921 -0.7564 -0.8666  0.2335
  191SAPI   C1221967   4.480   4.325   3.521 -0.6985 -0.1534 -0.3756
  191SAPI    H221968   4.450   4.279   3.617  1.0996  0.3423  0.4762
  191SAPI    O221969   4.403   4.269   3.419 -0.3635 -0.1376 -0.0602
  191SAPI   HO221970   4.446   4.187   3.393  0.0433  0.5945 -1.8812
  191SAPI   C1321971   4.454   4.477   3.526 -0.0102  0.7406  0.3042
  191SAPI    H321972   4.524   4.525   3.597  2.6893 -1.5161 -0.6365
  191SAPI    O321973   4.323   4.501   3.565 -0.4259  0.7341 -0.8511
  191SAPI   HO321974   4.267   4.435   3.525 -3.0651  1.7744  0.8613
  191SAPI   C1421975   4.495   4.538   3.394 -0.1461  0.9805 -0.1836
  191SAPI    H421976   4.437   4.503   3.305  0.0977  0.9240 -0.3219
  191SAPI    O421977   4.468   4.680   3.397  0.0818 -0.3568  0.6462
  191SAPI   HO421978   4.529   4.712   3.464 -0.1564  1.8498 -0.1230
  191SAPI   C1521979   4.640   4.502   3.357 -0.2514 -0.2013 -0.3748
  191SAPI    H521980   4.709   4.556   3.425 -0.6204  1.1759 -1.0527
  191SAPI    O521981   4.663   4.556   3.223 -0.2607  0.3466 -0.6879
  191SAPI   HO521982   4.637   4.648   3.227 -2.9605 -0.3576 -0.1343
  191SAPI   C1621983   4.683   4.356   3.375  1.2207 -0.2477  0.0604
  191SAPI    H621984   4.638   4.298   3.292  0.1737 -1.0977  1.1880
  191SAPI    O621985   4.818   4.320   3.359 -0.6415  0.1122 -0.2085
  191SAPI   HO621986   4.854   4.298   3.446 -0.9592 -0.1550 -0.1447
  191SAPI   C1121987   4.623   4.289   3.499  0.4316 -0.0209 -0.6057
  191SAPI    H121988   4.660   4.337   3.592 -0.4151  0.8931 -0.7251
  191SAPI     P21989   4.753   4.070   3.601  0.0749  0.0687 -0.1980
  191SAPI   O1321990   4.880   4.151   3.599 -0.0446  0.0843  0.5517
  191SAPI   O1421991   4.768   3.934   3.540  0.6846 -0.7334  0.2608
  191SAPI   O1221992   4.639   4.147   3.508  0.8516 -0.2735 -0.0607
  191SAPI   O1121993   4.696   4.072   3.747 -0.2568  0.1801  0.2042
  191SAPI    C121994   4.554   4.040   3.762 -0.9421  0.1919  0.0483
  191SAPI    HA21995   4.492   4.085   3.681  1.4096  1.4009 -1.1795
  191SAPI    HB21996   4.545   3.930   3.753  1.4516 -0.3581  2.9516
  191SAPI    C221997   4.506   4.067   3.912  0.0203  0.1532 -0.1709
  191SAPI    HS21998   4.401   4.031   3.920 -1.0777  3.1679  0.0051
  191SAPI   O2121999   4.509   4.204   3.946 -0.5292  0.1200  0.6191
  191SAPI   C2122000   4.410   4.277   3.893 -1.1456  0.0967 -0.5801
  191SAPI   O2222001   4.315   4.231   3.830 -0.4219  0.4882  0.0558
  191SAPI   C2222002   4.433   4.422   3.919 -0.5714  0.3926 -0.2465
  191SAPI   H2R22003   4.539   4.453   3.930 -0.0464 -1.0210 -1.1288
  191SAPI   H2S22004   4.389   4.468   3.828 -0.8474 -0.5412 -0.5897
  191SAPI    C322005   4.593   3.977   4.016  0.3773 -0.6608 -0.7490
  191SAPI    HX22006   4.693   4.023   4.028  0.4117 -1.2399  1.7179
  191SAPI    HY22007   4.599   3.873   3.978  0.7017 -1.0751  0.3759
  191SAPI   O3122008   4.537   3.974   4.148 -0.1115 -0.2287 -0.1572
  191SAPI   C3122009   4.443   3.879   4.168 -0.2011  0.2732 -0.1606
  191SAPI   O3222010   4.415   3.791   4.087 -0.4197 -0.6139  0.0704
  191SAPI   C3222011   4.370   3.905   4.299  0.6176 -0.5078 -0.8681
  191SAPI   H2X22012   4.373   4.015   4.314 -1.2651 -0.1703 -2.5120
  191SAPI   H2Y22013   4.430   3.852   4.375  0.0035 -2.2662 -1.5410
  191SAPI   C2322014   4.364   4.465   4.052 -0.4983  0.4722 -0.5244
  191SAPI   H3R22015   4.269   4.414   4.079  0.9214 -1.9233  0.1589
  191SAPI   H3S22016   4.339   4.573   4.044  1.7649  1.1232  0.3733
  191SAPI   C2422017   4.456   4.439   4.173 -0.2660  0.0644 -0.3795
  191SAPI   H4R22018   4.555   4.485   4.153  0.1007 -0.3625  0.4067
  191SAPI   H4S22019   4.466   4.328   4.172  2.5319  0.2516  0.2933
  191SAPI   C2522020   4.403   4.495   4.307  0.4559 -0.7723  0.1338
  191SAPI   H5R22021   4.303   4.463   4.338  0.7112 -0.1944  1.6792
  191SAPI   C2622022   4.460   4.586   4.390  0.1380  0.6822 -0.1301
  191SAPI   H6R22023   4.396   4.628   4.469  0.7309  1.1119  0.1249
  191SAPI   C2722024   4.600   4.644   4.388  0.2797 -0.4848 -0.3712
  191SAPI   H7R22025   4.621   4.697   4.292  3.2956  1.2890  1.1022
  191SAPI   H7S22026   4.665   4.555   4.377  0.9557 -0.1736  0.9277
  191SAPI   C2822027   4.639   4.723   4.510 -0.0931 -0.2035 -0.2710
  191SAPI   H8R22028   4.570   4.726   4.597  0.1999  1.0754 -0.0723
  191SAPI   C2922029   4.751   4.788   4.536 -1.3743 -0.5555 -0.4609
  191SAPI   H9R22030   4.771   4.837   4.632 -1.4983 -0.9531 -0.2320
  191SAPI  C21022031   4.858   4.811   4.431  0.9145  0.4740  0.1663
  191SAPI  H10R22032   4.884   4.730   4.359  0.4929 -0.0645  0.6136
  191SAPI  H10S22033   4.949   4.826   4.493  2.1117  0.8773 -1.6062
  191SAPI  C21122034   4.834   4.943   4.352  0.1192 -0.0183  0.4942
  191SAPI  H11R22035   4.732   4.964   4.318  0.5146  1.5456  0.1825
  191SAPI  C21222036   4.927   5.033   4.321 -1.5819 -0.7388 -0.0967
  191SAPI  H12R22037   4.894   5.120   4.262 -0.5106 -0.6408 -0.5786
  191SAPI  C21322038   5.078   5.031   4.362 -0.3400  0.4041 -0.2754
  191SAPI  H13R22039   5.131   4.977   4.281 -0.9385 -0.3228 -0.2001
  191SAPI  H13S22040   5.080   4.961   4.449 -3.3111  2.0871  1.3172
  191SAPI  C21422041   5.132   5.166   4.407 -0.8757  0.8209  0.0818
  191SAPI  H14R22042   5.150   5.237   4.325  2.9037  0.9787  0.8655
  191SAPI  C21522043   5.175   5.208   4.526  0.2347  0.7695  0.0614
  191SAPI  H15R22044   5.228   5.305   4.532  0.1973  0.7291  1.5776
  191SAPI  C21622045   5.170   5.120   4.652  0.0233 -0.0410  0.0351
  191SAPI  H16R22046   5.270   5.105   4.700 -1.0081 -1.9611  1.7416
  191SAPI  H16S22047   5.136   5.018   4.624  2.2183 -0.2449 -2.2801
  191SAPI  C21722048   5.062   5.183   4.746  0.2519  0.4625  0.1775
  191SAPI  H17R22049   5.031   5.101   4.814  2.0690  0.2419  0.7852
  191SAPI  H17S22050   4.965   5.209   4.698 -1.0858  0.9381  2.9764
  191SAPI  C21822051   5.114   5.302   4.831  0.2326  0.1046  0.0855
  191SAPI  H18R22052   5.130   5.382   4.756  1.2914 -2.1448 -2.2706
  191SAPI  H18S22053   5.208   5.287   4.887 -0.5347 -0.8003  1.1796
  191SAPI  C21922054   5.004   5.374   4.920 -0.0481  0.1954  0.1545
  191SAPI  H19R22055   4.912   5.346   4.863  1.0227 -3.4743 -0.0111
  191SAPI  H19S22056   5.019   5.484   4.928  0.3134  0.0612  1.6117
  191SAPI  C22022057   5.003   5.322   5.058  0.5305 -0.3672 -0.1939
  191SAPI  H20R22058   4.954   5.222   5.059  0.5942 -0.3981  0.7687
  191SAPI  H20S22059   4.935   5.378   5.125 -1.2005  0.6514 -2.6224
  191SAPI  H20T22060   5.097   5.318   5.117 -0.2848  1.1300  1.2888
  191SAPI   C3322061   4.231   3.843   4.306  0.1816 -0.2875 -0.0727
  191SAPI   H3X22062   4.249   3.735   4.288 -0.4473 -0.0355 -2.6297
  191SAPI   H3Y22063   4.167   3.866   4.218  1.5890 -1.8261 -1.5538
  191SAPI   C3422064   4.172   3.850   4.443 -0.0030  0.1393  0.0669
  191SAPI   H4X22065   4.234   3.803   4.522 -1.4869  1.0658  1.8705
  191SAPI   H4Y22066   4.073   3.801   4.435 -0.9753  1.8955  0.6709
  191SAPI   C3522067   4.121   3.995   4.475  0.5777  1.4081 -0.0966
  191SAPI   H5X22068   4.030   4.025   4.419 -0.8921 -1.0359  0.8279
  191SAPI   H5Y22069   4.205   4.063   4.448  1.5713  0.5656  0.7470
  191SAPI   C3622070   4.105   4.015   4.629  0.3551 -0.1831 -0.9701
  191SAPI   H6X22071   4.203   4.007   4.681  0.0901  3.0453  0.2406
  191SAPI   H6Y22072   4.036   3.930   4.648 -1.1987  1.3254  0.4026
  191SAPI   C3722073   4.042   4.148   4.663  0.9373 -0.2470  0.5066
  191SAPI   H7X22074   3.968   4.181   4.587  1.1458 -1.1305 -0.0977
  191SAPI   H7Y22075   4.123   4.224   4.664  1.2989 -0.5638 -1.5100
  191SAPI   C3822076   3.968   4.146   4.800 -0.1826  0.2437  0.4360
  191SAPI   H8X22077   4.046   4.174   4.874  0.2736  0.3328 -0.0662
  191SAPI   H8Y22078   3.942   4.047   4.841 -2.0814  0.6134  0.2248
  191SAPI   C3922079   3.850   4.241   4.811 -0.0641 -0.1291  0.1246
  191SAPI   H9X22080   3.772   4.214   4.737 -1.0300 -1.6796  1.6451
  191SAPI   H9Y22081   3.895   4.341   4.791  0.2501 -0.3946 -0.5103
  191SAPI  C31022082   3.788   4.221   4.953 -0.4462  0.2259  0.3691
  191SAPI  H10X22083   3.875   4.247   5.018  2.4275 -2.2732 -2.1455
  191SAPI  H10Y22084   3.775   4.113   4.973 -1.2126 -0.0687 -1.5470
  191SAPI  C31122085   3.669   4.300   4.996  0.3789 -0.1376  0.4913
  191SAPI  H11X22086   3.574   4.266   4.951  1.3166  0.5626 -2.2390
  191SAPI  H11Y22087   3.685   4.404   4.960 -1.2374  0.7750  2.2281
  191SAPI  C31222088   3.649   4.306   5.151 -0.0734  0.1111  0.1012
  191SAPI  H12X22089   3.704   4.221   5.197 -0.8508  0.4281  1.6750
  191SAPI  H12Y22090   3.542   4.307   5.177 -0.1146  1.8009 -0.0416
  191SAPI  C31322091   3.707   4.433   5.216 -0.3421 -0.5246  0.8559
  191SAPI  H13X22092   3.656   4.529   5.197  0.0397  0.3097  3.5686
  191SAPI  H13Y22093   3.813   4.441   5.183 -0.0213  0.3873  2.0301
  191SAPI  C31422094   3.717   4.423   5.367  0.0152  0.0081 -0.1166
  191SAPI  H14X22095   3.799   4.352   5.392 -1.1704 -2.0588 -1.7079
  191SAPI  H14Y22096   3.622   4.381   5.408 -0.4404 -0.8091 -1.9123
  191SAPI  C31522097   3.751   4.551   5.445  0.9764 -0.2489 -0.2201
  191SAPI  H15X22098   3.668   4.625   5.448  2.4944  1.4964  3.2987
  191SAPI  H15Y22099   3.830   4.610   5.393 -0.3250 -0.0495 -2.1034
  191SAPI  C31622100   3.781   4.533   5.596  1.0058  0.1670  0.9325
  191SAPI  H16X22101   3.818   4.632   5.630  0.6978  0.7476 -0.3567
  191SAPI  H16Y22102   3.860   4.459   5.623  0.5041 -0.9030 -0.4025
  191SAPI  C31722103   3.659   4.489   5.671  1.1185 -0.2093 -0.1488
  191SAPI  H17X22104   3.674   4.392   5.723  2.2289  0.1412  0.2215
  191SAPI  H17Y22105   3.578   4.469   5.598  0.9631 -2.3361  0.5418
  191SAPI  C31822106   3.616   4.588   5.778  0.3370  0.4889  0.5089
  191SAPI  H18X22107   3.514   4.560   5.812 -0.6078 -0.2861 -2.5737
  191SAPI  H18Y22108   3.616   4.690   5.734 -0.3675  1.0779  1.8065
  191SAPI  H18Z22109   3.688   4.591   5.862  0.9591 -2.3235  0.1817
  192SAPI   C1222110   4.518   5.557   3.278 -0.0127 -0.0112 -0.0627
  192SAPI    H222111   4.451   5.644   3.290 -0.7552 -0.5348 -0.3018
  192SAPI    O222112   4.430   5.457   3.236 -0.3743 -0.3548 -0.1789
  192SAPI   HO222113   4.349   5.469   3.286 -0.7763  1.0328 -1.1113
  192SAPI   C1322114   4.623   5.604   3.175  0.0576 -1.1061 -0.4955
  192SAPI    H322115   4.683   5.682   3.227 -0.6961 -1.6786  1.3137
  192SAPI    O322116   4.568   5.668   3.061  0.5407  0.3681 -0.1038
  192SAPI   HO322117   4.501   5.604   3.038  1.2212 -0.4697  0.1784
  192SAPI   C1422118   4.714   5.484   3.137 -0.2282  0.3353 -0.6683
  192SAPI    H422119   4.655   5.421   3.067  0.4079  1.2788 -2.1047
  192SAPI    O422120   4.831   5.537   3.071 -0.0880 -0.1000 -0.7233
  192SAPI   HO422121   4.829   5.633   3.068  0.4805 -0.0233  0.5977
  192SAPI   C1522122   4.753   5.394   3.259  0.1715  0.3621 -0.2030
  192SAPI    H522123   4.847   5.441   3.294 -1.4888  1.9994  2.3662
  192SAPI    O522124   4.775   5.259   3.214  0.4061  0.4188  0.2465
  192SAPI   HO522125   4.708   5.203   3.254 -0.4372  0.3257 -1.2157
  192SAPI   C1622126   4.670   5.404   3.389  0.4222 -0.7635 -0.5140
  192SAPI    H622127   4.589   5.329   3.380  0.0536 -0.5388  0.7049
  192SAPI    O622128   4.738   5.374   3.509 -0.2624 -0.5060  0.2078
  192SAPI   HO622129   4.687   5.315   3.565 -1.7822  0.5310 -0.0285
  192SAPI   C1122130   4.589   5.525   3.409 -0.8895 -0.4147  0.0704
  192SAPI    H122131   4.654   5.612   3.434 -1.1234 -0.7698  2.1260
  192SAPI     P22132   4.431   5.629   3.617 -0.0050  0.0421  0.1528
  192SAPI   O1322133   4.302   5.578   3.657 -0.1018 -0.6580 -0.0907
  192SAPI   O1422134   4.430   5.760   3.553  0.6298 -0.4267  0.1286
  192SAPI   O1222135   4.500   5.517   3.521  0.2100  0.1632  0.6542
  192SAPI   O1122136   4.528   5.626   3.739 -0.4695 -0.1909 -0.1151
  192SAPI    C122137   4.553   5.509   3.814  0.0002  0.0764 -0.2650
  192SAPI    HA22138   4.515   5.416   3.767  2.0144 -1.1990  0.5104
  192SAPI    HB22139   4.660   5.483   3.825  0.3693  1.1719 -1.0866
  192SAPI    C222140   4.474   5.518   3.945 -0.5708 -0.4034 -0.4673
  192SAPI    HS22141   4.370   5.537   3.910 -1.2995 -3.8806 -0.5659
  192SAPI   O2122142   4.542   5.617   4.028 -0.1627 -0.4214  0.7636
  192SAPI   C2122143   4.475   5.727   4.032 -0.5471 -0.5933  0.3757
  192SAPI   O2222144   4.352   5.739   4.028 -0.3843  0.8599 -0.1613
  192SAPI   C2222145   4.575   5.843   4.045 -0.0326 -0.3556 -0.1437
  192SAPI   H2R22146   4.643   5.813   4.127 -0.1484 -0.2759 -0.0200
  192SAPI   H2S22147   4.636   5.847   3.952 -0.1845 -1.9302 -0.3450
  192SAPI    C322148   4.451   5.384   4.019 -0.0632  0.5496  0.0952
  192SAPI    HX22149   4.556   5.354   4.041 -0.3938 -0.7541  0.0089
  192SAPI    HY22150   4.409   5.304   3.955  2.7415 -0.6280 -0.4239
  192SAPI   O3122151   4.376   5.408   4.141 -0.4038 -0.3703 -0.1209
  192SAPI   C3122152   4.246   5.416   4.135  0.3139 -0.2252  0.2022
  192SAPI   O3222153   4.186   5.383   4.036  0.3321  0.1433  0.6228
  192SAPI   C3222154   4.187   5.456   4.272 -0.2238 -0.7031 -0.0285
  192SAPI   H2X22155   4.128   5.366   4.302  1.5113 -1.1949  2.1790
  192SAPI   H2Y22156   4.124   5.545   4.254 -0.5705 -0.6093  1.4925
  192SAPI   C2322157   4.499   5.983   4.072  0.3414  0.2534 -0.4625
  192SAPI   H3R22158   4.471   5.987   4.180 -0.6998 -0.0741 -0.7105
  192SAPI   H3S22159   4.403   5.977   4.016 -0.3849 -0.9563  0.8233
  192SAPI   C2422160   4.574   6.110   4.035  0.2546  0.2974  0.7302
  192SAPI   H4R22161   4.630   6.087   3.941  0.5844  0.0175  0.9896
  192SAPI   H4S22162   4.646   6.140   4.115  0.9869  0.6233 -0.0302
  192SAPI   C2522163   4.465   6.214   4.009 -0.4915 -0.0710  0.3335
  192SAPI   H5R22164   4.415   6.209   3.911 -2.2716  1.2731  1.1193
  192SAPI   C2622165   4.416   6.301   4.100 -0.7967  0.6869  0.2346
  192SAPI   H6R22166   4.357   6.385   4.062 -0.7431  0.4473 -0.3754
  192SAPI   C2722167   4.462   6.318   4.244  0.5415 -0.4645 -0.8595
  192SAPI   H7R22168   4.563   6.271   4.253  0.4916 -0.1670  3.5318
  192SAPI   H7S22169   4.392   6.263   4.311 -0.9109 -0.2460 -2.1471
  192SAPI   C2822170   4.471   6.462   4.289  0.0085 -0.3537 -0.3474
  192SAPI   H8R22171   4.530   6.530   4.226 -1.0992  0.9473 -0.0432
  192SAPI   C2922172   4.416   6.510   4.404  0.3978  0.0775 -0.1923
  192SAPI   H9R22173   4.439   6.611   4.440 -0.2416  0.5262 -1.0071
  192SAPI  C21022174   4.321   6.443   4.500  0.1806 -0.1147  0.4164
  192SAPI  H10R22175   4.330   6.493   4.598  0.2728 -0.4777  0.5956
  192SAPI  H10S22176   4.370   6.346   4.525 -1.2324 -0.5132  1.7737
  192SAPI  C21122177   4.178   6.430   4.451 -0.4762 -0.4674  0.0774
  192SAPI  H11R22178   4.173   6.382   4.352  1.3919  1.1135 -0.8665
  192SAPI  C21222179   4.065   6.476   4.506 -0.8283 -0.2750 -0.0487
  192SAPI  H12R22180   3.970   6.449   4.458 -2.6343  1.1615  2.4395
  192SAPI  C21322181   4.051   6.553   4.633  0.2941  0.0798  0.5936
  192SAPI  H13R22182   3.948   6.595   4.636  1.1384  2.1896  1.6084
  192SAPI  H13S22183   4.115   6.643   4.623  0.6372 -0.3332 -1.4152
  192SAPI  C21422184   4.075   6.470   4.756 -0.7397 -0.5764 -0.3571
  192SAPI  H14R22185   4.046   6.364   4.757 -2.4693 -0.1272  0.1679
  192SAPI  C21522186   4.131   6.523   4.868  0.1936 -0.2696  0.1363
  192SAPI  H15R22187   4.137   6.461   4.958 -0.1215 -0.7730 -0.1861
  192SAPI  C21622188   4.180   6.666   4.876 -0.2056 -0.8842  0.3036
  192SAPI  H16R22189   4.126   6.740   4.812 -1.5196 -1.2666  0.9322
  192SAPI  H16S22190   4.283   6.669   4.835  0.6024  1.8727  2.2226
  192SAPI  C21722191   4.180   6.737   5.015  0.7518 -1.4246  0.2742
  192SAPI  H17R22192   4.075   6.752   5.047  1.1354  3.1707  0.1303
  192SAPI  H17S22193   4.219   6.841   5.010 -0.2775 -1.0488 -0.4769
  192SAPI  C21822194   4.261   6.665   5.127 -0.2613 -0.4161 -0.0709
  192SAPI  H18R22195   4.369   6.669   5.101 -0.6688  1.1967 -1.6815
  192SAPI  H18S22196   4.225   6.560   5.128  3.8473 -2.0103  0.7824
  192SAPI  C21922197   4.239   6.720   5.270  0.1783 -0.3515 -0.0758
  192SAPI  H19R22198   4.130   6.713   5.284  0.0429  2.2575  0.7608
  192SAPI  H19S22199   4.263   6.829   5.275 -1.5205  0.0668 -0.5603
  192SAPI  C22022200   4.320   6.642   5.379  0.4319 -0.1390  0.6364
  192SAPI  H20R22201   4.429   6.660   5.367  0.2256 -0.2726 -2.2471
  192SAPI  H20S22202   4.307   6.534   5.356  0.1525 -0.1960  1.0537
  192SAPI  H20T22203   4.275   6.668   5.477  0.5743  1.1926  0.3756
  192SAPI   C3322204   4.295   5.480   4.386  0.7186 -0.1579  0.0015
  192SAPI   H3X22205   4.364   5.563   4.362 -1.1068  1.9461  1.6503
  192SAPI   H3Y22206   4.355   5.387   4.391  0.0562 -0.5397  1.1433
  192SAPI   C3422207   4.237   5.510   4.525  0.7591 -0.0119  0.1365
  192SAPI   H4X22208   4.158   5.436   4.549 -0.5904  1.2468 -0.2609
  192SAPI   H4Y22209   4.193   5.611   4.508  2.0039  0.3535 -1.0782
  192SAPI   C3522210   4.337   5.511   4.644 -0.1328 -0.7563  0.2839
  192SAPI   H5X22211   4.417   5.585   4.621  0.9452 -2.0726 -0.3138
  192SAPI   H5Y22212   4.396   5.419   4.659 -0.3562 -0.9944 -0.2548
  192SAPI   C3622213   4.264   5.536   4.772 -0.2696  0.2377 -0.2380
  192SAPI   H6X22214   4.209   5.442   4.792 -2.8361  1.4248 -1.3811
  192SAPI   H6Y22215   4.193   5.617   4.746  1.7306  1.6545 -1.6613
  192SAPI   C3722216   4.354   5.568   4.890  0.2971 -0.2591  0.3960
  192SAPI   H7X22217   4.422   5.654   4.868 -0.6066  0.8319  1.7492
  192SAPI   H7Y22218   4.412   5.478   4.920  0.9434  0.0804  0.1982
  192SAPI   C3822219   4.282   5.626   5.009  0.6281 -0.0439 -0.7036
  192SAPI   H8X22220   4.229   5.719   4.980 -1.1407 -1.5366 -2.5500
  192SAPI   H8Y22221   4.347   5.640   5.098 -0.4252  2.4132 -0.2332
  192SAPI   C3922222   4.167   5.537   5.066 -0.1150  0.4936  0.5626
  192SAPI   H9X22223   4.208   5.434   5.072  1.8906  1.2801  1.0894
  192SAPI   H9Y22224   4.077   5.546   5.002  0.1441  1.8093  0.3468
  192SAPI  C31022225   4.139   5.571   5.212  0.6679 -0.2553 -0.5115
  192SAPI  H10X22226   4.236   5.561   5.264  0.6338  0.7618 -0.2223
  192SAPI  H10Y22227   4.075   5.495   5.260  2.5204 -0.0828  2.4832
  192SAPI  C31122228   4.065   5.705   5.247 -0.6788  0.5056  0.7546
  192SAPI  H11X22229   3.958   5.684   5.229 -0.6986  2.4992 -2.0842
  192SAPI  H11Y22230   4.089   5.784   5.172  0.8871 -1.1225 -0.5443
  192SAPI  C31222231   4.110   5.749   5.383 -0.1597 -0.4830 -0.2903
  192SAPI  H12X22232   4.069   5.852   5.389 -0.6232 -0.6011 -1.2034
  192SAPI  H12Y22233   4.221   5.756   5.391 -0.1490 -1.2533  0.4059
  192SAPI  C31322234   4.067   5.660   5.502  0.6170  0.5905 -0.0031
  192SAPI  H13X22235   4.101   5.554   5.497 -0.6168  0.1672  0.2027
  192SAPI  H13Y22236   3.957   5.644   5.500  0.5126  1.1592  0.8430
  192SAPI  C31422237   4.123   5.711   5.636 -0.1971 -0.3125  0.0834
  192SAPI  H14X22238   4.083   5.813   5.656 -0.6071 -0.0418 -1.9212
  192SAPI  H14Y22239   4.234   5.718   5.638 -0.1413 -1.1996  1.2114
  192SAPI  C31522240   4.088   5.619   5.756 -0.5561  0.0327 -1.0794
  192SAPI  H15X22241   4.141   5.523   5.744 -1.2449 -0.5334  0.1527
  192SAPI  H15Y22242   3.982   5.586   5.756 -0.3754 -0.5560 -0.7422
  192SAPI  C31622243   4.129   5.691   5.887 -0.1921  0.5505  0.5179
  192SAPI  H16X22244   4.076   5.789   5.889  0.4715  0.9030  2.7897
  192SAPI  H16Y22245   4.238   5.711   5.887 -0.0227 -0.2850 -0.3405
  192SAPI  C31722246   4.110   5.608   6.013  0.8090 -0.4612  0.1305
  192SAPI  H17X22247   4.159   5.510   5.997  2.0226  0.5294 -2.8193
  192SAPI  H17Y22248   4.002   5.596   6.039  1.2970 -0.9989  2.0787
  192SAPI  C31822249   4.177   5.672   6.142 -0.0472 -0.7974 -0.0719
  192SAPI  H18X22250   4.287   5.675   6.131 -0.0918 -1.6942 -0.9408
  192SAPI  H18Y22251   4.140   5.615   6.230 -0.6254 -2.0452 -1.0833
  192SAPI  H18Z22252   4.143   5.775   6.165 -1.5582 -1.0329 -1.0681
  193SOD    SOD22253   2.338   3.560   7.769  0.0833 -0.1283  0.0382
  194SOD    SOD22254   6.501   4.214   2.178  0.5168  0.1436 -0.1105
  195SOD    SOD22255   2.239   2.131   0.200  0.0914  0.5397 -0.1266
  196SOD    SOD22256   3.223   3.942   0.471 -0.2570  0.9663  0.3901
  197SOD    SOD22257   3.364   5.584   1.248  0.0164 -0.3508 -0.0150
  198SOD    SOD22258   6.614   2.947   3.397  0.4352  0.0659 -0.1138
  199SOD    SOD22259   5.876   3.587   8.010  0.2926  0.0791 -0.2287
  200SOD    SOD22260   1.271   1.280   0.150  0.4889  0.2594  0.0568
  201SOD    SOD22261   2.806   0.687   2.481  0.4826 -0.6558  0.4819
  202SOD    SOD22262   1.321   0.133   8.692  0.0093  0.2854 -0.2631
  203SOD    SOD22263   4.805   5.103   8.100 -0.1575 -0.8048  0.0960
  204SOD    SOD22264   2.456   5.083   7.667  0.1829  0.2260 -0.1394
  205SOD    SOD22265   4.828   5.762   1.417 -0.2235  0.9372  0.0035
  206SOD    SOD22266   0.234   0.706   7.775  0.3117 -0.3154 -0.4782
  207SOD    SOD22267   0.640   4.178   2.801  0.0355  0.5208  0.5267
  208SOD    SOD22268   6.636   3.897   2.414  0.0541 -0.5609  0.2516
  209SOD    SOD22269   4.940   2.890   1.993 -0.2940 -0.3060 -0.2764
  210SOD    SOD22270   1.328   1.868   8.162  0.5759 -0.0817  0.2740
  211SOD    SOD22271   6.134   6.564   0.374  0.6300 -0.1487 -0.1748
  212SOD    SOD22272   3.872   0.171   2.296 -0.2983  0.6426  0.0580
  213SOD    SOD22273   6.154   4.401   8.521 -0.2145 -0.6269 -0.1445
  214SOD    SOD22274   0.122   6.513   1.110  0.0440 -0.4100  0.2766
  215SOD    SOD22275   0.055   3.053   8.240 -0.1348  0.1981 -0.1540
  216SOD    SOD22276   2.991   0.769   3.092 -0.0102  0.3558  0.0679
  217SOD    SOD22277   0.837   3.196   0.373  0.0226  0.0525  0.2275
  218SOD    SOD22278   2.034   5.265   0.112 -0.0316  0.1043 -0.0289
  219SOD    SOD22279   5.356   1.848   3.771 -0.1682 -0.0581 -0.0252
  220SOD    SOD22280   0.292   4.885   3.206 -0.0372  0.1891  0.5719
  221SOD    SOD22281   4.891   0.015   2.920 -0.0756 -0.2110  0.3098
  222SOD    SOD22282   2.071   2.984   3.752  0.3254  0.1981  0.8540
  223SOD    SOD22283   3.759   2.653   0.101 -0.3732 -0.0232  0.0846
  224SOD    SOD22284   0.910   2.417   8.120  0.5980  0.0024 -0.5629
  225SOD    SOD22285   1.979   5.880   3.113 -0.2750  0.1403  0.2916
  226SOD    SOD22286   2.572   1.018   0.678  0.3115 -0.4071  0.0129
  227SOD    SOD22287   5.020   0.388   3.845  0.5737  0.2833  0.6259
  228SOD    SOD22288   6.267   6.180   3.770 -0.0645  0.1822 -0.0502
  229SOD    SOD22289   5.096   3.689   3.144 -0.0575  0.5929 -0.3528
  230SOD    SOD22290   1.308   4.711   8.617  0.1136 -0.0154 -0.3105
  231SOD    SOD22291   4.404   3.946   1.581 -0.3585 -0.4318  0.0779
  232SOD    SOD22292   3.965   5.959   3.266 -0.7828  0.0089 -0.2165
  233SOD    SOD22293   4.872   4.140   1.615  0.3628 -0.9121 -0.2361
  234CLA    CLA22294   6.315   4.816   8.645  0.0294  0.0785  0.4544
  235CLA    CLA22295   0.264   0.421   8.662  0.0628  0.1199 -0.1402
  236CLA    CLA22296   5.620   4.907   0.631  0.3237  0.2711  0.1039
  237CLA    CLA22297   1.795   0.709   2.742  0.1152 -0.1147 -0.2706
  238CLA    CLA22298   4.567   3.311   1.234 -0.3205 -0.5970  0.2273
  239CLA    CLA22299   1.102   0.578   0.560  0.2822  0.1316 -0.0260
  240CLA    CLA22300   0.254   5.703   1.325  0.1197 -0.3467 -0.1643
  241CLA    CLA22301   5.937   4.763   2.073  0.0757  0.2328 -0.1231
  242CLA    CLA22302   4.904   4.818   2.142 -0.0586 -0.1508 -0.8468
  243CLA    CLA22303   3.080   1.960   1.543  0.4165  0.1271  0.0831
  244CLA    CLA22304   3.149   0.345   2.371  0.0373 -0.1338  0.0421
  245CLA    CLA22305   5.769   4.149   2.791 -0.0659  0.1381 -0.0672
  246CLA    CLA22306   5.640   6.257   1.684  0.1539  0.3964  0.4951
  247CLA    CLA22307   1.996   2.399   0.821 -0.1147 -0.7428  0.4960
  248CLA    CLA22308   1.739   0.628   0.109 -0.1608 -0.0143  0.2240
  249CLA    CLA22309   1.248   2.624   1.949 -0.1772 -0.1006  0.0929
  250CLA    CLA22310   3.259   2.530   0.569 -0.1777 -0.4139 -0.0707
  251TIP3   OH222311   1.750   3.492   1.138  0.3524 -0.0157 -0.6106
  251TIP3    H122312   1.766   3.576   1.095  1.0224  0.2602  0.1586
  251TIP3    H222313   1.797   3.428   1.085 -0.3901  0.0399 -1.3606
  252TIP3   OH222314   6.257   0.531   1.048  0.1488 -0.0755 -0.3950
  252TIP3    H122315   6.164   0.512   1.053  0.4538 -1.8077 -0.7411
  252TIP3    H222316   6.269   0.574   0.963 -0.3123  0.0618 -0.3906
  253TIP3   OH222317   4.990   3.618   8.455 -0.5434 -0.2013 -0.2745
  253TIP3    H122318   4.997   3.607   8.360 -3.4012  2.0857 -0.8940
  253TIP3    H222319   5.074   3.658   8.480  0.5975 -1.5951 -1.6220
  254TIP3   OH222320   6.342   2.106   0.345  0.0054  0.1604  0.2349
  254TIP3    H122321   6.250   2.103   0.322  0.0388  0.8488 -0.0184
  254TIP3    H222322   6.384   2.150   0.271  0.4905  0.1203  0.4822
  255TIP3   OH222323   1.581   0.331   1.651  0.2136  0.2170 -0.1836
  255TIP3    H122324   1.592   0.365   1.740  2.7966 -2.0165  0.4865
  255TIP3    H222325   1.657   0.365   1.603  0.9921 -1.7024 -0.3973
  256TIP3   OH222326   6.841   0.367   1.518 -0.3315 -0.3263  0.1498
  256TIP3    H122327   6.787   0.288   1.531 -1.0812  0.0959 -0.3298
  256TIP3    H222328   6.793   0.436   1.562 -0.1500  0.0475 -0.2347
  257TIP3   OH222329   4.059   3.190   3.390  0.2459 -0.1177 -0.2041
  257TIP3    H122330   4.122   3.200   3.461 -1.7227  1.3897  1.4561
  257TIP3    H222331   4.020   3.104   3.404  0.6882 -0.3123 -0.1691
  258TIP3   OH222332   3.762   2.138   7.785  0.2862  0.2868  0.3203
  258TIP3    H122333   3.733   2.190   7.860  1.1606 -0.2841  1.0835
  258TIP3    H222334   3.755   2.197   7.711 -0.9227  0.7640  0.7870
  259TIP3   OH222335   5.314   4.370   1.048 -0.1221  0.2854 -0.3472
  259TIP3    H122336   5.331   4.380   1.142  0.5540 -1.5198 -0.2253
  259TIP3    H222337   5.219   4.365   1.041 -0.4222  3.6903 -0.2069
  260TIP3   OH222338   2.371   5.327   1.867  0.3890  0.9795  0.8105
  260TIP3    H122339   2.395   5.255   1.925  1.5093 -1.2793 -2.2023
  260TIP3    H222340   2.455   5.365   1.840  0.5711 -1.9000 -3.7066
  261TIP3   OH222341   6.462   3.935   1.772 -0.0654  0.4797  0.6814
  261TIP3    H122342   6.477   4.012   1.717  1.1036 -0.3983 -0.2684
  261TIP3    H222343   6.370   3.911   1.757 -0.7102  2.1401  1.6330
  262TIP3   OH222344   1.502   3.451   0.429  0.0117 -0.0438 -0.4404
  262TIP3    H122345   1.468   3.373   0.473  0.2736 -0.7234 -1.4137
  262TIP3    H222346   1.588   3.424   0.397  0.4416  0.9030 -0.0944
  263TIP3   OH222347   6.406   1.615   1.113 -0.1676 -0.2816 -0.6280
  263TIP3    H122348   6.464   1.678   1.071  0.9339 -0.5021  0.4700
  263TIP3    H222349   6.366   1.664   1.185  0.1777 -0.6375 -0.1847
  264TIP3   OH222350   0.605   1.566   2.914 -0.4869 -0.0809 -0.3379
  264TIP3    H122351   0.665   1.493   2.929 -0.3027 -0.2283 -1.6524
  264TIP3    H222352   0.556   1.575   2.996  0.0338 -1.1698  0.1049
  265TIP3   OH222353   2.242   1.491   3.461  0.2043 -0.3860  0.5619
  265TIP3    H122354   2.223   1.516   3.551 -1.2549  0.7093 -0.0049
  265TIP3    H222355   2.274   1.402   3.467 -0.6076 -0.6110  2.0981
  266TIP3   OH222356   5.933   5.712   8.560  0.1634  0.4673  0.2123
  266TIP3    H122357   5.880   5.758   8.494  1.6073  0.1728 -1.2155
  266TIP3    H222358   5.901   5.622   8.557  1.1241  0.1429 -1.1146
  267TIP3   OH222359   3.256   2.834   3.091  0.4167  0.1425 -0.7188
  267TIP3    H122360   3.195   2.779   3.042 -0.8245  2.6417 -2.2051
  267TIP3    H222361   3.200   2.887   3.148  1.5866 -0.2545  0.8704
  268TIP3   OH222362   0.418   4.328   8.284 -0.3151 -0.5107 -0.1022
  268TIP3    H122363   0.389   4.280   8.207 -0.8868  0.3084 -0.4046
  268TIP3    H222364   0.514   4.324   8.280 -0.2951  0.6011 -1.5700
  269TIP3   OH222365   6.703   3.836   1.485  0.4774  0.0645 -0.7493
  269TIP3    H122366   6.780   3.888   1.505  1.6183 -0.5109 -3.2463
  269TIP3    H222367   6.630   3.898   1.489  1.1717  0.8382  0.6371
  270TIP3   OH222368   0.394   5.205   3.226 -0.0318 -0.0691 -0.2039
  270TIP3    H122369   0.384   5.300   3.226  0.1909 -0.0265 -1.2727
  270TIP3    H222370   0.312   5.172   3.264 -1.1756  0.4918 -2.0255
  271TIP3   OH222371   2.380   3.290   1.438  0.0067  0.1410  0.3890
  271TIP3    H122372   2.455   3.325   1.486  1.3436  1.2535 -2.3370
  271TIP3    H222373   2.413   3.210   1.397 -0.5779  0.1540 -0.1079
  272TIP3   OH222374   5.502   2.963   0.912  0.9848 -0.3717  0.1175
  272TIP3    H122375   5.591   2.939   0.889  1.0508 -0.4807  0.4799
  272TIP3    H222376   5.453   2.881   0.910  0.9829 -0.3752  0.3323
  273TIP3   OH222377   5.415   0.356   2.089 -0.2693 -0.0353  0.0808
  273TIP3    H122378   5.486   0.292   2.093  0.5954  0.9176  0.4978
  273TIP3    H222379   5.437   0.420   2.156 -0.4003  1.4054 -1.2012
  274TIP3   OH222380   1.559   2.623   1.995 -0.4397  0.4168 -0.1564
  274TIP3    H122381   1.470   2.642   1.966 -0.2758  1.3304 -0.1237
  274TIP3    H222382   1.564   2.528   2.002 -1.5790  0.3841  0.3711
  275TIP3   OH222383   4.006   4.363   1.395  0.4963 -0.1329 -0.0787
  275TIP3    H122384   3.982   4.310   1.471  0.8722  0.8476  0.7483
  275TIP3    H222385   4.079   4.316   1.355  1.1800  0.0305  0.9573
  276TIP3   OH222386   3.510   1.163   2.332 -0.1312  0.2354 -0.9954
  276TIP3    H122387   3.502   1.077   2.291  1.6393 -1.5427  2.0957
  276TIP3    H222388   3.593   1.198   2.299  1.5664 -1.4268  1.2280
  277TIP3   OH222389   3.031   0.605   8.593 -0.5110  0.2673  0.6197
  277TIP3    H122390   3.012   0.651   8.511 -1.2210  0.2191  0.7484
  277TIP3    H222391   3.069   0.672   8.650  1.5966 -0.0682 -0.2905
  278TIP3   OH222392   0.125   2.953   7.736 -0.2395  0.0656  0.0568
  278TIP3    H122393   0.065   2.900   7.683  1.0538 -1.1938 -0.2183
  278TIP3    H222394   0.077   2.969   7.817 -2.0392  1.5381 -1.1957
  279TIP3   OH222395   4.015   2.726   3.084  0.0293  0.2048 -0.3684
  279TIP3    H122396   3.933   2.768   3.111 -0.8238 -0.3250 -1.9878
  279TIP3    H222397   4.084   2.780   3.122 -1.0556  0.3902  1.4337
  280TIP3   OH222398   2.379   1.211   2.859  0.0038  0.2445 -0.5573
  280TIP3    H122399   2.288   1.183   2.872  0.6420 -1.2149  1.1983
  280TIP3    H222400   2.383   1.236   2.767 -1.9291 -0.6297 -0.9379
  281TIP3   OH222401   3.343   5.977   3.373 -0.0615 -0.8056 -0.8944
  281TIP3    H122402   3.350   5.964   3.467 -2.0344  1.0869 -0.4046
  281TIP3    H222403   3.262   5.933   3.348 -0.7656  0.6542 -1.2598
  282TIP3   OH222404   4.657   0.522   0.231  0.1643 -0.1013 -0.0338
  282TIP3    H122405   4.596   0.509   0.159  1.1219  0.1250 -0.9139
  282TIP3    H222406   4.735   0.472   0.206 -0.0274 -1.2550  1.5656
  283TIP3   OH222407   4.476   6.012   0.098 -0.1389  0.5869 -0.1672
  283TIP3    H122408   4.437   6.038   0.014  0.1996 -0.0423 -0.5304
  283TIP3    H222409   4.528   5.934   0.077 -0.5410  0.0504  0.7375
  284TIP3   OH222410   1.067   0.024   0.873 -0.2325 -0.1741  0.2046
  284TIP3    H122411   0.994   0.082   0.854 -1.1473 -0.6104  2.0604
  284TIP3    H222412   1.130   0.040   0.804 -1.0400  2.0127 -0.0915
  285TIP3   OH222413   4.062   4.938   1.171 -0.3682  0.4386  0.0116
  285TIP3    H122414   4.033   4.892   1.250 -0.0608  0.4563  0.1375
  285TIP3    H222415   3.981   4.958   1.124 -0.4528 -1.4005 -0.7143
  286TIP3   OH222416   3.945   0.798   1.798 -0.2921 -0.5424 -0.3138
  286TIP3    H122417   4.038   0.793   1.820 -0.4305 -1.0973  0.1611
  286TIP3    H222418   3.943   0.802   1.702  0.2314 -0.1385 -0.3137
  287TIP3   OH222419   4.378   3.040   2.274 -0.0829  0.3786  0.1496
  287TIP3    H122420   4.404   3.031   2.366 -0.1382  0.4498  0.1715
  287TIP3    H222421   4.439   3.104   2.238  0.0376  0.2373  0.0979
  288TIP3   OH222422   3.349   4.015   1.890 -0.0181 -0.7457 -0.9222
  288TIP3    H122423   3.289   4.065   1.835 -1.9374 -1.2986  0.5602
  288TIP3    H222424   3.335   3.924   1.865 -0.0545 -0.9023 -0.3415
  289TIP3   OH222425   4.399   4.272   1.943 -0.0197 -0.5830 -0.0060
  289TIP3    H122426   4.356   4.322   1.875 -1.1995 -2.3874 -0.6504
  289TIP3    H222427   4.488   4.308   1.947 -0.6938  1.2675 -0.6548
  290TIP3   OH222428   3.608   5.675   0.487  0.2470 -0.0208  0.1154
  290TIP3    H122429   3.537   5.693   0.425  1.6826  1.8743 -1.0746
  290TIP3    H222430   3.650   5.597   0.452  2.1743  2.0282 -2.5115
  291TIP3   OH222431   3.130   2.599   2.042  0.1451  0.3763 -0.0857
  291TIP3    H122432   3.058   2.561   2.093  0.5203 -0.2517 -0.0222
  291TIP3    H222433   3.163   2.670   2.097  0.0154  0.2286  0.1864
  292TIP3   OH222434   5.597   0.322   7.802  0.3117 -0.7549  0.0073
  292TIP3    H122435   5.592   0.295   7.894  0.1234  1.0484  0.5713
  292TIP3    H222436   5.688   0.350   7.790 -0.0252  0.4529  0.1144
  293TIP3   OH222437   4.520   2.961   3.001 -0.1549  0.6765  0.2792
  293TIP3    H122438   4.588   2.967   2.934  1.5179  0.0598  1.8673
  293TIP3    H222439   4.445   3.006   2.962  1.5719  2.6602 -0.9640
  294TIP3   OH222440   1.826   5.578   8.568  0.2662  0.2319  1.1991
  294TIP3    H122441   1.889   5.634   8.613  0.9714 -0.2043  0.7804
  294TIP3    H222442   1.763   5.639   8.530  0.7054  0.7095  1.2282
  295TIP3   OH222443   3.726   4.481   1.752 -0.8553  0.1700 -0.2414
  295TIP3    H122444   3.734   4.394   1.789  0.4207  1.0858  1.8148
  295TIP3    H222445   3.663   4.526   1.808 -1.3588  0.6444 -1.1576
  296TIP3   OH222446   6.752   6.035   8.553  0.1531 -0.2762  0.6710
  296TIP3    H122447   6.819   5.982   8.596  1.0127  1.1760  1.2080
  296TIP3    H222448   6.795   6.070   8.475 -1.2227 -2.4376 -1.1915
  297TIP3   OH222449   3.897   6.646   2.067 -0.1266  0.1948 -0.2038
  297TIP3    H122450   3.877   6.552   2.070 -1.8922  0.5495  0.0736
  297TIP3    H222451   3.989   6.650   2.038  0.0848 -1.6122  0.1006
  298TIP3   OH222452   2.192   4.485   0.590  0.0612  0.1671  0.3072
  298TIP3    H122453   2.117   4.431   0.614 -0.7767  0.6238 -1.1284
  298TIP3    H222454   2.159   4.574   0.590  1.1355  0.5968  1.5549
  299TIP3   OH222455   2.275   0.492   8.440  0.2470 -0.0073 -0.6389
  299TIP3    H122456   2.260   0.416   8.497  0.6046 -0.5510 -1.2473
  299TIP3    H222457   2.222   0.562   8.478  1.9095  0.2143  1.4617
  300TIP3   OH222458   5.360   5.580   0.380 -0.1865 -0.6679 -0.1149
  300TIP3    H122459   5.426   5.603   0.314 -0.7238  0.1072 -0.3994
  300TIP3    H222460   5.411   5.557   0.458  0.4354 -0.7824 -0.5480
  301TIP3   OH222461   4.113   0.301   1.737  0.4597  0.1100 -0.0417
  301TIP3    H122462   4.181   0.332   1.797  0.1962 -0.2263  0.4343
  301TIP3    H222463   4.066   0.234   1.786 -1.8821  2.0963  0.6006
  302TIP3   OH222464   5.815   1.749   1.073 -0.0875 -0.4066 -0.4389
  302TIP3    H122465   5.796   1.747   0.979 -2.2231  1.1638 -0.0903
  302TIP3    H222466   5.855   1.663   1.090 -0.5759 -1.1348 -2.5918
  303TIP3   OH222467   1.543   6.012   2.440  0.0899 -0.5443  0.3761
  303TIP3    H122468   1.508   6.088   2.486  2.5472  1.1997 -0.4515
  303TIP3    H222469   1.515   6.023   2.350  1.1483 -0.1215  0.0834
  304TIP3   OH222470   3.814   5.517   2.683  0.2027 -0.2653 -0.8948
  304TIP3    H122471   3.720   5.530   2.696 -0.2492 -3.5847  0.0312
  304TIP3    H222472   3.823   5.505   2.589 -1.0797 -3.8817 -0.7066
  305TIP3   OH222473   0.966   5.115   2.846  0.4486  0.0965 -0.3829
  305TIP3    H122474   0.895   5.173   2.871  0.6902 -0.4483  1.7468
  305TIP3    H222475   1.044   5.152   2.887  0.6608 -1.5044  0.7467
  306TIP3   OH222476   2.005   5.822   8.669 -0.2060 -0.0522  0.5295
  306TIP3    H122477   2.053   5.860   8.743 -0.8714  0.8697  0.5036
  306TIP3    H222478   1.941   5.889   8.645 -0.0241 -0.3522 -0.8597
  307TIP3   OH222479   2.974   3.565   1.853  0.4935  0.5452 -0.1017
  307TIP3    H122480   2.928   3.485   1.828  1.2115  0.0142  0.2256
  307TIP3    H222481   2.958   3.626   1.780  1.6915 -0.6313 -1.4176
  308TIP3   OH222482   2.608   4.807   1.742  0.2167  0.4158  0.6207
  308TIP3    H122483   2.634   4.897   1.725  0.2084  0.4003  0.5242
  308TIP3    H222484   2.575   4.808   1.832  0.5934  0.4267  0.7600
  309TIP3   OH222485   6.772   2.919   3.602 -0.4906  0.3656 -0.0436
  309TIP3    H122486   6.736   2.884   3.683 -1.1649 -0.5981 -0.7466
  309TIP3    H222487   6.864   2.894   3.604  0.5999  3.7390  2.2684
  310TIP3   OH222488   4.418   0.751   1.098 -0.1132 -0.0828 -0.0985
  310TIP3    H122489   4.354   0.690   1.059 -1.0486  0.6257  0.2928
  310TIP3    H222490   4.415   0.828   1.042  1.3392 -0.5086 -0.8046
  311TIP3   OH222491   6.629   6.300   0.742  0.3206 -0.0786 -0.1116
  311TIP3    H122492   6.562   6.317   0.809  1.7781  0.3422  1.2850
  311TIP3    H222493   6.617   6.208   0.719 -0.5975 -0.0662  0.2677
  312TIP3   OH222494   1.761   4.074   0.544 -0.0714  0.0266 -0.1619
  312TIP3    H122495   1.826   4.057   0.612 -1.2581 -0.5667  0.8469
  312TIP3    H222496   1.723   3.989   0.524  1.6106 -0.1934 -3.0657
  313TIP3   OH222497   5.988   2.894   3.830  0.3396 -0.4779  0.4874
  313TIP3    H122498   5.956   2.805   3.838  0.4683 -0.4911  0.8476
  313TIP3    H222499   6.084   2.886   3.830  0.3516 -0.4192 -0.3745
  314TIP3   OH222500   3.714   3.002   8.331 -0.1802 -0.0962  0.4681
  314TIP3    H122501   3.783   2.936   8.320  0.6297  0.6472  0.9241
  314TIP3    H222502   3.649   2.980   8.265  1.4576  0.3882 -1.4168
  315TIP3   OH222503   3.038   5.307   0.456 -0.5692  0.1474  0.0189
  315TIP3    H122504   2.949   5.297   0.423 -1.0684  0.8634  1.0777
  315TIP3    H222505   3.028   5.311   0.551  0.4341  1.5717  0.0985
  316TIP3   OH222506   0.715   4.776   2.267 -0.5993 -0.0551 -0.5271
  316TIP3    H122507   0.678   4.714   2.204  0.0705 -1.0648  0.0529
  316TIP3    H222508   0.742   4.722   2.341 -0.0315  0.9338  0.0052
  317TIP3   OH222509   2.937   1.667   7.656  0.2651  0.2257  0.5727
  317TIP3    H122510   2.960   1.581   7.620  1.1453  0.6124  0.1766
  317TIP3    H222511   3.016   1.694   7.704 -0.1975  0.5792  1.1534
  318TIP3   OH222512   6.086   1.469   0.342 -0.7241  0.4901 -0.3504
  318TIP3    H122513   6.135   1.468   0.424 -2.4355 -1.5244  0.7567
  318TIP3    H222514   6.151   1.487   0.274  1.4345 -1.4539  1.0848
  319TIP3   OH222515   5.132   2.170   2.202 -0.3570 -0.1755  0.1675
  319TIP3    H122516   5.217   2.209   2.221  0.2777 -0.9505 -0.9835
  319TIP3    H222517   5.109   2.201   2.115 -1.4362  0.3029  0.5949
  320TIP3   OH222518   4.467   1.846   3.385 -0.5535  0.0930 -0.3398
  320TIP3    H122519   4.373   1.837   3.400 -0.3050 -0.2695  1.1841
  320TIP3    H222520   4.495   1.915   3.446  0.3526 -0.6623  0.1374
  321TIP3   OH222521   6.512   4.185   2.651 -0.0823 -0.5348 -0.0837
  321TIP3    H122522   6.434   4.132   2.640 -0.0789 -0.5510 -0.0323
  321TIP3    H222523   6.568   4.133   2.710 -0.0603 -0.4946 -0.0692
  322TIP3   OH222524   3.487   0.633   2.874  0.5569 -0.1601 -0.2332
  322TIP3    H122525   3.461   0.710   2.924 -1.1848 -0.9925  0.2135
  322TIP3    H222526   3.437   0.639   2.793 -0.3445 -1.2835  0.2113
  323TIP3   OH222527   1.120   5.462   3.687 -0.6499  0.5463  0.3374
  323TIP3    H122528   1.164   5.547   3.697  1.8931 -0.4573 -1.2473
  323TIP3    H222529   1.147   5.413   3.764 -0.6862  0.6142  0.3937
  324TIP3   OH222530   6.030   2.055   3.216 -0.4780 -0.4047  0.5382
  324TIP3    H122531   6.057   2.109   3.290  0.1910 -0.2795  0.2142
  324TIP3    H222532   5.941   2.082   3.197 -1.2147 -1.4867  2.2321
  325TIP3   OH222533   3.504   0.765   0.250  0.4990  0.0794  0.0276
  325TIP3    H122534   3.490   0.674   0.223 -0.8342 -0.2587  1.6878
  325TIP3    H222535   3.597   0.781   0.232  1.0869 -2.0303  0.8430
  326TIP3   OH222536   2.968   0.114   1.973 -0.7572  0.2642 -0.4991
  326TIP3    H122537   2.959   0.067   1.889  0.2579  0.9853 -1.0338
  326TIP3    H222538   2.934   0.201   1.955 -2.9111 -0.2714  0.5741
  327TIP3   OH222539   2.336   5.658   2.494 -0.0102 -0.1904 -0.3358
  327TIP3    H122540   2.370   5.583   2.543 -0.7563 -0.1019  0.3414
  327TIP3    H222541   2.359   5.734   2.549 -0.1856 -0.0237 -0.4925
  328TIP3   OH222542   5.615   0.685   2.526  0.5749  0.2195  0.2375
  328TIP3    H122543   5.614   0.602   2.478  2.3056 -0.0429  0.5869
  328TIP3    H222544   5.576   0.664   2.611 -1.9320  0.5466 -0.7514
  329TIP3   OH222545   6.018   2.392   2.193  0.3623 -0.1766 -0.1946
  329TIP3    H122546   6.073   2.348   2.128  1.6121  1.7706 -0.5341
  329TIP3    H222547   6.078   2.452   2.238 -1.0426  0.4252  0.9430
  330TIP3   OH222548   1.468   2.860   2.208  0.3121 -0.2126 -0.1892
  330TIP3    H122549   1.446   2.944   2.168  0.5661 -0.5152 -0.9703
  330TIP3    H222550   1.461   2.796   2.137 -1.0782 -1.0578  0.6458
  331TIP3   OH222551   3.855   0.026   1.468 -0.6501 -0.4021  0.2323
  331TIP3    H122552   3.779  -0.003   1.418 -0.6809  0.2708 -0.1090
  331TIP3    H222553   3.893  -0.056   1.502 -1.0204 -0.8100 -0.3141
  332TIP3   OH222554   6.201   6.725   1.507  0.4393  0.0159  0.6252
  332TIP3    H122555   6.128   6.774   1.469  1.2875  0.9941  0.2290
  332TIP3    H222556   6.246   6.686   1.432 -0.7046 -2.1657  0.9648
  333TIP3   OH222557   4.167   5.795   3.820 -0.1713 -0.3635 -0.1347
  333TIP3    H122558   4.211   5.786   3.904  0.9900  1.1140 -0.5371
  333TIP3    H222559   4.221   5.745   3.759 -0.1777 -0.2093 -0.2671
  334TIP3   OH222560   3.605   3.697   1.033 -0.2069  0.1138 -0.1945
  334TIP3    H122561   3.517   3.661   1.023  0.2625 -0.7111 -1.6566
  334TIP3    H222562   3.647   3.681   0.949  1.4738  0.1462  0.6036
  335TIP3   OH222563   3.927   5.822   0.345 -0.5617  0.0423  0.2178
  335TIP3    H122564   3.993   5.832   0.276  0.7254  0.8282  1.5163
  335TIP3    H222565   3.894   5.733   0.332 -1.0233  0.4621 -1.9560
  336TIP3   OH222566   5.424   1.393   0.540 -0.4464 -1.1822  0.4051
  336TIP3    H122567   5.443   1.447   0.463  1.3848 -1.2058  0.7728
  336TIP3    H222568   5.496   1.329   0.542 -1.3503 -2.1953  1.2389
  337TIP3   OH222569   1.250   2.675   8.057 -0.3959  0.1431 -0.0378
  337TIP3    H122570   1.305   2.620   8.113  0.4121 -0.0835 -1.0332
  337TIP3    H222571   1.276   2.765   8.079  0.4159  0.0353 -0.5271
  338TIP3   OH222572   4.150   5.524   3.042 -0.4296 -0.1712 -0.6165
  338TIP3    H122573   4.149   5.517   3.138 -0.5834 -1.6942 -0.7130
  338TIP3    H222574   4.061   5.500   3.016 -0.5908  0.9068 -1.1207
  339TIP3   OH222575   2.881   2.948   0.121 -0.4912 -0.0083 -0.0718
  339TIP3    H122576   2.967   2.928   0.157 -0.3046 -1.3524 -1.1924
  339TIP3    H222577   2.896   3.023   0.062 -0.1997  0.1129  0.1577
  340TIP3   OH222578   4.146   4.557   2.399  0.2662 -0.1767 -0.6299
  340TIP3    H122579   4.170   4.465   2.400  1.8283  0.1071 -2.7068
  340TIP3    H222580   4.213   4.600   2.452  0.0943 -0.1491 -0.4370
  341TIP3   OH222581   2.905   1.632   0.639  0.0621  0.1674 -0.2901
  341TIP3    H122582   2.893   1.561   0.702 -0.1364  2.9650  3.0962
  341TIP3    H222583   2.987   1.673   0.664  0.2814  1.0593 -2.2833
  342TIP3   OH222584   6.491   2.508   1.801 -0.3176 -0.4680 -0.5652
  342TIP3    H122585   6.565   2.514   1.741 -0.8127 -2.6569 -1.5051
  342TIP3    H222586   6.523   2.454   1.874 -0.0025  1.4070  0.7539
  343TIP3   OH222587   0.131   5.762   2.432  0.0062 -0.7318  0.2359
  343TIP3    H122588   0.110   5.727   2.519  0.5878  0.0067  0.6887
  343TIP3    H222589   0.060   5.823   2.413  0.8290  0.5482  1.0588
  344TIP3   OH222590   3.816   6.706   0.588 -0.2651 -0.3017 -0.6895
  344TIP3    H122591   3.785   6.749   0.668  0.4376  1.3169 -1.2387
  344TIP3    H222592   3.742   6.653   0.560 -1.3229  0.8048 -0.1328
  345TIP3   OH222593   0.571   6.384   8.110  0.3539  0.9138 -0.3670
  345TIP3    H122594   0.550   6.467   8.067 -1.4134 -0.1375 -1.7008
  345TIP3    H222595   0.662   6.367   8.087  0.8592  2.6308  0.2379
  346TIP3   OH222596   0.715   4.996   3.860  0.1638 -0.1080 -0.0968
  346TIP3    H122597   0.650   5.062   3.883 -1.0534 -0.4061 -2.4001
  346TIP3    H222598   0.665   4.916   3.849  1.6245 -1.5442  2.7008
  347TIP3   OH222599   0.958   2.725   1.931  0.2305  0.1508 -0.0386
  347TIP3    H122600   1.039   2.675   1.942  0.0120 -0.1457  0.2210
  347TIP3    H222601   0.936   2.714   1.838  0.6902  0.5473 -0.2001
  348TIP3   OH222602   6.224   1.239   2.221  0.2448  0.3161  0.1257
  348TIP3    H122603   6.320   1.240   2.217  0.2108  1.3362 -1.4079
  348TIP3    H222604   6.202   1.316   2.274  0.2754  1.2561 -1.1674
  349TIP3   OH222605   3.914   2.673   2.832 -0.0631 -0.0637 -0.5073
  349TIP3    H122606   3.970   2.680   2.909  0.0555  2.1942 -0.7287
  349TIP3    H222607   3.843   2.735   2.847 -0.1154  0.3318 -2.1354
  350TIP3   OH222608   4.372   5.638   1.275 -0.4715 -0.2391 -0.3144
  350TIP3    H122609   4.386   5.638   1.180 -1.2782 -1.1425 -0.4527
  350TIP3    H222610   4.419   5.561   1.306 -1.3372 -0.7252 -0.1786
  351TIP3   OH222611   1.856   2.128   0.425  0.1099  0.2684 -0.2497
  351TIP3    H122612   1.893   2.045   0.454  1.0804  0.0950 -1.8933
  351TIP3    H222613   1.766   2.127   0.458 -0.3234 -2.0161 -1.3114
  352TIP3   OH222614   3.214   1.861   1.289  0.0824  0.1356 -0.1727
  352TIP3    H122615   3.193   1.893   1.377  1.2253 -2.3480  1.1386
  352TIP3    H222616   3.141   1.804   1.266 -0.7194  1.5711 -1.3589
  353TIP3   OH222617   2.504   6.501   0.024 -0.1779 -0.0681 -0.4745
  353TIP3    H122618   2.551   6.484   0.106 -1.3121 -0.1622  0.1815
  353TIP3    H222619   2.454   6.580   0.042 -1.1113 -0.5825 -0.7688
  354TIP3   OH222620   3.679   1.308   8.488  0.6574 -0.0226 -0.2289
  354TIP3    H122621   3.662   1.333   8.397 -0.1977 -0.7869 -0.2946
  354TIP3    H222622   3.632   1.373   8.540 -2.0659 -1.7185 -0.4035
  355TIP3   OH222623   3.766   4.214   8.289 -0.5741  0.0575  0.5354
  355TIP3    H122624   3.850   4.194   8.248 -0.3384  1.6661  0.1677
  355TIP3    H222625   3.789   4.252   8.374 -0.9517  0.1988  0.5763
  356TIP3   OH222626   6.321   4.381   1.049 -0.1005 -0.0726 -0.0806
  356TIP3    H122627   6.281   4.325   0.982  1.1587 -1.2701  0.1201
  356TIP3    H222628   6.264   4.457   1.054 -1.7798 -1.2524 -0.5043
  357TIP3   OH222629   3.494   1.713   2.099 -0.2240 -0.3893 -0.1839
  357TIP3    H122630   3.571   1.724   2.043 -0.8529 -0.1229 -1.0108
  357TIP3    H222631   3.524   1.737   2.186  0.8503 -1.0914 -0.3482
  358TIP3   OH222632   5.636   1.234   0.614 -0.4881  0.1407  0.4999
  358TIP3    H122633   5.642   1.149   0.658 -0.6061 -0.8920 -1.3771
  358TIP3    H222634   5.726   1.256   0.591 -0.6726 -0.8642 -1.4169
  359TIP3   OH222635   4.827   6.581   7.776  0.3517 -0.1274  0.3259
  359TIP3    H122636   4.790   6.647   7.718  0.4740 -0.9266 -0.7004
  359TIP3    H222637   4.751   6.544   7.821  0.3726  1.4103  1.7212
  360TIP3   OH222638   0.926   6.800   3.051  0.0626 -0.1054 -0.4238
  360TIP3    H122639   0.863   6.861   3.013 -0.6885 -0.0664  0.8278
  360TIP3    H222640   0.957   6.748   2.977 -0.5722  0.6449 -1.2412
  361TIP3   OH222641   5.529   3.337   2.409 -0.1937 -0.2128 -0.2662
  361TIP3    H122642   5.537   3.386   2.491 -1.3528  1.5754 -1.1682
  361TIP3    H222643   5.509   3.403   2.343 -1.2540 -1.8467 -1.6625
  362TIP3   OH222644   5.831   6.666   3.001 -0.3188  0.6462  0.5470
  362TIP3    H122645   5.863   6.592   2.949 -3.5114 -0.7369  0.3430
  362TIP3    H222646   5.873   6.743   2.961  0.8514 -0.7568 -1.0994
  363TIP3   OH222647   3.942   0.693   3.075 -0.1899  0.0302  0.2513
  363TIP3    H122648   3.915   0.683   2.984  0.0348 -0.3158  0.2180
  363TIP3    H222649   3.888   0.629   3.122  0.7020 -0.8230  0.1544
  364TIP3   OH222650   6.204   2.303   2.750  0.2638 -0.3221  0.1161
  364TIP3    H122651   6.208   2.306   2.846  1.1697  1.3308  0.0623
  364TIP3    H222652   6.295   2.291   2.723  0.3697  1.6411 -0.5602
  365TIP3   OH222653   5.691   1.256   3.601  0.1953 -0.0626 -0.1301
  365TIP3    H122654   5.757   1.309   3.646  1.5486 -2.2097  0.5920
  365TIP3    H222655   5.708   1.271   3.508  1.0390  0.1893  0.0508
  366TIP3   OH222656   0.168   3.096   1.726 -0.0510  0.2105  0.0734
  366TIP3    H122657   0.250   3.145   1.736  0.3665 -0.4479 -0.0452
  366TIP3    H222658   0.195   3.011   1.691 -0.7916 -0.0008 -0.0057
  367TIP3   OH222659   4.209   0.145   3.020 -0.5449 -0.3703  0.3595
  367TIP3    H122660   4.301   0.168   3.019 -0.8308  0.8619  1.2138
  367TIP3    H222661   4.204   0.067   3.075 -0.3313  1.1413  2.6372
  368TIP3   OH222662   1.357   0.083   1.109  0.3891 -0.2418  0.2489
  368TIP3    H122663   1.432   0.111   1.056 -0.4800 -1.2112 -1.5766
  368TIP3    H222664   1.295   0.155   1.103  0.8172  0.2160  1.0952
  369TIP3   OH222665   5.829   2.640   3.006  0.5336 -0.2682 -0.5822
  369TIP3    H122666   5.923   2.624   2.994  0.8603  0.9257  0.1922
  369TIP3    H222667   5.821   2.666   3.097 -0.4587  0.2921 -0.8206
  370TIP3   OH222668   1.382   6.190   8.167 -0.1694  0.5006 -0.4677
  370TIP3    H122669   1.473   6.164   8.159 -0.5296 -0.6040 -1.1087
  370TIP3    H222670   1.383   6.264   8.228  1.0344 -0.1247  0.2988
  371TIP3   OH222671   5.540   5.819   1.023  0.0014  0.1463 -0.2768
  371TIP3    H122672   5.512   5.897   0.975 -0.5578 -0.3455 -0.7799
  371TIP3    H222673   5.512   5.836   1.113  1.7998  1.4354  0.0966
  372TIP3   OH222674   1.681   0.441   2.835 -0.3002  0.1038 -0.5991
  372TIP3    H122675   1.593   0.477   2.842  0.0111  1.2408 -2.0288
  372TIP3    H222676   1.735   0.514   2.806  1.1472 -0.5558  0.2618
  373TIP3   OH222677   0.926   0.944   3.092  0.3321 -0.0032 -0.1438
  373TIP3    H122678   0.864   0.919   3.161  0.6643  0.2465  0.2537
  373TIP3    H222679   0.871   0.970   3.019 -0.0263 -0.8154 -0.1761
  374TIP3   OH222680   0.860   1.411   3.545 -0.2095 -0.2226  0.2160
  374TIP3    H122681   0.796   1.482   3.548 -1.4673 -1.3650  0.8042
  374TIP3    H222682   0.922   1.431   3.615  0.1191  0.8750 -0.3510
  375TIP3   OH222683   4.597   0.018   2.667 -0.0062  0.0525 -0.3912
  375TIP3    H122684   4.537  -0.046   2.705 -0.6481 -0.4509 -2.1660
  375TIP3    H222685   4.541   0.078   2.619  0.5922  2.0129  1.2251
  376TIP3   OH222686   1.583   5.119   0.554 -0.3944 -0.2707  0.1678
  376TIP3    H122687   1.489   5.115   0.539 -0.8654  0.9845  2.3679
  376TIP3    H222688   1.597   5.063   0.631  0.3452  1.0002  0.9923
  377TIP3   OH222689   0.863   2.806   1.323  0.4269 -0.8229 -0.0373
  377TIP3    H122690   0.931   2.740   1.337  0.9814 -0.2314  0.1099
  377TIP3    H222691   0.867   2.826   1.229  3.7325  2.5911  0.5801
  378TIP3   OH222692   1.484   4.794   8.489 -0.4803  0.0939 -0.6911
  378TIP3    H122693   1.529   4.727   8.438  0.2206 -0.1721  0.2451
  378TIP3    H222694   1.449   4.855   8.424  0.7022 -0.0253 -1.4574
  379TIP3   OH222695   1.568   5.828   3.178 -0.5497 -0.3356  0.4007
  379TIP3    H122696   1.503   5.854   3.243 -0.8605 -1.2056  0.4460
  379TIP3    H222697   1.610   5.750   3.216 -0.0561 -0.2746 -0.0035
  380TIP3   OH222698   1.226   2.675   8.448 -0.3098 -0.1001 -0.6569
  380TIP3    H122699   1.266   2.721   8.522 -0.8416 -0.4361 -0.1584
  380TIP3    H222700   1.205   2.745   8.386 -0.3382  0.2392 -0.2699
  381TIP3   OH222701   2.214   1.705   1.331  0.2064  0.0143 -0.4834
  381TIP3    H122702   2.196   1.701   1.425 -0.3550  0.5842 -0.5544
  381TIP3    H222703   2.240   1.616   1.307  0.4004 -0.1242  0.2178
  382TIP3   OH222704   5.680   2.788   2.843 -0.7894  0.5231 -0.1815
  382TIP3    H122705   5.729   2.815   2.765  1.4042  0.4208  1.0878
  382TIP3    H222706   5.744   2.740   2.896 -2.6004 -0.6198  1.0619
  383TIP3   OH222707   2.118   1.538   2.601 -0.4379 -0.1842 -0.1705
  383TIP3    H122708   2.050   1.482   2.638 -1.5905  0.9139 -0.5940
  383TIP3    H222709   2.191   1.531   2.664 -0.8996 -1.4056  0.2560
  384TIP3   OH222710   4.549   1.065   2.606  0.3320  0.5356 -0.0808
  384TIP3    H122711   4.487   1.021   2.664 -0.4039  1.2994 -0.2647
  384TIP3    H222712   4.512   1.153   2.593  1.0601  0.7526 -0.8026
  385TIP3   OH222713   1.001   0.702   8.565  0.0424  0.1400  0.0626
  385TIP3    H122714   0.925   0.648   8.547 -0.9015  1.4723 -0.0590
  385TIP3    H222715   1.064   0.681   8.496 -0.4528 -0.5091 -0.1896
  386TIP3   OH222716   6.550   2.528   2.310  0.5660 -0.7185  0.4989
  386TIP3    H122717   6.502   2.507   2.390  0.5920 -0.6273  0.5376
  386TIP3    H222718   6.593   2.445   2.286 -0.2799 -1.0247  0.0040
  387TIP3   OH222719   0.834   1.830   2.317  0.3613 -0.4888 -0.0541
  387TIP3    H122720   0.844   1.924   2.334  2.2436 -0.5130 -0.7320
  387TIP3    H222721   0.883   1.815   2.236  1.3790 -2.2819  0.8310
  388TIP3   OH222722   6.800   4.665   1.327 -0.4354 -0.8318 -0.1526
  388TIP3    H122723   6.883   4.673   1.280  1.0554  1.7864  2.5221
  388TIP3    H222724   6.739   4.630   1.263  1.8811  0.4720 -3.3460
  389TIP3   OH222725   5.851   3.725   3.552  0.8232  0.0823  0.3930
  389TIP3    H122726   5.786   3.678   3.604  1.2600  0.5873  1.4313
  389TIP3    H222727   5.909   3.766   3.617  2.0291 -0.1436 -0.4986
  390TIP3   OH222728   2.679   5.019   2.089  0.1376 -0.1862  0.1653
  390TIP3    H122729   2.744   5.028   2.158  0.5451 -0.2900 -0.2051
  390TIP3    H222730   2.714   5.070   2.015 -0.1805 -0.2680 -0.0457
  391TIP3   OH222731   0.053   5.537   2.957 -0.1243  0.5314 -0.0725
  391TIP3    H122732  -0.019   5.488   2.918  1.5622 -1.2562 -1.1296
  391TIP3    H222733   0.088   5.590   2.885 -0.4931  1.5718  0.4906
  392TIP3   OH222734   1.677   3.755   1.972  0.5057  0.7182 -0.0042
  392TIP3    H122735   1.739   3.707   1.917 -0.7454  0.9524 -1.6783
  392TIP3    H222736   1.608   3.782   1.913 -0.4702  1.7642  1.5387
  393TIP3   OH222737   1.501   5.631   2.611 -0.5213  0.3999  0.4911
  393TIP3    H122738   1.498   5.597   2.521 -1.1004  0.0353  0.6421
  393TIP3    H222739   1.535   5.558   2.663 -0.1533  0.6224  0.5725
  394TIP3   OH222740   2.904   0.236   7.902 -0.1135  0.2039 -0.3788
  394TIP3    H122741   2.906   0.296   7.976 -0.9968 -1.7726  1.3447
  394TIP3    H222742   2.824   0.185   7.914  0.4282 -1.1208 -1.9338
  395TIP3   OH222743   6.349   0.402   1.858  0.2028  0.7993  1.1247
  395TIP3    H122744   6.396   0.401   1.775  1.4675  1.0775  1.8080
  395TIP3    H222745   6.292   0.326   1.854  0.1467  0.8833 -0.0438
  396TIP3   OH222746   1.208   1.713   0.960  0.4293  0.2708  0.8410
  396TIP3    H122747   1.128   1.714   0.908  1.1159 -0.8550 -0.2912
  396TIP3    H222748   1.212   1.800   1.000  0.9164  2.0020 -2.6079
  397TIP3   OH222749   0.853   5.401   1.970  0.0080 -0.3185  0.0633
  397TIP3    H122750   0.758   5.404   1.986 -0.0311  0.2573 -0.2392
  397TIP3    H222751   0.879   5.314   1.999 -0.2510  0.2572  2.2279
  398TIP3   OH222752   5.067   4.978   0.140  0.1661  0.3204 -0.1807
  398TIP3    H122753   5.027   5.008   0.059 -0.6894  0.8513  0.4235
  398TIP3    H222754   4.996   4.980   0.204  1.0727  0.9460  0.8368
  399TIP3   OH222755   2.176   1.387   1.263 -0.5214 -0.5372  0.5361
  399TIP3    H122756   2.248   1.407   1.324 -1.0574 -0.5251  1.1770
  399TIP3    H222757   2.100   1.372   1.320 -1.3305  0.7111 -0.1655
  400TIP3   OH222758   6.267   1.749   8.576 -0.0361 -0.2133 -0.3427
  400TIP3    H122759   6.352   1.712   8.551 -0.1189  0.2067 -1.3006
  400TIP3    H222760   6.270   1.839   8.545 -0.6701 -0.0677 -0.0015
  401TIP3   OH222761   5.224   0.126   2.204  0.1187 -0.3468 -0.6063
  401TIP3    H122762   5.165   0.181   2.256 -0.7684 -1.8576  0.0448
  401TIP3    H222763   5.281   0.189   2.159 -1.2948  1.1264 -0.4463
  402TIP3   OH222764   1.629   3.290   2.156 -0.5356  0.3069 -0.5717
  402TIP3    H122765   1.711   3.339   2.153  0.3272 -1.0888 -1.2808
  402TIP3    H222766   1.628   3.241   2.074 -1.5628 -0.4855 -0.1037
  403TIP3   OH222767   6.827   4.130   1.884  0.4364 -0.3170 -0.4725
  403TIP3    H122768   6.901   4.125   1.944  0.8564  1.3006 -0.8063
  403TIP3    H222769   6.853   4.077   1.809  0.2648 -1.6428  0.3715
  404TIP3   OH222770   5.283   4.887   0.280  0.1073 -0.4853  0.3920
  404TIP3    H122771   5.202   4.935   0.263 -0.5959 -1.0892  1.8376
  404TIP3    H222772   5.257   4.795   0.273  1.7008 -0.8542 -3.6887
  405TIP3   OH222773   6.189   0.038   8.689 -0.0466 -0.0044 -0.0351
  405TIP3    H122774   6.174   0.110   8.750 -1.5179 -0.3005 -0.0181
  405TIP3    H222775   6.148  -0.038   8.729 -0.6835 -0.2937 -1.1833
  406TIP3   OH222776   2.433   0.563   3.709  0.4001 -0.2240  0.6650
  406TIP3    H122777   2.362   0.585   3.649  1.1025  0.5797  0.1104
  406TIP3    H222778   2.421   0.469   3.725 -0.0349 -0.3743 -0.4208
  407TIP3   OH222779   2.830   5.384   3.222 -0.2610  0.0017  0.2430
  407TIP3    H122780   2.868   5.423   3.143 -0.9369 -1.6049 -0.9324
  407TIP3    H222781   2.756   5.441   3.244 -1.8892 -1.0643 -2.0509
  408TIP3   OH222782   5.382   1.578   1.380 -0.0213 -0.3343  0.2978
  408TIP3    H122783   5.450   1.536   1.327  0.1266 -1.9496  1.6858
  408TIP3    H222784   5.320   1.611   1.316  1.1289 -0.4842 -0.9504
  409TIP3   OH222785   6.467   2.754   8.533  0.8367 -1.0350 -0.2848
  409TIP3    H122786   6.451   2.697   8.609  0.3803 -1.1274 -0.4437
  409TIP3    H222787   6.443   2.700   8.458 -1.2839 -0.0925 -0.3486
  410TIP3   OH222788   0.386   1.668   2.444  0.5365 -0.0172 -1.3432
  410TIP3    H122789   0.335   1.731   2.496  0.7569 -1.7912  1.1994
  410TIP3    H222790   0.347   1.672   2.357 -1.3210  1.5722 -0.5174
  411TIP3   OH222791   6.259   2.904   3.900 -0.3249 -0.4048 -0.1411
  411TIP3    H122792   6.297   2.890   3.987  0.1939  1.7397  0.0439
  411TIP3    H222793   6.335   2.914   3.842 -0.6406 -0.0259 -0.5012
  412TIP3   OH222794   1.190   0.882   3.171 -0.0526 -0.1016  0.3574
  412TIP3    H122795   1.193   0.885   3.267  0.5337  1.3965  0.3226
  412TIP3    H222796   1.103   0.915   3.148  0.1257  0.3844  0.3654
  413TIP3   OH222797   3.562   6.008   1.877  0.1089  0.0642 -0.3948
  413TIP3    H122798   3.484   5.980   1.925  0.2958 -0.4128 -0.3755
  413TIP3    H222799   3.584   5.934   1.821  1.4046 -0.3571  0.6376
  414TIP3   OH222800   5.534   2.955   1.441  0.4778 -0.1583  0.1695
  414TIP3    H122801   5.569   2.876   1.483  2.1775  0.1140 -0.6641
  414TIP3    H222802   5.589   2.967   1.364 -2.1236 -0.3004 -1.8669
  415TIP3   OH222803   0.933   1.532   7.831  0.5610 -0.3889 -0.2848
  415TIP3    H122804   0.894   1.540   7.744  3.3345  0.3872 -1.5390
  415TIP3    H222805   0.992   1.457   7.824  0.7233 -0.3926  0.9747
  416TIP3   OH222806   2.748   0.779   1.744 -0.1602 -0.5984  0.8721
  416TIP3    H122807   2.732   0.772   1.650  0.3539  0.2813  0.7047
  416TIP3    H222808   2.661   0.790   1.782 -0.3867 -1.1328  0.5196
  417TIP3   OH222809   5.974   1.781   8.371  0.5074 -0.5685  0.1481
  417TIP3    H122810   5.904   1.754   8.310 -0.9047 -1.2115  1.9628
  417TIP3    H222811   6.025   1.701   8.385  1.0024 -0.3524 -0.3627
  418TIP3   OH222812   3.970   2.925   0.763  0.8883 -0.1456  0.1839
  418TIP3    H122813   4.049   2.882   0.795  0.8409  0.0261  0.5416
  418TIP3    H222814   3.954   2.995   0.827  0.4112 -0.2237  0.1504
  419TIP3   OH222815   3.547   3.949   2.101 -0.3355 -0.0800 -0.2766
  419TIP3    H122816   3.496   3.879   2.144  0.1864 -0.9256 -1.0129
  419TIP3    H222817   3.490   3.981   2.032 -0.1924 -0.4610 -0.5729
  420TIP3   OH222818   1.269   4.704   3.338  0.1638  0.2315  0.2500
  420TIP3    H122819   1.204   4.635   3.346 -0.7504  0.6225 -2.6308
  420TIP3    H222820   1.271   4.746   3.424 -1.0766 -1.7601  1.3120
  421TIP3   OH222821   4.320   0.657   0.348 -0.3070  0.0238  0.1202
  421TIP3    H122822   4.369   0.726   0.302  2.4680 -1.0943  1.2184
  421TIP3    H222823   4.336   0.578   0.297  0.4873 -0.6919  1.4435
  422TIP3   OH222824   5.944   5.578   2.720 -0.1355  0.1611  0.6042
  422TIP3    H122825   5.979   5.505   2.669 -2.4536 -0.6738  0.1040
  422TIP3    H222826   5.972   5.561   2.809 -0.2929 -1.1218  0.4215
  423TIP3   OH222827   5.933   2.594   1.440 -0.3189  0.6398 -0.1209
  423TIP3    H122828   5.912   2.580   1.347 -2.3809 -1.4080  0.5551
  423TIP3    H222829   6.023   2.563   1.449 -0.6260 -0.7108 -1.1887
  424TIP3   OH222830   6.292   2.550   2.075  0.1499  0.5686 -0.5987
  424TIP3    H122831   6.310   2.538   2.168  1.0284  1.9545 -0.5532
  424TIP3    H222832   6.243   2.632   2.070 -1.0574 -0.1485 -1.2758
  425TIP3   OH222833   4.536   6.298   8.490 -0.1187  0.3754 -0.1827
  425TIP3    H122834   4.520   6.308   8.396  0.1189  0.4837 -0.2140
  425TIP3    H222835   4.617   6.247   8.495  0.2321  0.9311 -0.0462
  426TIP3   OH222836   2.438   1.050   0.193  0.4054  0.2143 -0.5329
  426TIP3    H122837   2.487   0.984   0.144 -0.8330 -0.8496 -0.3739
  426TIP3    H222838   2.399   1.002   0.266  0.2470  1.3122  0.1307
  427TIP3   OH222839   4.942   5.112   2.987 -0.3438  0.1992  0.0322
  427TIP3    H122840   4.895   5.075   3.062  1.5369  0.3067  1.3183
  427TIP3    H222841   4.980   5.193   3.020 -0.8717  1.1472 -1.5572
  428TIP3   OH222842   1.339   4.643   3.998  0.2292  0.1474 -0.2425
  428TIP3    H122843   1.393   4.721   4.011 -1.4160  1.4333 -0.7687
  428TIP3    H222844   1.328   4.606   4.086  0.7266  0.7218  0.0656
  429TIP3   OH222845   3.142   3.811   1.996  0.1876 -0.6877  0.2326
  429TIP3    H122846   3.069   3.749   1.999 -1.2372  0.9352  0.4674
  429TIP3    H222847   3.103   3.894   1.970  2.0134  0.1732  0.0625
  430TIP3   OH222848   5.677   0.390   3.072 -0.3410  0.2397 -1.4223
  430TIP3    H122849   5.621   0.375   2.996  0.7555 -0.7783 -2.0649
  430TIP3    H222850   5.671   0.309   3.122  1.3860 -0.3227 -2.0706
  431TIP3   OH222851   0.362   0.274   3.515  0.2167  0.0975  0.2302
  431TIP3    H122852   0.426   0.203   3.505 -1.1159 -0.9764 -1.2329
  431TIP3    H222853   0.411   0.345   3.556  1.8873 -1.2785  0.7354
  432TIP3   OH222854   3.336   4.460   8.627 -0.3481 -0.1036 -0.7560
  432TIP3    H122855   3.301   4.550   8.624 -1.0626 -0.3818 -1.0075
  432TIP3    H222856   3.281   4.416   8.692  1.1180  0.0980  0.6704
  433TIP3   OH222857   3.775   3.468   1.116 -0.0091 -0.1907 -0.0100
  433TIP3    H122858   3.745   3.559   1.116  0.8578  0.1019 -0.0912
  433TIP3    H222859   3.747   3.433   1.201 -0.0422  0.2494  0.1597
  434TIP3   OH222860   1.654   5.289   7.836 -0.3690  0.1521  0.5245
  434TIP3    H122861   1.669   5.224   7.767  1.7457 -0.1851  1.2119
  434TIP3    H222862   1.625   5.367   7.790 -1.0195 -0.6736 -0.5225
  435TIP3   OH222863   2.090   2.684   2.148  0.6689  0.0988  0.1274
  435TIP3    H122864   2.003   2.664   2.115  0.9681 -1.8919  0.4118
  435TIP3    H222865   2.147   2.618   2.108  1.9043  0.8588  0.5753
  436TIP3   OH222866   4.240   0.122   3.673  0.0589 -0.2082 -0.4551
  436TIP3    H122867   4.181   0.197   3.678 -1.1622 -1.1918  0.4375
  436TIP3    H222868   4.221   0.071   3.752  0.7357 -1.5339 -1.1142
  437TIP3   OH222869   3.725   6.829   2.193  0.4709 -0.0440 -0.4499
  437TIP3    H122870   3.788   6.763   2.164  0.9203  0.8384 -1.5635
  437TIP3    H222871   3.645   6.809   2.143  0.4108 -0.1251 -0.3207
  438TIP3   OH222872   3.075   1.507   8.331  0.6320 -0.3710  0.1498
  438TIP3    H122873   3.013   1.460   8.386 -1.7321  1.8912 -0.3781
  438TIP3    H222874   3.056   1.478   8.242 -0.6267  1.1833 -0.1454
  439TIP3   OH222875   3.519   3.813   2.481 -0.2475 -0.1965 -0.1403
  439TIP3    H122876   3.490   3.808   2.390  0.2718  3.4888 -0.6995
  439TIP3    H222877   3.440   3.839   2.530 -0.2436 -0.9434  0.2834
  440TIP3   OH222878   6.495   5.920   0.466  0.1907  0.2787 -0.2126
  440TIP3    H122879   6.429   5.984   0.442  0.0098 -0.1818 -0.9624
  440TIP3    H222880   6.541   5.960   0.540 -0.0681  1.1700 -0.5195
  441TIP3   OH222881   2.998   1.204   2.751 -0.2247 -0.7460  0.4492
  441TIP3    H122882   3.024   1.113   2.761 -1.4871 -1.0601  1.0807
  441TIP3    H222883   2.957   1.209   2.665  0.6757 -0.5560  0.0246
  442TIP3   OH222884   6.184   3.552   8.354 -0.4494  0.4596 -0.5044
  442TIP3    H122885   6.251   3.606   8.398  0.7743  1.3079 -3.2080
  442TIP3    H222886   6.232   3.503   8.288 -2.4787  1.3766 -2.8216
  443TIP3   OH222887   1.663   1.135   0.552  0.3127 -0.5136  0.3585
  443TIP3    H122888   1.575   1.145   0.588 -0.9500  0.0414 -2.5881
  443TIP3    H222889   1.671   1.041   0.536  0.0494 -0.5011  0.1447
  444TIP3   OH222890   2.280   6.345   0.864 -0.6631  0.4127  0.2354
  444TIP3    H122891   2.239   6.431   0.854 -0.0086  0.8921  1.5483
  444TIP3    H222892   2.240   6.292   0.795  1.7398  2.7482 -3.2980
  445TIP3   OH222893   4.473   1.064   2.332 -0.4772 -0.7696 -0.8076
  445TIP3    H122894   4.512   1.086   2.417 -2.7795  1.4177 -0.2107
  445TIP3    H222895   4.542   1.015   2.287  1.5765 -0.2514  1.5142
  446TIP3   OH222896   0.743   4.896   0.782 -0.3302 -0.2876  0.4474
  446TIP3    H122897   0.681   4.955   0.825 -0.1998  0.4358 -0.3139
  446TIP3    H222898   0.825   4.908   0.830 -0.6222 -0.8132  1.0918
  447TIP3   OH222899   5.640   4.701   2.637  0.5236  0.4603 -0.7719
  447TIP3    H122900   5.718   4.758   2.634 -0.0369  1.3409  0.5895
  447TIP3    H222901   5.676   4.613   2.645  1.3861  0.8423 -0.2613
  448TIP3   OH222902   1.138   5.335   2.124  0.1720  0.0655  0.5666
  448TIP3    H122903   1.055   5.371   2.154 -0.0365 -0.2618  0.3831
  448TIP3    H222904   1.203   5.401   2.149 -0.5110  2.0678 -2.4285
  449TIP3   OH222905   2.073   2.914   2.042  0.2384 -0.0047  0.0505
  449TIP3    H122906   2.076   2.832   2.091 -1.8813 -0.0549  0.1948
  449TIP3    H222907   1.999   2.904   1.982  0.5128  1.4600 -0.5911
  450TIP3   OH222908   4.918   5.374   1.754 -0.1353  0.0778  0.2944
  450TIP3    H122909   4.909   5.282   1.730  1.4177  0.0922 -0.5102
  450TIP3    H222910   4.938   5.373   1.847  2.5558 -0.6505 -0.1973
  451TIP3   OH222911   4.425   4.665   8.550  0.0979 -0.4203  0.1998
  451TIP3    H122912   4.416   4.759   8.534 -0.0640 -0.6502 -1.2129
  451TIP3    H222913   4.336   4.637   8.575 -0.0486 -0.3338 -0.2109
  452TIP3   OH222914   0.331   3.165   0.124 -0.1492 -0.6013  0.5553
  452TIP3    H122915   0.332   3.188   0.217  0.4851 -0.8022  0.6084
  452TIP3    H222916   0.367   3.242   0.080 -1.2787 -0.1595  0.3786
  453TIP3   OH222917   3.951   5.317   0.102 -0.2847 -0.4230 -0.3191
  453TIP3    H122918   4.007   5.267   0.161 -1.1471  0.9726  1.8030
  453TIP3    H222919   3.862   5.292   0.126 -0.6829  0.9090 -0.3089
  454TIP3   OH222920   5.458   4.366   8.233  0.3810  0.1096 -0.4399
  454TIP3    H122921   5.371   4.403   8.247 -0.2731 -1.0545 -1.2682
  454TIP3    H222922   5.489   4.406   8.152 -0.7152 -1.7092 -1.8550
  455TIP3   OH222923   3.610   0.418   3.018 -0.5339 -0.0242  0.3344
  455TIP3    H122924   3.556   0.391   3.092 -2.9715 -1.2374 -1.7389
  455TIP3    H222925   3.576   0.504   2.993 -0.7131 -0.2493 -0.2221
  456TIP3   OH222926   0.783   5.498   3.490  1.2012  0.1000 -0.0711
  456TIP3    H122927   0.795   5.590   3.513  1.4827 -0.0908  0.5461
  456TIP3    H222928   0.801   5.450   3.571 -0.3677 -0.4105  0.0118
  457TIP3   OH222929   1.876   4.895   0.347  0.3329  0.2615  0.1565
  457TIP3    H122930   1.954   4.947   0.327  1.2851 -1.2334 -0.1335
  457TIP3    H222931   1.804   4.942   0.304  1.4956  0.1507 -2.0409
  458TIP3   OH222932   0.137   4.281   1.562  0.4704  0.1763  0.1449
  458TIP3    H122933   0.070   4.333   1.605 -0.7489 -0.1743 -1.2449
  458TIP3    H222934   0.128   4.194   1.599  0.8775  0.3746  0.7184
  459TIP3   OH222935   6.433   5.283   2.945 -0.6784  0.2704  0.0555
  459TIP3    H122936   6.397   5.237   2.869  0.1612  1.1040 -0.8900
  459TIP3    H222937   6.365   5.345   2.970 -1.3983 -0.7449  0.6894
  460TIP3   OH222938   6.358   4.489   1.415 -0.1401 -0.1634  0.5532
  460TIP3    H122939   6.328   4.577   1.436  0.6010  0.9077 -2.4573
  460TIP3    H222940   6.453   4.493   1.426 -0.1896 -0.9066  1.3455
  461TIP3   OH222941   4.820   0.577   3.224 -0.4850  0.1351  0.1102
  461TIP3    H122942   4.729   0.549   3.215 -0.3036 -0.5051  0.1810
  461TIP3    H222943   4.867   0.525   3.158 -0.4017  1.6515 -1.1010
  462TIP3   OH222944   1.505   1.589   1.718  0.3638 -0.0684  0.1501
  462TIP3    H122945   1.473   1.588   1.628 -1.0227 -0.3877  0.6193
  462TIP3    H222946   1.511   1.496   1.742  2.1196 -0.0439 -0.0516
  463TIP3   OH222947   3.385   5.146   0.597 -0.3194  0.1268 -0.5199
  463TIP3    H122948   3.416   5.097   0.521  0.2166 -0.6121  0.1596
  463TIP3    H222949   3.301   5.106   0.618  0.1626 -0.5849  0.0932
  464TIP3   OH222950   1.796   3.229   0.657 -0.4238  0.8342  0.4058
  464TIP3    H122951   1.851   3.154   0.634 -2.0379 -0.6827  1.3016
  464TIP3    H222952   1.842   3.304   0.619 -0.4337 -0.8857 -3.5519
  465TIP3   OH222953   5.032   5.297   2.444 -0.3538  0.2734 -0.3710
  465TIP3    H122954   5.090   5.270   2.515 -1.1611 -0.5274  0.0166
  465TIP3    H222955   5.042   5.228   2.378  0.7187  1.2331 -1.2562
  466TIP3   OH222956   0.055   4.201   3.312  0.1238 -0.0113  0.1211
  466TIP3    H122957   0.093   4.122   3.351 -1.2585 -1.0965 -0.6410
  466TIP3    H222958  -0.008   4.231   3.377 -0.7015 -0.6455 -0.3589
  467TIP3   OH222959   1.510   4.221   1.164 -0.0521 -0.0294  0.2115
  467TIP3    H122960   1.572   4.279   1.209 -2.2599  0.6616  2.5999
  467TIP3    H222961   1.424   4.255   1.188 -1.4222 -1.5398 -2.1649
  468TIP3   OH222962   6.162   2.312   3.031 -0.3517 -0.8314 -0.1572
  468TIP3    H122963   6.175   2.217   3.030  2.6589 -0.5392  1.4284
  468TIP3    H222964   6.117   2.329   3.114 -0.4563 -0.7971 -0.2196
  469TIP3   OH222965   0.696   0.257   3.133 -0.2510  0.6865 -0.1651
  469TIP3    H122966   0.720   0.306   3.054  0.9511  0.7890  0.2450
  469TIP3    H222967   0.778   0.245   3.180 -0.7705 -0.3453  0.5324
  470TIP3   OH222968   1.280   6.214   2.599  0.0184  0.2717 -0.1893
  470TIP3    H122969   1.317   6.137   2.641  0.1451 -0.3550 -1.4081
  470TIP3    H222970   1.195   6.185   2.565  0.5540  0.3285 -1.6444
  471TIP3   OH222971   3.489   4.630   8.300  0.5389  0.2231 -0.0932
  471TIP3    H122972   3.482   4.583   8.216 -0.2603  1.7029 -0.8858
  471TIP3    H222973   3.408   4.608   8.346 -0.3743  1.6919 -0.9494
  472TIP3   OH222974   6.738   1.072   3.467  0.3698 -0.5378 -0.5865
  472TIP3    H122975   6.775   1.124   3.538  0.8971  0.1633 -1.3616
  472TIP3    H222976   6.706   0.993   3.510 -1.1536  0.7368  0.7220
  473TIP3   OH222977   2.225   3.735   1.828 -0.3852 -0.0273  0.3253
  473TIP3    H122978   2.272   3.656   1.804 -0.1586  0.3687 -0.5448
  473TIP3    H222979   2.293   3.797   1.853 -0.3816  0.6778 -1.3181
  474TIP3   OH222980   2.885   3.931   3.465  0.0259  0.8104 -0.3248
  474TIP3    H122981   2.852   3.922   3.376  1.2617 -0.5349 -0.6806
  474TIP3    H222982   2.917   4.021   3.470 -0.2714  0.9697 -1.1454
  475TIP3   OH222983   4.868   3.902   2.524  0.0915  0.4450  0.0479
  475TIP3    H122984   4.937   3.889   2.589  0.4505  1.2885 -0.1483
  475TIP3    H222985   4.899   3.975   2.471 -0.5535  0.2625 -0.5932
  476TIP3   OH222986   2.034   6.384   1.158 -0.2502 -0.1365  0.1295
  476TIP3    H122987   2.053   6.464   1.109 -0.8197  0.3340  0.6593
  476TIP3    H222988   1.946   6.359   1.131  0.5210 -1.5405 -1.2788
  477TIP3   OH222989   2.520   3.192   1.829 -0.1869  0.3046  0.0659
  477TIP3    H122990   2.524   3.216   1.922 -1.7493 -0.5249  0.3831
  477TIP3    H222991   2.463   3.116   1.827 -0.3648  0.4560 -1.6262
  478TIP3   OH222992   6.467   4.423   2.062  0.0457 -0.6373  0.2489
  478TIP3    H122993   6.504   4.454   1.979 -1.9257  0.3956 -0.2887
  478TIP3    H222994   6.393   4.481   2.079 -0.9980 -2.2650  1.5562
  479TIP3   OH222995   1.365   4.961   1.498 -0.6295  0.0512 -0.0738
  479TIP3    H122996   1.453   4.948   1.462 -0.1077  1.3129  0.6706
  479TIP3    H222997   1.376   5.031   1.563 -1.7175 -1.4164  1.7791
  480TIP3   OH222998   3.025   1.628   1.169 -0.2229  0.0695  0.1143
  480TIP3    H122999   2.968   1.681   1.225 -0.7854 -0.6420  0.2341
  480TIP3    H223000   3.020   1.540   1.207  1.5423  0.1293  0.5792
  481TIP3   OH223001   0.165   2.533   3.696  0.2797  0.3653  0.0571
  481TIP3    H123002   0.128   2.491   3.619  1.2795  1.2324 -0.9399
  481TIP3    H223003   0.215   2.463   3.740 -1.5229 -0.5128  0.7949
  482TIP3   OH223004   1.593   2.192   2.653  0.1796 -0.2107 -0.2686
  482TIP3    H123005   1.604   2.282   2.621 -1.4285 -0.5800 -2.0320
  482TIP3    H223006   1.628   2.137   2.583 -1.0768 -1.0027 -0.2960
  483TIP3   OH223007   1.748   1.378   0.637  0.4956 -0.0786 -0.2527
  483TIP3    H123008   1.719   1.290   0.616  1.8056 -0.5760 -0.0802
  483TIP3    H223009   1.819   1.396   0.576  0.9218  0.4496  0.3748
  484TIP3   OH223010   0.741   5.598   1.788 -0.3012 -0.1383  0.1585
  484TIP3    H123011   0.787   5.547   1.855  0.3197  0.5876  0.2992
  484TIP3    H223012   0.698   5.668   1.837  1.2710  1.2148 -0.2846
  485TIP3   OH223013   4.032   0.685   2.474  0.2564  0.3239 -0.1124
  485TIP3    H123014   4.124   0.666   2.459  0.4640  1.0489  0.2080
  485TIP3    H223015   4.021   0.678   2.569 -0.3449 -1.1514 -0.2632
  486TIP3   OH223016   4.470   2.671   2.587  0.1255  0.1153 -0.1103
  486TIP3    H123017   4.414   2.691   2.661  0.3602 -1.4911  0.5434
  486TIP3    H223018   4.416   2.688   2.510 -1.4872 -1.8895  0.5059
  487TIP3   OH223019   6.782   6.296   7.551 -0.5872  0.2995 -0.2857
  487TIP3    H123020   6.690   6.280   7.528 -0.7237 -2.1359  1.5408
  487TIP3    H223021   6.777   6.337   7.637  0.0426  1.2731 -0.7048
  488TIP3   OH223022   0.545   0.980   8.231  0.1497  0.2160 -0.4875
  488TIP3    H123023   0.536   1.074   8.215 -2.4921  0.2335  0.5765
  488TIP3    H223024   0.479   0.961   8.298  0.4877 -2.4448 -0.8082
  489TIP3   OH223025   3.859   4.473   8.063 -0.1715 -0.4602  0.0128
  489TIP3    H123026   3.863   4.534   8.136  1.0139  1.5527 -1.6226
  489TIP3    H223027   3.917   4.401   8.087  2.2561  1.3900  0.0783
  490TIP3   OH223028   0.752   6.748   1.244 -0.6685  0.0624  0.3316
  490TIP3    H123029   0.736   6.815   1.310  0.1550  0.3782  0.2319
  490TIP3    H223030   0.845   6.727   1.254 -0.0354  1.4222 -1.8821
  491TIP3   OH223031   4.314   2.453   1.795 -0.0007 -0.0733  0.3704
  491TIP3    H123032   4.398   2.500   1.796  0.8415 -1.5405  0.7039
  491TIP3    H223033   4.308   2.418   1.707 -0.5932  0.5636  0.1483
  492TIP3   OH223034   6.766   4.467   0.425  0.1787 -0.6057 -0.1733
  492TIP3    H123035   6.735   4.556   0.440  0.8260 -0.1990 -1.1448
  492TIP3    H223036   6.815   4.444   0.504  2.2249  0.8871 -0.9409
  493TIP3   OH223037   6.608   5.746   2.647  0.2856 -0.0377  0.1888
  493TIP3    H123038   6.646   5.804   2.712  0.4327  1.2872 -1.0316
  493TIP3    H223039   6.552   5.803   2.594 -2.2561 -1.6228  0.9683
  494TIP3   OH223040   5.224   4.598   2.631  0.0717  0.4904 -0.6063
  494TIP3    H123041   5.207   4.671   2.572 -0.4421  0.6872 -0.2070
  494TIP3    H223042   5.206   4.631   2.718  1.2400  0.3231 -0.2798
  495TIP3   OH223043   6.068   0.658   4.163  0.1193  0.0795  0.2877
  495TIP3    H123044   6.000   0.714   4.200 -0.5466  0.0767 -0.8911
  495TIP3    H223045   6.028   0.572   4.157  0.4247 -0.0507  0.1173
  496TIP3   OH223046   6.747   1.842   0.563 -0.3985 -0.9033 -0.5603
  496TIP3    H123047   6.807   1.883   0.501  0.2064  1.1762  1.2728
  496TIP3    H223048   6.671   1.901   0.567 -0.3146 -0.8388  0.7900
  497TIP3   OH223049   2.727   2.309   2.510  0.1810 -0.5313 -0.0201
  497TIP3    H123050   2.710   2.258   2.589 -1.4725 -0.5002 -0.3029
  497TIP3    H223051   2.821   2.321   2.508  0.1938  0.3274  2.4753
  498TIP3   OH223052   1.830   4.842   7.787 -0.2464  0.1248  0.0954
  498TIP3    H123053   1.791   4.769   7.835  0.5438  0.2253  0.9186
  498TIP3    H223054   1.909   4.864   7.837  0.4516  0.4159 -1.1095
  499TIP3   OH223055   2.779   4.595   0.002 -0.3533  0.1742 -0.9208
  499TIP3    H123056   2.690   4.630  -0.006 -0.3579  0.5056  0.3450
  499TIP3    H223057   2.767   4.500  -0.003 -0.8652  0.1873 -0.2182
  500TIP3   OH223058   1.384   0.733   1.736  0.0597 -0.4963  0.3352
  500TIP3    H123059   1.294   0.751   1.762 -0.2412 -0.2245 -0.8209
  500TIP3    H223060   1.376   0.683   1.655  0.9462 -0.2444  0.0830
  501TIP3   OH223061   6.278   4.345   3.428  0.6865  0.6194  0.0233
  501TIP3    H123062   6.236   4.342   3.514  0.3957  1.8604 -0.0547
  501TIP3    H223063   6.371   4.356   3.448  0.5325  1.7874  0.2105
  502TIP3   OH223064   6.354   1.469   4.176 -0.2572 -0.3307 -0.6810
  502TIP3    H123065   6.343   1.548   4.123  0.2832 -0.7528 -1.4473
  502TIP3    H223066   6.268   1.427   4.175 -1.2306  1.3922  1.6939
  503TIP3   OH223067   0.111   2.652   2.291  0.2464  0.0474  0.6475
  503TIP3    H123068   0.089   2.568   2.333  0.7654 -0.5212 -0.1735
  503TIP3    H223069   0.155   2.702   2.359 -0.4734 -0.1718  1.2830
  504TIP3   OH223070   6.200   5.622   7.800 -0.6956  0.5128  0.3921
  504TIP3    H123071   6.207   5.556   7.869 -1.3728 -1.0973 -0.9870
  504TIP3    H223072   6.284   5.668   7.802 -0.7193  0.5302  2.2783
  505TIP3   OH223073   2.529   5.903   2.824 -0.1946 -0.2033  0.5677
  505TIP3    H123074   2.567   5.832   2.875  1.9114  0.8205  0.5248
  505TIP3    H223075   2.600   5.932   2.766 -0.2104  3.2655  2.0145
  506TIP3   OH223076   5.232   6.220   8.708 -0.4792  0.3096 -1.1124
  506TIP3    H123077   5.183   6.222   8.790  0.9826  2.1236 -0.2149
  506TIP3    H223078   5.272   6.132   8.706 -0.0847  0.4239  0.4218
  507TIP3   OH223079   4.520   5.948   7.623 -0.8996  0.0865 -0.2234
  507TIP3    H123080   4.579   5.965   7.550 -1.7214  1.4716 -0.6159
  507TIP3    H223081   4.571   5.971   7.701  0.4569 -2.6975 -0.1644
  508TIP3   OH223082   5.186   6.323   2.134  0.3075 -0.1846 -0.2364
  508TIP3    H123083   5.136   6.395   2.173 -0.5344 -1.3065  0.8040
  508TIP3    H223084   5.274   6.332   2.172 -0.6155 -1.5563  2.4411
  509TIP3   OH223085   1.892   0.681   3.225 -0.0731  0.2339 -0.4947
  509TIP3    H123086   1.879   0.592   3.258 -0.0309 -0.4340 -2.1914
  509TIP3    H223087   1.980   0.705   3.254 -0.4650  0.1494  0.8472
  510TIP3   OH223088   0.094   1.595   8.069  0.0371 -0.2284 -0.0680
  510TIP3    H123089   0.136   1.550   7.996  0.2377  1.3904 -0.9883
  510TIP3    H223090   0.162   1.649   8.107 -0.5198  0.3223  0.1659
  511TIP3   OH223091   2.949   4.408   8.561  0.1463 -0.2060 -0.3757
  511TIP3    H123092   2.999   4.357   8.624  0.3570 -1.3112 -1.4086
  511TIP3    H223093   2.857   4.392   8.584  0.2232 -0.3283 -0.1497
  512TIP3   OH223094   3.446   1.028   1.059  1.0249 -0.3500 -0.0797
  512TIP3    H123095   3.451   0.936   1.081  2.3773  0.0701  1.5703
  512TIP3    H223096   3.489   1.035   0.974 -1.8159 -1.6111 -1.7593
  513TIP3   OH223097   1.262   5.280   0.748 -0.0019  0.4035  0.1598
  513TIP3    H123098   1.231   5.296   0.658  0.5304  0.9415  0.0642
  513TIP3    H223099   1.239   5.360   0.796 -1.1308 -0.2547  0.7489
  514TIP3   OH223100   6.764   2.734   2.828  0.3942  0.2342 -0.3511
  514TIP3    H123101   6.829   2.690   2.773 -0.4595  0.5058 -1.6210
  514TIP3    H223102   6.809   2.811   2.862  0.9731  0.0108 -0.6040
  515TIP3   OH223103   3.424   2.270   0.466 -0.1548  0.0562  0.6415
  515TIP3    H123104   3.352   2.228   0.419  0.0288  0.8932 -0.4234
  515TIP3    H223105   3.387   2.351   0.501  0.1786  0.3587  0.3176
  516TIP3   OH223106   6.412   6.058   0.907 -0.4577 -0.0161  0.1518
  516TIP3    H123107   6.326   6.063   0.865 -0.1942  2.4347 -0.2382
  516TIP3    H223108   6.396   6.006   0.986 -1.7952 -1.4064 -0.9489
  517TIP3   OH223109   5.229   6.233   2.611 -0.1063  0.3121 -0.0264
  517TIP3    H123110   5.240   6.216   2.705 -1.7667  1.6358  0.4663
  517TIP3    H223111   5.169   6.164   2.581 -2.3445  1.8064  0.7226
  518TIP3   OH223112   5.405   5.044   2.504 -0.1333  0.0021 -0.4289
  518TIP3    H123113   5.395   4.983   2.577 -0.1886  0.2036 -0.2694
  518TIP3    H223114   5.345   5.116   2.524  2.1997  1.6743  0.9778
  519TIP3   OH223115   6.223   3.295   2.525 -0.6582  0.0078 -0.2691
  519TIP3    H123116   6.201   3.203   2.516  1.2707 -0.5436  0.2052
  519TIP3    H223117   6.316   3.300   2.505 -0.3474  1.5836  1.2862
  520TIP3   OH223118   1.809   3.407   3.816 -0.5404  0.0351  0.7882
  520TIP3    H123119   1.719   3.424   3.789 -0.8519 -1.3654  0.8262
  520TIP3    H223120   1.839   3.489   3.856 -2.2786  0.1170  2.0301
  521TIP3   OH223121   0.027   4.779   1.036  0.5085  0.0757 -0.6921
  521TIP3    H123122   0.066   4.803   0.952  1.1283 -0.1933 -0.4879
  521TIP3    H223123  -0.019   4.857   1.065  0.0099  0.0711 -1.4355
  522TIP3   OH223124   1.552   1.963   8.102  0.1477 -0.2930  0.1258
  522TIP3    H123125   1.586   2.028   8.040 -0.0997 -0.6772 -0.4295
  522TIP3    H223126   1.615   1.891   8.099 -0.6508 -1.0002 -0.8957
  523TIP3   OH223127   4.928   1.366   7.695  0.1184 -0.2686 -0.5785
  523TIP3    H123128   4.843   1.327   7.714  0.7865 -1.0398  1.0165
  523TIP3    H223129   4.907   1.452   7.657 -1.4051  0.4299  1.6247
  524TIP3   OH223130   3.889   3.856   3.167 -0.8773  0.2963  0.1988
  524TIP3    H123131   3.902   3.795   3.095  0.1214  0.3076  0.3566
  524TIP3    H223132   3.952   3.927   3.151  0.4052 -0.4075  1.8214
  525TIP3   OH223133   4.273   1.523   3.024  0.8226  0.2118  0.5721
  525TIP3    H123134   4.295   1.575   2.946  0.8390  0.1759  0.5528
  525TIP3    H223135   4.233   1.586   3.084 -0.8822 -0.0899 -0.1785
  526TIP3   OH223136   0.774   1.278   0.796  0.5402 -0.3449  0.0227
  526TIP3    H123137   0.735   1.304   0.880 -1.2479 -0.9986 -0.5673
  526TIP3    H223138   0.707   1.299   0.731  0.6649 -2.6059 -0.9108
  527TIP3   OH223139   3.005   2.685   0.612  0.1848  0.3177 -0.2048
  527TIP3    H123140   3.052   2.603   0.594  1.1621  0.8930 -0.3081
  527TIP3    H223141   3.035   2.711   0.699 -1.4241 -0.3044  0.5764
  528TIP3   OH223142   2.630   3.864   2.888  0.0717 -0.2688  0.4183
  528TIP3    H123143   2.709   3.815   2.863  1.2778  2.1854 -0.9544
  528TIP3    H223144   2.570   3.853   2.815  0.8030  1.1568 -0.4339
  529TIP3   OH223145   2.633   5.072   1.741 -0.2472  0.0639  0.2703
  529TIP3    H123146   2.677   5.118   1.812  0.3247  1.6552 -1.0630
  529TIP3    H223147   2.569   5.135   1.708 -0.6349 -0.7191 -0.5061
  530TIP3   OH223148   5.210   5.394   0.241 -0.0522 -0.0222 -0.0357
  530TIP3    H123149   5.242   5.470   0.288 -0.1534  0.8108 -1.2747
  530TIP3    H223150   5.159   5.345   0.306  0.9834  0.3334  1.0827
  531TIP3   OH223151   6.664   3.049   0.521  0.1250 -0.1082  0.0502
  531TIP3    H123152   6.576   3.062   0.557 -0.5822 -0.4983 -1.4769
  531TIP3    H223153   6.649   3.011   0.434  1.8269 -1.0451  0.1280
  532TIP3   OH223154   5.325   5.177   2.901 -0.2537  0.7177  0.7884
  532TIP3    H123155   5.273   5.255   2.884 -1.9849 -0.9416 -2.4049
  532TIP3    H223156   5.416   5.204   2.889 -0.9106  1.9134 -2.0807
  533TIP3   OH223157   3.197   6.123   2.066  0.1414 -0.0132  0.4710
  533TIP3    H123158   3.188   6.166   1.981 -1.0767 -1.0984  0.0230
  533TIP3    H223159   3.112   6.134   2.108  0.1497 -1.0330  0.7895
  534TIP3   OH223160   3.659   1.754   2.357 -0.2516  0.0635  0.6083
  534TIP3    H123161   3.731   1.814   2.377 -0.2712  0.6327 -0.8864
  534TIP3    H223162   3.701   1.669   2.344  0.0004  0.1364  0.9377
  535TIP3   OH223163   1.581   0.119   0.014 -0.2846 -0.6313  0.3347
  535TIP3    H123164   1.651   0.105  -0.050  0.1179  1.2295  0.2869
  535TIP3    H223165   1.624   0.109   0.099  0.4298  1.7353  0.3302
  536TIP3   OH223166   6.065   1.329   3.489 -0.4331  0.4118 -0.1838
  536TIP3    H123167   6.031   1.401   3.541  1.6167  0.7380  0.8134
  536TIP3    H223168   6.104   1.371   3.412  0.5938  0.3809  0.3047
  537TIP3   OH223169   2.819   2.754   8.666  0.1527 -0.1300 -0.1997
  537TIP3    H123170   2.805   2.835   8.716  0.1132 -0.2540 -0.0087
  537TIP3    H223171   2.732   2.732   8.632  0.1979  0.0090 -0.4097
  538TIP3   OH223172   2.640   5.665   3.022 -0.3622  0.0166 -0.1566
  538TIP3    H123173   2.621   5.619   3.103 -1.2235  1.1299  0.3018
  538TIP3    H223174   2.700   5.607   2.975 -0.4066 -0.9660  0.9495
  539TIP3   OH223175   2.994   5.764   8.286  0.2184 -0.2743 -0.0396
  539TIP3    H123176   3.004   5.768   8.191  0.0284  0.1045 -0.0456
  539TIP3    H223177   2.916   5.711   8.300  0.9756 -1.4264 -0.0542
  540TIP3   OH223178   1.912   1.316   3.412 -0.0024  0.2337  0.2599
  540TIP3    H123179   1.954   1.291   3.329 -1.0543  1.8887 -0.8187
  540TIP3    H223180   1.974   1.288   3.479  1.8925  0.7694 -1.1718
  541TIP3   OH223181   6.136   2.838   3.505  0.4225 -1.1015 -0.1512
  541TIP3    H123182   6.172   2.922   3.533 -0.3256 -0.6096 -0.6399
  541TIP3    H223183   6.091   2.857   3.423  1.0813 -2.1801 -0.7822
  542TIP3   OH223184   3.764   3.251   3.545  0.2691 -0.2785  0.1952
  542TIP3    H123185   3.751   3.342   3.569 -1.1022 -0.3731 -0.1208
  542TIP3    H223186   3.857   3.234   3.565  0.1032  0.6533  1.9503
  543TIP3   OH223187   4.118   5.400   2.662  0.5743 -0.7238 -0.0617
  543TIP3    H123188   4.094   5.353   2.582 -0.4722  2.0663 -1.5209
  543TIP3    H223189   4.042   5.455   2.682  2.1360  1.2779  0.7866
  544TIP3   OH223190   6.167   4.456   7.724  0.2738  0.2179 -0.3269
  544TIP3    H123191   6.082   4.500   7.728 -0.3994 -0.9919 -0.8793
  544TIP3    H223192   6.210   4.478   7.807 -0.7556  0.4726  0.1440
  545TIP3   OH223193   0.351   2.246   2.456  0.3048  0.6611  0.1141
  545TIP3    H123194   0.393   2.173   2.409  0.0486  1.5602 -1.5895
  545TIP3    H223195   0.277   2.271   2.400  1.6182  3.5961 -0.5142
  546TIP3   OH223196   4.932   5.849   8.197  0.0096 -0.1807 -0.1937
  546TIP3    H123197   4.871   5.882   8.131 -0.3759  1.3077  0.8508
  546TIP3    H223198   4.912   5.900   8.275  2.2788  0.0101  0.3269
  547TIP3   OH223199   2.593   1.940   2.866 -0.6182  0.1489 -0.4751
  547TIP3    H123200   2.659   1.870   2.866 -0.1324  0.5458  1.4370
  547TIP3    H223201   2.520   1.904   2.917 -0.6956  0.7462 -0.1639
  548TIP3   OH223202   4.374   5.399   0.186  0.0860 -0.2837  0.0044
  548TIP3    H123203   4.395   5.316   0.228 -0.2738  0.3019  1.3909
  548TIP3    H223204   4.302   5.377   0.127  2.4001 -1.6764 -2.5250
  549TIP3   OH223205   5.911   3.744   7.800 -0.3286 -0.0949 -0.9171
  549TIP3    H123206   5.989   3.797   7.814 -0.4744 -0.2565  0.7172
  549TIP3    H223207   5.920   3.710   7.712  1.1796  0.3231 -0.9410
  550TIP3   OH223208   0.021   3.805   2.457 -0.1615  0.2651 -0.0978
  550TIP3    H123209   0.067   3.754   2.524  0.4844 -0.0164 -0.7358
  550TIP3    H223210   0.018   3.747   2.381 -1.4635  0.3405 -0.1157
  551TIP3   OH223211   4.602   4.472   8.485 -0.2831  0.2877 -0.4710
  551TIP3    H123212   4.532   4.531   8.511 -0.6843  1.4319 -3.7049
  551TIP3    H223213   4.561   4.412   8.423  1.0953 -0.5784 -0.5907
  552TIP3   OH223214   3.594   0.980   1.907  0.4225  0.9563 -0.6497
  552TIP3    H123215   3.528   1.044   1.934  2.0541  2.9557 -1.1380
  552TIP3    H223216   3.624   1.011   1.822  0.2088 -1.3766 -1.6465
  553TIP3   OH223217   2.133   4.969   2.696  0.5009  0.3048  0.0823
  553TIP3    H123218   2.147   4.927   2.611  0.6723  1.4723 -0.4872
  553TIP3    H223219   2.199   4.929   2.753  1.8977  1.0993 -0.9130
  554TIP3   OH223220   2.836   4.613   0.838  0.0916  0.2935 -0.5264
  554TIP3    H123221   2.888   4.644   0.912  0.4232 -1.3418 -0.0194
  554TIP3    H223222   2.776   4.549   0.877  0.3114 -0.6390 -1.6701
  555TIP3   OH223223   4.007   2.467   7.679 -0.1852 -0.1890 -0.0665
  555TIP3    H123224   4.037   2.555   7.657  1.5115 -0.7814 -0.3055
  555TIP3    H223225   4.085   2.424   7.716 -0.9285 -1.6379 -0.1141
  556TIP3   OH223226   2.186   1.743   0.514 -0.0124 -0.1684 -0.1321
  556TIP3    H123227   2.273   1.749   0.552  0.3693 -0.6606 -0.8945
  556TIP3    H223228   2.167   1.649   0.512  0.6523 -0.3212 -2.5520
  557TIP3   OH223229   0.278   6.042   3.693 -0.8564  0.0892 -0.4368
  557TIP3    H123230   0.248   5.996   3.771 -1.6736  1.5031  0.1303
  557TIP3    H223231   0.268   5.979   3.622 -3.1350 -0.2492  0.1033
  558TIP3   OH223232   2.812   4.454   1.140 -0.4866 -0.2971  0.0579
  558TIP3    H123233   2.717   4.447   1.137 -0.6268  0.6794  1.4691
  558TIP3    H223234   2.830   4.531   1.193  1.1024  0.4455 -1.4524
  559TIP3   OH223235   0.545   5.923   0.393  0.0826  0.1355 -0.4001
  559TIP3    H123236   0.499   5.855   0.343  0.0797  0.5150 -0.9170
  559TIP3    H223237   0.549   5.998   0.334  0.6482  0.3785 -0.0648
  560TIP3   OH223238   1.887   2.814   3.167  0.3106  0.6340  0.2736
  560TIP3    H123239   1.814   2.788   3.223  1.4520 -2.9122  0.3378
  560TIP3    H223240   1.959   2.832   3.227  0.4381  0.8200  0.0694
  561TIP3   OH223241   4.867   4.971   0.637 -0.3136  0.2816  0.4206
  561TIP3    H123242   4.936   5.037   0.643  0.8700 -0.6924 -1.6040
  561TIP3    H223243   4.887   4.909   0.708  0.1070  0.6844  0.6614
  562TIP3   OH223244   2.161   1.908   0.276 -0.2183 -0.5783 -0.2157
  562TIP3    H123245   2.222   1.852   0.226 -0.5368 -1.3722  0.2610
  562TIP3    H223246   2.161   1.870   0.364  0.3394  0.8039  0.4162
  563TIP3   OH223247   0.989   2.652   8.234 -0.6248 -0.1980  0.0090
  563TIP3    H123248   1.053   2.705   8.186  0.8932 -0.1639  1.9602
  563TIP3    H223249   0.905   2.695   8.219  0.1301  1.0206 -0.8639
  564TIP3   OH223250   0.276   6.441   1.524 -0.1677  0.1562  0.2155
  564TIP3    H123251   0.267   6.353   1.488  0.2860  0.0748  0.2965
  564TIP3    H223252   0.341   6.432   1.593  0.6907  0.7601 -0.4917
  565TIP3   OH223253   2.674   5.168   3.464 -0.1535 -0.1408 -0.2438
  565TIP3    H123254   2.753   5.221   3.457 -0.1567 -0.0831  0.1486
  565TIP3    H223255   2.605   5.222   3.426 -0.1455  0.1144  0.0989
  566TIP3   OH223256   1.560   4.511   3.733  0.1682  0.1131  0.2312
  566TIP3    H123257   1.577   4.417   3.745  1.0885  0.2011 -0.2889
  566TIP3    H223258   1.625   4.554   3.789  0.4248  0.4482 -0.3249
  567TIP3   OH223259   0.674   4.008   2.655 -0.0516 -0.5386  0.0096
  567TIP3    H123260   0.673   3.994   2.560  0.4755  0.4508 -0.1527
  567TIP3    H223261   0.763   3.986   2.682  0.8671  2.4353 -0.2807
  568TIP3   OH223262   4.918   1.336   1.662  0.3064  0.1491  0.1002
  568TIP3    H123263   4.908   1.418   1.710  1.4637  0.3735 -0.0126
  568TIP3    H223264   4.974   1.359   1.588  1.2275 -0.8936  0.4566
  569TIP3   OH223265   4.025   6.843   2.655  0.2028 -0.5432  0.6066
  569TIP3    H123266   3.971   6.878   2.726  0.5571  1.9234 -0.2545
  569TIP3    H223267   4.109   6.824   2.695  0.1869  0.1851  1.0019
  570TIP3   OH223268   3.943   5.700   7.866 -0.2634 -0.1487  0.2652
  570TIP3    H123269   4.011   5.634   7.852  0.3875  0.8029 -1.2701
  570TIP3    H223270   3.970   5.745   7.947  0.8018  0.0423 -0.1789
  571TIP3   OH223271   0.639   6.459   2.606  0.0854  0.4235  0.2256
  571TIP3    H123272   0.580   6.513   2.658 -2.3407 -2.4275  0.7177
  571TIP3    H223273   0.598   6.455   2.519  0.1300 -0.6834  0.2382
  572TIP3   OH223274   1.844   3.072   2.178 -0.5198 -0.1505 -0.1190
  572TIP3    H123275   1.756   3.107   2.189  0.1463  1.3864  0.6398
  572TIP3    H223276   1.872   3.104   2.092 -0.8655 -1.0796 -0.5960
  573TIP3   OH223277   2.115   2.210   1.975 -0.2487 -0.2482 -0.0021
  573TIP3    H123278   2.063   2.193   1.896 -1.4876 -0.4459  0.8362
  573TIP3    H223279   2.203   2.181   1.951 -0.2889  0.8695 -1.7448
  574TIP3   OH223280   4.207   6.275   1.000  1.1387  0.1306  0.3151
  574TIP3    H123281   4.220   6.213   0.929 -0.4469 -0.1213  0.2322
  574TIP3    H223282   4.113   6.292   1.002  1.2563  0.8059  1.7930
  575TIP3   OH223283   0.113   1.179   0.103 -0.0891 -0.1462  0.6474
  575TIP3    H123284   0.189   1.234   0.086  0.6951 -0.6871  2.1898
  575TIP3    H223285   0.067   1.223   0.175 -0.5113 -0.5078  0.6038
  576TIP3   OH223286   1.296   0.796   7.914  0.2568 -0.1212  0.2316
  576TIP3    H123287   1.203   0.804   7.892  0.6541 -0.0235 -1.6255
  576TIP3    H223288   1.320   0.709   7.883  1.4174  0.9576 -2.1480
  577TIP3   OH223289   4.344   5.552   7.900  0.3940 -0.4406 -0.2619
  577TIP3    H123290   4.280   5.560   7.829  0.1860 -0.4418 -0.0745
  577TIP3    H223291   4.406   5.485   7.869  0.4580 -0.2452 -0.5585
  578TIP3   OH223292   3.708   2.010   1.765 -0.1356  0.5183  0.6065
  578TIP3    H123293   3.634   2.042   1.714 -0.5668 -0.9277  0.2772
  578TIP3    H223294   3.771   2.082   1.765 -0.6985  1.0364 -0.8015
  579TIP3   OH223295   5.672   3.895   1.012 -0.3597  0.0054  0.0138
  579TIP3    H123296   5.604   3.961   0.997 -2.1084 -1.2407  2.0075
  579TIP3    H223297   5.668   3.839   0.935 -0.6621  0.7008 -0.4900
  580TIP3   OH223298   3.014   3.856   0.459 -0.4708  0.1683  0.3761
  580TIP3    H123299   2.983   3.823   0.374  1.7960 -2.5518  0.4560
  580TIP3    H223300   2.962   3.808   0.523  0.4706 -0.7761  0.4724
  581TIP3   OH223301   0.522   6.221   0.462  0.0538 -0.4690  0.2159
  581TIP3    H123302   0.510   6.315   0.447  1.0959 -0.3242  0.2076
  581TIP3    H223303   0.436   6.190   0.490 -1.1119 -0.1263 -2.7370
  582TIP3   OH223304   0.796   4.899   7.819  0.7454 -0.2945  0.0824
  582TIP3    H123305   0.761   4.810   7.817 -0.1034  0.0296 -2.1034
  582TIP3    H223306   0.791   4.925   7.911  0.4716 -2.2744  0.6703
  583TIP3   OH223307   1.210   0.969   8.546  0.5445  0.7094 -0.5859
  583TIP3    H123308   1.153   0.990   8.472 -1.2230 -3.4893 -0.6850
  583TIP3    H223309   1.273   0.906   8.510 -0.6452 -1.8031  1.4070
  584TIP3   OH223310   0.411   2.041   2.846 -0.0980  0.2854 -0.0918
  584TIP3    H123311   0.431   1.958   2.802 -2.4886 -0.2808 -0.2680
  584TIP3    H223312   0.471   2.043   2.921 -0.0110 -1.6626 -0.0433
  585TIP3   OH223313   0.523   2.236   8.065 -0.0985 -0.7174 -0.2393
  585TIP3    H123314   0.493   2.154   8.026  1.8506 -0.6100 -2.1459
  585TIP3    H223315   0.612   2.247   8.032  0.6049  0.9290  1.9795
  586TIP3   OH223316   1.167   2.805   7.831 -0.2636  0.0997  0.2209
  586TIP3    H123317   1.238   2.801   7.768  0.2584 -0.1707  0.8130
  586TIP3    H223318   1.205   2.770   7.912 -1.0292  0.0749  0.5776
  587TIP3   OH223319   5.472   2.246   0.336  0.3230  0.1267  0.1425
  587TIP3    H123320   5.407   2.312   0.314 -1.6664 -1.1647  1.6658
  587TIP3    H223321   5.484   2.196   0.255 -1.5080 -0.2983  0.0858
  588TIP3   OH223322   1.719   1.138   8.351 -0.1078  0.0623 -1.0608
  588TIP3    H123323   1.669   1.182   8.282  0.0619  1.1746 -0.4837
  588TIP3    H223324   1.810   1.152   8.327  0.0401 -2.4471 -2.4265
  589TIP3   OH223325   1.490   3.805   1.752 -0.1244  0.9018  0.7023
  589TIP3    H123326   1.400   3.806   1.720 -0.0891 -0.0683  0.5481
  589TIP3    H223327   1.543   3.828   1.675 -0.1254 -0.2816  0.3256
  590TIP3   OH223328   2.178   5.754   3.037  0.2900  0.2155 -0.3775
  590TIP3    H123329   2.215   5.759   3.125  0.5400 -1.8741 -0.3030
  590TIP3    H223330   2.250   5.720   2.982 -0.0231  0.9642 -1.2756
  591TIP3   OH223331   2.675   1.450   8.616  0.0762 -0.1377 -0.0701
  591TIP3    H123332   2.581   1.458   8.598 -0.0967 -0.9516  0.4209
  591TIP3    H223333   2.715   1.520   8.565 -0.6262 -0.8458 -1.6706
  592TIP3   OH223334   0.724   1.988   1.314  0.2632 -0.1017  0.3933
  592TIP3    H123335   0.761   2.072   1.289  2.5347 -1.1203  0.0846
  592TIP3    H223336   0.708   1.996   1.408  0.3762  0.6912  0.3507
  593TIP3   OH223337   4.030   1.720   1.948 -0.5921  0.2583  0.0810
  593TIP3    H123338   4.107   1.755   1.994  0.0718  0.4397 -1.1186
  593TIP3    H223339   4.051   1.628   1.932 -2.0179 -0.5835  2.5643
  594TIP3   OH223340   4.099   3.691   8.737  0.3565  0.5012  0.0992
  594TIP3    H123341   4.064   3.716   8.652  1.1871  0.9253 -0.1270
  594TIP3    H223342   4.146   3.609   8.721  0.0788  0.3058  0.2611
  595TIP3   OH223343   2.221   4.143   8.570 -0.1726  0.1558  0.2253
  595TIP3    H123344   2.142   4.167   8.619 -2.7400 -1.7434 -2.6095
  595TIP3    H223345   2.257   4.227   8.540 -0.5178  1.1178  2.3422
  596TIP3   OH223346   0.722   5.903   2.382  0.2671  0.0537  0.3851
  596TIP3    H123347   0.637   5.863   2.364  0.2582 -1.4368  3.1932
  596TIP3    H223348   0.707   5.997   2.374 -1.4117 -0.2331 -0.0677
  597TIP3   OH223349   4.955   3.027   0.835 -0.1144  0.2407  0.1827
  597TIP3    H123350   5.030   2.968   0.833  0.0658  0.4846 -0.6463
  597TIP3    H223351   4.989   3.110   0.800 -0.3573  0.8526  1.3387
  598TIP3   OH223352   1.816   3.978   3.116 -0.1541 -0.1246 -0.2084
  598TIP3    H123353   1.774   3.893   3.133 -0.8796 -0.4868 -3.2681
  598TIP3    H223354   1.906   3.956   3.094  0.1929  0.1262  0.9055
  599TIP3   OH223355   2.577   4.290   1.599  0.0229 -0.4571  0.1783
  599TIP3    H123356   2.665   4.252   1.595  0.2887  0.2127 -0.6421
  599TIP3    H223357   2.525   4.235   1.539  0.1448 -0.1990 -0.1666
  600TIP3   OH223358   4.559   6.260   3.471  0.5413 -0.2382  0.5512
  600TIP3    H123359   4.629   6.250   3.407 -1.1114 -0.6044 -1.3164
  600TIP3    H223360   4.485   6.295   3.420 -1.0433 -1.1489  2.1125
  601TIP3   OH223361   3.286   2.596   0.228  0.7404 -0.8199  0.0228
  601TIP3    H123362   3.250   2.684   0.240 -1.0037 -1.4373 -0.4613
  601TIP3    H223363   3.314   2.569   0.315  1.1835  0.1472  0.1969
  602TIP3   OH223364   6.610   2.335   0.672  0.5697 -0.3715  0.3985
  602TIP3    H123365   6.542   2.374   0.617  1.5410 -1.8354 -2.0161
  602TIP3    H223366   6.578   2.247   0.692  1.9748 -1.3902 -1.4710
  603TIP3   OH223367   3.140   4.736   1.350 -0.1215  0.0688 -0.5882
  603TIP3    H123368   3.097   4.763   1.431 -0.6821  0.4138 -0.9942
  603TIP3    H223369   3.167   4.646   1.366  2.5664  1.0566  1.1260
  604TIP3   OH223370   2.865   5.748   0.446  0.5145  0.3488 -0.6572
  604TIP3    H123371   2.906   5.722   0.363  3.9162  2.6873  0.0540
  604TIP3    H223372   2.913   5.700   0.513 -2.8458 -2.2839  0.1333
  605TIP3   OH223373   1.954   1.897   0.523  0.6215 -0.0491  0.0944
  605TIP3    H123374   2.039   1.854   0.515 -0.2748 -1.6764 -1.3131
  605TIP3    H223375   1.898   1.833   0.567 -0.5743 -0.1019 -1.4148
  606TIP3   OH223376   6.295   1.549   3.820  0.4569  0.3358 -0.5291
  606TIP3    H123377   6.318   1.589   3.903 -1.0063  1.1176 -0.4656
  606TIP3    H223378   6.237   1.476   3.843 -1.3608  1.5970 -0.8936
  607TIP3   OH223379   2.005   3.924   0.054  0.5946 -0.1227  0.2896
  607TIP3    H123380   1.910   3.925   0.065  0.6781 -0.6206  1.2682
  607TIP3    H223381   2.020   3.876  -0.027  0.0210 -0.8177  0.5783
  608TIP3   OH223382   0.103   1.912   0.402  0.1144  0.3025  0.3933
  608TIP3    H123383   0.056   1.946   0.325 -1.2896 -0.9306  0.6624
  608TIP3    H223384   0.162   1.983   0.427 -2.1296  2.2612  0.4622
  609TIP3   OH223385   2.796   2.108   8.728  0.3802  0.3868  0.2611
  609TIP3    H123386   2.776   2.042   8.795  1.2246 -1.2767 -1.0274
  609TIP3    H223387   2.713   2.125   8.684  0.4226 -1.2381 -0.5487
  610TIP3   OH223388   0.878   6.365   2.533 -0.4206  0.5596  0.8138
  610TIP3    H123389   0.879   6.398   2.443 -0.5443  0.2943  0.7154
  610TIP3    H223390   0.813   6.420   2.578  0.2370  1.2464  0.9566
  611TIP3   OH223391   6.696   4.994   3.019  0.4441 -0.0655  0.2891
  611TIP3    H123392   6.607   4.972   2.991  0.7096  0.1721 -0.7933
  611TIP3    H223393   6.697   4.975   3.112 -1.0767  0.9611  0.5550
  612TIP3   OH223394   5.606   6.606   8.696 -0.1402 -0.3387  0.2430
  612TIP3    H123395   5.546   6.551   8.746  0.3726 -0.1548  1.0833
  612TIP3    H223396   5.637   6.549   8.625 -0.1134 -0.9261  0.7208
  613TIP3   OH223397   3.539   0.724   3.801  0.4168  0.2186 -0.6270
  613TIP3    H123398   3.601   0.794   3.779  1.9119 -0.9910 -0.5014
  613TIP3    H223399   3.572   0.647   3.754 -0.0155 -0.8621  0.7545
  614TIP3   OH223400   0.741   1.987   0.403  0.3469 -0.0170 -0.5236
  614TIP3    H123401   0.710   1.919   0.463 -0.1109 -1.1324 -1.9640
  614TIP3    H223402   0.663   2.037   0.380  0.5401  0.4797 -0.1262
  615TIP3   OH223403   4.203   0.404   2.865  0.1675  0.7693 -0.0860
  615TIP3    H123404   4.178   0.445   2.948  1.0417  0.6245  0.2668
  615TIP3    H223405   4.265   0.466   2.825  0.8905  0.1784  0.0813
  616TIP3   OH223406   1.356   6.806   8.010  0.0417 -0.5221  0.4541
  616TIP3    H123407   1.331   6.718   7.981  0.0441 -0.1060 -0.8869
  616TIP3    H223408   1.358   6.858   7.929  0.1517  0.6837  1.2096
  617TIP3   OH223409   0.991   6.402   3.461 -0.1720 -0.4050 -0.3830
  617TIP3    H123410   1.023   6.491   3.472 -0.9698  0.0335 -1.4358
  617TIP3    H223411   0.991   6.365   3.549  1.2953  0.2345 -0.0974
  618TIP3   OH223412   3.708   3.599   0.779 -0.3778  0.8189  0.1144
  618TIP3    H123413   3.664   3.530   0.829  0.7240  2.7437  4.1731
  618TIP3    H223414   3.770   3.553   0.722 -2.4009 -1.5901 -0.2796
  619TIP3   OH223415   5.053   3.447   7.936 -0.0914 -0.4692  0.3193
  619TIP3    H123416   5.128   3.388   7.930  0.5207  0.3939 -1.2250
  619TIP3    H223417   4.980   3.398   7.899 -0.7244 -1.8422  3.1053
  620TIP3   OH223418   1.793   3.072   0.403 -0.0212  1.0479  0.6688
  620TIP3    H123419   1.736   3.026   0.465 -1.7161  0.2077 -1.3661
  620TIP3    H223420   1.877   3.028   0.410 -0.9727 -0.9302  0.4379
  621TIP3   OH223421   3.292   2.594   2.510 -0.1264 -0.6831 -0.1328
  621TIP3    H123422   3.282   2.540   2.432  0.4968  0.1106 -0.7913
  621TIP3    H223423   3.236   2.670   2.494 -0.6519 -0.9114  0.5793
  622TIP3   OH223424   6.574   5.691   2.195 -0.5557  0.5232 -0.0175
  622TIP3    H123425   6.607   5.643   2.271 -1.0865  1.2167  0.6676
  622TIP3    H223426   6.620   5.775   2.199  0.0386  0.2498 -0.9501
  623TIP3   OH223427   1.728   5.486   2.219  0.5081  0.0472  0.3725
  623TIP3    H123428   1.764   5.574   2.215  2.4843 -0.7316 -0.7667
  623TIP3    H223429   1.798   5.433   2.258 -0.3171 -1.1514  0.2851
  624TIP3   OH223430   6.535   5.601   8.647 -0.0254 -0.5013  0.6130
  624TIP3    H123431   6.534   5.557   8.562 -0.5663 -0.4906  0.6117
  624TIP3    H223432   6.557   5.531   8.710  0.8574 -0.4151  0.4239
  625TIP3   OH223433   0.138   0.622   3.432  0.0542 -0.0957 -0.1432
  625TIP3    H123434   0.127   0.541   3.480 -1.1219 -0.6384 -1.2741
  625TIP3    H223435   0.216   0.608   3.378  0.0010 -0.3785 -0.1453
  626TIP3   OH223436   1.796   6.517   2.250 -0.2129 -0.6947  0.1542
  626TIP3    H123437   1.868   6.454   2.253 -0.0640 -0.4923  1.2317
  626TIP3    H223438   1.839   6.602   2.260 -0.6103 -0.5845  0.9731
  627TIP3   OH223439   6.406   2.991   3.273  0.6503 -0.1544  0.0278
  627TIP3    H123440   6.321   2.986   3.231  0.7181  0.3565 -0.1718
  627TIP3    H223441   6.404   3.072   3.324  0.2380 -1.1896  1.7621
  628TIP3   OH223442   3.904   0.425   2.913 -0.0298  0.3860  0.1374
  628TIP3    H123443   3.836   0.415   2.979  0.2014 -0.8880  0.1935
  628TIP3    H223444   3.908   0.340   2.869 -0.0143  1.1312 -1.3638
  629TIP3   OH223445   3.379   3.812   1.723  0.2559 -0.6467  0.0941
  629TIP3    H123446   3.455   3.830   1.668 -0.0401 -0.6287 -0.3117
  629TIP3    H223447   3.375   3.716   1.729 -1.5298 -0.8543 -2.5419
  630TIP3   OH223448   2.448   0.433   0.791 -0.5599 -0.2321 -0.6137
  630TIP3    H123449   2.408   0.504   0.741  0.1266 -0.2970 -1.2688
  630TIP3    H223450   2.521   0.474   0.838 -0.5979 -0.3651 -0.4377
  631TIP3   OH223451   5.480   0.294   1.363 -0.1093 -0.5969 -0.3555
  631TIP3    H123452   5.415   0.359   1.392 -0.2397 -0.9123  0.0734
  631TIP3    H223453   5.548   0.296   1.430  0.3467 -0.2455 -0.8230
  632TIP3   OH223454   5.710   6.647   2.493  0.1763  0.0420  0.0111
  632TIP3    H123455   5.752   6.716   2.545 -0.5454  0.9314 -0.5533
  632TIP3    H223456   5.645   6.694   2.440 -0.4372 -1.0967 -0.2689
  633TIP3   OH223457   3.012   6.707   0.110 -0.0431  0.4846  0.8165
  633TIP3    H123458   3.098   6.733   0.142 -0.3543  2.4671  0.1742
  633TIP3    H223459   3.010   6.611   0.121  2.6891  0.2143 -0.2833
  634TIP3   OH223460   2.461   5.059   0.381 -0.0073 -0.0547 -0.2892
  634TIP3    H123461   2.507   5.107   0.312  1.5781  0.6200  1.1705
  634TIP3    H223462   2.368   5.070   0.360  0.3695  1.9712 -1.1250
  635TIP3   OH223463   1.737   4.604   2.508 -0.1847  0.0312 -0.3234
  635TIP3    H123464   1.732   4.695   2.480  3.1494  1.1027  2.0231
  635TIP3    H223465   1.688   4.602   2.590  1.9867  0.4835  1.0548
  636TIP3   OH223466   2.654   5.887   2.542  0.3800  0.3384 -0.0906
  636TIP3    H123467   2.597   5.857   2.472  1.7981 -0.6847 -0.8623
  636TIP3    H223468   2.682   5.808   2.587  0.8944  0.8436  0.5066
  637TIP3   OH223469   0.739   6.086   1.037 -0.1484 -0.3667 -0.4358
  637TIP3    H123470   0.833   6.068   1.046 -0.0911  0.3924  0.7549
  637TIP3    H223471   0.734   6.147   0.964  0.0763 -1.8312 -1.7175
  638TIP3   OH223472   6.285   1.994   0.595  0.2850  0.4982 -0.4635
  638TIP3    H123473   6.305   2.033   0.510 -0.6792 -0.8632 -1.3397
  638TIP3    H223474   6.240   1.912   0.575  2.6517 -1.3648  1.3113
  639TIP3   OH223475   0.537   1.924   1.904  0.4470  0.3305  0.0457
  639TIP3    H123476   0.630   1.909   1.883  0.5783  1.0065  0.1267
  639TIP3    H223477   0.529   1.900   1.996  0.3805 -0.4087 -0.1448
  640TIP3   OH223478   5.141   3.223   3.043 -0.4249  0.1200 -0.0014
  640TIP3    H123479   5.097   3.174   2.974  0.7224  2.2552 -2.4111
  640TIP3    H223480   5.200   3.160   3.084  0.3610 -0.7798 -2.3710
  641TIP3   OH223481   2.629   1.085   2.572 -0.0470 -0.2188  0.0884
  641TIP3    H123482   2.537   1.068   2.554 -0.1090 -0.6682  0.7972
  641TIP3    H223483   2.645   1.173   2.539 -1.4575  1.0300  2.4992
  642TIP3   OH223484   1.125   1.970   1.033  0.2650  0.5387 -0.5870
  642TIP3    H123485   1.039   1.943   1.067  0.3297 -0.1458 -0.9437
  642TIP3    H223486   1.153   2.040   1.092  1.1424 -1.7097  1.8444
  643TIP3   OH223487   5.924   6.286   1.812  0.1349  0.4538  0.0819
  643TIP3    H123488   5.841   6.269   1.766 -0.2850 -0.2961  1.0851
  643TIP3    H223489   5.898   6.336   1.890  0.8241  1.6298 -0.4196
  644TIP3   OH223490   1.496   5.353   1.478  0.5885 -0.0165  0.5073
  644TIP3    H123491   1.491   5.413   1.404  3.1970  0.3390  0.5109
  644TIP3    H223492   1.565   5.291   1.454  0.5859 -0.6788  2.0940
  645TIP3   OH223493   4.159   2.363   2.828  0.0039  0.3002 -0.2782
  645TIP3    H123494   4.191   2.298   2.891 -1.4128 -1.5375 -1.3328
  645TIP3    H223495   4.161   2.446   2.876  1.0764 -0.6430  1.4253
  646TIP3   OH223496   3.622   4.003   7.599  0.1941 -0.5520 -0.1155
  646TIP3    H123497   3.638   4.066   7.670  2.4784 -1.6983  0.4961
  646TIP3    H223498   3.699   4.011   7.543 -0.1987 -1.7264 -0.8592
  647TIP3   OH223499   1.175   1.134   8.143 -0.8014  0.2296  0.1874
  647TIP3    H123500   1.164   1.095   8.230  0.5780 -0.6716 -0.0012
  647TIP3    H223501   1.130   1.218   8.149 -2.1385 -0.5149  1.2445
  648TIP3   OH223502   2.111   5.073   2.327 -0.0308 -0.9454 -0.2921
  648TIP3    H123503   2.094   5.019   2.404  0.9678 -1.4514 -0.4040
  648TIP3    H223504   2.205   5.062   2.311 -0.2959 -1.1948 -1.8309
  649TIP3   OH223505   2.323   2.901   7.853  0.3077  0.0303 -0.0343
  649TIP3    H123506   2.415   2.915   7.831  0.1205  1.5452  0.0330
  649TIP3    H223507   2.294   2.833   7.791  1.0723  0.6588 -1.1300
  650TIP3   OH223508   6.310   3.136   1.965 -0.2359  0.4366  0.8261
  650TIP3    H123509   6.360   3.056   1.982  0.1039  0.7696  1.4009
  650TIP3    H223510   6.226   3.104   1.932  0.0772 -0.1454  0.5685
  651TIP3   OH223511   5.494   0.429   0.372 -0.0156 -0.4024  0.0145
  651TIP3    H123512   5.545   0.493   0.421  1.5585 -1.6930  0.1261
  651TIP3    H223513   5.403   0.456   0.385  0.5690  1.5813  0.3354
  652TIP3   OH223514   2.852   0.278   2.371  0.6506  0.0910 -0.4832
  652TIP3    H123515   2.853   0.296   2.277 -0.0685  0.6769 -0.3963
  652TIP3    H223516   2.943   0.287   2.399  0.7158  0.9555 -0.9464
  653TIP3   OH223517   4.502   5.324   7.794 -0.2212  0.4639  0.1547
  653TIP3    H123518   4.457   5.246   7.763  1.8755 -1.0422  0.7018
  653TIP3    H223519   4.534   5.366   7.714  1.1340 -0.8573 -0.0374
  654TIP3   OH223520   5.087   6.129   0.982 -0.7927 -0.2001 -0.0694
  654TIP3    H123521   5.062   6.049   1.028 -0.3356  0.3946  1.2541
  654TIP3    H223522   5.065   6.200   1.042  0.3439  0.5704 -0.5182
  655TIP3   OH223523   0.021   0.366   2.918 -0.2435  0.3994 -0.0673
  655TIP3    H123524   0.044   0.426   2.988  2.7523 -0.4047 -0.2282
  655TIP3    H223525   0.062   0.283   2.943 -2.2493 -0.9740 -1.0080
  656TIP3   OH223526   2.798   6.335   2.735  0.5926 -0.3014  0.7073
  656TIP3    H123527   2.708   6.305   2.751  0.0881 -0.4272 -1.8472
  656TIP3    H223528   2.790   6.429   2.721  0.4471 -0.5850 -1.5347
  657TIP3   OH223529   0.630   0.478   1.573 -0.3687  0.0889  0.3464
  657TIP3    H123530   0.611   0.466   1.480 -0.0540 -0.2806  0.3251
  657TIP3    H223531   0.666   0.566   1.579  0.1712 -0.1002  0.0173
  658TIP3   OH223532   5.325   4.572   1.487 -0.5656  0.0406 -0.2298
  658TIP3    H123533   5.395   4.510   1.463  0.6589  1.0705  0.5771
  658TIP3    H223534   5.300   4.546   1.575 -0.8755 -0.0164 -0.3336
  659TIP3   OH223535   3.494   1.548   0.679  0.5130  0.6669 -0.1624
  659TIP3    H123536   3.543   1.485   0.733  0.4120 -0.0756 -0.9112
  659TIP3    H223537   3.511   1.520   0.589  0.3372  1.6306 -0.5050
  660TIP3   OH223538   3.474   2.122   8.485 -0.0305 -0.0884  0.9977
  660TIP3    H123539   3.455   2.070   8.563  0.4369 -0.6264  0.7587
  660TIP3    H223540   3.433   2.207   8.503 -1.1968 -0.6664  1.1981
  661TIP3   OH223541   0.722   1.024   1.102 -0.2671 -0.2225 -0.1653
  661TIP3    H123542   0.810   1.057   1.120 -0.4681  0.6870 -0.7883
  661TIP3    H223543   0.678   1.096   1.058 -1.7939 -0.1286  1.4024
  662TIP3   OH223544   4.335   6.175   1.597  0.1668 -0.2763  0.3848
  662TIP3    H123545   4.350   6.111   1.527 -0.6791  0.1353 -0.1845
  662TIP3    H223546   4.378   6.138   1.674 -1.2309 -2.0551  0.3557
  663TIP3   OH223547   2.448   1.112   1.514  0.9403 -0.1879 -0.8709
  663TIP3    H123548   2.528   1.064   1.492  1.4027 -0.4894  1.2887
  663TIP3    H223549   2.421   1.077   1.599 -2.2693 -1.0432 -2.0794
  664TIP3   OH223550   2.467   3.147   0.520  0.2148 -0.4633  0.0868
  664TIP3    H123551   2.453   3.186   0.607  0.3018  0.4649 -0.3090
  664TIP3    H223552   2.449   3.218   0.459 -0.4710 -1.2836 -0.6925
  665TIP3   OH223553   5.342   5.697   1.388  0.4505  0.0802  0.0637
  665TIP3    H123554   5.363   5.727   1.477 -1.3193  0.2511  0.4466
  665TIP3    H223555   5.384   5.762   1.331  3.2461 -1.0517  0.6474
  666TIP3   OH223556   1.764   0.609   2.336  0.6398  0.4176 -0.1183
  666TIP3    H123557   1.801   0.568   2.257 -0.7369  1.0263 -1.1226
  666TIP3    H223558   1.707   0.542   2.373 -1.9023  1.3761 -1.9650
  667TIP3   OH223559   2.760   5.032   3.212  0.0063  0.2456 -0.0677
  667TIP3    H123560   2.855   5.020   3.211  0.1457  1.2541 -0.0342
  667TIP3    H223561   2.743   5.074   3.297 -0.3112  1.1574 -0.5678
  668TIP3   OH223562   1.048   1.975   8.546  0.4861  0.3664 -0.0477
  668TIP3    H123563   1.093   1.978   8.630 -2.6413  1.6034  1.7964
  668TIP3    H223564   1.051   2.065   8.514 -0.1430  0.3516 -0.1693
  669TIP3   OH223565   0.541   6.342   0.824  0.4442  0.2803  0.2034
  669TIP3    H123566   0.549   6.433   0.794  0.9871 -0.0017 -0.5420
  669TIP3    H223567   0.631   6.312   0.834  0.3279 -0.8596 -1.7485
  670TIP3   OH223568   6.638   0.258   8.298  0.0598  0.7706 -0.0566
  670TIP3    H123569   6.569   0.325   8.294 -0.7819 -0.0857 -0.2915
  670TIP3    H223570   6.711   0.297   8.250 -0.8091  1.1041 -1.1780
  671TIP3   OH223571   2.081   1.505   1.025 -0.0003 -0.3791 -0.3058
  671TIP3    H123572   2.162   1.541   0.989 -1.0106  0.9559 -1.3180
  671TIP3    H223573   2.110   1.454   1.101  1.6706  1.0944  0.1264
  672TIP3   OH223574   6.626   5.760   3.076 -0.8471 -0.2647  0.2344
  672TIP3    H123575   6.637   5.712   2.994  2.2354 -0.1808  0.4772
  672TIP3    H223576   6.556   5.823   3.058 -1.1773 -1.1368 -1.8562
  673TIP3   OH223577   6.080   3.245   3.798 -0.2549  0.5124 -0.0525
  673TIP3    H123578   6.167   3.280   3.819  0.2163 -0.9861  0.7243
  673TIP3    H223579   6.055   3.197   3.877 -0.9890 -0.5902 -0.9263
  674TIP3   OH223580   6.158   2.490   0.034 -0.1742 -0.2929  0.5352
  674TIP3    H123581   6.122   2.462  -0.050  1.6238  0.7586 -0.6615
  674TIP3    H223582   6.113   2.572   0.054  1.1763  0.8351 -0.7809
  675TIP3   OH223583   3.508   6.704   2.052 -0.5151 -0.9270  0.0885
  675TIP3    H123584   3.440   6.690   2.118  0.7805 -1.9616  1.2433
  675TIP3    H223585   3.496   6.633   1.989 -2.0744  0.3421 -1.1790
  676TIP3   OH223586   1.100   1.063   7.904  0.4382 -0.1021  0.2379
  676TIP3    H123587   1.101   0.968   7.893 -0.7132  0.0200 -1.2240
  676TIP3    H223588   1.113   1.076   7.998  0.4382 -1.7007  0.4938
  677TIP3   OH223589   6.284   1.543   0.162 -0.8485  0.0349  0.3656
  677TIP3    H123590   6.240   1.628   0.161  0.1872  0.5991  0.9354
  677TIP3    H223591   6.372   1.563   0.193 -0.3430 -1.1380 -0.2671
  678TIP3   OH223592   6.351   3.081   0.222  0.3581 -0.4508 -0.3223
  678TIP3    H123593   6.290   3.074   0.297  1.2812 -0.4224  0.4465
  678TIP3    H223594   6.312   3.147   0.166 -0.2433 -0.3118  0.2405
  679TIP3   OH223595   1.619   1.334   8.526 -0.2346 -0.6970 -0.6514
  679TIP3    H123596   1.639   1.396   8.456  0.6738 -1.1059 -0.7726
  679TIP3    H223597   1.663   1.253   8.500 -1.0136 -1.2608 -0.2653
  680TIP3   OH223598   6.795   4.848   2.162 -0.3535  0.2322 -0.6441
  680TIP3    H123599   6.743   4.806   2.231  0.9879 -0.3882  0.0367
  680TIP3    H223600   6.751   4.825   2.081 -1.9981  1.0157 -0.0130
  681TIP3   OH223601   4.576   4.503   1.689 -0.0882 -0.1823  0.2515
  681TIP3    H123602   4.618   4.508   1.774  0.3011 -0.7873  0.1016
  681TIP3    H223603   4.527   4.585   1.681  0.0477 -0.0291  0.9595
  682TIP3   OH223604   5.770   0.180   1.731 -0.1542 -0.3880 -0.6496
  682TIP3    H123605   5.759   0.199   1.824  0.2434 -3.4537  0.1167
  682TIP3    H223606   5.863   0.164   1.720 -0.1281  0.3785 -1.7129
  683TIP3   OH223607   1.505   1.255   0.073 -0.2171  0.6936 -0.4623
  683TIP3    H123608   1.576   1.193   0.091  0.0272  0.8227 -0.9793
  683TIP3    H223609   1.547   1.329   0.030 -0.3445  1.6703  0.9991
  684TIP3   OH223610   5.794   3.791   8.072 -0.6914 -0.2394 -0.6491
  684TIP3    H123611   5.846   3.844   8.011  2.2158 -0.3237  1.5259
  684TIP3    H223612   5.783   3.846   8.149 -2.0219 -1.0471 -0.2277
  685TIP3   OH223613   0.411   6.773   0.272 -0.1989  0.4540  0.0428
  685TIP3    H123614   0.422   6.744   0.363  0.1100  0.5741  0.0453
  685TIP3    H223615   0.461   6.854   0.267 -0.5743  0.6750 -0.1231
  686TIP3   OH223616   5.113   2.102   8.078 -0.5323 -0.1641  0.5481
  686TIP3    H123617   5.023   2.072   8.065 -1.3805  1.0575  2.9348
  686TIP3    H223618   5.160   2.025   8.108 -0.4540 -1.0611 -1.6693
  687TIP3   OH223619   6.518   1.561   1.619  0.7112  0.2305 -0.0095
  687TIP3    H123620   6.573   1.494   1.579  1.8103  1.4638 -0.6555
  687TIP3    H223621   6.522   1.544   1.713  0.8280 -0.6976 -0.1753
  688TIP3   OH223622   2.908   3.111   8.639  0.1938  0.0532 -0.1409
  688TIP3    H123623   2.823   3.135   8.602  0.5014 -0.2324 -1.0793
  688TIP3    H223624   2.951   3.062   8.569  0.9932 -0.1073  0.4481
  689TIP3   OH223625   4.188   6.204   8.526  0.4276 -0.4377  0.3997
  689TIP3    H123626   4.116   6.212   8.588  0.1173  0.8257 -0.0814
  689TIP3    H223627   4.222   6.293   8.517  1.5162 -0.8746 -0.0133
  690TIP3   OH223628   2.929   2.533   0.063 -0.4681 -0.4250  0.6742
  690TIP3    H123629   2.946   2.562   0.152  0.7442  0.2752  0.2437
  690TIP3    H223630   2.898   2.611   0.017 -0.1583 -0.5427  0.2528
  691TIP3   OH223631   0.734   6.810   0.459  0.0391  0.0849 -0.2547
  691TIP3    H123632   0.643   6.822   0.485 -0.1475 -1.3554 -0.1953
  691TIP3    H223633   0.761   6.897   0.428 -1.3033  0.5678 -0.1478
  692TIP3   OH223634   6.626   3.880   2.652  0.5413  0.1309 -0.0259
  692TIP3    H123635   6.537   3.860   2.680 -0.2077  0.9398 -1.6808
  692TIP3    H223636   6.679   3.874   2.732 -1.5241  2.8371  1.7353
  693TIP3   OH223637   6.490   1.613   8.466  0.4254  0.3141 -0.4113
  693TIP3    H123638   6.508   1.557   8.390 -0.8225 -1.8385  0.7872
  693TIP3    H223639   6.555   1.587   8.531 -0.3914 -0.0234  0.2844
  694TIP3   OH223640   2.033   2.324   2.729 -0.1446  0.2492  0.1163
  694TIP3    H123641   2.128   2.334   2.731 -0.1792  0.3712  1.5365
  694TIP3    H223642   2.017   2.234   2.756 -0.4774  0.6160  1.1896
  695TIP3   OH223643   2.107   6.439   1.967 -1.0814 -0.6478 -0.5142
  695TIP3    H123644   2.088   6.375   1.898  0.5700 -3.1239  1.1404
  695TIP3    H223645   2.202   6.432   1.981 -1.4439 -1.0036  2.5641
  696TIP3   OH223646   6.817   4.119   2.929 -0.6087 -0.3679  0.0727
  696TIP3    H123647   6.798   4.029   2.901 -0.0719  0.1822 -2.2560
  696TIP3    H223648   6.731   4.157   2.948 -0.9913 -0.8425 -0.6815
  697TIP3   OH223649   0.845   2.518   1.458 -0.3774 -0.5257 -0.6198
  697TIP3    H123650   0.797   2.525   1.541 -0.7071 -1.2578 -0.7371
  697TIP3    H223651   0.783   2.478   1.398  0.8916 -3.2812 -0.2759
  698TIP3   OH223652   0.374   6.753   8.695  0.0221 -0.8987  0.4048
  698TIP3    H123653   0.452   6.719   8.651 -0.1871  0.6590 -1.2797
  698TIP3    H223654   0.389   6.734   8.788  2.6765 -0.1630  0.2053
  699TIP3   OH223655   5.026   5.212   3.495  0.3858  0.2050  0.1209
  699TIP3    H123656   4.955   5.148   3.500  0.4036  0.1685 -0.0702
  699TIP3    H223657   5.083   5.178   3.426 -0.3027  1.1359 -0.9424
  700TIP3   OH223658   0.759   3.419   8.450 -0.0541 -0.0442 -0.1261
  700TIP3    H123659   0.837   3.396   8.399 -0.0033 -1.5459  0.5688
  700TIP3    H223660   0.762   3.360   8.525 -0.8182  1.2362  0.9584
  701TIP3   OH223661   3.137   2.528   3.144 -0.1434 -0.3861 -0.2468
  701TIP3    H123662   3.096   2.562   3.224 -0.1269  1.3294 -0.9343
  701TIP3    H223663   3.070   2.471   3.106  0.7850 -3.4397  2.2863
  702TIP3   OH223664   3.751   4.700   7.755 -0.0179 -0.0577  0.1762
  702TIP3    H123665   3.718   4.657   7.834 -1.2535 -2.2252 -1.3938
  702TIP3    H223666   3.832   4.654   7.735 -0.8883 -1.1595 -1.0182
  703TIP3   OH223667   0.608   5.808   0.958  0.0286  0.5103 -0.3324
  703TIP3    H123668   0.582   5.791   1.048  1.9957  0.1561  0.2241
  703TIP3    H223669   0.673   5.878   0.965  0.2225  0.4592 -1.4612
  704TIP3   OH223670   6.417   0.655   0.185 -0.5293 -0.3528  0.5543
  704TIP3    H123671   6.340   0.599   0.187  0.1447 -1.3447 -0.1222
  704TIP3    H223672   6.462   0.637   0.268  0.3449 -1.8447 -0.1802
  705TIP3   OH223673   6.184   3.963   1.751  0.2606 -0.2055 -0.4112
  705TIP3    H123674   6.164   4.034   1.690 -1.1968 -1.2466 -1.1973
  705TIP3    H223675   6.111   3.965   1.814  0.8158 -0.2857  0.2441
  706TIP3   OH223676   0.164   0.280   2.628  0.5903  0.1423 -0.0171
  706TIP3    H123677   0.251   0.248   2.606  0.6335  0.2679 -0.0294
  706TIP3    H223678   0.104   0.215   2.592  0.7228 -1.5835  2.6019
  707TIP3   OH223679   4.089   0.574   0.087 -1.0054  0.2352 -0.8273
  707TIP3    H123680   4.031   0.529   0.148 -1.9192 -0.8238 -2.4026
  707TIP3    H223681   4.030   0.616   0.024 -0.0910  1.0123 -1.1868
  708TIP3   OH223682   3.747   1.072   1.015  0.3059  0.2115 -0.4914
  708TIP3    H123683   3.715   0.983   1.031 -0.1199  0.4343 -0.0544
  708TIP3    H223684   3.776   1.071   0.924  2.9076 -1.1434  0.2544
  709TIP3   OH223685   6.038   4.613   1.626  0.4073 -0.0993  0.0315
  709TIP3    H123686   6.039   4.703   1.657 -1.4257  0.1633 -0.5365
  709TIP3    H223687   6.088   4.614   1.544  1.8392  0.0157  0.8739
  710TIP3   OH223688   1.040   4.399   0.086 -0.6692 -0.1440  0.1932
  710TIP3    H123689   0.975   4.451   0.134  0.6183 -0.6958  2.6705
  710TIP3    H223690   1.008   4.309   0.092 -0.6658 -0.1789 -0.2872
  711TIP3   OH223691   4.666   2.205   0.524  0.1950  0.4820  0.5347
  711TIP3    H123692   4.691   2.173   0.611 -1.3706 -1.6603  0.2928
  711TIP3    H223693   4.593   2.264   0.540 -1.3990 -1.3946  0.6681
  712TIP3   OH223694   0.571   5.388   0.899 -0.5336 -0.0487  0.2851
  712TIP3    H123695   0.476   5.390   0.911 -0.6293  0.0405 -0.4516
  712TIP3    H223696   0.594   5.479   0.880 -0.0337  0.2991  2.2888
  713TIP3   OH223697   6.252   1.608   1.527 -0.0051  0.0932  0.6014
  713TIP3    H123698   6.338   1.597   1.567 -0.1607 -0.7437  0.7209
  713TIP3    H223699   6.210   1.523   1.536 -0.2813  0.0537 -0.7951
  714TIP3   OH223700   2.347   4.032   0.741  0.1330  0.1977  0.2249
  714TIP3    H123701   2.347   4.128   0.738 -1.2229  0.2125  0.4096
  714TIP3    H223702   2.292   4.006   0.667  1.3091 -0.4940 -0.4611
  715TIP3   OH223703   0.894   5.266   1.084  0.3546  0.3062 -0.4956
  715TIP3    H123704   0.988   5.249   1.094  0.1857  0.0502  0.8515
  715TIP3    H223705   0.879   5.348   1.130 -0.4033 -0.6656  1.0368
  716TIP3   OH223706   4.036   2.360   0.129 -0.5451 -0.6289 -0.0647
  716TIP3    H123707   3.960   2.307   0.154 -1.8769  1.0798 -0.3095
  716TIP3    H223708   4.058   2.409   0.208 -1.1683  0.5660 -0.6106
  717TIP3   OH223709   6.233   1.544   2.840  0.5743  0.0608  0.0079
  717TIP3    H123710   6.297   1.609   2.868 -1.8477  1.9990  1.5213
  717TIP3    H223711   6.183   1.523   2.919 -2.7690  1.2264 -1.5821
  718TIP3   OH223712   2.733   5.858   1.792 -0.4355 -0.8307  0.3144
  718TIP3    H123713   2.646   5.840   1.827  0.1706  0.5031  2.7501
  718TIP3    H223714   2.783   5.890   1.868  0.8203  3.0034 -1.8499
  719TIP3   OH223715   2.534   6.487   1.240 -0.0220 -0.7767  0.0101
  719TIP3    H123716   2.489   6.403   1.233 -0.2999 -0.7347  0.9872
  719TIP3    H223717   2.519   6.530   1.156 -0.6954 -1.3097 -0.1521
  720TIP3   OH223718   0.962   5.976   0.624 -0.3715  0.2592 -0.0363
  720TIP3    H123719   1.008   5.899   0.591  0.5645  0.5548  0.5438
  720TIP3    H223720   0.885   5.984   0.568  0.3664 -0.1504 -1.1439
  721TIP3   OH223721   2.516   2.677   1.139  0.0655 -0.5125  0.1615
  721TIP3    H123722   2.580   2.736   1.100 -0.6364 -0.5458 -1.1155
  721TIP3    H223723   2.544   2.590   1.110  0.7670 -0.7694  1.5553
  722TIP3   OH223724   1.827   4.295   8.476 -0.0512 -0.9435  0.5782
  722TIP3    H123725   1.843   4.227   8.411 -1.1146  0.2716 -1.0133
  722TIP3    H223726   1.747   4.266   8.520 -0.4917 -0.7431 -0.0809
  723TIP3   OH223727   0.719   1.955   8.082 -0.6841 -0.0732 -0.1271
  723TIP3    H123728   0.657   1.901   8.032 -0.2597 -1.2798  0.6011
  723TIP3    H223729   0.735   1.904   8.161  1.4269  0.0945 -0.4108
  724TIP3   OH223730   5.522   2.166   3.519  0.2445 -0.0642  0.1233
  724TIP3    H123731   5.471   2.244   3.542  1.0536  0.9115 -1.2695
  724TIP3    H223732   5.611   2.186   3.551  0.4029 -0.5156 -0.0387
  725TIP3   OH223733   5.661   1.947   8.149 -0.0988 -0.6109  0.2663
  725TIP3    H123734   5.573   1.950   8.186  0.3228 -0.0011  1.2617
  725TIP3    H223735   5.661   2.016   8.082 -0.2269 -0.2615  0.6231
  726TIP3   OH223736   6.168   5.510   0.811  0.3234  0.1447 -0.1933
  726TIP3    H123737   6.082   5.505   0.770  1.3735  0.3305 -2.5813
  726TIP3    H223738   6.159   5.458   0.891 -2.0682  0.4439 -0.1761
  727TIP3   OH223739   3.880   5.055   8.209 -0.7340  0.3342 -0.0137
  727TIP3    H123740   3.897   5.127   8.149  0.0443  0.0506 -0.1411
  727TIP3    H223741   3.818   4.999   8.161 -1.6710  1.1230  0.2559
  728TIP3   OH223742   0.442   6.209   2.145 -0.0276  0.2384  0.3396
  728TIP3    H123743   0.366   6.211   2.202 -0.1597  0.8765  0.1441
  728TIP3    H223744   0.442   6.121   2.108 -1.5772  0.7212 -0.8898
  729TIP3   OH223745   1.430   5.441   2.945 -0.9082 -0.3210 -0.0973
  729TIP3    H123746   1.410   5.529   2.976 -1.2069 -0.0625 -1.0077
  729TIP3    H223747   1.514   5.420   2.986 -0.6598  0.5238 -0.1619
  730TIP3   OH223748   4.813   6.334   1.788  0.7501  0.1099 -0.1780
  730TIP3    H123749   4.847   6.309   1.874  0.8393  1.5666  0.2458
  730TIP3    H223750   4.814   6.253   1.737 -0.7616 -1.1487  1.6494
  731TIP3   OH223751   0.782   5.908   3.006 -0.1902  0.0872  0.1274
  731TIP3    H123752   0.734   5.990   3.002  0.2433  0.3255 -0.2000
  731TIP3    H223753   0.786   5.887   3.100  1.3242  1.4087  0.4117
  732TIP3   OH223754   1.103   3.952   1.408 -0.0116 -0.0489  0.0582
  732TIP3    H123755   1.107   3.961   1.313  1.0551  1.1220  0.1885
  732TIP3    H223756   1.012   3.929   1.426 -0.2924 -0.0154 -1.2169
  733TIP3   OH223757   1.636   2.469   2.590  0.2613 -0.4168  0.2629
  733TIP3    H123758   1.570   2.474   2.659 -0.0937  0.2160 -0.1093
  733TIP3    H223759   1.701   2.536   2.614  0.4519 -0.6143  0.3019
  734TIP3   OH223760   3.669   1.812   1.496  0.2447 -0.1939 -0.3698
  734TIP3    H123761   3.638   1.903   1.499  1.7089  0.3392 -0.0360
  734TIP3    H223762   3.684   1.789   1.588  0.5202 -0.5202 -0.4950
  735TIP3   OH223763   6.341   4.537   2.813 -0.0575 -0.2084 -0.1905
  735TIP3    H123764   6.408   4.600   2.838  0.2507 -0.5977 -0.0194
  735TIP3    H223765   6.340   4.539   2.718 -0.6628  0.6849 -0.1804
  736TIP3   OH223766   6.048   2.152   2.573  0.2706 -0.0981 -0.0262
  736TIP3    H123767   6.094   2.205   2.638  0.5637  0.4702 -0.6821
  736TIP3    H223768   5.973   2.207   2.546  0.8414  0.2028 -1.0527
  737TIP3   OH223769   0.280   6.057   8.639 -0.8121  0.4546 -0.3132
  737TIP3    H123770   0.220   5.986   8.660 -0.9741  0.4002 -0.9678
  737TIP3    H223771   0.314   6.036   8.552 -2.5360  2.2873 -1.5215
  738TIP3   OH223772   3.175   5.444   0.247 -0.3283 -0.3867  0.0720
  738TIP3    H123773   3.112   5.463   0.179  1.1361 -1.0110 -1.5456
  738TIP3    H223774   3.123   5.432   0.326 -1.9317  2.1519 -0.4999
  739TIP3   OH223775   3.451   0.310   2.192 -0.0319  0.5221 -0.1350
  739TIP3    H123776   3.450   0.221   2.228 -1.7239  0.2867 -0.6650
  739TIP3    H223777   3.362   0.342   2.205  0.0558  1.4575 -1.6039
  740TIP3   OH223778   6.780   5.853   0.812  0.5394 -0.2068 -0.2503
  740TIP3    H123779   6.868   5.876   0.781  0.5900  0.4696  0.3644
  740TIP3    H223780   6.780   5.757   0.813  1.9538 -0.2428  1.5574
  741TIP3   OH223781   2.215   3.890   1.578  0.1634 -0.3420 -0.1010
  741TIP3    H123782   2.251   3.825   1.517 -0.9067  0.9227 -2.2113
  741TIP3    H223783   2.278   3.893   1.650  1.7229 -1.6480 -1.3326
  742TIP3   OH223784   4.329   4.937   3.031  0.1379 -0.1995  0.0888
  742TIP3    H123785   4.283   4.891   3.101  2.0574 -0.0966  1.5086
  742TIP3    H223786   4.346   5.025   3.066 -0.0626  0.3189 -1.0586
  743TIP3   OH223787   6.009   2.525   1.859  0.1013 -0.2800  0.0458
  743TIP3    H123788   6.048   2.491   1.939  0.5927 -0.3915 -0.2339
  743TIP3    H223789   5.938   2.464   1.839  2.1521 -2.3279 -1.4890
  744TIP3   OH223790   5.259   5.098   8.181 -0.0072  0.9785 -0.1985
  744TIP3    H123791   5.220   5.041   8.247 -0.9629  1.7197 -0.0928
  744TIP3    H223792   5.352   5.078   8.183 -0.4739 -2.0249 -1.5246
  745TIP3   OH223793   5.550   2.664   3.542 -0.0126 -0.1986  0.3569
  745TIP3    H123794   5.460   2.644   3.514  0.0907 -0.1397 -0.0201
  745TIP3    H223795   5.598   2.675   3.461 -1.0078  6.2746  0.1114
  746TIP3   OH223796   0.163   3.846   2.109  0.0904 -0.7041  0.0926
  746TIP3    H123797   0.110   3.766   2.119  0.7060 -1.0993  0.2834
  746TIP3    H223798   0.242   3.829   2.160 -0.7880  0.9951  2.1400
  747TIP3   OH223799   4.833   3.879   1.729  0.0596  0.0391 -1.1087
  747TIP3    H123800   4.903   3.844   1.675  1.6319  1.5176 -0.1404
  747TIP3    H223801   4.858   3.857   1.819 -2.1896 -1.8381 -0.8171
  748TIP3   OH223802   3.330   1.860   3.056 -0.3209 -0.1704 -0.2324
  748TIP3    H123803   3.315   1.940   3.005  2.7222  1.4674  1.1549
  748TIP3    H223804   3.279   1.872   3.136 -0.4311  0.0493 -0.3362
  749TIP3   OH223805   1.637   0.119   1.403  0.0036 -0.8115  0.0599
  749TIP3    H123806   1.715   0.121   1.458 -0.2608 -1.9525  0.5092
  749TIP3    H223807   1.626   0.209   1.373 -1.0483  0.4274  3.6237
  750TIP3   OH223808   2.473   2.077   0.193 -0.2744 -0.4930 -0.4703
  750TIP3    H123809   2.538   2.008   0.182 -0.9649 -1.2843  0.2285
  750TIP3    H223810   2.513   2.139   0.254 -0.0601 -0.8236 -0.2712
  751TIP3   OH223811   0.337   1.305   0.051 -0.2048  0.0355  0.2157
  751TIP3    H123812   0.405   1.241   0.031  0.0410  0.4911 -0.4591
  751TIP3    H223813   0.321   1.349  -0.033 -0.0139  1.1972  0.7789
  752TIP3   OH223814   1.051   4.786   0.218 -0.0398  0.6046  0.0445
  752TIP3    H123815   1.070   4.873   0.185 -0.9192 -0.2563 -3.0893
  752TIP3    H223816   1.131   4.736   0.205 -0.4669  0.1952 -1.1770
  753TIP3   OH223817   2.247   3.013   1.587 -0.3939  0.4158 -0.4180
  753TIP3    H123818   2.221   2.936   1.637  1.3496 -1.3383 -2.0224
  753TIP3    H223819   2.274   3.077   1.653 -1.0598 -0.6507  0.9389
  754TIP3   OH223820   4.642   1.968   1.487  0.0628 -0.9815 -0.1792
  754TIP3    H123821   4.729   1.998   1.461  0.7553 -1.8479  1.0370
  754TIP3    H223822   4.594   2.049   1.507  0.8472 -0.5354 -0.0678
  755TIP3   OH223823   1.734   5.131   2.563 -0.5023 -0.6561 -0.0056
  755TIP3    H123824   1.656   5.077   2.577 -0.6450 -0.5430 -0.3624
  755TIP3    H223825   1.806   5.076   2.592 -0.8612  0.0151  2.4365
  756TIP3   OH223826   1.737   4.151   0.010 -0.0722  0.0471  0.1366
  756TIP3    H123827   1.695   4.067   0.028  0.3415 -0.5453 -1.4449
  756TIP3    H223828   1.664   4.211  -0.008 -0.3557 -0.0581  0.9156
  757TIP3   OH223829   2.328   2.433   2.727  0.0374 -0.1969  0.4500
  757TIP3    H123830   2.419   2.414   2.748  0.6479  1.7682 -0.1806
  757TIP3    H223831   2.309   2.514   2.774 -1.0196  0.0141 -0.2962
  758TIP3   OH223832   2.179   5.963   0.070  0.3669  0.0514  0.1996
  758TIP3    H123833   2.215   5.970  -0.018  1.0566 -0.8763  0.3974
  758TIP3    H223834   2.201   6.047   0.112  2.9324 -0.7092  0.5241
  759TIP3   OH223835   4.609   5.106   8.235 -0.4783 -0.5258 -0.0173
  759TIP3    H123836   4.587   5.062   8.317 -2.3830  0.0786 -0.1683
  759TIP3    H223837   4.526   5.118   8.190  0.2931  0.8489 -1.1912
  760TIP3   OH223838   5.540   3.148   2.165  0.5078 -0.2343  0.8342
  760TIP3    H123839   5.633   3.137   2.185  0.6077  0.5779  0.8322
  760TIP3    H223840   5.517   3.232   2.202 -0.2759 -0.5007  0.9716
  761TIP3   OH223841   5.490   1.108   0.233  0.1730 -0.1992 -0.1075
  761TIP3    H123842   5.454   1.079   0.317 -0.1274  0.0330 -0.1535
  761TIP3    H223843   5.573   1.150   0.255 -0.3285  0.6659  0.1768
  762TIP3   OH223844   5.430   6.403   1.875 -0.3152 -0.1975  0.1040
  762TIP3    H123845   5.360   6.357   1.828  0.0519  0.2804 -0.9489
  762TIP3    H223846   5.510   6.373   1.832 -0.0047  0.6566  0.0868
  763TIP3   OH223847   1.102   2.191   2.827 -0.7922  0.1182  0.1649
  763TIP3    H123848   1.055   2.133   2.887  0.8309 -1.8342 -0.3261
  763TIP3    H223849   1.191   2.156   2.825 -0.3771  1.1103 -2.0958
  764TIP3   OH223850   2.952   0.179   0.957 -0.0099  0.0306 -0.5537
  764TIP3    H123851   2.897   0.196   0.880  0.3958  0.7738 -0.6875
  764TIP3    H223852   2.958   0.083   0.962 -0.2486 -0.0260 -1.2903
  765TIP3   OH223853   1.316   3.817   8.584  0.8330  0.2293  0.0556
  765TIP3    H123854   1.245   3.756   8.605  0.7809  0.5515  0.8458
  765TIP3    H223855   1.336   3.861   8.667  1.1142  1.0350 -0.4243
  766TIP3   OH223856   6.158   1.456   3.095  1.1079  0.0955 -0.2097
  766TIP3    H123857   6.218   1.431   3.165  0.9471  0.2685 -0.0122
  766TIP3    H223858   6.082   1.493   3.139  1.6716  1.6777 -0.5122
  767TIP3   OH223859   3.554   4.375   8.194  0.3555  0.0978  0.1110
  767TIP3    H123860   3.622   4.313   8.220 -0.2530 -0.6505 -0.0193
  767TIP3    H223861   3.474   4.340   8.232 -0.2324  0.0335 -1.1226
  768TIP3   OH223862   4.009   5.585   0.030 -0.4967 -0.0253  0.1178
  768TIP3    H123863   4.016   5.490   0.043 -3.2270 -0.4419 -0.8290
  768TIP3    H223864   3.983   5.619   0.116  0.6952 -0.0782  0.5124
  769TIP3   OH223865   6.287   0.078   2.808 -0.4427  0.1527  0.0158
  769TIP3    H123866   6.379   0.078   2.781 -0.7510 -0.4888 -1.1221
  769TIP3    H223867   6.263   0.170   2.810 -0.4566  0.2647 -2.2807
  770TIP3   OH223868   3.640   2.094   0.483  0.8624 -0.0966  0.1718
  770TIP3    H123869   3.571   2.042   0.525  1.4060 -0.2775  0.8650
  770TIP3    H223870   3.600   2.180   0.470  0.2124 -0.4588 -0.2634
  771TIP3   OH223871   6.838   4.944   8.024  0.1248  0.3717  0.1334
  771TIP3    H123872   6.889   5.025   8.024 -0.0474  0.5125  2.0446
  771TIP3    H223873   6.895   4.880   8.066 -0.5950  0.0853  0.6951
  772TIP3   OH223874   5.889   6.333   1.456  0.1170 -0.1315 -0.1008
  772TIP3    H123875   5.812   6.299   1.502  0.2463  1.1655  1.1677
  772TIP3    H223876   5.961   6.275   1.483 -0.1946 -0.6726 -0.4068
  773TIP3   OH223877   6.735   4.300   8.355 -0.2975  0.2343  0.2728
  773TIP3    H123878   6.693   4.355   8.422 -0.1563  0.2287  0.3671
  773TIP3    H223879   6.705   4.337   8.272  0.2288  0.8054  0.3261
  774TIP3   OH223880   6.511   5.141   2.498 -0.1643  0.1836  0.1921
  774TIP3    H123881   6.543   5.204   2.433 -0.0532  0.4048  0.4626
  774TIP3    H223882   6.435   5.100   2.456  0.6655 -0.5877 -0.5948
  775TIP3   OH223883   1.485   2.483   2.829 -0.3320 -0.0013 -0.2896
  775TIP3    H123884   1.498   2.546   2.901  1.4768 -2.0963  1.3932
  775TIP3    H223885   1.483   2.398   2.873 -0.7840 -1.2759 -2.6402
  776TIP3   OH223886   4.780   4.254   0.999 -0.2064  0.4768  0.4966
  776TIP3    H123887   4.761   4.171   0.955 -1.3163  1.3575 -0.7793
  776TIP3    H223888   4.721   4.255   1.075  0.7388 -0.4387  1.2849
  777TIP3   OH223889   3.767   0.852   2.220  0.3529 -0.4425  0.1587
  777TIP3    H123890   3.860   0.842   2.204  0.5188 -2.1481  1.8661
  777TIP3    H223891   3.750   0.945   2.208  2.1870 -0.1573 -0.4662
  778TIP3   OH223892   2.630   3.687   3.127 -0.0333  0.2969 -0.0339
  778TIP3    H123893   2.540   3.686   3.160 -0.4165 -0.6137 -1.0436
  778TIP3    H223894   2.633   3.763   3.069  0.4277  1.4622  1.4587
  779TIP3   OH223895   4.546   3.789   3.452  0.1478 -0.2136 -0.2748
  779TIP3    H123896   4.563   3.698   3.476  0.2579  0.3081  1.8235
  779TIP3    H223897   4.622   3.837   3.486 -0.7667  0.8798  0.3013
  780TIP3   OH223898   1.635   3.122   7.958  0.4642  0.4648 -0.1911
  780TIP3    H123899   1.557   3.094   7.910  0.4666  0.7722 -0.3715
  780TIP3    H223900   1.708   3.078   7.914  0.3222 -0.4485  0.4584
  781TIP3   OH223901   0.249   4.832   2.017  0.2758 -1.0780  0.4722
  781TIP3    H123902   0.273   4.914   1.974  0.5193 -0.0363  2.5054
  781TIP3    H223903   0.155   4.824   2.001 -0.0218  0.3100  1.3606
  782TIP3   OH223904   4.649   0.836   1.386  0.5811 -0.2255 -0.0254
  782TIP3    H123905   4.565   0.871   1.415 -0.3289 -1.7619 -0.6892
  782TIP3    H223906   4.660   0.871   1.297  0.4705 -0.2952 -0.0669
  783TIP3   OH223907   3.587   6.375   1.271  0.1449 -0.0154 -0.0108
  783TIP3    H123908   3.652   6.436   1.306  0.5971  0.0824 -1.0182
  783TIP3    H223909   3.505   6.426   1.272  0.8257  1.2605 -2.4747
  784TIP3   OH223910   4.934   4.656   3.147  0.2598 -0.1179  0.0384
  784TIP3    H123911   4.855   4.624   3.190 -0.4212  2.8247  1.2194
  784TIP3    H223912   4.987   4.692   3.218  0.1414  2.8465 -1.2498
  785TIP3   OH223913   5.231   4.093   0.972 -0.3664  0.3531 -0.2760
  785TIP3    H123914   5.237   4.001   0.945 -1.0739  0.1432  0.2513
  785TIP3    H223915   5.234   4.142   0.890  2.2216  0.0201 -0.4785
  786TIP3   OH223916   6.830   2.096   1.363  0.1865  0.5098 -0.6399
  786TIP3    H123917   6.758   2.150   1.332  0.1521  0.3591 -0.8275
  786TIP3    H223918   6.827   2.104   1.459  0.6389  1.4120 -0.6965
  787TIP3   OH223919   3.557   1.235   1.319  0.1204  0.1103 -0.0930
  787TIP3    H123920   3.507   1.153   1.320  2.9231 -1.7734 -1.1025
  787TIP3    H223921   3.567   1.258   1.411 -2.0744  0.2796  0.1479
  788TIP3   OH223922   4.579   2.676   1.035  0.1051 -0.3266  0.1046
  788TIP3    H123923   4.614   2.589   1.052  0.2633 -0.4386 -0.7738
  788TIP3    H223924   4.647   2.736   1.064 -0.7095 -0.3946  2.4722
  789TIP3   OH223925   2.386   6.134   1.931 -0.1827  0.2977 -0.0194
  789TIP3    H123926   2.308   6.094   1.970  0.1688 -0.2763  0.1064
  789TIP3    H223927   2.454   6.123   1.997  0.1372  0.3213 -0.3431
  790TIP3   OH223928   0.780   0.135   1.971  0.2190 -0.0335 -0.0047
  790TIP3    H123929   0.806   0.123   2.062 -0.2481 -1.4264 -0.0370
  790TIP3    H223930   0.861   0.160   1.925  0.6583 -0.3340  0.6052
  791TIP3   OH223931   4.351   2.198   3.388  0.4138  0.3199 -0.0048
  791TIP3    H123932   4.394   2.179   3.472  1.0358  0.6889 -0.2326
  791TIP3    H223933   4.420   2.233   3.333  0.8481 -2.9818 -1.8379
  792TIP3   OH223934   1.111   3.481   1.688  0.0155  0.8185  0.2526
  792TIP3    H123935   1.144   3.498   1.776  0.6098  0.9310  0.0124
  792TIP3    H223936   1.152   3.548   1.634  0.3742  0.1951 -0.2686
  793TIP3   OH223937   3.964   5.785   3.103 -0.9103  0.4407  0.0716
  793TIP3    H123938   3.959   5.733   3.023 -2.1907  1.6644 -0.6688
  793TIP3    H223939   3.971   5.719   3.173  0.9021 -0.6360 -1.0400
  794TIP3   OH223940   1.147   6.648   1.938  0.4000  0.3626 -0.0722
  794TIP3    H123941   1.161   6.686   2.025 -1.1307  1.0710 -0.1094
  794TIP3    H223942   1.140   6.554   1.953  0.1130  0.4841  0.5647
  795TIP3   OH223943   0.977   0.735   8.151 -0.1014 -0.4091 -0.0727
  795TIP3    H123944   0.899   0.715   8.201 -0.5769 -1.7376 -1.2781
  795TIP3    H223945   1.049   0.731   8.215 -0.9672  0.7709  1.0261
  796TIP3   OH223946   0.702   4.029   8.334  0.6876  0.4343  0.6466
  796TIP3    H123947   0.704   4.104   8.275  0.0329 -0.9447 -1.2031
  796TIP3    H223948   0.608   4.012   8.346  0.8370 -0.1733  0.9497
  797TIP3   OH223949   1.534   3.733   1.463  0.1613  0.4288 -0.0862
  797TIP3    H123950   1.486   3.815   1.459  1.8683  1.4737 -0.2685
  797TIP3    H223951   1.626   3.759   1.472  0.6793 -1.4636  0.7893
  798TIP3   OH223952   2.121   3.915   7.867 -0.4168  0.3005 -0.0355
  798TIP3    H123953   2.198   3.937   7.921  0.9253 -2.8608 -0.3943
  798TIP3    H223954   2.149   3.934   7.777 -0.1882 -0.3890 -0.1205
  799TIP3   OH223955   4.714   5.559   2.760  0.6591  0.4114  0.0648
  799TIP3    H123956   4.806   5.574   2.739  1.6033 -0.3226  3.0883
  799TIP3    H223957   4.683   5.644   2.791  0.7768  0.3400  0.3910
  800TIP3   OH223958   4.038   4.023   0.779  0.1341  0.0057  0.1958
  800TIP3    H123959   4.129   4.037   0.751 -0.8680  1.2742 -2.7495
  800TIP3    H223960   4.043   3.946   0.836  2.9016 -0.7322 -0.8775
  801TIP3   OH223961   2.086   3.580   0.464  0.1388 -0.0086 -0.1183
  801TIP3    H123962   2.090   3.514   0.533 -0.1209 -1.1598 -1.1751
  801TIP3    H223963   2.022   3.545   0.401  0.1254  1.1682 -0.7838
  802TIP3   OH223964   2.252   1.356   1.703  0.1283  0.5188 -0.4015
  802TIP3    H123965   2.284   1.272   1.672  1.0066  1.2994 -1.7019
  802TIP3    H223966   2.326   1.395   1.748 -0.6252  0.1383  1.2647
  803TIP3   OH223967   5.154   0.348   1.057 -0.4773 -0.5152 -0.0292
  803TIP3    H123968   5.129   0.328   1.147  0.2561 -0.8091  0.1199
  803TIP3    H223969   5.184   0.264   1.021  0.0849 -0.2222 -0.2593
  804TIP3   OH223970   5.548   4.103   1.453  0.7058  0.8878 -0.3989
  804TIP3    H123971   5.611   4.148   1.508  1.1762  0.7822 -0.8494
  804TIP3    H223972   5.600   4.064   1.383  0.6123 -1.8962  0.9149
  805TIP3   OH223973   3.134   5.764   8.736  0.5282 -0.6341  0.1297
  805TIP3    H123974   3.203   5.697   8.742  0.7993 -0.3221  0.5093
  805TIP3    H223975   3.131   5.787   8.643  0.7216 -0.8677  0.0637
  806TIP3   OH223976   3.145   4.504   0.369  0.2963 -0.1442  0.1239
  806TIP3    H123977   3.111   4.536   0.286  2.3535  2.3211  0.1259
  806TIP3    H223978   3.081   4.534   0.434 -1.0927 -1.7070 -0.4512
  807TIP3   OH223979   5.140   5.450   2.755  0.4529 -0.1652 -0.0750
  807TIP3    H123980   5.095   5.526   2.718  0.6706 -0.5853 -1.2467
  807TIP3    H223981   5.083   5.420   2.825 -0.4291  0.1196 -0.6585
  808TIP3   OH223982   5.847   5.060   1.124 -0.0548  0.0070 -0.1263
  808TIP3    H123983   5.754   5.046   1.145 -0.0623  0.3223  0.0634
  808TIP3    H223984   5.849   5.060   1.028 -0.0600 -1.1725 -0.1330
  809TIP3   OH223985   3.331   0.896   2.484  0.4490  0.1524  0.2956
  809TIP3    H123986   3.301   0.930   2.400 -0.6523 -0.7626  0.3034
  809TIP3    H223987   3.414   0.853   2.464  1.4671  2.0809  0.1462
  810TIP3   OH223988   2.269   2.370   0.125 -0.4161 -0.4811  0.5630
  810TIP3    H123989   2.186   2.416   0.139 -0.1924 -0.0350  0.4208
  810TIP3    H223990   2.321   2.391   0.202 -0.1288 -0.0892  0.2640
  811TIP3   OH223991   1.959   3.724   1.323  0.3044  0.3554 -0.7689
  811TIP3    H123992   1.877   3.746   1.277 -0.7090  2.6507  1.8641
  811TIP3    H223993   1.934   3.653   1.382  0.3247  0.6656 -0.3802
  812TIP3   OH223994   5.624   4.562   2.048 -0.1980  0.2475  0.1814
  812TIP3    H123995   5.705   4.603   2.079  0.6295 -0.6795 -0.6853
  812TIP3    H223996   5.584   4.525   2.126  1.4635 -1.3928  0.3270
  813TIP3   OH223997   0.421   2.348   4.013  0.0028 -0.1083  0.0969
  813TIP3    H123998   0.475   2.270   4.029  1.6030  0.6985 -1.1173
  813TIP3    H223999   0.415   2.391   4.098 -0.3019 -1.1638  0.6319
  814TIP3   OH224000   4.483   1.982   2.705  0.3568  0.2408 -0.3072
  814TIP3    H124001   4.475   1.974   2.800  2.8947 -0.1755 -0.0516
  814TIP3    H224002   4.511   2.073   2.691  0.1339  0.2584 -0.6506
  815TIP3   OH224003   1.350   6.557   3.268 -0.7186  0.0190 -0.1367
  815TIP3    H124004   1.293   6.632   3.252  1.5937  1.5625 -1.6407
  815TIP3    H224005   1.402   6.582   3.344  0.6546  0.3718 -1.1510
  816TIP3   OH224006   3.919   1.595   3.440 -0.3428  0.3957 -0.1339
  816TIP3    H124007   3.868   1.628   3.366 -1.9993 -0.3538  0.6244
  816TIP3    H224008   3.897   1.502   3.444  2.4989 -0.4231 -0.8626
  817TIP3   OH224009   2.069   4.762   0.637  0.1391 -0.2507  0.0772
  817TIP3    H124010   1.973   4.765   0.639  0.1614  0.0644  1.3630
  817TIP3    H224011   2.094   4.723   0.720  1.1784  1.5662  0.6867
  818TIP3   OH224012   0.985   0.922   0.743  0.1160  1.1223 -0.0729
  818TIP3    H124013   0.937   0.855   0.791 -3.0317  2.1971 -1.4467
  818TIP3    H224014   0.953   0.915   0.653  0.8296  3.4221 -0.5794
  819TIP3   OH224015   6.497   3.317   0.668 -0.1391 -0.0178 -0.6851
  819TIP3    H124016   6.413   3.300   0.626 -0.8595 -1.0043  1.0253
  819TIP3    H224017   6.474   3.358   0.752  0.9190 -1.9400  0.6392
  820TIP3   OH224018   1.844   3.090   2.617  0.1352  0.7408 -0.3058
  820TIP3    H124019   1.762   3.104   2.664  0.4419  0.7519  0.2383
  820TIP3    H224020   1.889   3.175   2.622 -0.0316  0.8777 -1.0240
  821TIP3   OH224021   4.591   3.242   0.701  0.0444  0.2477  0.1457
  821TIP3    H124022   4.623   3.327   0.731 -2.0542  0.8789  0.7016
  821TIP3    H224023   4.583   3.190   0.781  1.1011 -0.4311 -0.1672
  822TIP3   OH224024   2.232   5.702   8.589  0.4591 -0.3327  0.0801
  822TIP3    H124025   2.154   5.756   8.577  1.5728  0.9527 -1.8340
  822TIP3    H224026   2.228   5.637   8.518  2.3253  1.3411 -1.6962
  823TIP3   OH224027   5.763   5.409   0.511 -0.0647 -0.7661 -0.6968
  823TIP3    H124028   5.742   5.340   0.573 -0.1978  0.1147  0.2699
  823TIP3    H224029   5.840   5.377   0.464 -1.3737 -2.4903 -1.7978
  824TIP3   OH224030   5.222   6.525   2.584 -0.2344 -0.6025 -0.2484
  824TIP3    H124031   5.302   6.529   2.636 -0.2273 -0.7064 -0.2510
  824TIP3    H224032   5.187   6.437   2.600 -1.3105  0.0510  1.1781
  825TIP3   OH224033   2.342   5.966   2.336  0.1188 -0.0005  0.5747
  825TIP3    H124034   2.408   5.928   2.278  0.2466  1.7222 -0.4665
  825TIP3    H224035   2.344   5.910   2.414 -0.7009 -2.9771 -1.3675
  826TIP3   OH224036   1.998   1.495   1.659 -0.1535 -0.2175 -0.4718
  826TIP3    H124037   1.945   1.417   1.676 -0.2225 -0.2153 -0.6760
  826TIP3    H224038   2.088   1.462   1.652 -0.0176 -0.1243  0.6459
  827TIP3   OH224039   5.593   4.917   0.012  0.0008  0.1347  0.3209
  827TIP3    H124040   5.566   4.834  -0.027  0.0960  0.5804 -0.7037
  827TIP3    H224041   5.514   4.971   0.012  0.1378  0.3373  0.2154
  828TIP3   OH224042   5.851   1.847   0.796  0.0240 -0.1081  0.3194
  828TIP3    H124043   5.827   1.850   0.703 -2.2678  0.9153  0.8681
  828TIP3    H224044   5.922   1.910   0.805  0.8817 -0.8712 -0.8699
  829TIP3   OH224045   6.612   3.530   7.467 -0.2184 -0.4061  0.2793
  829TIP3    H124046   6.594   3.557   7.557  0.6238 -1.2289  0.7118
  829TIP3    H224047   6.526   3.516   7.428 -0.6508  1.4772  0.4601
  830TIP3   OH224048   1.391   3.199   0.440 -0.0311 -0.3666  0.1884
  830TIP3    H124049   1.365   3.157   0.522 -0.1202 -1.0343 -0.1737
  830TIP3    H224050   1.430   3.128   0.388 -0.1195  0.0160 -0.4078
  831TIP3   OH224051   0.994   3.364   3.161  0.4216  0.7240 -0.1632
  831TIP3    H124052   0.923   3.423   3.187  1.3335  1.9439 -0.3501
  831TIP3    H224053   0.988   3.290   3.221 -0.2084  1.4222  0.6514
  832TIP3   OH224054   2.162   0.307   2.180  0.0678 -0.0614 -0.0237
  832TIP3    H124055   2.228   0.283   2.114  0.3876  1.6709 -0.3664
  832TIP3    H224056   2.205   0.372   2.235 -1.2299  0.8353 -0.0346
  833TIP3   OH224057   1.725   2.533   0.807 -0.0074  0.2477 -0.0354
  833TIP3    H124058   1.697   2.540   0.898 -0.9546 -0.3047 -0.2732
  833TIP3    H224059   1.812   2.493   0.812 -0.1868 -0.0717  0.6140
  834TIP3   OH224060   5.268   2.405   3.271 -0.2418 -0.3832  0.9854
  834TIP3    H124061   5.201   2.399   3.203 -1.2625  2.2757  1.6290
  834TIP3    H224062   5.222   2.440   3.347  1.6479  0.4254  1.8239
  835TIP3   OH224063   4.898   3.373   0.901 -0.1109  0.3244  0.0604
  835TIP3    H124064   4.870   3.285   0.927 -0.8182 -0.4634 -2.9626
  835TIP3    H224065   4.980   3.359   0.853  1.2760  1.7164  1.8444
  836TIP3   OH224066   4.724   1.916   3.293 -0.1461  0.3765 -0.6671
  836TIP3    H124067   4.717   2.009   3.315  0.9353  0.4630 -0.6765
  836TIP3    H224068   4.638   1.880   3.315 -0.1823  1.1364  0.4960
  837TIP3   OH224069   3.512   2.725   2.630 -0.9585  0.3731  0.0919
  837TIP3    H124070   3.518   2.690   2.719 -0.1689 -0.4789 -0.2769
  837TIP3    H224071   3.432   2.685   2.594 -1.5975  1.1654  0.5859
  838TIP3   OH224072   3.106   2.700   0.858 -0.0851  0.3382 -0.4557
  838TIP3    H124073   3.182   2.650   0.886 -0.1922 -0.0024 -0.7552
  838TIP3    H224074   3.032   2.658   0.902 -0.0753  0.8303  0.0400
  839TIP3   OH224075   0.733   5.262   8.669  0.0081  0.2594 -0.0477
  839TIP3    H124076   0.717   5.218   8.752 -0.4567 -0.8811 -0.7077
  839TIP3    H224077   0.670   5.222   8.608 -0.3131  1.7274 -0.7330
  840TIP3   OH224078   2.192   4.786   2.897  0.5126  0.2744 -0.1079
  840TIP3    H124079   2.231   4.724   2.959  0.8258  1.4408  0.8961
  840TIP3    H224080   2.127   4.734   2.850  0.1124 -0.6062  1.3399
  841TIP3   OH224081   3.318   2.903   1.668  0.0099  0.3929 -0.3114
  841TIP3    H124082   3.380   2.969   1.640 -0.0350  0.0508 -1.2359
  841TIP3    H224083   3.316   2.911   1.764 -0.8115  2.4341 -0.4528
  842TIP3   OH224084   5.486   5.696   2.631  1.2356  0.1673  0.1049
  842TIP3    H124085   5.425   5.759   2.593  0.9588 -1.0131 -1.5508
  842TIP3    H224086   5.512   5.734   2.714 -0.5295  1.4602  0.1204
  843TIP3   OH224087   1.606   2.534   2.329 -0.1378 -0.3266  0.4267
  843TIP3    H124088   1.672   2.600   2.307  0.3562 -1.0198 -0.2277
  843TIP3    H224089   1.600   2.537   2.424 -0.9887  1.4837  0.3617
  844TIP3   OH224090   6.827   3.244   1.862 -0.3124  0.2441 -0.4314
  844TIP3    H124091   6.771   3.256   1.785  1.3066  1.0642 -1.5406
  844TIP3    H224092   6.913   3.224   1.825  0.6565  1.3373  1.1441
  845TIP3   OH224093   5.436   2.583   2.397  0.2244 -0.5617 -0.8550
  845TIP3    H124094   5.372   2.623   2.455  2.7376 -0.3876  2.1030
  845TIP3    H224095   5.487   2.656   2.363 -0.3886 -0.7687 -2.2784
  846TIP3   OH224096   3.614   6.763   1.362  0.6214  0.1921  0.8387
  846TIP3    H124097   3.609   6.730   1.272  3.3258 -2.4333  1.4789
  846TIP3    H224098   3.527   6.799   1.379 -0.6279 -1.0593 -2.1532
  847TIP3   OH224099   2.197   2.049   8.720 -0.6732 -0.4511 -0.2881
  847TIP3    H124100   2.200   2.125   8.663 -0.5887  2.5918  3.4066
  847TIP3    H224101   2.265   1.991   8.686  0.8101  2.0953 -2.0186
  848TIP3   OH224102   6.200   6.438   2.034 -0.0260 -0.3036 -0.5148
  848TIP3    H124103   6.292   6.414   2.042 -0.4911 -1.6548  1.7621
  848TIP3    H224104   6.180   6.426   1.942  1.9623 -0.4168 -0.9707
  849TIP3   OH224105   5.940   4.061   0.945  0.0358  0.4929  0.0381
  849TIP3    H124106   5.867   4.052   0.884 -0.2207 -1.1619  0.5379
  849TIP3    H224107   5.916   4.134   1.001 -0.9258  0.3911 -0.2247
  850TIP3   OH224108   1.209   1.546   3.048  0.0842  0.6738  0.4889
  850TIP3    H124109   1.267   1.588   3.111  1.6152  1.1882 -1.1738
  850TIP3    H224110   1.261   1.476   3.009 -1.1925 -0.3507  0.5199
  851TIP3   OH224111   0.148   6.278   8.311 -0.1202 -0.1560  0.4355
  851TIP3    H124112   0.216   6.230   8.263 -0.6853  0.1992 -0.7648
  851TIP3    H224113   0.072   6.220   8.308 -0.7100  0.6601 -0.7461
  852TIP3   OH224114   5.920   6.481   2.825 -0.0565 -0.4233 -0.4975
  852TIP3    H124115   5.950   6.414   2.887  1.6559  0.8545  0.1421
  852TIP3    H224116   5.847   6.440   2.779 -0.7244 -1.8103  1.6326
  853TIP3   OH224117   6.697   6.039   3.156 -0.4204  0.0247 -0.4352
  853TIP3    H124118   6.630   6.022   3.221  1.2891 -1.6670  0.9974
  853TIP3    H224119   6.768   6.081   3.205  0.6160 -0.6090 -1.3396
  854TIP3   OH224120   0.100   6.193   1.837  0.3789 -0.5469 -0.1285
  854TIP3    H124121   0.053   6.169   1.758 -0.0075 -0.2237  0.0022
  854TIP3    H224122   0.193   6.184   1.813  0.2757 -0.0140 -0.7551
  855TIP3   OH224123   0.880   1.545   2.457 -1.0797 -0.0759 -0.0259
  855TIP3    H124124   0.841   1.535   2.544 -0.0923 -0.0117  0.4385
  855TIP3    H224125   0.838   1.622   2.420 -0.0000  1.2086  1.2728
  856TIP3   OH224126   5.199   2.741   1.672  0.6461  0.0952  0.0669
  856TIP3    H124127   5.164   2.660   1.634 -1.3672  0.8423  0.2035
  856TIP3    H224128   5.134   2.766   1.738  0.3824  2.6126 -1.0264
  857TIP3   OH224129   1.583   1.558   0.760 -0.4524 -0.5432 -1.5322
  857TIP3    H124130   1.500   1.514   0.773  0.2033 -1.3090  0.4426
  857TIP3    H224131   1.643   1.490   0.731  0.2019 -0.6921  0.0711
  858TIP3   OH224132   3.365   1.199   0.794  0.1587 -0.2308  0.6100
  858TIP3    H124133   3.276   1.181   0.765  0.2085  1.0416 -0.3913
  858TIP3    H224134   3.357   1.218   0.887 -0.5044 -0.8057  0.6795
  859TIP3   OH224135   5.063   0.865   1.475  0.0325  0.2181  0.5927
  859TIP3    H124136   4.979   0.911   1.474 -0.0363  0.1013  0.9262
  859TIP3    H224137   5.069   0.824   1.389 -0.9759 -1.0696  1.0916
  860TIP3   OH224138   3.686   3.952   0.385  0.3636  0.0839  0.4884
  860TIP3    H124139   3.765   3.933   0.436  1.0247 -0.8760 -0.8279
  860TIP3    H224140   3.716   4.009   0.314  0.3296 -1.8227 -1.1519
  861TIP3   OH224141   4.377   1.660   8.674 -0.2386 -0.1716  0.1066
  861TIP3    H124142   4.444   1.616   8.621  0.7821 -1.1057  2.0676
  861TIP3    H224143   4.347   1.732   8.619  0.1470 -1.5730 -2.0609
  862TIP3   OH224144   6.067   0.333   2.586 -0.1139 -0.0466 -0.3802
  862TIP3    H124145   6.063   0.423   2.552  0.5656 -0.1664 -0.8041
  862TIP3    H224146   6.111   0.341   2.670 -2.2500  0.3166  0.7635
  863TIP3   OH224147   6.441   3.574   1.738 -0.2583 -0.2263  0.1107
  863TIP3    H124148   6.470   3.487   1.766  2.1579  0.3936 -0.2442
  863TIP3    H224149   6.402   3.612   1.816 -0.0322 -1.0972  0.6641
  864TIP3   OH224150   6.274   1.828   3.273 -0.5264  0.0627 -0.2503
  864TIP3    H124151   6.318   1.761   3.325  0.4332  0.5882 -0.3692
  864TIP3    H224152   6.186   1.834   3.311 -0.3170 -0.6040  0.3532
  865TIP3   OH224153   1.000   3.571   2.826  0.0717 -0.1703  0.1931
  865TIP3    H124154   0.991   3.493   2.773 -0.1883 -1.3098  1.8315
  865TIP3    H224155   1.074   3.552   2.885 -0.7477  0.2995  1.4251
  866TIP3   OH224156   2.501   3.882   1.412  0.7851 -0.2232  0.1356
  866TIP3    H124157   2.564   3.932   1.361  1.1783 -0.1720  0.6634
  866TIP3    H224158   2.432   3.860   1.350 -0.5945  2.9566  0.3262
  867TIP3   OH224159   4.682   4.010   0.918 -0.5877 -0.4355  0.2381
  867TIP3    H124160   4.700   3.920   0.943 -0.9593 -0.3890  0.7016
  867TIP3    H224161   4.618   4.003   0.847 -0.6592 -0.5340  0.3130
  868TIP3   OH224162   1.910   6.149   2.021 -0.3732 -0.0797 -0.9952
  868TIP3    H124163   1.827   6.102   2.032  0.1625 -0.6824  0.7627
  868TIP3    H224164   1.884   6.241   2.017 -1.0363 -0.0375  1.9460
  869TIP3   OH224165   0.873   1.104   0.181 -0.2265 -0.3539 -0.1444
  869TIP3    H124166   0.900   1.014   0.198 -0.5142 -0.2567  0.8944
  869TIP3    H224167   0.839   1.135   0.265 -1.5506  0.2302 -0.8656
  870TIP3   OH224168   0.705   1.650   3.551 -0.3110 -0.3656 -0.1518
  870TIP3    H124169   0.766   1.712   3.591 -0.7290  0.5456 -0.8979
  870TIP3    H224170   0.633   1.644   3.614 -0.3221 -0.0028 -0.1272
  871TIP3   OH224171   6.366   1.155   0.682 -0.8321  0.6033  0.3809
  871TIP3    H124172   6.373   1.249   0.697 -0.8333  1.4436 -3.6355
  871TIP3    H224173   6.444   1.133   0.630 -2.3854 -0.8688 -1.4938
  872TIP3   OH224174   2.101   0.991   2.620 -0.2610 -0.5643  0.2320
  872TIP3    H124175   2.021   1.043   2.614 -0.0006 -0.1656  0.1793
  872TIP3    H224176   2.073   0.901   2.602 -1.2154 -0.9221  3.1066
  873TIP3   OH224177   0.279   5.400   8.590 -0.5648 -0.1049 -0.1532
  873TIP3    H124178   0.331   5.329   8.552  1.3221  0.7981  0.6467
  873TIP3    H224179   0.340   5.472   8.601 -1.9801  0.9937  0.8988
  874TIP3   OH224180   1.575   5.707   0.266  0.0596  0.9983 -0.1115
  874TIP3    H124181   1.487   5.744   0.277 -0.8959 -0.6979 -1.4155
  874TIP3    H224182   1.574   5.627   0.318  0.2298  0.1325 -1.3892
  875TIP3   OH224183   4.485   0.127   0.332  0.2327  0.0822 -0.4805
  875TIP3    H124184   4.551   0.195   0.323  0.6162 -0.1895  0.2292
  875TIP3    H224185   4.504   0.066   0.261  0.5551  0.1551 -0.4574
  876TIP3   OH224186   5.653   3.214   0.434  0.0262 -0.2968  0.0030
  876TIP3    H124187   5.604   3.253   0.506  1.5507  0.7559  0.5127
  876TIP3    H224188   5.687   3.132   0.470  0.4359  0.0255  0.3675
  877TIP3   OH224189   5.427   0.277   1.108 -0.5001  0.0701 -0.2718
  877TIP3    H124190   5.356   0.214   1.094 -0.3552 -0.4568  1.1583
  877TIP3    H224191   5.444   0.273   1.202  1.6690 -0.0732 -0.6169
  878TIP3   OH224192   4.050   3.334   8.431  0.0687 -0.3831 -0.5414
  878TIP3    H124193   4.064   3.272   8.359 -2.3572 -0.1620 -1.2687
  878TIP3    H224194   3.956   3.331   8.449  0.2290  1.3957  0.9634
  879TIP3   OH224195   6.262   0.590   1.499 -0.6602  0.2376  0.2213
  879TIP3    H124196   6.352   0.559   1.499 -0.3563  1.0347 -1.1013
  879TIP3    H224197   6.260   0.660   1.564  0.0279  1.0770 -0.6190
  880TIP3   OH224198   4.600   0.540   0.510 -0.2695  0.1175 -0.0539
  880TIP3    H124199   4.573   0.449   0.512  0.8733 -0.2378  0.8939
  880TIP3    H224200   4.601   0.563   0.417 -0.6266 -0.8146 -0.2995
  881TIP3   OH224201   2.672   4.128   0.334 -0.0503  0.3229  0.1000
  881TIP3    H124202   2.622   4.208   0.346  0.0318  0.3851  0.0379
  881TIP3    H224203   2.677   4.118   0.239  0.4096  0.5457  0.0960
  882TIP3   OH224204   0.381   4.343   0.319  0.4002  0.0933  0.2394
  882TIP3    H124205   0.345   4.324   0.232 -0.4171  1.4571  0.2553
  882TIP3    H224206   0.354   4.268   0.373  0.7544 -0.6762 -0.6267
  883TIP3   OH224207   4.999   6.688   0.572  0.4856  0.3515  0.2550
  883TIP3    H124208   4.991   6.715   0.481  0.8442  1.5421  0.5634
  883TIP3    H224209   4.921   6.636   0.589  1.4424 -1.7772 -1.3547
  884TIP3   OH224210   0.577   0.011   7.778 -0.6011  0.1206 -0.6161
  884TIP3    H124211   0.499  -0.025   7.821 -0.6557  1.0466  0.1084
  884TIP3    H224212   0.542   0.062   7.705 -0.7268  0.9559  0.0133
  885TIP3   OH224213   3.986   1.019   0.322 -0.3298 -0.0301 -0.1966
  885TIP3    H124214   4.026   1.079   0.259 -0.7758  1.8362  1.1951
  885TIP3    H224215   4.056   1.000   0.384 -0.7250  0.7092  0.4916
  886TIP3   OH224216   0.336   3.440   2.734  0.2668 -0.6485 -0.6489
  886TIP3    H124217   0.290   3.490   2.666 -1.2787 -1.8058 -0.5258
  886TIP3    H224218   0.418   3.414   2.694  0.9152  1.5354 -0.8777
  887TIP3   OH224219   2.474   2.071   1.955  0.5178  0.4521 -0.0789
  887TIP3    H124220   2.517   2.095   2.037  1.5280 -0.5297 -0.2885
  887TIP3    H224221   2.474   1.975   1.956 -2.2798  0.3728  0.1922
  888TIP3   OH224222   0.767   3.265   1.052 -0.0184  0.3171 -0.1604
  888TIP3    H124223   0.722   3.182   1.070  0.5473  0.4474  2.0582
  888TIP3    H224224   0.846   3.239   1.004 -0.3739 -0.3091 -0.4232
  889TIP3   OH224225   1.738   0.147   0.230 -0.1915 -0.1856 -0.4028
  889TIP3    H124226   1.821   0.191   0.246  0.3562 -1.4827  0.5135
  889TIP3    H224227   1.677   0.185   0.293 -0.5029  1.2282 -1.5037
  890TIP3   OH224228   0.981   1.823   8.326 -0.3665  0.0965 -0.1874
  890TIP3    H124229   1.048   1.759   8.349  0.0075  0.3823 -0.4771
  890TIP3    H224230   0.993   1.894   8.389 -0.7609 -0.0914  0.1127
  891TIP3   OH224231   2.764   5.254   0.707 -0.1927  0.1648 -0.1818
  891TIP3    H124232   2.714   5.194   0.764 -0.9162 -0.7592 -1.7307
  891TIP3    H224233   2.701   5.282   0.641  0.3074  2.1921  0.1468
  892TIP3   OH224234   4.879   1.676   8.617 -0.2564 -0.5207  0.3306
  892TIP3    H124235   4.934   1.638   8.549 -1.5850 -1.4155 -0.2952
  892TIP3    H224236   4.882   1.612   8.689  1.3267  0.5288  1.2524
  893TIP3   OH224237   4.741   2.828   0.304  0.1625 -0.5917 -0.3123
  893TIP3    H124238   4.669   2.886   0.327  1.2551  0.2701  1.0954
  893TIP3    H224239   4.723   2.748   0.354  0.6622 -0.0202  0.8186
  894TIP3   OH224240   6.306   5.951   1.786  0.1822 -0.0501  0.1164
  894TIP3    H124241   6.218   5.965   1.821  0.0193  0.0070 -0.3078
  894TIP3    H224242   6.321   5.857   1.795  0.2139 -0.0102  0.5038
  895TIP3   OH224243   5.152   1.513   0.046 -0.0339 -0.4100 -0.2665
  895TIP3    H124244   5.139   1.427   0.005  1.1166 -1.5953  1.7118
  895TIP3    H224245   5.067   1.532   0.087 -0.1833 -0.7929 -0.3875
  896TIP3   OH224246   4.161   2.400   2.480  0.5763 -0.1758  0.5496
  896TIP3    H124247   4.089   2.443   2.434  1.3914  0.6728  0.0107
  896TIP3    H224248   4.154   2.431   2.570  0.4616  0.1804  0.4209
  897TIP3   OH224249   1.329   4.428   3.517 -0.2000  0.5129 -0.2334
  897TIP3    H124250   1.291   4.370   3.451  0.4103 -1.4483  1.0555
  897TIP3    H224251   1.422   4.403   3.520  0.3418  2.3241 -0.3593
  898TIP3   OH224252   5.270   6.273   1.308 -0.0984 -0.2867 -0.2213
  898TIP3    H124253   5.363   6.272   1.282 -0.0087 -1.1025  0.1137
  898TIP3    H224254   5.268   6.330   1.385  0.3836 -1.4556  0.6792
  899TIP3   OH224255   0.258   4.899   7.893 -0.1957 -0.0781  0.1963
  899TIP3    H124256   0.343   4.872   7.930 -0.0362  0.0337 -0.0862
  899TIP3    H224257   0.274   4.987   7.860  0.7598 -1.5247 -3.6437
  900TIP3   OH224258   6.507   1.394   3.636  0.2351  0.1128 -0.1081
  900TIP3    H124259   6.485   1.301   3.645  0.2656  0.0756 -0.4026
  900TIP3    H224260   6.429   1.440   3.668 -0.6988 -0.0166 -2.0684
  901TIP3   OH224261   4.670   0.923   0.293 -0.7393 -0.0705 -0.2589
  901TIP3    H124262   4.610   0.857   0.327  0.0064 -1.1656 -1.0139
  901TIP3    H224263   4.676   0.905   0.199  0.9662 -0.1774 -0.1652
  902TIP3   OH224264   1.635   2.164   0.077 -0.8673 -0.8713 -0.1475
  902TIP3    H124265   1.670   2.252   0.063 -3.1551  0.1309  0.0120
  902TIP3    H224266   1.601   2.165   0.166 -0.7322 -2.0081 -0.0614
  903TIP3   OH224267   6.126   3.648   3.684  0.4755 -0.0868 -0.6843
  903TIP3    H124268   6.088   3.588   3.620 -2.8914  0.6299  0.4320
  903TIP3    H224269   6.106   3.608   3.769 -2.2135  2.5227  0.1293
  904TIP3   OH224270   0.464   3.151   0.617 -0.6709  1.2595 -0.2256
  904TIP3    H124271   0.460   3.083   0.684  3.2302  1.1067  0.0727
  904TIP3    H224272   0.462   3.103   0.534 -0.5305  0.9973 -0.0787
  905TIP3   OH224273   4.028   2.906   8.495  0.0728  0.3165 -0.3293
  905TIP3    H124274   4.011   2.812   8.491 -0.1104  0.3795 -1.6054
  905TIP3    H224275   4.008   2.937   8.406 -1.2576  1.7963  0.4483
  906TIP3   OH224276   0.984   0.043   8.348  0.4004  0.3731  0.0138
  906TIP3    H124277   1.071   0.048   8.310 -0.4096 -0.5140 -2.1642
  906TIP3    H224278   0.962  -0.050   8.347 -1.0175  0.6813 -0.6291
  907TIP3   OH224279   5.140   5.147   3.248  0.4243 -0.0810  0.2213
  907TIP3    H124280   5.127   5.221   3.189  2.2948  0.4963  0.4541
  907TIP3    H224281   5.235   5.140   3.257  0.2776 -2.0971  0.7508
  908TIP3   OH224282   1.321   5.988   8.570 -0.4598 -0.0200 -1.0030
  908TIP3    H124283   1.281   5.932   8.504  1.4296 -0.0631 -2.1895
  908TIP3    H224284   1.411   6.001   8.540  0.3073  0.4696  1.2558
  909TIP3   OH224285   4.140   0.349   3.283 -0.5996  0.3385  0.1882
  909TIP3    H124286   4.222   0.342   3.234 -1.1070  0.3251 -0.6738
  909TIP3    H224287   4.132   0.266   3.330 -1.2664 -0.6309 -1.5629
  910TIP3   OH224288   1.010   5.436   2.634 -0.2303 -0.1546  0.2232
  910TIP3    H124289   1.016   5.529   2.611 -1.0226  0.3117  1.7680
  910TIP3    H224290   1.101   5.409   2.648 -0.0573  0.7538  1.0153
  911TIP3   OH224291   2.898   4.951   8.026  0.4568  0.3599  0.5750
  911TIP3    H124292   2.931   4.961   8.116  0.9957  1.2120  0.2963
  911TIP3    H224293   2.961   4.893   7.984  0.7913  0.7867  0.4696
  912TIP3   OH224294   5.034   0.645   2.567 -0.0281 -0.3340  0.0369
  912TIP3    H124295   5.037   0.565   2.516 -1.8041  0.2330 -1.0124
  912TIP3    H224296   5.127   0.669   2.579  0.4790 -1.7768 -0.8087
  913TIP3   OH224297   0.111   4.319   3.895 -0.2154 -0.1819 -0.2357
  913TIP3    H124298   0.090   4.230   3.922  2.3380 -0.4233  1.1845
  913TIP3    H224299   0.114   4.314   3.799 -0.3234 -1.5658 -0.1914
  914TIP3   OH224300   4.692   2.735   1.639  0.5799  0.0771 -0.5904
  914TIP3    H124301   4.730   2.763   1.556  0.9767  0.6502 -0.2249
  914TIP3    H224302   4.655   2.816   1.676  0.5499 -0.1436 -0.1347
  915TIP3   OH224303   0.606   0.879   0.379 -0.3328  0.0827  0.2264
  915TIP3    H124304   0.552   0.954   0.355  0.0948  0.3524  0.1084
  915TIP3    H224305   0.612   0.828   0.297 -0.6834 -0.1260  0.3247
  916TIP3   OH224306   1.259   3.465   1.005 -0.1248  0.7653 -0.0015
  916TIP3    H124307   1.276   3.373   1.026 -0.9650  0.6038 -0.0031
  916TIP3    H224308   1.196   3.493   1.071 -2.9750  0.2049 -2.3093
  917TIP3   OH224309   1.434   5.176   1.161 -0.5436 -0.2799  0.5284
  917TIP3    H124310   1.472   5.090   1.140  2.1173  0.8503  0.3332
  917TIP3    H224311   1.426   5.175   1.256 -0.0970 -0.6021  0.5709
  918TIP3   OH224312   5.837   0.353   0.350  0.7306 -0.1151  0.2158
  918TIP3    H124313   5.760   0.312   0.312 -0.5237  1.3944  0.9757
  918TIP3    H224314   5.863   0.419   0.286 -0.0697  0.9554  0.9486
  919TIP3   OH224315   6.660   2.181   8.307  0.4404  0.1686 -0.4159
  919TIP3    H124316   6.657   2.178   8.212  0.5648 -0.6807 -0.4054
  919TIP3    H224317   6.684   2.092   8.333 -0.2590  0.2084  0.4353
  920TIP3   OH224318   2.787   4.694   2.048 -0.7247  0.1641  0.0564
  920TIP3    H124319   2.879   4.671   2.038 -0.8219 -0.1940 -0.0412
  920TIP3    H224320   2.774   4.770   1.991 -1.0927 -1.3382 -1.9760
  921TIP3   OH224321   6.564   0.074   2.785 -0.0227 -0.3041  0.1567
  921TIP3    H124322   6.592   0.091   2.875 -0.0539  2.8143 -0.3289
  921TIP3    H224323   6.598   0.147   2.735 -1.7185 -0.9132 -2.0426
  922TIP3   OH224324   2.320   1.747   0.140  0.0532  0.1219  0.3884
  922TIP3    H124325   2.273   1.670   0.109 -1.1933  0.2285  1.8674
  922TIP3    H224326   2.397   1.754   0.084 -0.4238 -1.5207 -0.5012
  923TIP3   OH224327   6.081   4.194   2.817 -0.6349 -0.4927 -0.0697
  923TIP3    H124328   5.991   4.162   2.822 -1.1220  0.1950 -2.8141
  923TIP3    H224329   6.072   4.288   2.801  0.5764 -0.3832 -0.1901
  924TIP3   OH224330   4.900   0.985   3.112 -0.0655 -0.0325  0.0862
  924TIP3    H124331   4.889   1.030   3.196 -1.1698 -1.3494  0.6864
  924TIP3    H224332   4.820   0.933   3.103  0.4184 -0.5431 -1.3968
  925TIP3   OH224333   0.693   6.390   3.184  0.6228  0.0109  0.6891
  925TIP3    H124334   0.639   6.409   3.260  0.6336  0.0903  0.6762
  925TIP3    H224335   0.758   6.327   3.216 -0.0743 -0.8298  0.4777
  926TIP3   OH224336   4.155   6.471   3.133 -1.1045  0.1035  0.2556
  926TIP3    H124337   4.132   6.436   3.219 -0.9463  0.0703  0.2858
  926TIP3    H224338   4.169   6.565   3.148 -2.2583  0.3237  0.0299
  927TIP3   OH224339   2.191   2.004   1.781  0.0737  0.3243  0.1892
  927TIP3    H124340   2.153   1.927   1.824 -0.2883 -0.5187 -1.5201
  927TIP3    H224341   2.278   1.976   1.754  0.4658  0.9854  0.7497
  928TIP3   OH224342   3.705   6.746   2.608 -0.1339  0.3068 -0.1569
  928TIP3    H124343   3.763   6.683   2.652  0.3304  0.7229 -0.1632
  928TIP3    H224344   3.680   6.703   2.527 -0.0549  0.0072 -0.0230
  929TIP3   OH224345   4.796   0.485   2.116  0.4771 -0.1751  0.6027
  929TIP3    H124346   4.708   0.475   2.154  0.6423 -0.5972  0.8784
  929TIP3    H224347   4.820   0.575   2.137 -0.3128  0.2789 -0.3808
  930TIP3   OH224348   3.660   5.745   2.885  0.6633  0.5323 -0.0485
  930TIP3    H124349   3.682   5.665   2.932  1.0265  0.6766  0.0319
  930TIP3    H224350   3.590   5.785   2.936  2.0211  1.4184  1.1825
  931TIP3   OH224351   4.471   4.017   8.204 -0.2052  0.2077  0.2570
  931TIP3    H124352   4.500   3.934   8.241  0.1316  0.3353  0.2878
  931TIP3    H224353   4.406   3.993   8.138 -0.5749 -0.0416  0.6996
  932TIP3   OH224354   4.953   1.855   1.969  0.3172  0.3465 -0.0503
  932TIP3    H124355   5.026   1.913   1.947 -1.1083  2.3891  0.2745
  932TIP3    H224356   4.980   1.812   2.050  1.7805 -0.1404 -0.7669
  933TIP3   OH224357   2.190   3.181   0.730  0.0923  0.5581  0.1365
  933TIP3    H124358   2.274   3.224   0.748  0.7887 -0.6862  0.0203
  933TIP3    H224359   2.172   3.131   0.809 -0.1990  0.2832 -0.1018
  934TIP3   OH224360   2.408   0.468   2.853  0.7077  0.3510 -0.1950
  934TIP3    H124361   2.438   0.377   2.846  1.8333  0.6496  0.5176
  934TIP3    H224362   2.433   0.495   2.941 -0.7620  0.9720  0.0632
  935TIP3   OH224363   0.432   0.699   0.079 -0.6420  0.3287  0.0787
  935TIP3    H124364   0.407   0.662  -0.005  1.2953  0.6116 -0.6697
  935TIP3    H224365   0.360   0.676   0.138 -0.7610 -2.3608 -0.9759
  936TIP3   OH224366   3.468   1.456   0.144 -0.1824 -0.3821 -0.0489
  936TIP3    H124367   3.503   1.432   0.058  1.0148 -2.2701  0.9022
  936TIP3    H224368   3.381   1.415   0.147 -0.7747  0.7574 -0.8008
  937TIP3   OH224369   0.251   3.902   1.082 -0.0444 -0.0377  0.0900
  937TIP3    H124370   0.274   3.831   1.023 -1.3034 -0.4711  0.1080
  937TIP3    H224371   0.166   3.878   1.118  0.2357  0.7021  1.3215
  938TIP3   OH224372   1.797   5.550   0.158  0.0517  0.0774 -0.3669
  938TIP3    H124373   1.709   5.532   0.126  0.0705 -1.1011  0.1857
  938TIP3    H224374   1.791   5.636   0.200 -0.6895  0.2574 -0.8337
  939TIP3   OH224375   5.177   3.776   3.651  0.6824 -0.5177  0.6549
  939TIP3    H124376   5.102   3.777   3.591  2.0230 -1.2159 -1.1293
  939TIP3    H224377   5.176   3.688   3.688  1.2597 -0.9117 -0.2449
  940TIP3   OH224378   1.151   1.735   0.066  0.2119  0.0138  0.3955
  940TIP3    H124379   1.244   1.723   0.087  0.2337  0.0811  0.3359
  940TIP3    H224380   1.136   1.830   0.074  0.1912  0.0246  0.2220
  941TIP3   OH224381   4.036   3.521   7.463  0.5723 -0.1825 -0.1324
  941TIP3    H124382   4.074   3.566   7.388  1.1648 -0.7364 -0.1841
  941TIP3    H224383   4.014   3.590   7.525  1.5728  0.1820 -0.1588
  942TIP3   OH224384   4.148   4.295   3.432  0.6971  0.2126  0.0472
  942TIP3    H124385   4.229   4.271   3.388 -0.5396 -0.5834 -1.9105
  942TIP3    H224386   4.085   4.311   3.361 -0.6597  1.6443  1.4721
  943TIP3   OH224387   3.039   2.138   8.598 -0.2866 -0.5462 -0.5584
  943TIP3    H124388   3.013   2.093   8.517 -1.7198 -0.5075 -0.1364
  943TIP3    H224389   2.957   2.158   8.642  0.3767  1.2130 -0.0373
  944TIP3   OH224390   0.190   1.331   1.596  0.0517  0.1624 -0.4367
  944TIP3    H124391   0.130   1.339   1.522 -1.2550 -1.7787  0.3255
  944TIP3    H224392   0.261   1.391   1.576 -1.8902  2.2306 -1.6251
  945TIP3   OH224393   3.934   1.429   2.156  0.4182 -0.5068  0.1240
  945TIP3    H124394   3.955   1.513   2.197 -1.7625 -0.6916  1.8037
  945TIP3    H224395   3.997   1.367   2.191  0.3159 -0.0960  1.0392
  946TIP3   OH224396   6.099   0.692   1.291 -0.5850 -0.3056 -0.3440
  946TIP3    H124397   6.169   0.672   1.353 -0.3676 -0.0325 -0.5002
  946TIP3    H224398   6.019   0.672   1.339 -0.6104  2.6812  1.1512
  947TIP3   OH224399   1.319   1.457   2.187 -0.1502  0.4830  0.5360
  947TIP3    H124400   1.350   1.497   2.106 -0.6666  0.2403  0.2119
  947TIP3    H224401   1.349   1.516   2.256  1.7759 -0.2022  0.3223
  948TIP3   OH224402   0.663   5.779   2.011  0.0126 -1.0538  0.5879
  948TIP3    H124403   0.736   5.796   2.071 -0.2658 -0.0927  0.6781
  948TIP3    H224404   0.666   5.850   1.948 -1.2392 -0.6070  0.9921
  949TIP3   OH224405   4.740   6.476   1.558  0.0199  0.2199  0.6658
  949TIP3    H124406   4.750   6.426   1.639  0.7436  0.6213  0.8340
  949TIP3    H224407   4.828   6.481   1.521 -0.5593 -1.6279 -1.1904
  950TIP3   OH224408   2.429   0.470   1.797  0.2967  0.2859 -0.1976
  950TIP3    H124409   2.402   0.544   1.742 -0.1411  0.0812 -0.2661
  950TIP3    H224410   2.372   0.475   1.873 -0.1220 -0.3045 -0.4641
  951TIP3   OH224411   0.567   1.706   1.321 -0.0850 -0.3100  0.5138
  951TIP3    H124412   0.651   1.725   1.362  0.4771 -0.6983 -0.4384
  951TIP3    H224413   0.502   1.748   1.378  0.8000  0.5782  0.8774
  952TIP3   OH224414   1.583   4.961   1.906  0.0965  0.7404  0.0426
  952TIP3    H124415   1.570   5.049   1.871 -0.4779  0.5066 -0.3516
  952TIP3    H224416   1.496   4.921   1.903  0.6474 -0.4361 -1.4112
  953TIP3   OH224417   6.641   1.114   0.258 -0.0265 -0.3232  0.0343
  953TIP3    H124418   6.580   1.047   0.228  0.0775  0.1020 -1.1900
  953TIP3    H224419   6.717   1.065   0.289  0.2589 -0.7782 -1.3144
  954TIP3   OH224420   1.194   3.143   2.794 -0.5270 -0.6451 -0.3921
  954TIP3    H124421   1.239   3.060   2.811  0.8460  0.0979 -0.2353
  954TIP3    H224422   1.185   3.147   2.699 -2.3270 -1.8113 -0.3253
  955TIP3   OH224423   6.845   3.628   2.252 -0.5291  0.4600 -0.1770
  955TIP3    H124424   6.755   3.662   2.255 -0.9433 -0.6241  2.2416
  955TIP3    H224425   6.839   3.541   2.290  1.7307  0.8900  1.3735
  956TIP3   OH224426   1.413   5.509   1.713 -0.0005  0.6863 -0.2981
  956TIP3    H124427   1.381   5.479   1.628  1.1571 -0.3687 -0.4071
  956TIP3    H224428   1.335   5.522   1.765 -0.7191  1.0222 -1.4202
  957TIP3   OH224429   5.705   0.359   1.533  0.4617 -0.2462  0.0102
  957TIP3    H124430   5.701   0.455   1.535  1.1718 -0.2288  1.0359
  957TIP3    H224431   5.752   0.335   1.612  0.6492 -1.4353 -0.4436
  958TIP3   OH224432   3.537   3.310   8.275  0.0379 -0.1692 -0.4705
  958TIP3    H124433   3.563   3.358   8.353 -1.1078  1.7712 -1.2126
  958TIP3    H224434   3.483   3.238   8.307  0.8528 -0.3243  0.5960
  959TIP3   OH224435   2.148   3.350   1.915  0.0143 -0.0516 -0.1038
  959TIP3    H124436   2.081   3.414   1.892 -1.7224 -2.1056 -1.1828
  959TIP3    H224437   2.128   3.326   2.006 -0.3559 -0.2292 -0.2298
  960TIP3   OH224438   0.607   2.752   2.873 -0.1015  0.3440 -0.4597
  960TIP3    H124439   0.647   2.838   2.879 -0.2171  0.3105  2.7038
  960TIP3    H224440   0.676   2.695   2.839  1.0307  1.1217  0.4761
  961TIP3   OH224441   2.381   2.262   3.012  0.3186  0.1631 -0.1698
  961TIP3    H124442   2.385   2.237   2.919  0.8809  0.2154 -0.1645
  961TIP3    H224443   2.316   2.203   3.049  2.0988 -1.8384 -0.0126
  962TIP3   OH224444   0.593   3.807   0.998  0.0881 -0.6471 -0.0033
  962TIP3    H124445   0.557   3.746   0.934  1.9224 -0.4912 -1.2687
  962TIP3    H224446   0.546   3.889   0.983 -0.7915 -1.1220  0.1364
  963TIP3   OH224447   6.232   2.425   3.309 -0.4170 -0.2296 -0.3255
  963TIP3    H124448   6.144   2.452   3.281  0.2881  1.3490 -1.1568
  963TIP3    H224449   6.291   2.480   3.258  1.1043 -1.8401 -0.4054
  964TIP3   OH224450   5.267   2.955   2.339  0.1861  0.7915  0.2602
  964TIP3    H124451   5.347   2.904   2.324 -0.1158  1.0855 -2.9951
  964TIP3    H224452   5.288   3.008   2.416  1.7828 -1.6277  1.6342
  965TIP3   OH224453   0.226   1.349   2.494 -0.7133 -0.1342 -0.3474
  965TIP3    H124454   0.141   1.366   2.453 -0.7650  0.0531 -0.1606
  965TIP3    H224455   0.216   1.377   2.584 -0.9762 -1.6805  0.1302
  966TIP3   OH224456   3.340   2.517   2.944 -0.1026 -0.1132  0.3454
  966TIP3    H124457   3.303   2.471   2.868 -0.5707 -0.7884  0.9770
  966TIP3    H224458   3.280   2.498   3.016 -1.6617  3.3789  0.1656
  967TIP3   OH224459   6.184   5.294   3.315 -0.3152 -0.0057 -0.0318
  967TIP3    H124460   6.278   5.279   3.322 -0.1211  0.8735 -0.5532
  967TIP3    H224461   6.152   5.222   3.261  0.1756  0.0750 -0.4369
  968TIP3   OH224462   3.423   4.281   1.649  0.1643  0.1182  0.3358
  968TIP3    H124463   3.515   4.273   1.624 -0.3239 -2.4646 -0.9021
  968TIP3    H224464   3.390   4.353   1.594  1.3791  0.9964  0.7169
  969TIP3   OH224465   1.554   1.664   2.781  0.1724 -0.2334  0.1616
  969TIP3    H124466   1.493   1.736   2.766 -1.2159 -0.9728  1.8052
  969TIP3    H224467   1.552   1.614   2.700  1.7747  1.9232 -1.3139
  970TIP3   OH224468   1.125   5.701   3.337 -0.3028  0.8136  0.3838
  970TIP3    H124469   1.134   5.634   3.268 -0.6975  0.3149  0.8078
  970TIP3    H224470   1.034   5.731   3.329 -0.0148  1.5756 -0.0506
  971TIP3   OH224471   6.057   0.828   0.380 -0.4685 -0.4274 -0.2537
  971TIP3    H124472   6.043   0.747   0.429  1.3416 -0.3362  0.4984
  971TIP3    H224473   6.091   0.890   0.445  0.2261  0.2721 -1.2391
  972TIP3   OH224474   4.142   0.378   2.208 -0.1954  0.2716 -0.0088
  972TIP3    H124475   4.086   0.351   2.281 -0.4551  1.4785  0.2571
  972TIP3    H224476   4.147   0.300   2.152 -2.6331  0.2735 -0.3460
  973TIP3   OH224477   6.689   2.401   2.924  0.4036 -0.0918 -0.2369
  973TIP3    H124478   6.708   2.486   2.963 -1.8790  0.2203  0.3916
  973TIP3    H224479   6.634   2.357   2.990 -1.1410 -0.7187 -1.8574
  974TIP3   OH224480   0.244   0.095   1.672 -0.3254  0.3298  0.0377
  974TIP3    H124481   0.323   0.042   1.661 -0.0509  0.6510  0.4288
  974TIP3    H224482   0.247   0.124   1.763 -0.2744  1.3261 -0.2661
  975TIP3   OH224483   5.833   2.988   2.240  0.1425 -0.3043  0.2037
  975TIP3    H124484   5.833   3.000   2.335  0.2417 -1.1173  0.3137
  975TIP3    H224485   5.886   3.060   2.207  0.2858 -0.1340  0.7821
  976TIP3   OH224486   4.518   4.334   0.739 -0.4610 -0.9328  0.1521
  976TIP3    H124487   4.601   4.344   0.692  0.1822 -1.7670  1.0919
  976TIP3    H224488   4.532   4.377   0.823 -1.3583 -0.1313 -0.0790
  977TIP3   OH224489   2.727   5.596   2.474 -0.2042  0.2234 -0.1296
  977TIP3    H124490   2.779   5.518   2.457  2.5978  1.8037  0.5247
  977TIP3    H224491   2.712   5.596   2.568  1.0878  1.1688  0.0963
  978TIP3   OH224492   3.926   1.341   1.744 -0.0312  0.1341 -1.1775
  978TIP3    H124493   3.904   1.253   1.775  1.1541 -0.5506 -2.2235
  978TIP3    H224494   3.881   1.399   1.806  0.3419 -1.1837  0.4204
  979TIP3   OH224495   4.216   5.298   7.475  0.1510  0.3602  0.3150
  979TIP3    H124496   4.124   5.295   7.448  0.1928  0.6358  0.1358
  979TIP3    H224497   4.233   5.391   7.491  0.5435  0.3729 -0.1554
  980TIP3   OH224498   5.022   3.743   2.251 -0.2874  0.1354  0.6631
  980TIP3    H124499   4.933   3.762   2.280 -0.0622 -1.5391  2.7355
  980TIP3    H224500   5.027   3.647   2.250  0.9852  0.1770 -1.1296
  981TIP3   OH224501   1.758   2.771   0.617  1.0481 -0.3377  0.2672
  981TIP3    H124502   1.739   2.689   0.662  2.7113  0.4285  2.5146
  981TIP3    H224503   1.851   2.766   0.595  0.9406  0.5567 -0.4343
  982TIP3   OH224504   4.070   4.510   2.013  0.4164 -0.6588 -0.4373
  982TIP3    H124505   4.043   4.418   2.012  0.1942 -0.5902 -1.5214
  982TIP3    H224506   3.988   4.559   2.016  0.5403 -0.4772  0.5236
  983TIP3   OH224507   6.491   3.335   2.653 -0.0466 -0.3048  0.5119
  983TIP3    H124508   6.572   3.349   2.703  1.1256 -0.2713 -1.3125
  983TIP3    H224509   6.519   3.290   2.573 -1.2209  2.7961 -1.8729
  984TIP3   OH224510   5.968   6.236   2.909  0.3200  0.3702  0.3063
  984TIP3    H124511   5.941   6.162   2.963  2.0986 -1.0553 -0.6472
  984TIP3    H224512   5.956   6.206   2.819  2.5893  0.5540 -0.1212
  985TIP3   OH224513   2.406   5.032   1.964  0.4268  0.0697 -0.2874
  985TIP3    H124514   2.481   5.034   2.023 -1.1408  1.5959  1.8161
  985TIP3    H224515   2.397   4.939   1.940  1.8572 -0.4139  0.8973
  986TIP3   OH224516   0.839   0.907   7.699 -0.3966  0.3553  0.5477
  986TIP3    H124517   0.914   0.865   7.740 -0.3023  0.0183  0.0468
  986TIP3    H224518   0.830   0.863   7.614 -1.9053 -0.4448  1.0805
  987TIP3   OH224519   1.494   1.148   8.167 -0.3357  0.0396  0.0457
  987TIP3    H124520   1.503   1.056   8.140 -1.8038  0.1304 -0.9359
  987TIP3    H224521   1.430   1.146   8.238  1.6412  0.0753  1.9334
  988TIP3   OH224522   0.822   5.603   8.324  0.6628  0.0092 -0.0984
  988TIP3    H124523   0.822   5.581   8.417 -1.2420  1.4969  0.3247
  988TIP3    H224524   0.793   5.695   8.321  1.8901  0.4077 -2.0975
  989TIP3   OH224525   4.864   0.166   3.362 -0.4026  0.0183 -0.1977
  989TIP3    H124526   4.825   0.250   3.386 -1.0318  0.1311 -1.5105
  989TIP3    H224527   4.948   0.164   3.408 -0.6610  1.0719  0.3526
  990TIP3   OH224528   4.321   5.511   1.710  0.4523 -0.0538  0.5743
  990TIP3    H124529   4.400   5.549   1.748  1.0271 -0.9291  0.3010
  990TIP3    H224530   4.339   5.417   1.707 -0.0973 -0.1409 -0.6571
  991TIP3   OH224531   6.815   3.539   1.441 -0.2520  0.3666 -0.7044
  991TIP3    H124532   6.819   3.532   1.536  1.4313  2.0774 -0.5977
  991TIP3    H224533   6.777   3.625   1.424  1.2908  0.9370 -1.5126
  992TIP3   OH224534   0.178   0.542   1.826  0.3043 -0.1235 -0.5921
  992TIP3    H124535   0.154   0.594   1.903  0.5297 -1.3961  0.3736
  992TIP3    H224536   0.147   0.454   1.846  1.9235 -0.8676 -1.1654
  993TIP3   OH224537   0.416   4.837   3.422 -0.1491 -0.4530  0.1789
  993TIP3    H124538   0.452   4.903   3.481  0.6599 -1.3890  0.7813
  993TIP3    H224539   0.370   4.776   3.479 -0.7312 -0.5098 -0.3419
  994TIP3   OH224540   0.568   1.423   2.546  0.1821  0.4148 -0.0771
  994TIP3    H124541   0.599   1.512   2.526  0.6520 -0.1932 -2.3950
  994TIP3    H224542   0.474   1.427   2.533  0.2558  0.4870 -0.6160
  995TIP3   OH224543   0.118   1.976   2.364 -0.2197 -0.0438 -0.1146
  995TIP3    H124544   0.079   1.925   2.294 -0.2292  0.8130 -0.7386
  995TIP3    H224545   0.140   2.060   2.324  0.4787  0.1816  0.7097
  996TIP3   OH224546   4.150   1.534   8.718 -0.2267  0.4067  0.7125
  996TIP3    H124547   4.243   1.547   8.704 -0.2285 -1.0739 -1.0909
  996TIP3    H224548   4.110   1.618   8.696  0.5310  0.4685 -0.4877
  997TIP3   OH224549   1.250   6.360   3.105 -0.0651 -0.6847 -0.2105
  997TIP3    H124550   1.167   6.405   3.087 -0.1662 -1.1917 -1.1181
  997TIP3    H224551   1.296   6.418   3.165 -1.2563 -0.5998  0.6580
  998TIP3   OH224552   3.786   2.240   1.394  0.3610 -0.6031 -0.3385
  998TIP3    H124553   3.862   2.294   1.416  0.5484 -0.5171 -1.1885
  998TIP3    H224554   3.711   2.289   1.430  0.5895 -0.0957 -0.5443
  999TIP3   OH224555   4.842   2.968   1.579 -0.3185  0.4552 -0.4124
  999TIP3    H124556   4.747   2.975   1.574 -0.5053 -0.0193  1.6246
  999TIP3    H224557   4.872   3.059   1.587 -0.6292  0.5866 -0.7293
 1000TIP3   OH224558   6.309   1.658   3.480  0.0969  0.3638  0.0464
 1000TIP3    H124559   6.215   1.656   3.462  0.3582 -0.6599 -1.4828
 1000TIP3    H224560   6.317   1.701   3.565 -1.7246  0.7247  0.0749
 1001TIP3   OH224561   2.813   5.747   3.255  0.4400 -0.3530  1.0871
 1001TIP3    H124562   2.806   5.715   3.165  0.8577  0.7499  0.6444
 1001TIP3    H224563   2.751   5.694   3.305 -0.3425 -0.4820 -0.0036
 1002TIP3   OH224564   2.622   0.320   8.311  0.3676  0.0095 -0.0548
 1002TIP3    H124565   2.682   0.382   8.352  2.7801 -1.1136 -1.6604
 1002TIP3    H224566   2.649   0.235   8.346 -0.4550 -0.5050 -0.6333
 1003TIP3   OH224567   0.212   1.096   2.223  0.2516  0.2377 -0.4930
 1003TIP3    H124568   0.233   1.114   2.132 -0.0738  0.2983 -0.5575
 1003TIP3    H224569   0.117   1.099   2.227  0.2689  0.4499 -0.1082
 1004TIP3   OH224570   2.091   5.296   1.730 -0.6679 -0.4473  0.2065
 1004TIP3    H124571   2.179   5.311   1.766  0.1642 -1.0424 -1.4741
 1004TIP3    H224572   2.039   5.271   1.806  0.1423  1.6278  1.5540
 1005TIP3   OH224573   0.531   3.970   1.949  0.0286 -0.1813 -0.0194
 1005TIP3    H124574   0.519   3.916   2.027  0.3192  0.8958  0.7992
 1005TIP3    H224575   0.623   3.963   1.927  0.5364  1.5193  1.3105
 1006TIP3   OH224576   2.449   4.331   8.682 -0.1992 -0.1748  0.3215
 1006TIP3    H124577   2.372   4.360   8.633 -0.7504 -0.7702  0.8197
 1006TIP3    H224578   2.416   4.314   8.770 -0.1076 -3.0979 -0.1098
 1007TIP3   OH224579   5.963   0.240   3.376 -0.3021  0.1228  0.2640
 1007TIP3    H124580   5.995   0.273   3.460  1.5391 -2.0586  0.5252
 1007TIP3    H224581   6.035   0.255   3.315 -0.2386 -1.4321 -0.0763
 1008TIP3   OH224582   5.369   2.714   3.276  0.3200 -0.9146 -0.2200
 1008TIP3    H124583   5.306   2.743   3.342 -0.9998 -0.9199 -1.4176
 1008TIP3    H224584   5.437   2.781   3.277 -1.1216  0.6418 -0.7967
 1009TIP3   OH224585   3.865   5.536   2.404 -0.0116 -0.2504 -0.0080
 1009TIP3    H124586   3.818   5.615   2.379  1.5490  0.3825 -1.0773
 1009TIP3    H224587   3.944   5.536   2.350  0.4289 -2.1246  0.5402
 1010TIP3   OH224588   0.943   0.912   8.730  1.1289 -0.1387 -0.1681
 1010TIP3    H124589   0.980   0.857   8.660 -1.0253 -0.7667 -0.8965
 1010TIP3    H224590   0.861   0.945   8.693 -0.2618 -0.7709  2.1671
 1011TIP3   OH224591   2.484   1.574   1.236 -0.0248 -0.7330  0.3962
 1011TIP3    H124592   2.497   1.480   1.231  0.7261 -0.6026 -0.1488
 1011TIP3    H224593   2.525   1.609   1.157 -2.4126 -0.1570 -0.6915
 1012TIP3   OH224594   4.937   2.671   1.345 -0.3692  0.3553 -0.3026
 1012TIP3    H124595   4.992   2.604   1.384 -2.2572 -0.4843  1.0585
 1012TIP3    H224596   4.978   2.689   1.260  0.8379 -1.6748 -0.2165
 1013TIP3   OH224597   1.989   1.000   3.346 -0.3070  0.0761  0.5733
 1013TIP3    H124598   1.921   1.000   3.412 -0.0052  0.8731  0.8865
 1013TIP3    H224599   2.048   0.929   3.372 -0.9117 -0.5088  0.3895
 1014TIP3   OH224600   3.466   1.910   8.717  0.6429 -0.1554  0.1561
 1014TIP3    H124601   3.466   1.957   8.801  1.1750 -3.1325  1.9451
 1014TIP3    H224602   3.492   1.821   8.739 -0.8098 -1.4903 -2.9718
 1015TIP3   OH224603   5.700   3.286   0.158  0.1090 -0.3665 -0.3387
 1015TIP3    H124604   5.778   3.341   0.165 -0.4448  0.3242  0.6421
 1015TIP3    H224605   5.667   3.280   0.248  0.5807 -2.9434 -0.2537
 1016TIP3   OH224606   6.186   5.306   0.570 -0.0325 -0.0368 -0.3687
 1016TIP3    H124607   6.241   5.302   0.491 -0.0766  2.3645 -0.5771
 1016TIP3    H224608   6.249   5.310   0.642  0.0238 -0.0557 -0.4161
 1017TIP3   OH224609   4.713   3.690   0.079 -0.2961  0.8180  0.0078
 1017TIP3    H124610   4.738   3.706  -0.012  1.5320  0.1379  0.3358
 1017TIP3    H224611   4.789   3.721   0.129 -0.0626 -1.3578  1.1087
 1018TIP3   OH224612   4.202   4.993   0.920  0.1203  0.0202 -0.0302
 1018TIP3    H124613   4.247   4.915   0.889  1.3160  0.2872  0.9164
 1018TIP3    H224614   4.154   4.964   0.998 -1.3478 -0.2504 -1.0025
 1019TIP3   OH224615   1.052   1.527   3.697  0.7381 -0.2437  0.3534
 1019TIP3    H124616   1.083   1.588   3.631 -0.4042 -1.2006 -1.1135
 1019TIP3    H224617   1.062   1.574   3.780  4.2199  0.2135 -0.1906
 1020TIP3   OH224618   3.842   4.956   1.619  0.5416 -0.6067  0.6162
 1020TIP3    H124619   3.775   5.012   1.658  0.9433 -0.6926  1.4375
 1020TIP3    H224620   3.803   4.869   1.617 -0.2632 -0.2541 -1.0875
 1021TIP3   OH224621   2.054   0.784   2.126 -0.6938 -0.7124 -0.4599
 1021TIP3    H124622   1.986   0.748   2.070  0.8150 -0.9029 -2.2812
 1021TIP3    H224623   2.013   0.857   2.170 -1.9856 -0.5922 -1.7898
 1022TIP3   OH224624   2.851   2.862   1.886 -0.0519  0.0984  0.0346
 1022TIP3    H124625   2.762   2.832   1.866 -0.2372  1.2556 -1.0231
 1022TIP3    H224626   2.896   2.862   1.802  0.9819 -0.5158  0.5724
 1023TIP3   OH224627   2.582   5.186   8.642 -0.2139  0.2210  0.1381
 1023TIP3    H124628   2.508   5.246   8.646 -1.2027 -0.9689  3.2182
 1023TIP3    H224629   2.571   5.139   8.559 -2.5674  0.5401  0.2023
 1024TIP3   OH224630   4.368   0.923   0.273  0.0373 -0.0893  0.3131
 1024TIP3    H124631   4.337   0.916   0.183 -1.4764 -0.0179  0.7983
 1024TIP3    H224632   4.426   0.999   0.274  2.0119 -1.4634 -1.0816
 1025TIP3   OH224633   2.468   1.779   1.928  0.1203  0.0050 -0.7595
 1025TIP3    H124634   2.375   1.789   1.906  0.2709  0.5294 -1.1687
 1025TIP3    H224635   2.468   1.749   2.019 -0.4167  1.3452 -0.2936
 1026TIP3   OH224636   2.593   1.509   2.061 -0.4166  0.1244 -0.7863
 1026TIP3    H124637   2.684   1.480   2.053 -0.6131 -1.0164  0.7041
 1026TIP3    H224638   2.597   1.590   2.111 -0.2440 -0.1861 -0.2910
 1027TIP3   OH224639   5.833   3.691   2.544 -0.1044  0.2296 -0.0519
 1027TIP3    H124640   5.832   3.749   2.621 -2.0463  0.4078 -0.1676
 1027TIP3    H224641   5.774   3.620   2.567 -1.0734  0.5171 -1.5315
 1028TIP3   OH224642   6.359   1.639   2.438 -0.1997  0.4417 -0.1815
 1028TIP3    H124643   6.280   1.685   2.410 -0.8577  0.2148  1.2219
 1028TIP3    H224644   6.329   1.581   2.507  1.2861  0.7490  0.7536
 1029TIP3   OH224645   4.177   5.575   1.989 -0.1358 -0.1303 -0.3939
 1029TIP3    H124646   4.244   5.618   1.936 -0.5881  1.0845 -0.0050
 1029TIP3    H224647   4.119   5.645   2.017  0.6241 -0.5271  2.5348
 1030TIP3   OH224648   0.676   2.726   7.866 -0.1319  1.0128 -0.0154
 1030TIP3    H124649   0.708   2.813   7.889 -1.1006  1.5305 -0.6029
 1030TIP3    H224650   0.597   2.714   7.918 -0.0991  0.5499 -0.0654
 1031TIP3   OH224651   6.843   6.425   3.044  0.2808  0.2532  0.1735
 1031TIP3    H124652   6.820   6.417   2.952  0.2741  2.5292 -0.0683
 1031TIP3    H224653   6.939   6.426   3.046  0.2795  0.6654  0.1303
 1032TIP3   OH224654   3.414   6.246   0.009 -0.0447 -0.1054 -0.0039
 1032TIP3    H124655   3.427   6.235  -0.085 -1.4009  0.0699 -0.2356
 1032TIP3    H224656   3.486   6.197   0.049 -0.1158 -1.1828 -1.1227
 1033TIP3   OH224657   3.445   4.143   2.573 -0.4110 -0.8699  0.0537
 1033TIP3    H124658   3.488   4.151   2.488 -1.9631 -1.8487 -0.8584
 1033TIP3    H224659   3.490   4.070   2.616 -1.5914 -2.4412 -1.2324
 1034TIP3   OH224660   0.142   2.888   2.625  0.6212 -0.3726 -0.6284
 1034TIP3    H124661   0.129   2.798   2.655 -0.5008  0.1340  0.5216
 1034TIP3    H224662   0.208   2.924   2.685  1.6879 -0.6566 -1.6087
 1035TIP3   OH224663   3.676   0.574   3.604 -0.0745 -0.0530 -0.6424
 1035TIP3    H124664   3.730   0.496   3.592  0.0033 -0.1212  0.0869
 1035TIP3    H224665   3.613   0.571   3.532  0.5670 -0.2413 -1.2079
 1036TIP3   OH224666   6.048   5.908   4.144 -0.6770  0.2090 -0.3653
 1036TIP3    H124667   6.014   5.839   4.202  0.2000  0.2316  0.1892
 1036TIP3    H224668   5.994   5.985   4.164  0.7036  0.7275  1.7246
 1037TIP3   OH224669   1.661   4.870   2.437  0.3893 -0.4368  0.1751
 1037TIP3    H124670   1.612   4.922   2.501  0.4078 -0.3644  0.1312
 1037TIP3    H224671   1.646   4.915   2.354 -1.8986 -2.0736 -0.3766
 1038TIP3   OH224672   6.479   6.001   8.434 -0.4309  0.2630 -0.3788
 1038TIP3    H124673   6.531   6.004   8.514 -0.4013  0.6147 -0.4114
 1038TIP3    H224674   6.539   5.967   8.368 -0.1164  1.0548 -0.5094
 1039TIP3   OH224675   1.172   2.334   1.526 -0.1633 -0.3783  0.2386
 1039TIP3    H124676   1.195   2.427   1.524  2.0572 -0.8463  0.5182
 1039TIP3    H224677   1.117   2.323   1.603  0.3375  0.5738  0.7448
 1040TIP3   OH224678   6.030   5.478   0.422  0.1877 -0.4649 -0.0652
 1040TIP3    H124679   6.089   5.485   0.497  0.6042 -1.4236 -0.2834
 1040TIP3    H224680   6.074   5.417   0.362 -0.8703 -0.9610 -0.3700
 1041TIP3   OH224681   1.626   1.208   2.650  0.0018  1.2101 -0.4717
 1041TIP3    H124682   1.600   1.178   2.737  0.0484  0.7595 -0.6104
 1041TIP3    H224683   1.561   1.170   2.591  0.8851  0.1589 -0.8098
 1042TIP3   OH224684   2.707   2.114   1.678  0.4273 -0.2290  0.1570
 1042TIP3    H124685   2.701   2.135   1.585  0.7996 -1.4754 -0.1630
 1042TIP3    H224686   2.747   2.027   1.681  0.3448 -0.2441  1.4798
 1043TIP3   OH224687   4.185   2.869   3.766  0.3868 -0.4882 -0.2974
 1043TIP3    H124688   4.190   2.906   3.854 -2.1410 -1.5516  0.3678
 1043TIP3    H224689   4.276   2.847   3.745  0.8896 -1.8129  2.7649
 1044TIP3   OH224690   1.431   3.126   0.905 -0.6362  0.1289 -0.1918
 1044TIP3    H124691   1.474   3.045   0.933 -1.5776 -0.7046 -1.0917
 1044TIP3    H224692   1.338   3.110   0.921 -1.0221  0.2934 -2.0846
 1045TIP3   OH224693   2.319   6.312   3.877  0.2763 -0.3631  0.1803
 1045TIP3    H124694   2.248   6.349   3.930  0.7359  0.7765  0.0187
 1045TIP3    H224695   2.321   6.219   3.903 -0.2308 -0.0769  1.3487
 1046TIP3   OH224696   6.522   6.466   1.274 -0.1027 -0.4803 -0.6727
 1046TIP3    H124697   6.492   6.381   1.308 -0.5664  0.2492  0.8176
 1046TIP3    H224698   6.456   6.491   1.210  0.1386 -1.3200 -1.2705
 1047TIP3   OH224699   6.493   2.330   8.597  0.1552  0.0502  0.4479
 1047TIP3    H124700   6.575   2.348   8.550 -0.6535  1.1538 -0.5986
 1047TIP3    H224701   6.435   2.293   8.530 -1.1363  1.9872  0.4193
 1048TIP3   OH224702   1.156   4.096   2.751 -0.2083  0.3357  0.1769
 1048TIP3    H124703   1.216   4.026   2.775 -1.9939 -2.0535 -1.8582
 1048TIP3    H224704   1.094   4.100   2.824  0.7040  0.8142  0.9434
 1049TIP3   OH224705   6.054   4.772   2.844  0.5103 -0.5918 -0.5113
 1049TIP3    H124706   6.136   4.773   2.794 -0.7009 -0.2813 -2.6250
 1049TIP3    H224707   5.985   4.783   2.777 -1.1300  2.0359  1.4215
 1050TIP3   OH224708   0.486   4.066   0.890  0.2445  0.3304 -0.1745
 1050TIP3    H124709   0.401   4.096   0.923  0.1761 -0.1879  0.1280
 1050TIP3    H224710   0.496   4.111   0.806 -0.3301  0.3855 -0.2167
 1051TIP3   OH224711   3.368   5.073   2.010 -0.5446 -0.2928  0.3249
 1051TIP3    H124712   3.317   4.993   2.003 -1.1325 -0.2440  2.8980
 1051TIP3    H224713   3.457   5.047   1.987 -1.1822 -1.0087 -1.5283
 1052TIP3   OH224714   6.447   5.373   1.394  0.1420  0.1493 -0.0934
 1052TIP3    H124715   6.539   5.348   1.405  0.0623 -0.8183 -1.4085
 1052TIP3    H224716   6.449   5.469   1.391  1.2599  0.1267 -1.1714
 1053TIP3   OH224717   2.741   5.859   0.095  0.0231 -0.1459 -0.1994
 1053TIP3    H124718   2.820   5.813   0.124  1.6307  1.0632 -2.3388
 1053TIP3    H224719   2.765   5.895   0.009 -2.7713  0.5581 -0.7794
 1054TIP3   OH224720   0.593   3.145   2.190 -0.2384  0.4577  0.0511
 1054TIP3    H124721   0.564   3.058   2.219 -0.7958  0.3044 -0.8912
 1054TIP3    H224722   0.631   3.129   2.103 -1.0780  1.2510 -0.4856
 1055TIP3   OH224723   6.598   4.490   8.497  0.1416 -0.5357  0.2717
 1055TIP3    H124724   6.535   4.550   8.458 -0.6435 -1.9225 -0.6948
 1055TIP3    H224725   6.584   4.498   8.591 -1.2483 -0.5523  0.0888
 1056TIP3   OH224726   1.303   4.692   1.198  0.4242 -0.1033 -0.1079
 1056TIP3    H124727   1.326   4.600   1.212  1.3052  0.2713  1.0320
 1056TIP3    H224728   1.207   4.692   1.191  0.3336 -0.9802  0.9176
 1057TIP3   OH224729   4.595   6.605   1.389 -0.5304  0.2672 -0.2964
 1057TIP3    H124730   4.648   6.552   1.448 -1.6536 -2.2602 -1.4185
 1057TIP3    H224731   4.657   6.668   1.352  1.9242 -2.6740 -1.7320
 1058TIP3   OH224732   2.129   1.219   3.266 -0.2126  0.5813 -0.8645
 1058TIP3    H124733   2.184   1.240   3.341  2.1814  0.7775 -2.5444
 1058TIP3    H224734   2.075   1.146   3.296 -0.5434  1.6940  1.5046
 1059TIP3   OH224735   6.180   6.676   2.170 -0.0352 -0.1138  0.6723
 1059TIP3    H124736   6.213   6.739   2.105 -0.1643 -0.3879  0.3360
 1059TIP3    H224737   6.137   6.608   2.118 -0.2020 -0.3041  1.0508
 1060TIP3   OH224738   6.841   0.197   1.028  0.2444 -0.1053 -0.4800
 1060TIP3    H124739   6.890   0.202   0.945 -0.1987 -0.0109 -0.7387
 1060TIP3    H224740   6.909   0.201   1.096  0.6026 -0.0572 -0.8354
 1061TIP3   OH224741   3.939   6.734   0.338 -0.0680  0.0746 -0.1099
 1061TIP3    H124742   3.884   6.673   0.290  0.4114 -0.1695 -0.3639
 1061TIP3    H224743   3.893   6.747   0.421 -0.5806  0.0011 -0.3778
 1062TIP3   OH224744   2.417   0.587   0.247 -0.1419  0.6684 -0.2434
 1062TIP3    H124745   2.438   0.616   0.158  0.7888  1.6179  0.2684
 1062TIP3    H224746   2.346   0.524   0.235  1.5360 -1.0690 -1.9000
 1063TIP3   OH224747   6.130   0.803   1.933 -0.2376  0.5279 -0.5243
 1063TIP3    H124748   6.066   0.873   1.946 -1.1996 -0.5088  0.5429
 1063TIP3    H224749   6.194   0.816   2.002 -1.5758 -0.8574  1.0558
 1064TIP3   OH224750   1.755   5.615   1.956  0.3041 -0.0808 -0.5146
 1064TIP3    H124751   1.769   5.701   1.995 -1.7596 -0.4354  1.1861
 1064TIP3    H224752   1.755   5.554   2.031 -0.7455 -1.2006 -1.3731
 1065TIP3   OH224753   2.266   4.629   1.785  0.4256  0.0451 -0.1970
 1065TIP3    H124754   2.272   4.711   1.736  2.3503 -0.3075 -0.6335
 1065TIP3    H224755   2.282   4.561   1.720 -2.9208 -0.8886 -0.2273
 1066TIP3   OH224756   4.603   5.557   8.073  1.0327 -0.0453 -0.6154
 1066TIP3    H124757   4.677   5.611   8.043  1.0610 -1.1501 -2.6927
 1066TIP3    H224758   4.544   5.555   7.998 -0.9603  0.4716  0.8688
 1067TIP3   OH224759   2.272   4.630   8.372  0.4421 -0.0491  0.1180
 1067TIP3    H124760   2.226   4.651   8.454 -1.3325 -1.6782 -0.4011
 1067TIP3    H224761   2.207   4.644   8.303  2.3571  2.8685 -1.2938
 1068TIP3   OH224762   5.527   4.645   2.891  0.8103 -0.1155 -0.0107
 1068TIP3    H124763   5.604   4.609   2.936  1.1773  0.0619 -0.4918
 1068TIP3    H224764   5.563   4.705   2.826  0.2230  0.6840  0.3889
 1069TIP3   OH224765   0.465   2.037   7.869  0.2629  0.5878  0.5942
 1069TIP3    H124766   0.516   1.958   7.887  0.3348  0.7700  1.2215
 1069TIP3    H224767   0.417   2.017   7.789  0.2122 -0.1241  0.7996
 1070TIP3   OH224768   4.827   5.988   2.560  0.2958  0.0014  0.1041
 1070TIP3    H124769   4.776   5.910   2.536 -0.9331 -0.0119  2.4950
 1070TIP3    H224770   4.764   6.044   2.606  1.6618  1.5276  0.1913
 1071TIP3   OH224771   1.127   2.432   8.294 -0.3764  0.5677  0.4056
 1071TIP3    H124772   1.208   2.461   8.336 -2.3518  2.6377  3.1873
 1071TIP3    H224773   1.085   2.512   8.264 -2.1851 -0.2286  0.6307
 1072TIP3   OH224774   2.159   1.211   0.610  0.3504 -0.3101 -0.0433
 1072TIP3    H124775   2.088   1.249   0.662  1.1314  0.8232  0.2306
 1072TIP3    H224776   2.122   1.130   0.574 -1.1103  0.3237 -0.0172
 1073TIP3   OH224777   4.581   1.266   0.262 -0.0014  0.0907  0.8663
 1073TIP3    H124778   4.506   1.321   0.238 -0.4374 -1.0042 -0.4425
 1073TIP3    H224779   4.553   1.218   0.339 -0.7012 -0.3664  0.3382
 1074TIP3   OH224780   2.730   3.734   3.831 -0.1668  0.1596  0.5471
 1074TIP3    H124781   2.644   3.717   3.868 -1.0659 -0.1717 -1.5192
 1074TIP3    H224782   2.714   3.804   3.767  0.8951 -0.4957 -0.4824
 1075TIP3   OH224783   4.753   3.270   3.259 -0.1433 -0.2198 -0.1578
 1075TIP3    H124784   4.809   3.308   3.327 -0.1344  0.9874 -0.8081
 1075TIP3    H224785   4.679   3.233   3.306 -0.5772  1.3718  0.4600
 1076TIP3   OH224786   4.944   3.835   1.999  0.1981  0.0279 -0.2099
 1076TIP3    H124787   5.015   3.887   1.962 -1.1113  1.9502 -0.1814
 1076TIP3    H224788   4.977   3.806   2.084  0.9403  0.9129 -0.1756
 1077TIP3   OH224789   1.548   4.971   1.033 -0.1296 -0.5905  0.2436
 1077TIP3    H124790   1.596   4.946   1.112  0.8904  0.0987 -0.1417
 1077TIP3    H224791   1.554   4.894   0.976  1.9413  0.0249 -0.4493
 1078TIP3   OH224792   6.158   5.731   2.359 -0.0150 -0.4531 -0.1195
 1078TIP3    H124793   6.132   5.645   2.391 -0.4169 -0.1561  0.3726
 1078TIP3    H224794   6.116   5.739   2.274 -0.9961 -0.2645  0.3597
 1079TIP3   OH224795   2.053   5.133   1.518  0.5256  0.7680 -0.5440
 1079TIP3    H124796   2.011   5.214   1.490  0.4211  1.5158  1.5628
 1079TIP3    H224797   2.056   5.140   1.614 -0.4161 -2.1719 -0.2041
 1080TIP3   OH224798   6.371   5.083   0.457 -0.2407 -1.1534  0.3527
 1080TIP3    H124799   6.320   5.057   0.534  0.3465 -2.9450  0.1825
 1080TIP3    H224800   6.332   5.033   0.385 -0.2209 -0.1571 -0.3705
 1081TIP3   OH224801   3.944   6.251   0.317 -0.1273 -0.1484 -0.2532
 1081TIP3    H124802   3.951   6.322   0.380  0.3338 -1.6334  1.4680
 1081TIP3    H224803   3.861   6.266   0.272 -1.2801  0.1353  1.8425
 1082TIP3   OH224804   1.001   2.897   8.054 -0.6440 -0.0412 -0.0384
 1082TIP3    H124805   0.993   2.960   7.982  0.2860 -0.2177 -0.3225
 1082TIP3    H224806   0.912   2.881   8.083 -1.0291  0.1011 -1.1060
 1083TIP3   OH224807   2.341   0.285   3.404 -0.2079 -0.8929 -0.5440
 1083TIP3    H124808   2.266   0.225   3.402  0.4386 -1.8505  1.3213
 1083TIP3    H224809   2.309   0.365   3.364 -2.2977 -1.2303  0.3312
 1084TIP3   OH224810   6.660   4.983   0.516 -0.0007 -0.3616 -0.0641
 1084TIP3    H124811   6.693   5.008   0.430  0.8362 -1.4743 -0.0917
 1084TIP3    H224812   6.565   4.985   0.508  0.0368  1.6835 -0.3618
 1085TIP3   OH224813   6.380   4.676   0.549 -0.0002  0.3460 -0.4450
 1085TIP3    H124814   6.328   4.624   0.489  1.2890  0.1142 -1.4059
 1085TIP3    H224815   6.324   4.751   0.571 -0.9215 -0.1593 -1.0210
 1086TIP3   OH224816   3.535   0.689   2.129  0.0589 -0.0968 -0.4269
 1086TIP3    H124817   3.526   0.618   2.066  0.3262 -0.8385  0.3451
 1086TIP3    H224818   3.622   0.725   2.113 -0.5756  0.9537 -1.7010
 1087TIP3   OH224819   1.485   5.225   0.167  0.4495  0.6821 -0.1527
 1087TIP3    H124820   1.569   5.180   0.170  0.4318  0.6908  2.6179
 1087TIP3    H224821   1.508   5.318   0.174  0.2559  0.7736 -0.7069
 1088TIP3   OH224822   3.166   3.588   7.587  0.1901 -0.2179 -0.3028
 1088TIP3    H124823   3.099   3.524   7.564  0.3335 -0.5347  0.1543
 1088TIP3    H224824   3.140   3.620   7.673  0.9129 -0.7307  0.1110
 1089TIP3   OH224825   3.223   1.619   1.840 -0.2376 -1.0136 -0.1303
 1089TIP3    H124826   3.253   1.687   1.781 -1.4450 -0.6347 -0.3513
 1089TIP3    H224827   3.128   1.634   1.848 -0.4965 -2.5096  0.0166
 1090TIP3   OH224828   6.420   6.363   1.662  0.1570 -0.0963  0.3241
 1090TIP3    H124829   6.330   6.388   1.682 -0.0816 -1.3703  0.9453
 1090TIP3    H224830   6.447   6.309   1.736  1.1830 -0.3305 -0.2034
 1091TIP3   OH224831   5.397   2.547   0.292 -0.1654 -0.3774 -0.3367
 1091TIP3    H124832   5.407   2.575   0.383 -0.5763  0.0171 -0.4079
 1091TIP3    H224833   5.454   2.605   0.242  0.1083 -0.6353 -0.3241
 1092TIP3   OH224834   1.322   6.546   0.896  0.4813  0.2134 -0.6565
 1092TIP3    H124835   1.230   6.568   0.911  0.1024 -1.4267 -0.2595
 1092TIP3    H224836   1.357   6.620   0.847 -0.5370  1.7713  0.8632
 1093TIP3   OH224837   4.817   3.161   2.273  0.7619  0.2795 -0.1344
 1093TIP3    H124838   4.867   3.236   2.305 -0.5665  1.3786 -0.5548
 1093TIP3    H224839   4.726   3.185   2.289  0.1642 -0.1547 -2.5348
 1094TIP3   OH224840   0.428   3.856   2.717 -0.0424 -0.2387  0.5585
 1094TIP3    H124841   0.467   3.944   2.715  0.7223 -0.5738 -0.1246
 1094TIP3    H224842   0.334   3.871   2.717  0.0766  0.5857 -0.0769
 1095TIP3   OH224843   0.919   2.718   7.721  0.2585 -0.4463 -0.0034
 1095TIP3    H124844   0.829   2.712   7.754 -0.1304 -1.8974 -1.2297
 1095TIP3    H224845   0.954   2.797   7.763 -1.9562  0.8334 -0.3912
 1096TIP3   OH224846   1.265   1.464   0.025 -0.1591  0.5972  0.3535
 1096TIP3    H124847   1.264   1.474  -0.070  1.8607  0.7722  0.3152
 1096TIP3    H224848   1.314   1.540   0.057 -1.1037  0.7228  1.5779
 1097TIP3   OH224849   1.923   0.868   1.718 -0.6821 -0.5460 -0.5786
 1097TIP3    H124850   1.877   0.924   1.655 -3.0980 -1.2617  0.4487
 1097TIP3    H224851   1.921   0.781   1.678  1.1783 -0.3399 -1.1974
 1098TIP3   OH224852   4.230   3.969   8.491  0.5923  0.9439 -0.0944
 1098TIP3    H124853   4.293   3.942   8.558 -1.2332  0.7575  1.6603
 1098TIP3    H224854   4.212   3.889   8.441 -1.1755 -0.0728  1.9895
 1099TIP3   OH224855   2.506   2.696   0.013 -0.5466 -0.1996  0.5088
 1099TIP3    H124856   2.506   2.661  -0.076  0.0351 -0.2109  0.5104
 1099TIP3    H224857   2.543   2.784   0.004  0.6778 -0.6639  0.9121
 1100TIP3   OH224858   1.355   2.576   0.123  0.0767  0.7976 -0.4030
 1100TIP3    H124859   1.374   2.525   0.202  4.0200  2.3162 -0.1304
 1100TIP3    H224860   1.413   2.538   0.056 -0.2851  2.0032 -1.4397
 1101TIP3   OH224861   2.099   6.434   2.273  0.1408  0.0095  0.1818
 1101TIP3    H124862   2.070   6.412   2.184 -1.7239 -1.2643  1.0229
 1101TIP3    H224863   2.136   6.353   2.306 -1.7064 -0.3715  1.4546
 1102TIP3   OH224864   6.299   0.963   3.426 -0.0531 -0.0036  0.2977
 1102TIP3    H124865   6.347   0.986   3.346  0.8286  1.3807  1.1863
 1102TIP3    H224866   6.351   0.892   3.465 -0.1859 -0.3059 -0.0628
 1103TIP3   OH224867   3.256   1.594   2.990 -0.0428 -0.2822 -0.2346
 1103TIP3    H124868   3.301   1.677   3.006  0.4282 -0.6156  0.1733
 1103TIP3    H224869   3.164   1.614   3.007  0.0358  0.2104 -0.3568
 1104TIP3   OH224870   0.450   1.995   0.629 -0.8021  0.2341  0.0021
 1104TIP3    H124871   0.498   1.913   0.625  0.5291  0.9675  0.2713
 1104TIP3    H224872   0.381   1.981   0.694 -0.4092 -0.5664  0.2516
 1105TIP3   OH224873   2.482   4.774   0.498 -0.4500 -0.0443 -0.5955
 1105TIP3    H124874   2.489   4.864   0.467 -2.4979  0.3972  0.0835
 1105TIP3    H224875   2.491   4.720   0.419  0.5146  0.7550 -1.0428
 1106TIP3   OH224876   3.826   6.516   2.704 -0.1775 -0.4101 -0.2257
 1106TIP3    H124877   3.880   6.510   2.783 -1.2394 -3.2753  0.4138
 1106TIP3    H224878   3.871   6.461   2.640 -0.4728  0.1089 -0.8843
 1107TIP3   OH224879   1.656   1.425   0.351  0.2998  0.4696 -0.1691
 1107TIP3    H124880   1.699   1.383   0.426 -0.3122  0.9504  0.4630
 1107TIP3    H224881   1.702   1.508   0.340 -0.9241  1.3689  1.0306
 1108TIP3   OH224882   3.347   2.273   3.146  0.3840  0.4657 -0.1948
 1108TIP3    H124883   3.363   2.199   3.204 -0.9666 -0.5620 -1.0803
 1108TIP3    H224884   3.406   2.342   3.178  3.1405 -1.5803 -0.5476
 1109TIP3   OH224885   3.962   6.199   8.701 -0.4286  0.5260  0.3609
 1109TIP3    H124886   4.012   6.243   8.770  0.0838  2.9098 -1.3790
 1109TIP3    H224887   3.871   6.211   8.727 -0.2420 -0.7326  1.7679
 1110TIP3   OH224888   2.819   1.848   0.868 -0.0615  0.6586 -0.0870
 1110TIP3    H124889   2.836   1.916   0.933  0.7251  1.1720 -0.8028
 1110TIP3    H224890   2.799   1.897   0.787 -2.0933  0.0547 -0.0140
 1111TIP3   OH224891   0.677   3.643   0.490 -0.0392  1.0856  0.0188
 1111TIP3    H124892   0.746   3.671   0.430 -0.1788 -0.2999 -0.8400
 1111TIP3    H224893   0.600   3.692   0.463 -0.1156  0.4253 -0.9944
 1112TIP3   OH224894   4.073   6.029   7.750  0.5326  0.8084  0.4604
 1112TIP3    H124895   4.129   5.996   7.680  0.9697  0.2431  1.0647
 1112TIP3    H224896   3.989   5.985   7.737  1.0371 -0.3900  1.1093
 1113TIP3   OH224897   0.967   2.606   1.032 -0.0578 -0.1716 -0.7345
 1113TIP3    H124898   0.874   2.587   1.032 -0.3970  1.2661  0.4866
 1113TIP3    H224899   0.987   2.629   1.123  1.6193 -1.0168 -0.8429
 1114TIP3   OH224900   0.413   1.683   0.123  0.2549  0.4480 -0.7403
 1114TIP3    H124901   0.496   1.724   0.145 -0.5334  1.2715  0.8818
 1114TIP3    H224902   0.352   1.714   0.190 -1.1166 -0.9624 -1.2616
 1115TIP3   OH224903   0.510   5.034   3.586 -0.0722 -0.4620 -0.2074
 1115TIP3    H124904   0.529   5.126   3.602 -0.5807 -0.4417  0.3112
 1115TIP3    H224905   0.460   5.006   3.662 -1.3737 -0.7314 -1.1192
 1116TIP3   OH224906   6.107   1.514   2.357 -0.0607 -0.2396  0.2652
 1116TIP3    H124907   6.089   1.524   2.451 -0.2740 -2.0040  0.4552
 1116TIP3    H224908   6.097   1.602   2.321  2.3162  0.9805  2.2385
 1117TIP3   OH224909   2.376   6.404   3.167 -0.0106 -0.4644 -0.4603
 1117TIP3    H124910   2.469   6.396   3.149  0.3700 -1.1857  1.6212
 1117TIP3    H224911   2.346   6.473   3.107  1.9312  0.0874 -0.8501
 1118TIP3   OH224912   3.063   3.361   2.285 -1.0809 -0.3986  0.1216
 1118TIP3    H124913   3.129   3.339   2.219 -2.1371 -0.1139 -1.0520
 1118TIP3    H224914   3.076   3.295   2.354  1.6385  0.7304  0.8242
 1119TIP3   OH224915   4.860   2.051   2.721 -0.4554  0.0323  0.2142
 1119TIP3    H124916   4.797   2.011   2.660 -1.7538  0.4138  1.2446
 1119TIP3    H224917   4.820   2.039   2.807  1.7821 -1.3378  1.1410
 1120TIP3   OH224918   0.076   3.340   0.793 -0.4136  0.3611  0.1554
 1120TIP3    H124919   0.097   3.431   0.772  0.3740 -0.0913 -1.0859
 1120TIP3    H224920   0.058   3.299   0.709  0.6791 -0.9855  0.5464
 1121TIP3   OH224921   2.147   4.952   1.875 -0.3122  0.3646  0.8376
 1121TIP3    H124922   2.126   4.892   1.947 -1.2155 -0.7386 -0.3139
 1121TIP3    H224923   2.236   4.981   1.894  0.3014 -1.6417  1.2482
 1122TIP3   OH224924   6.443   1.098   1.066  0.5225 -0.1823  0.4955
 1122TIP3    H124925   6.446   1.193   1.073 -1.8501  0.0784 -0.9561
 1122TIP3    H224926   6.529   1.074   1.029  2.1479  1.0426  3.1968
 1123TIP3   OH224927   3.555   2.508   2.241  0.1698  0.1961  0.1114
 1123TIP3    H124928   3.485   2.486   2.303  0.0446 -1.2284 -0.5017
 1123TIP3    H224929   3.606   2.576   2.286 -1.0393  0.5862  0.9621
 1124TIP3   OH224930   1.356   2.427   1.164  0.3971  0.0219  0.7486
 1124TIP3    H124931   1.357   2.402   1.256  0.3594  0.3511  0.8378
 1124TIP3    H224932   1.377   2.520   1.163 -0.3462  0.2012  0.4903
 1125TIP3   OH224933   1.164   5.410   8.730 -0.1010  0.1454 -0.1372
 1125TIP3    H124934   1.202   5.348   8.667 -0.1360 -0.2099  0.1856
 1125TIP3    H224935   1.129   5.481   8.676  1.3638  0.6773 -0.4186
 1126TIP3   OH224936   0.738   1.728   8.227  0.3602  0.7374 -0.5443
 1126TIP3    H124937   0.746   1.653   8.168 -0.6391  0.2888 -0.1334
 1126TIP3    H224938   0.828   1.746   8.254  0.4917 -1.5954  0.8932
 1127TIP3   OH224939   2.678   2.566   3.230  0.4397  0.3203 -0.1315
 1127TIP3    H124940   2.693   2.642   3.286  4.1177 -1.1138  1.2183
 1127TIP3    H224941   2.741   2.575   3.159 -0.6507 -0.3962 -1.2376
 1128TIP3   OH224942   2.755   3.018   8.197 -0.1224 -0.3098  0.0691
 1128TIP3    H124943   2.809   3.013   8.276  0.8664  2.9552 -0.2185
 1128TIP3    H224944   2.785   2.945   8.142  3.1418  0.5386  0.5047
 1129TIP3   OH224945   3.274   3.704   0.511 -0.3489  0.3437  0.5737
 1129TIP3    H124946   3.337   3.695   0.583  0.5015  0.6379 -0.1129
 1129TIP3    H224947   3.235   3.617   0.503  1.0083 -0.2468  0.0990
 1130TIP3   OH224948   3.687   5.494   0.144  0.4190  0.2908  0.0759
 1130TIP3    H124949   3.595   5.503   0.166  0.2750 -0.6540 -0.0855
 1130TIP3    H224950   3.689   5.429   0.073  1.2430 -0.1333  0.4666
 1131TIP3   OH224951   0.741   3.243   2.419  0.4259  0.3500  0.5174
 1131TIP3    H124952   0.695   3.250   2.336 -0.5100  0.8125  1.0539
 1131TIP3    H224953   0.791   3.162   2.413  1.5226  1.0996 -1.0394
 1132TIP3   OH224954   5.661   0.530   8.246 -0.0539 -0.0427  0.1499
 1132TIP3    H124955   5.709   0.502   8.324 -0.4225 -0.1175  0.3537
 1132TIP3    H224956   5.709   0.606   8.214 -0.2121  0.3342  0.7704
 1133TIP3   OH224957   6.147   0.635   0.572  0.2986  0.3736  0.0548
 1133TIP3    H124958   6.066   0.585   0.575  0.2785  0.4179  0.2699
 1133TIP3    H224959   6.162   0.662   0.663 -0.0547  1.3461 -0.1584
 1134TIP3   OH224960   2.637   5.142   0.171  0.1604 -0.0495  0.5804
 1134TIP3    H124961   2.697   5.071   0.148  1.3527  0.9192  0.6009
 1134TIP3    H224962   2.623   5.189   0.088 -0.2638 -0.0372  0.6565
 1135TIP3   OH224963   1.564   1.848   0.489  0.1896 -0.4215 -0.1943
 1135TIP3    H124964   1.601   1.936   0.476  1.5035 -1.0453 -0.9541
 1135TIP3    H224965   1.619   1.809   0.556  0.1042 -0.9255 -0.4151
 1136TIP3   OH224966   0.308   0.776   2.067 -0.2365  0.1324 -0.3221
 1136TIP3    H124967   0.361   0.751   1.992 -1.2784  0.1614 -1.0791
 1136TIP3    H224968   0.220   0.790   2.032 -1.2526 -1.8502  1.2154
 1137TIP3   OH224969   4.237   3.539   2.977 -0.1850 -0.0707  0.3199
 1137TIP3    H124970   4.166   3.493   3.022  0.3512 -0.6057  0.6365
 1137TIP3    H224971   4.215   3.632   2.985 -1.1637 -0.2428 -0.1156
 1138TIP3   OH224972   1.977   6.660   1.068  0.0049 -0.1254 -0.1578
 1138TIP3    H124973   1.920   6.727   1.106  0.4957 -0.4532  1.2109
 1138TIP3    H224974   1.926   6.623   0.996 -0.7425  0.8878 -0.1758
 1139TIP3   OH224975   6.085   6.070   1.910  0.1789  0.1711  0.7917
 1139TIP3    H124976   6.051   6.043   1.996  0.1150  2.4749  1.5801
 1139TIP3    H224977   6.027   6.142   1.883  1.5525  1.0016 -0.0884
 1140TIP3   OH224978   0.215   5.293   0.152 -0.8322  0.4144 -0.5246
 1140TIP3    H124979   0.143   5.339   0.108 -0.9569  0.3790 -0.3598
 1140TIP3    H224980   0.276   5.272   0.082 -0.9949  0.4229 -0.6702
 1141TIP3   OH224981   4.200   1.228   1.706 -0.0022  0.6837  0.1712
 1141TIP3    H124982   4.112   1.247   1.739 -0.1865  1.0365 -0.4948
 1141TIP3    H224983   4.186   1.170   1.631  0.4808 -1.0372  1.3465
 1142TIP3   OH224984   6.285   6.721   1.770  0.2893  0.0180 -0.1259
 1142TIP3    H124985   6.265   6.702   1.678  2.0416 -0.8333 -0.3711
 1142TIP3    H224986   6.259   6.812   1.782  0.8097  0.4044 -1.7140
 1143TIP3   OH224987   5.783   1.082   1.706  0.5338 -0.0503  0.6516
 1143TIP3    H124988   5.742   1.168   1.708  0.4625 -0.0878  0.8053
 1143TIP3    H224989   5.738   1.032   1.774 -0.0534 -0.4826 -0.0298
 1144TIP3   OH224990   3.532   5.730   3.192 -0.1709 -0.0354 -1.3325
 1144TIP3    H124991   3.545   5.793   3.263  0.8577  2.3085 -3.4417
 1144TIP3    H224992   3.466   5.670   3.225  0.9730  0.3040  1.9639
 1145TIP3   OH224993   4.449   5.899   0.642 -0.0004 -0.3027 -0.5482
 1145TIP3    H124994   4.521   5.855   0.688 -0.6971 -2.0600 -1.0608
 1145TIP3    H224995   4.458   5.870   0.552 -1.1412 -0.2465 -0.6864
 1146TIP3   OH224996   0.218   3.213   2.883 -0.0891  0.1990 -0.0994
 1146TIP3    H124997   0.263   3.240   2.963  1.4824  0.3951 -1.0088
 1146TIP3    H224998   0.241   3.279   2.818 -1.0469 -0.1435 -0.8293
 1147TIP3   OH224999   4.722   2.410   1.045  0.2223 -0.4816  0.4031
 1147TIP3    H125000   4.781   2.388   1.118  1.4825 -0.0600 -0.4538
 1147TIP3    H225001   4.649   2.349   1.055  1.9296 -2.7321  0.1391
 1148TIP3   OH225002   4.105   3.567   7.910  0.4089  0.0353  0.4455
 1148TIP3    H125003   4.027   3.534   7.955 -1.1518 -0.5926 -2.4211
 1148TIP3    H225004   4.081   3.656   7.884  0.6484 -0.1370 -0.3923
 1149TIP3   OH225005   2.355   1.856   3.294 -0.5878  0.4342 -0.0609
 1149TIP3    H125006   2.362   1.762   3.275  0.6699  0.7989 -1.5405
 1149TIP3    H225007   2.355   1.861   3.390  0.5333 -0.9955  0.0451
 1150TIP3   OH225008   3.620   3.426   3.037  0.5516  0.1755  0.0909
 1150TIP3    H125009   3.579   3.368   3.102  0.5312  0.9943  0.8247
 1150TIP3    H225010   3.608   3.514   3.072  1.7528  0.5400 -0.3482
 1151TIP3   OH225011   1.969   5.742   3.300  0.2956 -0.3454  0.0071
 1151TIP3    H125012   2.033   5.679   3.335  1.1002  1.1367  1.3554
 1151TIP3    H225013   1.885   5.697   3.305  0.8764 -1.3878  0.7714
 1152TIP3   OH225014   1.942   6.701   1.959  0.4189 -0.2057  0.4888
 1152TIP3    H125015   1.971   6.791   1.971  1.6111 -0.7613  2.2818
 1152TIP3    H225016   2.022   6.653   1.937  0.2302 -1.1556  1.7209
 1153TIP3   OH225017   1.909   2.568   2.619 -0.2112  0.7764 -0.3347
 1153TIP3    H125018   1.954   2.484   2.620  1.5085  1.6414  0.4983
 1153TIP3    H225019   1.968   2.626   2.570 -1.9039  1.2573 -1.9334
 1154TIP3   OH225020   1.069   0.578   0.115  0.0363 -0.3219  0.1412
 1154TIP3    H125021   1.132   0.548   0.181 -1.3186 -0.4057  1.4534
 1154TIP3    H225022   1.114   0.647   0.068  0.8566  0.1589  1.5748
 1155TIP3   OH225023   2.777   2.319   7.404 -0.3136 -0.5269  0.2283
 1155TIP3    H125024   2.736   2.346   7.486  1.1743  1.2071  0.4740
 1155TIP3    H225025   2.813   2.232   7.423 -0.2596 -0.2843  1.3245
 1156TIP3   OH225026   4.743   6.533   3.939 -0.0844  0.0171 -0.1046
 1156TIP3    H125027   4.800   6.596   3.894 -0.4773  0.0076 -0.6243
 1156TIP3    H225028   4.767   6.449   3.902  0.2122 -0.1069  0.3556
 1157TIP3   OH225029   2.077   6.332   3.053 -0.3541 -0.4816 -0.1930
 1157TIP3    H125030   2.162   6.357   3.016 -0.1382 -0.2050  0.4817
 1157TIP3    H225031   2.064   6.391   3.127  1.3006 -3.7459  3.0145
 1158TIP3   OH225032   3.570   5.196   8.305 -0.7480 -0.5550 -0.3250
 1158TIP3    H125033   3.598   5.107   8.326  1.4878  0.1589  0.0073
 1158TIP3    H225034   3.604   5.212   8.217 -0.5210  0.1855 -0.1138
 1159TIP3   OH225035   5.108   0.324   1.888  0.1341 -0.4608  0.3001
 1159TIP3    H125036   5.149   0.239   1.874  1.8718  0.3155  0.3806
 1159TIP3    H225037   5.112   0.367   1.802 -2.4894 -1.1418 -0.2227
 1160TIP3   OH225038   4.225   3.888   1.414 -0.2933  0.1641 -0.3185
 1160TIP3    H125039   4.229   3.798   1.381  1.2078  0.4451 -0.9959
 1160TIP3    H225040   4.214   3.942   1.335  1.0178  0.6953 -0.1735
 1161TIP3   OH225041   0.678   3.185   8.614  0.3703 -0.3877  0.0971
 1161TIP3    H125042   0.758   3.139   8.641  1.1208  0.9126  0.2000
 1161TIP3    H225043   0.643   3.223   8.695  0.2378 -0.0829 -0.0978
 1162TIP3   OH225044   6.509   2.383   8.200 -0.0864 -0.5794 -0.0406
 1162TIP3    H125045   6.539   2.311   8.256 -1.2383 -1.5655 -0.6505
 1162TIP3    H225046   6.526   2.354   8.111 -0.8874 -0.2647 -0.3147
 1163TIP3   OH225047   5.510   5.637   0.158  0.1854 -0.2119  0.1481
 1163TIP3    H125048   5.458   5.661   0.081 -1.3770 -1.4639  0.7700
 1163TIP3    H225049   5.537   5.547   0.142 -0.2233 -0.5142  1.0909
 1164TIP3   OH225050   2.607   1.258   0.327 -0.0564 -0.2365 -0.3390
 1164TIP3    H125051   2.692   1.243   0.286  0.2444 -1.4375  0.7023
 1164TIP3    H225052   2.548   1.197   0.283 -0.7050  1.4136 -1.9096
 1165TIP3   OH225053   6.460   5.446   3.443  0.3620 -0.1418 -0.1863
 1165TIP3    H125054   6.521   5.488   3.503  2.5559 -2.0124 -0.9957
 1165TIP3    H225055   6.422   5.374   3.493 -0.7450  0.6098  0.0999
 1166TIP3   OH225056   1.851   6.701   0.144  0.1149  0.5291 -0.1913
 1166TIP3    H125057   1.836   6.707   0.238  0.7018 -0.1215 -0.0455
 1166TIP3    H225058   1.802   6.623   0.117 -2.8064  2.4682 -1.0489
 1167TIP3   OH225059   3.391   3.610   8.205  0.0209 -0.5236 -0.3425
 1167TIP3    H125060   3.446   3.640   8.277 -2.6337 -0.5183  1.8628
 1167TIP3    H225061   3.430   3.650   8.127  2.3124  0.5135  1.2052
 1168TIP3   OH225062   6.548   6.165   1.493  0.1898  0.2115 -0.3956
 1168TIP3    H125063   6.510   6.230   1.553 -0.4895 -0.0051 -0.5809
 1168TIP3    H225064   6.636   6.197   1.476  1.2541 -0.8298  2.4517
 1169TIP3   OH225065   5.600   0.297   8.121 -0.4230 -0.3415 -0.0567
 1169TIP3    H125066   5.617   0.258   8.206 -0.4141 -2.3293 -0.8966
 1169TIP3    H225067   5.623   0.389   8.130  0.3830 -0.7004  1.8294
 1170TIP3   OH225068   3.481   0.509   1.436 -0.4380  0.2328 -0.0654
 1170TIP3    H125069   3.528   0.479   1.514 -1.5193  0.9243  0.8766
 1170TIP3    H225070   3.416   0.441   1.419 -0.4522  0.2647 -0.1385
 1171TIP3   OH225071   6.244   5.144   8.692  0.2895  0.0588  0.3527
 1171TIP3    H125072   6.331   5.177   8.672  0.5018 -0.3403  0.5984
 1171TIP3    H225073   6.242   5.056   8.653 -0.4084  0.5019 -0.6481
 1172TIP3   OH225074   0.609   3.002   8.335  0.0593  0.3600  0.0848
 1172TIP3    H125075   0.697   2.985   8.368  0.5622  0.7681 -1.0153
 1172TIP3    H225076   0.593   3.094   8.358  0.3844  0.6255 -0.7273
 1173TIP3   OH225077   6.462   4.645   8.308  0.6097 -0.3987 -0.1427
 1173TIP3    H125078   6.425   4.730   8.285 -0.2588 -0.7118  0.0516
 1173TIP3    H225079   6.530   4.630   8.243  1.5384  0.9365  0.4641
 1174TIP3   OH225080   2.601   0.081   1.909  0.2440 -0.3528  0.3023
 1174TIP3    H125081   2.527   0.040   1.952  1.3168 -0.5457  2.0510
 1174TIP3    H225082   2.651   0.121   1.980  0.8136  1.4372 -1.0304
 1175TIP3   OH225083   2.392   4.318   0.693  0.1574  0.7411 -0.6347
 1175TIP3    H125084   2.394   4.324   0.788  0.7947  2.8673 -0.7261
 1175TIP3    H225085   2.317   4.371   0.667 -2.1642 -2.5241 -1.2744
 1176TIP3   OH225086   5.675   2.221   0.523 -0.4059 -0.7516 -0.2569
 1176TIP3    H125087   5.601   2.263   0.480  0.4978 -1.2194 -2.4103
 1176TIP3    H225088   5.640   2.191   0.608 -1.5151  2.6803  0.6346
 1177TIP3   OH225089   3.915   1.099   1.871 -0.0885  0.7683  0.1157
 1177TIP3    H125090   3.929   1.090   1.965 -1.4438 -0.7133  0.2126
 1177TIP3    H225091   3.868   1.020   1.846 -0.3457  1.4532 -1.6909
 1178TIP3   OH225092   2.117   0.523   0.379  0.3028  0.3732 -0.1464
 1178TIP3    H125093   2.066   0.581   0.323 -2.3181 -2.0372 -0.4807
 1178TIP3    H225094   2.130   0.444   0.326  1.0284 -0.5475  1.3299
 1179TIP3   OH225095   0.977   1.525   0.120  0.4709 -0.0864  0.0447
 1179TIP3    H125096   1.045   1.584   0.090  1.8783 -2.0314 -0.8300
 1179TIP3    H225097   1.015   1.482   0.197 -0.1806 -0.4157  0.1925
 1180TIP3   OH225098   2.264   2.580   0.588  0.4251  0.5791  0.0450
 1180TIP3    H125099   2.218   2.528   0.654 -1.3946  0.3144 -1.3359
 1180TIP3    H225100   2.333   2.625   0.636  2.0579 -3.0069  1.3464
 1181TIP3   OH225101   4.922   3.364   3.452  0.3477 -0.1204  0.4595
 1181TIP3    H125102   4.904   3.288   3.507  0.9602 -0.7853 -0.2258
 1181TIP3    H225103   5.014   3.383   3.467  1.0282 -1.4475 -1.6487
 1182TIP3   OH225104   5.155   3.996   1.903 -1.1541  0.4808  0.0979
 1182TIP3    H125105   5.183   4.084   1.880 -1.4650  0.8517  1.0868
 1182TIP3    H225106   5.155   3.948   1.820  0.6389  0.9461 -0.2176
 1183TIP3   OH225107   6.122   5.633   8.306  0.0406  0.4018  0.3866
 1183TIP3    H125108   6.144   5.628   8.399 -0.3902 -0.6353  0.4425
 1183TIP3    H225109   6.172   5.708   8.273 -1.5886  2.2972  1.9346
 1184TIP3   OH225110   1.236   0.072   1.682 -0.0245 -0.1426  0.4159
 1184TIP3    H125111   1.230   0.141   1.616  2.4298 -0.6566 -0.4325
 1184TIP3    H225112   1.327   0.073   1.710 -0.4908 -1.4693  2.1504
 1185TIP3   OH225113   3.386   0.766   1.163 -0.1568  0.0743 -0.0321
 1185TIP3    H125114   3.343   0.777   1.248  2.2844  0.2960  1.2537
 1185TIP3    H225115   3.359   0.679   1.134 -1.7790  0.3686  0.4950
 1186TIP3   OH225116   1.025   0.171   1.881  0.3309 -0.5298  0.2031
 1186TIP3    H125117   1.082   0.143   1.810 -0.5712 -1.7657 -0.0715
 1186TIP3    H225118   1.068   0.140   1.960  1.0654  0.3753  0.1783
 1187TIP3   OH225119   1.407   0.645   0.550 -0.2974 -0.0373 -0.2155
 1187TIP3    H125120   1.396   0.681   0.462 -3.2398  1.4098  0.6202
 1187TIP3    H225121   1.329   0.592   0.564 -0.8828  1.3195  2.1625
 1188TIP3   OH225122   0.813   6.586   7.861 -0.8852  0.3016 -0.0365
 1188TIP3    H125123   0.736   6.562   7.810 -1.9598  0.7415  1.3228
 1188TIP3    H225124   0.836   6.674   7.831  1.5701 -1.2213 -3.2632
 1189TIP3   OH225125   6.474   4.067   1.447  0.0313  0.6097  0.2356
 1189TIP3    H125126   6.406   4.004   1.468 -0.3682  1.1962  0.6995
 1189TIP3    H225127   6.484   4.120   1.525  0.7402  0.7963  0.0331
 1190TIP3   OH225128   5.811   5.487   0.972  0.0877 -0.0766 -0.2123
 1190TIP3    H125129   5.851   5.495   0.885 -2.3149  1.3499 -1.2922
 1190TIP3    H225130   5.735   5.430   0.958 -1.3355  1.5639  0.5236
 1191TIP3   OH225131   3.102   0.869   0.040  0.4008  0.6284  0.2758
 1191TIP3    H125132   3.036   0.853   0.107 -0.9979  1.2177 -0.9242
 1191TIP3    H225133   3.074   0.949  -0.004  1.8955  0.8720 -0.3078
 1192TIP3   OH225134   0.958   4.341   2.997  0.4487  0.0546  0.2729
 1192TIP3    H125135   0.984   4.250   2.988  1.7151  0.3680  0.5662
 1192TIP3    H225136   0.884   4.339   3.058 -1.3211 -1.0110 -1.7803
 1193TIP3   OH225137   4.534   3.000   0.330  0.4371 -0.2177 -0.0862
 1193TIP3    H125138   4.486   2.971   0.407  1.1319 -0.8569  0.1232
 1193TIP3    H225139   4.483   2.969   0.256 -0.2413  0.4087  0.1108
 1194TIP3   OH225140   3.116   1.610   2.129  0.1421 -0.3707 -0.2885
 1194TIP3    H125141   3.149   1.626   2.218  0.1135 -0.5621 -0.2423
 1194TIP3    H225142   3.194   1.585   2.079  0.1635 -0.2311 -0.3251
 1195TIP3   OH225143   3.177   0.869   2.969  0.7317  0.0404  0.3361
 1195TIP3    H125144   3.270   0.863   2.992  0.6366  0.9453  1.0153
 1195TIP3    H225145   3.177   0.904   2.880  1.0820 -2.7668 -0.8819
 1196TIP3   OH225146   1.678   5.884   3.449  0.6263  0.3547  0.6728
 1196TIP3    H125147   1.748   5.895   3.514  1.7413  0.9178 -0.5726
 1196TIP3    H225148   1.707   5.810   3.395 -0.4665 -0.3437  1.0151
 1197TIP3   OH225149   1.709   0.562   1.456  0.0591  0.8349 -0.6355
 1197TIP3    H125150   1.641   0.528   1.398 -0.2295  1.2069 -0.5179
 1197TIP3    H225151   1.784   0.505   1.441 -0.5524 -0.1434 -0.1281
 1198TIP3   OH225152   2.747   3.562   2.899 -0.4619 -0.0717  0.2930
 1198TIP3    H125153   2.823   3.619   2.910 -1.3314  1.1327  0.3524
 1198TIP3    H225154   2.694   3.579   2.977 -0.2767 -1.7524  0.8237
 1199TIP3   OH225155   1.682   3.892   0.761  0.5252  0.0192 -0.2339
 1199TIP3    H125156   1.607   3.875   0.704 -0.2689  1.6744  0.2424
 1199TIP3    H225157   1.648   3.955   0.826  2.3589  0.8758 -0.0596
 1200TIP3   OH225158   3.662   5.984   0.406 -0.1962 -0.4047 -0.2432
 1200TIP3    H125159   3.683   5.891   0.417 -0.4721 -0.2097  3.3169
 1200TIP3    H225160   3.734   6.030   0.451 -2.1691  0.7992  1.8918
 1201TIP3   OH225161   0.445   0.254   2.610  0.0215 -0.5673 -0.3493
 1201TIP3    H125162   0.490   0.184   2.563 -0.1520 -1.6185  0.9873
 1201TIP3    H225163   0.511   0.322   2.623  0.7065 -1.2870 -0.0421
 1202TIP3   OH225164   0.159   5.554   1.928 -0.0947  0.0106  0.3998
 1202TIP3    H125165   0.159   5.546   2.023 -0.6328 -0.0773  0.3930
 1202TIP3    H225166   0.234   5.611   1.909 -0.8957  1.3170  0.9920
 1203TIP3   OH225167   1.254   4.833   0.952 -0.3360  0.1542  0.3276
 1203TIP3    H125168   1.229   4.797   0.867 -0.6572  0.8109  0.1408
 1203TIP3    H225169   1.258   4.756   1.010  0.0412 -0.3127 -0.3092
 1204TIP3   OH225170   0.239   3.349   1.315 -0.2296 -0.1294  0.1409
 1204TIP3    H125171   0.278   3.325   1.399 -0.5113 -2.1271 -0.2492
 1204TIP3    H225172   0.302   3.410   1.275  0.4256 -0.0200  1.3128
 1205TIP3   OH225173   1.741   3.860   3.916  0.0914 -0.3658  0.1430
 1205TIP3    H125174   1.832   3.832   3.925 -0.0791 -0.8637  0.3013
 1205TIP3    H225175   1.737   3.944   3.963  0.1910 -0.9178  1.1533
 1206TIP3   OH225176   3.451   4.900   8.536  0.0923 -0.4519  0.1621
 1206TIP3    H125177   3.373   4.846   8.549 -0.6230  0.6476  0.5686
 1206TIP3    H225178   3.465   4.901   8.441 -0.6506 -0.2912  0.0556
 1207TIP3   OH225179   5.747   4.821   3.895  0.1310  0.1569 -0.3565
 1207TIP3    H125180   5.752   4.747   3.834  0.5603  1.4701 -1.9982
 1207TIP3    H225181   5.656   4.849   3.892  0.3013  0.6753 -1.0018
 1208TIP3   OH225182   6.772   2.406   3.807 -0.1405  0.1928 -0.3524
 1208TIP3    H125183   6.690   2.451   3.789 -1.5891 -1.7238  1.0304
 1208TIP3    H225184   6.822   2.415   3.726 -2.3527  0.1151 -1.8194
 1209TIP3   OH225185   2.931   6.155   2.203  0.4665  0.4984 -0.5254
 1209TIP3    H125186   2.942   6.249   2.222  0.4766  0.1410  1.4623
 1209TIP3    H225187   2.885   6.121   2.279  0.4290 -1.1242 -1.2417
 1210TIP3   OH225188   3.036   5.811   0.993 -0.3052  0.0727 -0.3119
 1210TIP3    H125189   2.948   5.833   1.022 -0.5981  0.6651 -1.5892
 1210TIP3    H225190   3.042   5.846   0.904  0.2361 -2.4234 -1.3473
 1211TIP3   OH225191   3.946   5.217   7.589 -0.5209 -0.6219  0.6707
 1211TIP3    H125192   3.952   5.130   7.627  0.0224 -1.7104 -1.7653
 1211TIP3    H225193   3.854   5.241   7.597 -1.0715 -2.2796 -0.4068
 1212TIP3   OH225194   0.186   5.867   3.498 -0.1442  0.2791 -0.0280
 1212TIP3    H125195   0.105   5.903   3.462  0.1731  0.6035 -0.4263
 1212TIP3    H225196   0.162   5.779   3.527 -1.0461  0.9231  1.3361
 1213TIP3   OH225197   2.290   0.013   0.807  0.2245  0.5042  0.0329
 1213TIP3    H125198   2.364   0.030   0.864  0.5629 -0.7871  0.0094
 1213TIP3    H225199   2.312   0.059   0.725 -0.1837  2.2055  0.8406
 1214TIP3   OH225200   5.197   4.122   0.008 -0.0876 -0.0974 -0.1151
 1214TIP3    H125201   5.271   4.083  -0.038 -0.0389  1.8563 -1.8214
 1214TIP3    H225202   5.120   4.086  -0.037 -0.1436 -0.7849  0.5178
 1215TIP3   OH225203   0.095   5.788   3.093  0.0006  0.1085 -0.7625
 1215TIP3    H125204   0.076   5.699   3.061 -1.7580 -0.0018  0.3966
 1215TIP3    H225205   0.010   5.819   3.125  1.0528  1.3630  0.9001
 1216TIP3   OH225206   2.402   2.804   0.736  0.1119 -0.0678 -0.3504
 1216TIP3    H125207   2.429   2.862   0.807  1.0697  0.1805 -0.9005
 1216TIP3    H225208   2.368   2.862   0.668 -0.8166 -0.3057 -0.1017
 1217TIP3   OH225209   2.188   1.034   8.490 -0.0735 -0.1738  0.1254
 1217TIP3    H125210   2.113   1.081   8.454 -0.6047 -2.0490 -1.3837
 1217TIP3    H225211   2.241   1.011   8.414  2.0608  1.0405  1.1462
 1218TIP3   OH225212   0.777   4.206   3.194  0.0005  0.3820  0.0852
 1218TIP3    H125213   0.754   4.173   3.107  1.4509  3.5184 -1.6630
 1218TIP3    H225214   0.805   4.128   3.242 -1.5374 -1.5728 -1.9642
 1219TIP3   OH225215   5.195   1.327   3.435 -0.1109 -0.1235  0.0947
 1219TIP3    H125216   5.160   1.252   3.388 -1.5020 -0.5677  1.7176
 1219TIP3    H225217   5.161   1.403   3.388 -0.1101 -0.5263 -0.5642
 1220TIP3   OH225218   5.321   4.533   2.089  0.4418  0.2755 -0.1700
 1220TIP3    H125219   5.251   4.551   2.151 -1.2576 -1.8962 -1.3068
 1220TIP3    H225220   5.373   4.613   2.087 -0.8020  1.2267  2.2527
 1221TIP3   OH225221   4.805   0.730   8.116 -0.1556 -0.5459 -0.1084
 1221TIP3    H125222   4.896   0.701   8.128  0.2304 -0.1254 -1.7226
 1221TIP3    H225223   4.767   0.664   8.058 -0.6659 -0.3304 -0.0192
 1222TIP3   OH225224   4.766   0.409   3.884 -0.0266 -0.1596 -0.0443
 1222TIP3    H125225   4.699   0.463   3.925  1.3314 -0.3320  2.6328
 1222TIP3    H225226   4.718   0.345   3.832 -2.0147 -0.7931  2.4052
 1223TIP3   OH225227   4.668   0.810   2.548 -0.0155 -0.4285 -0.4334
 1223TIP3    H125228   4.577   0.804   2.577  0.1022 -0.4899 -0.0773
 1223TIP3    H225229   4.692   0.901   2.562 -0.3605 -0.1508 -1.5496
 1224TIP3   OH225230   2.587   3.617   1.915  0.2344  0.0708  0.1447
 1224TIP3    H125231   2.513   3.642   1.972  0.8135  1.8055  0.1773
 1224TIP3    H225232   2.614   3.531   1.948 -1.2026 -0.1997  0.6942
 1225TIP3   OH225233   4.379   2.960   2.630 -0.4483 -1.0507 -0.5380
 1225TIP3    H125234   4.300   3.012   2.619 -0.1417 -0.2142  0.9708
 1225TIP3    H225235   4.363   2.909   2.710  0.6479 -0.6311 -0.0375
 1226TIP3   OH225236   0.386   0.637   0.511 -0.1798 -0.5867  0.1476
 1226TIP3    H125237   0.418   0.693   0.582 -1.0370 -1.1598  1.0136
 1226TIP3    H225238   0.461   0.583   0.487  0.4934  0.5214 -0.3082
 1227TIP3   OH225239   4.329   3.464   8.274  0.9504  0.1332 -1.1180
 1227TIP3    H125240   4.348   3.371   8.284  1.7710  0.3161 -0.9671
 1227TIP3    H225241   4.360   3.504   8.355  0.5004  0.5319 -1.1338
 1228TIP3   OH225242   1.954   3.498   8.687 -0.4267  0.5243 -0.2895
 1228TIP3    H125243   2.007   3.467   8.613 -0.6980 -0.3498 -0.1209
 1228TIP3    H225244   1.908   3.421   8.718 -2.6047  1.4492 -1.0509
 1229TIP3   OH225245   1.618   5.125   1.393  0.0336 -0.4496  0.0883
 1229TIP3    H125246   1.651   5.142   1.481 -1.3220  1.2345  0.3297
 1229TIP3    H225247   1.681   5.167   1.335  0.0515 -0.0848  0.3656
 1230TIP3   OH225248   3.768   1.714   3.237  0.0060  0.2052 -0.1173
 1230TIP3    H125249   3.728   1.742   3.155 -0.8286  0.0726  0.2333
 1230TIP3    H225250   3.752   1.786   3.297  0.4241  0.2094 -0.0076
 1231TIP3   OH225251   5.191   6.617   1.292  0.0661 -0.5848  0.7514
 1231TIP3    H125252   5.263   6.677   1.272  1.7215 -2.7812 -0.3302
 1231TIP3    H225253   5.210   6.585   1.380 -1.6685  1.4896  1.9887
 1232TIP3   OH225254   4.538   3.463   2.119  0.6403 -0.1508  0.6425
 1232TIP3    H125255   4.573   3.393   2.064  0.8511  0.3565  0.1177
 1232TIP3    H225256   4.443   3.456   2.110  0.6241 -0.9246  1.3031
 1233TIP3   OH225257   2.793   0.594   0.618 -0.4636  0.2518  0.3222
 1233TIP3    H125258   2.880   0.562   0.596 -0.0969  0.4948  1.3596
 1233TIP3    H225259   2.772   0.552   0.702 -1.0083  0.7999  0.4737
 1234TIP3   OH225260   6.503   5.674   0.939  0.6120 -0.4078  0.7951
 1234TIP3    H125261   6.459   5.687   0.855  0.4535 -0.8460  0.8061
 1234TIP3    H225262   6.433   5.648   0.999  0.7872 -0.4946  0.9630
 1235TIP3   OH225263   4.782   4.606   0.584  0.7907  0.2789  0.1700
 1235TIP3    H125264   4.871   4.617   0.552  1.6418 -0.2059  2.2314
 1235TIP3    H225265   4.769   4.512   0.588  0.0534  0.3387 -0.3452
 1236TIP3   OH225266   2.017   5.189   0.902  0.0087  0.3916 -0.1503
 1236TIP3    H125267   2.057   5.110   0.941  2.8195  1.6624 -0.2028
 1236TIP3    H225268   2.072   5.261   0.933 -2.0614  2.3082 -0.6672
 1237TIP3   OH225269   0.921   5.672   2.410 -0.5181  0.2117  0.0595
 1237TIP3    H125270   0.852   5.735   2.429 -0.8661  0.6043 -2.2259
 1237TIP3    H225271   0.986   5.687   2.479 -0.4999  3.2349 -0.4748
 1238TIP3   OH225272   2.998   5.921   0.747  0.1315  0.1168 -0.2194
 1238TIP3    H125273   3.068   5.955   0.692 -0.0412 -0.4577 -0.8120
 1238TIP3    H225274   2.918   5.956   0.707  0.0975  1.5364  0.9941
 1239TIP3   OH225275   4.603   0.082   3.316  0.5409 -0.0005  0.3045
 1239TIP3    H125276   4.695   0.105   3.302  0.3560  1.4532  1.2938
 1239TIP3    H225277   4.593   0.080   3.411 -0.1091 -1.6530  0.2215
 1240TIP3   OH225278   1.774   1.976   3.296 -0.4539 -0.5780  0.5691
 1240TIP3    H125279   1.859   1.971   3.252  0.3592  0.8430  1.8625
 1240TIP3    H225280   1.788   2.038   3.367 -2.1318 -1.5879  1.8612
 1241TIP3   OH225281   3.405   0.064   1.462 -1.0038 -0.6680  0.6074
 1241TIP3    H125282   3.480   0.086   1.516 -1.2276 -0.4575  0.8297
 1241TIP3    H225283   3.331   0.062   1.522 -1.6372  1.6544 -0.0162
 1242TIP3   OH225284   4.580   0.722   8.276  0.1174  0.1219 -0.3292
 1242TIP3    H125285   4.565   0.789   8.343  0.8748 -0.4732  0.4556
 1242TIP3    H225286   4.642   0.762   8.215  1.6579 -0.3116  0.8816
 1243TIP3   OH225287   1.650   5.048   3.618 -0.2426 -0.2219 -0.4370
 1243TIP3    H125288   1.565   5.029   3.577  0.0344  0.4053 -1.3392
 1243TIP3    H225289   1.676   4.966   3.660 -1.0985 -0.5415 -0.5107
 1244TIP3   OH225290   4.619   3.269   1.950 -0.0623  0.4410 -0.4623
 1244TIP3    H125291   4.541   3.248   1.899 -0.8827 -0.3860  1.0556
 1244TIP3    H225292   4.646   3.186   1.989 -0.2943  1.2111  1.5054
 1245TIP3   OH225293   3.654   1.484   2.288  0.5547 -0.4489 -0.4028
 1245TIP3    H125294   3.573   1.476   2.340  0.5161 -0.2812 -0.4377
 1245TIP3    H225295   3.719   1.434   2.338  0.9762  1.1981  0.7621
 1246TIP3   OH225296   4.692   2.956   0.662  0.2030  0.1668 -0.4257
 1246TIP3    H125297   4.778   2.993   0.642  0.2976  1.0930  1.5037
 1246TIP3    H225298   4.633   3.031   0.656 -0.3449 -0.2996 -0.9233
 1247TIP3   OH225299   5.307   2.891   2.636 -0.1432  0.3109  0.4715
 1247TIP3    H125300   5.337   2.967   2.586 -0.2019  0.8192  1.1939
 1247TIP3    H225301   5.338   2.907   2.725  0.5114 -0.8851  0.4941
 1248TIP3   OH225302   0.125   5.172   8.270  0.0904  0.4087  0.5978
 1248TIP3    H125303   0.067   5.246   8.250  0.6707  0.4001 -1.2806
 1248TIP3    H225304   0.194   5.177   8.204  0.2295 -1.7136  0.5272
 1249TIP3   OH225305   6.773   6.498   2.318  0.2398 -0.0635 -0.3447
 1249TIP3    H125306   6.803   6.544   2.397  1.1497 -1.1095 -0.0457
 1249TIP3    H225307   6.713   6.560   2.275 -1.0149  0.1726  1.6330
 1250TIP3   OH225308   4.722   2.582   3.409 -0.0147  0.1152  0.2765
 1250TIP3    H125309   4.794   2.641   3.428  0.9341 -0.9748  0.1991
 1250TIP3    H225310   4.645   2.639   3.399  1.0426  1.4072 -0.7770
 1251TIP3   OH225311   4.498   6.105   1.343  0.2478 -0.4947  0.1408
 1251TIP3    H125312   4.409   6.073   1.360  0.4987 -1.1179  0.2772
 1251TIP3    H225313   4.488   6.201   1.339 -0.4834 -0.5773 -0.1739
 1252TIP3   OH225314   3.368   4.496   1.498  0.0823  0.2406 -0.1573
 1252TIP3    H125315   3.435   4.536   1.443 -0.5003  0.7613 -0.4966
 1252TIP3    H225316   3.305   4.459   1.436 -0.2637  0.3020  0.1550
 1253TIP3   OH225317   4.274   1.719   2.070 -0.2222  0.1329 -0.0224
 1253TIP3    H125318   4.314   1.771   2.001 -0.3714 -1.0974 -1.0746
 1253TIP3    H225319   4.338   1.650   2.088 -0.2246  0.3893  1.0151
 1254TIP3   OH225320   5.665   3.974   0.305  0.3339 -0.3496 -0.3309
 1254TIP3    H125321   5.669   3.919   0.226  1.4673  1.7217 -1.8031
 1254TIP3    H225322   5.620   4.053   0.276  1.1775  0.6388  0.9929
 1255TIP3   OH225323   2.573   6.419   0.918  0.0551 -0.2845 -0.0569
 1255TIP3    H125324   2.604   6.351   0.859  1.9307 -0.9330  1.5839
 1255TIP3    H225325   2.479   6.403   0.926  0.3179 -2.1495 -0.4071
 1256TIP3   OH225326   0.002   2.793   0.922 -0.1401  0.5066 -0.1738
 1256TIP3    H125327   0.079   2.781   0.977 -1.4817 -0.0485  1.7024
 1256TIP3    H225328   0.001   2.886   0.901  0.9664  0.5344 -0.1380
 1257TIP3   OH225329   3.968   4.928   0.022  0.0443  0.9460 -0.3489
 1257TIP3    H125330   4.001   4.861  -0.038  0.6266  1.3228 -0.4647
 1257TIP3    H225331   4.046   4.958   0.069 -0.3762  0.7976  0.4525
 1258TIP3   OH225332   2.832   2.811   3.127 -0.2688  0.3214  0.3374
 1258TIP3    H125333   2.817   2.895   3.085  3.1806  0.3285 -1.2492
 1258TIP3    H225334   2.873   2.833   3.211  1.0614  0.2888 -0.2780
 1259TIP3   OH225335   3.867   0.868   8.634 -0.9806  0.1582 -0.1656
 1259TIP3    H125336   3.878   0.945   8.577  1.1501  0.3475  0.4103
 1259TIP3    H225337   3.934   0.806   8.604  1.0874  0.7420  2.8084
 1260TIP3   OH225338   1.526   5.276   1.849 -0.4054  0.1115  0.1676
 1260TIP3    H125339   1.526   5.369   1.826 -0.0706  0.0729  0.0036
 1260TIP3    H225340   1.564   5.273   1.937 -1.7909  0.2694  0.7974
 1261TIP3   OH225341   3.673   5.558   1.633  0.2381  0.0511  0.6231
 1261TIP3    H125342   3.707   5.485   1.582  0.4101 -1.0920  2.2866
 1261TIP3    H225343   3.619   5.517   1.701  0.7725  1.4101  1.9276
 1262TIP3   OH225344   0.198   6.454   3.412  0.1229  0.3157 -0.1148
 1262TIP3    H125345   0.249   6.384   3.370 -1.1395 -1.9173  1.8690
 1262TIP3    H225346   0.231   6.458   3.501 -0.5996  1.5244  0.1213
 1263TIP3   OH225347   1.997   2.909   0.260 -0.1060  0.3334 -0.2319
 1263TIP3    H125348   2.072   2.850   0.247 -0.0472  0.8437 -2.7061
 1263TIP3    H225349   1.921   2.856   0.234 -0.4082  0.4124  0.4731
 1264TIP3   OH225350   1.064   5.705   2.633 -0.0153  0.0909 -0.9704
 1264TIP3    H125351   1.020   5.693   2.718 -0.5367 -0.7153 -1.3455
 1264TIP3    H225352   1.156   5.687   2.651 -0.2697 -1.0566 -0.7731
 1265TIP3   OH225353   1.545   4.304   8.204  0.3987 -0.1787  0.5313
 1265TIP3    H125354   1.608   4.344   8.143 -0.8014  0.8700 -0.0623
 1265TIP3    H225355   1.526   4.219   8.166 -2.0793  1.3172 -1.9466
 1266TIP3   OH225356   3.000   5.853   1.312 -0.5933  0.5179 -0.0107
 1266TIP3    H125357   2.954   5.871   1.230 -3.0952  1.8522  1.5574
 1266TIP3    H225358   2.932   5.857   1.379  1.4717  0.2874  2.2451
 1267TIP3   OH225359   1.480   1.220   1.225  0.4227  0.5451 -0.5787
 1267TIP3    H125360   1.431   1.289   1.180 -1.1835 -0.1874 -0.0216
 1267TIP3    H225361   1.489   1.150   1.160 -0.9142 -0.0559 -0.1543
 1268TIP3   OH225362   1.109   5.941   1.387 -0.4158 -0.1783 -0.3633
 1268TIP3    H125363   1.090   6.032   1.412 -1.2738 -0.1851 -0.9590
 1268TIP3    H225364   1.159   5.948   1.306 -3.9626 -0.2301 -2.7776
 1269TIP3   OH225365   2.662   1.531   0.735  0.1224 -0.1243  0.6846
 1269TIP3    H125366   2.663   1.624   0.713 -0.0953  0.2412  2.0955
 1269TIP3    H225367   2.619   1.488   0.661 -1.6405  1.1610  0.9108
 1270TIP3   OH225368   5.393   4.581   0.898 -0.0651  0.0580 -0.6528
 1270TIP3    H125369   5.358   4.508   0.950  0.4756  0.5727  0.4919
 1270TIP3    H225370   5.458   4.540   0.841 -1.1396 -0.6179 -1.4312
 1271TIP3   OH225371   5.289   3.744   0.387 -0.2935 -0.4630 -0.1964
 1271TIP3    H125372   5.208   3.711   0.349 -0.4545 -3.2927  2.2090
 1271TIP3    H225373   5.355   3.730   0.319 -1.4920  0.4456 -1.6145
 1272TIP3   OH225374   2.478   3.263   2.984  0.1438 -0.2238 -0.4985
 1272TIP3    H125375   2.430   3.272   3.067  1.1436 -2.2297  0.3643
 1272TIP3    H225376   2.461   3.345   2.938 -1.2370  0.5585  1.2720
 1273TIP3   OH225377   4.755   5.156   1.244 -0.2734 -0.0340  0.4161
 1273TIP3    H125378   4.786   5.216   1.312 -0.5163 -0.4090  0.8647
 1273TIP3    H225379   4.698   5.095   1.290  1.2873 -1.6588  0.3075
 1274TIP3   OH225380   3.207   2.755   7.960 -0.1464  0.2195 -0.2635
 1274TIP3    H125381   3.230   2.785   7.871 -0.1313 -0.5616 -0.5261
 1274TIP3    H225382   3.198   2.660   7.952  0.1442  0.1116  0.6422
 1275TIP3   OH225383   5.843   4.217   0.447 -0.0625  0.4757  0.4007
 1275TIP3    H125384   5.922   4.163   0.443  0.2187  0.9128 -0.0096
 1275TIP3    H225385   5.847   4.259   0.533 -0.2942 -0.1619  0.7320
 1276TIP3   OH225386   6.723   5.029   1.078 -0.0623  0.2633  0.2229
 1276TIP3    H125387   6.770   5.085   1.139 -0.4663 -0.5114  1.2782
 1276TIP3    H225388   6.654   5.084   1.041 -1.3134  0.1643  2.2402
 1277TIP3   OH225389   3.035   1.240   0.984 -0.7602 -0.4314 -0.0480
 1277TIP3    H125390   3.098   1.286   0.929 -2.9736 -0.1839 -2.5745
 1277TIP3    H225391   3.037   1.287   1.068  1.6666  0.1042 -0.3386
 1278TIP3   OH225392   2.544   4.861   7.647  0.2446  0.1207  0.5911
 1278TIP3    H125393   2.635   4.836   7.635  0.4178  1.2410 -0.7276
 1278TIP3    H225394   2.495   4.779   7.644  1.2704 -0.6513  2.6466
 1279TIP3   OH225395   4.262   2.330   8.641 -0.3180 -0.1517 -0.2306
 1279TIP3    H125396   4.265   2.288   8.555 -3.2067  1.9544 -1.5080
 1279TIP3    H225397   4.173   2.315   8.672 -0.1069  1.3398  1.2205
 1280TIP3   OH225398   5.810   6.561   3.468  0.4934 -0.3541 -0.4858
 1280TIP3    H125399   5.786   6.590   3.556  0.4432 -0.9093 -0.3141
 1280TIP3    H225400   5.867   6.631   3.435  1.3575 -0.6150  0.3815
 1281TIP3   OH225401   4.198   1.756   3.403  0.4199  0.0328  0.4729
 1281TIP3    H125402   4.149   1.717   3.331  1.0142 -0.6275  0.4182
 1281TIP3    H225403   4.156   1.841   3.417  0.3313  0.1972 -0.6877
 1282TIP3   OH225404   4.825   4.264   2.629 -0.0179  0.1168  0.2372
 1282TIP3    H125405   4.902   4.305   2.668  0.5070  0.6806 -1.3175
 1282TIP3    H225406   4.751   4.309   2.669  0.5011  0.8442  0.4014
 1283TIP3   OH225407   2.480   5.178   7.874 -0.3786 -0.1130  0.0693
 1283TIP3    H125408   2.423   5.218   7.940  0.2632 -0.2265  0.6906
 1283TIP3    H225409   2.536   5.250   7.844  1.0249 -0.6010  1.4478
 1284TIP3   OH225410   1.142   5.074   0.898 -0.9539  0.4144 -0.3441
 1284TIP3    H125411   1.192   4.994   0.915 -1.1504  0.0396 -1.4503
 1284TIP3    H225412   1.198   5.125   0.839 -0.4204  1.5368  1.0790
 1285TIP3   OH225413   1.330   0.270   1.909 -0.0088  0.1029 -0.2388
 1285TIP3    H125414   1.396   0.232   1.852 -0.2436  0.1321 -0.5319
 1285TIP3    H225415   1.254   0.284   1.852 -0.0061  0.7874 -0.0850
 1286TIP3   OH225416   4.420   0.691   0.814 -0.2064 -0.3914  0.5821
 1286TIP3    H125417   4.392   0.602   0.838 -0.2729 -0.8435 -1.0479
 1286TIP3    H225418   4.505   0.677   0.771 -0.0987  0.3754  0.5450
 1287TIP3   OH225419   1.593   2.881   1.603 -0.3178 -0.6053 -0.1242
 1287TIP3    H125420   1.585   2.786   1.614 -0.3845 -0.7533 -1.3437
 1287TIP3    H225421   1.677   2.893   1.559 -0.4943 -0.1304 -0.3390
 1288TIP3   OH225422   1.956   1.836   1.405  0.4415 -0.1719  0.7007
 1288TIP3    H125423   1.989   1.765   1.350 -0.0603  0.7224 -0.8001
 1288TIP3    H225424   1.874   1.802   1.441  1.1770 -1.0679  1.6184
 1289TIP3   OH225425   5.452   2.067   0.057  0.0989  0.6773 -0.6709
 1289TIP3    H125426   5.482   2.044  -0.031 -2.7202 -1.0367 -1.3146
 1289TIP3    H225427   5.381   2.129   0.042 -0.5101  0.2481  0.3749
 1290TIP3   OH225428   4.225   1.805   2.745  0.3977 -0.4031  0.0308
 1290TIP3    H125429   4.275   1.738   2.790  1.3557  0.0947 -0.2781
 1290TIP3    H225430   4.289   1.872   2.721  0.3487 -1.4583 -3.7058
 1291TIP3   OH225431   6.344   5.851   3.049  0.2241  0.5510  0.0156
 1291TIP3    H125432   6.319   5.831   2.958 -1.0178  1.6424  0.0955
 1291TIP3    H225433   6.308   5.938   3.066  1.4044  0.8429  1.2136
 1292TIP3   OH225434   0.526   0.546   2.103  0.3712  0.4664  1.3758
 1292TIP3    H125435   0.613   0.572   2.133  0.3360 -0.4284  2.2716
 1292TIP3    H225436   0.516   0.591   2.018  3.5082 -2.8152 -1.0258
 1293TIP3   OH225437   5.881   0.199   2.428  0.2633 -0.4210  0.0696
 1293TIP3    H125438   5.954   0.228   2.483  0.4303  0.3557 -0.5353
 1293TIP3    H225439   5.869   0.271   2.365 -0.8252 -0.6806 -0.0272
 1294TIP3   OH225440   2.602   0.146   3.038 -0.1795  0.2811  0.2328
 1294TIP3    H125441   2.675   0.190   3.082  2.3201 -0.4290 -2.8089
 1294TIP3    H225442   2.568   0.086   3.104  2.5139  0.1185  1.6473
 1295TIP3   OH225443   6.665   5.974   2.879 -0.5174 -0.1221  0.2700
 1295TIP3    H125444   6.689   5.992   2.970  0.5892 -1.1868  0.2137
 1295TIP3    H225445   6.569   5.979   2.878 -0.4693  1.8088  1.0471
 1296TIP3   OH225446   1.284   6.491   2.452  0.4336 -0.3305 -0.4982
 1296TIP3    H125447   1.295   6.403   2.487 -0.3697  0.5175  2.2055
 1296TIP3    H225448   1.206   6.525   2.497  1.0722  1.9494 -0.9788
 1297TIP3   OH225449   0.996   5.712   1.444 -0.1231 -0.0084 -0.4170
 1297TIP3    H125450   1.035   5.798   1.432  1.2416 -0.6757 -0.9545
 1297TIP3    H225451   0.905   5.730   1.468  0.0653  1.5675 -0.7861
 1298TIP3   OH225452   6.357   6.542   2.803 -0.0570  0.0378  0.3990
 1298TIP3    H125453   6.300   6.591   2.744  1.0007 -0.0766 -0.7491
 1298TIP3    H225454   6.437   6.594   2.809  1.8971 -2.2938 -2.3825
 1299TIP3   OH225455   6.823   1.680   1.888 -0.0660  0.4737  0.2004
 1299TIP3    H125456   6.854   1.668   1.798 -1.8308 -2.2905 -0.1708
 1299TIP3    H225457   6.738   1.722   1.878  0.6303  2.0888  0.7752
 1300TIP3   OH225458   1.792   4.637   1.852 -0.6856  0.0681 -0.6013
 1300TIP3    H125459   1.878   4.675   1.872 -0.4162  0.3234 -2.1117
 1300TIP3    H225460   1.806   4.543   1.854 -1.1718 -0.0421  2.3760
 1301TIP3   OH225461   5.452   4.890   2.712  0.3631 -0.1950 -0.5354
 1301TIP3    H125462   5.501   4.826   2.660  0.1414  1.5543 -3.0587
 1301TIP3    H225463   5.518   4.954   2.740  0.0381  0.5163 -1.3400
 1302TIP3   OH225464   0.091   2.802   8.216 -0.3012  0.7570 -0.1357
 1302TIP3    H125465   0.116   2.759   8.297 -0.1176  0.5345 -0.3123
 1302TIP3    H225466   0.065   2.730   8.158  0.2601  0.8630 -0.5195
 1303TIP3   OH225467   2.531   5.939   3.404 -0.3308  0.0216 -0.0121
 1303TIP3    H125468   2.505   6.019   3.449 -1.1395  0.4370 -1.1555
 1303TIP3    H225469   2.562   5.970   3.318  1.3093 -0.7231  0.2772
 1304TIP3   OH225470   0.776   1.688   1.524 -0.2787 -0.3179 -0.1857
 1304TIP3    H125471   0.833   1.757   1.558 -2.2027  0.1557  2.3133
 1304TIP3    H225472   0.837   1.627   1.482  1.9010  0.9563  0.9028
 1305TIP3   OH225473   3.361   3.386   7.989  0.2150 -0.0731  0.5229
 1305TIP3    H125474   3.306   3.462   7.972 -0.2346 -0.5572 -0.2720
 1305TIP3    H225475   3.391   3.397   8.079 -0.3489  0.7223  0.6205
 1306TIP3   OH225476   4.628   6.109   0.943 -0.2522 -0.7631 -0.6491
 1306TIP3    H125477   4.565   6.166   0.900  1.1033  0.5729 -0.9427
 1306TIP3    H225478   4.690   6.169   0.985 -0.6556 -2.0138  1.9108
 1307TIP3   OH225479   6.151   3.624   2.862  0.4021 -0.0387  0.0484
 1307TIP3    H125480   6.220   3.564   2.889  1.9135  0.6491 -2.0592
 1307TIP3    H225481   6.163   3.634   2.768 -1.7160  1.2148 -0.1480
 1308TIP3   OH225482   0.708   0.642   8.245 -0.0454  0.0280 -0.0029
 1308TIP3    H125483   0.740   0.563   8.289 -0.6814  0.0974  0.6017
 1308TIP3    H225484   0.684   0.613   8.158  0.5711 -0.2565 -0.0842
 1309TIP3   OH225485   5.029   2.513   1.585 -0.0350 -0.1996  0.1438
 1309TIP3    H125486   5.103   2.491   1.528 -0.4360 -0.2385 -0.3649
 1309TIP3    H225487   4.954   2.470   1.544 -0.5068  0.6120  0.1502
 1310TIP3   OH225488   1.126   1.164   0.002  0.5009  0.1120 -0.0822
 1310TIP3    H125489   1.039   1.148   0.038 -0.0936  0.7061 -1.2039
 1310TIP3    H225490   1.155   1.079  -0.031 -0.3615  0.2144 -1.1680
 1311TIP3   OH225491   3.316   3.874   3.021  0.2199 -0.2147  0.6611
 1311TIP3    H125492   3.398   3.871   3.070  0.0989  0.1984  0.8937
 1311TIP3    H225493   3.264   3.802   3.057  0.2910 -0.1704  0.8501
 1312TIP3   OH225494   0.546   0.588   1.331  0.0663  0.4162  0.9791
 1312TIP3    H125495   0.604   0.662   1.314 -0.0233  0.3934  0.5449
 1312TIP3    H225496   0.554   0.533   1.253 -0.0104  0.0643  1.2184
 1313TIP3   OH225497   6.141   3.667   1.405 -0.6952 -0.4228  0.2874
 1313TIP3    H125498   6.150   3.571   1.406 -1.8553 -0.5574 -0.2994
 1313TIP3    H225499   6.055   3.682   1.366  0.2746  0.9010 -1.5020
 1314TIP3   OH225500   5.849   6.396   0.679  0.0488  0.4423  0.3512
 1314TIP3    H125501   5.800   6.320   0.709  1.3148 -0.6483 -0.2461
 1314TIP3    H225502   5.938   6.383   0.712  0.1958  1.8944  0.6130
 1315TIP3   OH225503   4.708   1.897   0.598  0.3974 -0.7739 -0.5205
 1315TIP3    H125504   4.794   1.905   0.556  0.1808  0.7093 -0.7503
 1315TIP3    H225505   4.646   1.909   0.526  0.0193  2.0438  0.1726
 1316TIP3   OH225506   4.818   6.640   2.849 -0.2458 -0.9042 -0.3027
 1316TIP3    H125507   4.730   6.606   2.839 -0.2274 -0.8969 -0.5032
 1316TIP3    H225508   4.853   6.642   2.759 -0.4427  0.1642 -0.3643
 1317TIP3   OH225509   3.384   0.263   7.957 -0.9290  0.4396  0.1031
 1317TIP3    H125510   3.407   0.192   8.017  0.0244  1.4755  1.0254
 1317TIP3    H225511   3.353   0.219   7.878  0.0698 -1.0107  0.4674
 1318TIP3   OH225512   3.697   0.185   1.889  0.3982  0.2596 -1.0027
 1318TIP3    H125513   3.679   0.271   1.851 -1.0277  0.2052 -0.5308
 1318TIP3    H225514   3.718   0.204   1.981 -1.1264  0.0406 -0.5861
 1319TIP3   OH225515   4.431   2.511   3.279  0.0763 -0.1885  0.4044
 1319TIP3    H125516   4.509   2.456   3.286  0.2108  0.0472  0.7867
 1319TIP3    H225517   4.465   2.598   3.258 -0.1500 -0.2949 -0.4450
 1320TIP3   OH225518   3.449   2.617   8.504  0.6632 -0.0416  0.7271
 1320TIP3    H125519   3.380   2.590   8.565 -1.8739 -0.7607 -2.2357
 1320TIP3    H225520   3.406   2.679   8.445  3.1071  0.9087 -0.1952
 1321TIP3   OH225521   1.368   1.567   3.301 -0.0141 -0.1909  0.7356
 1321TIP3    H125522   1.396   1.535   3.387 -0.8174 -1.0810  0.6853
 1321TIP3    H225523   1.348   1.659   3.315 -2.5341 -0.8585  2.1595
 1322TIP3   OH225524   4.977   0.588   0.722  0.0639  0.4344 -0.2722
 1322TIP3    H125525   4.895   0.618   0.762  0.9536  1.3237  0.9502
 1322TIP3    H225526   4.973   0.620   0.632 -0.8578  0.5955 -0.1822
 1323TIP3   OH225527   5.382   3.427   3.308  0.3663  0.2605  0.2143
 1323TIP3    H125528   5.463   3.392   3.346  0.1106 -0.7113 -0.1022
 1323TIP3    H225529   5.330   3.456   3.383  0.3457 -0.5775  0.5295
 1324TIP3   OH225530   2.519   0.054   0.964  0.1086 -0.8710  0.8951
 1324TIP3    H125531   2.502   0.133   1.015  1.1234 -0.7120  1.0226
 1324TIP3    H225532   2.609   0.030   0.988  0.5297 -0.9287 -0.6276
 1325TIP3   OH225533   4.061   5.879   2.834 -0.1779  0.0377  0.2918
 1325TIP3    H125534   4.081   5.882   2.928 -1.1024  1.6526  0.4751
 1325TIP3    H225535   3.989   5.941   2.823  0.0529  0.0325 -1.5365
 1326TIP3   OH225536   5.077   0.435   1.621 -0.4030 -0.4459  0.7650
 1326TIP3    H125537   4.996   0.386   1.605 -1.8410  0.8045  3.5711
 1326TIP3    H225538   5.049   0.526   1.628  1.7987  0.5049 -1.4280
 1327TIP3   OH225539   3.676   5.817   1.385 -0.0458  0.1451  0.1624
 1327TIP3    H125540   3.612   5.757   1.346 -2.1923  1.7104  1.0713
 1327TIP3    H225541   3.635   5.904   1.377  1.2839  1.0196  2.1497
 1328TIP3   OH225542   5.433   1.706   8.520 -0.0422 -0.3104  0.5218
 1328TIP3    H125543   5.399   1.698   8.431  0.5027 -1.5580  0.4076
 1328TIP3    H225544   5.514   1.756   8.510 -1.4743  2.2127  0.7308
 1329TIP3   OH225545   1.743   0.340   0.763  0.0641 -0.4924  0.4180
 1329TIP3    H125546   1.760   0.308   0.674  3.7044  0.4967  0.6031
 1329TIP3    H225547   1.687   0.417   0.750 -0.4494 -1.0448 -0.8662
 1330TIP3   OH225548   3.942   4.744   0.486  0.3642 -0.0174  0.1487
 1330TIP3    H125549   3.982   4.751   0.573  0.0931 -1.8831  0.4497
 1330TIP3    H225550   3.955   4.831   0.447  3.0705  0.0163  0.9384
 1331TIP3   OH225551   3.725   3.299   0.621 -0.1769  0.3118  0.0622
 1331TIP3    H125552   3.653   3.346   0.579 -1.3662 -1.8563 -0.4914
 1331TIP3    H225553   3.757   3.240   0.553 -0.0154 -1.0041  1.2374
 1332TIP3   OH225554   4.900   5.299   7.496  0.6083 -0.6105 -0.0781
 1332TIP3    H125555   4.812   5.307   7.458  0.9476 -1.8498 -1.2095
 1332TIP3    H225556   4.895   5.221   7.552  1.4939 -2.0046 -1.8228
 1333TIP3   OH225557   2.258   1.483   8.654 -0.9185  0.0585 -0.5828
 1333TIP3    H125558   2.327   1.439   8.605 -1.1111 -0.8235 -0.0915
 1333TIP3    H225559   2.224   1.416   8.713 -1.8191  0.6348 -0.4225
 1334TIP3   OH225560   6.006   4.485   8.219 -0.0338  0.3242 -0.4046
 1334TIP3    H125561   6.079   4.530   8.261 -0.4219  0.5104  0.0765
 1334TIP3    H225562   5.939   4.552   8.208  0.2679  0.4217 -1.8538
 1335TIP3   OH225563   2.578   5.778   0.908  0.1471  0.2939 -0.7689
 1335TIP3    H125564   2.574   5.682   0.908 -1.2062  0.3174 -2.3382
 1335TIP3    H225565   2.516   5.804   0.976 -1.4667  0.0530 -2.0851
 1336TIP3   OH225566   3.145   3.419   0.500 -0.0664 -0.1636 -0.4939
 1336TIP3    H125567   3.187   3.334   0.509  0.1875  0.1470  1.6971
 1336TIP3    H225568   3.052   3.400   0.494 -0.0419 -0.6049  0.3612
 1337TIP3   OH225569   2.209   2.724   0.935  0.0644  0.1721 -0.3236
 1337TIP3    H125570   2.150   2.767   0.998 -0.7253 -2.0643  0.5805
 1337TIP3    H225571   2.180   2.756   0.850  0.1807  2.1482  0.3194
 1338TIP3   OH225572   5.093   6.426   2.955  0.1725  0.0025 -0.5707
 1338TIP3    H125573   5.144   6.484   2.898  0.7326 -1.7854 -1.9917
 1338TIP3    H225574   5.022   6.394   2.900 -0.4434 -0.2446  0.3489
 1339TIP3   OH225575   1.509   0.560   8.107  0.1750  0.2513 -0.0633
 1339TIP3    H125576   1.575   0.580   8.172  1.5811 -1.6097 -0.8392
 1339TIP3    H225577   1.453   0.494   8.148  0.4302 -0.1554 -0.3675
 1340TIP3   OH225578   6.547   2.697   0.169  0.0518 -0.1804  0.3017
 1340TIP3    H125579   6.512   2.640   0.101 -1.6678 -1.6557  2.3013
 1340TIP3    H225580   6.641   2.699   0.152 -0.1918 -1.3738 -1.4645
 1341TIP3   OH225581   2.462   0.543   2.141 -0.3766 -0.0179 -0.6104
 1341TIP3    H125582   2.412   0.577   2.066 -1.1782 -0.5913 -0.3502
 1341TIP3    H225583   2.395   0.516   2.204  0.2674 -0.7294 -0.2158
 1342TIP3   OH225584   1.635   2.506   1.062 -0.0766  0.0779 -0.0249
 1342TIP3    H125585   1.726   2.526   1.081 -0.4474  0.6890  1.2085
 1342TIP3    H225586   1.597   2.482   1.147 -1.6038  2.0946 -0.0568
 1343TIP3   OH225587   0.875   6.212   3.279  0.2342 -0.0022  0.3030
 1343TIP3    H125588   0.917   6.130   3.303 -1.0484 -1.5263 -2.1760
 1343TIP3    H225589   0.904   6.275   3.345  3.2045 -1.8414  0.9151
 1344TIP3   OH225590   1.445   6.587   2.078 -0.5375  0.0917 -0.2295
 1344TIP3    H125591   1.359   6.607   2.115  0.7401  2.3543  1.8637
 1344TIP3    H225592   1.476   6.511   2.128 -1.4027 -0.9813 -1.2602
 1345TIP3   OH225593   1.818   4.832   1.438 -0.1938  0.1335 -0.9676
 1345TIP3    H125594   1.734   4.824   1.392 -0.2414 -1.3000 -0.6725
 1345TIP3    H225595   1.799   4.891   1.511 -1.0312 -0.3708 -0.7606
 1346TIP3   OH225596   5.863   2.675   1.693  0.1805 -0.1952 -0.0825
 1346TIP3    H125597   5.930   2.646   1.755  1.4269  2.0746 -0.2955
 1346TIP3    H225598   5.881   2.626   1.613 -0.9081 -2.5022  0.9711
 1347TIP3   OH225599   6.190   1.776   2.088 -0.0216 -0.1615 -0.1805
 1347TIP3    H125600   6.226   1.864   2.099  1.2873 -0.8938  2.1297
 1347TIP3    H225601   6.122   1.770   2.156 -1.1337 -0.4773 -1.2875
 1348TIP3   OH225602   6.415   0.100   8.530  0.3357  0.0095 -0.2062
 1348TIP3    H125603   6.355   0.071   8.598 -0.1247 -0.4554 -0.8005
 1348TIP3    H225604   6.372   0.177   8.492  0.0378 -0.3984 -0.7167
 1349TIP3   OH225605   0.441   4.526   0.022 -0.2186 -0.1619 -0.6567
 1349TIP3    H125606   0.491   4.545   0.101  0.0180 -2.4827 -0.1844
 1349TIP3    H225607   0.377   4.597   0.017 -0.5384 -0.1616  1.8782
 1350TIP3   OH225608   3.296   6.019   8.371 -0.0547 -0.4022  0.0151
 1350TIP3    H125609   3.388   6.046   8.371  0.0697 -0.8138 -0.2121
 1350TIP3    H225610   3.271   6.019   8.279 -0.7820  1.3328  0.1615
 1351TIP3   OH225611   0.222   4.140   2.032  0.4353 -0.0311  0.3359
 1351TIP3    H125612   0.279   4.181   1.967 -2.2443  2.8600 -0.4903
 1351TIP3    H225613   0.263   4.056   2.051  1.9029 -0.6839 -4.4113
 1352TIP3   OH225614   4.888   5.755   0.969 -0.0319 -0.0158  0.0446
 1352TIP3    H125615   4.814   5.779   1.025  0.1319 -0.1936  0.3411
 1352TIP3    H225616   4.857   5.770   0.880 -0.5961 -0.5521  0.1446
 1353TIP3   OH225617   2.388   4.416   2.577 -0.1763  0.0002  0.2523
 1353TIP3    H125618   2.411   4.483   2.641 -1.6724 -0.5497  1.4113
 1353TIP3    H225619   2.368   4.339   2.629  0.5663 -1.0987 -1.0113
 1354TIP3   OH225620   1.457   1.993   3.960  0.4403  0.2198 -0.0877
 1354TIP3    H125621   1.540   2.006   4.007  0.3242  1.1427 -0.1222
 1354TIP3    H225622   1.477   2.015   3.870  0.7369 -1.8386 -0.5841
 1355TIP3   OH225623   0.351   5.891   1.576 -0.0359 -0.2255 -0.1782
 1355TIP3    H125624   0.317   5.837   1.505  1.6465  1.0251 -2.0588
 1355TIP3    H225625   0.417   5.946   1.535  0.7108  0.8999  2.3035
 1356TIP3   OH225626   5.128   6.054   3.683 -0.7153 -0.5579  0.0571
 1356TIP3    H125627   5.065   6.009   3.739 -0.5491 -0.7839  0.0622
 1356TIP3    H225628   5.195   6.087   3.743 -2.9895  3.5183  0.6794
 1357TIP3   OH225629   2.328   5.147   8.410 -0.2861 -0.5137  0.2210
 1357TIP3    H125630   2.244   5.101   8.401 -1.6786  1.7456  0.7921
 1357TIP3    H225631   2.327   5.212   8.340  1.3336 -0.8667 -0.1753
 1358TIP3   OH225632   4.095   3.691   7.264 -0.1448  0.1751 -0.1679
 1358TIP3    H125633   4.016   3.743   7.277  0.7056  1.8194 -1.3271
 1358TIP3    H225634   4.098   3.676   7.169  0.1306 -1.2265  0.0371
 1359TIP3   OH225635   2.139   3.377   1.559 -0.0894 -0.5666  0.1329
 1359TIP3    H125636   2.200   3.333   1.499 -0.5628 -1.1722  0.0906
 1359TIP3    H225637   2.192   3.396   1.636  0.8009  1.1024 -0.8155
 1360TIP3   OH225638   2.196   0.614   2.482  0.2982 -0.0643 -0.8346
 1360TIP3    H125639   2.109   0.655   2.475 -0.3429 -1.0460  0.8141
 1360TIP3    H225640   2.212   0.609   2.576  3.2817  2.3231 -1.0527
 1361TIP3   OH225641   6.531   2.668   2.701  0.2159  0.0311 -0.2891
 1361TIP3    H125642   6.606   2.684   2.759  0.2816 -1.6195  0.1284
 1361TIP3    H225643   6.502   2.755   2.675  1.6056  0.7364  0.4124
 1362TIP3   OH225644   3.600   3.113   2.439 -0.6409 -0.1741  0.6379
 1362TIP3    H125645   3.679   3.158   2.467 -2.9354  3.1366  2.5344
 1362TIP3    H225646   3.580   3.052   2.510  1.4448 -3.0601 -1.0598
 1363TIP3   OH225647   3.461   1.888   1.236 -0.1303 -0.2830  0.2422
 1363TIP3    H125648   3.367   1.883   1.254 -0.0947 -0.1536  0.4745
 1363TIP3    H225649   3.487   1.797   1.220 -0.3036 -0.3132  0.1268
 1364TIP3   OH225650   3.086   5.280   1.206 -0.0793  0.5184  0.1018
 1364TIP3    H125651   3.108   5.366   1.243  1.0577  1.1977 -2.0108
 1364TIP3    H225652   3.169   5.247   1.171 -0.8314 -0.6886 -0.6144
 1365TIP3   OH225653   0.202   5.594   3.497  0.1500 -0.1570  0.4868
 1365TIP3    H125654   0.274   5.530   3.490 -0.8131 -1.1704 -0.6486
 1365TIP3    H225655   0.158   5.571   3.579 -0.3409 -1.1596 -0.0335
 1366TIP3   OH225656   6.507   5.609   1.946 -0.4775 -0.4295 -0.5596
 1366TIP3    H125657   6.580   5.554   1.915  0.3236  0.2973  0.0094
 1366TIP3    H225658   6.529   5.630   2.036 -0.6639  0.9844 -0.8178
 1367TIP3   OH225659   0.886   5.526   0.698 -0.3912  0.4862  0.1429
 1367TIP3    H125660   0.853   5.612   0.674 -1.0080 -0.3613 -2.2976
 1367TIP3    H225661   0.807   5.475   0.719 -0.4706 -0.5355 -2.2825
 1368TIP3   OH225662   0.539   1.064   2.438 -0.2420 -0.0123  0.0280
 1368TIP3    H125663   0.513   1.053   2.529 -0.2486 -0.3700 -0.0122
 1368TIP3    H225664   0.514   0.981   2.396 -1.8793  0.8018 -0.6855
 1369TIP3   OH225665   0.040   5.761   1.773 -0.6818 -0.9835  0.5386
 1369TIP3    H125666   0.078   5.698   1.834  0.5921 -1.2040 -0.4525
 1369TIP3    H225667   0.031   5.713   1.691 -1.6344 -0.4574  0.3193
 1370TIP3   OH225668   3.246   1.311   2.821 -0.6491  0.0913  0.4134
 1370TIP3    H125669   3.282   1.239   2.874  0.5027  0.3092 -0.0655
 1370TIP3    H225670   3.166   1.274   2.783  0.5032 -1.3460 -0.7361
 1371TIP3   OH225671   2.781   3.790   1.867 -0.1262  0.5971 -0.0940
 1371TIP3    H125672   2.804   3.798   1.959 -0.4993  1.5207 -0.0739
 1371TIP3    H225673   2.713   3.723   1.864  0.9698 -0.5514  0.1077
 1372TIP3   OH225674   5.373   1.686   2.414 -0.1877  0.7132 -0.0284
 1372TIP3    H125675   5.456   1.638   2.406  1.1302  2.7593  0.5841
 1372TIP3    H225676   5.307   1.624   2.383  1.4930 -1.1658 -0.1109
 1373TIP3   OH225677   3.338   5.746   2.815  0.7030  0.6633  0.5695
 1373TIP3    H125678   3.328   5.693   2.895  0.6204  1.2522  0.9553
 1373TIP3    H225679   3.372   5.829   2.846  1.9370  0.4532 -0.1654
 1374TIP3   OH225680   4.996   1.257   1.314 -0.0091 -0.2548 -0.5326
 1374TIP3    H125681   5.085   1.229   1.293  0.8733  0.3624  1.9786
 1374TIP3    H225682   4.966   1.194   1.379  0.1614  1.7129  1.5628
 1375TIP3   OH225683   3.089   1.099   0.753  0.3562  0.6146 -0.1631
 1375TIP3    H125684   3.050   1.150   0.825  0.3870  1.5007 -0.7625
 1375TIP3    H225685   3.014   1.064   0.706  0.3376 -0.5536  0.6873
 1376TIP3   OH225686   5.785   4.885   3.017 -0.1637  0.3775 -0.3558
 1376TIP3    H125687   5.783   4.794   3.047 -2.2315  0.1645 -0.9710
 1376TIP3    H225688   5.825   4.933   3.090 -2.2592 -0.5528  1.5536
 1377TIP3   OH225689   2.390   6.675   1.116 -0.4041  0.4601  0.6727
 1377TIP3    H125690   2.419   6.747   1.060 -0.1151 -0.8072 -0.8702
 1377TIP3    H225691   2.295   6.669   1.100 -0.5200  0.8191  1.2020
 1378TIP3   OH225692   2.117   1.056   1.511  0.5552 -0.1066 -0.1106
 1378TIP3    H125693   2.191   1.115   1.494 -0.0174  0.7515  0.3317
 1378TIP3    H225694   2.116   1.045   1.606  2.0609 -2.7050 -0.2969
 1379TIP3   OH225695   4.506   6.725   3.927  0.2954  0.0438  0.2727
 1379TIP3    H125696   4.579   6.663   3.935 -1.6629 -2.2227  2.1449
 1379TIP3    H225697   4.445   6.682   3.867 -0.4441  0.9214  0.3804
 1380TIP3   OH225698   2.313   3.486   1.746  0.2478  0.6070 -0.3999
 1380TIP3    H125699   2.301   3.437   1.827  0.1256  1.7157  0.2710
 1380TIP3    H225700   2.402   3.464   1.717 -0.6192 -1.8660 -1.4230
 1381TIP3   OH225701   0.319   3.299   8.098  0.4181 -0.5493 -0.1529
 1381TIP3    H125702   0.231   3.295   8.063  0.5926  1.3838 -0.8898
 1381TIP3    H225703   0.365   3.227   8.055 -0.3852 -0.6087 -0.9337
 1382TIP3   OH225704   0.666   0.653   8.609 -0.1726 -0.0203  0.0260
 1382TIP3    H125705   0.654   0.623   8.699  0.8732  0.3501  0.2982
 1382TIP3    H225706   0.583   0.632   8.566  0.2659 -2.7943  0.3278
 1383TIP3   OH225707   1.831   3.530   2.534 -0.6469  0.1116  0.5234
 1383TIP3    H125708   1.879   3.489   2.606  0.7637 -1.1950 -1.0750
 1383TIP3    H225709   1.781   3.459   2.494 -0.7347  0.6322 -0.3198
 1384TIP3   OH225710   0.659   3.240   3.568  0.1174 -0.2875 -0.5266
 1384TIP3    H125711   0.677   3.178   3.638  1.9204  0.2153 -0.4981
 1384TIP3    H225712   0.585   3.292   3.601  1.7782  0.8380  1.6431
 1385TIP3   OH225713   1.978   4.286   0.674 -0.3507 -0.0666  0.2022
 1385TIP3    H125714   1.952   4.336   0.752 -0.1671 -0.0955  0.2833
 1385TIP3    H225715   1.979   4.195   0.704  0.1655 -0.0340  0.2906
 1386TIP3   OH225716   4.015   0.983   0.728  0.0955  0.2082 -0.1311
 1386TIP3    H125717   3.961   0.935   0.665  1.5215 -0.8334 -0.6160
 1386TIP3    H225718   3.953   1.041   0.773 -1.1005  0.4327 -1.9427
 1387TIP3   OH225719   2.422   1.293   8.497 -0.0090  0.4123  0.1305
 1387TIP3    H125720   2.471   1.215   8.469  0.6978  1.3659 -1.5035
 1387TIP3    H225721   2.350   1.299   8.434  0.1450  1.2397  0.0204
 1388TIP3   OH225722   2.477   3.985   1.109 -0.4437 -0.6001 -0.2874
 1388TIP3    H125723   2.493   3.960   1.018  0.8948  0.7434 -0.4699
 1388TIP3    H225724   2.422   3.915   1.145 -0.7899 -1.2710 -2.0527
 1389TIP3   OH225725   3.543   4.030   2.924  0.0750 -0.5765 -0.1523
 1389TIP3    H125726   3.452   4.012   2.948 -0.6989  1.4340 -1.3218
 1389TIP3    H225727   3.570   4.101   2.983  0.5070 -0.4153 -0.5400
 1390TIP3   OH225728   1.062   1.286   0.781  0.2586 -0.1069 -0.4021
 1390TIP3    H125729   0.986   1.251   0.827 -0.0164 -1.8177 -2.0288
 1390TIP3    H225730   1.031   1.298   0.691  1.6370  0.1145 -0.8587
 1391TIP3   OH225731   5.107   4.351   8.479  0.2132  0.3834  0.0484
 1391TIP3    H125732   5.065   4.333   8.563 -0.2108 -0.7534 -0.3742
 1391TIP3    H225733   5.034   4.360   8.418  0.4965  1.9293 -0.0797
 1392TIP3   OH225734   4.945   5.678   2.702  0.2564  0.0780  0.0719
 1392TIP3    H125735   4.987   5.656   2.619  0.4968 -0.0990  0.2358
 1392TIP3    H225736   4.965   5.770   2.716  3.1776 -0.6560  1.5795
 1393TIP3   OH225737   0.389   1.347   2.244  0.2600 -0.3974  0.0912
 1393TIP3    H125738   0.377   1.260   2.206  0.9505 -0.7253  0.5924
 1393TIP3    H225739   0.351   1.340   2.332  0.9190 -0.3969  0.3794
 1394TIP3   OH225740   5.145   4.384   3.364 -0.0784  0.4157 -0.2462
 1394TIP3    H125741   5.138   4.381   3.269  1.6730  0.2027 -0.4049
 1394TIP3    H225742   5.087   4.455   3.390  1.3271  2.2306 -1.7479
 1395TIP3   OH225743   2.258   3.724   2.709 -0.0933 -0.1267 -0.4529
 1395TIP3    H125744   2.173   3.733   2.751 -0.4413  0.0145 -1.1752
 1395TIP3    H225745   2.259   3.790   2.640  0.4622 -0.3541 -0.6780
 1396TIP3   OH225746   2.578   4.627   1.014  0.0306 -0.2281 -0.5144
 1396TIP3    H125747   2.572   4.681   1.093 -0.1952  1.1844 -1.4591
 1396TIP3    H225748   2.488   4.597   0.999  0.1746 -1.0103  0.0717
 1397TIP3   OH225749   2.844   0.251   0.718  0.9951  0.3008 -0.6098
 1397TIP3    H125750   2.752   0.281   0.720  1.2658  1.1622  0.4474
 1397TIP3    H225751   2.874   0.271   0.630 -0.5325 -2.3345 -1.8371
 1398TIP3   OH225752   5.627   0.070   1.243  0.3396 -0.0126  0.2974
 1398TIP3    H125753   5.679   0.061   1.322  2.4153 -1.1806 -1.1192
 1398TIP3    H225754   5.563   0.139   1.264 -0.2456 -1.3359  3.4673
 1399TIP3   OH225755   5.915   1.483   1.741 -0.3174 -0.2094 -0.3178
 1399TIP3    H125756   5.865   1.407   1.710  0.5544 -1.9047  2.1094
 1399TIP3    H225757   6.004   1.467   1.712  0.0565 -0.6598  0.9943
 1400TIP3   OH225758   2.334   6.673   0.207 -0.0137 -0.3267  0.3165
 1400TIP3    H125759   2.241   6.680   0.225  0.0073  0.2530  0.2024
 1400TIP3    H225760   2.377   6.693   0.290  0.0081 -0.8937  0.4488
 1401TIP3   OH225761   1.679   3.778   0.460 -0.2533 -0.2698 -0.2030
 1401TIP3    H125762   1.607   3.721   0.431 -0.4035  1.0067 -2.5296
 1401TIP3    H225763   1.747   3.767   0.394  1.9939 -1.7727  2.1644
 1402TIP3   OH225764   6.224   2.573   2.352 -0.4546 -0.0218 -0.3416
 1402TIP3    H125765   6.261   2.533   2.431  2.1082  0.7770 -1.0456
 1402TIP3    H225766   6.247   2.666   2.359 -1.9045  0.4312 -1.1393
 1403TIP3   OH225767   4.408   2.034   1.240  0.0481  0.5600  0.0957
 1403TIP3    H125768   4.415   2.057   1.333  0.8736 -0.4173  0.3025
 1403TIP3    H225769   4.360   1.951   1.240 -1.2826  1.3156 -0.4756
 1404TIP3   OH225770   3.623   2.739   0.696  0.1040 -0.6582 -0.1704
 1404TIP3    H125771   3.670   2.691   0.764 -0.6366 -1.7574 -0.4187
 1404TIP3    H225772   3.591   2.818   0.740  0.2119 -1.0249  0.5774
 1405TIP3   OH225773   6.112   3.869   1.074  0.4950  0.3900 -0.4223
 1405TIP3    H125774   6.051   3.918   1.020  0.5464  1.0971  0.1486
 1405TIP3    H225775   6.125   3.923   1.152  0.4254 -0.5938  0.3024
 1406TIP3   OH225776   0.095   6.209   0.059  0.2467  0.2390 -0.3975
 1406TIP3    H125777   0.149   6.149   0.008 -1.0571  0.1739 -1.7447
 1406TIP3    H225778   0.130   6.202   0.148  2.2082 -0.0488 -1.1496
 1407TIP3   OH225779   4.404   4.365   2.249  0.0391 -0.1924 -0.0041
 1407TIP3    H125780   4.400   4.408   2.163 -0.9150  1.3347  0.7659
 1407TIP3    H225781   4.480   4.307   2.243 -0.4098 -0.6450 -2.1045
 1408TIP3   OH225782   2.701   2.791   3.403 -0.1854 -0.0554  0.4127
 1408TIP3    H125783   2.701   2.793   3.498 -1.4438  0.7885  0.4293
 1408TIP3    H225784   2.778   2.842   3.377 -0.1857  0.2381  0.9823
 1409TIP3   OH225785   1.208   5.337   1.081  0.2665  0.1242  0.1144
 1409TIP3    H125786   1.292   5.295   1.097  0.1683 -0.5659 -1.0353
 1409TIP3    H225787   1.186   5.312   0.991 -1.1801  0.2613  0.4085
 1410TIP3   OH225788   3.531   6.477   0.072  0.2578  0.0400 -0.3776
 1410TIP3    H125789   3.551   6.517  -0.012  1.3978  0.7663  0.2096
 1410TIP3    H225790   3.456   6.420   0.055  0.2031  0.5049 -1.7777
 1411TIP3   OH225791   2.262   2.202   8.478 -0.3789 -0.0068 -0.2101
 1411TIP3    H125792   2.317   2.172   8.406  0.0276  0.0572  0.0690
 1411TIP3    H225793   2.262   2.297   8.471 -1.0304 -0.0317 -0.6271
 1412TIP3   OH225794   3.721   0.451   1.931  0.1489  0.4403  0.1333
 1412TIP3    H125795   3.626   0.450   1.935 -0.0336 -1.0787 -2.2275
 1412TIP3    H225796   3.744   0.544   1.929 -1.2871  0.8260  0.5708
 1413TIP3   OH225797   2.843   1.853   1.740  0.2390  0.2773  0.0848
 1413TIP3    H125798   2.904   1.887   1.673 -0.3697  1.4644  0.1124
 1413TIP3    H225799   2.894   1.855   1.821  0.7878 -0.6069 -0.2142
 1414TIP3   OH225800   6.512   0.915   8.271  0.0685  0.1394  0.4645
 1414TIP3    H125801   6.513   0.865   8.189 -0.9104  0.4881  0.2276
 1414TIP3    H225802   6.538   1.003   8.245 -2.9765  0.9880 -0.0188
 1415TIP3   OH225803   2.088   1.062   1.820  0.4836 -0.0639 -0.1455
 1415TIP3    H125804   2.006   1.014   1.809 -0.2824  1.1336  0.0814
 1415TIP3    H225805   2.089   1.086   1.913  0.3221  1.1962 -0.4429
 1416TIP3   OH225806   1.079   5.725   1.988  0.1702 -0.0991 -0.8949
 1416TIP3    H125807   1.027   5.677   1.923 -0.6724  1.4361 -1.4040
 1416TIP3    H225808   1.018   5.742   2.059 -0.2289  2.1133 -1.6896
 1417TIP3   OH225809   0.789   0.515   0.611  0.3431  0.4868  0.3694
 1417TIP3    H125810   0.801   0.494   0.704 -0.3219  0.6657  0.5034
 1417TIP3    H225811   0.872   0.554   0.584  1.4129 -1.7114  0.2678
 1418TIP3   OH225812   6.197   4.633   1.120  0.0790 -0.6570  0.0692
 1418TIP3    H125813   6.178   4.663   1.031 -0.3454  0.4009  0.4869
 1418TIP3    H225814   6.250   4.703   1.158 -2.6911  0.7201  1.7670
 1419TIP3   OH225815   6.669   3.752   1.821 -0.0369  0.4656 -0.6994
 1419TIP3    H125816   6.616   3.827   1.847  1.2680  1.6919 -1.4096
 1419TIP3    H225817   6.655   3.746   1.726 -0.3054 -0.3383 -0.6095
 1420TIP3   OH225818   5.426   5.983   8.609  0.4761 -0.2599  0.2210
 1420TIP3    H125819   5.500   5.939   8.651  1.4628  0.8374 -0.3198
 1420TIP3    H225820   5.428   5.951   8.518 -1.7145 -2.7108  0.8972
 1421TIP3   OH225821   6.733   1.680   7.842  0.4490  0.5521  0.5152
 1421TIP3    H125822   6.781   1.667   7.925  0.9432 -0.8888  0.0469
 1421TIP3    H225823   6.770   1.760   7.805 -0.2981  1.6344  2.0179
 1422TIP3   OH225824   3.842   2.107   8.180  0.1722 -0.1817  0.7281
 1422TIP3    H125825   3.816   2.133   8.268 -0.3157  0.7460  0.3236
 1422TIP3    H225826   3.830   2.186   8.127 -0.4588 -0.9880 -0.3604
 1423TIP3   OH225827   3.845   3.867   7.913 -1.0518  0.5113  0.0578
 1423TIP3    H125828   3.905   3.935   7.883  0.3414 -0.1321  1.2611
 1423TIP3    H225829   3.763   3.913   7.930  0.2127  2.2091  2.1470
 1424TIP3   OH225830   6.348   6.633   0.362  0.0859  0.0060 -0.1141
 1424TIP3    H125831   6.407   6.643   0.287  0.6366  1.5418  0.4779
 1424TIP3    H225832   6.373   6.705   0.421 -1.4521 -0.1699  0.7843
 1425TIP3   OH225833   4.552   1.803   3.057 -0.4951 -0.4381 -0.0066
 1425TIP3    H125834   4.499   1.808   3.137 -1.3129 -0.5370 -0.5268
 1425TIP3    H225835   4.581   1.893   3.042 -0.2057 -0.4455  0.4822
 1426TIP3   OH225836   1.440   5.927   0.615 -0.2197  0.6235 -0.3033
 1426TIP3    H125837   1.426   5.866   0.687  1.0605  0.5488 -0.0913
 1426TIP3    H225838   1.446   5.871   0.537  1.1386  0.4275 -0.0849
 1427TIP3   OH225839   1.985   6.622   0.683 -0.0124  0.3629 -0.3409
 1427TIP3    H125840   1.961   6.530   0.679 -1.8409  0.7315  1.0095
 1427TIP3    H225841   1.924   6.660   0.746 -0.1944  2.7604 -1.8345
 1428TIP3   OH225842   2.072   0.502   1.838  0.0972 -0.3526 -0.1950
 1428TIP3    H125843   1.994   0.534   1.792 -0.4756 -0.0087  0.9792
 1428TIP3    H225844   2.051   0.412   1.861 -0.2970 -0.0093  0.8319
 1429TIP3   OH225845   2.759   6.499   3.075 -0.7426 -0.0414 -0.2843
 1429TIP3    H125846   2.741   6.472   2.985  0.7342  0.6987 -0.8424
 1429TIP3    H225847   2.816   6.430   3.110 -0.8459 -0.0410 -0.1143
 1430TIP3   OH225848   0.070   5.857   8.683 -0.0778  0.1961 -0.2021
 1430TIP3    H125849   0.009   5.784   8.687  1.4928 -1.3985 -2.7362
 1430TIP3    H225850   0.127   5.845   8.758 -1.3795  0.3763  0.8607
 1431TIP3   OH225851   3.809   5.037   2.666 -0.3031 -0.7484 -0.5612
 1431TIP3    H125852   3.870   5.019   2.595 -0.1754  0.1482 -0.6813
 1431TIP3    H225853   3.770   4.951   2.686 -1.2718 -0.8230 -2.5422
 1432TIP3   OH225854   1.670   6.811   1.152  1.1113  0.2263 -0.2645
 1432TIP3    H125855   1.582   6.805   1.115  0.3973 -1.3122  1.5157
 1432TIP3    H225856   1.657   6.854   1.237  2.3842  1.7121 -0.7760
 1433TIP3   OH225857   5.146   5.723   0.480 -0.4721 -0.1783 -0.1360
 1433TIP3    H125858   5.221   5.683   0.436 -0.2491  0.3082 -0.2056
 1433TIP3    H225859   5.184   5.795   0.531 -0.6870 -0.8687  1.0417
 1434TIP3   OH225860   4.796   4.248   8.495  0.7394 -0.1727  0.1002
 1434TIP3    H125861   4.755   4.333   8.510 -2.6427 -1.4253 -1.2087
 1434TIP3    H225862   4.787   4.233   8.401  1.9604 -1.6692  0.1901
 1435TIP3   OH225863   6.294   3.623   1.120  0.4186  0.1544  0.4576
 1435TIP3    H125864   6.250   3.684   1.062 -0.9652 -1.6661 -0.5254
 1435TIP3    H225865   6.229   3.602   1.187  0.1221 -1.6553 -0.3270
 1436TIP3   OH225866   0.809   1.532   2.731 -0.5002 -0.1997 -0.0383
 1436TIP3    H125867   0.830   1.447   2.770 -1.1260 -0.1877  0.3282
 1436TIP3    H225868   0.722   1.554   2.764  0.1352  1.1596  0.8478
 1437TIP3   OH225869   0.136   4.265   2.446 -0.3002  0.2036  0.1277
 1437TIP3    H125870   0.156   4.179   2.483 -1.0196 -0.4551 -0.9505
 1437TIP3    H225871   0.186   4.267   2.364 -0.2942  0.8101  0.1434
 1438TIP3   OH225872   0.164   2.518   1.869  0.2439 -0.2851  0.8211
 1438TIP3    H125873   0.082   2.505   1.916  0.2372 -0.6613  0.7075
 1438TIP3    H225874   0.182   2.612   1.878 -0.7205  0.0003 -0.0164
 1439TIP3   OH225875   2.588   2.399   1.110  0.5345 -0.4082 -0.1160
 1439TIP3    H125876   2.520   2.334   1.122 -0.1399  0.2555 -0.2444
 1439TIP3    H225877   2.669   2.349   1.102  0.0763 -1.1992  0.1395
 1440TIP3   OH225878   0.650   1.562   1.730  0.9578  0.9704  0.3946
 1440TIP3    H125879   0.711   1.494   1.758  1.0866 -0.0695 -2.1693
 1440TIP3    H225880   0.690   1.599   1.651 -2.4855 -1.0690 -2.5624
 1441TIP3   OH225881   1.733   1.437   2.552 -0.3280 -0.2258  0.4595
 1441TIP3    H125882   1.813   1.417   2.601  1.1606 -2.5306 -2.5482
 1441TIP3    H225883   1.682   1.356   2.554 -0.3739 -0.2919 -1.3782
 1442TIP3   OH225884   3.338   3.075   2.936 -0.2853 -0.4268  0.5484
 1442TIP3    H125885   3.350   3.142   3.004  1.0102  1.7884 -1.6616
 1442TIP3    H225886   3.385   2.999   2.968  0.3376  0.5768  2.1240
 1443TIP3   OH225887   2.093   1.046   0.947 -0.1725  0.6188  0.3034
 1443TIP3    H125888   2.175   1.060   0.994 -0.0329  0.7390  0.0205
 1443TIP3    H225889   2.030   1.024   1.016  0.4296 -1.0128  0.3960
 1444TIP3   OH225890   0.487   3.402   0.398  0.2310  0.0466 -0.5105
 1444TIP3    H125891   0.541   3.446   0.463  0.3941  0.1790 -0.7325
 1444TIP3    H225892   0.531   3.320   0.381  0.8569  0.5417 -1.3505
 1445TIP3   OH225893   2.701   4.871   0.842  0.1086  0.0292  0.1728
 1445TIP3    H125894   2.730   4.780   0.848  0.9336  0.3847  2.9776
 1445TIP3    H225895   2.776   4.917   0.803  0.7879 -0.1215  1.2385
 1446TIP3   OH225896   3.423   5.382   1.352 -0.1384 -0.3768 -0.2667
 1446TIP3    H125897   3.409   5.309   1.290  1.3118 -1.0342  0.1269
 1446TIP3    H225898   3.411   5.343   1.438 -1.2052  0.3163 -0.0860
 1447TIP3   OH225899   0.752   1.690   2.064  0.5643  0.0008 -0.6616
 1447TIP3    H125900   0.712   1.618   2.016  1.2787 -2.1433  1.7423
 1447TIP3    H225901   0.842   1.662   2.079  0.7255  1.1481  0.8050
 1448TIP3   OH225902   0.991   2.286   1.935  0.1766 -0.0906  0.0975
 1448TIP3    H125903   0.920   2.345   1.960 -0.4445 -0.3666 -0.9445
 1448TIP3    H225904   1.028   2.256   2.018 -0.1306  1.0006  0.6501
 1449TIP3   OH225905   5.382   3.600   1.120  0.0842 -0.0669 -0.2408
 1449TIP3    H125906   5.367   3.506   1.130 -0.8171  0.0497 -0.3877
 1449TIP3    H225907   5.295   3.636   1.099  0.0118  1.0323  1.6310
 1450TIP3   OH225908   1.206   5.727   3.731  0.1064  0.0719 -0.0561
 1450TIP3    H125909   1.298   5.750   3.719 -0.2785  1.5516 -0.3752
 1450TIP3    H225910   1.158   5.806   3.706 -1.3250 -1.0835 -1.1999
 1451TIP3   OH225911   1.468   2.110   0.295 -0.0017  0.4628  0.8507
 1451TIP3    H125912   1.381   2.100   0.257  0.2084 -0.0068  0.4816
 1451TIP3    H225913   1.481   2.030   0.346  0.5070  0.1774  0.2934
 1452TIP3   OH225914   4.518   1.735   1.023 -0.3924 -0.3215  0.3853
 1452TIP3    H125915   4.585   1.672   0.995 -0.7959 -0.4485 -0.3374
 1452TIP3    H225916   4.554   1.775   1.102 -0.1948 -1.5721  0.9569
 1453TIP3   OH225917   5.686   5.848   3.077 -0.1459  0.1371  0.2560
 1453TIP3    H125918   5.722   5.935   3.061 -0.5256  0.1585 -0.5071
 1453TIP3    H225919   5.632   5.830   3.001 -0.3343 -0.6341  0.5649
 1454TIP3   OH225920   4.017   0.137   2.105  0.0443 -0.5941 -0.0101
 1454TIP3    H125921   3.979   0.113   2.021 -0.5165 -0.9216  0.3285
 1454TIP3    H225922   4.107   0.106   2.101  0.3995  0.4794 -0.9502
 1455TIP3   OH225923   1.945   0.779   2.456 -0.6234  0.0042 -0.4228
 1455TIP3    H125924   1.924   0.761   2.548 -3.1309  1.5871 -0.5855
 1455TIP3    H225925   1.884   0.724   2.407 -0.0869  0.0153 -1.1085
 1456TIP3   OH225926   3.040   4.758   7.873 -1.0241 -0.4220 -0.3416
 1456TIP3    H125927   3.091   4.677   7.882  0.5814  0.5850  0.0601
 1456TIP3    H225928   3.086   4.807   7.805 -2.1229  0.0656 -0.7527
 1457TIP3   OH225929   0.613   2.802   2.522  0.2574  0.6017 -0.2667
 1457TIP3    H125930   0.598   2.782   2.614  1.5911  0.9124  0.0289
 1457TIP3    H225931   0.688   2.747   2.497  0.8157  1.5697 -0.7757
 1458TIP3   OH225932   5.731   4.616   3.713  0.6522  0.0893 -0.1442
 1458TIP3    H125933   5.685   4.541   3.675 -0.0166  0.6233 -0.4253
 1458TIP3    H225934   5.783   4.651   3.641 -1.8217  2.0621 -1.1722
 1459TIP3   OH225935   0.785   3.537   0.079 -0.3289 -0.2606  0.6686
 1459TIP3    H125936   0.878   3.560   0.092 -0.6445  0.6110  1.5172
 1459TIP3    H225937   0.754   3.601   0.016 -0.4186 -0.3784  0.5955
 1460TIP3   OH225938   3.907   1.094   2.557  0.0157  0.2493  0.1062
 1460TIP3    H125939   4.003   1.092   2.563  0.0152 -0.4302 -0.0804
 1460TIP3    H225940   3.882   1.005   2.535 -0.5701  0.7581 -1.4260
 1461TIP3   OH225941   5.487   6.795   2.392  0.7792 -0.0190 -0.0557
 1461TIP3    H125942   5.394   6.773   2.387  0.3422  1.8762 -1.8485
 1461TIP3    H225943   5.490   6.877   2.441  1.2352  0.9764 -1.6696
 1462TIP3   OH225944   2.218   5.875   0.336 -0.7673 -0.1057  0.1508
 1462TIP3    H125945   2.147   5.922   0.379 -0.0936  1.4635 -0.3777
 1462TIP3    H225946   2.221   5.912   0.247  1.8079  1.1964  0.6825
 1463TIP3   OH225947   3.976   0.109   0.962  0.3775 -0.0321 -0.0063
 1463TIP3    H125948   3.982   0.089   1.056  0.8732  0.5109  0.0865
 1463TIP3    H225949   4.063   0.142   0.940  0.3032 -0.2926 -0.6936
 1464TIP3   OH225950   0.754   2.802   8.169  0.2950 -0.4901  0.6494
 1464TIP3    H125951   0.728   2.887   8.202  0.2100  0.4010 -1.5523
 1464TIP3    H225952   0.673   2.752   8.163  0.0078  0.0464 -0.0893
 1465TIP3   OH225953   6.545   6.669   0.202 -0.4230  0.2693  0.0010
 1465TIP3    H125954   6.633   6.675   0.237 -0.7514 -1.3981  1.2777
 1465TIP3    H225955   6.551   6.704   0.114  1.2650  1.1665  0.4423
 1466TIP3   OH225956   2.015   2.663   0.354 -0.1437 -0.7224 -0.1036
 1466TIP3    H125957   2.083   2.621   0.407 -0.4699 -1.1018  0.0192
 1466TIP3    H225958   1.940   2.605   0.361 -0.5724 -0.1709 -0.0113
 1467TIP3   OH225959   6.093   4.248   3.095 -0.3916 -0.5393  0.1456
 1467TIP3    H125960   6.126   4.234   3.006  0.5577  0.9798  0.2192
 1467TIP3    H225961   6.157   4.204   3.151  1.0642  1.5211  0.2270
 1468TIP3   OH225962   0.527   6.311   1.330 -0.4941  0.9814 -0.3186
 1468TIP3    H125963   0.524   6.251   1.256  0.9316  0.4070  0.0742
 1468TIP3    H225964   0.519   6.398   1.290 -0.9060  0.6266 -1.0316
 1469TIP3   OH225965   2.699   2.193   0.813 -0.1864  0.2195 -0.5778
 1469TIP3    H125966   2.785   2.181   0.853 -0.8539  1.3799  1.2997
 1469TIP3    H225967   2.701   2.283   0.778 -1.2515  0.9782  1.1981
 1470TIP3   OH225968   0.443   2.629   2.010 -0.3153  0.0022  0.0867
 1470TIP3    H125969   0.372   2.691   2.029 -0.9302 -0.5308 -0.3967
 1470TIP3    H225970   0.459   2.639   1.916 -0.5333 -0.6701 -0.0285
 1471TIP3   OH225971   6.375   4.586   3.673  0.0222  0.5488  0.3953
 1471TIP3    H125972   6.405   4.623   3.757 -0.7764  1.7706  0.1606
 1471TIP3    H225973   6.436   4.514   3.656 -0.3409 -0.3165  2.4669
 1472TIP3   OH225974   0.464   5.135   1.568  0.4598  0.2818  0.1418
 1472TIP3    H125975   0.408   5.064   1.598  0.7299 -0.2662 -0.6150
 1472TIP3    H225976   0.446   5.141   1.474  0.8981  0.7991  0.0893
 1473TIP3   OH225977   5.879   0.841   1.626 -0.1068 -0.2032  0.2693
 1473TIP3    H125978   5.862   0.810   1.715 -1.2244 -1.8060 -0.4441
 1473TIP3    H225979   5.839   0.928   1.624  0.9569  0.3494  1.6482
 1474TIP3   OH225980   0.328   4.462   7.976 -0.6352 -0.2692  0.3261
 1474TIP3    H125981   0.319   4.434   8.068 -1.3247  1.1866  0.7283
 1474TIP3    H225982   0.329   4.380   7.927 -1.5299 -1.0443  1.5307
 1475TIP3   OH225983   4.366   0.033   1.327  0.2592 -0.0712 -0.2804
 1475TIP3    H125984   4.313  -0.039   1.293 -0.7541  0.1719  0.7040
 1475TIP3    H225985   4.305   0.084   1.381  1.3518  0.5788  0.3818
 1476TIP3   OH225986   3.055   2.759   2.459  0.6242 -0.0703 -0.1892
 1476TIP3    H125987   2.962   2.749   2.439  0.5449  1.8643 -0.9957
 1476TIP3    H225988   3.065   2.720   2.546 -1.2143  0.8138  0.4609
 1477TIP3   OH225989   6.799   1.018   1.412  0.4363  0.0857 -0.9396
 1477TIP3    H125990   6.718   1.069   1.407  1.2111  1.3491 -0.8891
 1477TIP3    H225991   6.777   0.934   1.371 -1.1902  0.0128  0.0072
 1478TIP3   OH225992   5.483   1.670   3.710 -0.9634 -0.1776 -0.5541
 1478TIP3    H125993   5.537   1.632   3.779 -0.2901 -0.1060 -1.0293
 1478TIP3    H225994   5.467   1.597   3.650  0.1038  0.2045 -1.3273
 1479TIP3   OH225995   6.573   6.398   8.016 -0.1857 -0.4349  0.3746
 1479TIP3    H125996   6.607   6.407   7.926 -0.4216 -1.9122  0.1086
 1479TIP3    H225997   6.483   6.368   8.004 -0.6397  0.6116  1.1087
 1480TIP3   OH225998   1.622   2.750   0.372  0.0735  0.0575 -0.4232
 1480TIP3    H125999   1.614   2.656   0.354 -0.5482  0.1285 -0.5701
 1480TIP3    H226000   1.665   2.755   0.457 -1.9520 -0.4338  0.7041
 1481TIP3   OH226001   6.823   5.235   0.311 -0.1579 -0.0290 -0.2747
 1481TIP3    H126002   6.799   5.310   0.257 -0.9069 -1.4329 -1.9817
 1481TIP3    H226003   6.906   5.204   0.274 -0.2861 -0.5449 -0.1472
 1482TIP3   OH226004   1.208   0.879   0.507 -0.3257  0.0078  0.1444
 1482TIP3    H126005   1.179   0.891   0.416  0.4531 -2.1021 -0.4412
 1482TIP3    H226006   1.181   0.790   0.529  2.9306 -0.9951  0.5804
 1483TIP3   OH226007   1.307   4.260   3.808 -0.3682  0.0502 -0.7797
 1483TIP3    H126008   1.260   4.179   3.789  1.0743 -1.0780  0.1760
 1483TIP3    H226009   1.396   4.244   3.776  0.0447  1.1071 -0.2099
 1484TIP3   OH226010   0.467   1.355   1.848  0.0073  0.0034 -0.3209
 1484TIP3    H126011   0.486   1.340   1.755 -1.4220  0.2598 -0.6770
 1484TIP3    H226012   0.427   1.442   1.850 -2.1821 -0.9337  0.1734
 1485TIP3   OH226013   2.703   5.473   0.184 -0.5611 -0.3631 -0.0004
 1485TIP3    H126014   2.624   5.514   0.219  0.2642  0.9736  0.3845
 1485TIP3    H226015   2.713   5.511   0.096 -0.5524 -0.8097 -0.1933
 1486TIP3   OH226016   6.833   6.450   1.914 -0.0663  0.4188  0.0582
 1486TIP3    H126017   6.743   6.432   1.943  0.4517  0.9680  2.1617
 1486TIP3    H226018   6.866   6.365   1.886 -1.5919  0.4104 -1.8996
 1487TIP3   OH226019   4.904   2.378   1.249  0.2275 -0.3212  0.3279
 1487TIP3    H126020   4.978   2.323   1.274 -0.4202 -0.9146  0.9818
 1487TIP3    H226021   4.842   2.370   1.322 -0.6476 -0.1317 -0.3748
 1488TIP3   OH226022   3.837   5.263   1.684  0.3391  0.8243  0.6792
 1488TIP3    H126023   3.835   5.282   1.778 -1.0894  1.9203  0.4642
 1488TIP3    H226024   3.884   5.336   1.645 -0.7166  1.3643  0.3719
 1489TIP3   OH226025   5.903   0.519   0.548  0.2149 -0.5196 -0.8683
 1489TIP3    H126026   5.829   0.575   0.529 -0.4432 -0.9284  0.3789
 1489TIP3    H226027   5.886   0.439   0.499  0.3613 -0.2326 -1.3956
 1490TIP3   OH226028   4.035   6.427   0.083  0.0269 -0.4040  0.2209
 1490TIP3    H126029   3.952   6.448   0.042 -0.0550 -1.7881 -0.3632
 1490TIP3    H226030   4.096   6.416   0.010  0.5969  0.0429  0.6187
 1491TIP3   OH226031   3.869   3.608   8.042  0.4947 -0.0094 -0.4124
 1491TIP3    H126032   3.914   3.614   8.126  0.0157  0.5145 -0.1830
 1491TIP3    H226033   3.845   3.698   8.021  1.0676 -0.0661 -1.3749
 1492TIP3   OH226034   3.483   4.776   0.905  0.0214  0.1378 -0.1689
 1492TIP3    H126035   3.404   4.806   0.860  0.2959  0.5619 -0.3754
 1492TIP3    H226036   3.522   4.714   0.844  0.5732  0.9684 -0.6806
 1493TIP3   OH226037   3.079   5.608   7.952  0.3120 -0.1751 -0.2283
 1493TIP3    H126038   3.031   5.688   7.975  1.5717  0.4591  0.3256
 1493TIP3    H226039   3.170   5.628   7.975  0.5658 -1.9952  0.5460
 1494TIP3   OH226040   4.883   0.561   1.241  0.3495 -0.2672 -0.4876
 1494TIP3    H126041   4.811   0.538   1.183 -0.2293 -0.5111  0.3096
 1494TIP3    H226042   4.866   0.652   1.265 -0.3535 -0.6492  0.5901
 1495TIP3   OH226043   5.457   1.803   0.820 -0.1985  0.0335  0.2830
 1495TIP3    H126044   5.492   1.730   0.769  0.4997  0.3423  0.3078
 1495TIP3    H226045   5.486   1.881   0.774  0.4910  0.3190  1.1646
 1496TIP3   OH226046   0.303   3.551   1.669  0.7999 -0.9895 -0.2107
 1496TIP3    H126047   0.213   3.562   1.700  0.1491  0.4870 -2.3829
 1496TIP3    H226048   0.327   3.462   1.697 -1.4290 -1.5467  0.1676
 1497TIP3   OH226049   4.061   1.483   3.651  0.1546 -0.6954  0.7002
 1497TIP3    H126050   4.012   1.401   3.653 -2.2754  0.6663  0.3083
 1497TIP3    H226051   4.040   1.521   3.566 -1.2539  1.7308  2.0470
 1498TIP3   OH226052   5.722   5.057   2.808  0.6430 -0.2614  0.2209
 1498TIP3    H126053   5.762   5.011   2.882  3.5623  2.0059  0.2111
 1498TIP3    H226054   5.670   5.126   2.849  0.9910  0.0206  0.1925
 1499TIP3   OH226055   3.865   1.903   7.869  0.1841  0.1696  0.2975
 1499TIP3    H126056   3.833   1.984   7.828  0.3628  1.4639  2.5391
 1499TIP3    H226057   3.805   1.887   7.941  1.0698 -0.8254  0.8470
 1500TIP3   OH226058   6.598   2.757   8.035  0.7835 -0.4384 -0.2017
 1500TIP3    H126059   6.592   2.697   7.961 -2.0925 -1.5850  0.8124
 1500TIP3    H226060   6.572   2.705   8.111  1.8960  1.1509  1.3741
 1501TIP3   OH226061   4.321   0.418   1.913  0.0903 -0.3628  0.6932
 1501TIP3    H126062   4.416   0.408   1.899  0.4849  2.3428  0.7860
 1501TIP3    H226063   4.311   0.509   1.943 -2.7375  0.0693 -1.2067
 1502TIP3   OH226064   4.522   2.309   2.945 -0.4889  0.2107  0.0277
 1502TIP3    H126065   4.487   2.348   2.865 -1.9524  0.7069  0.8512
 1502TIP3    H226066   4.506   2.216   2.935 -0.6235  0.2673 -0.2962
 1503TIP3   OH226067   3.063   3.904   8.322  0.0621 -0.0104  0.0168
 1503TIP3    H126068   3.056   3.996   8.346 -1.0047  0.2682 -1.2669
 1503TIP3    H226069   3.122   3.867   8.387 -2.1362  0.8073  2.6304
 1504TIP3   OH226070   5.436   2.122   1.101 -0.3778 -0.2767 -0.3954
 1504TIP3    H126071   5.523   2.084   1.096 -0.1294  0.3388 -0.8183
 1504TIP3    H226072   5.444   2.193   1.164  0.1497  1.6166 -2.4787
 1505TIP3   OH226073   0.192   2.281   0.127  0.0872 -0.5333 -0.2500
 1505TIP3    H126074   0.219   2.367   0.095 -0.2728 -0.4606 -0.3620
 1505TIP3    H226075   0.097   2.278   0.112  0.0801 -0.9062 -0.1466
 1506TIP3   OH226076   3.897   5.866   1.535  0.1264 -0.6242 -0.0434
 1506TIP3    H126077   3.975   5.827   1.496  0.0329 -0.3491 -0.5102
 1506TIP3    H226078   3.823   5.822   1.493 -0.0259  1.3408 -1.9991
 1507TIP3   OH226079   2.976   0.376   3.706 -0.6331  0.1212  0.0749
 1507TIP3    H126080   2.936   0.399   3.789 -1.6750 -1.0669 -0.0688
 1507TIP3    H226081   3.070   0.372   3.724 -0.8951 -0.8119  1.3759
 1508TIP3   OH226082   5.383   5.077   0.071  0.3734 -0.2196 -0.3586
 1508TIP3    H126083   5.347   5.020   0.140 -1.8115  0.8268 -0.5594
 1508TIP3    H226084   5.436   5.140   0.119  1.6082 -1.4931  0.0100
 1509TIP3   OH226085   4.152   1.171   0.558 -0.1571  0.4176 -0.4348
 1509TIP3    H126086   4.132   1.204   0.646  1.8794 -0.7535  0.5233
 1509TIP3    H226087   4.163   1.077   0.569  4.1361  0.6657 -1.0267
 1510TIP3   OH226088   5.652   2.021   2.640 -0.3228  0.4665 -0.4186
 1510TIP3    H126089   5.598   2.029   2.719 -0.3099 -0.4201 -0.3145
 1510TIP3    H226090   5.742   2.018   2.673 -0.3490 -0.4683 -0.4240
 1511TIP3   OH226091   5.330   4.777   0.543  0.0947 -0.2607  0.5302
 1511TIP3    H126092   5.336   4.807   0.453 -1.4889  0.6471  0.6983
 1511TIP3    H226093   5.393   4.831   0.591  0.8583 -0.6724  0.0114
 1512TIP3   OH226094   4.748   6.576   0.635  0.5173 -0.2524  0.0538
 1512TIP3    H126095   4.764   6.577   0.730  0.8695  0.1320 -0.0096
 1512TIP3    H226096   4.653   6.580   0.627  0.5514  2.0915  0.3573
 1513TIP3   OH226097   1.885   1.883   0.171 -0.3514  0.1814 -0.3086
 1513TIP3    H126098   1.899   1.931   0.089  0.7797 -0.8899 -0.7674
 1513TIP3    H226099   1.951   1.918   0.230 -0.2188 -0.0644 -0.3121
 1514TIP3   OH226100   3.031   5.100   0.207 -0.4515 -0.3063  1.0086
 1514TIP3    H126101   3.051   5.164   0.275  4.1908  0.6701 -0.8781
 1514TIP3    H226102   2.983   5.149   0.141  1.4088  0.8556  0.4417
 1515TIP3   OH226103   1.962   2.968   2.384 -0.3503  0.0730 -0.3696
 1515TIP3    H126104   1.936   3.011   2.302 -1.0531 -0.2736 -0.3266
 1515TIP3    H226105   1.937   3.030   2.452  0.8156  0.6486 -0.4401
 1516TIP3   OH226106   0.507   4.471   1.487 -0.1821  0.4116  0.1440
 1516TIP3    H126107   0.445   4.538   1.460  1.5304  1.6026 -1.0470
 1516TIP3    H226108   0.542   4.436   1.405  1.0593  0.1387  0.7560
 1517TIP3   OH226109   1.071   3.359   8.604  0.1943  0.6526  0.0680
 1517TIP3    H126110   1.136   3.348   8.673  0.5384 -0.9778 -0.4605
 1517TIP3    H226111   1.076   3.452   8.580 -0.1414  1.3125  2.3832
 1518TIP3   OH226112   3.619   1.370   0.894  0.1844 -0.5544 -0.1143
 1518TIP3    H126113   3.531   1.333   0.894 -0.0214 -0.1083 -1.0754
 1518TIP3    H226114   3.653   1.353   0.981 -1.7306  1.2983  1.0973
 1519TIP3   OH226115   0.011   2.410   2.388 -0.1489 -0.2252  0.1980
 1519TIP3    H126116  -0.008   2.436   2.478  0.8397  2.6365 -0.3098
 1519TIP3    H226117  -0.064   2.357   2.361 -1.2767  0.3208  2.1391
 1520TIP3   OH226118   3.112   5.741   2.076 -0.1352 -0.2913 -0.7310
 1520TIP3    H126119   3.161   5.660   2.061 -0.9835 -1.2651  1.3803
 1520TIP3    H226120   3.032   5.714   2.121  0.2444  1.7993  1.4448
 1521TIP3   OH226121   4.747   4.690   8.391 -0.5338 -0.4638 -0.1300
 1521TIP3    H126122   4.709   4.717   8.307 -0.9323  2.1274  0.7854
 1521TIP3    H226123   4.686   4.623   8.424 -1.8100  0.3351 -0.7534
 1522TIP3   OH226124   4.816   4.644   7.883 -0.3776 -0.4380  0.2094
 1522TIP3    H126125   4.740   4.701   7.867  0.2482  0.0488 -1.1987
 1522TIP3    H226126   4.828   4.596   7.801  1.5317  0.3728 -0.0591
 1523TIP3   OH226127   1.747   2.575   8.563  0.5916  0.2810 -0.6561
 1523TIP3    H126128   1.704   2.651   8.603  0.2263  0.8289 -2.0155
 1523TIP3    H226129   1.782   2.609   8.480  2.6730 -0.4189 -0.1260
 1524TIP3   OH226130   3.899   6.278   3.122 -0.3646 -1.0766 -0.0901
 1524TIP3    H126131   3.964   6.254   3.189 -1.6167 -4.0371  0.2220
 1524TIP3    H226132   3.948   6.333   3.061  1.4883 -0.3154  1.9296
 1525TIP3   OH226133   6.107   1.090   3.576 -0.3384  0.3177 -0.2624
 1525TIP3    H126134   6.095   1.182   3.551 -0.8383  0.3267  0.0019
 1525TIP3    H226135   6.193   1.067   3.541 -0.5449  0.6580 -1.0069
 1526TIP3   OH226136   2.491   4.194   2.048  0.6970  0.1256 -0.0421
 1526TIP3    H126137   2.477   4.246   2.127 -0.1488 -1.0444  0.6063
 1526TIP3    H226138   2.581   4.160   2.057  1.3202  1.5728 -0.5568
 1527TIP3   OH226139   6.649   4.007   0.912 -0.8454 -0.4248  0.1622
 1527TIP3    H126140   6.628   4.000   1.005 -2.9029 -0.3945 -0.2466
 1527TIP3    H226141   6.565   3.992   0.868  0.1004 -0.5134 -1.6939
 1528TIP3   OH226142   5.923   5.844   2.794 -0.1194 -0.3636 -0.2542
 1528TIP3    H126143   5.986   5.889   2.737  2.7880 -0.5275  2.5416
 1528TIP3    H226144   5.916   5.756   2.758  1.7503 -0.5101 -0.3796
 1529TIP3   OH226145   2.316   0.441   2.342 -0.3081  0.0055  0.5451
 1529TIP3    H126146   2.325   0.359   2.391  1.8953  0.3633  0.8578
 1529TIP3    H226147   2.279   0.502   2.405 -1.0699 -0.4868  0.5911
 1530TIP3   OH226148   2.756   4.107   1.469  0.0196 -0.0397 -0.4019
 1530TIP3    H126149   2.831   4.161   1.444 -0.3546  0.7059  0.0375
 1530TIP3    H226150   2.737   4.054   1.392  0.8243 -0.0290 -0.6098
 1531TIP3   OH226151   4.356   0.486   0.113 -0.4978 -0.5718 -0.2480
 1531TIP3    H126152   4.357   0.471   0.018 -0.3613 -3.1539  0.0920
 1531TIP3    H226153   4.265   0.509   0.132 -0.4210  0.4758 -1.0378
 1532TIP3   OH226154   4.233   0.823   1.740  0.3019 -0.2875 -0.5685
 1532TIP3    H126155   4.229   0.871   1.657  0.8600 -0.7505 -0.8653
 1532TIP3    H226156   4.320   0.843   1.775 -0.4393  1.0391  0.5977
 1533TIP3   OH226157   4.322   1.712   3.689 -0.1792  0.5589  0.6046
 1533TIP3    H126158   4.286   1.703   3.601  0.2030  0.3414  0.4672
 1533TIP3    H226159   4.258   1.670   3.746  1.5860 -3.3870 -0.0093
 1534TIP3   OH226160   5.062   5.352   8.717  0.8029  0.2335 -0.0838
 1534TIP3    H126161   5.083   5.330   8.808 -0.5643 -0.7197  0.0367
 1534TIP3    H226162   5.006   5.429   8.724  1.9091  1.0798 -0.2360
 1535TIP3   OH226163   0.204   2.344   0.820  0.0245  0.0488 -0.1928
 1535TIP3    H126164   0.288   2.307   0.791  1.0470  1.9082  0.1748
 1535TIP3    H226165   0.157   2.362   0.739  0.1958 -0.5383 -0.4274
 1536TIP3   OH226166   4.749   4.923   2.540 -0.3153 -0.1099 -0.9595
 1536TIP3    H126167   4.755   4.830   2.520 -0.5463 -0.2056 -0.6060
 1536TIP3    H226168   4.820   4.939   2.602 -0.3240 -0.0676 -0.9601
 1537TIP3   OH226169   1.829   3.277   0.010  0.5138 -0.3656  0.1266
 1537TIP3    H126170   1.829   3.280   0.106  0.3375 -0.7688  0.1415
 1537TIP3    H226171   1.787   3.194  -0.011 -1.0238  0.4828 -0.3214
 1538TIP3   OH226172   5.361   2.519   1.874 -0.1203 -0.0792  0.6157
 1538TIP3    H126173   5.339   2.446   1.932  1.1499 -0.8367  0.1597
 1538TIP3    H226174   5.365   2.481   1.787 -1.3529  0.9293  0.0920
 1539TIP3   OH226175   0.136   4.387   1.307  0.2452  0.5364  0.1302
 1539TIP3    H126176   0.153   4.379   1.401  1.2025 -0.0212 -0.0847
 1539TIP3    H226177   0.074   4.317   1.289  1.1635 -0.2825  0.0878
 1540TIP3   OH226178   1.849   6.794   2.320 -0.0979 -0.4245 -0.0648
 1540TIP3    H126179   1.818   6.818   2.233  0.4871 -0.3446 -0.2582
 1540TIP3    H226180   1.909   6.865   2.344 -0.2903 -0.4273  0.4179
 1541TIP3   OH226181   0.740   2.846   2.085 -0.0266 -0.0273 -0.2235
 1541TIP3    H126182   0.700   2.857   1.998  0.9945  1.6588 -0.5225
 1541TIP3    H226183   0.820   2.796   2.068 -0.7727 -1.3634  0.0495
 1542TIP3   OH226184   3.617   0.361   1.644 -0.2203  0.0750  0.5462
 1542TIP3    H126185   3.692   0.310   1.612 -0.2825 -0.6554  1.5279
 1542TIP3    H226186   3.657   0.437   1.687 -0.0849  0.2146  0.1815
 1543TIP3   OH226187   5.144   4.473   3.104 -0.3499 -0.2832 -0.8213
 1543TIP3    H126188   5.177   4.531   3.034 -0.1954  0.4806 -0.1323
 1543TIP3    H226189   5.049   4.485   3.101 -0.7573 -2.9794 -3.2420
 1544TIP3   OH226190   6.839   0.509   8.548  0.4245  0.1119  0.1223
 1544TIP3    H126191   6.920   0.483   8.592 -0.9475 -1.3965  1.9148
 1544TIP3    H226192   6.784   0.430   8.550 -1.6262  1.4681  0.2424
 1545TIP3   OH226193   2.601   2.369   1.732  0.5578  0.2500 -0.3601
 1545TIP3    H126194   2.657   2.438   1.696  0.8093 -0.6733 -1.8311
 1545TIP3    H226195   2.653   2.289   1.722 -0.8194 -0.5586 -1.3023
 1546TIP3   OH226196   2.117   6.043   2.696  0.1642 -0.3493  0.2813
 1546TIP3    H126197   2.103   6.020   2.788 -0.3889  0.6156  0.4475
 1546TIP3    H226198   2.039   6.009   2.652  0.9888 -1.8988 -0.0465
 1547TIP3   OH226199   6.568   1.344   3.263  0.0024 -0.5883  0.3111
 1547TIP3    H126200   6.647   1.393   3.241 -0.3341 -0.4496 -0.6371
 1547TIP3    H226201   6.600   1.257   3.289  0.5116 -0.2687  0.7802
 1548TIP3   OH226202   6.609   6.651   2.833 -0.3293 -0.3690  0.0449
 1548TIP3    H126203   6.636   6.741   2.819 -1.1551  0.0713  1.1122
 1548TIP3    H226204   6.669   6.599   2.779  1.9352  0.5990  1.4894
 1549TIP3   OH226205   0.499   3.379   0.004  0.1121  0.4559  0.5386
 1549TIP3    H126206   0.555   3.409  -0.068 -0.6987  0.5169 -0.0825
 1549TIP3    H226207   0.480   3.459   0.054 -2.9619  1.3381 -1.7515
 1550TIP3   OH226208   3.476   6.662   0.261 -0.4355 -0.1342  0.0873
 1550TIP3    H126209   3.473   6.600   0.334  0.0665 -0.5380 -0.2253
 1550TIP3    H226210   3.550   6.632   0.208  0.0903  0.9772  0.1547
 1551TIP3   OH226211   2.354   6.046   0.571  0.6910 -0.3627 -0.0980
 1551TIP3    H126212   2.427   6.083   0.521  0.3469 -1.7310 -1.7360
 1551TIP3    H226213   2.369   5.951   0.568  0.6515 -0.5064  2.4965
 1552TIP3   OH226214   2.979   2.236   1.427 -0.5312  0.0617  0.9417
 1552TIP3    H126215   2.946   2.246   1.517 -1.5314  0.0795  0.5907
 1552TIP3    H226216   3.003   2.144   1.421 -1.8918 -0.3108  0.7881
 1553TIP3   OH226217   3.587   2.403   8.373 -0.1048  0.3291  0.3935
 1553TIP3    H126218   3.549   2.389   8.286 -0.7891 -1.0905  0.8914
 1553TIP3    H226219   3.538   2.477   8.408  0.0026  0.7516 -0.3304
 1554TIP3   OH226220   3.162   6.536   2.299  0.0369  0.0926  0.0091
 1554TIP3    H126221   3.221   6.465   2.325 -2.1267 -1.3752  1.1585
 1554TIP3    H226222   3.217   6.615   2.301  2.6550 -1.5220 -1.8289
 1555TIP3   OH226223   6.002   3.392   8.036 -0.0258  0.2567 -0.3747
 1555TIP3    H126224   6.096   3.394   8.051 -0.0698 -1.4292  0.4742
 1555TIP3    H226225   5.982   3.299   8.023 -1.4926  0.6428 -1.1306
 1556TIP3   OH226226   2.148   3.167   0.297 -0.3021 -0.3265 -0.3471
 1556TIP3    H126227   2.109   3.084   0.269  0.5630 -1.4627  1.5970
 1556TIP3    H226228   2.235   3.167   0.258  0.0143 -0.7681  0.3373
 1557TIP3   OH226229   4.281   3.644   2.649 -0.3665  0.7772 -0.6503
 1557TIP3    H126230   4.324   3.730   2.646  0.5765  0.3054 -0.7509
 1557TIP3    H226231   4.284   3.620   2.742 -0.9606  1.0097 -0.5660
 1558TIP3   OH226232   5.150   3.136   3.742 -0.4534  0.2231  0.1796
 1558TIP3    H126233   5.223   3.170   3.794  0.9054 -0.3827 -1.2395
 1558TIP3    H226234   5.142   3.045   3.768  0.1709 -0.0572 -0.5881
 1559TIP3   OH226235   0.199   4.598   1.680 -0.6283  0.5915 -0.0782
 1559TIP3    H126236   0.126   4.535   1.690 -0.2724  0.1729 -0.0755
 1559TIP3    H226237   0.189   4.631   1.591 -0.7580  0.4518 -0.1182
 1560TIP3   OH226238   5.481   2.084   2.864 -0.3253  0.0867 -0.3803
 1560TIP3    H126239   5.459   2.143   2.792 -1.9958  0.6689  0.5574
 1560TIP3    H226240   5.433   2.119   2.939  1.7976 -0.1696  1.1806
 1561TIP3   OH226241   6.155   0.249   3.131  0.2840 -0.1356 -0.5189
 1561TIP3    H126242   6.199   0.333   3.137 -0.5272  0.2805 -0.2663
 1561TIP3    H226243   6.104   0.255   3.049 -0.7333  0.1032  0.1143
 1562TIP3   OH226244   5.348   4.417   2.463  0.0354 -0.4983 -0.9318
 1562TIP3    H126245   5.312   4.481   2.525  0.2888  0.3146 -1.5912
 1562TIP3    H226246   5.408   4.364   2.514 -0.3203 -0.3288 -0.3273
 1563TIP3   OH226247   1.362   6.306   8.714 -0.0451  1.2103 -0.5918
 1563TIP3    H126248   1.316   6.301   8.630 -3.3974 -0.8114  1.1138
 1563TIP3    H226249   1.419   6.229   8.715  1.5532  2.3367 -1.7310
 1564TIP3   OH226250   1.216   4.360   1.684  0.4761 -0.7422  0.7128
 1564TIP3    H126251   1.196   4.316   1.601  0.7949 -1.5773  1.0707
 1564TIP3    H226252   1.155   4.434   1.686 -0.5159 -1.5164  0.3816
 1565TIP3   OH226253   1.657   6.480   8.481 -0.1903 -0.0274 -0.2618
 1565TIP3    H126254   1.562   6.472   8.474 -0.2055  0.8135 -1.1851
 1565TIP3    H226255   1.672   6.512   8.570 -0.7574 -0.2403 -0.0867
 1566TIP3   OH226256   6.840   1.902   7.728  0.2222 -0.2904 -0.4598
 1566TIP3    H126257   6.796   1.948   7.800 -0.7188 -0.9746 -0.5863
 1566TIP3    H226258   6.858   1.970   7.664  0.6416  0.2452  0.2098
 1567TIP3   OH226259   1.333   1.050   2.086  0.0568 -0.1477 -0.0892
 1567TIP3    H126260   1.285   1.101   2.151 -0.8443  0.6841 -1.3596
 1567TIP3    H226261   1.286   0.967   2.082 -1.9569  0.9723 -1.9599
 1568TIP3   OH226262   4.872   5.655   4.033 -0.0735 -0.2405  0.3400
 1568TIP3    H126263   4.927   5.601   3.976 -1.5143 -1.5249  0.1000
 1568TIP3    H226264   4.837   5.594   4.098  0.6170  0.9847  1.9455
 1569TIP3   OH226265   0.931   3.095   8.685  0.1221  0.0683 -0.2957
 1569TIP3    H126266   0.965   3.009   8.662  1.3098  0.4941 -0.1622
 1569TIP3    H226267   0.984   3.156   8.634 -0.9346  0.7181 -0.6532
 1570TIP3   OH226268   5.601   6.178   8.471 -0.5241  0.7322 -0.4227
 1570TIP3    H126269   5.574   6.226   8.392  0.3248 -0.4825 -1.4961
 1570TIP3    H226270   5.520   6.140   8.504 -0.6480 -0.3719 -1.8722
 1571TIP3   OH226271   0.544   6.569   1.210  0.0980  0.6276  0.5059
 1571TIP3    H126272   0.576   6.580   1.120  0.4138 -0.5247  0.4689
 1571TIP3    H226273   0.610   6.613   1.264  0.8854 -0.2716  0.2997
 1572TIP3   OH226274   5.574   5.205   3.703  0.4825  0.2157  0.5578
 1572TIP3    H126275   5.560   5.219   3.797  1.4871  0.8723  0.6285
 1572TIP3    H226276   5.669   5.202   3.693  0.4261  1.3923 -0.5958
 1573TIP3   OH226277   0.464   3.091   2.557 -1.0628  0.3716  0.8574
 1573TIP3    H126278   0.544   3.039   2.549 -0.5999  1.3577 -1.7772
 1573TIP3    H226279   0.462   3.118   2.649  3.1487  2.5553  0.5369
 1574TIP3   OH226280   2.643   2.964   0.249 -0.1239 -0.6819  0.3832
 1574TIP3    H126281   2.647   2.996   0.339  0.6806  0.6249 -0.0995
 1574TIP3    H226282   2.734   2.961   0.220 -0.3286 -1.6401 -0.2226
 1575TIP3   OH226283   5.147   2.768   1.958  0.0429 -0.3937  0.2642
 1575TIP3    H126284   5.174   2.697   2.015 -1.1386 -0.2365  1.0512
 1575TIP3    H226285   5.199   2.843   1.986 -0.7774 -0.2299  1.3871
 1576TIP3   OH226286   4.542   3.802   0.564  0.5899  0.3998  0.1927
 1576TIP3    H126287   4.637   3.801   0.567  0.6147 -1.7998  1.9798
 1576TIP3    H226288   4.518   3.713   0.537 -0.9596  0.8033  0.1271
 1577TIP3   OH226289   0.445   0.192   0.060  0.1298  0.2475  0.1121
 1577TIP3    H126290   0.407   0.114   0.018 -0.7714  0.0295  1.2670
 1577TIP3    H226291   0.402   0.266   0.017 -0.1405  0.0576  0.0554
 1578TIP3   OH226292   0.550   1.832   2.178  0.1679 -0.2549  0.3076
 1578TIP3    H126293   0.479   1.769   2.170  0.1014 -0.1428  0.0021
 1578TIP3    H226294   0.630   1.780   2.164  0.2309 -0.6024  1.7660
 1579TIP3   OH226295   0.688   2.063   2.543  0.2494  0.3085  0.5106
 1579TIP3    H126296   0.748   2.101   2.479 -1.5687  0.2224 -1.3599
 1579TIP3    H226297   0.658   2.137   2.595  1.1723  0.5013  0.7805
 1580TIP3   OH226298   6.466   4.590   2.410 -0.0283  0.4089  0.1318
 1580TIP3    H126299   6.486   4.674   2.369 -0.6817  1.0769  1.1568
 1580TIP3    H226300   6.395   4.608   2.471  0.6575 -0.6231  1.3004
 1581TIP3   OH226301   2.572   4.594   0.316  0.2264 -0.0447 -0.0493
 1581TIP3    H126302   2.633   4.564   0.383  0.2410  0.8487  0.3495
 1581TIP3    H226303   2.507   4.525   0.311  0.8315 -0.6404  0.0885
 1582TIP3   OH226304   4.691   0.455   8.602 -0.5028  0.1318  0.2732
 1582TIP3    H126305   4.778   0.424   8.626 -0.2920  0.7114  0.2801
 1582TIP3    H226306   4.690   0.547   8.628 -0.1231  0.9207 -2.2321
 1583TIP3   OH226307   4.635   5.079   3.389 -0.3755  0.1251 -0.3062
 1583TIP3    H126308   4.552   5.063   3.435 -0.4621 -1.4370 -0.9612
 1583TIP3    H226309   4.701   5.084   3.458 -0.8954  0.5661  0.1659
 1584TIP3   OH226310   1.216   1.471   1.240 -0.1272  0.0012 -0.2533
 1584TIP3    H126311   1.258   1.525   1.173 -0.8944  0.7744 -0.1293
 1584TIP3    H226312   1.169   1.533   1.295 -0.5787 -0.7500  0.2251
 1585TIP3   OH226313   0.126   4.932   3.032  0.2684  0.0238  0.1495
 1585TIP3    H126314   0.031   4.926   3.032  0.3026 -0.6801 -0.4205
 1585TIP3    H226315   0.150   4.929   2.939  0.8887 -0.6217  0.3242
 1586TIP3   OH226316   1.371   0.164   7.809  0.4695  0.8493  0.1565
 1586TIP3    H126317   1.296   0.209   7.770 -0.5691 -0.5160  0.5033
 1586TIP3    H226318   1.445   0.222   7.791 -0.5402  1.9094 -0.8035
 1587TIP3   OH226319   5.882   3.398   8.634  0.5607  0.1216  0.1155
 1587TIP3    H126320   5.896   3.481   8.588  2.2999 -0.5068 -0.5521
 1587TIP3    H226321   5.954   3.342   8.605  0.2348 -1.1539  1.6523
 1588TIP3   OH226322   6.234   6.830   3.461 -0.5162  0.6201 -0.4911
 1588TIP3    H126323   6.279   6.803   3.542 -0.1807  0.5188 -0.7086
 1588TIP3    H226324   6.204   6.919   3.478 -1.7487  0.0828  0.2881
 1589TIP3   OH226325   6.161   3.656   1.682  0.2612  0.3749 -0.1135
 1589TIP3    H126326   6.144   3.691   1.595  0.8880 -0.9190 -0.7928
 1589TIP3    H226327   6.192   3.566   1.666  2.1074  0.6890  1.3195
 1590TIP3   OH226328   6.604   2.633   1.362 -0.0612  0.5541 -0.4017
 1590TIP3    H126329   6.523   2.682   1.375 -1.5724 -0.9767 -3.1575
 1590TIP3    H226330   6.596   2.595   1.274  3.2429 -0.4730 -0.4125
 1591TIP3   OH226331   6.841   1.203   2.758  0.2982 -0.0848 -0.2981
 1591TIP3    H126332   6.755   1.162   2.756  0.3088 -0.0940 -0.6333
 1591TIP3    H226333   6.884   1.165   2.835  0.5560 -1.2086 -0.9807
 1592TIP3   OH226334   4.662   1.213   2.158  0.0021 -0.1127  0.4024
 1592TIP3    H126335   4.602   1.202   2.232 -0.5772 -1.3557 -0.2335
 1592TIP3    H226336   4.746   1.180   2.191 -0.3284 -0.9594  0.4210
 1593TIP3   OH226337   4.534   0.984   8.363 -0.2270  0.0445 -0.2089
 1593TIP3    H126338   4.508   1.040   8.290 -0.6855  0.6632  0.4094
 1593TIP3    H226339   4.588   1.041   8.418 -0.7768 -0.0889  0.4756
 1594TIP3   OH226340   3.282   0.178   1.840  0.0100  0.0210 -0.0798
 1594TIP3    H126341   3.189   0.199   1.841 -0.7963 -3.0560 -1.1037
 1594TIP3    H226342   3.309   0.185   1.931 -1.3673  0.3475  0.3213
 1595TIP3   OH226343   1.372   2.285   3.191  0.3335  0.2033 -0.7385
 1595TIP3    H126344   1.396   2.195   3.169 -0.0952  0.0459 -0.5724
 1595TIP3    H226345   1.443   2.338   3.155  0.6370 -0.2075 -0.7542
 1596TIP3   OH226346   6.687   3.068   8.300  0.0388 -0.0467 -0.3597
 1596TIP3    H126347   6.624   3.010   8.344 -0.7455  0.1807 -1.1395
 1596TIP3    H226348   6.634   3.141   8.268  0.7695  0.3475 -0.6904
 1597TIP3   OH226349   2.502   3.707   7.816  0.1679  0.0129  0.0234
 1597TIP3    H126350   2.590   3.670   7.813  0.0679 -0.3346  0.9045
 1597TIP3    H226351   2.511   3.796   7.784  1.2190  0.6560  1.9914
 1598TIP3   OH226352   0.462   0.196   0.327 -0.8040  0.3240 -0.6435
 1598TIP3    H126353   0.457   0.205   0.232 -0.6968  0.0901 -0.6730
 1598TIP3    H226354   0.517   0.269   0.355 -3.2442  2.2079 -0.4294
 1599TIP3   OH226355   0.077   6.676   1.803 -0.4510 -0.6863  0.4178
 1599TIP3    H126356   0.038   6.592   1.828 -1.0531 -0.8977 -1.1153
 1599TIP3    H226357   0.157   6.682   1.855  0.1183 -2.6869 -0.1355
 1600TIP3   OH226358   1.149   4.744   1.941  0.2490 -0.4736  0.6315
 1600TIP3    H126359   1.089   4.778   2.007 -0.7555  0.0671 -0.5250
 1600TIP3    H226360   1.093   4.699   1.878  1.1742 -0.8375  0.0416
 1601TIP3   OH226361   1.044   2.835   8.659 -0.0408 -0.1666  0.1948
 1601TIP3    H126362   1.017   2.743   8.671 -1.8389  0.2153 -0.5200
 1601TIP3    H226363   1.139   2.833   8.664 -0.0963 -1.8607  1.5891
 1602TIP3   OH226364   2.587   4.002   8.042 -0.5065 -0.1202  0.0219
 1602TIP3    H126365   2.639   4.034   7.968 -0.4582  1.6308  0.7616
 1602TIP3    H226366   2.628   4.041   8.119 -0.9475 -1.3847  0.9305
 1603TIP3   OH226367   5.256   0.292   2.819  0.2733 -0.5225 -0.3517
 1603TIP3    H126368   5.276   0.383   2.797 -0.7903 -0.3656 -0.7166
 1603TIP3    H226369   5.313   0.272   2.894  2.4970 -0.4206 -1.8963
 1604TIP3   OH226370   4.724   3.748   0.871  0.7042  0.1279  0.1418
 1604TIP3    H126371   4.717   3.662   0.912  0.5583  0.3097  0.4984
 1604TIP3    H226372   4.741   3.729   0.778 -0.1108 -0.2877  0.0694
 1605TIP3   OH226373   2.235   5.367   0.202  0.1152 -0.0509  0.1704
 1605TIP3    H126374   2.265   5.442   0.151 -0.3270 -0.6509 -1.0118
 1605TIP3    H226375   2.227   5.400   0.292 -0.1961  1.3477 -0.3487
 1606TIP3   OH226376   5.246   0.335   3.844  0.2343 -0.0520 -0.2966
 1606TIP3    H126377   5.313   0.347   3.776  0.6475 -1.6019 -0.2061
 1606TIP3    H226378   5.296   0.326   3.925 -0.0912 -0.8154 -0.1720
 1607TIP3   OH226379   3.088   3.528   2.683 -0.1313  0.2651 -0.0959
 1607TIP3    H126380   3.122   3.461   2.623  1.6595  0.6683  0.4079
 1607TIP3    H226381   3.166   3.566   2.723 -1.1905  1.5557  0.8310
 1608TIP3   OH226382   5.702   6.613   1.236 -0.0527 -0.4026 -0.1938
 1608TIP3    H126383   5.643   6.672   1.285 -0.3567  1.1755 -2.3227
 1608TIP3    H226384   5.771   6.671   1.203  1.0393 -1.7141 -0.2731
 1609TIP3   OH226385   1.113   2.169   0.796 -0.1045 -0.3396 -0.1485
 1609TIP3    H126386   1.147   2.103   0.856  1.7951 -0.8254 -1.6586
 1609TIP3    H226387   1.107   2.249   0.849  1.0931 -0.8428  0.7815
 1610TIP3   OH226388   6.179   5.253   7.821  0.1568 -0.9023 -0.4018
 1610TIP3    H126389   6.155   5.299   7.901  3.2308  0.0809  0.0844
 1610TIP3    H226390   6.274   5.246   7.825  0.6556  0.5842 -4.6848
 1611TIP3   OH226391   4.070   6.019   0.933  0.5221 -0.1858  0.2612
 1611TIP3    H126392   3.999   5.956   0.922 -0.4536  0.7351  1.0906
 1611TIP3    H226393   4.150   5.966   0.931 -0.2227 -1.3199 -0.0177
 1612TIP3   OH226394   4.140   5.470   3.314  0.0469 -0.5597  0.0977
 1612TIP3    H126395   4.119   5.382   3.343  0.1895  0.1204  2.4654
 1612TIP3    H226396   4.076   5.526   3.358  0.5855  0.6120 -0.5554
 1613TIP3   OH226397   1.300   0.122   0.716  0.1797  0.5311  0.1260
 1613TIP3    H126398   1.275   0.194   0.658  1.0044  0.2147 -0.6452
 1613TIP3    H226399   1.332   0.165   0.795 -1.5756  0.9611  0.6674
 1614TIP3   OH226400   0.193   5.900   0.204 -0.2379 -0.0928 -0.0061
 1614TIP3    H126401   0.134   5.870   0.273 -0.7976  0.9341 -0.0113
 1614TIP3    H226402   0.201   5.995   0.219 -0.8897  0.2661 -1.7139
 1615TIP3   OH226403   0.967   4.892   0.958 -0.5552 -0.0037 -0.4010
 1615TIP3    H126404   1.004   4.828   1.019 -1.0859 -1.7529 -1.8308
 1615TIP3    H226405   1.033   4.962   0.955  0.3088 -0.7142  0.8109
 1616TIP3   OH226406   5.041   6.644   1.017 -0.0126 -0.2544 -0.5355
 1616TIP3    H126407   4.956   6.685   1.029 -0.3490 -1.0965  0.0683
 1616TIP3    H226408   5.079   6.641   1.105  1.7912  2.4525 -1.1015
 1617TIP3   OH226409   5.787   4.956   3.511 -0.1360 -0.4103  0.2688
 1617TIP3    H126410   5.848   4.891   3.548 -0.2596 -0.2968  0.6789
 1617TIP3    H226411   5.812   5.038   3.552 -0.2966 -0.2880  0.1206
 1618TIP3   OH226412   0.278   2.122   0.985 -0.0742 -0.1725 -0.4607
 1618TIP3    H126413   0.351   2.160   1.035 -0.3389 -0.8212  0.4345
 1618TIP3    H226414   0.201   2.170   1.015 -0.4526 -1.5499  0.8746
 1619TIP3   OH226415   2.029   1.618   3.928 -0.5493 -0.1862  0.1737
 1619TIP3    H126416   1.997   1.600   4.017 -0.8586 -2.1297 -0.2651
 1619TIP3    H226417   1.985   1.699   3.902 -0.9405  0.0679  1.5634
 1620TIP3   OH226418   0.984   5.267   3.196  0.1638 -0.1599 -0.5498
 1620TIP3    H126419   0.897   5.300   3.221  0.6696  1.7631 -1.1416
 1620TIP3    H226420   0.968   5.177   3.168 -1.5153 -0.0866  0.0414
 1621TIP3   OH226421   6.219   3.384   1.338  0.1470 -0.1714  0.0971
 1621TIP3    H126422   6.296   3.393   1.281  1.2123  0.6682  1.5915
 1621TIP3    H226423   6.158   3.330   1.287  0.4043  1.7331 -2.4508
 1622TIP3   OH226424   3.702   2.712   8.597  0.0018 -0.0665  0.6219
 1622TIP3    H126425   3.771   2.649   8.575  0.0900  0.5852 -1.0749
 1622TIP3    H226426   3.620   2.664   8.582  0.0725  0.0745 -0.2598
 1623TIP3   OH226427   1.959   3.292   1.052  0.0302  0.2806  0.2668
 1623TIP3    H126428   2.046   3.256   1.032  0.8128 -0.5207  4.2488
 1623TIP3    H226429   1.900   3.244   0.993  1.8992 -1.7951 -0.0957
 1624TIP3   OH226430   2.575   6.300   2.437  0.6930  0.3001 -0.2840
 1624TIP3    H126431   2.580   6.353   2.357 -0.7720  0.2064 -0.4563
 1624TIP3    H226432   2.581   6.210   2.406 -0.9645  0.2113 -0.4357
 1625TIP3   OH226433   5.209   1.506   0.684 -0.7850 -0.2211 -0.1459
 1625TIP3    H126434   5.284   1.477   0.632 -1.2951  1.5001 -1.9846
 1625TIP3    H226435   5.202   1.443   0.755  3.1800  0.2502  0.8664
 1626TIP3   OH226436   4.014   3.094   1.477  0.2259  0.1525  0.0240
 1626TIP3    H126437   3.965   3.023   1.519  1.3658 -0.4766  0.3308
 1626TIP3    H226438   4.002   3.079   1.383 -3.4163  2.3071 -0.0646
 1627TIP3   OH226439   6.119   5.348   2.701  0.2222 -0.6985 -0.5464
 1627TIP3    H126440   6.088   5.284   2.765  3.2440 -0.7336  1.0661
 1627TIP3    H226441   6.212   5.326   2.689  0.6239  1.5987 -2.1795
 1628TIP3   OH226442   3.370   6.347   8.325  0.4171  0.4004  0.1767
 1628TIP3    H126443   3.453   6.307   8.351 -0.1936  0.2892  2.1319
 1628TIP3    H226444   3.349   6.306   8.240  0.9670 -1.7420  0.9948
 1629TIP3   OH226445   3.581   1.114   2.589  0.0994 -0.4164  0.3569
 1629TIP3    H126446   3.580   1.124   2.494 -0.6342 -0.7562  0.3274
 1629TIP3    H226447   3.674   1.102   2.610  0.1839 -1.2085 -0.4087
 1630TIP3   OH226448   4.069   2.578   0.297 -0.0441  0.5357 -0.4360
 1630TIP3    H126449   4.161   2.604   0.298  0.2211 -0.3651 -0.1732
 1630TIP3    H226450   4.042   2.583   0.389  0.5000 -1.6724 -0.0876
 1631TIP3   OH226451   0.497   4.291   3.786  0.0771  0.1523 -0.3594
 1631TIP3    H126452   0.591   4.306   3.785 -0.2175  2.3216  0.2945
 1631TIP3    H226453   0.483   4.231   3.860  0.8680  0.3298 -0.0561
 1632TIP3   OH226454   6.456   2.381   1.524  0.0382 -0.6139  0.1728
 1632TIP3    H126455   6.461   2.462   1.574 -1.7924 -0.3007 -0.0674
 1632TIP3    H226456   6.497   2.315   1.580  3.3038  0.7244 -0.3867
 1633TIP3   OH226457   3.628   3.746   8.489 -0.0501  0.5359  0.4301
 1633TIP3    H126458   3.633   3.832   8.448  0.2376  0.6939  0.7959
 1633TIP3    H226459   3.663   3.758   8.577  1.0909 -0.1967  0.0987
 1634TIP3   OH226460   6.049   0.338   1.551 -0.0466  0.2558  0.6421
 1634TIP3    H126461   6.005   0.417   1.520  1.0363  1.0064  0.9979
 1634TIP3    H226462   6.058   0.350   1.645 -1.5908 -1.1626  1.0243
 1635TIP3   OH226463   6.195   6.067   0.348  0.0548  0.1272 -0.0009
 1635TIP3    H126464   6.193   6.162   0.360 -0.6822  0.1047  0.1024
 1635TIP3    H226465   6.165   6.054   0.258  0.8002  0.0216 -0.2424
 1636TIP3   OH226466   1.769   0.973   1.519  0.0576  0.3905  0.2760
 1636TIP3    H126467   1.686   1.010   1.491  0.0444 -1.1412 -2.0614
 1636TIP3    H226468   1.808   0.939   1.438  1.2699 -2.1796  1.7961
 1637TIP3   OH226469   0.033   4.556   2.291 -0.3416  0.3196  0.0119
 1637TIP3    H126470   0.082   4.554   2.373  0.2180 -1.7157 -0.3315
 1637TIP3    H226471   0.086   4.610   2.233  1.0939 -1.1132 -0.0733
 1638TIP3   OH226472   5.474   5.561   3.106  0.4549  0.2909  0.0743
 1638TIP3    H126473   5.436   5.647   3.123 -2.5490 -0.8977 -0.0203
 1638TIP3    H226474   5.445   5.538   3.018  2.6958 -0.1511 -0.6088
 1639TIP3   OH226475   6.164   5.866   0.540  0.1070 -1.0845  0.1590
 1639TIP3    H126476   6.194   5.909   0.460 -0.4254 -0.5938  0.2095
 1639TIP3    H226477   6.170   5.934   0.607  1.3685 -1.7375  0.7343
 1640TIP3   OH226478   3.161   3.786   8.100 -0.3523 -0.1031 -0.0470
 1640TIP3    H126479   3.210   3.715   8.142 -0.7023 -1.2540 -1.4795
 1640TIP3    H226480   3.108   3.824   8.170  3.6666  2.3560  2.0365
 1641TIP3   OH226481   3.032   5.664   0.656  0.0041 -0.2607 -0.6024
 1641TIP3    H126482   3.001   5.594   0.714  0.1756 -0.6841 -1.0068
 1641TIP3    H226483   3.010   5.745   0.701 -1.4453 -0.5491 -0.7650
 1642TIP3   OH226484   5.877   5.353   7.826  0.3513 -0.2732 -0.8447
 1642TIP3    H126485   5.958   5.403   7.815  0.6863 -0.2128  1.4964
 1642TIP3    H226486   5.900   5.283   7.886 -1.4438  0.0924  0.3431
 1643TIP3   OH226487   6.469   2.106   0.781  0.7079 -0.9630  0.4168
 1643TIP3    H126488   6.443   2.057   0.858 -1.0077 -0.2797  0.3139
 1643TIP3    H226489   6.404   2.084   0.715  0.2935  0.8681  0.1589
 1644TIP3   OH226490   6.727   4.524   2.896 -0.0680 -0.2722 -0.1803
 1644TIP3    H126491   6.713   4.478   2.979 -1.2971 -0.3653 -0.4278
 1644TIP3    H226492   6.772   4.460   2.841  0.8712 -0.1690  0.4390
 1645TIP3   OH226493   3.486   5.545   0.765 -0.4304 -0.5439 -0.3764
 1645TIP3    H126494   3.479   5.582   0.677  0.7902 -2.0952 -1.1984
 1645TIP3    H226495   3.403   5.498   0.778 -0.4491 -0.6614 -0.8923
 1646TIP3   OH226496   1.721   2.424   0.141 -0.4664 -0.4639  0.3105
 1646TIP3    H126497   1.728   2.502   0.085 -2.4315  0.9652  1.9168
 1646TIP3    H226498   1.763   2.450   0.223 -1.8292 -0.7993  1.1324
 1647TIP3   OH226499   2.276   0.448   1.449 -0.1639  0.1877 -0.1272
 1647TIP3    H126500   2.315   0.531   1.422 -0.3851  0.7346  1.1452
 1647TIP3    H226501   2.290   0.389   1.375 -0.5372  1.5232 -1.3037
 1648TIP3   OH226502   5.144   0.022   0.746  0.0650  0.4737  0.2089
 1648TIP3    H126503   5.149   0.091   0.681  1.2608 -0.0658 -0.3132
 1648TIP3    H226504   5.091  -0.047   0.705  0.6554  0.2151 -0.1420
 1649TIP3   OH226505   2.350   0.009   8.689  0.6644  0.0096 -0.1691
 1649TIP3    H126506   2.435   0.034   8.726  0.3398  1.4244 -0.3310
 1649TIP3    H226507   2.320  -0.063   8.745  0.3344  1.8506  2.2227
 1650TIP3   OH226508   5.586   1.839   3.526  0.2365 -0.1706 -0.4414
 1650TIP3    H126509   5.515   1.784   3.492 -1.9472  2.5537 -0.6827
 1650TIP3    H226510   5.553   1.871   3.610  1.7403  0.1711  0.0425
 1651TIP3   OH226511   4.291   3.799   7.452 -0.3134 -0.1819 -0.1936
 1651TIP3    H126512   4.287   3.886   7.414 -2.4687  0.2681  0.9248
 1651TIP3    H226513   4.229   3.747   7.400  0.7263 -0.9940 -0.6626
 1652TIP3   OH226514   2.455   0.648   1.581 -0.1923  0.0652  0.0705
 1652TIP3    H126515   2.395   0.706   1.534 -0.1414 -0.7500 -1.0435
 1652TIP3    H226516   2.542   0.680   1.557 -0.1667  0.4073  0.6046
 1653TIP3   OH226517   1.947   1.345   2.680  0.8605  0.4542 -0.2109
 1653TIP3    H126518   1.909   1.259   2.661  1.0036  0.6732 -1.6425
 1653TIP3    H226519   1.917   1.366   2.768 -0.8435 -0.1810 -0.6024
 1654TIP3   OH226520   5.109   5.794   2.249  0.1197  0.3394  0.5219
 1654TIP3    H126521   5.163   5.866   2.215  0.0387  0.4069  0.5371
 1654TIP3    H226522   5.021   5.812   2.216 -0.2897  1.2236  1.9939
 1655TIP3   OH226523   5.425   4.825   1.632  0.6950 -0.5387 -0.2644
 1655TIP3    H126524   5.475   4.765   1.687 -0.2002 -1.4141 -0.3940
 1655TIP3    H226525   5.335   4.796   1.640  0.0246  1.6269  0.7500
 1656TIP3   OH226526   0.424   2.838   0.932 -0.4424  0.3476  0.5447
 1656TIP3    H126527   0.378   2.755   0.922  0.1260  0.2064 -1.2307
 1656TIP3    H226528   0.369   2.901   0.886  1.5126 -0.0103 -2.5368
 1657TIP3   OH226529   0.623   1.847   0.152  0.2251 -0.2835  0.8119
 1657TIP3    H126530   0.705   1.868   0.109  1.1179 -0.5162  2.3118
 1657TIP3    H226531   0.557   1.895   0.103  1.4563  1.1902  0.5385
 1658TIP3   OH226532   6.069   4.695   3.200 -0.1566  0.0368  0.1241
 1658TIP3    H126533   6.068   4.706   3.105 -0.9527 -0.7398  0.0317
 1658TIP3    H226534   6.152   4.734   3.227  1.8341 -2.8345 -1.3027
 1659TIP3   OH226535   6.496   5.080   2.165  0.0889 -0.0679  0.1185
 1659TIP3    H126536   6.412   5.126   2.161 -0.4500 -0.9010  1.2475
 1659TIP3    H226537   6.560   5.150   2.179 -0.7719  0.3873  2.3954
 1660TIP3   OH226538   5.700   6.194   3.100 -0.5815  0.0299 -0.1796
 1660TIP3    H126539   5.704   6.269   3.160  0.4732 -0.2686  0.1445
 1660TIP3    H226540   5.780   6.144   3.119 -0.6250 -0.4889 -1.2964
 1661TIP3   OH226541   5.879   6.391   1.148 -0.0602 -0.5836 -0.2833
 1661TIP3    H126542   5.791   6.416   1.118  0.0809  1.0781  0.5895
 1661TIP3    H226543   5.873   6.392   1.243  1.1822  0.7281 -0.1882
 1662TIP3   OH226544   3.957   3.955   1.784 -0.1596  0.0837 -0.3937
 1662TIP3    H126545   3.943   3.860   1.785  0.8110 -0.1041 -1.5901
 1662TIP3    H226546   3.896   3.989   1.849 -0.6074 -1.3514 -0.0231
 1663TIP3   OH226547   5.468   3.176   1.727  0.0200  0.3949  0.4351
 1663TIP3    H126548   5.397   3.131   1.681  1.1166 -1.0958  0.1363
 1663TIP3    H226549   5.494   3.115   1.797  1.7686  0.3803 -0.1885
 1664TIP3   OH226550   3.912   4.692   1.647 -0.4821  0.3148 -0.4023
 1664TIP3    H126551   3.930   4.744   1.725  0.6891  0.1830 -0.5636
 1664TIP3    H226552   3.834   4.642   1.669 -0.4504  0.6521  0.5085
 1665TIP3   OH226553   0.029   2.043   1.661 -0.0401 -0.1852 -0.2351
 1665TIP3    H126554   0.109   2.093   1.677  0.2219 -0.3786 -0.8876
 1665TIP3    H226555  -0.008   2.029   1.748 -0.1428  1.1710 -0.0291
 1666TIP3   OH226556   3.702   2.521   0.285  0.7599  0.5754  0.2994
 1666TIP3    H126557   3.653   2.529   0.367 -1.9714  0.6221 -1.2049
 1666TIP3    H226558   3.713   2.426   0.273 -1.9493  0.3225 -0.8654
 1667TIP3   OH226559   6.009   3.114   2.424  0.2023 -0.2663 -0.2244
 1667TIP3    H126560   6.020   3.100   2.518  0.4813  1.1764 -0.0066
 1667TIP3    H226561   5.949   3.189   2.418 -0.9542 -1.2442 -1.2342
 1668TIP3   OH226562   0.427   4.191   1.535  0.4502 -0.4123 -0.3597
 1668TIP3    H126563   0.340   4.174   1.499  0.2298  0.6946 -0.3981
 1668TIP3    H226564   0.438   4.286   1.525  1.3396 -0.4325  0.3634
 1669TIP3   OH226565   2.002   0.372   0.858 -0.4095 -0.0457 -0.5519
 1669TIP3    H126566   2.046   0.288   0.875 -1.3697 -0.2756  1.0167
 1669TIP3    H226567   1.916   0.347   0.824 -0.4705  0.3177 -0.6677
 1670TIP3   OH226568   5.766   0.802   1.862 -0.4920  0.3620 -0.4631
 1670TIP3    H126569   5.751   0.852   1.942 -0.2636 -0.3388  0.0354
 1670TIP3    H226570   5.847   0.753   1.880 -1.4822 -1.2903 -0.3561
 1671TIP3   OH226571   4.173   3.137   2.544  0.2980 -0.2020  0.7480
 1671TIP3    H126572   4.114   3.146   2.619 -1.5608  0.5525 -0.7295
 1671TIP3    H226573   4.195   3.227   2.520  1.8075 -0.4594  1.0309
 1672TIP3   OH226574   4.163   2.926   3.192  0.1778 -0.3849 -0.0361
 1672TIP3    H126575   4.090   2.958   3.244  0.9760  1.4446  0.0229
 1672TIP3    H226576   4.238   2.978   3.221  0.7749  0.3568 -2.6058
 1673TIP3   OH226577   5.383   0.026   0.285  0.5622 -0.3261  0.5968
 1673TIP3    H126578   5.382  -0.068   0.302 -0.5293 -0.3241  0.5795
 1673TIP3    H226579   5.325   0.064   0.351 -0.6005  0.1057 -0.6179
 1674TIP3   OH226580   0.265   2.700   7.881  0.6134 -0.4742 -0.1242
 1674TIP3    H126581   0.309   2.721   7.799 -2.3705  1.3725 -1.4327
 1674TIP3    H226582   0.172   2.714   7.862 -0.2602 -0.5642  3.4332
 1675TIP3   OH226583   1.418   3.541   8.616  0.2167 -0.7903 -0.4660
 1675TIP3    H126584   1.426   3.526   8.522  0.3939 -2.1503 -0.2596
 1675TIP3    H226585   1.367   3.622   8.624  0.2086 -0.6606 -1.7192
 1676TIP3   OH226586   3.066   6.568   1.191 -0.5674  1.2597 -0.1168
 1676TIP3    H126587   3.081   6.582   1.285 -3.0286  0.1824  0.5414
 1676TIP3    H226588   2.973   6.543   1.186  0.4832 -3.1959 -2.2661
 1677TIP3   OH226589   1.457   3.068   0.032  0.0767 -0.1081  0.0200
 1677TIP3    H126590   1.440   3.133  -0.036  0.6055 -1.8855 -1.9282
 1677TIP3    H226591   1.542   3.092   0.069 -0.4418  1.1609  0.4453
 1678TIP3   OH226592   2.595   5.391   7.772  0.1410 -0.0404  0.2886
 1678TIP3    H126593   2.659   5.450   7.812  0.8793 -1.4422  1.2925
 1678TIP3    H226594   2.646   5.342   7.706 -0.5732  0.7602 -0.8833
 1679TIP3   OH226595   1.674   5.116   2.280 -0.1547 -0.0508 -0.2173
 1679TIP3    H126596   1.733   5.072   2.219 -0.4226 -0.1521 -0.4065
 1679TIP3    H226597   1.727   5.131   2.358 -0.1673 -1.0546 -0.0078
 1680TIP3   OH226598   2.779   0.716   3.237 -0.2592 -0.1096  0.5499
 1680TIP3    H126599   2.753   0.749   3.323  1.0201 -1.8162  1.6517
 1680TIP3    H226600   2.766   0.621   3.243  0.5242 -0.3275 -0.8954
 1681TIP3   OH226601   2.710   3.862   2.458 -0.5399 -0.0751 -0.4424
 1681TIP3    H126602   2.656   3.927   2.502  0.3687  0.7948 -0.5733
 1681TIP3    H226603   2.648   3.797   2.425 -1.4181  0.4552  0.1380
 1682TIP3   OH226604   2.520   6.459   0.507  0.0312 -0.7614 -0.4903
 1682TIP3    H126605   2.432   6.430   0.531 -0.7281  0.5837 -1.4923
 1682TIP3    H226606   2.507   6.545   0.468  1.8154 -0.4975 -0.5878
 1683TIP3   OH226607   2.923   1.820   0.268 -0.5298 -0.0988 -0.4631
 1683TIP3    H126608   2.982   1.870   0.324 -2.1844  0.6831  0.6509
 1683TIP3    H226609   2.905   1.740   0.317 -1.2016  0.1399 -0.3089
 1684TIP3   OH226610   6.115   1.327   0.756  0.0522  0.2194 -0.1949
 1684TIP3    H126611   6.135   1.289   0.842  1.1418 -0.0638 -0.5675
 1684TIP3    H226612   6.024   1.356   0.764 -0.5637 -1.7065  0.3854
 1685TIP3   OH226613   5.702   6.564   1.826 -0.4503 -0.1155  0.2700
 1685TIP3    H126614   5.616   6.605   1.820 -0.1060  0.6355  0.3223
 1685TIP3    H226615   5.706   6.504   1.751 -1.0293 -0.1956  0.2995
 1686TIP3   OH226616   6.821   0.370   1.978  0.0591 -0.2877  0.0590
 1686TIP3    H126617   6.780   0.329   2.054 -0.6611  1.2669  0.5475
 1686TIP3    H226618   6.751   0.422   1.937  0.6077 -0.5488 -1.2871
 1687TIP3   OH226619   6.381   3.005   0.563 -0.0955 -0.4097 -0.0821
 1687TIP3    H126620   6.296   3.024   0.523 -1.0406 -3.4985  0.2431
 1687TIP3    H226621   6.367   3.018   0.657 -0.0567 -0.4213 -0.0746
 1688TIP3   OH226622   1.715   0.049   8.526 -0.4622  0.5100 -0.4527
 1688TIP3    H126623   1.803   0.018   8.548 -0.5616  0.8663  0.4967
 1688TIP3    H226624   1.729   0.116   8.459  0.0927  1.2898  0.4088
 1689TIP3   OH226625   2.380   3.134   0.102 -0.2965  0.4517  0.8580
 1689TIP3    H126626   2.372   3.197   0.030 -0.4882  1.0415  1.3869
 1689TIP3    H226627   2.468   3.148   0.137  0.3803 -0.8872 -0.2096
 1690TIP3   OH226628   2.676   6.745   3.554 -0.7889  0.0482  0.8634
 1690TIP3    H126629   2.720   6.674   3.602  0.2412 -0.9154 -1.3805
 1690TIP3    H226630   2.633   6.701   3.481 -0.2249  1.7133 -0.5249
 1691TIP3   OH226631   1.586   6.752   2.439 -0.0320 -0.3523 -0.2384
 1691TIP3    H126632   1.562   6.706   2.360  0.8056 -0.7906 -0.2465
 1691TIP3    H226633   1.680   6.769   2.430 -0.0069 -0.0531  0.4718
 1692TIP3   OH226634   2.411   0.121   8.390  0.2534  0.0096  0.0718
 1692TIP3    H126635   2.350   0.128   8.317 -0.2123 -1.5711  0.2815
 1692TIP3    H226636   2.356   0.097   8.465  1.0778 -1.3178  0.2906
 1693TIP3   OH226637   2.719   4.899   8.534  0.1627  0.4911  0.0315
 1693TIP3    H126638   2.760   4.947   8.462 -0.1079  1.0674  0.2599
 1693TIP3    H226639   2.632   4.878   8.503  0.2258  0.2853 -0.0068
 1694TIP3   OH226640   1.204   2.585   3.032 -0.2899  0.5721  0.5520
 1694TIP3    H126641   1.176   2.531   3.106 -0.9122  0.8442  0.5205
 1694TIP3    H226642   1.166   2.542   2.955 -0.8364  1.0717  0.5320
 1695TIP3   OH226643   2.929   5.396   7.733 -0.1457 -0.0088  0.4071
 1695TIP3    H126644   2.882   5.463   7.782 -2.6343 -0.7148 -0.8041
 1695TIP3    H226645   2.909   5.314   7.779 -0.6326 -0.3921 -0.4514
 1696TIP3   OH226646   0.243   4.241   2.756 -0.6235  0.0511 -0.4746
 1696TIP3    H126647   0.179   4.312   2.760 -2.3397 -1.3274 -2.0068
 1696TIP3    H226648   0.247   4.208   2.845 -0.0367  1.8162  0.2011
 1697TIP3   OH226649   5.226   4.724   1.086  0.1903  0.1367 -0.1167
 1697TIP3    H126650   5.307   4.706   1.038 -0.0723 -1.2069 -0.0703
 1697TIP3    H226651   5.192   4.804   1.045 -0.1330 -1.0501 -2.3547
 1698TIP3   OH226652   1.175   4.879   8.466 -0.2670 -0.2249  0.1174
 1698TIP3    H126653   1.150   4.971   8.481 -0.3600 -0.0296 -1.1691
 1698TIP3    H226654   1.141   4.858   8.380  1.9507 -0.6946 -0.7174
 1699TIP3   OH226655   2.524   6.076   1.382  0.3676  0.7574  0.0536
 1699TIP3    H126656   2.467   6.084   1.458 -0.7892  0.4864 -0.7677
 1699TIP3    H226657   2.491   6.142   1.320  0.3962  0.0107 -0.7714
 1700TIP3   OH226658   2.746   0.470   2.523  0.3636 -0.2585 -0.5118
 1700TIP3    H126659   2.705   0.419   2.593 -0.1655 -0.1940 -0.7743
 1700TIP3    H226660   2.789   0.404   2.468 -0.3055 -0.4236 -0.8408
 1701TIP3   OH226661   1.746   6.428   1.354  0.1429 -0.5623  0.0291
 1701TIP3    H126662   1.681   6.497   1.344  0.6696  0.3926  2.4434
 1701TIP3    H226663   1.828   6.468   1.323  0.0813 -0.8324 -0.4921
 1702TIP3   OH226664   4.935   6.395   0.203  0.1975 -0.0372  0.0965
 1702TIP3    H126665   4.949   6.300   0.202 -3.2707 -0.6644 -0.4073
 1702TIP3    H226666   4.896   6.413   0.288  1.1185  1.0646  0.3261
 1703TIP3   OH226667   2.697   4.761   2.321 -0.0417  0.0780  0.0350
 1703TIP3    H126668   2.728   4.764   2.230  1.3631  2.7624  0.4947
 1703TIP3    H226669   2.603   4.742   2.313  0.2846 -0.9851 -1.8818
 1704TIP3   OH226670   5.688   5.239   3.174 -0.4029 -0.3548 -0.2875
 1704TIP3    H126671   5.627   5.303   3.211  0.7317  0.6235 -0.0670
 1704TIP3    H226672   5.681   5.250   3.080  1.6136  1.9543 -0.2666
 1705TIP3   OH226673   3.087   4.145   0.973 -0.0403  0.6092 -0.1224
 1705TIP3    H126674   3.026   4.079   0.939 -0.9628  0.6398  1.3807
 1705TIP3    H226675   3.083   4.217   0.910 -0.8138  0.2001 -0.5481
 1706TIP3   OH226676   5.769   1.957   3.347 -0.1752 -0.0673 -0.4665
 1706TIP3    H126677   5.757   1.893   3.276  1.1826 -1.7807  0.7688
 1706TIP3    H226678   5.704   1.932   3.413  0.6718 -0.5033  0.2255
 1707TIP3   OH226679   1.429   2.040   3.074 -0.2858 -0.6970 -0.0865
 1707TIP3    H126680   1.341   2.005   3.060 -0.1790 -1.5756  1.2515
 1707TIP3    H226681   1.453   2.012   3.163  0.5836  1.1544  0.3318
 1708TIP3   OH226682   3.873   3.662   2.632  0.0729 -0.5252 -0.3128
 1708TIP3    H126683   3.904   3.629   2.548 -0.2393  0.0578 -0.6641
 1708TIP3    H226684   3.800   3.605   2.656  0.2156 -0.7425 -0.3932
 1709TIP3   OH226685   5.803   3.019   3.164 -0.2194 -0.9735 -0.2240
 1709TIP3    H126686   5.811   3.070   3.083  0.4829 -1.5185 -0.5124
 1709TIP3    H226687   5.763   3.079   3.226 -2.1092 -0.9580 -1.3542
 1710TIP3   OH226688   4.321   1.504   0.582 -0.3477  0.1630  0.0682
 1710TIP3    H126689   4.384   1.562   0.626  0.2875 -0.3839 -0.1023
 1710TIP3    H226690   4.242   1.558   0.572  0.0850  0.8573  0.3001
 1711TIP3   OH226691   0.490   3.756   2.474 -0.1043  0.3434 -0.9848
 1711TIP3    H126692   0.456   3.799   2.552 -0.3300 -0.5578 -0.5755
 1711TIP3    H226693   0.574   3.720   2.501 -0.7595 -1.0991 -0.7451
 1712TIP3   OH226694   1.207   2.750   0.254 -0.2128 -0.2607  0.4115
 1712TIP3    H126695   1.246   2.680   0.201 -0.0736  1.2175 -1.5495
 1712TIP3    H226696   1.115   2.749   0.231 -0.3516 -0.2610  0.9469
 1713TIP3   OH226697   0.529   2.120   1.119 -0.4319  0.5129  0.4261
 1713TIP3    H126698   0.504   2.029   1.104 -0.0955  0.4271  0.3784
 1713TIP3    H226699   0.588   2.118   1.194  0.8106  0.4919 -0.5128
 1714TIP3   OH226700   2.587   3.381   1.622 -0.4888 -0.2819 -0.2930
 1714TIP3    H126701   2.579   3.308   1.683 -1.0970  0.4446  0.5215
 1714TIP3    H226702   2.681   3.388   1.604 -0.1368  0.2957  1.5936
 1715TIP3   OH226703   6.378   5.972   2.213 -0.5440 -0.5090 -0.1439
 1715TIP3    H126704   6.408   5.977   2.123 -3.9635  1.7748 -1.3537
 1715TIP3    H226705   6.338   5.885   2.220  0.1748 -0.8937 -0.5967
 1716TIP3   OH226706   1.641   6.195   0.491 -0.1398  0.3659 -0.2412
 1716TIP3    H126707   1.660   6.108   0.456 -0.9362  0.6840 -1.5140
 1716TIP3    H226708   1.600   6.178   0.576  1.4693 -0.4276  0.4335
 1717TIP3   OH226709   5.491   3.639   8.215 -0.7289 -0.1134  0.3111
 1717TIP3    H126710   5.530   3.680   8.292 -0.9758  0.0310  0.3592
 1717TIP3    H226711   5.500   3.704   8.145  0.3909 -0.6254 -0.0379
 1718TIP3   OH226712   4.442   6.302   8.239  0.3848  0.8562  0.2323
 1718TIP3    H126713   4.364   6.249   8.224  0.2755  0.5841  1.6263
 1718TIP3    H226714   4.495   6.290   8.160  0.2929 -1.2048  0.4361
 1719TIP3   OH226715   2.705   4.324   8.683 -0.5931 -0.6500  0.0258
 1719TIP3    H126716   2.734   4.247   8.732 -0.6816 -1.7467 -1.5584
 1719TIP3    H226717   2.610   4.315   8.678 -0.5225 -1.0453 -1.0501
 1720TIP3   OH226718   4.701   0.687   1.939  0.5887 -0.7360 -0.1680
 1720TIP3    H126719   4.715   0.593   1.947 -0.7723 -1.0249 -0.8731
 1720TIP3    H226720   4.734   0.709   1.852 -0.1689 -0.7840 -0.4699
 1721TIP3   OH226721   2.109   2.044   2.691  0.1850  0.1268  0.0417
 1721TIP3    H126722   2.117   1.981   2.620  1.2207  0.2232  0.0603
 1721TIP3    H226723   2.197   2.050   2.728 -0.7412 -1.6068  2.8117
 1722TIP3   OH226724   1.004   1.346   2.984 -0.5009  0.1163 -0.6410
 1722TIP3    H126725   1.043   1.293   2.915 -0.4725 -0.5307 -0.1454
 1722TIP3    H226726   1.075   1.402   3.015 -0.4201  0.1534 -0.8946
 1723TIP3   OH226727   5.291   4.538   1.777 -0.7496 -0.2754  0.5361
 1723TIP3    H126728   5.268   4.549   1.869 -0.7400 -2.2633  0.8201
 1723TIP3    H226729   5.385   4.558   1.773 -0.9772  0.9156  0.7119
 1724TIP3   OH226730   3.628   4.983   1.329 -0.0487  0.3160 -0.0636
 1724TIP3    H126731   3.678   5.060   1.302 -0.5697  0.0966 -1.8480
 1724TIP3    H226732   3.687   4.909   1.314 -0.8651  0.0410 -2.3347
 1725TIP3   OH226733   3.588   2.523   2.865 -0.1697 -0.3437  0.4166
 1725TIP3    H126734   3.497   2.538   2.889 -0.0452 -0.8276  1.2304
 1725TIP3    H226735   3.638   2.553   2.940  0.2400 -1.7218  0.7256
 1726TIP3   OH226736   5.539   2.465   8.349 -0.1190 -0.0054 -0.5822
 1726TIP3    H126737   5.523   2.371   8.342 -1.5694  0.2129 -0.4202
 1726TIP3    H226738   5.454   2.506   8.333  0.4805  1.2864 -0.6328
 1727TIP3   OH226739   4.000   1.159   3.307 -0.1331  0.0399  0.1345
 1727TIP3    H126740   3.995   1.081   3.252  0.4799 -0.9381  1.3871
 1727TIP3    H226741   4.058   1.219   3.260  1.8596 -1.4993  0.5189
 1728TIP3   OH226742   0.009   4.281   1.027 -0.2601  0.0121  0.4214
 1728TIP3    H126743  -0.085   4.263   1.024 -0.3691  0.4406  1.1215
 1728TIP3    H226744   0.015   4.373   1.052  0.3393  0.2048 -0.3872
 1729TIP3   OH226745   2.025   1.843   3.194 -0.4828  0.2749 -0.4786
 1729TIP3    H126746   2.043   1.791   3.273 -0.2766  0.1332 -0.6181
 1729TIP3    H226747   2.058   1.789   3.122 -0.1421  0.6553 -0.6131
 1730TIP3   OH226748   6.740   4.283   2.197 -0.0177 -0.3744  0.4999
 1730TIP3    H126749   6.771   4.357   2.249 -0.9295  0.5318 -0.1980
 1730TIP3    H226750   6.764   4.305   2.107  1.8877 -2.0959  0.5066
 1731TIP3   OH226751   2.062   4.626   1.964 -0.5082  0.0990  0.2160
 1731TIP3    H126752   2.138   4.667   1.922 -0.0848 -0.2653  0.6294
 1731TIP3    H226753   2.043   4.550   1.909 -0.2231 -0.1316  0.4381
 1732TIP3   OH226754   1.132   2.186   2.150  0.2871  0.3781 -0.1265
 1732TIP3    H126755   1.209   2.236   2.174  0.2220  0.7247 -0.6240
 1732TIP3    H226756   1.166   2.111   2.101  0.2936  0.7379 -0.6883
 1733TIP3   OH226757   1.893   0.543   1.075 -0.1724  0.1411  0.2775
 1733TIP3    H126758   1.804   0.565   1.047 -0.8155 -1.4440  0.9637
 1733TIP3    H226759   1.927   0.487   1.006  0.6567  1.4330 -0.4102
 1734TIP3   OH226760   6.426   0.974   4.059 -0.0897 -0.4058  0.5006
 1734TIP3    H126761   6.384   0.899   4.100 -0.8218  1.1341  2.7382
 1734TIP3    H226762   6.516   0.946   4.045 -0.2857 -1.6386  1.4924
 1735TIP3   OH226763   0.828   0.397   0.933 -0.4337 -0.0284  0.0635
 1735TIP3    H126764   0.900   0.460   0.921 -0.9495  0.4870 -0.4509
 1735TIP3    H226765   0.799   0.410   1.023  0.4179 -0.5778  0.4300
 1736TIP3   OH226766   3.330   4.301   0.561 -0.4767  0.1797 -0.0422
 1736TIP3    H126767   3.273   4.375   0.581 -0.4795 -0.1654  1.3306
 1736TIP3    H226768   3.416   4.340   0.548 -0.4708  0.4393  0.7114
 1737TIP3   OH226769   6.512   2.833   7.738 -0.0462 -0.2257  0.1844
 1737TIP3    H126770   6.606   2.828   7.720  0.1505  1.1471  0.7485
 1737TIP3    H226771   6.471   2.809   7.655  0.7954 -0.7385 -0.0972
 1738TIP3   OH226772   6.662   2.086   1.073 -0.6158 -0.6734  0.5651
 1738TIP3    H126773   6.746   2.129   1.055 -2.2505  1.3795 -3.3462
 1738TIP3    H226774   6.624   2.139   1.143  1.3269 -1.8650  2.6841
 1739TIP3   OH226775   4.066   6.748   1.668 -0.5778 -0.2418  0.0693
 1739TIP3    H126776   4.082   6.709   1.754 -2.1294  0.3169  0.6437
 1739TIP3    H226777   4.001   6.690   1.628 -3.3257  1.8775  1.1410
 1740TIP3   OH226778   0.852   3.658   1.286  0.0513 -0.3007  0.1895
 1740TIP3    H126779   0.937   3.621   1.261  0.6935  0.4791  1.1303
 1740TIP3    H226780   0.800   3.583   1.314  0.6391 -0.7190  0.1671
 1741TIP3   OH226781   3.141   0.004   2.175  0.4240  0.1501 -0.0870
 1741TIP3    H126782   3.106   0.042   2.255 -0.4404 -1.0003  0.1064
 1741TIP3    H226783   3.092   0.048   2.105 -1.7322 -1.6329  0.1886
 1742TIP3   OH226784   1.855   6.372   0.724 -0.0111  0.2594 -0.2571
 1742TIP3    H126785   1.883   6.283   0.748  0.8816  0.6474  0.1943
 1742TIP3    H226786   1.765   6.377   0.754  0.2577 -0.1523  0.6581
 1743TIP3   OH226787   1.575   0.925   8.495 -0.4696 -0.6981  0.6604
 1743TIP3    H126788   1.581   0.934   8.590  0.3656 -3.2105  0.9222
 1743TIP3    H226789   1.632   0.993   8.460 -1.5573  0.9053  1.8764
 1744TIP3   OH226790   3.245   2.379   2.672  0.1243  0.0481  0.3297
 1744TIP3    H126791   3.157   2.354   2.644  0.1692  1.2842 -1.0559
 1744TIP3    H226792   3.292   2.398   2.590  1.2092  0.8933  1.1114
 1745TIP3   OH226793   5.787   4.316   8.149  0.0914 -0.2379  0.0867
 1745TIP3    H126794   5.851   4.367   8.197 -0.0812 -1.1603  1.3374
 1745TIP3    H226795   5.777   4.362   8.066  2.2149  0.0202 -0.0631
 1746TIP3   OH226796   5.407   4.084   8.263  0.3200 -0.0016  0.0501
 1746TIP3    H126797   5.481   4.044   8.217  0.0793  0.4221 -0.7223
 1746TIP3    H226798   5.446   4.144   8.325  0.6847 -1.2043  1.0362
 1747TIP3   OH226799   0.285   3.086   2.360 -0.1833 -0.3588  0.5871
 1747TIP3    H126800   0.342   3.084   2.437 -0.3288  3.1445  0.9289
 1747TIP3    H226801   0.342   3.113   2.288 -0.6346 -0.7907  0.0553
 1748TIP3   OH226802   0.265   0.805   1.631  0.3238  0.1502  0.5795
 1748TIP3    H126803   0.271   0.710   1.639  1.7059  0.1910  0.2542
 1748TIP3    H226804   0.290   0.824   1.541  2.8480  0.9941  1.3787
 1749TIP3   OH226805   5.713   4.065   0.769  0.2058  0.2520  0.0393
 1749TIP3    H126806   5.644   4.102   0.823 -1.1819  2.8586 -3.1352
 1749TIP3    H226807   5.667   4.022   0.697  1.8492  0.6887 -1.3365
 1750TIP3   OH226808   6.761   2.764   7.660  0.1124 -0.5491 -0.0648
 1750TIP3    H126809   6.794   2.686   7.703 -1.0531 -0.8010  0.4002
 1750TIP3    H226810   6.705   2.731   7.589 -1.1368 -0.1702  0.7087
 1751TIP3   OH226811   4.327   6.549   8.273  0.1593  0.2954 -0.4759
 1751TIP3    H126812   4.246   6.519   8.314  0.2771 -0.3610 -0.7144
 1751TIP3    H226813   4.386   6.473   8.276  1.1339  1.0663  0.6197
 1752TIP3   OH226814   4.374   6.791   0.609  0.2832  0.0299 -0.3767
 1752TIP3    H126815   4.289   6.832   0.594 -0.1834 -0.3355  1.1942
 1752TIP3    H226816   4.427   6.820   0.534 -1.4778 -0.5465 -1.9337
 1753TIP3   OH226817   4.603   1.069   0.697  0.7736  0.0123 -0.3389
 1753TIP3    H126818   4.659   0.999   0.664 -1.8275 -3.0955  1.2438
 1753TIP3    H226819   4.520   1.026   0.716 -1.0084  3.5850  0.8658
 1754TIP3   OH226820   1.430   1.434   1.014 -0.7238 -0.1508  0.0860
 1754TIP3    H126821   1.503   1.383   0.978 -2.0610 -2.5576  0.5635
 1754TIP3    H226822   1.377   1.457   0.937  0.0306  0.8463 -0.1613
 1755TIP3   OH226823   6.084   3.030   1.840 -0.0677 -0.0257 -0.1243
 1755TIP3    H126824   6.003   2.983   1.858  0.3695 -0.2916  1.2785
 1755TIP3    H226825   6.080   3.049   1.747 -0.7416 -1.9315 -0.5362
 1756TIP3   OH226826   0.292   1.894   2.556 -0.4548  0.0027  0.0248
 1756TIP3    H126827   0.213   1.925   2.511 -0.8117 -1.3552 -0.3282
 1756TIP3    H226828   0.355   1.965   2.544 -1.0738  0.3881 -1.1937
 1757TIP3   OH226829   4.671   0.689   3.500  0.3695 -0.2916 -0.7407
 1757TIP3    H126830   4.696   0.781   3.492  0.3051 -0.0329  1.4571
 1757TIP3    H226831   4.754   0.641   3.491  0.8669  0.2023  0.8291
 1758TIP3   OH226832   2.056   5.651   1.563 -0.0980 -0.1415  0.2511
 1758TIP3    H126833   2.036   5.717   1.629  1.4748  0.7381 -0.1152
 1758TIP3    H226834   1.986   5.586   1.572 -0.0753  0.0888  2.5798
 1759TIP3   OH226835   4.358   2.902   0.521 -0.0912  0.1107 -0.4152
 1759TIP3    H126836   4.305   2.973   0.558  0.8064 -0.8579  3.0401
 1759TIP3    H226837   4.325   2.823   0.563  0.1875 -1.3236 -2.7586
 1760TIP3   OH226838   2.610   3.160   7.723  0.8480 -0.1879  0.5691
 1760TIP3    H126839   2.685   3.164   7.663  1.3547 -0.6165  1.1564
 1760TIP3    H226840   2.602   3.067   7.744 -0.0085 -0.1718  0.3266
 1761TIP3   OH226841   2.680   2.973   1.281  0.0308 -0.2509 -0.2233
 1761TIP3    H126842   2.585   2.985   1.279 -0.0384 -0.8837 -1.2129
 1761TIP3    H226843   2.700   2.965   1.375 -0.6436  1.5469  0.1206
 1762TIP3   OH226844   2.235   4.982   0.666  0.3927  0.1404 -0.3245
 1762TIP3    H126845   2.172   4.910   0.671 -0.2850  0.8134  1.1103
 1762TIP3    H226846   2.314   4.947   0.707  0.8165 -0.5196 -1.6433
 1763TIP3   OH226847   0.334   1.623   2.135  0.2651  0.3890 -0.6189
 1763TIP3    H126848   0.352   1.530   2.146 -0.0618 -0.0062 -2.8797
 1763TIP3    H226849   0.330   1.636   2.040  0.4479  2.7480 -0.3817
 1764TIP3   OH226850   4.821   6.176   8.242  0.4594 -0.2105  0.1271
 1764TIP3    H126851   4.803   6.121   8.165  3.0503 -1.9909  0.6740
 1764TIP3    H226852   4.802   6.265   8.213 -0.3081 -1.0132 -2.0067
 1765TIP3   OH226853   0.828   1.412   8.464  0.3181  0.3764  0.1890
 1765TIP3    H126854   0.856   1.366   8.543  3.0841 -0.6438 -1.2831
 1765TIP3    H226855   0.832   1.505   8.488  2.5029  0.1441  0.8663
 1766TIP3   OH226856   6.469   2.200   4.006 -0.0450  0.3796  0.6520
 1766TIP3    H126857   6.435   2.111   4.016 -0.1332  0.4077  0.6124
 1766TIP3    H226858   6.457   2.241   4.092 -2.0417  1.0432  0.1186
 1767TIP3   OH226859   2.981   0.787   8.376 -0.8966 -0.0196 -0.1294
 1767TIP3    H126860   3.069   0.794   8.339  0.0792  1.8374  2.2544
 1767TIP3    H226861   2.927   0.846   8.324  0.2147  1.8062  0.6905
 1768TIP3   OH226862   1.507   5.605   1.287 -0.8365  0.4599  0.0129
 1768TIP3    H126863   1.444   5.666   1.325 -0.5802  1.9134 -1.7121
 1768TIP3    H226864   1.502   5.621   1.193  1.6692  0.2419 -0.2443
 1769TIP3   OH226865   0.473   1.854   1.551 -0.4293  0.2836 -0.0288
 1769TIP3    H126866   0.499   1.945   1.537 -0.5141  0.0078 -2.4109
 1769TIP3    H226867   0.493   1.838   1.643 -0.0890  2.5900  0.3819
 1770TIP3   OH226868   4.509   2.409   3.536 -0.9886 -0.0108 -0.3574
 1770TIP3    H126869   4.581   2.464   3.505 -0.5770  0.0575  0.6737
 1770TIP3    H226870   4.544   2.366   3.614 -2.0852  0.0741  0.1984
 1771TIP3   OH226871   1.927   5.764   8.262  0.3130  0.3399 -0.0073
 1771TIP3    H126872   1.842   5.776   8.305  1.0767 -1.6974  2.2762
 1771TIP3    H226873   1.968   5.850   8.265 -0.2673  0.6064  2.1704
 1772TIP3   OH226874   0.365   6.192   2.567  0.5432 -0.4113 -0.1576
 1772TIP3    H126875   0.453   6.177   2.601  0.5425 -1.3694 -0.5567
 1772TIP3    H226876   0.379   6.239   2.485  0.6227  0.3641  0.2890
 1773TIP3   OH226877   4.215   4.510   8.249 -0.2268 -0.5040  0.0186
 1773TIP3    H126878   4.263   4.540   8.172 -1.8677  0.4632 -0.6890
 1773TIP3    H226879   4.278   4.457   8.298  0.8016 -1.3239 -2.0789
 1774TIP3   OH226880   1.716   0.825   1.243  0.0375  0.2153 -0.2324
 1774TIP3    H126881   1.688   0.775   1.320 -0.3694  1.0135  0.1460
 1774TIP3    H226882   1.809   0.804   1.234 -0.2656 -1.0971 -0.4653
 1775TIP3   OH226883   2.626   2.667   8.176 -0.0338 -0.1936 -0.0189
 1775TIP3    H126884   2.645   2.708   8.092 -1.0065  0.7666  0.2105
 1775TIP3    H226885   2.538   2.697   8.198 -0.2400 -1.3380  0.8110
 1776TIP3   OH226886   1.364   1.627   1.953 -0.0358 -0.3458  0.5459
 1776TIP3    H126887   1.416   1.595   1.880  1.3341  1.5499  0.5888
 1776TIP3    H226888   1.416   1.699   1.989 -1.4176 -0.1903  2.3867
 1777TIP3   OH226889   1.830   2.233   2.537 -0.7748  0.5150  0.5782
 1777TIP3    H126890   1.791   2.321   2.537 -0.3851  0.6958 -0.0264
 1777TIP3    H226891   1.910   2.243   2.486 -0.6040 -0.1442  0.7117
 1778TIP3   OH226892   2.182   3.922   0.549 -0.3032  0.4537 -0.2431
 1778TIP3    H126893   2.168   3.964   0.464 -1.3637  0.6214  0.0092
 1778TIP3    H226894   2.094   3.904   0.582  0.1031 -1.1849  0.0380
 1779TIP3   OH226895   6.363   3.907   0.270 -0.6596  0.0177 -0.0087
 1779TIP3    H126896   6.433   3.847   0.246  1.5430  1.4372  2.3751
 1779TIP3    H226897   6.407   3.989   0.290 -3.1019  1.2316  0.8311
 1780TIP3   OH226898   2.670   4.159   1.197 -0.0555  0.2637  0.1073
 1780TIP3    H126899   2.634   4.247   1.209  1.0480  0.9761 -1.5638
 1780TIP3    H226900   2.593   4.104   1.181 -0.8604  0.6655  2.2094
 1781TIP3   OH226901   2.846   3.973   1.083  0.2183  0.6337  0.2152
 1781TIP3    H126902   2.790   3.913   1.131  1.5150  0.0319  1.0425
 1781TIP3    H226903   2.824   4.059   1.118 -1.0243  0.5709 -0.3479
 1782TIP3   OH226904   3.448   3.548   0.048  0.4691  0.8316 -0.4015
 1782TIP3    H126905   3.506   3.588   0.113  1.6804  0.3058 -1.1224
 1782TIP3    H226906   3.507   3.518  -0.021 -0.5655 -0.7446 -0.6339
 1783TIP3   OH226907   4.816   2.734   2.484  0.3944 -0.4169  0.1802
 1783TIP3    H126908   4.754   2.803   2.461  2.4806  2.3657  2.2577
 1783TIP3    H226909   4.875   2.729   2.408  1.2828  1.4740  0.6855
 1784TIP3   OH226910   0.445   4.170   8.075  0.3604  0.2960  0.5540
 1784TIP3    H126911   0.462   4.136   7.987  0.5415  1.1225  0.2599
 1784TIP3    H226912   0.531   4.183   8.113  0.2783 -0.2131  0.9165
 1785TIP3   OH226913   6.633   5.744   0.250 -0.3247 -0.3253 -0.1634
 1785TIP3    H126914   6.598   5.676   0.192 -0.1395 -0.5205 -0.0477
 1785TIP3    H226915   6.561   5.806   0.261  0.2200  0.7545 -2.1635
 1786TIP3   OH226916   0.540   5.215   1.989 -0.0715 -0.5245 -0.7426
 1786TIP3    H126917   0.600   5.151   2.025 -0.2014 -0.6007 -0.6608
 1786TIP3    H226918   0.568   5.226   1.898  0.9899  0.5284 -0.3094
 1787TIP3   OH226919   2.674   0.162   8.061  0.1360  0.3490 -0.8658
 1787TIP3    H126920   2.662   0.203   8.147  2.0915  0.2355 -0.4781
 1787TIP3    H226921   2.625   0.081   8.066 -1.7340  1.4319 -0.7441
 1788TIP3   OH226922   4.660   4.261   1.253  0.2671 -0.0456  0.0088
 1788TIP3    H126923   4.603   4.335   1.273  0.2602 -0.1588  0.4018
 1788TIP3    H226924   4.694   4.232   1.337  0.4196 -0.3725 -0.1618
 1789TIP3   OH226925   3.960   0.360   2.435  0.1595  0.1687 -0.3801
 1789TIP3    H126926   4.003   0.330   2.515 -1.0637 -0.2787  0.1326
 1789TIP3    H226927   3.934   0.450   2.453  0.5670  0.3255 -0.5644
 1790TIP3   OH226928   4.740   6.264   3.279  1.0373  0.3712  0.7530
 1790TIP3    H126929   4.788   6.347   3.288  0.5117  0.7716 -0.0288
 1790TIP3    H226930   4.733   6.251   3.184  0.9893 -0.4988  0.8693
 1791TIP3   OH226931   2.974   5.959   2.746 -0.1356 -0.6637  0.3550
 1791TIP3    H126932   2.886   5.978   2.778 -0.7137 -3.0733  0.3449
 1791TIP3    H226933   2.993   5.871   2.776  2.1046 -0.3928 -0.0692
 1792TIP3   OH226934   5.671   2.669   1.225 -0.1638  0.1639  0.2237
 1792TIP3    H126935   5.588   2.658   1.271 -0.3148  0.4404  0.0214
 1792TIP3    H226936   5.737   2.667   1.293 -0.3705  0.3618  0.4314
 1793TIP3   OH226937   0.065   4.326   3.062  0.0210  0.5788  0.0724
 1793TIP3    H126938   0.049   4.254   3.002  3.1586  1.4416 -1.9798
 1793TIP3    H226939   0.088   4.284   3.145  0.4146 -0.7370 -0.6856
 1794TIP3   OH226940   3.673   6.156   1.128 -0.0029 -0.0506 -0.3849
 1794TIP3    H126941   3.608   6.095   1.161 -0.3596  0.4169 -0.2209
 1794TIP3    H226942   3.667   6.232   1.186  0.8994 -0.1248 -0.1795
 1795TIP3   OH226943   3.358   0.502   8.097 -0.5629 -0.0546  0.3150
 1795TIP3    H126944   3.424   0.492   8.165  1.9712 -0.1734 -1.9586
 1795TIP3    H226945   3.372   0.427   8.039 -3.3023 -0.5183  0.1161
 1796TIP3   OH226946   3.074   0.866   3.277  0.3267 -0.2559  0.5195
 1796TIP3    H126947   3.169   0.870   3.266  0.4197  1.3846  1.5254
 1796TIP3    H226948   3.057   0.913   3.359 -1.4358  0.4316 -0.1856
 1797TIP3   OH226949   0.931   5.231   0.568 -0.1721 -0.6849 -0.0668
 1797TIP3    H126950   0.894   5.227   0.656 -0.4241 -0.9655 -0.1866
 1797TIP3    H226951   1.021   5.261   0.581 -0.1197 -1.0109  0.3113
 1798TIP3   OH226952   4.330   2.408   0.249  0.4692  0.4083 -0.1213
 1798TIP3    H126953   4.352   2.495   0.281 -0.5746  1.0224 -1.0347
 1798TIP3    H226954   4.300   2.361   0.326 -0.4396  1.3451  0.1076
 1799TIP3   OH226955   2.701   0.624   1.199 -0.1760 -0.4770  0.5715
 1799TIP3    H126956   2.682   0.545   1.148 -0.5363 -0.2908  0.4143
 1799TIP3    H226957   2.750   0.592   1.275 -0.2217 -0.8366  0.4533
 1800TIP3   OH226958   0.176   5.344   0.749 -0.3867 -0.4086  0.1223
 1800TIP3    H126959   0.106   5.392   0.793 -0.7473 -2.4387  1.9413
 1800TIP3    H226960   0.132   5.268   0.711  0.6952 -1.4447  0.8588
 1801TIP3   OH226961   0.074   0.572   2.179 -0.6166  0.4398  0.2109
 1801TIP3    H126962   0.062   0.516   2.103  0.4292 -1.8739  1.6336
 1801TIP3    H226963   0.163   0.606   2.171  0.5657 -1.9987  1.5980
 1802TIP3   OH226964   5.194   2.832   0.768  0.6815  0.6289 -0.3750
 1802TIP3    H126965   5.135   2.756   0.764  0.8764  0.5318 -2.9455
 1802TIP3    H226966   5.253   2.812   0.841 -1.2913 -0.1010  1.1305
 1803TIP3   OH226967   0.351   1.520   1.086 -0.3639  0.1213  0.1393
 1803TIP3    H126968   0.333   1.426   1.085  0.8637 -0.1474  0.9274
 1803TIP3    H226969   0.309   1.553   1.165 -2.7911  0.7174 -1.2920
 1804TIP3   OH226970   0.482   3.878   0.019 -0.5428  0.0936  0.1906
 1804TIP3    H126971   0.468   3.946   0.085 -1.7769  0.6333 -0.5953
 1804TIP3    H226972   0.418   3.810   0.042  0.3062 -0.5717  0.6418
 1805TIP3   OH226973   4.795   5.140   1.658  0.5390 -0.1423 -0.0076
 1805TIP3    H126974   4.770   5.145   1.750  1.0866  0.1666  0.1338
 1805TIP3    H226975   4.784   5.047   1.635 -0.8661  0.0156 -0.0127
 1806TIP3   OH226976   1.587   1.883   0.174  0.7485 -0.1571  0.2683
 1806TIP3    H126977   1.678   1.888   0.202  0.5716 -1.3460  1.1675
 1806TIP3    H226978   1.572   1.964   0.126  2.1623  0.2372  0.4357
 1807TIP3   OH226979   2.357   1.582   3.245 -0.0106  0.2352  0.1525
 1807TIP3    H126980   2.437   1.529   3.253 -1.2748 -1.6453  0.9354
 1807TIP3    H226981   2.300   1.550   3.314 -1.5822  1.3257 -0.5865
 1808TIP3   OH226982   6.131   0.927   1.566  0.0740 -0.1947 -0.2428
 1808TIP3    H126983   6.036   0.915   1.568  0.1070 -0.9280 -1.6237
 1808TIP3    H226984   6.165   0.853   1.616 -0.0535 -0.4939 -0.5940
 1809TIP3   OH226985   1.991   0.435   7.819 -0.1752 -0.0302 -0.1671
 1809TIP3    H126986   2.034   0.512   7.782 -0.7009  0.6701  0.6617
 1809TIP3    H226987   1.916   0.419   7.762  0.2482 -0.2735 -0.6638
 1810TIP3   OH226988   0.907   6.166   0.305  0.2971 -0.5250  0.2090
 1810TIP3    H126989   0.974   6.225   0.272 -1.4202 -0.0182 -2.6605
 1810TIP3    H226990   0.851   6.221   0.359  0.3737 -0.2072 -0.0336
 1811TIP3   OH226991   0.139   4.257   3.628 -0.1186  0.1537 -0.4253
 1811TIP3    H126992   0.051   4.289   3.604 -0.2376 -0.6783 -1.1199
 1811TIP3    H226993   0.157   4.186   3.566  0.1956 -1.0549  0.9998
 1812TIP3   OH226994   5.393   5.887   0.538  0.2112 -0.4555  0.3710
 1812TIP3    H126995   5.482   5.908   0.567  0.1731 -0.3991  0.4469
 1812TIP3    H226996   5.342   5.883   0.619  0.1384 -0.4573  0.3245
 1813TIP3   OH226997   4.356   0.380   0.936 -0.1713 -0.0360  0.7773
 1813TIP3    H126998   4.307   0.302   0.908  0.1170 -0.0632  0.3457
 1813TIP3    H226999   4.441   0.371   0.894  0.2285 -0.0106  1.5725
 1814TIP3   OH227000   5.950   5.034   2.195 -0.4726  0.0201  0.2965
 1814TIP3    H127001   5.968   4.961   2.137 -2.1675  0.3018 -0.6310
 1814TIP3    H227002   5.873   5.007   2.245 -0.7642  0.9179  0.3517
 1815TIP3   OH227003   4.270   2.568   2.991  0.6899  0.2411  0.4078
 1815TIP3    H127004   4.318   2.494   3.027  0.3071 -0.2698 -0.1048
 1815TIP3    H227005   4.252   2.624   3.066 -0.2788 -0.8983  1.0762
 1816TIP3   OH227006   0.362   4.395   3.041  0.1852 -0.1830 -0.2612
 1816TIP3    H127007   0.324   4.309   3.057  1.1309 -0.5184  0.2153
 1816TIP3    H227008   0.419   4.382   2.966 -1.2204  0.5075 -1.5061
 1817TIP3   OH227009   3.802   3.231   8.421  0.6175 -0.5139  0.5682
 1817TIP3    H127010   3.821   3.200   8.510 -1.7747 -1.5496  0.7709
 1817TIP3    H227011   3.761   3.156   8.378 -2.1422  1.2235 -0.0473
 1818TIP3   OH227012   0.827   6.255   0.848 -0.5656 -0.1698  0.0433
 1818TIP3    H127013   0.908   6.291   0.885 -0.7140  0.8267 -0.5690
 1818TIP3    H227014   0.841   6.256   0.753 -1.1350 -0.3933 -0.0459
 1819TIP3   OH227015   5.301   4.595   8.481  0.4172 -0.2113 -0.1973
 1819TIP3    H127016   5.250   4.526   8.525  1.2099 -0.8744 -0.3054
 1819TIP3    H227017   5.313   4.563   8.392 -1.5347  1.3090 -1.0818
 1820TIP3   OH227018   1.193   0.283   1.008  0.2831 -0.7330 -0.2203
 1820TIP3    H127019   1.162   0.345   0.942 -1.6437  0.0300  1.2828
 1820TIP3    H227020   1.113   0.242   1.041  1.0894 -0.5448  2.1380
 1821TIP3   OH227021   1.213   3.180   0.225  0.6202  0.7163 -0.0985
 1821TIP3    H127022   1.256   3.098   0.200  0.1465  0.0634  1.1355
 1821TIP3    H227023   1.255   3.205   0.307 -2.8187 -1.2326  2.4989
 1822TIP3   OH227024   1.516   3.314   0.716 -0.0352  0.4406 -0.1023
 1822TIP3    H127025   1.587   3.269   0.671  0.3271  1.7963 -0.9335
 1822TIP3    H227026   1.465   3.244   0.756  2.3129 -0.5472  1.3986
 1823TIP3   OH227027   4.355   1.545   1.677  0.0266  0.4806  0.3380
 1823TIP3    H127028   4.390   1.633   1.663  1.3064  0.0910  0.9347
 1823TIP3    H227029   4.427   1.487   1.653 -0.6207 -0.3942  0.4745
 1824TIP3   OH227030   6.542   5.015   8.683  0.0141  0.6197 -0.2316
 1824TIP3    H127031   6.468   4.957   8.663 -0.6880  1.3981  0.0592
 1824TIP3    H227032   6.503   5.088   8.731  0.6397  2.0577 -1.8198
 1825TIP3   OH227033   5.449   5.781   1.963  0.0044 -0.1324  0.6327
 1825TIP3    H127034   5.541   5.797   1.985  0.1706 -1.2178  0.7807
 1825TIP3    H227035   5.453   5.739   1.877 -0.2870 -1.0763  1.0722
 1826TIP3   OH227036   2.385   2.940   2.699  0.0288  0.1172 -0.1593
 1826TIP3    H127037   2.468   2.982   2.674 -0.2688  0.7938 -0.0341
 1826TIP3    H227038   2.383   2.946   2.794 -0.5311  0.8330 -0.2074
 1827TIP3   OH227039   5.222   2.473   7.927  0.5205  0.1793 -0.3365
 1827TIP3    H127040   5.160   2.463   7.999  0.0463  0.0921 -0.7451
 1827TIP3    H227041   5.195   2.555   7.884  1.7022  1.0001  0.4401
 1828TIP3   OH227042   6.709   0.044   0.161 -0.5012 -0.3697 -0.5429
 1828TIP3    H127043   6.722   0.107   0.090 -0.2882 -0.2864 -0.4321
 1828TIP3    H227044   6.798   0.027   0.193 -0.6564  0.1208  0.1627
 1829TIP3   OH227045   4.187   1.901   8.248 -0.0077  0.0688  0.1833
 1829TIP3    H127046   4.191   1.962   8.175 -0.4264  0.2453  0.3036
 1829TIP3    H227047   4.102   1.857   8.238 -1.8392  2.6613  2.5652
 1830TIP3   OH227048   5.758   2.539   4.090 -0.8175  0.1961  0.7525
 1830TIP3    H127049   5.738   2.486   4.012 -1.9312  1.2332  0.2867
 1830TIP3    H227050   5.706   2.499   4.160 -1.7665  0.7244  0.3710
 1831TIP3   OH227051   3.970   3.206   2.067  0.0842 -0.4293  0.4407
 1831TIP3    H127052   4.007   3.292   2.046  2.3799 -1.2206  0.9189
 1831TIP3    H227053   3.932   3.175   1.985 -0.1245  0.7280  0.0838
 1832TIP3   OH227054   0.892   0.105   2.213 -0.2664 -0.5899  0.4468
 1832TIP3    H127055   0.865   0.024   2.256  0.4981 -1.0983 -0.0231
 1832TIP3    H227056   0.951   0.147   2.275 -0.0667 -0.7671  0.3794
 1833TIP3   OH227057   5.471   3.682   3.445 -0.2893  0.2585 -0.4025
 1833TIP3    H127058   5.515   3.687   3.360  1.4140 -2.1900  0.2164
 1833TIP3    H227059   5.488   3.593   3.475 -4.4319 -0.3809  0.6687
 1834TIP3   OH227060   0.192   4.951   1.352  0.6628 -0.0996 -0.1967
 1834TIP3    H127061   0.172   4.998   1.271  1.2559 -1.5473 -1.2107
 1834TIP3    H227062   0.268   4.897   1.331  0.5871 -0.8071  1.2147
 1835TIP3   OH227063   2.474   2.889   2.233  0.4956  0.0766 -0.0495
 1835TIP3    H127064   2.435   2.817   2.282  0.3730  1.1145  1.4390
 1835TIP3    H227065   2.569   2.872   2.236  0.4080 -0.5207 -0.5368
 1836TIP3   OH227066   1.301   3.284   1.540 -0.3200  0.2004  0.0702
 1836TIP3    H127067   1.291   3.190   1.554 -0.9053  0.1854 -0.4119
 1836TIP3    H227068   1.212   3.319   1.542 -0.1527  0.6622 -0.3192
 1837TIP3   OH227069   1.926   0.372   0.185  0.3898 -0.3830  0.0634
 1837TIP3    H127070   1.917   0.315   0.108  0.0603 -1.8215  1.1107
 1837TIP3    H227071   1.869   0.446   0.167 -1.0227 -1.5189 -0.3902
 1838TIP3   OH227072   1.183   6.382   2.113 -0.0998 -0.7676 -0.0036
 1838TIP3    H127073   1.262   6.342   2.148  0.1531  1.4514  2.2409
 1838TIP3    H227074   1.111   6.337   2.157  0.1710  0.8484  2.2579
 1839TIP3   OH227075   4.429   6.062   8.575  0.3377 -0.1123 -0.4754
 1839TIP3    H127076   4.352   6.110   8.543 -0.6982 -1.1382  0.3825
 1839TIP3    H227077   4.504   6.114   8.546 -0.7193  1.6661 -0.1215
 1840TIP3   OH227078   3.643   0.863   3.343 -0.2227  0.5458  0.0529
 1840TIP3    H127079   3.674   0.902   3.261  2.7857  0.7555  1.1642
 1840TIP3    H227080   3.686   0.778   3.347 -1.1677  0.0916  0.9540
 1841TIP3   OH227081   0.530   3.273   3.302 -0.4379 -0.2235 -0.6495
 1841TIP3    H127082   0.598   3.292   3.367 -0.2626 -2.3689 -0.1207
 1841TIP3    H227083   0.573   3.215   3.239 -1.5210 -0.8919 -0.7897
 1842TIP3   OH227084   0.879   1.422   1.781 -0.1395  0.7578  0.4149
 1842TIP3    H127085   0.883   1.438   1.875 -1.0019  2.1279  0.2369
 1842TIP3    H227086   0.956   1.467   1.745  0.4625 -0.1741  0.4927
 1843TIP3   OH227087   4.338   5.283   2.006  0.3250  0.2841 -0.2461
 1843TIP3    H127088   4.425   5.277   2.045  0.1343  2.8133  0.7673
 1843TIP3    H227089   4.350   5.256   1.915  2.0725  0.1601 -0.0107
 1844TIP3   OH227090   4.804   4.318   0.653  0.9717 -0.0326  0.5054
 1844TIP3    H127091   4.866   4.270   0.709  0.4597 -0.8408  0.3911
 1844TIP3    H227092   4.771   4.252   0.593  0.9264  0.6663 -0.2473
 1845TIP3   OH227093   4.661   0.067   2.975 -0.5404  0.6366  0.1616
 1845TIP3    H127094   4.592   0.123   2.938  0.6546  1.7091 -0.5205
 1845TIP3    H227095   4.615   0.014   3.041 -1.6143  3.0449  1.5225
 1846TIP3   OH227096   3.358   0.959   0.108  0.0569 -0.2995 -0.2868
 1846TIP3    H127097   3.276   0.920   0.078 -1.2026  0.8445  1.4826
 1846TIP3    H227098   3.407   0.886   0.145 -1.2013 -0.6587  0.7455
 1847TIP3   OH227099   2.057   3.628   3.825  0.6695 -0.1646 -0.2988
 1847TIP3    H127100   2.042   3.698   3.889 -0.1808 -0.3351 -0.2948
 1847TIP3    H227101   2.131   3.658   3.773 -1.8681  2.5023 -2.7147
 1848TIP3   OH227102   4.363   3.188   8.295 -0.1670 -0.2947  0.4158
 1848TIP3    H127103   4.434   3.211   8.234 -0.2738  0.7696  0.6639
 1848TIP3    H227104   4.409   3.157   8.374  0.0861  1.1059  0.8608
 1849TIP3   OH227105   3.578   1.467   1.801 -0.3985  0.2681 -0.4987
 1849TIP3    H127106   3.628   1.464   1.883 -0.0750 -0.2616 -0.7134
 1849TIP3    H227107   3.555   1.559   1.791  0.8227  0.5852 -0.5593
 1850TIP3   OH227108   1.458   2.027   2.354 -0.0636  0.3000 -0.4716
 1850TIP3    H127109   1.518   2.057   2.285 -1.7043 -0.4077 -2.3163
 1850TIP3    H227110   1.503   1.954   2.395  0.8080  0.4843 -1.0637
 1851TIP3   OH227111   3.475   3.697   3.534 -0.2460  0.2964 -0.2431
 1851TIP3    H127112   3.499   3.697   3.441  0.2672  0.2832 -0.1136
 1851TIP3    H227113   3.501   3.783   3.565 -0.7626  0.4356 -0.1973
 1852TIP3   OH227114   5.438   5.126   1.652  0.6752  0.5160  0.2130
 1852TIP3    H127115   5.367   5.167   1.702  1.3508  0.6138  1.1266
 1852TIP3    H227116   5.420   5.033   1.658  0.3301  0.5675 -0.0114
 1853TIP3   OH227117   0.776   0.877   8.360 -0.4694 -0.2923  0.5826
 1853TIP3    H127118   0.764   0.786   8.333 -0.7171  0.1034 -0.7213
 1853TIP3    H227119   0.696   0.921   8.332 -0.3152  0.3474  1.1263
 1854TIP3   OH227120   3.662   1.722   0.168  0.4389 -0.0310 -0.2157
 1854TIP3    H127121   3.629   1.633   0.158 -0.5911  0.3364 -0.2631
 1854TIP3    H227122   3.612   1.758   0.241  0.3982  0.6987 -0.5873
 1855TIP3   OH227123   3.489   1.601   1.198 -0.3421  0.0803  0.2154
 1855TIP3    H127124   3.554   1.574   1.262 -0.1254 -0.1446 -0.0932
 1855TIP3    H227125   3.417   1.539   1.209  0.1037 -0.5750 -0.4096
 1856TIP3   OH227126   3.713   3.505   7.843  0.5183  0.2179 -0.1232
 1856TIP3    H127127   3.771   3.544   7.909  0.1223  0.4020  0.1231
 1856TIP3    H227128   3.656   3.577   7.816 -1.4761 -0.5468  1.7070
 1857TIP3   OH227129   4.651   4.972   7.447 -0.1334  0.1856  0.5665
 1857TIP3    H127130   4.592   4.932   7.383  0.6784 -1.3408  0.7272
 1857TIP3    H227131   4.704   4.900   7.480  2.0534  1.5242  0.2213
 1858TIP3   OH227132   2.585   4.355   0.953  0.7121  0.0284 -0.1645
 1858TIP3    H127133   2.542   4.307   1.024  0.6723 -0.4886 -0.5401
 1858TIP3    H227134   2.577   4.447   0.979  0.9620 -0.1713  0.6567
 1859TIP3   OH227135   2.497   5.992   1.687  0.1069 -0.8868 -0.2339
 1859TIP3    H127136   2.475   6.062   1.749  2.8741  0.7174 -0.8694
 1859TIP3    H227137   2.587   5.968   1.710  0.7679 -1.1382 -2.7838
 1860TIP3   OH227138   1.409   4.796   7.480 -0.0457 -0.0423  0.0941
 1860TIP3    H127139   1.445   4.796   7.569 -0.2787  0.8015  0.1972
 1860TIP3    H227140   1.475   4.839   7.427  0.9157 -2.1692 -0.5157
 1861TIP3   OH227141   2.729   1.166   0.589  0.2532 -0.4627 -0.1715
 1861TIP3    H127142   2.779   1.241   0.622  0.7230 -0.6516 -0.4436
 1861TIP3    H227143   2.704   1.192   0.500 -0.5259 -0.1857  0.1156
 1862TIP3   OH227144   1.138   4.998   2.665  0.1651 -0.0535 -0.0156
 1862TIP3    H127145   1.074   5.024   2.731  0.7426  0.1599  0.4658
 1862TIP3    H227146   1.111   5.047   2.587  0.9442  1.6834  0.7497
 1863TIP3   OH227147   4.831   1.155   0.298  0.1139  0.6120  0.0780
 1863TIP3    H127148   4.750   1.193   0.263 -0.2651  1.0441  1.3755
 1863TIP3    H227149   4.805   1.067   0.325 -0.3436  1.2617  1.8943
 1864TIP3   OH227150   5.467   3.095   0.677  0.3510  0.0986 -0.2083
 1864TIP3    H127151   5.482   3.020   0.734 -3.3286 -1.4694 -0.9699
 1864TIP3    H227152   5.468   3.170   0.736 -0.7362 -1.1659  1.5372
 1865TIP3   OH227153   4.973   3.347   8.520 -0.2126  0.1281 -0.0486
 1865TIP3    H127154   4.982   3.442   8.514  1.6968 -0.0937 -1.8882
 1865TIP3    H227155   4.953   3.319   8.431 -0.9956 -1.2078  0.5064
 1866TIP3   OH227156   4.759   4.980   7.912  0.0997  0.4900 -0.0406
 1866TIP3    H127157   4.674   4.937   7.903 -1.4607  3.3358  0.1406
 1866TIP3    H227158   4.793   4.986   7.822 -0.3277  0.1968 -0.2222
 1867TIP3   OH227159   6.783   3.864   3.183  0.5860  0.2850 -0.1653
 1867TIP3    H127160   6.815   3.823   3.264  0.4304 -1.4992 -0.9512
 1867TIP3    H227161   6.707   3.914   3.210  1.2212  0.6702  0.9762
 1868TIP3   OH227162   0.552   5.317   3.788 -0.2932 -0.1511  0.0629
 1868TIP3    H127163   0.533   5.383   3.855  0.0226 -0.1746  0.1782
 1868TIP3    H227164   0.639   5.342   3.755 -0.3068 -0.3325 -0.1063
 1869TIP3   OH227165   0.687   4.904   8.385  0.2667 -0.3963 -0.9714
 1869TIP3    H127166   0.661   4.854   8.462  0.8018  0.1277 -0.4431
 1869TIP3    H227167   0.605   4.940   8.351  0.0278 -0.6359 -0.6517
 1870TIP3   OH227168   4.218   4.700   0.080 -0.7419 -0.5337  0.9878
 1870TIP3    H127169   4.244   4.611   0.059 -0.7907 -0.1685 -0.7665
 1870TIP3    H227170   4.296   4.740   0.117  0.0925 -0.5632 -0.6642
 1871TIP3   OH227171   2.848   3.107   2.467  0.4224 -0.0107  0.2440
 1871TIP3    H127172   2.834   3.056   2.546  1.6456 -1.8870 -0.6879
 1871TIP3    H227173   2.930   3.074   2.431  0.1665  1.1542 -1.5540
 1872TIP3   OH227174   0.353   5.987   2.012 -0.1043  0.0629  0.4436
 1872TIP3    H127175   0.391   5.907   1.976 -2.4899 -0.4389 -1.1908
 1872TIP3    H227176   0.336   6.043   1.937 -1.7423  0.5896  1.1442
 1873TIP3   OH227177   2.444   5.114   1.448 -0.2936  0.0569 -0.5647
 1873TIP3    H127178   2.371   5.113   1.386  0.2748  2.2267 -1.3639
 1873TIP3    H227179   2.417   5.055   1.518 -1.9720 -0.6624 -1.7633
 1874TIP3   OH227180   5.410   5.313   1.923  0.6333  0.6290  0.5880
 1874TIP3    H127181   5.497   5.346   1.900  0.9748 -1.0094 -0.6708
 1874TIP3    H227182   5.427   5.226   1.959 -0.4165  0.7737  1.4589
 1875TIP3   OH227183   5.382   3.119   3.236 -0.0674  0.4996  0.4173
 1875TIP3    H127184   5.333   3.096   3.314  1.6655 -0.6703  1.2382
 1875TIP3    H227185   5.448   3.181   3.266  1.7770 -1.3109  0.3545
 1876TIP3   OH227186   0.480   1.835   1.091  0.3672  0.4986  0.2701
 1876TIP3    H127187   0.484   1.771   1.020  0.3124  1.1938 -0.3717
 1876TIP3    H227188   0.518   1.790   1.167  0.5651 -0.1971 -0.2384
 1877TIP3   OH227189   1.563   2.710   1.294  0.3800 -0.0606 -0.1440
 1877TIP3    H127190   1.582   2.629   1.341  0.3327 -1.5148 -2.4815
 1877TIP3    H227191   1.647   2.736   1.255 -0.1627 -0.6616 -1.8045
 1878TIP3   OH227192   3.748   5.803   2.399  0.4349  0.5854  0.4177
 1878TIP3    H127193   3.670   5.778   2.350  0.8338  0.8060 -0.3620
 1878TIP3    H227194   3.765   5.894   2.372  1.1630  0.4173  0.2805
 1879TIP3   OH227195   5.871   2.191   8.598  0.0450  0.7187  0.1485
 1879TIP3    H127196   5.807   2.241   8.648 -1.2430  0.1362 -0.8616
 1879TIP3    H227197   5.864   2.102   8.633  0.5637  0.7313  0.2825
 1880TIP3   OH227198   1.886   5.424   1.552  0.1271  0.1589  0.2161
 1880TIP3    H127199   1.807   5.440   1.604 -0.0044  1.8622 -0.4271
 1880TIP3    H227200   1.948   5.385   1.613 -0.2511  1.4712  1.5028
 1881TIP3   OH227201   6.509   4.223   1.677 -0.1368  0.2222  0.4522
 1881TIP3    H127202   6.597   4.246   1.705  0.2784  0.3038 -0.8870
 1881TIP3    H227203   6.451   4.273   1.735  0.7052  1.0818  0.5627
 1882TIP3   OH227204   1.434   2.904   2.506 -0.2048  0.7365  0.5339
 1882TIP3    H127205   1.474   2.875   2.424  1.2664  1.8575  0.8272
 1882TIP3    H227206   1.384   2.982   2.482 -1.2306  0.0654  0.4083
 1883TIP3   OH227207   5.334   2.825   0.212 -0.3660 -0.2333  0.4753
 1883TIP3    H127208   5.348   2.900   0.269 -0.9128 -1.0727  1.7564
 1883TIP3    H227209   5.282   2.859   0.139  0.4797  0.8923  0.3762
 1884TIP3   OH227210   6.062   0.908   1.151  0.0531 -0.0315 -0.1402
 1884TIP3    H127211   6.083   0.824   1.192 -0.1328  0.9054  2.0316
 1884TIP3    H227212   6.041   0.886   1.060  2.1975 -2.0229 -0.2371
 1885TIP3   OH227213   5.613   5.305   1.019 -0.2658  0.7619 -0.3638
 1885TIP3    H127214   5.644   5.296   1.109  0.1240  1.5556 -0.4122
 1885TIP3    H227215   5.584   5.217   0.995  1.7412  0.0096 -0.2403
 1886TIP3   OH227216   0.640   4.320   0.102  0.0563  0.0617  0.1549
 1886TIP3    H127217   0.601   4.349   0.019  0.3704  0.0696  0.0092
 1886TIP3    H227218   0.700   4.391   0.126  0.2893 -0.1388  0.1668
 1887TIP3   OH227219   1.102   6.060   0.855  0.5016  0.1509 -0.2794
 1887TIP3    H127220   1.041   6.046   0.927  0.7811 -0.6459 -0.1841
 1887TIP3    H227221   1.052   6.041   0.776  0.2030  0.9964 -0.3082
 1888TIP3   OH227222   3.780   0.606   0.227 -0.4617  0.6281  0.2103
 1888TIP3    H127223   3.717   0.553   0.275 -0.8282  1.1368  0.2942
 1888TIP3    H227224   3.860   0.601   0.280 -0.7494  0.8703  0.6752
 1889TIP3   OH227225   1.987   2.118   0.966 -0.2274  0.4427 -0.2750
 1889TIP3    H127226   1.994   2.206   0.928  0.2621  1.0553  1.1806
 1889TIP3    H227227   2.007   2.130   1.059 -0.0501 -1.2305 -0.0710
 1890TIP3   OH227228   5.020   2.777   1.033 -0.5143 -0.2349  0.2098
 1890TIP3    H127229   4.941   2.810   0.990 -0.2023 -0.3079 -0.4262
 1890TIP3    H227230   5.025   2.685   1.008  0.7374  0.1927 -1.2314
 1891TIP3   OH227231   3.995   5.922   2.108  0.3874 -0.4013  0.7007
 1891TIP3    H127232   4.078   5.876   2.118  1.3696  1.1238  0.0251
 1891TIP3    H227233   3.984   5.929   2.013 -0.7146 -0.9262  0.7845
 1892TIP3   OH227234   3.779   3.401   1.778  0.0925  0.5359 -0.8779
 1892TIP3    H127235   3.737   3.387   1.862 -0.2523 -0.4120 -1.1898
 1892TIP3    H227236   3.857   3.452   1.798  1.6206 -2.1038  0.4783
 1893TIP3   OH227237   0.831   5.514   8.583  0.0548  0.0637  0.3439
 1893TIP3    H127238   0.889   5.563   8.641  0.8696  0.2793 -0.6187
 1893TIP3    H227239   0.805   5.437   8.634  1.8989 -0.5057  0.5042
 1894TIP3   OH227240   1.741   0.307   3.101  0.5530 -0.0705 -1.0108
 1894TIP3    H127241   1.734   0.349   3.015  3.6810  0.6154 -1.0335
 1894TIP3    H227242   1.760   0.215   3.082  0.4401 -0.0901 -1.0308
 1895TIP3   OH227243   6.093   2.580   2.951  0.1381 -0.1678  0.1813
 1895TIP3    H127244   6.051   2.576   2.865 -0.9916 -0.2734  0.7315
 1895TIP3    H227245   6.133   2.494   2.962 -0.5680 -0.5007  0.1856
 1896TIP3   OH227246   2.573   2.440   2.876  0.3754 -0.1833 -0.3090
 1896TIP3    H127247   2.644   2.377   2.860 -0.6780 -1.2451 -0.9604
 1896TIP3    H227248   2.510   2.392   2.930 -0.5617  0.2037 -1.0263
 1897TIP3   OH227249   3.489   6.119   3.204  0.3880 -0.1282 -0.8525
 1897TIP3    H127250   3.446   6.069   3.273  2.4047  0.0549  0.6334
 1897TIP3    H227251   3.431   6.193   3.187 -0.6515 -0.7528 -0.1216
 1898TIP3   OH227252   6.453   3.982   2.264 -0.6637 -0.0186 -0.2526
 1898TIP3    H127253   6.377   3.955   2.316 -0.6036 -1.8821 -1.0704
 1898TIP3    H227254   6.436   3.948   2.177  0.8525  0.0304 -0.5914
 1899TIP3   OH227255   2.477   3.850   1.701  0.3195 -0.6361 -0.0635
 1899TIP3    H127256   2.540   3.787   1.736  0.6635  0.6089  1.6632
 1899TIP3    H227257   2.494   3.851   1.606  1.6214 -1.6786  0.1332
 1900TIP3   OH227258   3.592   6.515   2.840  0.1776 -0.3842 -0.7540
 1900TIP3    H127259   3.592   6.525   2.935 -0.9800  1.6490 -0.9177
 1900TIP3    H227260   3.676   6.550   2.812  0.2545 -0.3971 -0.5402
 1901TIP3   OH227261   5.072   3.585   8.200 -0.0707  0.0646  0.4060
 1901TIP3    H127262   5.153   3.618   8.162  0.9680 -1.0477  1.5731
 1901TIP3    H227263   5.039   3.522   8.137  1.1011 -1.0292  0.8589
 1902TIP3   OH227264   5.016   1.562   0.962 -0.3077 -0.5375 -0.0758
 1902TIP3    H127265   5.017   1.497   0.891  0.1607  0.4497 -1.0032
 1902TIP3    H227266   4.977   1.515   1.036  2.0718 -2.5874  0.0030
 1903TIP3   OH227267   1.197   3.235   1.171  0.2082 -0.6422  0.3001
 1903TIP3    H127268   1.273   3.188   1.203  0.8873 -0.5203 -1.0820
 1903TIP3    H227269   1.128   3.169   1.165  0.2111 -0.7682  1.4765
 1904TIP3   OH227270   0.388   1.697   8.586  0.2188 -0.1440 -0.2521
 1904TIP3    H127271   0.330   1.764   8.551  1.9603  1.4053 -0.2905
 1904TIP3    H227272   0.381   1.706   8.681 -1.2565 -1.4815 -0.1934
 1905TIP3   OH227273   6.342   3.749   8.712 -0.1198  0.3279  0.3055
 1905TIP3    H127274   6.364   3.694   8.636 -1.1722 -0.5370  0.5948
 1905TIP3    H227275   6.272   3.806   8.680  1.1303  1.7243 -0.0640
 1906TIP3   OH227276   3.706   4.589   0.483 -0.4554 -0.2854 -0.2069
 1906TIP3    H127277   3.799   4.599   0.463 -0.4969 -0.7050 -0.6202
 1906TIP3    H227278   3.661   4.638   0.414 -0.5540 -0.5238 -0.3139
 1907TIP3   OH227279   0.281   1.871   0.844 -0.6148 -0.3459  0.1494
 1907TIP3    H127280   0.194   1.833   0.846 -0.0310 -1.7268  2.0906
 1907TIP3    H227281   0.271   1.957   0.886 -0.9961 -0.6293  0.6461
 1908TIP3   OH227282   5.140   6.158   0.237 -0.1499  0.8149 -0.2564
 1908TIP3    H127283   5.146   6.180   0.330 -0.4706  0.5262 -0.1666
 1908TIP3    H227284   5.178   6.070   0.231 -0.9530  0.4651 -0.2554
 1909TIP3   OH227285   0.814   0.006   2.572 -0.1495 -0.1297 -0.2197
 1909TIP3    H127286   0.907   0.013   2.592  0.0777 -1.0900 -0.8897
 1909TIP3    H227287   0.774  -0.024   2.654 -0.0532  1.3602  0.4006
 1910TIP3   OH227288   2.294   0.883   0.345 -0.1010  0.4079  0.2688
 1910TIP3    H127289   2.231   0.893   0.417 -1.2833 -0.4490 -0.6229
 1910TIP3    H227290   2.243   0.894   0.266  1.2192  1.4670 -0.4738
 1911TIP3   OH227291   0.074   1.055   3.768 -0.6502  0.5238  0.5529
 1911TIP3    H127292   0.052   0.969   3.732 -1.7412  1.3111 -0.7872
 1911TIP3    H227293  -0.010   1.101   3.773 -0.2418  1.1440  2.3205
 1912TIP3   OH227294   4.656   6.050   8.400  0.2618 -0.4663  0.3761
 1912TIP3    H127295   4.715   6.099   8.342  0.7808  1.3995  2.3266
 1912TIP3    H227296   4.586   6.018   8.343  1.8606 -0.6457 -1.6051
 1913TIP3   OH227297   6.760   6.350   1.504 -0.2544  0.1288 -0.6274
 1913TIP3    H127298   6.733   6.406   1.577  2.8951  1.6646 -0.4900
 1913TIP3    H227299   6.742   6.403   1.426  0.9354  0.5849 -0.6120
 1914TIP3   OH227300   0.826   0.880   2.514  0.0482  0.0184  0.0739
 1914TIP3    H127301   0.883   0.952   2.543  1.6532 -0.6527 -1.2564
 1914TIP3    H227302   0.817   0.894   2.420 -0.8961 -0.6668  0.0505
 1915TIP3   OH227303   4.902   2.781   1.788  0.2029  0.1486 -0.4999
 1915TIP3    H127304   4.910   2.839   1.712  1.1393  2.0064  0.9210
 1915TIP3    H227305   4.831   2.721   1.765 -2.6155  3.4022 -1.1549
 1916TIP3   OH227306   5.403   2.543   8.627  0.1905 -0.0645 -0.2748
 1916TIP3    H127307   5.321   2.548   8.676 -1.0284 -0.6278 -2.1457
 1916TIP3    H227308   5.411   2.628   8.584 -0.6496 -0.7739 -1.9089
 1917TIP3   OH227309   6.733   2.589   0.728 -0.5445 -0.1833 -0.2995
 1917TIP3    H127310   6.702   2.508   0.688 -1.0535 -0.6383  0.9770
 1917TIP3    H227311   6.777   2.561   0.808 -1.3138  0.8360  0.5033
 1918TIP3   OH227312   4.268   5.817   0.827 -0.0102  0.0664 -0.7136
 1918TIP3    H127313   4.183   5.790   0.791 -0.5957  1.0515 -0.0911
 1918TIP3    H227314   4.319   5.842   0.750 -0.6000  0.3482 -1.0186
 1919TIP3   OH227315   0.398   3.415   0.716 -0.1695  0.3392  0.3089
 1919TIP3    H127316   0.450   3.409   0.796 -0.0870 -1.4914  0.1425
 1919TIP3    H227317   0.411   3.332   0.671 -1.9752  0.4486 -0.5222
 1920TIP3   OH227318   0.256   2.005   1.949  0.4749  0.0528 -0.5357
 1920TIP3    H127319   0.225   1.944   2.015 -1.3921  0.1693 -1.2288
 1920TIP3    H227320   0.344   1.976   1.927  0.3410 -1.2036  0.5213
 1921TIP3   OH227321   1.112   2.402   3.215  0.4669 -0.8191 -0.0624
 1921TIP3    H127322   1.030   2.352   3.213  0.1981 -0.4192  0.6334
 1921TIP3    H227323   1.180   2.339   3.191 -0.2881 -0.6129 -3.1979
 1922TIP3   OH227324   3.411   4.575   0.298  0.4547  0.1479 -0.0586
 1922TIP3    H127325   3.419   4.668   0.322  0.8996  0.6753 -2.0297
 1922TIP3    H227326   3.328   4.548   0.337 -0.5946  1.9060 -0.9231
 1923TIP3   OH227327   0.090   1.649   2.548 -0.3279  0.3216  0.9471
 1923TIP3    H127328   0.062   1.733   2.583 -0.1572  0.2643  1.2282
 1923TIP3    H227329   0.122   1.601   2.624 -0.6069 -0.0735  0.8207
 1924TIP3   OH227330   3.269   3.633   1.482  0.0907  0.3569  0.1901
 1924TIP3    H127331   3.260   3.685   1.562  0.0856  1.8166 -0.7406
 1924TIP3    H227332   3.350   3.663   1.442  0.9251 -1.4844  0.4128
 1925TIP3   OH227333   6.052   3.840   3.210  0.0910  0.5770 -0.5348
 1925TIP3    H127334   6.104   3.793   3.276 -0.0752  1.7385  0.4691
 1925TIP3    H227335   6.118   3.879   3.151  0.3774  1.5016  0.3540
 1926TIP3   OH227336   5.418   2.737   0.554 -0.0898 -0.3508 -0.5785
 1926TIP3    H127337   5.330   2.702   0.541  0.0256 -1.1776  0.6445
 1926TIP3    H227338   5.408   2.832   0.549 -1.5838 -0.2625  2.1238
 1927TIP3   OH227339   3.032   2.675   8.473  0.1994 -0.5436 -0.1452
 1927TIP3    H127340   3.119   2.702   8.502  0.3969 -0.6443 -0.6238
 1927TIP3    H227341   2.975   2.749   8.493  0.7329  0.2524 -1.4477
 1928TIP3   OH227342   0.098   6.725   0.214 -0.2209 -0.2344 -0.8252
 1928TIP3    H127343   0.092   6.653   0.151 -0.3594 -0.9982  0.0402
 1928TIP3    H227344   0.185   6.762   0.198 -0.0664 -0.7164 -1.1528
 1929TIP3   OH227345   4.888   2.461   2.339 -0.0204 -0.4745 -0.2061
 1929TIP3    H127346   4.800   2.447   2.305  0.2617 -3.5308  0.0303
 1929TIP3    H227347   4.923   2.373   2.354  2.8075  0.6228  0.4510
 1930TIP3   OH227348   3.565   3.709   7.714  0.0223  0.0825 -0.0552
 1930TIP3    H127349   3.532   3.674   7.632  1.9783  0.4415 -1.0617
 1930TIP3    H227350   3.600   3.796   7.691  1.0617 -0.0123  1.0286
 1931TIP3   OH227351   1.377   6.005   2.745 -0.0347 -0.3022  0.8354
 1931TIP3    H127352   1.459   5.979   2.788 -0.8492 -0.4515  2.3752
 1931TIP3    H227353   1.309   5.979   2.807 -1.2304  0.2155 -0.2260
 1932TIP3   OH227354   2.371   0.983   2.537 -0.6150  0.4728 -0.2560
 1932TIP3    H127355   2.280   1.002   2.559 -1.1335 -1.7930 -0.1755
 1932TIP3    H227356   2.376   1.000   2.443 -1.0277  0.9456 -0.1971
 1933TIP3   OH227357   4.020   1.355   1.206  0.1984  0.2606 -0.3077
 1933TIP3    H127358   3.935   1.327   1.173 -0.2434  0.1442  0.8875
 1933TIP3    H227359   4.016   1.450   1.207 -0.7049  0.2470  1.6427
 1934TIP3   OH227360   5.272   4.029   7.753 -0.3699 -0.2128  0.3457
 1934TIP3    H127361   5.200   4.024   7.816 -0.0153  0.2643  0.8011
 1934TIP3    H227362   5.237   3.991   7.673 -0.9344 -0.5286  0.7398
 1935TIP3   OH227363   3.840   6.491   8.661 -0.7477 -0.3996  0.5999
 1935TIP3    H127364   3.799   6.575   8.639  0.2693 -0.0419  0.0099
 1935TIP3    H227365   3.820   6.434   8.586  0.9526  0.1938 -0.3630
 1936TIP3   OH227366   3.773   2.128   1.151  0.1232  0.4051  0.1285
 1936TIP3    H127367   3.763   2.168   1.237  1.1074 -1.3711  1.1276
 1936TIP3    H227368   3.765   2.034   1.167 -1.6899  0.1030 -2.0478
 1937TIP3   OH227369   0.517   5.531   3.348 -0.5748 -0.1888  0.3888
 1937TIP3    H127370   0.608   5.561   3.347 -0.3676 -0.6141  2.2466
 1937TIP3    H227371   0.469   5.597   3.298  0.5137  0.9713  0.8340
 1938TIP3   OH227372   1.075   5.165   1.735 -0.2465 -0.1188  0.3501
 1938TIP3    H127373   1.163   5.165   1.697  0.3159 -0.7212  1.5947
 1938TIP3    H227374   1.061   5.256   1.760  1.4842 -0.5292  3.2706
 1939TIP3   OH227375   4.440   5.637   1.973  0.4913 -0.5307 -0.4463
 1939TIP3    H127376   4.521   5.642   1.923  0.6034  2.9065 -0.1695
 1939TIP3    H227377   4.464   5.592   2.054  2.0717  0.1377 -0.5130
 1940TIP3   OH227378   6.267   1.091   0.117  0.1599  0.1930  0.3571
 1940TIP3    H127379   6.292   1.084   0.209  1.6255  3.6094  0.4056
 1940TIP3    H227380   6.300   1.011   0.076  4.3237  0.8300  1.9625
 1941TIP3   OH227381   6.817   0.610   1.198 -0.1179  0.0026 -0.8447
 1941TIP3    H127382   6.835   0.538   1.258 -3.9282 -1.9793 -1.7279
 1941TIP3    H227383   6.737   0.650   1.232 -0.5782  0.9008 -2.8043
 1942TIP3   OH227384   2.405   1.764   2.202  0.0963  0.3168  0.2339
 1942TIP3    H127385   2.354   1.721   2.271  0.6867 -0.6065  0.1023
 1942TIP3    H227386   2.356   1.844   2.183  0.1438  0.8116  2.0181
 1943TIP3   OH227387   4.565   3.608   1.318  0.1417 -0.5878 -0.0515
 1943TIP3    H127388   4.564   3.514   1.337 -1.0684 -0.4397  0.7475
 1943TIP3    H227389   4.658   3.631   1.316  0.4448 -1.3994  1.9563
 1944TIP3   OH227390   0.624   2.776   1.532  0.2250 -0.2326 -0.7852
 1944TIP3    H127391   0.656   2.821   1.610  1.3235 -0.9120 -0.8292
 1944TIP3    H227392   0.696   2.719   1.505 -0.1778 -0.0977 -2.2339
 1945TIP3   OH227393   1.412   2.418   0.356  0.4387  0.2071 -0.2101
 1945TIP3    H127394   1.356   2.409   0.433 -1.7578 -1.4963 -1.8741
 1945TIP3    H227395   1.485   2.358   0.372 -0.8071 -1.3181 -0.0790
 1946TIP3   OH227396   2.061   0.040   0.335 -0.0436  0.0492 -0.1499
 1946TIP3    H127397   2.127   0.109   0.331 -0.8653  0.8590 -0.1952
 1946TIP3    H227398   2.022   0.039   0.248 -1.2531  0.7917  0.3470
 1947TIP3   OH227399   3.450   0.869   8.229  0.6989  1.1679 -0.5611
 1947TIP3    H127400   3.509   0.801   8.261 -0.0873  0.6634 -0.1603
 1947TIP3    H227401   3.487   0.894   8.144  1.1989  0.5064 -0.5450
 1948TIP3   OH227402   3.532   6.160   1.490 -0.0169  0.2982  0.5472
 1948TIP3    H127403   3.613   6.196   1.525 -0.8978  1.2639  1.6656
 1948TIP3    H227404   3.508   6.221   1.419 -0.1880  0.4748  0.7568
 1949TIP3   OH227405   1.355   5.147   0.401 -0.6014 -0.0435  0.3877
 1949TIP3    H127406   1.330   5.057   0.380 -0.3348 -0.0857  0.2445
 1949TIP3    H227407   1.410   5.175   0.328  1.5151 -0.6765  1.6563
 1950TIP3   OH227408   6.840   0.956   0.363 -0.3368  0.2701  0.4443
 1950TIP3    H127409   6.911   0.892   0.365 -0.8267 -0.2772  0.3917
 1950TIP3    H227410   6.769   0.915   0.412 -2.0324 -0.8921 -2.7024
 1951TIP3   OH227411   1.340   3.713   2.953  0.2702 -0.0897 -0.1808
 1951TIP3    H127412   1.385   3.677   2.877 -0.2070  0.5676 -0.7934
 1951TIP3    H227413   1.286   3.641   2.985 -0.0580 -0.1682 -0.8941
 1952TIP3   OH227414   0.045   1.631   3.428 -0.0362 -0.3097  0.3654
 1952TIP3    H127415   0.054   1.709   3.374 -0.8824  0.2982  1.0679
 1952TIP3    H227416   0.083   1.656   3.513  0.8835 -1.1050  0.2193
 1953TIP3   OH227417   4.239   4.025   2.627  0.3484 -0.6498  0.2062
 1953TIP3    H127418   4.320   3.976   2.613  1.4365  0.5460  1.8952
 1953TIP3    H227419   4.193   4.020   2.543  1.0690 -3.2595 -0.1390
 1954TIP3   OH227420   3.090   0.952   2.658  0.6576 -0.1953  0.1328
 1954TIP3    H127421   3.031   0.878   2.649 -0.1240  0.0784  2.4552
 1954TIP3    H227422   3.067   1.010   2.585  0.3770 -1.5829 -0.9281
 1955TIP3   OH227423   0.674   0.774   1.574 -0.1312  0.0014  0.1989
 1955TIP3    H127424   0.710   0.783   1.486  0.1609 -1.0864  0.1956
 1955TIP3    H227425   0.644   0.863   1.597 -1.3829  0.0740 -1.4810
 1956TIP3   OH227426   1.509   6.366   7.860  0.7828  0.3516  0.5759
 1956TIP3    H127427   1.571   6.341   7.928  0.3924 -0.8038  0.5295
 1956TIP3    H227428   1.540   6.323   7.781  0.4530  0.5412  0.3366
 1957TIP3   OH227429   5.080   3.273   2.308 -0.1997 -0.4581 -0.0119
 1957TIP3    H127430   5.156   3.326   2.284 -0.6592 -0.1948 -0.9537
 1957TIP3    H227431   5.095   3.248   2.399  0.6498  0.2097  0.0390
 1958TIP3   OH227432   3.184   6.655   0.528  0.0539 -0.4945  0.1805
 1958TIP3    H127433   3.184   6.711   0.605 -0.5635 -0.2738  0.0245
 1958TIP3    H227434   3.212   6.712   0.457  2.8865 -1.2255  0.5840
 1959TIP3   OH227435   0.417   4.734   1.338  0.0552 -0.0285  0.1077
 1959TIP3    H127436   0.397   4.656   1.285  0.5817  0.0199 -0.1771
 1959TIP3    H227437   0.502   4.763   1.305 -0.8565  1.6307 -0.9212
 1960TIP3   OH227438   0.981   4.283   2.522 -0.5637 -0.4567  0.3256
 1960TIP3    H127439   1.068   4.322   2.520  0.3001 -2.0084  2.8969
 1960TIP3    H227440   0.969   4.244   2.436  0.7415  0.8271 -0.4694
 1961TIP3   OH227441   6.399   1.414   2.619  0.2258  0.6067  0.4325
 1961TIP3    H127442   6.343   1.438   2.693 -0.8681  1.7270 -0.7105
 1961TIP3    H227443   6.483   1.391   2.659 -0.7873 -0.3628  2.1425
 1962TIP3   OH227444   5.651   4.610   0.544  0.0610  0.2867 -0.7735
 1962TIP3    H127445   5.646   4.704   0.565 -0.7071  0.8408 -3.0739
 1962TIP3    H227446   5.736   4.600   0.500  0.0610 -0.0664 -0.6963
 1963TIP3   OH227447   0.923   6.515   0.506  0.0743  1.0487 -0.6819
 1963TIP3    H127448   0.942   6.571   0.582 -0.4596  0.8001 -0.3578
 1963TIP3    H227449   0.927   6.575   0.431  2.3241  0.9780 -0.6975
 1964TIP3   OH227450   1.137   3.106   2.509  0.3393 -0.0368 -0.6548
 1964TIP3    H127451   1.147   3.200   2.523  1.9992 -0.2661 -0.1336
 1964TIP3    H227452   1.169   3.092   2.420 -1.4868  0.0864 -1.3866
 1965TIP3   OH227453   4.587   4.737   0.776  0.4801 -0.1419 -0.5145
 1965TIP3    H127454   4.655   4.695   0.724  0.8050  1.0000 -1.0480
 1965TIP3    H227455   4.504   4.706   0.739  0.6921  1.2581 -2.2761
 1966TIP3   OH227456   0.696   5.104   0.172 -0.4325 -0.4542 -0.6298
 1966TIP3    H127457   0.735   5.027   0.214  0.1033  0.5851  0.8349
 1966TIP3    H227458   0.609   5.076   0.145  0.7220 -2.4211 -2.6973
 1967TIP3   OH227459   0.536   2.340   0.947 -0.2317 -0.5336  0.3944
 1967TIP3    H127460   0.541   2.284   1.024  0.4667 -0.4524  0.4119
 1967TIP3    H227461   0.569   2.286   0.875 -0.4686 -0.4642  0.2328
 1968TIP3   OH227462   2.815   0.288   3.128  0.3203 -0.2823 -0.2803
 1968TIP3    H127463   2.831   0.247   3.213 -0.0766 -0.0034 -0.0678
 1968TIP3    H227464   2.862   0.372   3.132 -3.3284  1.9419  1.4731
 1969TIP3   OH227465   3.889   4.613   0.960 -0.0965  0.4939 -0.0410
 1969TIP3    H127466   3.821   4.652   1.014 -2.0693 -0.6192 -1.5982
 1969TIP3    H227467   3.907   4.529   1.002 -1.3411 -0.1950 -0.8275
 1970TIP3   OH227468   5.936   0.592   1.998  0.0668 -0.1763  0.3553
 1970TIP3    H127469   6.028   0.618   1.999 -0.2665  1.0928  0.1134
 1970TIP3    H227470   5.913   0.579   2.090  0.0979  1.0512  0.5563
 1971TIP3   OH227471   6.063   5.223   1.224 -0.1487  0.5116  0.3229
 1971TIP3    H127472   6.018   5.298   1.264 -1.0354  0.2684 -0.1939
 1971TIP3    H227473   5.995   5.180   1.172  0.9549  0.8448 -1.4823
 1972TIP3   OH227474   0.208   1.121   1.397 -0.2878  0.8122 -0.2474
 1972TIP3    H127475   0.233   1.062   1.327 -0.7504  1.0914 -0.6539
 1972TIP3    H227476   0.119   1.093   1.420  0.0486  0.3848  0.5876
 1973TIP3   OH227477   0.914   1.445   1.411 -0.1829 -0.1114  0.3964
 1973TIP3    H127478   0.951   1.380   1.472  2.3444  1.8473  1.1332
 1973TIP3    H227479   0.847   1.397   1.363  0.6333 -2.8997  1.8148
 1974TIP3   OH227480   2.665   3.310   2.442 -0.1386  0.0160 -0.0487
 1974TIP3    H127481   2.713   3.374   2.494  1.6860  0.6051 -2.3037
 1974TIP3    H227482   2.726   3.238   2.429 -1.3008 -1.0768  0.3366
 1975TIP3   OH227483   0.999   0.591   2.953 -0.1849  0.0461 -0.0434
 1975TIP3    H127484   1.013   0.658   3.019 -2.9430 -1.1200  1.9406
 1975TIP3    H227485   0.987   0.640   2.871  0.0783  1.7891  0.9181
 1976TIP3   OH227486   4.908   1.398   2.019 -0.2646  0.2237 -0.2424
 1976TIP3    H127487   4.872   1.318   1.979 -0.1960  0.2341 -0.3267
 1976TIP3    H227488   4.918   1.376   2.111 -2.3284  0.8540  0.1974
 1977TIP3   OH227489   2.416   3.433   0.360  0.3504 -0.3021 -0.2104
 1977TIP3    H127490   2.484   3.496   0.335  0.0676 -0.7570 -2.3131
 1977TIP3    H227491   2.352   3.484   0.408 -0.3460  1.2977 -2.6737
 1978TIP3   OH227492   2.967   5.667   0.199  0.4133 -0.4494 -0.2171
 1978TIP3    H127493   2.927   5.582   0.181 -1.2581  0.2996 -0.2522
 1978TIP3    H227494   3.022   5.685   0.123  3.1872 -2.7705  1.0609
 1979TIP3   OH227495   1.180   2.509   2.604  0.0513  0.6455 -0.3289
 1979TIP3    H127496   1.208   2.425   2.567  0.1630  0.0734  1.0000
 1979TIP3    H227497   1.216   2.574   2.544 -3.4844 -0.2104 -3.8552
 1980TIP3   OH227498   3.234   3.198   0.269 -0.0692 -0.1865 -0.3489
 1980TIP3    H127499   3.142   3.194   0.297 -0.1786 -1.1633 -0.8237
 1980TIP3    H227500   3.231   3.182   0.175  0.4448  1.4766 -0.6923
 1981TIP3   OH227501   0.018   3.263   8.170 -0.5747 -0.2248  0.2333
 1981TIP3    H127502  -0.054   3.259   8.107 -1.2554  0.0928  0.9914
 1981TIP3    H227503   0.014   3.351   8.206 -0.6587 -0.6465  1.2709
 1982TIP3   OH227504   2.172   0.848   7.865  0.0055 -0.2052 -0.1504
 1982TIP3    H127505   2.146   0.940   7.858 -0.3890 -0.3635 -0.8803
 1982TIP3    H227506   2.237   0.847   7.935  1.4894  0.9636 -1.4263
 1983TIP3   OH227507   3.593   1.842   2.800  0.0485 -0.2166  0.5820
 1983TIP3    H127508   3.545   1.792   2.733 -0.5119  0.2489  0.6301
 1983TIP3    H227509   3.685   1.822   2.783 -0.1150 -0.4764 -0.0281
 1984TIP3   OH227510   1.419   5.025   0.762  0.1032 -0.0973  0.2926
 1984TIP3    H127511   1.386   5.114   0.777  2.0571  0.5128  1.3202
 1984TIP3    H227512   1.410   4.982   0.847 -0.1050 -0.6342  0.0008
 1985TIP3   OH227513   3.770   2.176   8.451 -0.6701  0.3155  0.4548
 1985TIP3    H127514   3.689   2.225   8.469 -1.4179 -0.4061 -0.7875
 1985TIP3    H227515   3.766   2.101   8.510 -0.2745  0.9327  1.2801
 1986TIP3   OH227516   2.203   5.441   2.047  0.3149 -0.1201 -0.5238
 1986TIP3    H127517   2.123   5.388   2.048  2.0822 -3.0027  0.4016
 1986TIP3    H227518   2.259   5.399   1.982  3.1173 -1.7250  2.6312
 1987TIP3   OH227519   2.861   4.216   0.520  0.2500 -0.0852  0.4351
 1987TIP3    H127520   2.806   4.214   0.599  0.5751 -2.6498  0.6728
 1987TIP3    H227521   2.807   4.176   0.452  1.2197 -1.1265  0.2536
 1988TIP3   OH227522   3.601   2.087   3.595  0.0482 -0.7343  0.4088
 1988TIP3    H127523   3.559   2.082   3.681  2.2542  0.4630  1.6500
 1988TIP3    H227524   3.583   2.177   3.565 -1.0000 -1.2505 -0.5862
 1989TIP3   OH227525   5.365   1.672   0.052  0.6590 -0.0669 -0.8747
 1989TIP3    H127526   5.389   1.679  -0.041 -0.1466  0.2907 -1.0605
 1989TIP3    H227527   5.294   1.608   0.053  0.9205 -0.3526 -0.4526
 1990TIP3   OH227528   4.927   1.907   1.242 -0.4476  0.4447 -0.2489
 1990TIP3    H127529   4.864   1.840   1.269  0.0628 -0.2426 -0.7706
 1990TIP3    H227530   4.985   1.864   1.180 -0.0220  1.3291 -0.4885
 1991TIP3   OH227531   2.193   3.658   8.415 -0.3606 -0.0522  0.0899
 1991TIP3    H127532   2.152   3.644   8.329 -1.0404  0.4962  0.3101
 1991TIP3    H227533   2.276   3.701   8.394 -1.0927  1.2665 -0.2542
 1992TIP3   OH227534   3.423   5.996   1.213  0.2019  1.0747  0.6009
 1992TIP3    H127535   3.376   5.921   1.249  1.1484 -0.0027 -0.3096
 1992TIP3    H227536   3.356   6.048   1.168 -0.3326  0.3158  0.5075
 1993TIP3   OH227537   0.379   2.709   1.459 -0.2887  0.3756  0.5549
 1993TIP3    H127538   0.465   2.733   1.492 -0.6748  0.6176  1.4286
 1993TIP3    H227539   0.357   2.778   1.396  0.0135  0.4993  0.5855
 1994TIP3   OH227540   6.825   1.465   3.233  0.2311 -0.1037  0.7524
 1994TIP3    H127541   6.797   1.517   3.157 -1.8326  0.2539  1.6749
 1994TIP3    H227542   6.832   1.529   3.303  4.1714 -0.0750  0.5052
 1995TIP3   OH227543   2.507   1.897   0.586 -0.0336  0.2375 -0.6035
 1995TIP3    H127544   2.470   1.837   0.650 -0.3972  1.6167  0.5025
 1995TIP3    H227545   2.505   1.848   0.504 -0.5869 -1.1528  0.2097
 1996TIP3   OH227546   1.644   2.368   2.097 -0.1492  0.0533  0.1035
 1996TIP3    H127547   1.702   2.293   2.085 -2.6408 -2.3532  1.8409
 1996TIP3    H227548   1.676   2.410   2.177  1.4243  1.1149 -1.0238
 1997TIP3   OH227549   3.251   2.934   1.948 -0.0084  0.5107  0.0344
 1997TIP3    H127550   3.259   2.879   2.026  1.6379  0.3010 -0.2448
 1997TIP3    H227551   3.178   2.993   1.968 -0.9393 -0.8611  0.8881
 1998TIP3   OH227552   6.584   4.695   2.745 -0.2661  0.5401  0.2797
 1998TIP3    H127553   6.641   4.642   2.800 -0.7923 -0.8647 -0.4907
 1998TIP3    H227554   6.626   4.695   2.659  0.3377  2.3818  0.5259
 1999TIP3   OH227555   2.794   5.352   1.042 -0.0334 -0.1362 -0.2267
 1999TIP3    H127556   2.805   5.262   1.010 -0.3581 -0.2122 -0.1334
 1999TIP3    H227557   2.758   5.342   1.130 -0.8205  0.0864 -0.5086
 2000TIP3   OH227558   2.490   4.389   1.230 -0.1689 -0.1525  0.4753
 2000TIP3    H127559   2.506   4.476   1.265 -0.5348 -0.1017  0.5265
 2000TIP3    H227560   2.414   4.357   1.279  0.3532 -0.7524  0.8991
 2001TIP3   OH227561   5.536   4.429   0.285  0.2704 -0.2571 -0.1252
 2001TIP3    H127562   5.621   4.400   0.253 -0.2508 -0.2648 -1.5897
 2001TIP3    H227563   5.532   4.522   0.261 -0.1470 -0.2579 -0.0724
 2002TIP3   OH227564   0.614   1.425   8.722 -0.3214  0.4501  0.6481
 2002TIP3    H127565   0.529   1.445   8.761 -0.3631  0.3536  0.6087
 2002TIP3    H227566   0.595   1.356   8.659 -0.0100 -0.5080  1.5704
 2003TIP3   OH227567   2.782   1.972   0.612 -0.0847 -0.2440 -0.1563
 2003TIP3    H127568   2.687   1.984   0.617 -0.0416  0.5264 -0.9476
 2003TIP3    H227569   2.818   2.058   0.633  0.4727 -0.7289  0.9085
 2004TIP3   OH227570   4.256   4.383   1.546 -0.3711 -0.4689  0.2549
 2004TIP3    H127571   4.276   4.387   1.639 -0.0639  1.2710  0.1457
 2004TIP3    H227572   4.210   4.465   1.528 -0.0531 -0.5833 -1.2092
 2005TIP3   OH227573   3.499   1.399   2.711  0.3644 -0.2002  0.2566
 2005TIP3    H127574   3.483   1.406   2.617  1.3609  0.8123  0.1282
 2005TIP3    H227575   3.415   1.375   2.749 -0.6317  1.6352 -0.6644
 2006TIP3   OH227576   4.880   3.789   3.191 -0.3568 -0.1837  0.3213
 2006TIP3    H127577   4.814   3.727   3.223 -1.5825  1.0814  0.3230
 2006TIP3    H227578   4.839   3.875   3.199  1.2094  0.6254  0.0733
 2007TIP3   OH227579   5.390   1.679   3.410  0.5836 -0.4472  0.2133
 2007TIP3    H127580   5.364   1.619   3.480 -0.5458 -1.5699 -1.1031
 2007TIP3    H227581   5.309   1.725   3.387  0.6148 -1.0952 -1.2635
 2008TIP3   OH227582   5.530   6.703   0.484 -0.2825 -0.1334  0.2420
 2008TIP3    H127583   5.586   6.627   0.492  2.0854  1.3991 -0.6875
 2008TIP3    H227584   5.575   6.772   0.533 -1.9136  0.9093  0.3580
 2009TIP3   OH227585   6.076   3.871   3.972  0.7153  0.8185 -0.0228
 2009TIP3    H127586   6.105   3.916   3.893 -0.2772  0.5334 -0.5740
 2009TIP3    H227587   5.989   3.909   3.989  0.3294 -0.1151  0.1244
 2010TIP3   OH227588   4.032   2.049   1.213  0.2962  0.5246  0.3116
 2010TIP3    H127589   3.954   2.073   1.163 -0.5277 -1.2270  0.6718
 2010TIP3    H227590   4.009   1.966   1.256  2.3564 -0.0818  0.3843
 2011TIP3   OH227591   1.419   1.689   0.120 -0.0612  0.8020 -0.1516
 2011TIP3    H127592   1.413   1.671   0.214  1.8157 -0.2682 -0.1908
 2011TIP3    H227593   1.465   1.772   0.114  0.8556  0.3115 -0.1133
 2012TIP3   OH227594   0.015   4.930   7.743 -0.1224 -0.8934  0.1030
 2012TIP3    H127595   0.052   4.843   7.729  0.5852 -0.7293  0.8765
 2012TIP3    H227596   0.039   4.953   7.833 -0.8766 -0.1730  0.1421
 2013TIP3   OH227597   4.361   4.414   2.960 -0.0264 -0.4707 -0.0679
 2013TIP3    H127598   4.421   4.489   2.957 -0.5502 -0.0546 -0.5824
 2013TIP3    H227599   4.393   4.355   2.892  0.2043 -0.5659  0.1247
 2014TIP3   OH227600   6.791   0.115   1.583 -0.7866 -0.2588 -0.2045
 2014TIP3    H127601   6.729   0.124   1.655  0.3834 -2.6978  1.2359
 2014TIP3    H227602   6.875   0.095   1.625  0.8884  2.1540 -2.1018
 2015TIP3   OH227603   0.530   6.113   3.454 -0.3256  0.2508 -0.1492
 2015TIP3    H127604   0.550   6.138   3.545 -1.9996 -0.8832  0.5817
 2015TIP3    H227605   0.602   6.056   3.429 -1.0660 -1.4434  1.3810
 2016TIP3   OH227606   0.786   5.987   1.450 -0.5155  0.6393  0.3412
 2016TIP3    H127607   0.809   6.027   1.534 -0.2496 -0.4256  0.8010
 2016TIP3    H227608   0.858   6.011   1.391  0.0332  0.1961  0.8224
 2017TIP3   OH227609   4.305   4.801   1.142  0.3002 -0.8627 -0.0134
 2017TIP3    H127610   4.380   4.842   1.100  0.2917  0.1770  0.9489
 2017TIP3    H227611   4.233   4.862   1.127 -0.5866 -2.1958 -1.5906
 2018TIP3   OH227612   3.615   2.286   0.787 -0.4052 -0.1413  0.5699
 2018TIP3    H127613   3.644   2.196   0.802 -0.6048  0.2090  3.8540
 2018TIP3    H227614   3.618   2.297   0.692  2.9547 -2.4626  0.2442
 2019TIP3   OH227615   1.289   4.360   1.238 -0.3699 -0.0954 -0.1134
 2019TIP3    H127616   1.206   4.401   1.213 -0.2497 -0.3204 -0.8963
 2019TIP3    H227617   1.265   4.300   1.309 -0.5857  1.1076  0.8597
 2020TIP3   OH227618   3.600   0.433   2.494  0.0991 -0.4639 -0.0808
 2020TIP3    H127619   3.611   0.339   2.480 -2.3437 -0.8099 -0.1440
 2020TIP3    H227620   3.675   0.459   2.547  0.4112 -2.6149  0.6182
 2021TIP3   OH227621   2.752   6.532   0.634  0.4681 -0.0027  0.2128
 2021TIP3    H127622   2.834   6.510   0.591  1.0427  1.6825  0.3680
 2021TIP3    H227623   2.685   6.490   0.581  1.3603 -0.6300 -0.4511
 2022TIP3   OH227624   6.562   3.786   0.103 -0.1372  0.1892 -0.3433
 2022TIP3    H127625   6.477   3.789   0.057 -0.5553 -0.8909  0.3255
 2022TIP3    H227626   6.575   3.694   0.123  0.3256  0.5550  1.1845
 2023TIP3   OH227627   3.163   2.349   1.134  0.0625  0.3314 -0.1221
 2023TIP3    H127628   3.180   2.359   1.040 -0.2975  0.4028 -0.1819
 2023TIP3    H227629   3.178   2.257   1.151  1.1530  0.5174 -0.0373
 2024TIP3   OH227630   1.992   0.691   0.563  0.1324  0.9646  0.4722
 2024TIP3    H127631   1.912   0.655   0.602  0.0352  0.1821 -0.3984
 2024TIP3    H227632   1.973   0.694   0.469  1.2859  0.3289  0.2048
 2025TIP3   OH227633   5.038   5.416   7.971 -0.3845  0.0799 -0.0263
 2025TIP3    H127634   5.059   5.459   7.887  0.0624 -0.0884 -0.0060
 2025TIP3    H227635   5.116   5.430   8.025 -0.6785  0.1979  0.3657
 2026TIP3   OH227636   5.343   6.076   3.839 -0.1905  0.6183  0.0960
 2026TIP3    H127637   5.365   6.167   3.857  1.5769 -0.2346  2.8606
 2026TIP3    H227638   5.428   6.033   3.822 -0.5087 -1.1413  2.4657
 2027TIP3   OH227639   2.231   5.691   1.851 -0.2549  0.3358  0.9951
 2027TIP3    H127640   2.139   5.679   1.826  0.6820 -2.4702 -1.8145
 2027TIP3    H227641   2.236   5.658   1.940 -1.5950 -2.1198  0.2768
 2028TIP3   OH227642   0.265   4.947   1.617 -0.2910 -0.2984 -0.0244
 2028TIP3    H127643   0.224   4.920   1.535 -0.8293 -1.0810  0.4895
 2028TIP3    H227644   0.193   4.955   1.679  0.0253  0.9613  0.2126
 2029TIP3   OH227645   1.539   0.576   7.845 -0.3164 -0.0775  0.4441
 2029TIP3    H127646   1.452   0.556   7.811  0.1515 -0.8380 -0.3260
 2029TIP3    H227647   1.526   0.584   7.940 -1.5589  1.6612  0.1739
 2030TIP3   OH227648   2.093   6.503   1.426  0.2571  0.4147 -0.2384
 2030TIP3    H127649   2.156   6.568   1.395  2.1233 -1.4323 -0.5287
 2030TIP3    H227650   2.059   6.462   1.347 -0.1304  0.3040 -0.0193
 2031TIP3   OH227651   1.117   5.235   1.377 -0.1737 -0.9975  0.1542
 2031TIP3    H127652   1.131   5.275   1.291 -2.4331  1.3868  0.7440
 2031TIP3    H227653   1.115   5.141   1.361  2.1103 -0.7899 -1.9087
 2032TIP3   OH227654   4.851   2.059   8.084  0.1027 -0.1232  0.2193
 2032TIP3    H127655   4.813   2.119   8.148  0.4469 -0.5599  0.8440
 2032TIP3    H227656   4.822   2.093   7.999 -2.2234 -0.8173  0.6704
 2033TIP3   OH227657   0.475   2.913   1.768  0.0420 -0.1593 -0.0755
 2033TIP3    H127658   0.408   2.977   1.793 -0.4299  0.7630 -3.1892
 2033TIP3    H227659   0.558   2.958   1.785 -0.2453  0.4315 -0.1946
 2034TIP3   OH227660   5.765   4.604   3.092 -0.0375 -0.4035  0.0011
 2034TIP3    H127661   5.736   4.543   3.159 -0.7869 -0.6988 -0.5789
 2034TIP3    H227662   5.818   4.551   3.032 -0.5539 -0.4543 -0.4148
 2035TIP3   OH227663   6.111   2.858   2.397  0.2111 -0.0457 -0.0800
 2035TIP3    H127664   6.095   2.951   2.408  0.7646 -0.0485  0.8193
 2035TIP3    H227665   6.028   2.816   2.421  0.3800  0.1447  0.8717
 2036TIP3   OH227666   4.437   6.430   3.034  0.0690  0.3751 -0.2511
 2036TIP3    H127667   4.453   6.451   3.126 -0.0023  0.6019 -0.2890
 2036TIP3    H227668   4.347   6.459   3.018 -0.8067 -1.8728  0.2367
 2037TIP3   OH227669   6.467   6.106   0.172  0.2637  0.5973 -0.4535
 2037TIP3    H127670   6.454   6.172   0.103  0.3863  0.7138 -0.3674
 2037TIP3    H227671   6.506   6.031   0.126  0.1249  0.5860 -0.5518
 2038TIP3   OH227672   0.257   2.174   1.741 -0.3309 -0.7502 -0.2652
 2038TIP3    H127673   0.235   2.251   1.794 -0.5634 -0.7885 -0.3094
 2038TIP3    H227674   0.274   2.105   1.806 -1.1288 -0.9406 -0.2462
 2039TIP3   OH227675   0.303   1.828   3.021  0.5123  0.9756  0.1912
 2039TIP3    H127676   0.265   1.772   2.953 -0.5298  1.1053  0.6417
 2039TIP3    H227677   0.392   1.846   2.991  0.4606  0.0654 -0.5513
 2040TIP3   OH227678   6.458   5.157   0.777  0.2300 -0.8697 -0.2248
 2040TIP3    H127679   6.521   5.213   0.822 -1.1014 -0.0845  0.7376
 2040TIP3    H227680   6.471   5.177   0.684  0.9353 -0.2256 -0.0041
 2041TIP3   OH227681   6.456   4.325   2.948  0.0047 -0.0184 -0.4605
 2041TIP3    H127682   6.418   4.378   3.019  0.1117  0.9849 -1.1291
 2041TIP3    H227683   6.430   4.370   2.868 -2.0262 -2.3629 -1.2289
 2042TIP3   OH227684   0.836   6.394   8.054 -0.2156 -1.0108 -0.1308
 2042TIP3    H127685   0.929   6.373   8.054  0.4152  1.4823  1.5511
 2042TIP3    H227686   0.827   6.465   7.990 -0.3217  0.9912  2.0057
 2043TIP3   OH227687   6.247   4.557   1.789 -0.7297  0.0532  0.4855
 2043TIP3    H127688   6.155   4.545   1.769 -0.7012 -0.4479  0.6298
 2043TIP3    H227689   6.251   4.564   1.884 -0.8054  1.8673  0.3841
 2044TIP3   OH227690   0.297   2.942   1.276 -0.8600  0.7515  1.0450
 2044TIP3    H127691   0.352   3.012   1.241  0.7986 -0.4366  1.1216
 2044TIP3    H227692   0.223   2.987   1.316 -0.3286  2.3932  0.2736
 2045TIP3   OH227693   2.218   4.760   0.904 -0.2122 -0.1452  0.0491
 2045TIP3    H127694   2.301   4.769   0.857 -0.9395 -1.4740 -1.6189
 2045TIP3    H227695   2.227   4.677   0.952  0.4716  1.1319  2.2840
 2046TIP3   OH227696   6.253   0.492   3.103  0.0154 -0.4388 -0.7562
 2046TIP3    H127697   6.260   0.494   3.198 -0.1760 -0.1431 -0.7488
 2046TIP3    H227698   6.260   0.583   3.076  0.1809 -0.5322 -1.0339
 2047TIP3   OH227699   1.476   3.898   2.557  0.4512  0.2892 -0.1404
 2047TIP3    H127700   1.415   3.830   2.528  2.5052 -1.2697 -1.0682
 2047TIP3    H227701   1.477   3.962   2.486 -0.3510  0.5401  0.0604
 2048TIP3   OH227702   0.207   0.883   3.270 -0.0179  0.3560 -0.0500
 2048TIP3    H127703   0.246   0.849   3.350 -0.4411  1.7965  0.8110
 2048TIP3    H227704   0.131   0.826   3.254  0.9170 -0.8646 -0.3050
 2049TIP3   OH227705   5.304   0.453   1.475 -0.7285  0.3618 -0.0417
 2049TIP3    H127706   5.250   0.428   1.551  2.1644 -1.3995  1.6517
 2049TIP3    H227707   5.241   0.478   1.408 -3.6316 -1.5460  1.7338
 2050TIP3   OH227708   5.166   1.748   3.747  0.6486 -0.2096  0.0723
 2050TIP3    H127709   5.106   1.793   3.687  2.0920  0.5949 -0.8224
 2050TIP3    H227710   5.114   1.676   3.783 -1.3130  1.3416  0.5029
 2051TIP3   OH227711   1.073   4.486   0.859  0.6609 -0.2212 -0.4472
 2051TIP3    H127712   1.045   4.466   0.948 -0.7313 -0.5533 -0.9176
 2051TIP3    H227713   1.135   4.417   0.837 -1.3293 -2.0414 -0.7691
 2052TIP3   OH227714   4.616   1.441   3.436  0.2071  0.3441 -0.0796
 2052TIP3    H127715   4.540   1.383   3.425 -1.5988  2.7091 -1.2060
 2052TIP3    H227716   4.678   1.412   3.369 -0.3003 -0.7958 -0.0730
 2053TIP3   OH227717   2.822   5.874   1.513 -0.2926 -0.3998 -0.2966
 2053TIP3    H127718   2.745   5.821   1.494 -0.5374 -0.4363  0.7535
 2053TIP3    H227719   2.838   5.862   1.607 -0.3901  1.4046 -0.0061
 2054TIP3   OH227720   2.743   2.746   0.509  0.2819 -0.4678  0.3597
 2054TIP3    H127721   2.830   2.742   0.548  1.0430 -1.3671 -1.3195
 2054TIP3    H227722   2.731   2.659   0.469 -1.2594 -0.2598  0.3110
 2055TIP3   OH227723   1.994   6.353   8.378 -0.0476 -0.3227  0.3645
 2055TIP3    H127724   1.950   6.304   8.309 -1.1944 -1.0289  1.5756
 2055TIP3    H227725   2.016   6.288   8.444 -1.4232  0.7229  1.9185
 2056TIP3   OH227726   5.571   2.679   2.096 -0.0846 -0.3848 -0.2895
 2056TIP3    H127727   5.514   2.691   2.020  0.8628 -0.8724 -1.0958
 2056TIP3    H227728   5.581   2.584   2.105  1.0814 -0.2976 -0.5380
 2057TIP3   OH227729   0.726   1.174   2.606  0.3965 -0.1080 -0.0442
 2057TIP3    H127730   0.671   1.251   2.591  2.1007  1.2354  0.3938
 2057TIP3    H227731   0.709   1.118   2.530  2.9737  3.0232 -3.2236
 2058TIP3   OH227732   4.617   3.129   0.975 -0.6176  0.6185  0.2962
 2058TIP3    H127733   4.592   3.173   1.056 -1.0194 -0.9799  1.0755
 2058TIP3    H227734   4.681   3.064   1.002 -1.6519 -0.7636 -0.4529
 2059TIP3   OH227735   6.181   1.843   2.815  0.2791  0.3686 -0.0497
 2059TIP3    H127736   6.160   1.768   2.871  0.2385 -0.3896 -1.0450
 2059TIP3    H227737   6.181   1.918   2.874  0.4584 -0.4321  1.0012
 2060TIP3   OH227738   4.737   4.673   0.019  0.1195  0.1029  0.8548
 2060TIP3    H127739   4.786   4.694   0.098  2.2056  1.1539 -0.6221
 2060TIP3    H227740   4.799   4.622  -0.034 -1.2078 -0.5375 -0.1236
 2061TIP3   OH227741   3.697   1.934   3.392  0.4537 -0.0535  0.5313
 2061TIP3    H127742   3.662   1.981   3.467 -0.4410  1.4303 -0.7360
 2061TIP3    H227743   3.764   1.991   3.356 -1.1927  0.7552 -1.5046
 2062TIP3   OH227744   3.989   3.231   3.691 -0.0522  0.1618  0.4271
 2062TIP3    H127745   4.074   3.190   3.704  0.9041  1.8405 -0.2978
 2062TIP3    H227746   4.009   3.323   3.671 -1.9539  0.2637 -1.2588
 2063TIP3   OH227747   2.453   6.127   0.985  0.5125 -0.1634 -0.4033
 2063TIP3    H127748   2.527   6.080   0.947  0.2706  0.4697 -1.6802
 2063TIP3    H227749   2.401   6.156   0.910 -1.3868 -1.1294  0.4671
 2064TIP3   OH227750   1.464   2.219   1.383 -0.1215 -0.2248 -0.5723
 2064TIP3    H127751   1.440   2.199   1.473 -0.4322 -0.3952 -0.6896
 2064TIP3    H227752   1.528   2.152   1.360  0.7241  0.4167 -0.1570
 2065TIP3   OH227753   5.882   1.393   3.736 -0.2750  0.3523  0.5000
 2065TIP3    H127754   5.906   1.471   3.686  0.4499  1.0971  1.9539
 2065TIP3    H227755   5.965   1.353   3.760 -0.6164 -0.2164  0.7559
 2066TIP3   OH227756   6.591   2.962   0.282 -0.0179 -0.2763  0.4754
 2066TIP3    H127757   6.512   2.977   0.230 -0.3372 -0.8333  0.7787
 2066TIP3    H227758   6.603   2.867   0.279 -0.2184 -0.3553  1.6482
 2067TIP3   OH227759   1.251   0.777   2.094  0.6169 -0.2176  0.2862
 2067TIP3    H127760   1.183   0.823   2.044  1.7562  1.2465 -0.0097
 2067TIP3    H227761   1.252   0.689   2.057 -0.4789  0.0027 -0.3381
 2068TIP3   OH227762   1.609   2.360   3.082  0.3478  0.1145 -0.3798
 2068TIP3    H127763   1.635   2.297   3.015 -0.5559  1.4116 -2.0254
 2068TIP3    H227764   1.687   2.371   3.136  0.6417 -2.0854 -0.2802
 2069TIP3   OH227765   5.459   4.718   8.646  0.1769  0.0595  0.2904
 2069TIP3    H127766   5.383   4.747   8.697  1.0053  0.2936  1.4325
 2069TIP3    H227767   5.421   4.672   8.571 -1.1217  1.4857  0.0178
 2070TIP3   OH227768   5.629   0.407   8.496  0.3241  0.1511 -0.1186
 2070TIP3    H127769   5.655   0.393   8.587 -2.0618  0.2516  0.6532
 2070TIP3    H227770   5.634   0.321   8.456 -0.3069 -0.2498  0.6254
 2071TIP3   OH227771   1.190   0.275   0.527 -0.6012 -0.1541  0.0853
 2071TIP3    H127772   1.140   0.356   0.518 -0.5161 -0.2245 -1.2616
 2071TIP3    H227773   1.157   0.219   0.456  0.8916 -0.4658 -0.3870
 2072TIP3   OH227774   0.002   1.952   8.122  0.5276  0.2408  0.0494
 2072TIP3    H127775   0.094   1.978   8.119  0.3954  0.8323  0.6586
 2072TIP3    H227776  -0.036   1.989   8.042  1.1646 -1.5025 -1.1118
 2073TIP3   OH227777   5.133   3.755   1.140 -0.6246  0.2551 -0.0461
 2073TIP3    H127778   5.167   3.830   1.189 -2.0112  0.0665  1.2484
 2073TIP3    H227779   5.085   3.794   1.067 -0.5242  0.6074  0.0720
 2074TIP3   OH227780   1.178   0.119   2.099 -0.3842  0.6524  0.3058
 2074TIP3    H127781   1.268   0.097   2.077 -0.3583  0.1427  0.9135
 2074TIP3    H227782   1.185   0.177   2.175 -0.5897  0.1694  0.6968
 2075TIP3   OH227783   5.545   4.696   7.684 -0.5521  0.1262 -0.0047
 2075TIP3    H127784   5.607   4.639   7.731 -0.7843 -0.0933  0.0357
 2075TIP3    H227785   5.531   4.770   7.743 -1.4775 -0.5397  0.6455
 2076TIP3   OH227786   0.636   6.030   0.641 -0.5081 -0.3052 -0.1742
 2076TIP3    H127787   0.600   6.016   0.554  0.3560 -0.7632 -0.4645
 2076TIP3    H227788   0.689   6.109   0.632  0.8968 -1.2561 -0.4861
 2077TIP3   OH227789   3.393   5.223   0.888  0.5216 -0.5828  0.1384
 2077TIP3    H127790   3.333   5.269   0.829 -0.2285 -0.2670  1.1133
 2077TIP3    H227791   3.476   5.218   0.839  0.2193  0.5749 -0.5324
 2078TIP3   OH227792   1.341   2.968   0.643  0.6393 -0.0112  0.4659
 2078TIP3    H127793   1.317   2.904   0.575 -2.2932  2.0128 -0.6110
 2078TIP3    H227794   1.262   2.978   0.695  1.0023  2.6271  0.6389
 2079TIP3   OH227795   1.342   5.231   8.644  0.1820  0.6592 -0.5776
 2079TIP3    H127796   1.405   5.203   8.578 -0.6871  0.4775 -1.3630
 2079TIP3    H227797   1.388   5.225   8.727  0.4046 -1.9842 -0.8191
 2080TIP3   OH227798   2.045   3.304   0.520 -0.4784  0.3419  0.2131
 2080TIP3    H127799   2.081   3.258   0.444 -0.7255 -1.0376  0.8950
 2080TIP3    H227800   2.077   3.254   0.595 -0.9488  1.1706  0.9798
 2081TIP3   OH227801   3.463   0.868   2.995 -0.4759 -0.2616  0.2523
 2081TIP3    H127802   3.554   0.882   3.021 -0.0018 -0.8446 -1.0340
 2081TIP3    H227803   3.433   0.954   2.967 -0.0758 -0.2171 -0.0489
 2082TIP3   OH227804   0.484   1.234   1.313 -0.2803 -0.0689 -0.1725
 2082TIP3    H127805   0.436   1.305   1.355  2.6248  2.8172 -1.3840
 2082TIP3    H227806   0.438   1.219   1.230 -0.6904  0.6965 -0.0851
 2083TIP3   OH227807   4.164   1.262   3.112 -0.0704 -0.1799  0.2446
 2083TIP3    H127808   4.085   1.261   3.058 -0.3389  2.0740  0.4768
 2083TIP3    H227809   4.216   1.333   3.075  1.1280 -0.5846  1.1014
 2084TIP3   OH227810   3.830   3.177   2.556  0.4063 -0.5082 -0.2301
 2084TIP3    H127811   3.886   3.249   2.585  0.0512 -0.2550 -0.1699
 2084TIP3    H227812   3.868   3.099   2.598 -0.4173 -0.0797  1.3868
 2085TIP3   OH227813   3.116   6.623   1.508  0.5320  0.5172 -0.6686
 2085TIP3    H127814   3.200   6.588   1.536 -0.1073  1.1016  2.3215
 2085TIP3    H227815   3.114   6.713   1.541 -1.5067  0.2868 -0.0006
 2086TIP3   OH227816   4.158   6.181   0.556 -0.0220 -0.3144  0.2153
 2086TIP3    H127817   4.192   6.265   0.524 -1.7171  0.3966  0.1693
 2086TIP3    H227818   4.175   6.119   0.486 -0.4553  0.4231 -0.5557
 2087TIP3   OH227819   6.472   0.291   1.092 -0.2123 -0.1748 -0.6002
 2087TIP3    H127820   6.557   0.286   1.135  0.4996  1.6373 -1.6781
 2087TIP3    H227821   6.409   0.275   1.161  0.9747 -0.8155  0.3805
 2088TIP3   OH227822   1.201   4.254   0.273  0.3579 -0.5689 -0.0100
 2088TIP3    H127823   1.276   4.292   0.227  0.3129 -0.5704 -0.0856
 2088TIP3    H227824   1.127   4.269   0.214  0.0397  0.6562  0.6626
 2089TIP3   OH227825   1.694   3.830   8.157 -0.1831 -0.1339  0.1682
 2089TIP3    H127826   1.648   3.750   8.184 -1.6050  0.1485 -1.2755
 2089TIP3    H227827   1.625   3.897   8.152  0.0199 -0.0214 -3.3968
 2090TIP3   OH227828   1.064   6.340   0.955 -0.1397 -0.2550 -0.3706
 2090TIP3    H127829   1.140   6.283   0.951 -0.6771 -0.9820 -0.5230
 2090TIP3    H227830   1.085   6.405   1.022  0.0666 -1.2605  0.5563
 2091TIP3   OH227831   4.581   4.789   3.025 -0.2476  0.2975  0.5723
 2091TIP3    H127832   4.496   4.832   3.038  0.4609  1.8961  0.2227
 2091TIP3    H227833   4.636   4.825   3.095  0.2433 -0.4568  0.5823
 2092TIP3   OH227834   2.370   1.839   3.030 -0.5924 -0.3083  0.1932
 2092TIP3    H127835   2.294   1.841   2.972 -0.9590  2.8563  0.5813
 2092TIP3    H227836   2.333   1.847   3.118  0.1086 -1.5729  0.6239
 2093TIP3   OH227837   5.315   1.830   2.956  0.2622  0.4653 -0.0256
 2093TIP3    H127838   5.255   1.895   2.919  0.5536  0.7830  0.0537
 2093TIP3    H227839   5.392   1.881   2.982  1.2909 -0.1483 -1.6822
 2094TIP3   OH227840   3.656   5.509   3.060  0.3296  0.0105 -0.0781
 2094TIP3    H127841   3.670   5.481   3.150 -1.3588 -1.4861 -0.2105
 2094TIP3    H227842   3.598   5.586   3.067  0.5564  0.1628  0.1251
 2095TIP3   OH227843   4.901   1.627   1.277  0.3879 -0.7305 -0.0297
 2095TIP3    H127844   4.856   1.597   1.356  1.6450  0.0884  1.0466
 2095TIP3    H227845   4.920   1.547   1.228 -0.5022 -1.2428  0.4453
 2096TIP3   OH227846   2.591   6.109   2.178 -0.3223 -0.0281  0.4890
 2096TIP3    H127847   2.621   6.019   2.192 -0.1635  0.2204  1.8356
 2096TIP3    H227848   2.658   6.147   2.121  0.1019 -0.4933  0.6676
 2097TIP3   OH227849   4.381   6.634   1.562  0.5193 -0.1240 -0.8887
 2097TIP3    H127850   4.466   6.619   1.521  1.1883  0.0443  0.3900
 2097TIP3    H227851   4.355   6.722   1.532  1.6499  0.5828  0.0935
 2098TIP3   OH227852   3.240   3.074   1.430  0.8965  0.2998 -0.2101
 2098TIP3    H127853   3.200   2.996   1.469 -0.0432  1.8317  2.1351
 2098TIP3    H227854   3.289   3.041   1.355 -1.8707 -2.1512 -1.0998
 2099TIP3   OH227855   4.558   5.896   8.191  0.0197  0.0041  0.3074
 2099TIP3    H127856   4.475   5.891   8.144 -0.3260  2.7024  0.4437
 2099TIP3    H227857   4.619   5.936   8.129  0.8580 -0.7224  0.6446
 2100TIP3   OH227858   6.007   0.178   1.060 -0.1175 -0.0016 -0.2871
 2100TIP3    H127859   6.011   0.260   1.108 -2.3321  0.4232 -0.7129
 2100TIP3    H227860   6.098   0.155   1.042  0.7890  0.2000  3.3922
 2101TIP3   OH227861   4.153   4.039   1.189  0.6906 -0.3046 -0.5882
 2101TIP3    H127862   4.064   4.064   1.164  0.9448 -0.0993 -1.3154
 2101TIP3    H227863   4.206   4.118   1.173  1.2408 -0.8465 -1.4800
 2102TIP3   OH227864   5.660   0.419   3.484  0.0236  0.1345 -0.7264
 2102TIP3    H127865   5.651   0.473   3.406  0.0592  0.7509 -0.3091
 2102TIP3    H227866   5.753   0.396   3.488  0.3455  1.4940  0.0388
 2103TIP3   OH227867   2.276   4.881   0.158 -0.1930  0.1464 -0.4720
 2103TIP3    H127868   2.370   4.869   0.145 -0.4358 -0.9731 -1.3144
 2103TIP3    H227869   2.249   4.803   0.206 -1.0495 -0.6734 -2.1888
 2104TIP3   OH227870   0.716   4.871   3.224  0.2076  0.0364 -0.3064
 2104TIP3    H127871   0.641   4.904   3.175  1.0838  0.6123 -1.2946
 2104TIP3    H227872   0.685   4.789   3.263 -0.8478  0.1302 -0.9079
 2105TIP3   OH227873   6.524   0.442   0.849 -0.3651  0.0162 -0.1975
 2105TIP3    H127874   6.567   0.516   0.893 -0.4293 -0.1720  0.1777
 2105TIP3    H227875   6.473   0.400   0.917  1.1879 -1.5465  0.0655
 2106TIP3   OH227876   5.996   0.209   0.768 -0.0566 -0.7221 -0.1990
 2106TIP3    H127877   6.065   0.166   0.819 -0.6412 -1.2660  0.1562
 2106TIP3    H227878   5.927   0.143   0.761 -1.0564  0.1960  0.5108
 2107TIP3   OH227879   3.315   3.469   8.522 -0.3369  0.7030  0.7227
 2107TIP3    H127880   3.409   3.479   8.536  0.0484  0.1706 -1.1831
 2107TIP3    H227881   3.275   3.530   8.583  1.2597  1.2139  1.3049
 2108TIP3   OH227882   6.233   5.791   2.076  0.0971 -0.0879  0.2477
 2108TIP3    H127883   6.256   5.757   1.990 -1.0607  1.6985 -0.8406
 2108TIP3    H227884   6.137   5.787   2.078  0.1176 -0.5212  1.6692
 2109TIP3   OH227885   0.285   4.134   3.007 -0.3125  0.1859  0.3435
 2109TIP3    H127886   0.362   4.088   2.973  2.1351  2.5372  2.2604
 2109TIP3    H227887   0.265   4.089   3.089 -0.0778  0.4008  0.5224
 2110TIP3   OH227888   5.670   4.476   8.392  0.6136  0.4396  0.1435
 2110TIP3    H127889   5.601   4.443   8.335  1.7839 -2.1290  0.0786
 2110TIP3    H227890   5.736   4.511   8.331  0.4176  0.7269  0.0944
 2111TIP3   OH227891   5.650   2.788   3.306 -0.3308  0.2304  0.2647
 2111TIP3    H127892   5.717   2.722   3.290  0.4518  0.8601  0.8533
 2111TIP3    H227893   5.686   2.869   3.270 -1.1245  0.4218 -0.1275
 2112TIP3   OH227894   6.603   2.840   1.769  0.0666 -0.5423 -0.6409
 2112TIP3    H127895   6.660   2.767   1.795  0.3674  0.3602  1.4154
 2112TIP3    H227896   6.535   2.842   1.835 -1.7974 -0.8831 -2.4404
 2113TIP3   OH227897   5.322   5.499   2.392  0.6923  0.4191 -0.3264
 2113TIP3    H127898   5.384   5.555   2.346  1.1833 -0.0416 -0.2499
 2113TIP3    H227899   5.283   5.444   2.324 -1.7936  2.6162 -0.8179
 2114TIP3   OH227900   5.582   2.128   0.753  0.0319  0.4051 -0.1306
 2114TIP3    H127901   5.606   2.076   0.829 -0.5349 -3.3649 -2.2716
 2114TIP3    H227902   5.492   2.156   0.770  0.5627  1.3130  1.3349
 2115TIP3   OH227903   3.336   6.455   1.198 -0.1390  0.3222 -0.0480
 2115TIP3    H127904   3.242   6.452   1.184 -0.3419  1.1048  1.0819
 2115TIP3    H227905   3.362   6.543   1.172  0.8594 -0.8158 -3.5000
 2116TIP3   OH227906   2.162   4.061   3.534 -0.0079 -0.0905 -0.3347
 2116TIP3    H127907   2.209   4.134   3.573  0.3270 -0.2363 -0.4604
 2116TIP3    H227908   2.141   4.090   3.445 -1.3425  0.4950  0.1440
 2117TIP3   OH227909   1.894   3.765   2.384 -0.0835  0.2290 -0.5839
 2117TIP3    H127910   1.812   3.796   2.421 -0.1659  0.9912 -1.3857
 2117TIP3    H227911   1.894   3.671   2.402 -0.6597  0.3902  0.3038
 2118TIP3   OH227912   1.658   4.933   7.410  0.1966 -0.1512 -0.7151
 2118TIP3    H127913   1.701   5.012   7.444 -0.5821 -0.0586  0.0954
 2118TIP3    H227914   1.709   4.861   7.444 -2.1821 -0.2199  3.3095
 2119TIP3   OH227915   1.301   6.092   3.045 -0.0603 -0.2075  0.2870
 2119TIP3    H127916   1.274   6.166   3.100  0.6809 -0.1843  0.6272
 2119TIP3    H227917   1.396   6.100   3.039  0.0518 -1.2978  0.5530
 2120TIP3   OH227918   2.372   6.769   2.424 -0.7009  0.7030  0.1415
 2120TIP3    H127919   2.322   6.777   2.505  0.7272  0.7325  1.0503
 2120TIP3    H227920   2.331   6.696   2.377 -0.5113 -0.4314  1.6732
 2121TIP3   OH227921   5.212   3.876   8.124 -0.3232  0.2607 -0.2869
 2121TIP3    H127922   5.223   3.823   8.046  0.0311  0.4009 -0.3363
 2121TIP3    H227923   5.300   3.910   8.143 -0.4656  0.4926 -0.0196
 2122TIP3   OH227924   4.200   2.095   0.084  0.6992  0.1165  0.2915
 2122TIP3    H127925   4.183   2.189   0.090 -1.2345 -0.2516  1.8965
 2122TIP3    H227926   4.266   2.078   0.152  1.8064  0.4223 -0.6772
 2123TIP3   OH227927   2.161   3.576   3.006 -0.1837 -0.8476 -0.2231
 2123TIP3    H127928   2.177   3.514   3.078  1.1425 -1.3930 -0.9557
 2123TIP3    H227929   2.245   3.581   2.960 -0.7256  0.2961 -1.1199
 2124TIP3   OH227930   5.100   5.177   1.564  0.3530 -0.3602  0.0360
 2124TIP3    H127931   5.010   5.150   1.545  0.3101 -0.3582  0.2389
 2124TIP3    H227932   5.100   5.196   1.658 -0.0331  1.9410 -0.3887
 2125TIP3   OH227933   4.890   4.490   2.272  0.1866 -0.5454 -0.2692
 2125TIP3    H127934   4.982   4.503   2.292 -0.5114  1.3945  2.3463
 2125TIP3    H227935   4.869   4.559   2.208  0.4209 -0.6752 -0.4869
 2126TIP3   OH227936   6.488   1.004   3.197  0.6216 -0.0738 -0.3232
 2126TIP3    H127937   6.582   1.016   3.184  0.3936 -0.1917 -2.3952
 2126TIP3    H227938   6.461   0.951   3.122 -0.5349 -3.0177  1.9662
 2127TIP3   OH227939   2.426   6.385   1.870 -0.1963 -0.1705  0.2717
 2127TIP3    H127940   2.349   6.383   1.813 -0.5267 -0.6418  0.7183
 2127TIP3    H227941   2.436   6.294   1.898  0.4451 -0.0839  0.3248
 2128TIP3   OH227942   5.214   3.959   3.854 -0.1946 -0.1349  0.1897
 2128TIP3    H127943   5.199   3.900   3.780 -2.4988  0.8312 -0.1840
 2128TIP3    H227944   5.195   3.906   3.932  1.0657 -0.8062  0.0664
 2129TIP3   OH227945   5.179   4.931   2.927 -0.3753  0.5351 -0.2567
 2129TIP3    H127946   5.099   4.984   2.937  0.2604  1.8263 -1.6859
 2129TIP3    H227947   5.249   4.996   2.920  1.1382 -0.5477  2.8496
 2130TIP3   OH227948   6.733   4.121   2.429  0.6944 -0.6371 -0.7417
 2130TIP3    H127949   6.702   4.202   2.471 -0.3414 -0.9634 -0.8356
 2130TIP3    H227950   6.764   4.149   2.343  0.1933 -0.3470 -0.8375
 2131TIP3   OH227951   0.915   5.678   3.633  0.1501  0.2852 -0.3661
 2131TIP3    H127952   0.944   5.769   3.624  1.0230 -0.0677 -1.3469
 2131TIP3    H227953   0.995   5.631   3.657 -0.0376 -0.3951 -1.0399
 2132TIP3   OH227954   0.399   1.687   1.884 -0.5352  0.1587 -0.6261
 2132TIP3    H127955   0.350   1.659   1.806  0.2193 -1.0876 -0.6761
 2132TIP3    H227956   0.470   1.741   1.849 -1.1399  0.9700 -0.6461
 2133TIP3   OH227957   2.340   4.009   1.904 -0.1413  0.0111 -0.5208
 2133TIP3    H127958   2.380   4.076   1.959 -2.1956  1.6109 -0.8190
 2133TIP3    H227959   2.386   4.015   1.820  1.2197 -0.5831  0.1662
 2134TIP3   OH227960   1.107   6.662   3.526 -0.1044  0.2501 -0.5682
 2134TIP3    H127961   1.033   6.720   3.549 -0.0801  0.8374 -1.8951
 2134TIP3    H227962   1.128   6.685   3.436  0.6863 -1.0269 -0.7299
 2135TIP3   OH227963   5.962   6.059   2.154  0.6392 -0.1840 -0.3792
 2135TIP3    H127964   6.033   6.034   2.212  0.7612  0.5568 -0.1966
 2135TIP3    H227965   5.887   6.073   2.212  0.6942  0.3071 -0.4174
 2136TIP3   OH227966   0.846   4.951   0.534  0.1970 -0.2872  0.2544
 2136TIP3    H127967   0.847   5.040   0.569 -1.4783  0.5169 -1.5338
 2136TIP3    H227968   0.799   4.900   0.600  0.0881  0.4223  0.7354
 2137TIP3   OH227969   4.641   5.261   1.930  0.0907  0.1987  0.1872
 2137TIP3    H127970   4.718   5.249   1.986 -0.9360  1.1264  1.8654
 2137TIP3    H227971   4.588   5.183   1.945  1.8896 -1.9013 -3.1646
 2138TIP3   OH227972   0.871   1.179   7.647 -0.1531  0.1997  0.1672
 2138TIP3    H127973   0.890   1.208   7.736 -2.9372  1.3211  0.5027
 2138TIP3    H227974   0.847   1.086   7.657 -0.0844  0.2186  0.5270
 2139TIP3   OH227975   1.429   1.702   7.988  0.3778 -0.2031 -0.2127
 2139TIP3    H127976   1.464   1.617   8.014  1.9205  0.3040 -0.5284
 2139TIP3    H227977   1.376   1.684   7.911  1.0265 -0.8402 -0.5272
 2140TIP3   OH227978   1.731   4.934   8.513 -0.3429  0.0172  0.3562
 2140TIP3    H127979   1.651   4.882   8.515 -0.3267  0.0247  1.6551
 2140TIP3    H227980   1.788   4.886   8.452 -0.6392 -1.0235  0.8783
 2141TIP3   OH227981   3.692   2.534   0.860  0.0035  0.7470  0.3857
 2141TIP3    H127982   3.758   2.515   0.927  3.2114 -0.0550 -2.7422
 2141TIP3    H227983   3.662   2.448   0.830  0.8736  0.9566 -1.2006
 2142TIP3   OH227984   0.226   5.888   0.825 -0.1161 -0.1711  0.0840
 2142TIP3    H127985   0.259   5.889   0.915 -0.6937 -0.9340  0.3114
 2142TIP3    H227986   0.305   5.876   0.772  0.4566  1.9577  0.3465
 2143TIP3   OH227987   0.418   4.691   3.137 -0.3987 -0.0090  0.3215
 2143TIP3    H127988   0.506   4.659   3.119 -0.0621  2.2592 -2.8870
 2143TIP3    H227989   0.361   4.622   3.104  0.2015 -0.5476  0.3908
 2144TIP3   OH227990   0.690   3.084   1.878 -0.3315  0.0518 -0.0107
 2144TIP3    H127991   0.684   3.174   1.845  1.4299  0.0757 -0.3603
 2144TIP3    H227992   0.779   3.056   1.855 -0.6291 -1.5550  0.6789
 2145TIP3   OH227993   5.016   5.896   4.143  0.5060 -0.2124 -0.1699
 2145TIP3    H127994   5.074   5.871   4.215  0.8835  0.5859 -0.1836
 2145TIP3    H227995   4.935   5.848   4.159  0.1030  0.9422  1.5530
 2146TIP3   OH227996   0.794   0.672   2.228 -0.0252 -0.2596 -0.2206
 2146TIP3    H127997   0.876   0.629   2.208  0.6778  0.0983  1.7192
 2146TIP3    H227998   0.794   0.751   2.173  0.4835 -0.7208 -0.8936
 2147TIP3   OH227999   4.194   0.333   0.593 -0.2847 -0.7648  0.4067
 2147TIP3    H128000   4.136   0.308   0.665 -0.3010 -1.7267  0.0802
 2147TIP3    H228001   4.136   0.343   0.518 -0.3857  1.1182  0.6981
 2148TIP3   OH228002   6.620   5.393   7.959 -0.3487  0.2968  0.5712
 2148TIP3    H128003   6.591   5.437   8.039 -1.2258  0.4267  0.1979
 2148TIP3    H228004   6.539   5.361   7.920  0.0534  0.3983 -0.3593
 2149TIP3   OH228005   6.792   5.903   2.287  0.2838 -1.0155  0.0664
 2149TIP3    H128006   6.747   5.986   2.304 -0.5628 -0.9787 -2.0778
 2149TIP3    H228007   6.846   5.921   2.210  1.9782 -1.8101  1.0237
 2150TIP3   OH228008   5.824   5.329   0.061 -0.2890  0.2474 -0.4788
 2150TIP3    H128009   5.833   5.405   0.118  0.0683 -0.5386  0.5513
 2150TIP3    H228010   5.810   5.256   0.121 -0.2064 -0.5652 -1.4234
 2151TIP3   OH228011   5.813   4.550   0.175 -0.5364 -0.3529 -0.1245
 2151TIP3    H128012   5.803   4.568   0.082 -1.3141 -1.2424 -0.2305
 2151TIP3    H228013   5.743   4.600   0.217  0.4270  0.8387  0.0954
 2152TIP3   OH228014   1.467   5.537   2.335 -0.5369  0.0990 -0.2620
 2152TIP3    H128015   1.540   5.513   2.279 -0.8013 -0.7547 -0.2641
 2152TIP3    H228016   1.396   5.559   2.274 -0.7023 -0.4447 -0.2775
 2153TIP3   OH228017   0.503   1.241   8.217  0.5501 -0.0940  0.0681
 2153TIP3    H128018   0.514   1.286   8.133  0.6270 -0.8735 -0.3500
 2153TIP3    H228019   0.505   1.311   8.282  0.1287  0.5581 -0.6026
 2154TIP3   OH228020   3.715   2.237   0.096  0.8284 -0.2569  0.5695
 2154TIP3    H128021   3.763   2.162   0.131  0.0272 -0.8810  0.3752
 2154TIP3    H228022   3.623   2.217   0.115  0.5295  0.2397 -0.3092
 2155TIP3   OH228023   0.450   6.221   0.044 -0.4963  0.4166 -0.2715
 2155TIP3    H128024   0.382   6.190  -0.015 -2.8655  0.3786  2.3131
 2155TIP3    H228025   0.466   6.312   0.016 -1.4458  0.3498 -1.0702
 2156TIP3   OH228026   3.970   2.706   1.285  0.2491  0.1473 -0.5342
 2156TIP3    H128027   3.876   2.720   1.274 -0.1358 -1.6137  0.2275
 2156TIP3    H228028   3.987   2.734   1.375  0.3959  0.1994 -0.5789
 2157TIP3   OH228029   1.085   2.546   2.215 -0.1989 -0.4538 -0.6187
 2157TIP3    H128030   1.161   2.573   2.266 -0.0661 -0.0594 -1.0201
 2157TIP3    H228031   1.122   2.507   2.135 -0.3970 -1.3640 -0.2776
 2158TIP3   OH228032   5.483   3.615   7.817 -0.1043 -0.5135  0.1300
 2158TIP3    H128033   5.502   3.628   7.724 -1.4308 -4.3355 -0.8138
 2158TIP3    H228034   5.567   3.589   7.854  0.4564  1.1307  0.1025
 2159TIP3   OH228035   0.290   6.415   8.547 -0.5990 -0.2315  0.8468
 2159TIP3    H128036   0.376   6.373   8.548 -0.8588 -0.7735  0.8977
 2159TIP3    H228037   0.257   6.400   8.458 -0.3091  0.6792  0.5714
 2160TIP3   OH228038   6.242   6.105   3.112  0.1736 -0.4615 -0.4169
 2160TIP3    H128039   6.258   6.196   3.085 -0.4490  0.1154  1.0456
 2160TIP3    H228040   6.273   6.102   3.202 -1.2752 -1.2694  0.0692
 2161TIP3   OH228041   2.965   5.455   0.015  0.1731 -0.2501 -0.3679
 2161TIP3    H128042   2.947   5.480  -0.076  1.0738  0.9877 -0.2467
 2161TIP3    H228043   2.923   5.370   0.026  0.4688 -0.6615 -2.0952
 2162TIP3   OH228044   4.610   4.538   1.427  0.1079  0.2546 -0.3434
 2162TIP3    H128045   4.611   4.496   1.513  0.9701 -0.1868 -0.5538
 2162TIP3    H228046   4.518   4.553   1.408 -0.0893  0.3625  0.6609
 2163TIP3   OH228047   0.364   4.929   2.535 -0.0382 -0.2644 -0.1588
 2163TIP3    H128048   0.329   4.930   2.446  1.4258 -0.7193 -0.7674
 2163TIP3    H228049   0.450   4.969   2.528  0.4111 -0.9900  0.9173
 2164TIP3   OH228050   3.168   6.059   7.778 -0.1404  0.1505 -0.2198
 2164TIP3    H128051   3.083   6.014   7.767 -0.8616  0.7100  2.4983
 2164TIP3    H228052   3.145   6.152   7.784  0.7903  0.3988 -0.4099
 2165TIP3   OH228053   4.811   1.083   2.777  0.0823 -1.1242  0.2877
 2165TIP3    H128054   4.754   1.038   2.839  0.8238 -1.9864  0.3699
 2165TIP3    H228055   4.759   1.092   2.698 -0.0221 -2.3028  0.2150
 2166TIP3   OH228056   3.555   3.740   3.100  0.0485 -0.1162  0.1046
 2166TIP3    H128057   3.573   3.791   3.179 -1.6066  0.4373  0.1531
 2166TIP3    H228058   3.636   3.747   3.049  0.3737  1.3520  0.7577
 2167TIP3   OH228059   6.314   1.172   2.847 -0.7054  0.8130  0.9545
 2167TIP3    H128060   6.280   1.237   2.909  1.3048  4.0532 -1.0424
 2167TIP3    H228061   6.241   1.154   2.789 -0.6997  3.3744  0.0306
 2168TIP3   OH228062   1.697   5.945   0.418 -0.1639  0.5050 -0.1005
 2168TIP3    H128063   1.692   5.871   0.479 -0.4801  1.8874  1.6462
 2168TIP3    H228064   1.677   5.907   0.332  2.0416 -1.8638  0.3021
 2169TIP3   OH228065   1.897   4.033   1.023 -0.1968  0.5282 -0.3308
 2169TIP3    H128066   1.802   4.045   1.020 -0.2161  0.8035  1.0324
 2169TIP3    H228067   1.926   4.083   1.100  0.4734 -3.2838  2.1305
 2170TIP3   OH228068   5.044   4.873   7.897  0.2670 -0.5850  0.5111
 2170TIP3    H128069   5.029   4.966   7.917 -0.0481 -0.7962  1.2950
 2170TIP3    H228070   4.957   4.833   7.899  0.0809 -0.4978 -2.1780
 2171TIP3   OH228071   4.629   6.713   8.376 -0.3841  0.0883  0.5032
 2171TIP3    H128072   4.549   6.756   8.347 -0.0091  0.1479 -0.4968
 2171TIP3    H228073   4.696   6.743   8.314  0.2813 -0.4302  0.9552
 2172TIP3   OH228074   4.479   4.770   1.646 -0.3273  0.1201 -0.1901
 2172TIP3    H128075   4.438   4.801   1.566 -0.1988 -0.0736 -0.3330
 2172TIP3    H228076   4.412   4.780   1.714 -0.3353  0.5619 -0.2628
 2173TIP3   OH228077   6.660   5.852   1.894 -0.1008 -0.4039  0.8602
 2173TIP3    H128078   6.615   5.785   1.946 -0.5797 -2.6900 -2.2211
 2173TIP3    H228079   6.715   5.802   1.834  0.8946  2.0747 -0.4121
 2174TIP3   OH228080   1.031   1.626   2.168 -0.0040  0.3143 -0.1145
 2174TIP3    H128081   1.084   1.630   2.248 -0.3700 -0.8499  0.2164
 2174TIP3    H228082   1.042   1.711   2.127  1.1538  0.5131  0.5655
 2175TIP3   OH228083   5.816   5.219   3.562  0.7567  0.7834 -0.0993
 2175TIP3    H128084   5.906   5.232   3.594  1.4302 -0.3225 -1.4101
 2175TIP3    H228085   5.798   5.295   3.508  1.4177  0.4048 -0.8730
 2176TIP3   OH228086   3.240   4.314   1.967  0.4838 -0.4245 -0.5880
 2176TIP3    H128087   3.231   4.288   2.058  0.2773  0.4137 -0.3540
 2176TIP3    H228088   3.291   4.245   1.926 -1.0505 -1.8005 -0.2925
 2177TIP3   OH228089   0.048   6.646   2.546 -0.0532 -0.2635  0.6534
 2177TIP3    H128090   0.005   6.576   2.596  1.7311 -1.8368  0.0787
 2177TIP3    H228091   0.067   6.714   2.611 -0.5686 -0.9066  1.5004
 2178TIP3   OH228092   3.125   4.144   0.489 -0.1031  0.3802 -0.4638
 2178TIP3    H128093   3.174   4.223   0.511 -0.7932  0.6989 -0.0362
 2178TIP3    H228094   3.034   4.167   0.504 -0.2996 -0.5692 -0.1118
 2179TIP3   OH228095   3.076   6.071   3.607  0.1800  0.5369  0.1021
 2179TIP3    H128096   3.161   6.033   3.588 -0.2884 -0.8774  0.6733
 2179TIP3    H228097   3.014   6.000   3.589 -0.6977  0.8937  1.5990
 2180TIP3   OH228098   5.769   5.486   3.466 -0.3524 -0.0509 -0.5667
 2180TIP3    H128099   5.686   5.468   3.422 -1.2314  0.4014  0.8381
 2180TIP3    H228100   5.745   5.542   3.540  1.2218  0.1287 -0.1598
 2181TIP3   OH228101   6.042   0.225   1.848 -0.0946 -0.1117 -0.0038
 2181TIP3    H128102   6.024   0.131   1.858 -0.9073  0.0675  0.2699
 2181TIP3    H228103   6.063   0.255   1.936 -0.1920  0.0364 -0.0310
 2182TIP3   OH228104   5.223   4.144   2.691  0.2852 -0.4703  0.2703
 2182TIP3    H128105   5.227   4.218   2.752 -0.4040  0.6611 -1.0288
 2182TIP3    H228106   5.311   4.140   2.653  0.9308 -1.6101  1.7763
 2183TIP3   OH228107   6.181   2.460   1.400 -0.2837 -0.1881  0.1686
 2183TIP3    H128108   6.270   2.451   1.433 -0.4289 -0.3012  0.5370
 2183TIP3    H228109   6.192   2.489   1.309  0.1246  1.3160  0.6666
 2184TIP3   OH228110   5.649   0.446   1.139  0.3528 -0.0072 -0.5260
 2184TIP3    H128111   5.650   0.470   1.046  0.3608 -1.8285 -1.0401
 2184TIP3    H228112   5.559   0.420   1.156  0.8068 -1.7384 -0.6268
 2185TIP3   OH228113   1.918   1.869   1.913  0.3095  0.1450 -0.2368
 2185TIP3    H128114   1.853   1.919   1.863  0.5998 -0.0021 -0.7646
 2185TIP3    H228115   1.904   1.778   1.886 -0.9462 -0.2390  1.5172
 2186TIP3   OH228116   0.988   1.695   2.878 -0.1523 -0.3139 -0.1756
 2186TIP3    H128117   1.057   1.636   2.909 -0.5504 -1.4890 -1.4164
 2186TIP3    H228118   0.962   1.658   2.793 -1.2480  0.9859 -0.4292
 2187TIP3   OH228119   2.968   1.858   2.862  0.5546  0.3821 -0.5790
 2187TIP3    H128120   3.063   1.856   2.861  0.5611  0.0203 -1.8229
 2187TIP3    H228121   2.942   1.776   2.904  0.7874  0.4307 -0.3382
 2188TIP3   OH228122   0.485   3.887   7.931  0.2511  0.0532 -0.2050
 2188TIP3    H128123   0.495   3.965   7.877  0.2163 -0.8400 -1.5462
 2188TIP3    H228124   0.403   3.847   7.900  1.3271 -1.6116 -1.0251
 2189TIP3   OH228125   3.408   0.742   0.790  0.3861 -0.2170 -0.0143
 2189TIP3    H128126   3.443   0.806   0.729 -0.0763  0.6408  0.6029
 2189TIP3    H228127   3.486   0.702   0.830  0.8159  2.6850  2.4069
 2190TIP3   OH228128   3.349   2.859   0.909 -0.5696  0.4824  0.1510
 2190TIP3    H128129   3.362   2.797   0.838  0.7417  1.4584 -0.5105
 2190TIP3    H228130   3.379   2.812   0.987  2.2159  0.8054 -0.5942
 2191TIP3   OH228131   3.414   4.154   0.063  0.5590  0.2364  0.0089
 2191TIP3    H128132   3.363   4.189   0.137  3.1013 -0.1951  2.1113
 2191TIP3    H228133   3.474   4.224   0.039  1.8144 -0.6466  0.4464
 2192TIP3   OH228134   0.420   2.634   1.740  1.2969  0.2306  0.1751
 2192TIP3    H128135   0.407   2.729   1.745  0.7873  0.1965 -0.4192
 2192TIP3    H228136   0.410   2.613   1.647  2.0602 -0.3203  0.2014
 2193TIP3   OH228137   0.137   1.863   8.726  0.3642 -0.1888 -0.1822
 2193TIP3    H128138   0.103   1.789   8.777 -2.5031  2.1427  1.5883
 2193TIP3    H228139   0.175   1.921   8.791  1.1119  0.6513 -1.3431
 2194TIP3   OH228140   2.101   0.065   2.017  0.1204 -0.4967 -0.0190
 2194TIP3    H128141   2.181   0.015   2.001  0.3994  0.1589 -0.7281
 2194TIP3    H228142   2.122   0.122   2.091  0.0256 -0.9222  0.3416
 2195TIP3   OH228143   2.884   4.052   2.835  0.4396 -0.0431  1.0367
 2195TIP3    H128144   2.937   4.061   2.914  1.6614  0.8660  0.1708
 2195TIP3    H228145   2.916   3.972   2.793  0.5268  0.0349  0.9523
 2196TIP3   OH228146   0.411   0.280   3.072 -0.4040 -0.2732  0.6056
 2196TIP3    H128147   0.506   0.291   3.086 -0.5184 -0.0451  1.2268
 2196TIP3    H228148   0.387   0.355   3.017 -0.3307  0.0029  0.9459
 2197TIP3   OH228149   1.112   1.195   2.769  0.0513  0.7777 -0.3398
 2197TIP3    H128150   1.092   1.202   2.675 -0.7088  3.3592 -0.0682
 2197TIP3    H228151   1.106   1.101   2.787 -3.2406  0.4483 -2.1992
 2198TIP3   OH228152   4.678   3.490   0.789 -0.1922  0.1358 -0.0313
 2198TIP3    H128153   4.610   3.461   0.850 -1.4571 -0.0249 -1.4505
 2198TIP3    H228154   4.759   3.456   0.825 -0.6846  1.2853  2.3251
 2199TIP3   OH228155   3.567   4.150   2.323  0.2029 -0.4830 -0.2893
 2199TIP3    H128156   3.656   4.180   2.343 -0.3372  1.1023 -0.0861
 2199TIP3    H228157   3.575   4.100   2.242  1.1936  0.1813 -0.6159
 2200TIP3   OH228158   0.970   2.004   0.601 -0.5098  0.0077  0.2928
 2200TIP3    H128159   1.010   2.072   0.656 -0.3307  1.3000 -1.3571
 2200TIP3    H228160   0.896   2.048   0.559 -0.9136 -1.0789 -0.1582
 2201TIP3   OH228161   6.583   2.081   0.021  0.1794 -0.2704 -0.6947
 2201TIP3    H128162   6.502   2.030   0.034 -0.3884  0.6015 -0.7620
 2201TIP3    H228163   6.640   2.021  -0.027 -0.4753 -0.8626 -0.7615
 2202TIP3   OH228164   3.982   2.618   8.029  0.1140 -0.4099  0.7011
 2202TIP3    H128165   3.944   2.621   7.941 -2.8549  2.0222  1.8814
 2202TIP3    H228166   3.939   2.545   8.072  0.2674 -0.5216  0.6668
 2203TIP3   OH228167   6.279   5.678   1.805 -0.1255  0.0021 -0.1900
 2203TIP3    H128168   6.366   5.659   1.840 -0.0915 -0.1869 -0.3743
 2203TIP3    H228169   6.261   5.606   1.745  0.1332  0.6981 -1.1259
 2204TIP3   OH228170   6.845   6.795   3.547 -0.5082  0.9771 -0.0535
 2204TIP3    H128171   6.757   6.790   3.510 -0.0599 -0.9644 -0.9952
 2204TIP3    H228172   6.838   6.752   3.632 -0.3313  0.1381 -0.4552
 2205TIP3   OH228173   4.421   2.898   0.997  0.1909 -0.0980 -0.5437
 2205TIP3    H128174   4.468   2.973   0.961 -0.1959  0.3109 -0.2095
 2205TIP3    H228175   4.487   2.829   1.002  0.0522 -0.4778 -2.9071
 2206TIP3   OH228176   2.592   4.092   2.554 -0.3678 -0.1246 -0.2614
 2206TIP3    H128177   2.650   4.165   2.577  0.2151  0.0389 -2.1092
 2206TIP3    H228178   2.547   4.122   2.475 -1.5469 -1.0263  0.0578
 2207TIP3   OH228179   1.097   0.912   2.854  0.0613  0.3623  0.3507
 2207TIP3    H128180   1.062   0.912   2.943 -2.1540  1.8378 -0.4293
 2207TIP3    H228181   1.069   0.827   2.818  0.6331 -0.0754  0.9046
 2208TIP3   OH228182   0.821   4.531   0.235 -0.3066  0.0667 -0.5968
 2208TIP3    H128183   0.750   4.587   0.265 -1.3386 -1.4031 -0.2056
 2208TIP3    H228184   0.894   4.553   0.293 -1.0192  0.2515  0.2546
 2209TIP3   OH228185   6.167   6.002   0.786 -0.4760  0.0202 -0.0779
 2209TIP3    H128186   6.149   5.924   0.839  0.9237  1.7519  3.1728
 2209TIP3    H228187   6.105   6.068   0.818 -0.3967  0.8226 -1.4788
 2210TIP3   OH228188   4.117   6.569   1.888 -0.2947  0.4017 -0.1853
 2210TIP3    H128189   4.054   6.498   1.871  0.7378 -0.3189 -1.2287
 2210TIP3    H228190   4.201   6.533   1.859  0.5033  1.5589  0.6071
 2211TIP3   OH228191   0.382   5.385   0.563  0.3514  0.3268 -0.2083
 2211TIP3    H128192   0.402   5.300   0.524  3.3505 -0.1637  2.0394
 2211TIP3    H228193   0.297   5.371   0.605  0.5641 -1.4586 -0.2650
 2212TIP3   OH228194   3.493   5.066   2.826 -0.6896 -0.2342  0.8210
 2212TIP3    H128195   3.486   5.024   2.740  2.4832 -1.4597  1.0421
 2212TIP3    H228196   3.527   5.154   2.807  2.5737 -1.3767  0.8262
 2213TIP3   OH228197   2.836   6.247   0.451 -0.2764 -0.2159 -0.7968
 2213TIP3    H128198   2.888   6.170   0.471  0.3133  0.3580 -0.0727
 2213TIP3    H228199   2.887   6.321   0.485 -1.2561  0.4129 -0.6437
 2214TIP3   OH228200   4.652   3.639   1.632  0.1206 -0.0149  0.0055
 2214TIP3    H128201   4.699   3.584   1.570  2.8969  0.2715  1.6982
 2214TIP3    H228202   4.658   3.728   1.596  2.2428  0.2429  0.8784
 2215TIP3   OH228203   6.579   3.205   1.412 -0.0313  0.2085  0.1105
 2215TIP3    H128204   6.518   3.231   1.343 -0.3438  0.5346  0.5012
 2215TIP3    H228205   6.528   3.148   1.469 -0.1784  0.9923  0.7913
 2216TIP3   OH228206   5.276   1.725   1.613 -0.5961 -0.5793  0.4156
 2216TIP3    H128207   5.321   1.707   1.530 -0.0511 -0.3855  0.6650
 2216TIP3    H228208   5.186   1.695   1.598 -0.7935  0.4334 -0.6092
 2217TIP3   OH228209   2.562   4.472   3.522  0.6205 -1.1988  0.0941
 2217TIP3    H128210   2.467   4.457   3.523  0.7906 -2.4272  0.8026
 2217TIP3    H228211   2.598   4.392   3.483  1.3778 -0.8053 -0.0219
 2218TIP3   OH228212   6.470   0.172   0.171 -0.1657 -0.3369 -0.4951
 2218TIP3    H128213   6.558   0.137   0.183 -0.3404 -0.3899  0.9090
 2218TIP3    H228214   6.416   0.120   0.232 -0.8016  0.9666  0.0964
 2219TIP3   OH228215   3.935   2.801   2.425 -0.0650  0.2017  0.1949
 2219TIP3    H128216   3.967   2.847   2.348  1.5267  0.1362  0.7949
 2219TIP3    H228217   3.942   2.864   2.496 -0.9339  0.0566  0.4315
 2220TIP3   OH228218   6.621   2.943   2.310 -0.1201  0.2969 -0.2059
 2220TIP3    H128219   6.615   2.877   2.241 -1.5061  0.0667  0.1014
 2220TIP3    H228220   6.679   3.011   2.274  0.6327 -0.6604 -0.8607
 2221TIP3   OH228221   6.732   1.600   3.022 -0.0474 -0.8821  0.5398
 2221TIP3    H128222   6.657   1.549   2.991 -0.9109  1.7096 -1.9891
 2221TIP3    H228223   6.803   1.574   2.964  0.2352 -1.1062  0.9789
 2222TIP3   OH228224   1.680   0.903   2.958 -0.0875  0.2756 -0.1122
 2222TIP3    H128225   1.584   0.894   2.955 -0.1541 -0.2179  2.0750
 2222TIP3    H228226   1.712   0.828   2.909 -0.8327 -0.3263  0.2915
 2223TIP3   OH228227   2.277   1.221   3.484  0.4937  0.0188  0.4912
 2223TIP3    H128228   2.204   1.203   3.542  0.5285 -1.2638  0.1589
 2223TIP3    H228229   2.352   1.176   3.523  1.1502  1.3889  0.8778
 2224TIP3   OH228230   5.955   3.893   2.147 -0.0931 -0.0320  0.6242
 2224TIP3    H128231   6.011   3.965   2.176 -1.0454  0.7721  0.5124
 2224TIP3    H228232   5.929   3.917   2.058  0.7756 -1.2627  0.0029
 2225TIP3   OH228233   1.125   5.626   8.581  0.1667 -0.8832 -0.2326
 2225TIP3    H128234   1.132   5.604   8.488  0.6208 -0.2254 -0.3560
 2225TIP3    H228235   1.079   5.710   8.583 -0.3051 -1.1459  0.1674
 2226TIP3   OH228236   4.847   1.069   7.910  0.1941  0.0099  0.4159
 2226TIP3    H128237   4.844   1.043   7.817  1.3919  1.2636 -0.0002
 2226TIP3    H228238   4.764   1.114   7.925 -1.3067 -2.6518  0.7788
 2227TIP3   OH228239   3.253   0.229   2.816 -0.5212 -0.0553 -0.2609
 2227TIP3    H128240   3.313   0.259   2.748  0.9604  0.9192  1.3903
 2227TIP3    H228241   3.251   0.301   2.879 -2.3474 -0.6687  0.4348
 2228TIP3   OH228242   6.326   5.701   0.719 -0.4454  0.3176  0.1823
 2228TIP3    H128243   6.279   5.756   0.655 -1.9982 -0.3101  0.7227
 2228TIP3    H228244   6.259   5.641   0.752  1.4333 -2.8246 -1.3194
 2229TIP3   OH228245   5.731   3.478   8.162 -0.1764 -0.3701  0.6288
 2229TIP3    H128246   5.708   3.388   8.135 -1.5341 -0.8164  2.9465
 2229TIP3    H228247   5.646   3.521   8.172  0.4775  1.6409 -1.6291
 2230TIP3   OH228248   2.417   3.482   1.188  0.1334 -0.0289 -0.1735
 2230TIP3    H128249   2.330   3.444   1.174  0.3773 -0.8724  0.5056
 2230TIP3    H228250   2.455   3.430   1.259  0.2939  1.7930  1.1787
 2231TIP3   OH228251   3.708   6.301   3.407  0.4489  0.1035  0.1256
 2231TIP3    H128252   3.661   6.254   3.475  2.5624 -0.2187  1.4698
 2231TIP3    H228253   3.655   6.378   3.389 -0.6714 -0.3477  1.3847
 2232TIP3   OH228254   0.789   5.297   2.557  0.8680 -0.1972 -0.1383
 2232TIP3    H128255   0.832   5.253   2.484  3.2381  0.6072  0.6973
 2232TIP3    H228256   0.860   5.333   2.610 -0.8683  2.7382  0.4204
 2233TIP3   OH228257   5.661   0.169   8.363 -0.1386  0.7307 -0.0829
 2233TIP3    H128258   5.742   0.135   8.401 -0.4164  1.1662  0.9025
 2233TIP3    H228259   5.600   0.095   8.367 -0.2164  0.8271  0.4553
 2234TIP3   OH228260   4.904   4.842   3.441  0.3261  0.7139 -0.2254
 2234TIP3    H128261   4.967   4.838   3.369  0.6009  2.3298 -0.1003
 2234TIP3    H228262   4.957   4.832   3.520  0.1230 -0.1948 -0.1837
 2235TIP3   OH228263   6.268   5.430   1.671  0.0331  0.3825 -0.3747
 2235TIP3    H128264   6.349   5.435   1.620  0.2140  1.4552 -0.0029
 2235TIP3    H228265   6.237   5.340   1.657  1.1284  0.0437 -0.7532
 2236TIP3   OH228266   4.816   1.419   0.456  0.6309  0.4050 -0.1796
 2236TIP3    H128267   4.747   1.371   0.411 -0.3392 -0.0167  1.6583
 2236TIP3    H228268   4.826   1.374   0.540  0.4060  2.7758  1.2028
 2237TIP3   OH228269   0.711   1.317   3.321  0.4062  0.2813  0.0810
 2237TIP3    H128270   0.756   1.324   3.406 -0.1192  0.0895  0.3789
 2237TIP3    H228271   0.746   1.390   3.270 -0.1652  1.1584  0.8889
 2238TIP3   OH228272   5.345   3.652   0.640  0.5565  0.0212  0.0837
 2238TIP3    H128273   5.281   3.708   0.685  0.4705 -0.9113  1.1692
 2238TIP3    H228274   5.344   3.682   0.549  0.2635  1.5437  0.5642
 2239TIP3   OH228275   1.950   0.914   8.400 -0.1381  0.3255 -0.8491
 2239TIP3    H128276   2.038   0.921   8.363 -0.1313  0.7647 -0.7577
 2239TIP3    H228277   1.917   1.004   8.401 -0.4046  0.2268 -0.4360
 2240TIP3   OH228278   6.036   2.053   0.806 -0.0167  0.4680  0.2050
 2240TIP3    H128279   6.007   2.125   0.861 -0.7656  0.6088 -0.3521
 2240TIP3    H228280   6.076   2.095   0.730  0.1345  0.2951  0.1883
 2241TIP3   OH228281   2.874   0.198   2.866  0.4790 -0.6084 -0.2158
 2241TIP3    H128282   2.921   0.120   2.896 -0.6836 -0.4722  2.1531
 2241TIP3    H228283   2.840   0.239   2.946 -0.0669  1.6231 -1.4919
 2242TIP3   OH228284   1.048   3.016   1.137 -0.0584  0.5653  0.2194
 2242TIP3    H128285   0.987   2.989   1.068 -0.8634  0.1387  1.0795
 2242TIP3    H228286   1.134   2.992   1.103 -0.4524  0.2535 -0.5866
 2243TIP3   OH228287   1.510   1.976   3.331 -0.0818  0.4713 -0.3160
 2243TIP3    H128288   1.509   1.956   3.425 -0.3810 -1.0791 -0.6201
 2243TIP3    H228289   1.601   1.964   3.305 -0.1208  0.2303 -0.3463
 2244TIP3   OH228290   2.323   3.954   8.048  0.5034 -0.4178  0.1338
 2244TIP3    H128291   2.406   4.000   8.038  0.4142 -0.5746 -1.9422
 2244TIP3    H228292   2.295   3.971   8.138  0.7223  3.1527 -0.3448
 2245TIP3   OH228293   1.154   4.954   1.322  0.2441  0.1653 -0.2438
 2245TIP3    H128294   1.233   4.980   1.369  0.8869  2.2807 -2.2808
 2245TIP3    H228295   1.171   4.864   1.294  1.3587  0.1323  0.5046
 2246TIP3   OH228296   3.732   4.805   2.400  0.3813 -0.0409 -0.1254
 2246TIP3    H128297   3.731   4.725   2.454 -1.5219 -1.1854 -1.7244
 2246TIP3    H228298   3.816   4.847   2.422  1.6378 -2.6567  0.5245
 2247TIP3   OH228299   5.184   2.488   1.346  0.3535 -0.2839  0.2166
 2247TIP3    H128300   5.235   2.534   1.280  1.3139  0.0598  1.1741
 2247TIP3    H228301   5.224   2.401   1.351 -0.2453 -0.5951 -0.2267
 2248TIP3   OH228302   5.808   5.020   0.859  0.0254  0.8599  0.3450
 2248TIP3    H128303   5.783   5.104   0.820 -1.0110  0.0880 -0.7312
 2248TIP3    H228304   5.751   4.956   0.817  1.1237 -0.4680  0.7903
 2249TIP3   OH228305   6.628   1.683   0.060  0.5929 -0.2493  0.4660
 2249TIP3    H128306   6.680   1.605   0.041 -0.1771 -0.6067 -0.2197
 2249TIP3    H228307   6.653   1.745  -0.008 -0.6465 -0.8007 -0.5196
 2250TIP3   OH228308   1.291   3.639   0.466  0.6117  0.7201 -0.3432
 2250TIP3    H128309   1.290   3.647   0.562 -0.0673 -2.2995 -0.0148
 2250TIP3    H228310   1.370   3.590   0.446 -0.7861 -1.3833 -0.9850
 2251TIP3   OH228311   0.038   1.717   0.787 -0.1796  0.5293 -0.4413
 2251TIP3    H128312  -0.014   1.637   0.799 -2.1884  1.4868 -2.0960
 2251TIP3    H228313   0.002   1.757   0.708  1.9044  2.2478 -0.6178
 2252TIP3   OH228314   5.646   4.054   2.067 -0.7554  0.0998  0.4170
 2252TIP3    H128315   5.728   4.093   2.098 -0.5392  0.6503 -0.7963
 2252TIP3    H228316   5.605   4.020   2.146  1.3768 -1.6509  0.8797
 2253TIP3   OH228317   6.119   1.035   0.575  0.0756  0.2479  0.3112
 2253TIP3    H128318   6.068   1.056   0.654 -0.4013 -0.7486  0.2720
 2253TIP3    H228319   6.208   1.067   0.596 -0.3344  1.1680  0.7287
 2254TIP3   OH228320   4.167   0.093   1.525  0.3568 -0.2690  0.7990
 2254TIP3    H128321   4.159   0.011   1.572 -1.4188 -0.1758  0.7365
 2254TIP3    H228322   4.137   0.160   1.587 -0.4325  0.0382  0.1162
 2255TIP3   OH228323   6.034   1.208   3.023  0.5024 -0.2363 -0.1933
 2255TIP3    H128324   6.043   1.300   3.050  1.2780 -0.4584  0.3156
 2255TIP3    H228325   6.103   1.162   3.070  1.0498 -0.8579 -1.5481
 2256TIP3   OH228326   1.757   2.189   2.921 -0.2766  0.4286 -0.0011
 2256TIP3    H128327   1.711   2.180   2.838  0.1024  0.8805 -0.2652
 2256TIP3    H228328   1.805   2.106   2.930 -0.6111  0.2274 -0.0440
 2257TIP3   OH228329   3.470   1.712   2.562 -0.1906 -0.4167  0.3294
 2257TIP3    H128330   3.524   1.706   2.483  0.2931  0.6941  0.5579
 2257TIP3    H228331   3.383   1.684   2.534  0.1103 -0.5761 -0.4628
 2258TIP3   OH228332   4.904   5.035   8.309 -0.6255  0.4713  0.2556
 2258TIP3    H128333   4.983   5.009   8.355 -0.0020  1.1886 -0.3734
 2258TIP3    H228334   4.844   5.062   8.378 -0.3763 -0.2033  0.7448
 2259TIP3   OH228335   4.907   1.577   1.804  0.4041 -0.8008 -0.1699
 2259TIP3    H128336   4.922   1.518   1.878  2.7511 -0.3691 -0.2252
 2259TIP3    H228337   4.932   1.663   1.837  2.0238 -0.6761 -1.5448
 2260TIP3   OH228338   5.540   5.470   3.338  0.4221  0.6547  0.0603
 2260TIP3    H128339   5.455   5.449   3.376  0.5141 -1.7621 -0.8973
 2260TIP3    H228340   5.520   5.516   3.257 -0.1081 -1.5446 -1.1240
 2261TIP3   OH228341   5.382   4.378   7.431 -0.1403 -0.0186  0.1972
 2261TIP3    H128342   5.332   4.372   7.349  0.3172 -0.7696 -0.0397
 2261TIP3    H228343   5.428   4.461   7.425 -0.2461  0.0117 -0.2307
 2262TIP3   OH228344   1.971   4.633   2.759 -0.2629 -0.1125  0.1892
 2262TIP3    H128345   1.986   4.612   2.667  1.5494 -1.1033  0.6608
 2262TIP3    H228346   1.947   4.550   2.799 -0.3871  0.1842  0.7467
 2263TIP3   OH228347   6.681   5.566   2.405  0.6521 -0.0321  0.0454
 2263TIP3    H128348   6.750   5.504   2.431 -0.6436 -1.2947  0.6144
 2263TIP3    H228349   6.662   5.616   2.484  0.2749 -0.3433  0.1575
 2264TIP3   OH228350   6.239   3.240   0.956  0.1872  0.0134  0.4996
 2264TIP3    H128351   6.280   3.157   0.934 -0.0389  0.0257  0.0086
 2264TIP3    H228352   6.304   3.306   0.933  0.4304 -0.0333  1.0442
 2265TIP3   OH228353   3.564   0.779   1.400  0.3928  0.4340 -0.6153
 2265TIP3    H128354   3.483   0.827   1.422  0.3268  0.4690 -0.9278
 2265TIP3    H228355   3.538   0.687   1.403  0.4519  0.4257 -0.2829
 2266TIP3   OH228356   0.206   2.713   1.101  0.3351  0.1963  0.1370
 2266TIP3    H128357   0.266   2.784   1.121 -1.2663  1.4046  0.8397
 2266TIP3    H228358   0.143   2.714   1.172 -2.2475  0.9207 -2.0090
 2267TIP3   OH228359   1.504   6.403   0.599  0.2466 -0.7270 -0.4015
 2267TIP3    H128360   1.578   6.357   0.558  0.4526 -1.3897  0.6867
 2267TIP3    H228361   1.433   6.339   0.598 -1.2285  0.6888 -3.7767
 2268TIP3   OH228362   2.927   0.829   1.324  0.0657 -0.2062 -0.4340
 2268TIP3    H128363   2.962   0.770   1.391 -0.0829 -0.6765 -0.7582
 2268TIP3    H228364   2.945   0.784   1.241  0.3535  0.4253 -0.7164
 2269TIP3   OH228365   3.561   2.079   1.543 -0.7207  0.1528 -0.0068
 2269TIP3    H128366   3.631   2.138   1.513  0.6149 -1.6350 -0.6112
 2269TIP3    H228367   3.490   2.138   1.568  1.7715  2.2585  2.8725
 2270TIP3   OH228368   1.094   0.041   2.711 -0.4679 -0.4518  0.2094
 2270TIP3    H128369   1.049   0.060   2.794 -0.9803 -0.7048 -0.0080
 2270TIP3    H228370   1.180   0.081   2.721 -0.1998 -1.2427  1.2159
 2271TIP3   OH228371   2.665   0.006   0.171 -0.6331 -0.3832  0.0594
 2271TIP3    H128372   2.690   0.090   0.209 -0.3570 -0.9267  1.1008
 2271TIP3    H228373   2.691   0.013   0.079  0.6087  0.1880  0.4375
 2272TIP3   OH228374   3.842   4.527   3.267  0.2966  0.1922  0.3202
 2272TIP3    H128375   3.830   4.435   3.245  1.0576  0.3196 -0.6706
 2272TIP3    H228376   3.844   4.528   3.363 -1.5855 -0.5526  0.4156
 2273TIP3   OH228377   6.667   2.983   8.601 -0.1425  0.0411  0.1687
 2273TIP3    H128378   6.619   3.058   8.638  0.8332  0.1274  1.3343
 2273TIP3    H228379   6.601   2.915   8.593 -0.6808  0.4697  0.8008
 2274TIP3   OH228380   6.612   3.245   0.262 -0.2268 -0.1835  0.5653
 2274TIP3    H128381   6.587   3.164   0.308  0.9315 -0.5130  0.6512
 2274TIP3    H228382   6.562   3.314   0.305 -1.5220 -0.8948  0.2447
 2275TIP3   OH228383   5.016   2.894   2.649  0.0814  0.3486 -0.1108
 2275TIP3    H128384   5.098   2.844   2.640 -0.4284 -0.8841  1.6701
 2275TIP3    H228385   4.948   2.834   2.617 -0.3579  0.4894  0.5394
 2276TIP3   OH228386   0.096   5.528   1.065  0.0435  0.1671  0.6073
 2276TIP3    H128387   0.148   5.579   1.127 -1.9007  0.6225  1.9576
 2276TIP3    H228388   0.046   5.467   1.119 -0.1695 -0.9028 -0.7180
 2277TIP3   OH228389   1.673   4.812   3.069 -0.0051  0.0295 -0.3391
 2277TIP3    H128390   1.714   4.728   3.090  0.5608  0.4090  0.1250
 2277TIP3    H228391   1.601   4.820   3.132 -0.9810 -0.7580 -1.3270
 2278TIP3   OH228392   0.243   0.449   0.787 -0.2648 -0.2848 -0.2493
 2278TIP3    H128393   0.192   0.372   0.761  1.2936 -1.4796  0.0459
 2278TIP3    H228394   0.282   0.480   0.705 -0.4577 -0.1394 -0.2865
 2279TIP3   OH228395   2.816   2.763   1.099  0.0155 -0.7424 -0.3283
 2279TIP3    H128396   2.805   2.841   1.153 -1.0544 -1.3300  0.3287
 2279TIP3    H228397   2.811   2.690   1.161 -1.7014 -1.4485 -1.2508
 2280TIP3   OH228398   1.018   6.745   1.683  0.1039  0.0837  0.3038
 2280TIP3    H128399   1.040   6.714   1.771 -0.0246  0.6009  0.5210
 2280TIP3    H228400   1.081   6.815   1.666 -2.3817  2.8898  1.6690
 2281TIP3   OH228401   0.219   6.807   8.485 -0.6593  0.2464 -0.5133
 2281TIP3    H128402   0.255   6.779   8.570 -1.1553 -0.2572 -0.4652
 2281TIP3    H228403   0.140   6.855   8.508 -0.3777  0.7885 -0.6571
 2282TIP3   OH228404   5.456   2.038   3.272 -0.3296 -0.0230 -0.1269
 2282TIP3    H128405   5.362   2.054   3.281 -0.2299  0.7670 -0.3556
 2282TIP3    H228406   5.490   2.042   3.362 -0.3956  0.5482 -0.1218
 2283TIP3   OH228407   5.740   3.478   7.865 -0.0007 -0.8592  0.1602
 2283TIP3    H128408   5.755   3.452   7.774  0.6333 -1.0198  0.3084
 2283TIP3    H228409   5.712   3.398   7.908 -1.9881 -0.4380 -0.2480
 2284TIP3   OH228410   0.080   1.276   8.069  0.2606  0.1172  0.7129
 2284TIP3    H128411   0.114   1.303   7.984 -0.0318 -0.5622  0.3739
 2284TIP3    H228412   0.057   1.357   8.113  0.5993  0.4838  0.2243
 2285TIP3   OH228413   5.868   0.522   4.045  0.5700  0.2452  0.3276
 2285TIP3    H128414   5.809   0.580   4.094  0.1105 -0.1602  0.2532
 2285TIP3    H228415   5.846   0.538   3.953  0.9472  0.4864  0.2767
 2286TIP3   OH228416   0.371   2.000   8.271  0.2819  0.3257 -0.1197
 2286TIP3    H128417   0.446   1.946   8.297 -0.5394 -0.8418 -0.0621
 2286TIP3    H228418   0.320   2.010   8.351  0.3863  1.1258 -0.1543
 2287TIP3   OH228419   2.998   2.279   2.566  0.1680  0.0462 -0.2735
 2287TIP3    H128420   2.986   2.185   2.579  0.5260  0.2306  1.6817
 2287TIP3    H228421   3.023   2.287   2.474 -1.1986 -1.6158 -0.8612
 2288TIP3   OH228422   0.385   5.950   2.802  0.2265  0.0266  0.0935
 2288TIP3    H128423   0.471   5.990   2.790 -0.1694  1.0601  0.5249
 2288TIP3    H228424   0.328   5.996   2.740 -0.1664 -0.1201  0.3391
 2289TIP3   OH228425   5.540   5.064   0.382 -0.0184  0.0340  0.0693
 2289TIP3    H128426   5.576   5.018   0.458 -0.2172  2.9842  2.1462
 2289TIP3    H228427   5.445   5.052   0.389 -0.0365  0.3051  0.3271
 2290TIP3   OH228428   4.700   0.162   1.082 -0.6598 -0.6874  0.1428
 2290TIP3    H128429   4.652   0.210   1.149  0.5530 -0.8621  1.1899
 2290TIP3    H228430   4.695   0.217   1.004  1.1838  1.5312  1.4519
 2291TIP3   OH228431   4.315   3.127   2.938  0.2366 -0.4779 -0.1707
 2291TIP3    H128432   4.364   3.168   2.867 -0.6267  1.1973  0.1376
 2291TIP3    H228433   4.229   3.109   2.900  0.0807 -0.4640  0.1683
 2292TIP3   OH228434   4.305   5.584   0.987  0.3075  0.0103 -0.1214
 2292TIP3    H128435   4.285   5.654   0.924  0.8181 -0.2494 -0.5764
 2292TIP3    H228436   4.389   5.549   0.958  1.0447  0.5530  1.2894
 2293TIP3   OH228437   1.573   0.535   0.730  0.0415 -0.2253  0.3192
 2293TIP3    H128438   1.501   0.551   0.668 -1.0334 -1.0247  1.3196
 2293TIP3    H228439   1.633   0.608   0.716 -2.0287  1.7069  0.9750
 2294TIP3   OH228440   5.881   1.781   0.220 -0.1946 -0.0039 -0.2600
 2294TIP3    H128441   5.847   1.805   0.306  1.3111  3.2472 -0.4379
 2294TIP3    H228442   5.813   1.726   0.182 -2.2212  0.8581  1.8954
 2295TIP3   OH228443   4.807   6.356   3.746  0.4828 -0.3712  0.1735
 2295TIP3    H128444   4.837   6.432   3.696 -0.9647 -0.3078 -0.6456
 2295TIP3    H228445   4.786   6.291   3.679 -0.3743 -0.6980  0.7533
 2296TIP3   OH228446   3.516   2.447   3.302  0.1815 -0.1165 -0.2512
 2296TIP3    H128447   3.481   2.531   3.273  2.4109  0.6755 -0.8238
 2296TIP3    H228448   3.505   2.447   3.397 -3.0365 -0.7816 -0.4905
 2297TIP3   OH228449   5.110   1.938   2.802  0.2500  0.2680  0.1614
 2297TIP3    H128450   5.024   1.943   2.759  0.6234  0.7975 -0.5528
 2297TIP3    H228451   5.169   1.910   2.733  0.7289  0.3409  0.5400
 2298TIP3   OH228452   1.789   6.368   2.540 -0.1284 -0.6431  0.0108
 2298TIP3    H128453   1.833   6.311   2.477 -1.9529 -0.4630 -1.5014
 2298TIP3    H228454   1.828   6.454   2.526 -0.4564 -0.6217 -0.8361
 2299TIP3   OH228455   4.977   5.441   0.823 -0.1814 -0.1248  0.5598
 2299TIP3    H128456   5.058   5.411   0.865 -0.4948 -1.1453  0.4613
 2299TIP3    H228457   4.910   5.431   0.891 -0.0887  1.5781  0.9370
 2300TIP3   OH228458   2.055   4.693   8.218  0.8048 -0.5913  0.5275
 2300TIP3    H128459   2.036   4.611   8.171  1.7819  0.0471 -1.0772
 2300TIP3    H228460   1.972   4.717   8.258  0.2064 -1.7691  0.0539
 2301TIP3   OH228461   6.389   3.740   0.835  0.4529 -0.1428 -0.3520
 2301TIP3    H128462   6.478   3.739   0.800  0.3795  1.0702 -0.6181
 2301TIP3    H228463   6.357   3.829   0.818 -0.3066 -0.1294  0.9842
 2302TIP3   OH228464   3.031   4.416   1.600  0.4707  0.9221 -0.1565
 2302TIP3    H128465   3.011   4.444   1.689  1.3921  2.5277 -0.4078
 2302TIP3    H228466   3.092   4.343   1.611 -0.5956  0.1042  0.5212
 2303TIP3   OH228467   5.322   0.768   8.445  0.0169 -0.9262  0.3838
 2303TIP3    H128468   5.322   0.676   8.420 -1.1667 -0.4192 -1.7128
 2303TIP3    H228469   5.344   0.815   8.365 -0.8972  0.6785  1.0191
 2304TIP3   OH228470   2.406   1.097   0.551  0.2191  0.0513  1.1217
 2304TIP3    H128471   2.375   1.187   0.545  0.0052 -0.0470  0.7515
 2304TIP3    H228472   2.328   1.043   0.535  0.1194 -0.2096  2.3752
 2305TIP3   OH228473   6.198   3.344   1.601 -0.2848 -0.2775  0.5020
 2305TIP3    H128474   6.282   3.348   1.647 -0.6099 -1.4701  1.2327
 2305TIP3    H228475   6.222   3.340   1.508  0.4335  0.0045  0.6676
 2306TIP3   OH228476   1.250   0.364   0.008 -0.0303  0.2892 -0.0271
 2306TIP3    H128477   1.231   0.410   0.090  0.0031  0.2900 -0.0194
 2306TIP3    H228478   1.260   0.434  -0.057  0.3211  0.3106  0.0480
 2307TIP3   OH228479   4.409   5.350   0.714 -0.1333 -0.4588  0.1131
 2307TIP3    H128480   4.500   5.374   0.732 -0.8458  3.5847 -0.6318
 2307TIP3    H228481   4.390   5.388   0.628 -2.2189 -2.3126 -0.3561
 2308TIP3   OH228482   0.164   1.464   0.636  0.1222  0.0534 -0.5724
 2308TIP3    H128483   0.069   1.461   0.634  0.1323 -0.2332 -0.6625
 2308TIP3    H228484   0.185   1.551   0.671 -0.1833 -0.4906  1.0248
 2309TIP3   OH228485   1.884   0.983   2.201  0.5348 -0.6918  0.3071
 2309TIP3    H128486   1.821   0.925   2.245  0.1803 -1.3708 -1.0315
 2309TIP3    H228487   1.865   1.070   2.236 -2.8319 -0.4132 -1.6810
 2310TIP3   OH228488   3.949   3.008   1.217  0.3563 -0.1741  0.0769
 2310TIP3    H128489   3.971   2.927   1.170  2.6825  0.3578  0.1652
 2310TIP3    H228490   3.931   3.071   1.148 -1.7800 -0.7556  0.0041
 2311TIP3   OH228491   4.827   2.737   0.829  0.4049  0.6494  0.2629
 2311TIP3    H128492   4.761   2.669   0.814  0.6645  0.7731 -1.6564
 2311TIP3    H228493   4.787   2.817   0.796  1.2121  0.8685 -0.2066
 2312TIP3   OH228494   1.186   3.731   0.740  0.1801  0.1773 -0.0067
 2312TIP3    H128495   1.110   3.696   0.694 -0.7611  1.4250  0.5553
 2312TIP3    H228496   1.228   3.654   0.778  0.0409 -0.6965 -1.5130
 2313TIP3   OH228497   2.543   1.688   8.468 -0.1592 -0.3854  0.0599
 2313TIP3    H128498   2.596   1.675   8.389 -1.3079  0.1189 -0.8271
 2313TIP3    H228499   2.454   1.667   8.441 -0.8363  1.3659  0.7619
 2314TIP3   OH228500   5.783   2.246   3.343 -0.2004 -0.0294  0.6219
 2314TIP3    H128501   5.699   2.285   3.321 -0.0699 -0.7505 -1.3446
 2314TIP3    H228502   5.764   2.153   3.358  0.1940 -0.1252  0.5464
 2315TIP3   OH228503   2.725   4.267   2.787  0.3913  0.4283  0.2457
 2315TIP3    H128504   2.659   4.253   2.855 -0.1001  0.4349 -0.2236
 2315TIP3    H228505   2.784   4.192   2.796 -0.1016  0.0250  0.1886
 2316TIP3   OH228506   6.258   3.656   1.947  0.5679 -0.3201  0.1292
 2316TIP3    H128507   6.215   3.694   1.870  0.1372 -0.7882  0.1274
 2316TIP3    H228508   6.232   3.564   1.945  1.6160 -0.6286  0.1100
 2317TIP3   OH228509   2.873   3.541   0.896 -0.3870  0.3443 -0.1625
 2317TIP3    H128510   2.949   3.578   0.942 -1.2887  1.6261  0.3624
 2317TIP3    H228511   2.798   3.578   0.941 -1.3773 -1.7531  0.0248
 2318TIP3   OH228512   5.139   5.671   2.506  0.1026  0.2218  0.3135
 2318TIP3    H128513   5.104   5.696   2.420 -0.6017  0.5881  0.6971
 2318TIP3    H228514   5.202   5.602   2.486  0.5144  0.8320 -0.5710
 2319TIP3   OH228515   3.647   5.196   0.668 -0.2687  0.7973 -0.7763
 2319TIP3    H128516   3.560   5.159   0.652 -0.0179  0.1456 -0.6714
 2319TIP3    H228517   3.705   5.146   0.610  0.0765  1.0464 -0.6482
 2320TIP3   OH228518   3.472   6.570   8.481  0.1418  0.4927  0.1671
 2320TIP3    H128519   3.442   6.502   8.419 -1.3872  1.8501 -0.6425
 2320TIP3    H228520   3.525   6.629   8.427  1.4770 -0.0156  0.8739
 2321TIP3   OH228521   3.936   1.327   2.992  0.1345  0.1218 -0.7822
 2321TIP3    H128522   3.933   1.333   2.897 -0.3136 -0.6826 -0.8353
 2321TIP3    H228523   3.844   1.320   3.018  0.3298 -2.6672 -0.5547
 2322TIP3   OH228524   0.664   2.792   8.595  0.3580 -0.1942  0.1406
 2322TIP3    H128525   0.748   2.835   8.576  1.3040 -0.9690  2.2649
 2322TIP3    H228526   0.602   2.836   8.537  2.0745  0.9509 -0.9523
 2323TIP3   OH228527   0.800   4.524   1.232  0.1291  0.1742 -0.0263
 2323TIP3    H128528   0.732   4.592   1.221 -0.0912 -0.2431 -1.4799
 2323TIP3    H228529   0.752   4.442   1.222  1.0532 -0.1233 -2.8794
 2324TIP3   OH228530   0.252   2.172   2.184 -0.2473 -0.3039  0.5980
 2324TIP3    H128531   0.266   2.250   2.131 -1.1724  0.8049  1.9049
 2324TIP3    H228532   0.327   2.116   2.165  1.1337  1.4709  0.5999
 2325TIP3   OH228533   2.329   5.764   0.568  0.3116 -0.0973  0.0195
 2325TIP3    H128534   2.280   5.795   0.492 -0.0477 -1.0344 -0.1451
 2325TIP3    H228535   2.409   5.726   0.531  0.2979 -0.2429  0.1392
 2326TIP3   OH228536   6.458   0.372   1.364 -0.1514  0.0469  0.1521
 2326TIP3    H128537   6.452   0.457   1.320 -0.0178 -0.3638 -0.6761
 2326TIP3    H228538   6.549   0.345   1.353  0.3066  0.6572  2.0809
 2327TIP3   OH228539   4.292   6.724   2.681  0.1705  0.1365  0.1972
 2327TIP3    H128540   4.273   6.685   2.596  1.5543  0.2461 -0.1860
 2327TIP3    H228541   4.307   6.648   2.738  1.5523  0.0567 -0.2343
 2328TIP3   OH228542   6.557   1.888   1.625 -0.0000  0.2872 -0.5663
 2328TIP3    H128543   6.463   1.878   1.638 -0.4969  1.6416 -2.6655
 2328TIP3    H228544   6.572   1.855   1.536  1.8434 -1.5234  0.3364
 2329TIP3   OH228545   6.543   6.598   1.522  0.2394 -0.0259 -0.2622
 2329TIP3    H128546   6.554   6.562   1.434  1.4627 -0.1966 -0.0638
 2329TIP3    H228547   6.481   6.540   1.564  0.1860 -0.3600 -0.7908
 2330TIP3   OH228548   0.403   0.608   2.430 -0.0004 -0.0164  0.1487
 2330TIP3    H128549   0.410   0.547   2.357  0.4272 -2.0817  1.8200
 2330TIP3    H228550   0.489   0.650   2.435  0.3615 -0.7507  0.1981
 2331TIP3   OH228551   0.023   6.345   0.591  0.1376  0.7764 -0.2039
 2331TIP3    H128552   0.035   6.261   0.547  0.6354  0.9873 -0.4894
 2331TIP3    H228553  -0.067   6.343   0.623  0.4448 -0.2698  0.6670
 2332TIP3   OH228554   2.515   0.342   8.669 -0.7104  0.6059 -0.0225
 2332TIP3    H128555   2.478   0.430   8.678  0.1331  1.0222 -0.4176
 2332TIP3    H228556   2.476   0.307   8.589 -2.1264  0.0532  0.8922
 2333TIP3   OH228557   6.256   2.435   7.672  0.1483  0.7123 -0.5494
 2333TIP3    H128558   6.235   2.479   7.754 -1.8364  1.2850 -1.3202
 2333TIP3    H228559   6.259   2.506   7.607 -0.9085 -0.0273 -1.4274
 2334TIP3   OH228560   5.183   2.218   0.389  0.0368 -0.3700  0.0244
 2334TIP3    H128561   5.137   2.297   0.417 -0.1086 -0.4047 -0.1074
 2334TIP3    H228562   5.112   2.156   0.369  0.1578 -0.6401  0.4389
 2335TIP3   OH228563   6.178   4.808   3.628 -0.0201 -0.0248  0.1755
 2335TIP3    H128564   6.249   4.767   3.678  0.2021 -0.0091 -0.1194
 2335TIP3    H228565   6.209   4.897   3.611 -0.0676 -0.0474 -0.0348
 2336TIP3   OH228566   1.797   2.614   3.651  0.3069 -0.3370 -0.6119
 2336TIP3    H128567   1.847   2.554   3.596  0.6650 -1.2747  0.6808
 2336TIP3    H228568   1.723   2.561   3.683 -0.3101  0.4065 -0.7912
 2337TIP3   OH228569   1.866   5.184   3.421 -0.1878  0.3130  0.3065
 2337TIP3    H128570   1.805   5.128   3.469 -0.3180  0.0883 -0.1174
 2337TIP3    H228571   1.816   5.264   3.402 -1.1273 -0.7223 -1.9761
 2338TIP3   OH228572   4.882   2.326   0.192 -0.0389  0.1789  0.0169
 2338TIP3    H128573   4.891   2.267   0.117  1.0491  0.4578 -0.0815
 2338TIP3    H228574   4.800   2.374   0.175  0.3296  0.4266 -1.1313
 2339TIP3   OH228575   6.807   6.805   0.437 -0.5599 -0.0629 -0.1885
 2339TIP3    H128576   6.870   6.868   0.471 -0.3176 -0.5385  0.2544
 2339TIP3    H228577   6.854   6.760   0.366 -1.6633  2.2266 -2.5489
 2340TIP3   OH228578   2.625   5.326   2.329 -0.2882 -0.0473  0.1498
 2340TIP3    H128579   2.557   5.369   2.278 -1.6526 -1.0694  1.0255
 2340TIP3    H228580   2.600   5.233   2.329  0.8438 -0.3775  0.8750
 2341TIP3   OH228581   0.306   1.080   1.936  0.1664 -0.8186 -0.6683
 2341TIP3    H128582   0.235   1.099   1.874 -0.3688  1.7418  0.5636
 2341TIP3    H228583   0.376   1.042   1.883 -0.0685  1.6846 -2.9766
 2342TIP3   OH228584   6.167   6.114   2.326  0.2439  0.1851 -0.0951
 2342TIP3    H128585   6.241   6.074   2.281 -0.3538 -2.4308  1.0641
 2342TIP3    H228586   6.199   6.201   2.352  3.1962 -1.0988  1.0379
 2343TIP3   OH228587   5.530   2.054   8.534  0.4009 -0.2164  0.3174
 2343TIP3    H128588   5.473   2.051   8.457  2.0512  2.5080 -1.1486
 2343TIP3    H228589   5.571   1.968   8.536 -2.1407 -1.5483  0.2470
 2344TIP3   OH228590   0.392   2.454   0.302 -0.0154 -0.2426  0.3630
 2344TIP3    H128591   0.445   2.393   0.251  0.2067  0.8665 -0.7683
 2344TIP3    H228592   0.306   2.451   0.261  0.1738  0.6819 -0.1214
 2345TIP3   OH228593   0.269   3.047   8.299 -0.1094 -0.3462  0.0127
 2345TIP3    H128594   0.272   2.975   8.362  1.1274  0.4181  0.8694
 2345TIP3    H228595   0.299   3.123   8.348  1.9996  0.0669 -1.7753
 2346TIP3   OH228596   1.033   1.870   2.067  0.4060 -0.2925 -0.4591
 2346TIP3    H128597   0.975   1.946   2.073  0.0163 -0.2800 -3.0771
 2346TIP3    H228598   1.114   1.905   2.028  0.2493 -1.1552 -1.6158
 2347TIP3   OH228599   5.283   2.291   8.546 -0.4237 -0.7091 -0.6930
 2347TIP3    H128600   5.344   2.364   8.558  1.7846 -2.3459 -1.4004
 2347TIP3    H228601   5.291   2.269   8.453 -1.1358 -1.7706 -0.5150
 2348TIP3   OH228602   2.545   2.916   0.948  0.3574 -0.0670 -0.1393
 2348TIP3    H128603   2.622   2.859   0.946  0.5532 -0.1232  3.4151
 2348TIP3    H228604   2.580   3.002   0.969 -0.4135  0.1946  0.0852
 2349TIP3   OH228605   5.331   1.880   1.068  0.2437 -0.3772 -0.2180
 2349TIP3    H128606   5.392   1.860   0.997  0.1839 -1.1618 -0.0607
 2349TIP3    H228607   5.368   1.958   1.110  1.8241 -1.5003  0.6089
 2350TIP3   OH228608   1.659   5.372   3.073 -0.3796 -0.0832 -0.2419
 2350TIP3    H128609   1.674   5.278   3.083  0.7813  0.0443 -0.6395
 2350TIP3    H228610   1.690   5.410   3.155  2.0054  0.2153 -1.1951
 2351TIP3   OH228611   5.090   5.834   1.925  0.4908  0.0527 -0.5388
 2351TIP3    H128612   5.183   5.853   1.939  0.3104  3.1937 -2.6302
 2351TIP3    H228613   5.044   5.898   1.978 -0.3709  0.5713 -1.8669
 2352TIP3   OH228614   5.287   0.122   1.824 -0.4607  0.4639  0.2252
 2352TIP3    H128615   5.335   0.174   1.759 -1.5750  1.0251 -0.1846
 2352TIP3    H228616   5.355   0.083   1.878  0.4634  1.0248 -0.4864
 2353TIP3   OH228617   0.322   2.767   2.462  0.3384  0.3443 -0.3005
 2353TIP3    H128618   0.264   2.822   2.515  0.9036  0.9707 -0.3178
 2353TIP3    H228619   0.403   2.818   2.454  1.4509 -1.1208  0.9728
 2354TIP3   OH228620   0.390   2.744   0.409 -0.0004 -1.0824 -0.3690
 2354TIP3    H128621   0.416   2.669   0.462 -2.0302 -0.8970  0.9531
 2354TIP3    H228622   0.301   2.725   0.381 -0.5158  0.7612 -0.1201
 2355TIP3   OH228623   1.406   1.056   0.663  0.5650  0.5368  0.4925
 2355TIP3    H128624   1.379   0.981   0.610 -0.1134  0.9702  0.2056
 2355TIP3    H228625   1.359   1.044   0.746  0.0253  0.9184  0.2500
 2356TIP3   OH228626   5.194   6.602   8.527  0.2923  0.0035  0.7663
 2356TIP3    H128627   5.276   6.645   8.505 -0.4951  1.3463  0.3584
 2356TIP3    H228628   5.201   6.585   8.621  1.3259 -0.5786  0.5994
 2357TIP3   OH228629   5.992   4.483   0.881 -0.7075  0.0464  0.2893
 2357TIP3    H128630   6.048   4.561   0.881 -2.5983  1.5036  1.6236
 2357TIP3    H228631   5.973   4.467   0.973 -0.9447 -1.5987 -0.0126
 2358TIP3   OH228632   5.375   1.286   8.455  0.6607  0.2646  0.0625
 2358TIP3    H128633   5.332   1.361   8.414 -2.4298 -0.9906  0.7343
 2358TIP3    H228634   5.403   1.231   8.382 -3.3099 -1.1599 -0.6354
 2359TIP3   OH228635   2.566   0.259   7.833 -0.0373 -0.0890 -0.0181
 2359TIP3    H128636   2.602   0.218   7.912 -0.7054 -1.1301 -0.2400
 2359TIP3    H228637   2.633   0.321   7.806  0.9292 -0.8958  0.4470
 2360TIP3   OH228638   1.932   1.273   8.588 -0.6619 -0.2251  0.7573
 2360TIP3    H128639   1.940   1.195   8.643  2.3952  0.9183  2.1504
 2360TIP3    H228640   1.946   1.241   8.499  1.6073 -1.2166  1.3905
 2361TIP3   OH228641   3.856   4.228   2.602 -0.3278 -0.3620  0.1442
 2361TIP3    H128642   3.822   4.282   2.674 -0.7786  0.2869 -0.5450
 2361TIP3    H228643   3.828   4.139   2.624 -2.6874  0.1636 -0.4865
 2362TIP3   OH228644   1.404   5.970   1.914 -0.2957  0.3429  0.9547
 2362TIP3    H128645   1.317   5.940   1.887  1.3168 -2.0012 -2.3382
 2362TIP3    H228646   1.422   5.921   1.994 -1.5092 -0.1213  0.9735
 2363TIP3   OH228647   1.370   3.093   2.026  0.0030  0.0410  0.1786
 2363TIP3    H128648   1.373   3.150   1.949  0.5610 -0.6525 -0.3245
 2363TIP3    H228649   1.305   3.026   2.004 -0.4381  0.3133  0.6471
 2364TIP3   OH228650   4.460   2.613   1.296 -0.4822  0.1621 -0.2167
 2364TIP3    H128651   4.531   2.658   1.340 -1.9602  1.2770  1.1176
 2364TIP3    H228652   4.474   2.631   1.203  0.8941  0.4267  0.0213
 2365TIP3   OH228653   1.257   2.036   8.317  0.0460 -0.3863  0.3834
 2365TIP3    H128654   1.315   2.091   8.369 -0.5146 -1.2753  2.0275
 2365TIP3    H228655   1.170   2.074   8.328 -0.0528 -0.4533 -0.1130
 2366TIP3   OH228656   3.671   1.298   3.092 -0.3160 -0.3873 -0.5227
 2366TIP3    H128657   3.615   1.263   3.161  0.0047 -1.3140 -0.7280
 2366TIP3    H228658   3.616   1.363   3.047 -1.2744 -1.3550 -0.7920
 2367TIP3   OH228659   1.837   1.521   8.708  0.1382  0.3163  0.3546
 2367TIP3    H128660   1.852   1.439   8.661 -0.5967  0.5503 -0.3090
 2367TIP3    H228661   1.747   1.545   8.686 -0.1395  0.5650  1.6871
 2368TIP3   OH228662   3.927   2.942   2.690 -0.2569  0.1318 -0.0384
 2368TIP3    H128663   3.927   2.850   2.714  0.0759  0.6451  2.0824
 2368TIP3    H228664   3.899   2.988   2.769  2.5266  2.0684 -0.0469
 2369TIP3   OH228665   3.856   4.234   2.343 -0.1893  0.5241  0.0418
 2369TIP3    H128666   3.853   4.227   2.438  0.5093  0.2659  0.0518
 2369TIP3    H228667   3.884   4.325   2.327  0.5763  0.3135  0.1118
 2370TIP3   OH228668   3.436   0.045   8.120 -0.1784  0.1597  0.1391
 2370TIP3    H128669   3.363  -0.015   8.137  1.0847 -2.1346 -1.8788
 2370TIP3    H228670   3.503   0.019   8.184  0.8015 -1.5118 -1.4702
 2371TIP3   OH228671   1.560   1.819   2.494 -0.4838  0.5491 -0.3645
 2371TIP3    H128672   1.500   1.820   2.568 -0.3541  0.1751 -0.2522
 2371TIP3    H228673   1.643   1.848   2.530 -0.6161  1.1520 -0.5391
 2372TIP3   OH228674   4.066   3.564   0.809  0.3356  0.0448 -0.2070
 2372TIP3    H128675   4.020   3.641   0.843 -0.1405 -0.6862  0.8775
 2372TIP3    H228676   4.110   3.595   0.731  1.2520  1.7490  0.9233
 2373TIP3   OH228677   1.904   5.046   1.806 -0.1358 -0.3018 -0.0893
 2373TIP3    H128678   1.992   5.018   1.830  0.0001  0.1976  0.0080
 2373TIP3    H228679   1.850   5.021   1.882 -0.0018 -0.2225  0.0333
 2374TIP3   OH228680   3.939   5.887   3.716 -0.0049 -0.1123  0.6483
 2374TIP3    H128681   3.882   5.863   3.789 -0.5504 -0.2447  0.1782
 2374TIP3    H228682   4.025   5.850   3.740  0.3199  1.4543  2.1287
 2375TIP3   OH228683   3.005   1.649   0.894  0.1505 -0.0386  0.4095
 2375TIP3    H128684   2.936   1.715   0.884  1.7521  1.5830 -0.5891
 2375TIP3    H228685   3.011   1.634   0.988 -1.7893 -0.5051  0.4968
 2376TIP3   OH228686   0.771   5.058   8.041 -0.1582 -0.6508 -0.4244
 2376TIP3    H128687   0.681   5.055   8.074 -0.4598  0.9409 -1.0172
 2376TIP3    H228688   0.825   5.064   8.120 -0.7910  1.7493 -0.0991
 2377TIP3   OH228689   0.444   3.791   0.428  0.7379  0.0614 -0.2331
 2377TIP3    H128690   0.482   3.866   0.474  1.7793  0.2824 -1.3934
 2377TIP3    H228691   0.366   3.826   0.385 -0.1544 -0.1119  1.1905
 2378TIP3   OH228692   1.479   4.021   0.541 -0.3371  0.0322  0.5710
 2378TIP3    H128693   1.516   4.107   0.523 -0.3211 -0.0116  0.3914
 2378TIP3    H228694   1.475   4.016   0.636  0.0739  0.0567  0.5918
 2379TIP3   OH228695   4.699   1.760   3.552  0.2439  0.3126 -0.3096
 2379TIP3    H128696   4.639   1.726   3.485 -0.7873  1.1850  0.1266
 2379TIP3    H228697   4.785   1.731   3.524 -0.3625 -0.9054 -1.0229
 2380TIP3   OH228698   2.167   1.747   1.879 -0.3590 -0.7110 -0.1160
 2380TIP3    H128699   2.083   1.771   1.917  0.2584 -0.1111  0.9165
 2380TIP3    H228700   2.199   1.676   1.936 -0.1271 -0.8752 -0.4476
 2381TIP3   OH228701   4.444   1.191   0.498  0.4015 -0.5216 -0.1808
 2381TIP3    H128702   4.484   1.164   0.581  0.3751 -2.3923 -0.7488
 2381TIP3    H228703   4.351   1.202   0.519  0.4696 -0.5457  0.1356
 2382TIP3   OH228704   4.792   6.386   0.420 -0.0565 -0.2265 -0.1123
 2382TIP3    H128705   4.799   6.315   0.484 -0.4372  1.0548  1.4055
 2382TIP3    H228706   4.788   6.466   0.473  2.8588  1.1980 -1.7796
 2383TIP3   OH228707   1.495   6.529   2.650 -0.3326 -0.0281 -0.2473
 2383TIP3    H128708   1.447   6.524   2.568  0.4903  0.0034 -0.7368
 2383TIP3    H228709   1.456   6.461   2.705 -0.0525 -0.8929 -1.0997
 2384TIP3   OH228710   0.920   4.901   8.663 -0.0346 -0.8308  0.0942
 2384TIP3    H128711   0.957   4.975   8.615 -0.9665  0.2826  1.0261
 2384TIP3    H228712   0.969   4.899   8.745  0.7716 -2.0025 -0.3908
 2385TIP3   OH228713   5.357   6.571   2.859  0.0577  0.6538  0.2774
 2385TIP3    H128714   5.370   6.477   2.873 -1.9823  0.2709  0.0221
 2385TIP3    H228715   5.419   6.614   2.917 -1.2909 -0.8745  3.0229
 2386TIP3   OH228716   3.216   5.483   1.959  0.4182  0.0360  0.0331
 2386TIP3    H128717   3.160   5.487   1.882 -1.4810 -2.0458  1.1632
 2386TIP3    H228718   3.295   5.439   1.929 -1.2035 -2.8427 -0.3816
 2387TIP3   OH228719   5.406   0.634   3.217  0.5495  0.2145  0.4417
 2387TIP3    H128720   5.484   0.604   3.265  2.1151  1.3390 -1.2803
 2387TIP3    H228721   5.441   0.677   3.139 -1.8221  0.9091 -0.3091
 2388TIP3   OH228722   3.005   6.238   1.286 -0.1521 -0.0054  0.1332
 2388TIP3    H128723   2.941   6.191   1.339 -0.3256 -0.1084 -0.1611
 2388TIP3    H228724   2.959   6.316   1.256 -0.1604 -0.1037 -0.1198
 2389TIP3   OH228725   0.821   6.055   2.601 -0.4267 -0.7156  0.0566
 2389TIP3    H128726   0.796   5.999   2.527  1.5643  0.8832 -1.9461
 2389TIP3    H228727   0.807   6.144   2.570  0.3111  0.0043  1.6976
 2390TIP3   OH228728   6.457   4.092   8.509  0.0576  0.1467  0.2039
 2390TIP3    H128729   6.451   4.081   8.604  0.1498  0.2220  0.2186
 2390TIP3    H228730   6.414   4.015   8.473 -2.5672  1.4327  0.2909
 2391TIP3   OH228731   1.754   1.967   2.606  0.2703  0.0461  0.2519
 2391TIP3    H128732   1.796   2.035   2.553  1.6371  0.3867  1.6710
 2391TIP3    H228733   1.788   1.982   2.694 -0.6303 -1.5282  0.9092
 2392TIP3   OH228734   1.587   1.070   2.137  0.1455  0.6494  0.2382
 2392TIP3    H128735   1.649   1.000   2.158 -0.1965 -0.3768 -1.9623
 2392TIP3    H228736   1.502   1.026   2.133 -0.1296  1.2593 -0.8005
 2393TIP3   OH228737   6.718   3.332   2.103 -0.2452 -0.3346  0.1495
 2393TIP3    H128738   6.771   3.318   2.181 -1.1225 -2.9869  0.3675
 2393TIP3    H228739   6.768   3.291   2.032 -0.2909  0.4501 -0.3466
 2394TIP3   OH228740   6.665   0.269   2.160  0.2874 -0.1964 -0.0057
 2394TIP3    H128741   6.618   0.239   2.083  1.5790 -0.1205 -0.8616
 2394TIP3    H228742   6.620   0.349   2.187  0.0688  0.0049 -0.9435
 2395TIP3   OH228743   4.206   1.396   2.129 -0.1471 -0.0206  0.2959
 2395TIP3    H128744   4.185   1.418   2.038  1.1492  0.1363  0.0104
 2395TIP3    H228745   4.231   1.303   2.126 -1.5072 -0.4348  0.7704
 2396TIP3   OH228746   2.582   3.365   0.042  0.3331 -0.4065 -0.0683
 2396TIP3    H128747   2.534   3.438   0.003  0.0637 -0.3032  0.4517
 2396TIP3    H228748   2.582   3.383   0.136  0.9511 -0.6688 -0.0101
 2397TIP3   OH228749   5.277   1.077   2.137 -0.8678 -0.5580 -0.5499
 2397TIP3    H128750   5.348   1.038   2.186 -2.1501 -2.3171 -0.0168
 2397TIP3    H228751   5.320   1.125   2.066  0.8947  0.0617  0.8866
 2398TIP3   OH228752   1.317   6.279   1.423 -0.1449 -0.2095 -0.2264
 2398TIP3    H128753   1.280   6.216   1.485  0.0521  0.0346  0.1504
 2398TIP3    H228754   1.403   6.300   1.461  0.0732 -0.2322 -0.7089
 2399TIP3   OH228755   5.265   4.788   2.415 -0.2465 -0.0911  0.1633
 2399TIP3    H128756   5.229   4.847   2.482  0.4271 -1.1472  1.4972
 2399TIP3    H228757   5.301   4.847   2.349  1.9749  1.1082  2.2714
 2400TIP3   OH228758   4.233   3.852   1.006 -0.0730 -0.0998  0.3562
 2400TIP3    H128759   4.215   3.906   1.083 -0.6204  0.1372  0.0735
 2400TIP3    H228760   4.270   3.771   1.041 -2.4315 -0.9658  1.0928
 2401TIP3   OH228761   5.367   0.388   0.841 -0.0803  0.2077 -0.1962
 2401TIP3    H128762   5.316   0.314   0.809  1.5941 -0.8730 -0.4964
 2401TIP3    H228763   5.358   0.384   0.936 -0.4812 -0.0237 -0.2438
 2402TIP3   OH228764   1.576   0.261   1.016  0.0505  0.0530 -0.3176
 2402TIP3    H128765   1.567   0.351   0.986  0.2314  0.2815  0.3077
 2402TIP3    H228766   1.621   0.217   0.944  1.9983  0.9873  0.2683
 2403TIP3   OH228767   2.276   2.692   2.840 -0.8149  0.5277 -0.0332
 2403TIP3    H128768   2.192   2.735   2.824 -0.6475  0.6819 -0.5427
 2403TIP3    H228769   2.331   2.760   2.879 -0.3476  0.9936 -1.4323
 2404TIP3   OH228770   5.106   3.680   0.042  0.0544  0.1618 -0.0892
 2404TIP3    H128771   5.044   3.608   0.055  1.4532 -1.5511 -2.1558
 2404TIP3    H228772   5.055   3.759   0.059 -1.8589 -1.2671  1.1474
 2405TIP3   OH228773   5.569   6.308   1.260 -0.2605 -0.5919 -0.0041
 2405TIP3    H128774   5.569   6.401   1.282  0.0663 -0.7180  0.5511
 2405TIP3    H228775   5.564   6.305   1.164 -3.1983 -0.0342  0.0479
 2406TIP3   OH228776   1.332   1.723   0.392 -0.0226  0.0484 -0.6272
 2406TIP3    H128777   1.280   1.789   0.438 -0.9849 -0.6709 -0.6422
 2406TIP3    H228778   1.422   1.739   0.420 -0.5744 -0.4443  1.6496
 2407TIP3   OH228779   0.847   5.819   3.332 -0.1298  0.0603  0.6437
 2407TIP3    H128780   0.775   5.876   3.304  0.1021  0.7905  1.4925
 2407TIP3    H228781   0.905   5.877   3.382  1.8034 -0.1548 -1.2236
 2408TIP3   OH228782   4.350   5.167   8.122  0.1709  0.6946 -0.0763
 2408TIP3    H128783   4.270   5.136   8.080  0.5971  0.6557 -0.8820
 2408TIP3    H228784   4.360   5.257   8.090  0.5954  0.6049 -0.2001
 2409TIP3   OH228785   2.774   2.528   1.915  0.0435 -0.1747 -0.3543
 2409TIP3    H128786   2.858   2.524   1.869 -0.5251  0.3822 -1.4973
 2409TIP3    H228787   2.720   2.587   1.862 -0.9054 -0.1119  0.6356
 2410TIP3   OH228788   5.949   6.033   3.089  0.7725 -0.1194  0.1244
 2410TIP3    H128789   5.941   5.950   3.136 -0.3321  0.0880  0.3349
 2410TIP3    H228790   6.042   6.056   3.095  0.8400 -0.6274  1.2883
 2411TIP3   OH228791   4.030   4.820   7.586 -0.3586  0.3451  0.5768
 2411TIP3    H128792   4.065   4.777   7.664  0.9243  0.0218 -0.1575
 2411TIP3    H228793   3.961   4.878   7.620  0.4748  0.5518  2.0094
 2412TIP3   OH228794   0.263   3.999   2.437  0.3117  0.3089 -0.2802
 2412TIP3    H128795   0.192   3.935   2.438  1.4232 -0.9923  1.4532
 2412TIP3    H228796   0.309   3.984   2.355  0.2409 -0.7838 -0.1341
 2413TIP3   OH228797   3.732   1.639   3.684 -0.9713  0.3685 -0.0027
 2413TIP3    H128798   3.807   1.629   3.625  1.7307  2.8450  2.6836
 2413TIP3    H228799   3.738   1.565   3.744  0.3360  1.3336  1.1163
 2414TIP3   OH228800   5.032   3.079   8.610  0.2749  0.0316  0.0961
 2414TIP3    H128801   5.001   3.027   8.536 -3.0664  0.5808  0.9566
 2414TIP3    H228802   5.021   3.170   8.581 -0.7530  0.2462  1.1344
 2415TIP3   OH228803   2.528   0.911   2.134 -0.5703 -0.1037  0.6033
 2415TIP3    H128804   2.447   0.889   2.180 -0.9094  0.9379  0.5340
 2415TIP3    H228805   2.514   0.878   2.045 -1.7385  1.6890  0.0473
 2416TIP3   OH228806   4.673   5.706   0.689 -0.2468  0.1776  0.1350
 2416TIP3    H128807   4.691   5.621   0.649  2.1346 -1.9160  4.8417
 2416TIP3    H228808   4.732   5.766   0.644 -0.1551 -1.1543 -1.6476
 2417TIP3   OH228809   3.282   4.249   2.239  0.2381 -0.2802  0.1358
 2417TIP3    H128810   3.230   4.188   2.292 -0.1925  1.6862  2.1040
 2417TIP3    H228811   3.373   4.230   2.262  0.0474  0.7680  1.9447
 2418TIP3   OH228812   1.465   5.697   8.512  0.2594 -0.6432 -0.3229
 2418TIP3    H128813   1.420   5.704   8.596  2.6540 -2.6501  1.3013
 2418TIP3    H228814   1.441   5.610   8.479  0.9800 -0.7438 -0.6183
 2419TIP3   OH228815   5.325   6.245   1.640 -0.1093  0.1064 -0.2787
 2419TIP3    H128816   5.419   6.232   1.640 -0.2403 -0.9253 -0.6444
 2419TIP3    H228817   5.288   6.157   1.636 -1.0703  0.5242 -1.3586
 2420TIP3   OH228818   6.265   0.124   1.621 -0.4989  0.3884  0.3522
 2420TIP3    H128819   6.208   0.198   1.601 -0.1078  0.1389 -1.8770
 2420TIP3    H228820   6.228   0.051   1.572 -0.8093 -0.9307  2.4184
 2421TIP3   OH228821   3.043   0.538   3.135 -0.1932 -0.2174 -0.1053
 2421TIP3    H128822   3.115   0.530   3.073 -0.7626 -0.0149 -0.8081
 2421TIP3    H228823   3.079   0.506   3.218  0.7087 -0.0858 -0.4343
 2422TIP3   OH228824   2.736   2.222   3.043  0.1819  0.2288 -0.1540
 2422TIP3    H128825   2.656   2.184   3.078  1.6538 -2.2939  0.7141
 2422TIP3    H228826   2.776   2.151   2.992  0.2593  2.4477 -3.5040
 2423TIP3   OH228827   2.624   0.972   2.830  0.4344 -0.1399  0.2077
 2423TIP3    H128828   2.536   0.939   2.809 -0.0550  1.2629 -0.0970
 2423TIP3    H228829   2.657   1.006   2.747  0.4890  1.0044  0.6743
 2424TIP3   OH228830   4.039   4.588   0.287 -0.2167 -0.4205 -0.0737
 2424TIP3    H128831   4.108   4.631   0.237 -0.7657 -0.4846 -0.9075
 2424TIP3    H228832   4.026   4.644   0.364 -0.4057  0.5030 -0.7673
 2425TIP3   OH228833   5.471   2.141   1.978 -0.1942 -0.5527  0.0589
 2425TIP3    H128834   5.463   2.070   2.041  1.0222 -1.5027 -0.7920
 2425TIP3    H228835   5.506   2.215   2.028 -2.1421 -0.2874  1.1010
 2426TIP3   OH228836   1.781   0.735   0.750 -0.0859 -0.1199  0.1063
 2426TIP3    H128837   1.862   0.725   0.801 -1.1041 -0.9208  1.6673
 2426TIP3    H228838   1.777   0.828   0.728  1.5345 -0.1708 -0.4888
 2427TIP3   OH228839   4.854   3.383   2.699  0.0733  0.3436  0.3910
 2427TIP3    H128840   4.832   3.373   2.791 -0.7280 -0.7793  0.0931
 2427TIP3    H228841   4.791   3.447   2.666 -0.7024 -0.4654  0.2691
 2428TIP3   OH228842   1.553   6.398   2.266  0.8017 -0.5556 -0.6141
 2428TIP3    H128843   1.514   6.425   2.349  0.6544 -0.3181 -0.7604
 2428TIP3    H228844   1.642   6.433   2.270  0.0643  1.5837 -1.5773
 2429TIP3   OH228845   6.526   4.543   0.730 -0.4435 -0.7622  0.0120
 2429TIP3    H128846   6.498   4.451   0.729 -2.1667 -0.2707  0.6387
 2429TIP3    H228847   6.460   4.589   0.679 -0.5358  0.3810  1.1234
 2430TIP3   OH228848   3.883   0.313   1.589  0.2609  0.6761  0.2197
 2430TIP3    H128849   3.947   0.333   1.656  0.9619  0.8286 -0.4825
 2430TIP3    H228850   3.903   0.223   1.562  0.0909  0.6738  0.0972
 2431TIP3   OH228851   0.509   4.065   1.202  0.2107  0.1599  0.4298
 2431TIP3    H128852   0.452   4.090   1.129 -0.1391  1.0000  0.9775
 2431TIP3    H228853   0.592   4.040   1.160 -0.4567 -0.8297 -0.3508
 2432TIP3   OH228854   6.010   1.737   1.557 -0.5185 -0.1750 -0.0083
 2432TIP3    H128855   6.097   1.698   1.546 -0.2227  0.4965 -0.1017
 2432TIP3    H228856   5.984   1.713   1.645  0.2461  0.5501  0.4277
 2433TIP3   OH228857   5.999   1.982   1.383 -0.0716 -0.4907 -0.2575
 2433TIP3    H128858   5.921   1.984   1.327 -0.4812 -0.3678  0.3085
 2433TIP3    H228859   5.986   1.906   1.440 -0.0105 -0.1981  0.1555
 2434TIP3   OH228860   3.054   3.602   8.596 -0.1585  0.0699  0.4598
 2434TIP3    H128861   3.061   3.509   8.618 -1.6418 -0.4131 -0.9241
 2434TIP3    H228862   2.960   3.618   8.587  0.1181  1.5040 -0.1321
 2435TIP3   OH228863   0.454   1.117   0.368  0.1408  0.3503 -0.2141
 2435TIP3    H128864   0.379   1.154   0.414  0.0936  0.6821 -0.5587
 2435TIP3    H228865   0.415   1.062   0.300  0.2132  0.1634 -0.1070
 2436TIP3   OH228866   3.585   0.718   2.415 -0.3044 -0.4445 -0.1529
 2436TIP3    H128867   3.578   0.763   2.331 -0.3395 -0.9870 -0.4420
 2436TIP3    H228868   3.610   0.628   2.392 -1.6740 -0.9654  0.3365
 2437TIP3   OH228869   1.619   2.131   0.556 -0.6559 -0.3974  0.1718
 2437TIP3    H128870   1.565   2.209   0.568 -0.5865 -0.4917  1.1425
 2437TIP3    H228871   1.670   2.124   0.637 -0.6071 -1.4067  0.0685
 2438TIP3   OH228872   4.925   5.836   3.047 -0.4381 -0.4418  0.1252
 2438TIP3    H128873   4.995   5.785   3.087 -0.5978  1.3108  2.9533
 2438TIP3    H228874   4.884   5.882   3.120 -3.2551  0.1867 -1.6727
 2439TIP3   OH228875   2.817   5.935   1.125 -0.1703  0.9101  0.7645
 2439TIP3    H128876   2.731   5.900   1.148 -0.1779  0.1247 -0.3689
 2439TIP3    H228877   2.799   6.021   1.089 -0.5639  0.4722 -0.1108
 2440TIP3   OH228878   0.400   2.961   7.781 -0.0953  0.1686 -0.2750
 2440TIP3    H128879   0.439   2.954   7.694 -0.8180 -2.8101 -0.4602
 2440TIP3    H228880   0.305   2.964   7.765 -0.2246 -0.1404  0.3759
 2441TIP3   OH228881   3.836   2.807   0.251 -0.4203 -0.0804  0.3285
 2441TIP3    H128882   3.804   2.808   0.341  0.2274 -2.1573  0.6403
 2441TIP3    H228883   3.931   2.818   0.259 -0.2949 -0.8303 -0.0430
 2442TIP3   OH228884   1.586   0.811   1.879 -0.1939  0.1400  0.2703
 2442TIP3    H128885   1.518   0.778   1.821  1.2530 -2.0053 -0.3412
 2442TIP3    H228886   1.583   0.753   1.956  1.6808 -0.8376 -0.3186
 2443TIP3   OH228887   6.427   3.440   0.912 -0.1468 -0.1362 -0.4172
 2443TIP3    H128888   6.369   3.505   0.952 -1.2208 -1.9058  1.0327
 2443TIP3    H228889   6.515   3.473   0.930 -0.6047 -0.2643  2.5394
 2444TIP3   OH228890   3.713   2.787   1.323 -0.0147 -0.2557 -0.5591
 2444TIP3    H128891   3.701   2.795   1.418  3.2714 -0.0144 -0.0518
 2444TIP3    H228892   3.678   2.869   1.287  0.2470  0.4099  0.6582
 2445TIP3   OH228893   2.810   3.534   2.637 -0.1426  0.2739 -0.0995
 2445TIP3    H128894   2.899   3.552   2.668 -0.8912  1.3952  1.5536
 2445TIP3    H228895   2.754   3.589   2.691 -1.8284 -0.0425 -1.4289
 2446TIP3   OH228896   5.674   6.084   1.398  0.7040 -0.0403  0.1084
 2446TIP3    H128897   5.675   6.110   1.490 -0.2282  0.6420 -0.0658
 2446TIP3    H228898   5.670   6.166   1.349  0.1629 -0.4250 -0.5193
 2447TIP3   OH228899   4.022   0.822   2.229 -0.3024  0.2182  0.0845
 2447TIP3    H128900   4.030   0.757   2.159 -0.7462  0.9479 -0.6750
 2447TIP3    H228901   4.015   0.771   2.309 -1.8101 -0.7221 -0.6061
 2448TIP3   OH228902   5.686   5.616   1.193 -0.1720 -0.3602  0.2492
 2448TIP3    H128903   5.650   5.590   1.108  1.4664 -2.4849  0.0964
 2448TIP3    H228904   5.665   5.709   1.201 -2.8887 -0.7671 -1.1433
 2449TIP3   OH228905   6.450   6.332   2.049  0.6068 -0.3582  0.1932
 2449TIP3    H128906   6.460   6.243   2.015  1.2705 -1.2186  2.4858
 2449TIP3    H228907   6.474   6.388   1.975  0.2209 -2.0559 -1.2932
 2450TIP3   OH228908   0.430   1.460   1.572 -0.1712  0.0599  0.1611
 2450TIP3    H128909   0.506   1.514   1.596 -0.5054  0.3921  0.4856
 2450TIP3    H228910   0.365   1.523   1.540 -1.5441  0.1937  2.9437
 2451TIP3   OH228911   5.750   6.328   3.930 -0.3366  0.1581 -0.5248
 2451TIP3    H128912   5.685   6.393   3.902 -0.6516  0.3495  0.6105
 2451TIP3    H228913   5.698   6.253   3.959 -0.0047 -0.1938 -0.8305
 2452TIP3   OH228914   3.807   0.809   3.689 -0.4490 -0.3435  0.2736
 2452TIP3    H128915   3.793   0.715   3.681  2.3850 -1.0184  2.1497
 2452TIP3    H228916   3.861   0.832   3.614  0.4743 -0.6187  0.8440
 2453TIP3   OH228917   5.601   2.337   2.437 -0.6325  0.1849  0.6497
 2453TIP3    H128918   5.554   2.418   2.416 -0.3013  0.1199 -0.4002
 2453TIP3    H228919   5.575   2.317   2.527 -1.0576  1.2214  0.7746
 2454TIP3   OH228920   4.929   0.735   2.150  0.7898  0.7430 -0.6730
 2454TIP3    H128921   4.964   0.822   2.128  1.7745  0.3637 -0.6562
 2454TIP3    H228922   4.919   0.736   2.245  1.1081  0.7294 -0.6384
 2455TIP3   OH228923   6.253   4.462   7.992 -0.2584  0.2295 -0.0452
 2455TIP3    H128924   6.223   4.552   8.005  0.5327  0.3406  1.0832
 2455TIP3    H228925   6.327   4.452   8.051 -0.6991 -1.3520  0.2821
 2456TIP3   OH228926   0.865   2.944   8.433  0.0454  0.0838 -0.8615
 2456TIP3    H128927   0.925   2.872   8.417 -0.7613 -0.5887 -0.9511
 2456TIP3    H228928   0.921   3.022   8.440  0.7229 -0.0996 -3.4781
 2457TIP3   OH228929   5.468   3.523   1.666 -0.5722 -0.5378 -0.1342
 2457TIP3    H128930   5.429   3.587   1.725 -1.0653  2.1290 -3.0753
 2457TIP3    H228931   5.542   3.487   1.715 -0.8555  1.5790  2.0314
 2458TIP3   OH228932   5.950   3.392   2.568 -0.0713  0.5702 -0.5382
 2458TIP3    H128933   5.947   3.448   2.646  0.5308 -0.9347  0.6328
 2458TIP3    H228934   6.043   3.380   2.551 -0.1932  1.6293 -2.0924
 2459TIP3   OH228935   1.033   4.394   1.116  0.3266  0.1859 -0.0649
 2459TIP3    H128936   1.049   4.299   1.115  1.0754  0.2987 -1.4065
 2459TIP3    H228937   0.950   4.403   1.162  0.5543 -1.0709  0.6433
 2460TIP3   OH228938   3.712   0.603   3.292 -0.4642  0.2999  0.0460
 2460TIP3    H128939   3.719   0.525   3.237 -1.0390  1.4069 -1.7002
 2460TIP3    H228940   3.643   0.582   3.355 -0.2803 -0.7535 -0.0811
 2461TIP3   OH228941   0.298   2.934   8.703 -0.1356 -0.8111  0.5610
 2461TIP3    H128942   0.340   3.001   8.650 -0.0005 -1.1345  0.2549
 2461TIP3    H228943   0.282   2.976   8.787 -2.7471  0.5939 -0.5273
 2462TIP3   OH228944   3.541   2.741   0.131 -0.2094 -0.2761 -0.4974
 2462TIP3    H128945   3.502   2.821   0.166  0.5186  0.4052 -1.1997
 2462TIP3    H228946   3.472   2.675   0.138 -0.5141  0.1721  0.9520
 2463TIP3   OH228947   4.607   0.428   7.547 -0.4878 -0.0004  0.4011
 2463TIP3    H128948   4.694   0.425   7.508 -1.8189 -1.0480 -2.8773
 2463TIP3    H228949   4.597   0.343   7.591  0.2539  0.2673  1.0904
 2464TIP3   OH228950   6.302   1.405   3.334 -0.6136 -0.2117  0.2236
 2464TIP3    H128951   6.303   1.494   3.370 -1.8042  0.3464 -1.0509
 2464TIP3    H228952   6.394   1.377   3.337 -0.0975  1.3560 -0.0900
 2465TIP3   OH228953   5.495   2.650   3.004 -0.4269 -0.8108 -0.4212
 2465TIP3    H128954   5.535   2.713   2.945  0.2608 -0.9708 -0.1417
 2465TIP3    H228955   5.443   2.703   3.064  1.0982 -0.3653  0.5714
 2466TIP3   OH228956   3.904   2.050   0.177  0.2895 -0.3708  0.2676
 2466TIP3    H128957   3.994   2.039   0.146  0.3213 -0.6154  0.4463
 2466TIP3    H228958   3.884   1.969   0.224  0.0846 -0.1903  0.4998
 2467TIP3   OH228959   5.643   6.821   3.431 -0.1898  0.2799  0.1935
 2467TIP3    H128960   5.726   6.775   3.437 -0.8714 -1.4950 -2.2116
 2467TIP3    H228961   5.586   6.776   3.493 -0.2218 -0.7038 -0.5248
 2468TIP3   OH228962   5.947   2.640   3.761 -0.1359 -0.0277  0.2817
 2468TIP3    H128963   5.883   2.569   3.754 -0.7784  0.6025 -0.3506
 2468TIP3    H228964   6.008   2.625   3.689 -0.1920 -0.0096  0.2309
 2469TIP3   OH228965   4.129   2.636   1.866  0.1929 -0.2575 -0.4374
 2469TIP3    H128966   4.169   2.702   1.810  0.0242  0.5898  0.4204
 2469TIP3    H228967   4.179   2.556   1.848  0.9050  0.2865 -0.9065
 2470TIP3   OH228968   3.696   3.080   1.309  0.3385  0.2152 -0.0070
 2470TIP3    H128969   3.684   3.155   1.367  1.6396  0.2365  0.2662
 2470TIP3    H228970   3.790   3.079   1.290  0.2035 -0.8201 -0.7299
 2471TIP3   OH228971   4.839   4.798   7.579 -0.6467 -0.0517  0.0966
 2471TIP3    H128972   4.934   4.803   7.579 -0.6400  1.5114 -2.7020
 2471TIP3    H228973   4.820   4.706   7.599  1.4132 -0.4203  0.5804
 2472TIP3   OH228974   5.310   2.924   3.058 -0.2961  0.1825 -0.4153
 2472TIP3    H128975   5.346   2.972   3.132  1.2148 -3.1351  1.2375
 2472TIP3    H228976   5.368   2.945   2.985 -0.0382  1.2513  0.0805
 2473TIP3   OH228977   6.404   5.866   7.786  0.1928 -0.2590 -0.3078
 2473TIP3    H128978   6.342   5.904   7.724 -0.5027  0.7120  0.9395
 2473TIP3    H228979   6.470   5.934   7.798  0.0615 -0.2407  0.3593
 2474TIP3   OH228980   3.992   2.658   0.042 -0.4760 -1.0157  0.5758
 2474TIP3    H128981   4.084   2.649   0.020 -0.4666 -1.2918  0.7270
 2474TIP3    H228982   3.982   2.611   0.124 -0.6149 -0.4234  0.9060
 2475TIP3   OH228983   2.933   1.596   7.965  0.4179 -0.7197  0.1807
 2475TIP3    H128984   3.005   1.541   7.997  0.5382 -0.9638 -0.4869
 2475TIP3    H228985   2.955   1.612   7.873  0.1993  0.1492  0.2661
 2476TIP3   OH228986   3.388   1.152   2.019  0.4698  0.0394 -0.2668
 2476TIP3    H128987   3.372   1.228   2.075 -1.6402 -0.4683 -0.1015
 2476TIP3    H228988   3.376   1.185   1.930  1.0433  0.2274 -0.2753
 2477TIP3   OH228989   0.710   4.553   8.506  0.2257 -0.2057  0.3509
 2477TIP3    H128990   0.667   4.481   8.552 -1.5381  0.4780 -0.1419
 2477TIP3    H228991   0.722   4.521   8.417 -2.9336  0.8835 -0.6079
 2478TIP3   OH228992   6.052   6.117   3.341  0.0216  0.1369 -0.1053
 2478TIP3    H128993   6.065   6.205   3.305 -0.3784  0.4645  0.5471
 2478TIP3    H228994   6.138   6.091   3.372 -0.0988  0.7856  0.7900
 2479TIP3   OH228995   1.794   5.348   1.324  0.5657 -0.1740  0.2446
 2479TIP3    H128996   1.830   5.367   1.411 -0.2280  1.1799  0.3026
 2479TIP3    H228997   1.784   5.434   1.283 -1.4462 -0.5798 -0.2243
 2480TIP3   OH228998   5.772   2.671   0.966 -0.1646  0.1839 -0.7681
 2480TIP3    H128999   5.776   2.576   0.953 -1.5120 -0.6633  3.4672
 2480TIP3    H229000   5.705   2.683   1.033  0.8929  4.0364 -0.1682
 2481TIP3   OH229001   1.855   4.238   3.198  0.4466  0.2283 -0.2178
 2481TIP3    H129002   1.839   4.145   3.185  0.9657 -0.1970  1.8517
 2481TIP3    H229003   1.768   4.275   3.215  0.2589  0.1041 -0.8916
 2482TIP3   OH229004   5.452   6.004   8.161  0.0564 -0.1039 -0.3570
 2482TIP3    H129005   5.444   6.097   8.139 -0.2962 -0.0457  0.0067
 2482TIP3    H229006   5.363   5.970   8.154  0.1725 -0.3958 -0.4086
 2483TIP3   OH229007   5.789   1.698   1.759  0.3160  0.1966 -0.0273
 2483TIP3    H129008   5.841   1.620   1.774  1.1335  0.7089 -0.1156
 2483TIP3    H229009   5.735   1.677   1.683  0.1242 -0.4773  0.2957
 2484TIP3   OH229010   5.669   6.577   0.718  0.4763  0.0298 -0.1947
 2484TIP3    H129011   5.748   6.525   0.732  0.3194 -0.0547  0.4115
 2484TIP3    H229012   5.616   6.524   0.658  0.7125 -0.0951 -0.2915
 2485TIP3   OH229013   6.706   1.882   3.120  0.1312 -0.1717 -0.6144
 2485TIP3    H129014   6.776   1.816   3.129 -0.1425 -0.3065  0.8360
 2485TIP3    H229015   6.631   1.832   3.086  0.5567 -0.1395 -1.6395
 2486TIP3   OH229016   0.427   6.704   0.563 -0.1039  0.0217 -0.4467
 2486TIP3    H129017   0.477   6.709   0.644 -0.5846  1.4312 -0.2098
 2486TIP3    H229018   0.366   6.631   0.577  0.8880 -0.7878 -0.1940
 2487TIP3   OH229019   0.018   3.614   0.625 -0.1663 -0.2539 -0.1548
 2487TIP3    H129020   0.008   3.663   0.707  2.0352  0.5584 -0.3013
 2487TIP3    H229021   0.036   3.681   0.559  1.9688 -1.1308 -0.5362
 2488TIP3   OH229022   4.616   6.739   0.237  0.0178  0.0914 -0.0063
 2488TIP3    H129023   4.687   6.742   0.300 -0.0441  0.4085  0.0532
 2488TIP3    H229024   4.591   6.647   0.232 -1.3715  0.2858  2.0111
 2489TIP3   OH229025   2.727   2.782   2.124  0.3732  0.1303  0.5579
 2489TIP3    H129026   2.678   2.725   2.064  0.8306  0.6345 -0.3127
 2489TIP3    H229027   2.794   2.822   2.069 -0.2210  1.8723  1.0428
 2490TIP3   OH229028   6.748   6.244   2.252 -0.0029  0.1563  0.1866
 2490TIP3    H129029   6.780   6.327   2.286  0.9731  0.3639 -1.1521
 2490TIP3    H229030   6.795   6.233   2.169  0.7422 -2.2862  0.8659
 2491TIP3   OH229031   6.362   2.751   1.358  0.0527  0.2318  0.2563
 2491TIP3    H129032   6.300   2.721   1.425  0.9192  1.0735  1.4627
 2491TIP3    H229033   6.306   2.790   1.290 -0.8282 -0.4555  0.5684
 2492TIP3   OH229034   5.509   4.375   1.407  0.0415 -0.1881 -0.1131
 2492TIP3    H129035   5.518   4.281   1.417  1.7803  0.1935  3.8869
 2492TIP3    H229036   5.599   4.407   1.401 -0.3947  1.3416  0.9737
 2493TIP3   OH229037   1.776   2.726   0.137  0.8175  0.0006 -0.5360
 2493TIP3    H129038   1.733   2.731   0.223 -0.1333 -0.2174 -0.9849
 2493TIP3    H229039   1.713   2.767   0.077  2.3050  1.9944 -0.8470
 2494TIP3   OH229040   2.474   3.850   0.876  0.0770 -0.0424  0.0875
 2494TIP3    H129041   2.448   3.935   0.838 -0.0142 -0.0874  0.0501
 2494TIP3    H229042   2.426   3.785   0.825  2.0304 -0.2925 -1.6063
 2495TIP3   OH229043   5.993   5.064   0.050 -0.5891  1.0690  0.1568
 2495TIP3    H129044   6.084   5.085   0.069 -0.3877 -0.3531  0.9311
 2495TIP3    H229045   5.942   5.120   0.108 -0.1756  1.2130  0.3836
 2496TIP3   OH229046   4.421   1.475   1.251 -0.1190 -0.3802 -0.8074
 2496TIP3    H129047   4.377   1.402   1.295  0.1225 -0.0959 -0.0752
 2496TIP3    H229048   4.464   1.435   1.176 -0.3849 -0.9131 -0.6823
 2497TIP3   OH229049   1.491   1.001   3.587 -0.1488  0.0646 -0.2245
 2497TIP3    H129050   1.483   1.085   3.543 -0.1239 -0.2358 -0.8181
 2497TIP3    H229051   1.511   1.023   3.678  2.6916  0.7129 -0.9139
 2498TIP3   OH229052   2.364   4.309   2.870  0.3322  0.4180 -0.0614
 2498TIP3    H129053   2.287   4.347   2.912  1.1376  0.8494  1.0715
 2498TIP3    H229054   2.438   4.345   2.918  1.2283 -0.3860 -0.7952
 2499TIP3   OH229055   6.034   2.248   1.517 -0.7778 -0.4049 -0.7766
 2499TIP3    H129056   6.028   2.177   1.453 -0.8625  0.0648 -1.2953
 2499TIP3    H229057   6.050   2.326   1.464 -0.6287 -0.0469 -0.2030
 2500TIP3   OH229058   2.815   6.649   8.076  0.3421  0.8129 -0.2249
 2500TIP3    H129059   2.739   6.707   8.072 -0.7313 -0.5220  0.0015
 2500TIP3    H229060   2.864   6.678   8.153 -0.7532  0.7491  0.5132
 2501TIP3   OH229061   5.584   1.478   2.688  0.1911 -0.4006 -0.1338
 2501TIP3    H129062   5.597   1.561   2.643 -0.3679  0.3509  1.0282
 2501TIP3    H229063   5.661   1.426   2.665  1.7312  1.2785  0.9355
 2502TIP3   OH229064   0.412   3.865   1.698 -0.1681  0.0470  0.6810
 2502TIP3    H129065   0.448   3.900   1.779 -1.4093  0.7006  0.9868
 2502TIP3    H229066   0.361   3.789   1.726  0.2519 -0.3443  0.3802
 2503TIP3   OH229067   6.644   4.491   1.173  0.2527  0.3374 -0.6544
 2503TIP3    H129068   6.688   4.432   1.234 -0.2434 -0.7526 -1.3151
 2503TIP3    H229069   6.586   4.435   1.122 -1.7024  1.6837 -0.0299
 2504TIP3   OH229070   2.738   2.597   1.392 -0.2294 -0.2782  0.3073
 2504TIP3    H129071   2.673   2.529   1.372 -1.1404  0.4482  0.7298
 2504TIP3    H229072   2.821   2.561   1.360 -0.8345 -1.2261 -0.2458
 2505TIP3   OH229073   4.580   1.430   1.645 -0.1627  0.3680 -0.5288
 2505TIP3    H129074   4.577   1.344   1.603 -1.1366  0.6770 -1.1366
 2505TIP3    H229075   4.593   1.411   1.738  0.8147 -0.3796 -0.8053
 2506TIP3   OH229076   4.559   1.275   1.080 -0.5095 -0.0661 -0.4760
 2506TIP3    H129077   4.502   1.200   1.095  1.4852 -2.0338 -1.9301
 2506TIP3    H229078   4.535   1.307   0.993  0.8020 -1.2206 -1.3155
 2507TIP3   OH229079   5.482   2.086   2.417  0.1957 -0.4143  0.1827
 2507TIP3    H129080   5.538   2.041   2.480 -2.0096 -0.5678  2.1809
 2507TIP3    H229081   5.516   2.176   2.414  1.7811 -0.9937 -0.2969
 2508TIP3   OH229082   0.358   2.382   1.462  0.4183 -0.2486 -0.7161
 2508TIP3    H129083   0.332   2.294   1.437  1.0397 -0.4079 -0.8389
 2508TIP3    H229084   0.355   2.432   1.381 -1.7387  0.3251 -0.3221
 2509TIP3   OH229085   3.393   0.483   0.083 -0.1058 -0.5432  0.7648
 2509TIP3    H129086   3.336   0.471   0.159 -4.4180  2.0863 -1.5822
 2509TIP3    H229087   3.359   0.421   0.018 -0.2657  0.9202 -0.6387
 2510TIP3   OH229088   3.887   6.504   1.046 -0.3572  0.1494 -0.1903
 2510TIP3    H129089   3.911   6.517   0.954 -0.6735 -0.8143 -0.4209
 2510TIP3    H229090   3.856   6.413   1.050  1.5013 -0.5035  1.2331
 2511TIP3   OH229091   0.142   5.521   2.243  0.1611 -0.1750  0.1653
 2511TIP3    H129092   0.100   5.580   2.306  0.4040  0.7637 -0.5273
 2511TIP3    H229093   0.229   5.506   2.278  0.5534  0.9327 -0.2910
 2512TIP3   OH229094   2.215   0.729   8.582  0.6370 -0.0529  0.1168
 2512TIP3    H129095   2.188   0.808   8.535 -0.9141  1.3038  3.0453
 2512TIP3    H229096   2.134   0.697   8.623  1.9894 -0.6376  2.5028
 2513TIP3   OH229097   3.733   2.037   0.814  0.3660  0.4362  0.0280
 2513TIP3    H129098   3.707   1.947   0.794  0.3934  0.5339 -0.4646
 2513TIP3    H229099   3.820   2.028   0.853 -0.0384  0.1768  0.8820
 2514TIP3   OH229100   3.959   2.526   0.572 -0.4556 -0.2118 -0.5904
 2514TIP3    H129101   3.883   2.500   0.624 -0.5507 -0.0286 -0.6359
 2514TIP3    H229102   3.994   2.443   0.539 -1.2627 -0.2371 -1.4391
 2515TIP3   OH229103   5.162   4.732   8.107  0.0247  0.1167 -0.1443
 2515TIP3    H129104   5.121   4.791   8.044  0.8424  1.9000  0.8801
 2515TIP3    H229105   5.254   4.759   8.108  0.4634 -1.3257  0.2380
 2516TIP3   OH229106   6.634   3.582   0.281  0.3628  0.0207 -0.0128
 2516TIP3    H129107   6.651   3.549   0.370  1.6259  1.5895  0.3739
 2516TIP3    H229108   6.721   3.599   0.245 -0.0516 -1.6334 -2.0246
 2517TIP3   OH229109   4.410   3.634   8.619  0.5143 -0.0392 -0.2916
 2517TIP3    H129110   4.333   3.577   8.611  0.2739  0.2988 -0.3867
 2517TIP3    H229111   4.483   3.573   8.636  0.1295 -0.3057  0.4470
 2518TIP3   OH229112   3.933   3.130   0.958 -0.3315 -0.2475  0.7121
 2518TIP3    H129113   3.839   3.150   0.963 -0.3330 -0.4921  1.8988
 2518TIP3    H229114   3.975   3.207   0.996  0.1645  1.1975 -2.4329
 2519TIP3   OH229115   3.212   2.901   8.580 -0.3788  0.0645 -0.0967
 2519TIP3    H129116   3.300   2.939   8.588  1.0871 -2.5593 -2.1112
 2519TIP3    H229117   3.180   2.895   8.670  1.9537  0.1303  0.8028
 2520TIP3   OH229118   4.024   1.830   8.617  0.2781 -0.1283 -0.5523
 2520TIP3    H129119   4.117   1.828   8.594 -0.0183 -0.0415 -1.7993
 2520TIP3    H229120   3.983   1.879   8.546 -0.7998 -0.6280 -0.2843
 2521TIP3   OH229121   5.687   0.092   0.531  0.1249 -0.2680  0.2565
 2521TIP3    H129122   5.738   0.109   0.452 -0.8485 -0.3556 -0.4010
 2521TIP3    H229123   5.752   0.059   0.594  0.3969 -3.6976 -1.6082
 2522TIP3   OH229124   4.353   5.996   2.377 -0.0195 -0.1036 -0.2213
 2522TIP3    H129125   4.314   6.010   2.464 -2.0042  0.9553 -1.2124
 2522TIP3    H229126   4.397   6.078   2.357 -1.3989  0.4788 -1.0499
 2523TIP3   OH229127   4.771   5.756   3.744  0.0588 -0.1837  0.1234
 2523TIP3    H129128   4.823   5.700   3.802 -0.3215 -0.9031 -0.2269
 2523TIP3    H229129   4.680   5.732   3.762 -0.1360  0.6194  0.2718
 2524TIP3   OH229130   2.148   6.233   0.675 -0.3126  0.0662  0.2983
 2524TIP3    H129131   2.060   6.197   0.678 -0.2641 -0.0303  0.6128
 2524TIP3    H229132   2.205   6.157   0.667 -0.2222  0.0788  0.7765
 2525TIP3   OH229133   4.515   0.591   3.308 -0.4330 -0.1911  0.1617
 2525TIP3    H129134   4.494   0.650   3.236 -1.3605  4.1777  3.6007
 2525TIP3    H229135   4.591   0.630   3.351  0.4020 -2.8764  1.4074
 2526TIP3   OH229136   5.636   1.343   8.228 -0.0037 -0.2855 -0.1396
 2526TIP3    H129137   5.570   1.275   8.235  0.4048 -0.5383  2.0542
 2526TIP3    H229138   5.586   1.423   8.212 -0.6472 -0.7721 -0.6402
 2527TIP3   OH229139   5.590   5.870   2.818  0.4522  0.1974  0.0683
 2527TIP3    H129140   5.559   5.933   2.753  0.5551  0.9218  0.7022
 2527TIP3    H229141   5.685   5.881   2.818  0.4029  0.7336  0.8459
 2528TIP3   OH229142   1.869   1.582   2.369 -0.7880  0.2378 -0.2246
 2528TIP3    H129143   1.935   1.524   2.331 -0.9157  0.5334 -0.9177
 2528TIP3    H229144   1.815   1.524   2.424  1.0233  0.2720  1.7003
 2529TIP3   OH229145   0.147   6.088   3.058 -0.2170  0.3013  0.2388
 2529TIP3    H129146   0.131   6.077   2.964  0.6438 -1.0420  0.2198
 2529TIP3    H229147   0.159   5.999   3.090  0.9718  0.8353  1.3444
 2530TIP3   OH229148   4.239   3.272   0.911  0.3480  1.1037 -0.0324
 2530TIP3    H129149   4.272   3.211   0.977 -1.6960 -0.5558 -0.4421
 2530TIP3    H229150   4.166   3.316   0.953 -0.1292  1.0084 -0.7439
 2531TIP3   OH229151   4.634   0.884   2.167  0.5025  0.1854  0.0802
 2531TIP3    H129152   4.622   0.846   2.080 -0.2413 -0.0690  0.2841
 2531TIP3    H229153   4.722   0.923   2.164  1.8275 -2.5596  0.2243
 2532TIP3   OH229154   2.020   4.921   7.966  0.0534  0.2702  0.2972
 2532TIP3    H129155   2.090   4.986   7.969  0.0641  0.3045 -0.5143
 2532TIP3    H229156   1.949   4.961   8.017 -0.2352  1.2816 -0.8461
 2533TIP3   OH229157   0.531   6.455   2.362 -0.3873 -0.4115  0.0857
 2533TIP3    H129158   0.537   6.541   2.319 -1.8155 -0.5615 -0.4614
 2533TIP3    H229159   0.440   6.448   2.390 -0.2046 -1.6148  0.4256
 2534TIP3   OH229160   2.514   5.489   8.110 -0.6237  0.1330  0.8284
 2534TIP3    H129161   2.470   5.411   8.075  0.1154 -0.1899  0.6035
 2534TIP3    H229162   2.596   5.457   8.146  0.3950  0.9831 -0.6163
 2535TIP3   OH229163   6.619   6.192   0.385 -0.3720 -0.9465  0.0222
 2535TIP3    H129164   6.567   6.144   0.321  0.1941 -1.5648  0.0150
 2535TIP3    H229165   6.690   6.133   0.408 -0.7389 -0.8789  1.4677
 2536TIP3   OH229166   0.355   3.682   3.275 -0.0899  0.3217  0.2752
 2536TIP3    H129167   0.450   3.690   3.290  0.1877 -2.5722  0.7537
 2536TIP3    H229168   0.316   3.694   3.361 -0.0058  0.1616  0.3374
 2537TIP3   OH229169   4.471   5.173   1.036 -0.0972 -0.4404 -0.3185
 2537TIP3    H129170   4.501   5.082   1.028 -0.7122 -0.6598 -0.1397
 2537TIP3    H229171   4.381   5.166   1.067 -0.5102  0.2083 -1.3323
 2538TIP3   OH229172   5.396   5.123   3.243  0.7148  0.1509 -0.3834
 2538TIP3    H129173   5.441   5.124   3.159 -0.2804  3.9040 -1.0235
 2538TIP3    H229174   5.418   5.206   3.284 -1.0240 -0.3767  1.8639
 2539TIP3   OH229175   3.277   5.243   8.248  0.2851  0.1935 -0.4776
 2539TIP3    H129176   3.368   5.239   8.278  0.0331  0.3950  0.3353
 2539TIP3    H229177   3.284   5.257   8.154  1.1427  2.2723 -0.1737
 2540TIP3   OH229178   3.790   5.270   0.893  0.0433 -0.0591 -0.4049
 2540TIP3    H129179   3.728   5.197   0.902  0.8736 -0.7520 -0.1492
 2540TIP3    H229180   3.817   5.268   0.802  1.6962 -1.4757  0.0552
 2541TIP3   OH229181   2.864   0.363   1.997 -0.4545 -0.0921 -0.2612
 2541TIP3    H129182   2.847   0.457   2.012 -0.4078 -0.1944  0.4849
 2541TIP3    H229183   2.786   0.319   2.031 -0.6595 -0.3044 -0.9957
 2542TIP3   OH229184   4.678   6.020   3.668  0.3081  1.0905  0.1710
 2542TIP3    H129185   4.746   6.066   3.618 -0.6833  0.5004 -1.8648
 2542TIP3    H229186   4.715   5.934   3.686  0.3814  1.0213 -0.2919
 2543TIP3   OH229187   0.985   2.752   0.785  0.1818 -0.1286 -0.2468
 2543TIP3    H129188   0.954   2.705   0.707  0.1123 -0.6384  0.0832
 2543TIP3    H229189   0.972   2.691   0.857  0.2695  0.3322  0.1667
 2544TIP3   OH229190   4.852   1.318   8.639 -0.3072  0.0397  0.2514
 2544TIP3    H129191   4.925   1.315   8.577 -0.3208 -0.4296  0.2536
 2544TIP3    H229192   4.864   1.240   8.694 -0.3913  0.3627  0.7272
 2545TIP3   OH229193   2.192   4.503   0.003  0.6091  0.3184 -0.2654
 2545TIP3    H129194   2.241   4.475   0.080  1.7143  0.3898 -0.9141
 2545TIP3    H229195   2.129   4.432  -0.013  1.4371 -0.4525 -0.2096
 2546TIP3   OH229196   4.633   3.430   8.616 -0.1319  0.5644 -0.1151
 2546TIP3    H129197   4.591   3.351   8.584  0.1948 -0.7670  2.4962
 2546TIP3    H229198   4.689   3.400   8.688 -0.2816  3.1926  1.2154
 2547TIP3   OH229199   4.458   6.096   1.811  0.1063  0.2807 -0.4240
 2547TIP3    H129200   4.481   6.108   1.903  0.8047  1.6278 -0.7528
 2547TIP3    H229201   4.542   6.077   1.767 -0.3397 -1.3459 -0.6691
 2548TIP3   OH229202   3.798   5.523   8.011 -0.6212  0.2560  0.6196
 2548TIP3    H129203   3.723   5.577   7.987 -0.3555 -0.1284 -1.2051
 2548TIP3    H229204   3.873   5.565   7.968 -0.1209 -0.5383  0.6938
 2549TIP3   OH229205   0.196   1.150   0.451 -0.1366  0.1568  0.2081
 2549TIP3    H129206   0.130   1.114   0.392  0.2773  0.1923 -0.2785
 2549TIP3    H229207   0.165   1.239   0.470 -0.0173  0.3187 -0.3464
 2550TIP3   OH229208   1.917   1.575   1.907  0.0042  0.1097 -0.7811
 2550TIP3    H129209   1.938   1.554   1.816  1.1296 -0.6439 -0.3719
 2550TIP3    H229210   1.839   1.523   1.927  0.7752 -1.0935 -0.8062
 2551TIP3   OH229211   5.894   6.092   0.367 -0.6997  0.2297 -0.7018
 2551TIP3    H129212   5.906   6.141   0.448  0.8848  0.0341 -0.7833
 2551TIP3    H229213   5.833   6.145   0.316 -0.6642  1.0367  0.0665
 2552TIP3   OH229214   0.481   0.118   0.619 -0.3144 -0.0863  0.2589
 2552TIP3    H129215   0.416   0.049   0.638 -0.9643  0.8082  1.4083
 2552TIP3    H229216   0.455   0.153   0.534 -0.2985 -0.8889 -0.0862
 2553TIP3   OH229217   5.235   0.097   0.997 -0.4931  0.1791  0.3180
 2553TIP3    H129218   5.209   0.076   0.908 -1.6231  1.8709  0.1949
 2553TIP3    H229219   5.239   0.013   1.042  1.9557 -0.9563 -1.7396
 2554TIP3   OH229220   0.844   2.311   3.237 -0.6507  0.0792 -0.4138
 2554TIP3    H129221   0.791   2.371   3.291 -3.2822 -1.9563 -0.5156
 2554TIP3    H229222   0.848   2.231   3.289  2.6300  0.1614 -0.3587
 2555TIP3   OH229223   1.078   2.202   2.553  0.0272  0.4808  0.0629
 2555TIP3    H129224   1.078   2.212   2.649  0.9035  0.2834  0.0969
 2555TIP3    H229225   1.171   2.206   2.529 -0.1942  0.6505 -0.7959
 2556TIP3   OH229226   4.340   1.995   3.713  0.0101 -0.0055 -0.6753
 2556TIP3    H129227   4.404   1.984   3.783 -1.6448 -2.5630  0.6188
 2556TIP3    H229228   4.315   1.905   3.689 -0.3371  0.7904 -3.8247
 2557TIP3   OH229229   6.392   3.597   3.283 -0.1067  0.0721 -0.0090
 2557TIP3    H129230   6.441   3.521   3.312  1.3783  0.7767 -0.5748
 2557TIP3    H229231   6.300   3.569   3.284  0.4867 -2.1362 -1.4934
 2558TIP3   OH229232   5.698   6.647   0.245 -0.1932 -0.4042  0.2295
 2558TIP3    H129233   5.756   6.574   0.223  1.4765  0.6984  0.7420
 2558TIP3    H229234   5.653   6.619   0.325  0.1770 -1.0160  0.2321
 2559TIP3   OH229235   5.570   1.168   0.959  0.1095 -0.0328  0.2846
 2559TIP3    H129236   5.507   1.209   1.017  0.7723  0.6433  0.5504
 2559TIP3    H229237   5.518   1.113   0.901 -0.6525  0.0262  0.8973
 2560TIP3   OH229238   4.018   5.694   8.514  0.1411 -0.0945  0.8686
 2560TIP3    H129239   3.980   5.658   8.594 -1.3487 -0.9818 -0.1935
 2560TIP3    H229240   4.064   5.620   8.473 -1.6552 -0.4762 -0.5650
 2561TIP3   OH229241   2.626   2.135   1.419  0.4242  0.5682  0.2145
 2561TIP3    H129242   2.586   2.206   1.369 -1.1569  0.4967  1.3143
 2561TIP3    H229243   2.617   2.058   1.363 -0.4785  0.6704  0.2066
 2562TIP3   OH229244   1.036   5.051   7.880 -0.1846 -0.3147  0.2687
 2562TIP3    H129245   0.973   5.003   7.827  0.5199 -0.3683 -0.5495
 2562TIP3    H229246   1.072   5.117   7.820  0.4043 -0.1741  0.7663
 2563TIP3   OH229247   0.920   6.480   2.255  0.2153  0.1753  0.0528
 2563TIP3    H129248   0.862   6.555   2.270  0.1744  0.4851 -1.5290
 2563TIP3    H229249   0.993   6.515   2.203 -0.2864 -1.0390 -1.5588
 2564TIP3   OH229250   5.376   4.448   0.551 -0.2851  0.1566 -0.1485
 2564TIP3    H129251   5.398   4.541   0.556 -0.6274  0.1866  1.2172
 2564TIP3    H229252   5.369   4.430   0.457  1.6197  1.0590 -0.5136
 2565TIP3   OH229253   6.362   3.804   2.470  0.2600 -0.8167  0.9484
 2565TIP3    H129254   6.345   3.760   2.553  0.2889 -1.0143  0.8526
 2565TIP3    H229255   6.279   3.799   2.423  0.8693 -2.8849 -0.0221
 2566TIP3   OH229256   0.604   4.355   1.248 -0.1678 -0.0106 -0.5147
 2566TIP3    H129257   0.634   4.265   1.263 -1.0479 -0.0999  0.8871
 2566TIP3    H229258   0.588   4.359   1.154  0.9262 -0.9830 -0.7710
 2567TIP3   OH229259   3.525   4.703   2.182 -0.0066  0.5480  0.1696
 2567TIP3    H129260   3.467   4.648   2.236 -0.0026 -0.0920 -0.4594
 2567TIP3    H229261   3.600   4.647   2.164  0.0640  0.8148 -0.3728
 2568TIP3   OH229262   2.343   5.821   3.249 -0.1388  0.8748  0.2845
 2568TIP3    H129263   2.348   5.732   3.285 -0.6297 -0.2153 -2.1142
 2568TIP3    H229264   2.401   5.872   3.304  1.8934 -1.4256  0.4858
 2569TIP3   OH229265   5.791   0.956   0.419 -0.1850 -0.0017  0.3270
 2569TIP3    H129266   5.877   0.937   0.382 -1.1468  0.8190 -2.5371
 2569TIP3    H229267   5.775   1.048   0.397 -1.5517  0.0483  1.3901
 2570TIP3   OH229268   3.069   5.497   3.343  0.0285  0.7956 -0.2857
 2570TIP3    H129269   3.047   5.547   3.421 -0.3943 -0.6730  0.5834
 2570TIP3    H229270   2.985   5.462   3.313  0.0477  2.0746 -1.9575
 2571TIP3   OH229271   4.773   2.391   1.512 -0.4550 -0.5641 -0.0101
 2571TIP3    H129272   4.737   2.362   1.595 -2.1701  0.1254 -0.4529
 2571TIP3    H229273   4.698   2.389   1.452  0.0602  1.6189 -0.8208
 2572TIP3   OH229274   4.642   0.232   3.719  0.0366 -0.0117 -0.7502
 2572TIP3    H129275   4.587   0.160   3.689 -1.0338  0.6386 -0.3912
 2572TIP3    H229276   4.705   0.245   3.648 -0.0621 -0.9765 -1.0225
 2573TIP3   OH229277   1.753   5.056   0.792 -0.5167 -0.3505  0.0014
 2573TIP3    H129278   1.838   5.051   0.835  0.7936 -0.1134 -2.3966
 2573TIP3    H229279   1.690   5.058   0.864  1.5342  0.5485  1.8896
 2574TIP3   OH229280   2.058   6.031   8.272  0.6534 -0.1037 -0.4575
 2574TIP3    H129281   2.142   6.076   8.278  0.9140 -0.5660 -0.5935
 2574TIP3    H229282   1.998   6.097   8.237  0.6751  0.5825  0.7701
 2575TIP3   OH229283   4.791   5.960   3.262 -0.1235 -0.3848 -0.0044
 2575TIP3    H129284   4.810   6.048   3.296 -1.9131  0.3209 -0.7029
 2575TIP3    H229285   4.814   5.901   3.333  0.3847  0.7170  0.7691
 2576TIP3   OH229286   4.492   2.243   2.631 -0.3593  0.1380  0.3948
 2576TIP3    H129287   4.559   2.310   2.620  0.6612 -0.9874 -0.5594
 2576TIP3    H229288   4.435   2.252   2.555  1.0788 -1.4483 -0.9488
 2577TIP3   OH229289   6.545   5.369   0.600  0.1043 -0.3528  0.3413
 2577TIP3    H129290   6.602   5.342   0.528  1.2154 -0.5140  1.2481
 2577TIP3    H229291   6.526   5.461   0.583 -2.0108 -1.0733 -1.6739
 2578TIP3   OH229292   6.477   5.970   2.513  0.0164  0.0393 -0.5243
 2578TIP3    H129293   6.464   6.050   2.563 -0.8483 -0.4410  0.0395
 2578TIP3    H229294   6.482   5.999   2.422 -2.6068  0.5448 -0.5698
 2579TIP3   OH229295   5.669   0.670   0.555 -0.0190 -0.4658  0.4775
 2579TIP3    H129296   5.578   0.696   0.543  0.0737  0.0099  0.7547
 2579TIP3    H229297   5.710   0.746   0.597 -0.2686 -1.8669  3.5030
 2580TIP3   OH229298   5.044   3.474   1.226  0.0193  0.5582 -1.0673
 2580TIP3    H129299   5.046   3.558   1.181 -2.9465  0.9485 -0.6484
 2580TIP3    H229300   5.037   3.409   1.157  1.2338  0.6852 -1.3389
 2581TIP3   OH229301   3.341   5.916   2.103  0.2598  0.5200  0.2498
 2581TIP3    H129302   3.276   5.854   2.071  1.1106 -0.8195  1.0419
 2581TIP3    H229303   3.300   6.002   2.091 -0.5617 -0.0943 -1.7661
 2582TIP3   OH229304   2.344   6.268   1.181 -0.3615 -0.3564 -0.1885
 2582TIP3    H129305   2.249   6.261   1.172 -0.4930 -1.0206  1.3773
 2582TIP3    H229306   2.378   6.216   1.108 -1.1587  0.6013 -1.2892
 2583TIP3   OH229307   0.126   0.488   3.130  0.3910 -0.7364 -0.1450
 2583TIP3    H129308   0.193   0.470   3.064  0.9334 -0.7419  0.4107
 2583TIP3    H229309   0.164   0.556   3.185  0.4712 -1.6570  0.9608
 2584TIP3   OH229310   4.326   3.198   0.651  0.5083 -0.1153 -0.6581
 2584TIP3    H129311   4.414   3.194   0.687  0.0686  0.6092  0.5888
 2584TIP3    H229312   4.271   3.223   0.726 -0.4628  1.3962 -1.8061
 2585TIP3   OH229313   5.684   6.409   2.667  0.3290 -0.7759  0.5764
 2585TIP3    H129314   5.722   6.474   2.608  2.7713 -1.9290  0.7468
 2585TIP3    H229315   5.600   6.388   2.628  1.4330 -0.7732 -2.0107
 2586TIP3   OH229316   2.434   4.749   1.950 -0.5778  0.1641 -0.2811
 2586TIP3    H129317   2.369   4.713   1.891  0.9469  0.0081 -1.9710
 2586TIP3    H229318   2.451   4.680   2.014 -1.1546 -0.2579 -0.5815
 2587TIP3   OH229319   1.486   3.668   0.174 -0.1763  0.1485  0.4715
 2587TIP3    H129320   1.426   3.594   0.176 -0.4423  0.2948 -0.9274
 2587TIP3    H229321   1.565   3.634   0.132 -0.0037  0.4458  0.5520
 2588TIP3   OH229322   6.198   6.009   8.452 -0.3942 -0.0932  0.3874
 2588TIP3    H129323   6.161   5.962   8.377  1.3300 -2.7954  1.1160
 2588TIP3    H229324   6.288   6.027   8.428 -0.7079  1.9820  0.5815
 2589TIP3   OH229325   2.955   2.395   3.013 -0.1467  0.3288  0.2895
 2589TIP3    H129326   2.982   2.375   2.924  1.0755 -1.2639  0.9458
 2589TIP3    H229327   2.886   2.331   3.032 -0.0676  0.3365  0.6160
 2590TIP3   OH229328   4.521   4.039   3.266  0.3113  0.1890  0.1598
 2590TIP3    H129329   4.527   3.954   3.222  0.4534  1.3976 -2.3502
 2590TIP3    H229330   4.608   4.053   3.302  0.4888 -0.4161 -0.0130
 2591TIP3   OH229331   4.245   3.544   1.549 -0.0598 -0.4049 -0.0473
 2591TIP3    H129332   4.232   3.531   1.455  1.5585 -0.9281 -0.2233
 2591TIP3    H229333   4.289   3.465   1.579 -0.1107 -0.0286  1.0610
 2592TIP3   OH229334   2.651   1.959   1.180  0.1528 -0.2915  0.1497
 2592TIP3    H129335   2.614   1.967   1.092  1.0645  1.8783 -0.1027
 2592TIP3    H229336   2.590   1.901   1.227 -0.4941 -1.2629 -1.8110
 2593TIP3   OH229337   6.738   2.289   0.066 -0.5944 -0.2909  0.9051
 2593TIP3    H129338   6.760   2.302  -0.027  0.4283 -0.7131  1.0777
 2593TIP3    H229339   6.671   2.222   0.066 -0.5715 -0.3169  0.4718
 2594TIP3   OH229340   3.100   5.035   8.241  0.0382  0.1206  0.0862
 2594TIP3    H129341   3.149   4.953   8.231  0.0636  0.0434  0.8463
 2594TIP3    H229342   3.163   5.104   8.219 -0.0058 -0.0592 -0.6391
 2595TIP3   OH229343   4.889   3.250   0.359  0.1745  0.3379 -0.6653
 2595TIP3    H129344   4.912   3.170   0.407  1.5750  0.1010 -1.6695
 2595TIP3    H229345   4.793   3.248   0.353  0.1141 -0.6319  0.3758
 2596TIP3   OH229346   1.109   3.288   3.668 -0.6795 -0.0813 -0.2281
 2596TIP3    H129347   1.022   3.325   3.677 -0.3709  0.4738  0.6397
 2596TIP3    H229348   1.102   3.224   3.597 -1.4130  1.0849 -1.2297
 2597TIP3   OH229349   5.649   6.239   1.011 -0.0026 -0.0084 -0.4430
 2597TIP3    H129350   5.708   6.175   1.052  0.8081  1.9155  1.5530
 2597TIP3    H229351   5.672   6.235   0.918  2.2153 -0.4259  0.0547
 2598TIP3   OH229352   4.907   4.466   0.091 -0.0952 -0.3591  0.0764
 2598TIP3    H129353   4.863   4.454   0.175 -0.9948  2.3174  0.1074
 2598TIP3    H229354   4.994   4.427   0.103 -0.7484 -1.4271  1.6781
 2599TIP3   OH229355   4.603   2.967   1.745  0.1727 -0.3800 -0.1603
 2599TIP3    H129356   4.594   3.062   1.755  3.1533 -0.2136  2.5100
 2599TIP3    H229357   4.570   2.931   1.828  1.4864 -1.4173 -0.0572
 2600TIP3   OH229358   3.162   3.068   2.400 -0.0246  0.2028 -0.0435
 2600TIP3    H129359   3.219   3.144   2.392 -0.5593  0.6551  0.3823
 2600TIP3    H229360   3.153   3.054   2.494 -1.1226  0.5274 -0.0885
 2601TIP3   OH229361   2.881   6.833   0.671 -0.2417 -0.2872 -0.9339
 2601TIP3    H129362   2.902   6.926   0.676 -1.2770 -0.0126 -1.4213
 2601TIP3    H229363   2.856   6.819   0.580  2.7053 -1.6944 -1.6415
 2602TIP3   OH229364   3.343   2.478   1.883 -0.3314  0.1586  0.0661
 2602TIP3    H129365   3.275   2.523   1.935 -0.4872  0.0110 -0.0096
 2602TIP3    H229366   3.408   2.450   1.947  1.3197  3.0959 -0.1182
 2603TIP3   OH229367   0.938   3.310   1.555  0.3301 -0.7286  0.6659
 2603TIP3    H129368   0.992   3.369   1.607  1.7185 -0.0851 -1.3920
 2603TIP3    H229369   0.920   3.358   1.475 -1.5659 -1.7655  0.4072
 2604TIP3   OH229370   1.694   6.708   1.768 -0.3400  0.5286  0.0290
 2604TIP3    H129371   1.758   6.710   1.697 -1.0086  0.8928 -0.5690
 2604TIP3    H229372   1.748   6.706   1.848  0.4272 -0.5772 -0.4822
 2605TIP3   OH229373   2.457   1.540   8.092  0.4966 -0.5126  0.2800
 2605TIP3    H129374   2.455   1.505   8.003  4.1057  2.3603 -1.1839
 2605TIP3    H229375   2.529   1.493   8.134  2.5456  1.8658 -0.3283
 2606TIP3   OH229376   4.320   4.850   8.005 -0.4120  0.0815 -0.0900
 2606TIP3    H129377   4.388   4.899   8.053  0.1516  0.4144 -1.2006
 2606TIP3    H229378   4.321   4.888   7.917 -1.2332 -0.7112 -0.4503
 2607TIP3   OH229379   1.530   3.310   1.095 -0.0694  0.5183  0.5230
 2607TIP3    H129380   1.625   3.325   1.089  0.0463  0.1171  1.1880
 2607TIP3    H229381   1.512   3.242   1.031  0.0431  0.7929  0.1969
 2608TIP3   OH229382   4.038   5.805   0.699  0.5662  0.0432  0.4646
 2608TIP3    H129383   4.032   5.895   0.667  0.3913 -1.3460 -4.1192
 2608TIP3    H229384   3.950   5.769   0.687  1.4108 -1.6269 -1.1493
 2609TIP3   OH229385   0.806   0.457   8.419 -0.1802 -0.0841 -0.1495
 2609TIP3    H129386   0.728   0.452   8.474 -0.1137 -3.6227 -0.2026
 2609TIP3    H229387   0.878   0.428   8.475  0.8133  1.1785 -0.6983
 2610TIP3   OH229388   4.048   0.611   2.039  0.4947 -0.0390 -0.4553
 2610TIP3    H129389   4.093   0.561   2.107  0.7328  0.8749  0.0768
 2610TIP3    H229390   4.021   0.545   1.975  2.7557 -0.6234 -0.8907
 2611TIP3   OH229391   2.756   1.361   0.943 -0.0964  0.6510  0.2269
 2611TIP3    H129392   2.716   1.431   0.892  0.7004  1.3355  0.5093
 2611TIP3    H229393   2.849   1.383   0.945  0.3048 -0.8620 -0.3705
 2612TIP3   OH229394   2.798   5.080   8.321  0.1192  0.0287  0.0312
 2612TIP3    H129395   2.890   5.088   8.296  0.6641  0.2077  1.9067
 2612TIP3    H229396   2.766   5.170   8.324 -0.0101 -0.0081 -0.2635
 2613TIP3   OH229397   0.665   0.664   2.507  0.5283  0.4461 -0.3648
 2613TIP3    H129398   0.689   0.628   2.422  0.0304 -2.9755  0.7802
 2613TIP3    H229399   0.730   0.732   2.523  1.8712 -0.1869 -2.6133
 2614TIP3   OH229400   2.393   3.927   3.308  0.4106 -0.4282  0.3597
 2614TIP3    H129401   2.303   3.950   3.283  0.5891 -1.2489 -1.1878
 2614TIP3    H229402   2.382   3.854   3.369  0.0067  0.3170  1.2007
 2615TIP3   OH229403   5.957   6.168   4.110 -0.3905 -0.1177 -0.3273
 2615TIP3    H129404   6.005   6.225   4.050 -0.1264  0.3139  0.2832
 2615TIP3    H229405   5.865   6.177   4.085 -0.2372 -0.3435 -0.9942
 2616TIP3   OH229406   4.706   6.617   0.933  0.2340 -0.2906  0.7338
 2616TIP3    H129407   4.717   6.542   0.991 -0.8492 -0.5156  0.6760
 2616TIP3    H229408   4.627   6.661   0.966  0.1571  0.1246  0.0145
 2617TIP3   OH229409   3.402   1.634   1.500 -0.3641  0.3467  0.0161
 2617TIP3    H129410   3.495   1.657   1.497 -0.2844  0.1090  0.5105
 2617TIP3    H229411   3.361   1.709   1.543 -0.2366 -0.0211  0.7972
 2618TIP3   OH229412   5.836   0.005   0.754  0.1077  0.2778 -0.2983
 2618TIP3    H129413   5.845  -0.089   0.766  1.3055  0.3758 -0.3341
 2618TIP3    H229414   5.796   0.035   0.836  1.2412 -0.0553  0.3975
 2619TIP3   OH229415   2.567   2.738   1.560  0.8403  0.0013  0.1268
 2619TIP3    H129416   2.581   2.779   1.475  2.4039  1.6648  1.1081
 2619TIP3    H229417   2.609   2.652   1.552 -1.3621 -1.0186 -1.5525
 2620TIP3   OH229418   4.511   0.044   1.658 -0.7519 -0.2829 -0.9070
 2620TIP3    H129419   4.467   0.123   1.625  0.2518 -0.1936 -2.0995
 2620TIP3    H229420   4.585   0.031   1.599  0.8012 -0.4691  0.9709
 2621TIP3   OH229421   0.164   0.554   2.545  0.4435  0.7295  0.0303
 2621TIP3    H129422   0.158   0.460   2.563  1.1405  1.0069  1.8841
 2621TIP3    H229423   0.254   0.567   2.515  1.4448  1.2073  2.8983
 2622TIP3   OH229424   1.305   2.787   2.732  0.6750 -0.1296  0.4852
 2622TIP3    H129425   1.363   2.807   2.659 -1.6864 -0.1885 -1.5186
 2622TIP3    H229426   1.339   2.704   2.767  1.3412 -0.5902 -1.1436
 2623TIP3   OH229427   4.903   6.653   8.685  0.4745 -0.1982 -0.4563
 2623TIP3    H129428   4.977   6.618   8.733  0.8370  0.4233 -0.5507
 2623TIP3    H229429   4.849   6.577   8.664  0.1820 -0.4583  1.1252
 2624TIP3   OH229430   3.262   0.841   1.410 -0.1939 -0.0363  0.3464
 2624TIP3    H129431   3.193   0.785   1.445  0.3047 -1.3621 -0.6846
 2624TIP3    H229432   3.296   0.888   1.486 -1.3439 -0.3379  1.0767
 2625TIP3   OH229433   0.223   5.888   7.881 -0.0509 -0.5985 -0.0098
 2625TIP3    H129434   0.268   5.924   7.804 -0.2002  1.3066  0.7243
 2625TIP3    H229435   0.132   5.914   7.869  0.3458  2.2410  2.0471
 2626TIP3   OH229436   4.147   2.104   2.131 -0.2978  0.3829 -0.5423
 2626TIP3    H129437   4.206   2.180   2.132  0.1068  0.0680 -0.3604
 2626TIP3    H229438   4.160   2.065   2.045 -1.5890  1.3473 -1.2226
 2627TIP3   OH229439   4.017   0.620   0.642  0.1165  0.0281 -0.0838
 2627TIP3    H129440   4.041   0.658   0.727 -0.1456 -0.6412  0.2967
 2627TIP3    H229441   3.957   0.548   0.664 -1.5629  1.0902 -0.9437
 2628TIP3   OH229442   4.485   0.436   2.481  0.6947 -0.5350  0.0398
 2628TIP3    H129443   4.551   0.385   2.435  0.2798 -0.9016 -0.1504
 2628TIP3    H229444   4.453   0.377   2.549  0.2652 -0.5033 -0.1358
 2629TIP3   OH229445   6.077   4.619   2.309 -0.0284  0.0195  0.5879
 2629TIP3    H129446   6.052   4.676   2.236 -1.3514 -1.8491 -0.4857
 2629TIP3    H229447   5.993   4.591   2.347  0.5866 -1.4000  0.9378
 2630TIP3   OH229448   1.953   5.821   2.880 -0.0725 -0.1693  0.1197
 2630TIP3    H129449   2.008   5.781   2.813 -0.4391  0.5400 -0.6103
 2630TIP3    H229450   1.865   5.792   2.860 -0.6030  2.2749 -1.4320
 2631TIP3   OH229451   2.671   6.716   1.335 -0.6704 -0.1295  0.0484
 2631TIP3    H129452   2.597   6.670   1.294 -1.4903  0.2950  1.0058
 2631TIP3    H229453   2.700   6.656   1.405 -0.0299 -0.3427 -0.3933
 2632TIP3   OH229454   5.028   6.748   7.901 -0.0718  0.4166  0.7461
 2632TIP3    H129455   4.965   6.710   7.841 -0.1465  1.4033  0.1769
 2632TIP3    H229456   5.017   6.698   7.982 -0.5387 -0.3894  0.1988
 2633TIP3   OH229457   5.601   3.240   2.786  0.1836 -0.7013  0.3792
 2633TIP3    H129458   5.627   3.324   2.749 -1.4656 -1.1686 -2.0679
 2633TIP3    H229459   5.543   3.263   2.859 -1.2789  0.3682 -1.0314
 2634TIP3   OH229460   0.488   4.021   8.537 -0.3627  0.2671  0.4074
 2634TIP3    H129461   0.505   3.947   8.596 -0.4224 -0.0975 -0.0335
 2634TIP3    H229462   0.399   4.009   8.507  0.2134 -0.4860 -1.0807
 2635TIP3   OH229463   1.798   4.742   7.554  0.4002 -0.1860  0.4008
 2635TIP3    H129464   1.782   4.756   7.648 -2.0668  0.1256 -0.0227
 2635TIP3    H229465   1.773   4.651   7.540 -1.3754  0.3807 -0.3338
 2636TIP3   OH229466   1.551   2.593   1.612 -0.1487 -0.1256 -0.5355
 2636TIP3    H129467   1.627   2.582   1.555 -0.0943 -0.6042 -0.3734
 2636TIP3    H229468   1.566   2.534   1.685  1.7000  3.2373  2.0780
 2637TIP3   OH229469   5.778   4.265   1.904 -0.5494  0.7741  0.1929
 2637TIP3    H129470   5.699   4.275   1.957  0.0957  1.4395  1.0689
 2637TIP3    H229471   5.813   4.354   1.895 -0.4517  0.6250 -1.0718
 2638TIP3   OH229472   2.850   2.284   1.098 -0.4833  0.6058 -1.0924
 2638TIP3    H129473   2.838   2.201   1.050  1.4374  0.6090 -1.6498
 2638TIP3    H229474   2.912   2.262   1.168  0.9918  1.8064 -1.9782
 2639TIP3   OH229475   3.071   3.062   2.115  0.1373  0.1833 -0.0263
 2639TIP3    H129476   3.090   3.032   2.204  0.7988 -0.1765 -0.2807
 2639TIP3    H229477   3.129   3.138   2.102  0.3881 -0.0498 -0.3060
 2640TIP3   OH229478   0.075   6.286   1.117 -0.8025  0.1199  0.2003
 2640TIP3    H129479  -0.002   6.242   1.155 -0.6198  0.6641  1.2266
 2640TIP3    H229480   0.103   6.227   1.047 -3.1156  0.6809 -1.3295
 2641TIP3   OH229481   5.034   0.462   3.006 -0.0699  0.5300  0.2809
 2641TIP3    H129482   5.055   0.387   3.062  0.1919  0.7998  0.5494
 2641TIP3    H229483   4.995   0.424   2.927 -1.8009  0.2077  1.2437
 2642TIP3   OH229484   1.126   4.254   1.434 -0.2561 -0.9821 -0.0551
 2642TIP3    H129485   1.060   4.307   1.478  0.4185 -0.5741  0.4748
 2642TIP3    H229486   1.097   4.164   1.448  0.5241 -0.9431  2.2453
 2643TIP3   OH229487   6.019   4.215   8.540 -0.1259 -0.1482 -0.1762
 2643TIP3    H129488   5.931   4.213   8.502 -0.6833 -0.1677  1.0664
 2643TIP3    H229489   6.046   4.123   8.544  0.0265 -0.1306 -0.7009
 2644TIP3   OH229490   0.282   5.772   0.527  0.3511 -0.4120 -0.1343
 2644TIP3    H129491   0.345   5.762   0.599 -0.4204 -1.5428  0.4163
 2644TIP3    H229492   0.328   5.739   0.450  1.5204  1.6620 -0.3934
 2645TIP3   OH229493   4.290   1.842   8.506  0.4411  0.4590 -0.0943
 2645TIP3    H129494   4.347   1.916   8.525 -0.3694  0.6792  1.6082
 2645TIP3    H229495   4.238   1.871   8.431  2.1906  0.4204 -1.4003
 2646TIP3   OH229496   0.097   1.794   2.108 -0.6790  0.0533 -0.0720
 2646TIP3    H129497   0.177   1.745   2.088 -2.2303 -2.0368 -1.5974
 2646TIP3    H229498   0.033   1.763   2.044 -2.4541  2.4307  0.4022
 2647TIP3   OH229499   5.261   5.280   2.589  0.1606 -0.5444  0.3808
 2647TIP3    H129500   5.303   5.349   2.536  0.9985 -0.8034  0.6942
 2647TIP3    H229501   5.237   5.324   2.670 -1.7396  0.0249 -0.4294
 2648TIP3   OH229502   6.258   4.343   8.722 -0.6795 -0.7435  0.3990
 2648TIP3    H129503   6.307   4.425   8.715 -1.2992 -0.3381  0.7095
 2648TIP3    H229504   6.323   4.278   8.749  0.3662 -0.9058 -2.2230
 2649TIP3   OH229505   3.823   2.266   1.740 -0.1451  0.2081 -0.1785
 2649TIP3    H129506   3.918   2.266   1.746 -0.0690  1.7014 -0.7702
 2649TIP3    H229507   3.803   2.341   1.683 -1.6547 -0.2667 -0.3194
 2650TIP3   OH229508   0.379   2.929   2.818 -0.7301 -0.5801 -0.2601
 2650TIP3    H129509   0.414   2.986   2.887 -1.9574  0.3054 -0.3446
 2650TIP3    H229510   0.441   2.856   2.814  2.4031  1.9227 -1.8895
 2651TIP3   OH229511   5.288   3.728   2.790  0.4039 -0.2320 -0.2477
 2651TIP3    H129512   5.238   3.783   2.850  0.1236 -0.9102  0.1552
 2651TIP3    H229513   5.347   3.678   2.846  1.0903  0.0987 -0.6647
 2652TIP3   OH229514   4.457   0.288   0.578 -0.3688  0.1689 -0.3754
 2652TIP3    H129515   4.452   0.216   0.515 -1.6782 -0.9964  0.9944
 2652TIP3    H229516   4.369   0.325   0.579  0.4644  2.3844 -1.6433
 2653TIP3   OH229517   6.147   4.312   1.393  0.0869 -0.0522 -0.5253
 2653TIP3    H129518   6.171   4.246   1.328  1.6634 -0.0468 -0.0033
 2653TIP3    H229519   6.222   4.371   1.395 -0.6654  0.9052  0.0904
 2654TIP3   OH229520   6.515   5.661   1.375  0.0035 -0.9047 -0.3075
 2654TIP3    H129521   6.608   5.659   1.353  0.1463  1.6009 -0.2167
 2654TIP3    H229522   6.509   5.711   1.456 -1.5106  0.5085 -1.2046
 2655TIP3   OH229523   4.619   2.447   0.127 -0.3234 -0.3342 -0.2394
 2655TIP3    H129524   4.552   2.440   0.195 -2.3839 -0.0958 -2.1621
 2655TIP3    H229525   4.586   2.394   0.055 -0.4930  2.9366 -2.7897
 2656TIP3   OH229526   0.970   4.139   0.116 -0.1161  0.1029 -0.1635
 2656TIP3    H129527   0.935   4.130   0.028  0.0914  2.2920 -0.5358
 2656TIP3    H229528   0.916   4.081   0.170 -0.6746 -0.7535 -1.6063
 2657TIP3   OH229529   1.955   1.755   0.850  0.2151 -0.4070 -0.7324
 2657TIP3    H129530   2.005   1.806   0.787 -0.6090  1.1855 -0.1669
 2657TIP3    H229531   1.997   1.774   0.934  0.3490 -1.2775 -0.5900
 2658TIP3   OH229532   3.667   2.716   2.391 -0.0206 -0.2389  0.2608
 2658TIP3    H129533   3.638   2.757   2.472  1.4276 -1.3491  1.3962
 2658TIP3    H229534   3.763   2.720   2.395  0.0883 -0.0377 -1.5603
 2659TIP3   OH229535   2.614   3.104   3.379 -0.4266 -0.0808  0.5587
 2659TIP3    H129536   2.672   3.035   3.412 -0.1201  0.1500  0.5084
 2659TIP3    H229537   2.633   3.108   3.285 -1.4183 -0.8525  0.3182
 2660TIP3   OH229538   1.322   4.807   2.751 -0.6216 -0.0803 -0.6070
 2660TIP3    H129539   1.276   4.865   2.811  0.5404 -0.1949  0.4150
 2660TIP3    H229540   1.358   4.865   2.684  1.8255  0.6325  1.2180
 2661TIP3   OH229541   4.600   0.959   0.012 -0.5869  0.1567 -0.5608
 2661TIP3    H129542   4.674   1.018  -0.004 -0.2866  1.0203  3.1869
 2661TIP3    H229543   4.523   1.011  -0.010 -0.2022  0.3180 -1.5833
 2662TIP3   OH229544   6.045   3.505   3.169 -0.6705  0.2284  0.0404
 2662TIP3    H129545   6.096   3.526   3.091  0.6416 -0.3196  0.7307
 2662TIP3    H229546   6.109   3.471   3.232 -1.7332  0.4726  1.2913
 2663TIP3   OH229547   0.011   6.426   0.875  0.0883 -0.2445  0.3288
 2663TIP3    H129548   0.076   6.458   0.813 -1.1525 -0.2901 -1.0699
 2663TIP3    H229549  -0.051   6.376   0.821 -0.2544 -1.5457  1.8279
 2664TIP3   OH229550   5.071   4.209   3.041  0.5796  0.1595  0.2598
 2664TIP3    H129551   5.146   4.169   3.084  0.1131 -0.0989  0.8490
 2664TIP3    H229552   5.080   4.303   3.057 -0.1644 -0.0228  1.8717
 2665TIP3   OH229553   4.578   3.459   7.994 -0.1868  0.5804 -0.2555
 2665TIP3    H129554   4.520   3.439   8.068  0.5190 -0.6203  0.0030
 2665TIP3    H229555   4.525   3.514   7.936 -2.0425 -1.4499 -0.6380
 2666TIP3   OH229556   2.444   4.836   0.767  0.2748 -0.3424  0.1368
 2666TIP3    H129557   2.446   4.790   0.683 -1.5464  0.5772 -0.4586
 2666TIP3    H229558   2.533   4.826   0.801  0.1951 -3.5800 -0.2843
 2667TIP3   OH229559   3.080   0.341   1.786  0.2633 -0.2775 -0.2665
 2667TIP3    H129560   3.020   0.301   1.723  0.2757 -0.1007 -0.3911
 2667TIP3    H229561   3.048   0.431   1.796  0.9370  0.0473 -0.8935
 2668TIP3   OH229562   4.331   5.125   8.702 -0.5415  0.2872  0.3734
 2668TIP3    H129563   4.346   5.051   8.643 -0.5523  0.9126 -0.4302
 2668TIP3    H229564   4.404   5.184   8.686 -1.4135  1.2344 -0.2514
 2669TIP3   OH229565   0.252   4.300   8.517  0.4447  0.3063 -0.2698
 2669TIP3    H129566   0.304   4.318   8.439 -0.4441 -1.1443 -1.2375
 2669TIP3    H229567   0.200   4.223   8.494 -3.2534  2.4704  0.0315
 2670TIP3   OH229568   0.179   4.571   3.974 -0.2647 -0.2073  0.6687
 2670TIP3    H129569   0.240   4.545   4.044 -0.5674 -0.1696  0.9462
 2670TIP3    H229570   0.151   4.489   3.935  0.5310 -0.2004  0.0519
 2671TIP3   OH229571   5.705   1.529   3.879 -0.1833  0.4773  0.0258
 2671TIP3    H129572   5.784   1.498   3.834 -0.3905  0.7133 -0.5029
 2671TIP3    H229573   5.727   1.617   3.909  0.2796 -0.0223  1.2140
 2672TIP3   OH229574   2.233   6.398   1.667  0.3428 -0.1327 -0.2002
 2672TIP3    H129575   2.168   6.345   1.714 -1.2134  0.7686 -1.2363
 2672TIP3    H229576   2.184   6.437   1.595  1.4230  2.6708  0.4647
 2673TIP3   OH229577   6.415   4.832   0.821  0.1950  0.7470 -0.2649
 2673TIP3    H129578   6.444   4.920   0.800  0.2722  0.2849 -2.2950
 2673TIP3    H229579   6.490   4.793   0.867  0.6003  1.3841 -0.3693
 2674TIP3   OH229580   3.153   6.070   0.577  0.7753 -0.1839  0.4023
 2674TIP3    H129581   3.205   6.144   0.546  0.6540 -0.1344  0.3143
 2674TIP3    H229582   3.098   6.046   0.502 -0.4225  0.7406  0.9589
 2675TIP3   OH229583   4.406   4.140   1.444 -0.5004 -0.0609  0.4506
 2675TIP3    H129584   4.365   4.224   1.464  0.3353  0.3051  0.6842
 2675TIP3    H229585   4.398   4.131   1.349 -2.5123 -0.7539  0.6357
 2676TIP3   OH229586   2.604   2.749   1.823 -0.2350  0.4199 -0.2561
 2676TIP3    H129587   2.532   2.788   1.874 -0.7189  1.5841 -1.7513
 2676TIP3    H229588   2.575   2.756   1.732  1.3419 -0.0268 -0.8217
 2677TIP3   OH229589   6.500   2.281   2.723 -0.3453  0.1832 -0.4969
 2677TIP3    H129590   6.540   2.196   2.743  2.2343  1.0151 -1.6292
 2677TIP3    H229591   6.556   2.345   2.768 -0.5043  1.4155 -1.9571
 2678TIP3   OH229592   6.136   3.733   0.323 -0.0282  0.3244 -0.0682
 2678TIP3    H129593   6.071   3.787   0.367 -1.4496 -1.0760 -0.3377
 2678TIP3    H229594   6.216   3.786   0.323 -0.6665  1.3736  1.8850
 2679TIP3   OH229595   4.088   1.881   0.351  0.2724 -0.0031  0.4403
 2679TIP3    H129596   3.996   1.873   0.376  0.1926  0.4915  0.3102
 2679TIP3    H229597   4.116   1.963   0.391  0.1533  0.7997 -1.0418
 2680TIP3   OH229598   4.634   0.221   2.355 -0.0520  0.5784 -0.1616
 2680TIP3    H129599   4.540   0.203   2.360 -0.3462  0.9808 -2.6886
 2680TIP3    H229600   4.666   0.164   2.285  1.8773 -0.4015  1.4021
 2681TIP3   OH229601   2.846   2.464   1.622 -0.0095 -0.1448  0.3784
 2681TIP3    H129602   2.834   2.506   1.537 -0.0944 -0.0601  0.4327
 2681TIP3    H229603   2.904   2.524   1.670 -0.8785  0.3792  0.7962
 2682TIP3   OH229604   1.742   5.879   1.119  0.4387  0.3115 -0.1126
 2682TIP3    H129605   1.714   5.880   1.027 -0.0239  0.4694  0.0236
 2682TIP3    H229606   1.663   5.903   1.167  0.1519 -1.6472  0.4666
 2683TIP3   OH229607   6.033   6.499   8.568 -0.4976  0.0997  0.4940
 2683TIP3    H129608   6.082   6.429   8.526 -1.7641  0.8930 -2.5951
 2683TIP3    H229609   6.091   6.532   8.637  1.8856 -1.1372 -0.8244
 2684TIP3   OH229610   6.353   1.179   3.871 -0.0654 -0.1651  0.3783
 2684TIP3    H129611   6.425   1.162   3.811  0.4681  1.9234  0.3391
 2684TIP3    H229612   6.362   1.112   3.940  1.4157 -0.4248 -0.0428
 2685TIP3   OH229613   0.836   4.697   1.466 -0.4000  0.2257 -0.0531
 2685TIP3    H129614   0.922   4.661   1.487 -0.1434  0.2777 -0.9756
 2685TIP3    H229615   0.786   4.622   1.432  0.1083  0.6706 -1.8976
 2686TIP3   OH229616   1.953   3.789   8.269 -0.7292 -0.0758  0.5148
 2686TIP3    H129617   1.985   3.704   8.237 -0.4571 -0.6818  2.2948
 2686TIP3    H229618   1.871   3.804   8.221 -0.6496 -1.2165 -0.0043
 2687TIP3   OH229619   4.440   6.783   1.022  0.5397  0.1424 -0.0571
 2687TIP3    H129620   4.435   6.814   1.112 -1.4471  1.1711 -0.4560
 2687TIP3    H229621   4.372   6.716   1.016 -0.1754  0.9194 -1.0586
 2688TIP3   OH229622   5.536   2.279   1.741 -1.0950 -0.1473 -0.5129
 2688TIP3    H129623   5.613   2.225   1.725 -0.0748  1.2177 -0.3645
 2688TIP3    H229624   5.488   2.232   1.810  0.9852  0.2769  1.3291
 2689TIP3   OH229625   5.945   1.111   3.910 -0.4026  0.2628  0.1620
 2689TIP3    H129626   5.853   1.138   3.912 -0.5120 -0.0892  0.0920
 2689TIP3    H229627   5.990   1.183   3.866 -0.7919  0.0427 -0.6336
 2690TIP3   OH229628   2.005   5.939   2.249 -0.3289 -0.7855  0.3725
 2690TIP3    H129629   2.095   5.942   2.215 -0.7266 -0.9882 -0.7442
 2690TIP3    H229630   2.015   5.919   2.342  0.7362 -2.0678  0.0120
 2691TIP3   OH229631   6.071   5.949   2.515  0.2470 -0.3806 -0.2764
 2691TIP3    H129632   6.077   5.871   2.459  2.5547  0.8685 -1.9393
 2691TIP3    H229633   6.107   6.020   2.461  0.3546  1.3910  1.9807
 2692TIP3   OH229634   2.811   2.403   8.019  0.7666 -0.0052 -0.7832
 2692TIP3    H129635   2.832   2.324   8.068 -1.8159  0.4386  1.2388
 2692TIP3    H229636   2.894   2.427   7.976  2.7303 -1.4548  1.8664
 2693TIP3   OH229637   1.411   4.839   2.087 -0.6894 -0.5865 -0.1575
 2693TIP3    H129638   1.366   4.923   2.095  0.3269 -0.0782  0.3301
 2693TIP3    H229639   1.351   4.785   2.036 -1.5422  0.2960 -0.1182
 2694TIP3   OH229640   3.915   2.827   8.218  0.0336 -0.0049  0.1047
 2694TIP3    H129641   3.971   2.890   8.174  1.0185 -0.4433  0.6782
 2694TIP3    H229642   3.939   2.743   8.180 -1.4115 -0.0380 -0.7976
 2695TIP3   OH229643   3.014   1.315   1.239 -0.0691 -0.1701  0.4657
 2695TIP3    H129644   2.930   1.315   1.286 -1.9190 -0.7976 -2.5920
 2695TIP3    H229645   3.054   1.232   1.263  0.2632  0.5678  2.7538
 2696TIP3   OH229646   2.825   4.606   8.008  0.1943  0.1331  0.1532
 2696TIP3    H129647   2.910   4.648   7.995 -1.1089  2.4504 -1.5727
 2696TIP3    H229648   2.807   4.617   8.101  1.4328  0.2624  0.3960
 2697TIP3   OH229649   0.880   4.132   1.142 -0.1529  0.3202  0.1187
 2697TIP3    H129650   0.867   4.074   1.217 -1.6971  2.4662  1.6533
 2697TIP3    H229651   0.932   4.080   1.080 -2.0006 -2.8982  1.0342
 2698TIP3   OH229652   5.333   3.002   2.065 -0.5954  0.1289  0.4137
 2698TIP3    H129653   5.395   3.059   2.111  2.5502 -0.7021 -2.3524
 2698TIP3    H229654   5.289   2.953   2.135  1.8670  0.8194  2.6235
 2699TIP3   OH229655   5.244   0.818   0.920  0.1110  0.0671 -0.0666
 2699TIP3    H129656   5.169   0.868   0.887  0.9841  2.3209  1.1817
 2699TIP3    H229657   5.206   0.738   0.955 -1.5487  0.5388 -0.7044
 2700TIP3   OH229658   1.300   1.493   0.786  0.2879 -0.0383  0.1084
 2700TIP3    H129659   1.262   1.579   0.805  0.6445  0.2484 -0.4646
 2700TIP3    H229660   1.237   1.451   0.728 -1.4400 -1.4178  2.7690
 2701TIP3   OH229661   5.086   1.241   7.885 -0.6832 -0.2141 -0.0150
 2701TIP3    H129662   5.046   1.289   7.812 -0.4095 -0.9008 -0.6269
 2701TIP3    H229663   5.040   1.157   7.886  2.3867 -2.1613 -2.4697
 2702TIP3   OH229664   4.369   1.175   1.917  0.1620 -0.0112  0.1938
 2702TIP3    H129665   4.433   1.244   1.934 -0.3035  0.3432  0.5780
 2702TIP3    H229666   4.314   1.211   1.847 -2.0743  1.4572  2.4930
 2703TIP3   OH229667   3.250   3.252   2.091 -0.4999 -0.1834  0.4846
 2703TIP3    H129668   3.339   3.221   2.104  0.9978  4.2214  2.6252
 2703TIP3    H229669   3.249   3.288   2.002 -0.3451 -0.7388  0.2578
 2704TIP3   OH229670   0.785   4.063   8.624 -0.7204  0.1154  0.1065
 2704TIP3    H129671   0.738   4.061   8.541  0.6074  2.3267 -0.7855
 2704TIP3    H229672   0.724   4.106   8.685 -1.3092 -0.6168  0.0614
 2705TIP3   OH229673   0.670   3.005   7.949  0.2171  0.5047 -0.8215
 2705TIP3    H129674   0.709   3.090   7.929 -0.2403  0.3818 -2.4241
 2705TIP3    H229675   0.587   3.026   7.992  0.6500  0.8236 -0.1208
 2706TIP3   OH229676   6.808   6.016   3.447  0.2439  0.1708  0.2270
 2706TIP3    H129677   6.714   6.003   3.440  0.4790 -1.5933 -0.2585
 2706TIP3    H229678   6.826   6.092   3.392 -0.7594 -0.1730 -0.6198
 2707TIP3   OH229679   4.732   0.070   2.164  0.3134  0.0685  0.6553
 2707TIP3    H129680   4.710  -0.011   2.117 -3.9083  1.9263 -1.0970
 2707TIP3    H229681   4.785   0.120   2.102 -0.4376  0.2171  0.1240
 2708TIP3   OH229682   4.530   6.378   1.250 -0.1112 -0.3791  0.3798
 2708TIP3    H129683   4.487   6.423   1.178 -0.1484  0.1228  0.7114
 2708TIP3    H229684   4.555   6.447   1.311 -1.8746 -0.9150  1.8208
 2709TIP3   OH229685   3.944   5.437   1.506 -0.3962 -0.5773 -0.5278
 2709TIP3    H129686   3.889   5.447   1.427 -0.1738  0.8591 -0.5275
 2709TIP3    H229687   3.971   5.526   1.527  2.5093 -1.2796 -0.9066
 2710TIP3   OH229688   4.540   3.866   1.417 -0.1196  0.1496 -0.0919
 2710TIP3    H129689   4.540   3.901   1.328  0.3621  0.3491 -0.0166
 2710TIP3    H229690   4.561   3.773   1.407 -1.2496 -0.1041 -0.2801
 2711TIP3   OH229691   1.803   4.577   8.508 -0.3429  0.1352 -0.0702
 2711TIP3    H129692   1.780   4.632   8.433 -0.5428  0.2095  0.0428
 2711TIP3    H229693   1.763   4.492   8.489  1.7596 -0.6545 -1.2657
 2712TIP3   OH229694   0.000   4.451   2.008  0.6302 -0.3026  0.1291
 2712TIP3    H129695  -0.043   4.488   2.084  0.0709 -0.4716 -0.1011
 2712TIP3    H229696   0.092   4.474   2.019  0.0256  3.6246 -1.3683
 2713TIP3   OH229697   6.724   1.542   0.364 -0.0568  0.3313 -0.1219
 2713TIP3    H129698   6.754   1.493   0.287 -0.8701  1.8522 -1.4623
 2713TIP3    H229699   6.699   1.627   0.329 -0.7616  0.9456  1.8060
 2714TIP3   OH229700   4.892   1.929   0.001 -0.6710 -0.1333 -0.1201
 2714TIP3    H129701   4.886   1.856  -0.061  0.3606  0.3507 -0.8168
 2714TIP3    H229702   4.919   1.888   0.083  1.8955 -0.3561 -0.9988
 2715TIP3   OH229703   1.783   5.152   1.118  0.4007 -0.5549 -0.3098
 2715TIP3    H129704   1.754   5.231   1.163 -1.0468 -0.9395 -0.5173
 2715TIP3    H229705   1.854   5.181   1.062 -0.7237  0.8148 -1.0919
 2716TIP3   OH229706   0.139   4.194   8.116  0.0239 -0.3681 -0.6876
 2716TIP3    H129707   0.116   4.189   8.023  1.1867 -1.0378 -0.9571
 2716TIP3    H229708   0.232   4.169   8.120  0.4201  1.0957  0.4811
 2717TIP3   OH229709   0.450   5.481   1.486  0.0505  0.0053 -0.3906
 2717TIP3    H129710   0.405   5.541   1.427 -0.7279 -0.2758 -0.0934
 2717TIP3    H229711   0.433   5.394   1.449 -1.1276 -0.2436  0.6658
 2718TIP3   OH229712   4.420   5.123   7.571  0.1438  0.1992  0.0289
 2718TIP3    H129713   4.474   5.055   7.531 -1.9757 -1.8147  0.3826
 2718TIP3    H229714   4.376   5.165   7.497 -0.0995 -0.2444 -0.0849
 2719TIP3   OH229715   4.607   3.994   2.043  0.4841  0.3448 -0.0565
 2719TIP3    H129716   4.683   4.052   2.050 -0.8463  2.3922 -1.4898
 2719TIP3    H229717   4.582   3.976   2.133  1.2898  1.5343  0.4308
 2720TIP3   OH229718   3.312   6.506   1.705  0.6330 -0.1191 -0.3697
 2720TIP3    H129719   3.313   6.541   1.794 -2.8501  0.8713 -0.5888
 2720TIP3    H229720   3.334   6.413   1.716  1.0033  0.1350  1.3857
 2721TIP3   OH229721   2.802   6.760   2.944 -0.5704 -0.2072  0.1100
 2721TIP3    H129722   2.876   6.801   2.988 -1.1286  2.4436 -1.2262
 2721TIP3    H229723   2.725   6.795   2.990 -1.0650  0.0004 -0.8519
 2722TIP3   OH229724   2.694   1.668   8.246  0.0683  0.2874 -0.2554
 2722TIP3    H129725   2.753   1.719   8.191 -0.1165  0.4271 -0.3253
 2722TIP3    H229726   2.717   1.576   8.228 -0.9223  0.2767 -1.6278
 2723TIP3   OH229727   3.936   5.164   8.625  0.3929  0.2508  0.3148
 2723TIP3    H129728   3.968   5.233   8.682  1.1401  0.0681  0.1272
 2723TIP3    H229729   3.957   5.083   8.670 -0.8054  0.1302  0.7039
 2724TIP3   OH229730   3.609   2.070   2.048  0.3076  0.0926  0.2575
 2724TIP3    H129731   3.599   2.164   2.059  1.4590  0.0574  2.1640
 2724TIP3    H229732   3.684   2.061   1.989 -0.2733  0.3528 -0.5316
 2725TIP3   OH229733   6.557   3.694   0.578 -0.0188 -0.0441 -0.7648
 2725TIP3    H129734   6.573   3.601   0.565 -0.2537 -0.0850 -0.7598
 2725TIP3    H229735   6.615   3.737   0.515 -0.4418 -0.2145 -1.2750
 2726TIP3   OH229736   4.861   1.060   0.011  0.1818  0.0694  0.3802
 2726TIP3    H129737   4.862   1.058   0.107  1.7678  0.3385  0.4003
 2726TIP3    H229738   4.933   1.002  -0.015  0.2335  0.5648 -0.6181
 2727TIP3   OH229739   2.009   4.842   1.248 -0.3107  0.4754 -0.1139
 2727TIP3    H129740   2.050   4.778   1.305 -0.3774  1.2173  0.8046
 2727TIP3    H229741   1.936   4.877   1.300 -0.2052  1.3673 -0.5420
 2728TIP3   OH229742   1.046   4.660   1.657 -0.2790 -0.5148 -0.0331
 2728TIP3    H129743   1.141   4.660   1.669 -0.2413 -1.3751 -0.2562
 2728TIP3    H229744   1.023   4.752   1.650  0.3509 -0.2186  1.4435
 2729TIP3   OH229745   3.041   4.049   1.289 -0.6399 -0.2854 -0.2343
 2729TIP3    H129746   3.012   4.136   1.261 -3.1188 -1.1026 -0.4159
 2729TIP3    H229747   2.995   3.989   1.231  0.0699 -1.7644  0.6941
 2730TIP3   OH229748   4.854   1.057   2.284 -0.3696 -0.6369 -0.3415
 2730TIP3    H129749   4.928   1.047   2.225 -0.1855 -2.9414  0.1904
 2730TIP3    H229750   4.879   1.008   2.363 -1.7472  0.0056  0.5402
 2731TIP3   OH229751   2.387   4.263   3.194 -0.3941  0.2103  0.1462
 2731TIP3    H129752   2.395   4.335   3.132  0.3669  0.3980  0.4650
 2731TIP3    H229753   2.447   4.196   3.161 -0.6175 -0.0269  0.2139
 2732TIP3   OH229754   5.618   6.254   3.610 -0.0285  0.2432  0.3398
 2732TIP3    H129755   5.603   6.335   3.658 -0.4876  1.2822 -1.4981
 2732TIP3    H229756   5.532   6.227   3.578  0.3496 -0.1093 -0.4102
 2733TIP3   OH229757   1.103   6.776   3.270  0.2559 -0.1907 -0.2903
 2733TIP3    H129758   1.098   6.850   3.331 -1.7845 -1.7930  1.7169
 2733TIP3    H229759   1.027   6.787   3.213 -0.0268 -0.6956 -0.0155
 2734TIP3   OH229760   2.273   6.278   2.606  0.7048 -0.6160 -0.0891
 2734TIP3    H129761   2.213   6.207   2.626  1.2908 -0.9964  0.3599
 2734TIP3    H229762   2.242   6.351   2.659  2.0401 -1.5207  2.1015
 2735TIP3   OH229763   0.501   5.804   0.715  0.4498 -0.2491 -0.0522
 2735TIP3    H129764   0.575   5.861   0.695 -0.9368  1.6233 -0.0777
 2735TIP3    H229765   0.516   5.777   0.806 -0.2339  2.4772  0.9580
 2736TIP3   OH229766   3.077   5.685   1.531 -1.1697  0.2160 -0.3563
 2736TIP3    H129767   3.063   5.747   1.460 -1.2040 -0.5545 -1.0395
 2736TIP3    H229768   3.110   5.738   1.603  0.6882  0.7446 -1.5437
 2737TIP3   OH229769   2.942   3.643   0.661  0.1384 -0.4154  0.3327
 2737TIP3    H129770   2.925   3.596   0.742  0.7248 -1.5341 -0.1750
 2737TIP3    H229771   3.034   3.628   0.642  0.6076  1.7211  0.6147
 2738TIP3   OH229772   6.734   6.457   0.276 -0.0325  0.6318  0.5003
 2738TIP3    H129773   6.668   6.395   0.305  0.4537  0.1921  0.6772
 2738TIP3    H229774   6.762   6.502   0.356  2.5430 -1.7675  1.0849
 2739TIP3   OH229775   6.440   0.828   2.982 -0.0499  0.2388  0.8494
 2739TIP3    H129776   6.348   0.815   2.960  0.3590 -1.6592  0.0235
 2739TIP3    H229777   6.483   0.843   2.897  0.4338  0.8660  1.1999
 2740TIP3   OH229778   4.450   3.878   2.640 -0.3458 -0.0970  0.0661
 2740TIP3    H129779   4.483   3.867   2.551 -1.4505  0.7162 -0.4695
 2740TIP3    H229780   4.528   3.897   2.692  0.0911  1.7265 -1.1395
 2741TIP3   OH229781   4.913   1.696   0.440 -0.4711 -0.2694 -0.2374
 2741TIP3    H129782   4.877   1.614   0.476  1.0225 -1.3746 -1.1427
 2741TIP3    H229783   4.960   1.735   0.513  0.4057 -1.2072 -0.2736
 2742TIP3   OH229784   2.515   6.472   3.760 -0.5079 -0.1597  0.1931
 2742TIP3    H129785   2.460   6.545   3.729  0.0437  0.5693  0.8875
 2742TIP3    H229786   2.453   6.409   3.796 -0.9425  0.3286  0.3086
 2743TIP3   OH229787   6.798   2.143   3.138 -0.0246 -0.3276  0.5679
 2743TIP3    H129788   6.847   2.141   3.056  0.3072  1.3218  0.6911
 2743TIP3    H229789   6.746   2.062   3.138 -0.3525 -0.1457 -1.4621
 2744TIP3   OH229790   6.558   0.806   0.742 -0.4350  0.0946 -0.1242
 2744TIP3    H129791   6.650   0.819   0.765 -0.0119 -2.2530 -0.2636
 2744TIP3    H229792   6.510   0.861   0.804  0.9499 -1.1853  2.2391
 2745TIP3   OH229793   3.586   1.787   0.772  0.7946  0.0514  0.2633
 2745TIP3    H129794   3.522   1.837   0.822  0.2098 -0.2600 -0.1567
 2745TIP3    H229795   3.540   1.706   0.750  1.7841 -0.7603  1.0854
 2746TIP3   OH229796   1.614   2.905   2.894  0.3172  0.2323 -0.8515
 2746TIP3    H129797   1.551   2.837   2.919  0.5224  0.3400 -0.0157
 2746TIP3    H229798   1.681   2.858   2.843 -0.8746  0.2682 -2.5537
 2747TIP3   OH229799   0.061   3.328   0.134  0.2024 -0.8789  0.0535
 2747TIP3    H129800  -0.021   3.312   0.181  0.7320 -0.1653  1.2530
 2747TIP3    H229801   0.114   3.380   0.195  1.7664 -1.8019 -0.4671
 2748TIP3   OH229802   3.870   0.403   3.209  0.3654 -0.4932  0.3774
 2748TIP3    H129803   3.895   0.408   3.301  0.3220 -0.5954  0.3951
 2748TIP3    H229804   3.947   0.364   3.165  0.1974 -0.9148  0.4495
 2749TIP3   OH229805   5.014   3.791   1.465  0.0717 -0.1053 -0.0907
 2749TIP3    H129806   4.952   3.750   1.405 -0.5851 -0.6511  0.9208
 2749TIP3    H229807   5.086   3.728   1.471  0.4820  0.2826 -0.8519
 2750TIP3   OH229808   1.001   6.107   1.120 -0.2754  0.1879 -0.0762
 2750TIP3    H129809   1.090   6.085   1.148  0.1271  1.2791 -0.4513
 2750TIP3    H229810   1.002   6.202   1.110 -1.7844  0.3551  0.9531
 2751TIP3   OH229811   1.718   4.792   3.594  0.1785 -0.4170 -0.0597
 2751TIP3    H129812   1.657   4.742   3.540 -2.3183  0.4210  1.7446
 2751TIP3    H229813   1.744   4.732   3.663 -0.3810 -0.1729  0.3785
 2752TIP3   OH229814   5.842   1.497   0.762 -0.1814  0.3542  0.2802
 2752TIP3    H129815   5.891   1.520   0.683  1.7648 -0.7309  1.1071
 2752TIP3    H229816   5.750   1.504   0.735  0.3376  2.7299 -1.2693
 2753TIP3   OH229817   1.959   3.318   3.532  0.2763 -0.6379  0.0751
 2753TIP3    H129818   1.953   3.225   3.514 -1.4852 -0.6745  0.6356
 2753TIP3    H229819   1.957   3.325   3.628  0.4102 -0.0277  0.0422
 2754TIP3   OH229820   6.484   2.755   0.494  0.2546  0.2244 -0.2492
 2754TIP3    H129821   6.447   2.703   0.565 -2.0751  0.6527 -1.0749
 2754TIP3    H229822   6.447   2.842   0.505  0.4789  0.5036 -1.5380
 2755TIP3   OH229823   3.633   4.571   0.142  0.3137 -0.2258 -0.9475
 2755TIP3    H129824   3.644   4.662   0.112 -2.1644 -0.0628 -1.6244
 2755TIP3    H229825   3.579   4.579   0.221  1.7576 -1.0296  0.1588
 2756TIP3   OH229826   4.989   0.682   1.681  0.0715  0.1176  0.4430
 2756TIP3    H129827   5.005   0.758   1.625  0.6632  1.4172  2.2705
 2756TIP3    H229828   4.894   0.671   1.681  0.0836 -0.1961 -1.1316
 2757TIP3   OH229829   0.246   2.091   8.043 -0.1394  0.5195  0.2737
 2757TIP3    H129830   0.289   2.096   8.128  0.2724 -0.4444  0.1376
 2757TIP3    H229831   0.307   2.042   7.988 -0.3845  1.1556 -0.5986
 2758TIP3   OH229832   5.475   1.024   1.467 -0.0374  0.5642  0.0703
 2758TIP3    H129833   5.465   0.929   1.472 -0.8800  0.7081  2.3440
 2758TIP3    H229834   5.511   1.050   1.552 -1.1002  2.4013  0.0311
 2759TIP3   OH229835   3.218   2.093   0.319 -0.0978 -0.3501  0.3741
 2759TIP3    H129836   3.160   2.067   0.391 -1.6794  0.0960 -0.6818
 2759TIP3    H229837   3.186   2.042   0.244  1.4303 -0.7061 -0.0662
 2760TIP3   OH229838   0.378   0.957   1.123 -0.0342  1.2146 -0.0659
 2760TIP3    H129839   0.387   0.907   1.042  1.6602  0.3940  0.5821
 2760TIP3    H229840   0.288   0.940   1.152  0.5268 -1.6526  0.2226
 2761TIP3   OH229841   1.897   6.191   2.337  0.2294 -0.3961  0.0479
 2761TIP3    H129842   1.888   6.157   2.248 -1.5164 -0.3135  0.1621
 2761TIP3    H229843   1.988   6.174   2.360  0.4317 -1.3818 -1.3552
 2762TIP3   OH229844   2.562   4.050   3.088 -0.3439 -0.1261 -0.3373
 2762TIP3    H129845   2.506   3.996   3.144  0.4320 -0.4740  0.1021
 2762TIP3    H229846   2.592   3.991   3.019  4.6702 -1.8983  2.8227
 2763TIP3   OH229847   5.393   1.071   0.488  0.4010  0.3368  1.0147
 2763TIP3    H129848   5.416   1.072   0.581  0.1205 -1.1883  1.1253
 2763TIP3    H229849   5.298   1.085   0.487  0.5161  1.1810  0.8879
 2764TIP3   OH229850   4.988   3.909   0.420  0.2612 -0.2426 -0.5500
 2764TIP3    H129851   5.018   3.985   0.371  0.5986  0.1771  0.2839
 2764TIP3    H229852   5.028   3.834   0.375  1.1934  0.1888 -0.4740
 2765TIP3   OH229853   6.523   6.143   1.863 -0.2603 -0.2108 -0.4355
 2765TIP3    H129854   6.459   6.072   1.856  0.6160 -1.5591  3.1502
 2765TIP3    H229855   6.605   6.104   1.833 -0.0767 -0.2142  0.0696
 2766TIP3   OH229856   4.513   6.301   2.689  1.0327 -0.1391 -0.0898
 2766TIP3    H129857   4.482   6.220   2.649  3.7801 -1.4020  0.1093
 2766TIP3    H229858   4.514   6.364   2.617  2.9189 -1.5248 -1.4061
 2767TIP3   OH229859   1.869   5.927   1.621 -0.0593 -0.1699 -0.8150
 2767TIP3    H129860   1.884   5.982   1.544 -2.9811 -1.1624 -2.2189
 2767TIP3    H229861   1.774   5.915   1.625  0.1069 -1.5292  2.0188
 2768TIP3   OH229862   4.018   0.666   8.557 -0.7152  0.5394  0.5198
 2768TIP3    H129863   4.062   0.685   8.474  0.1737 -0.8757  0.6408
 2768TIP3    H229864   3.977   0.581   8.543 -0.4042  0.2021  1.5914
 2769TIP3   OH229865   1.077   1.910   2.556  0.4276 -0.1048  0.3717
 2769TIP3    H129866   0.995   1.920   2.603  0.2198 -0.4481  0.0830
 2769TIP3    H229867   1.093   1.996   2.517  0.1078 -0.0883  0.2729
 2770TIP3   OH229868   2.340   3.785   1.218  0.2816  0.1819  0.0382
 2770TIP3    H129869   2.256   3.787   1.172  0.3755  0.4373 -0.1269
 2770TIP3    H229870   2.349   3.695   1.248  0.1247  0.0605 -0.2727
 2771TIP3   OH229871   5.749   4.189   8.420 -0.2153 -0.0956  0.0376
 2771TIP3    H129872   5.677   4.222   8.473  1.2401  1.7363  0.9845
 2771TIP3    H229873   5.745   4.240   8.339  1.5554  2.0502  1.1840
 2772TIP3   OH229874   5.919   0.720   0.956  0.1267  0.2559  0.1179
 2772TIP3    H129875   5.878   0.640   0.923  1.0830 -0.1522 -0.1163
 2772TIP3    H229876   5.853   0.759   1.012  0.1498 -1.4695  1.4348
 2773TIP3   OH229877   3.573   5.277   1.600 -0.6464 -0.4741  0.1431
 2773TIP3    H129878   3.533   5.192   1.581 -0.8867 -0.4912  0.6784
 2773TIP3    H229879   3.661   5.256   1.632  0.2924 -0.3708 -2.2295
 2774TIP3   OH229880   5.825   1.263   0.940  0.2860 -0.0460 -0.3109
 2774TIP3    H129881   5.744   1.212   0.939  0.3618 -0.2094  0.8650
 2774TIP3    H229882   5.799   1.351   0.912 -0.1913 -0.2318 -0.4591
 2775TIP3   OH229883   4.327   6.071   2.747  0.5579  0.1339  0.2221
 2775TIP3    H129884   4.338   6.112   2.832 -0.2350  0.5245  0.1529
 2775TIP3    H229885   4.335   5.977   2.764 -0.6087  0.1348  0.9239
 2776TIP3   OH229886   4.269   0.576   2.371  0.1501 -1.1438 -0.1061
 2776TIP3    H129887   4.347   0.531   2.405 -0.8366 -2.2435  0.7721
 2776TIP3    H229888   4.237   0.519   2.302 -0.0708 -0.8580 -0.2417
 2777TIP3   OH229889   2.092   2.787   1.203  0.4655 -0.0206 -0.0252
 2777TIP3    H129890   2.169   2.767   1.256  1.9945  2.2009 -1.2120
 2777TIP3    H229891   2.022   2.800   1.266  1.1630 -1.5787  1.1298
 2778TIP3   OH229892   4.155   2.028   2.400  0.3197 -0.2022  0.1353
 2778TIP3    H129893   4.142   2.043   2.306 -0.0740 -2.0600 -0.1382
 2778TIP3    H229894   4.081   2.072   2.441  0.0897 -0.0011 -0.4766
 2779TIP3   OH229895   6.360   1.868   3.658  0.6188  0.3695 -0.2210
 2779TIP3    H129896   6.428   1.861   3.724 -0.4141  0.6015  0.8991
 2779TIP3    H229897   6.310   1.946   3.682 -0.3007 -0.0356 -0.7644
 2780TIP3   OH229898   1.724   2.512   0.429 -0.5384  0.1809 -0.4104
 2780TIP3    H129899   1.808   2.471   0.448 -0.0475  0.1561 -2.3656
 2780TIP3    H229900   1.661   2.465   0.484  0.6273 -0.2365  0.6045
 2781TIP3   OH229901   1.797   6.003   3.137 -0.1676 -0.0261  0.1572
 2781TIP3    H129902   1.728   6.058   3.100 -0.4469 -0.4924 -0.0237
 2781TIP3    H229903   1.756   5.962   3.213 -0.4037 -1.0531 -0.5082
 2782TIP3   OH229904   2.762   0.544   8.402  0.2612 -0.5452 -0.2190
 2782TIP3    H129905   2.674   0.580   8.386  0.1776 -0.3035  0.7369
 2782TIP3    H229906   2.812   0.617   8.438  0.3879 -1.1061  0.7594
 2783TIP3   OH229907   0.133   3.289   2.530 -0.3657 -0.0049 -0.4656
 2783TIP3    H129908   0.133   3.248   2.444 -2.6929 -0.5243 -0.2741
 2783TIP3    H229909   0.212   3.255   2.573 -0.9662 -2.4836 -1.1635
 2784TIP3   OH229910   3.266   6.813   0.312 -0.4865  0.2382 -0.4706
 2784TIP3    H129911   3.277   6.897   0.267 -1.0102 -0.3938 -1.8245
 2784TIP3    H229912   3.341   6.761   0.283  1.1010  0.9190  2.1038
 2785TIP3   OH229913   2.969   4.699   1.581 -0.2748 -0.0115 -0.1931
 2785TIP3    H129914   2.881   4.682   1.614  0.0978 -0.8226  0.4452
 2785TIP3    H229915   3.014   4.615   1.589  0.5541  0.3863 -0.5160
 2786TIP3   OH229916   3.319   4.056   1.352 -0.0888 -0.5181  0.6441
 2786TIP3    H129917   3.341   4.069   1.260  1.1574  0.6745  1.0724
 2786TIP3    H229918   3.224   4.046   1.353 -0.4769  2.2125 -0.5302
 2787TIP3   OH229919   4.362   2.684   0.290  0.5387  0.2838 -0.1879
 2787TIP3    H129920   4.415   2.750   0.334 -0.3772  1.2310 -0.4623
 2787TIP3    H229921   4.368   2.707   0.197 -0.5852  0.6043 -0.1960
 2788TIP3   OH229922   2.507   2.594   0.840 -0.2213 -0.4325  0.4580
 2788TIP3    H129923   2.460   2.673   0.811  0.5173 -0.0434  0.2894
 2788TIP3    H229924   2.440   2.540   0.882 -0.4650  0.9903  2.0060
 2789TIP3   OH229925   5.963   0.050   2.891  0.0054 -0.1630  0.2661
 2789TIP3    H129926   6.054   0.077   2.905  0.5669 -1.1843 -1.1688
 2789TIP3    H229927   5.946   0.072   2.799 -1.2947  0.2293  0.5863
 2790TIP3   OH229928   4.352   3.812   3.680 -0.0724 -0.0662 -0.2994
 2790TIP3    H129929   4.345   3.901   3.644  0.4640  0.3103  0.5102
 2790TIP3    H229930   4.406   3.765   3.616  0.8912  0.6036  0.0053
 2791TIP3   OH229931   4.895   4.015   1.182  0.3755  0.1343 -0.0845
 2791TIP3    H129932   4.915   4.107   1.200 -0.5469  0.3856 -0.2671
 2791TIP3    H229933   4.947   3.993   1.105  0.6801  0.4729  0.0224
 2792TIP3   OH229934   2.128   4.254   1.658 -0.5332 -0.3460  0.0475
 2792TIP3    H129935   2.088   4.190   1.717  2.8851 -2.4286  0.3990
 2792TIP3    H229936   2.208   4.282   1.703  0.3638  0.7671 -2.0677
 2793TIP3   OH229937   3.230   5.773   1.197  0.3927 -0.2771  0.2864
 2793TIP3    H129938   3.176   5.710   1.149 -0.1873  2.1666 -2.5284
 2793TIP3    H229939   3.168   5.821   1.252  0.0662  0.7653 -0.9548
 2794TIP3   OH229940   6.033   4.100   2.323  0.3457  0.3063  0.1724
 2794TIP3    H129941   5.998   4.182   2.290  0.8323  0.5658  0.2898
 2794TIP3    H229942   5.970   4.073   2.390 -0.9926 -0.5603 -1.3658
 2795TIP3   OH229943   6.249   2.824   1.098 -0.1332  0.0921 -0.5657
 2795TIP3    H129944   6.159   2.795   1.085  0.0398 -0.6966 -0.0481
 2795TIP3    H229945   6.277   2.854   1.012 -0.4667 -0.8565 -1.0162
 2796TIP3   OH229946   6.102   0.289   7.682  0.0085  0.2774  0.0983
 2796TIP3    H129947   6.021   0.255   7.644 -0.0450 -1.4570  1.5777
 2796TIP3    H229948   6.171   0.261   7.623 -0.2208 -0.9426  0.3793
 2797TIP3   OH229949   1.261   3.772   3.668 -0.3220  0.0562 -0.2515
 2797TIP3    H129950   1.351   3.793   3.692 -0.1062  0.0673 -1.0743
 2797TIP3    H229951   1.254   3.677   3.681 -0.8683  0.3240  2.0035
 2798TIP3   OH229952   5.276   6.485   1.506  0.3895 -0.4122  0.5296
 2798TIP3    H129953   5.361   6.529   1.496  0.5353 -0.6539  0.7120
 2798TIP3    H229954   5.283   6.436   1.587 -0.3919  0.6118  1.2426
 2799TIP3   OH229955   3.186   3.219   8.448  0.3088  0.2104 -0.4287
 2799TIP3    H129956   3.232   3.300   8.469 -0.6215  1.0777 -1.5889
 2799TIP3    H229957   3.255   3.157   8.424  0.9589  1.0484 -0.7673
 2800TIP3   OH229958   6.735   6.375   8.710  0.3437 -0.5709 -0.4094
 2800TIP3    H129959   6.790   6.303   8.742  0.5149  0.0090  0.6614
 2800TIP3    H229960   6.712   6.424   8.789 -0.3862  0.1276 -1.0352
 2801TIP3   OH229961   6.004   5.640   2.989  0.2970 -0.3705  0.1588
 2801TIP3    H129962   5.978   5.715   2.936  1.4400 -0.5725 -0.7296
 2801TIP3    H229963   5.978   5.664   3.078 -1.1935  0.1929 -0.3971
 2802TIP3   OH229964   6.415   6.250   2.618  0.3581  0.0651 -0.1394
 2802TIP3    H129965   6.390   6.337   2.650  2.5699  0.2156  1.4473
 2802TIP3    H229966   6.459   6.267   2.535 -0.0018  0.3773 -0.2692
 2803TIP3   OH229967   1.745   1.053   3.474  0.3596 -0.0361 -0.1616
 2803TIP3    H129968   1.659   1.092   3.458 -0.5675 -1.3548  1.3476
 2803TIP3    H229969   1.779   1.099   3.550  0.8431  0.2499 -0.5476
 2804TIP3   OH229970   4.342   6.405   0.473  0.0786  0.4366  0.6185
 2804TIP3    H129971   4.402   6.374   0.405 -0.2937  0.3546  0.3317
 2804TIP3    H229972   4.273   6.452   0.426 -0.3983  0.0306  0.9071
 2805TIP3   OH229973   0.550   0.608   0.875 -0.5970  0.1802  0.2078
 2805TIP3    H129974   0.569   0.537   0.814  1.9695  0.6050  0.3864
 2805TIP3    H229975   0.504   0.674   0.822 -0.5629 -0.4701 -0.6474
 2806TIP3   OH229976   1.485   3.075   1.386  0.0958  0.2165 -0.2265
 2806TIP3    H129977   1.491   3.164   1.420  0.0915 -0.1855  0.8653
 2806TIP3    H229978   1.537   3.023   1.447 -0.7098 -0.6874 -0.2929
 2807TIP3   OH229979   2.485   1.474   0.468  0.4155 -0.0539  0.1596
 2807TIP3    H129980   2.390   1.474   0.467  0.3903  1.2961 -0.9331
 2807TIP3    H229981   2.509   1.394   0.420 -0.2433  1.1634 -2.3492
 2808TIP3   OH229982   6.371   2.366   0.480 -0.0297 -0.6746  0.5597
 2808TIP3    H129983   6.365   2.437   0.416  0.5036 -0.2494  0.9807
 2808TIP3    H229984   6.364   2.286   0.427 -2.6851 -0.3425  0.2670
 2809TIP3   OH229985   5.300   0.174   0.022 -0.1905  0.1584 -0.8672
 2809TIP3    H129986   5.328   0.266   0.023  1.7727 -0.3655  1.0202
 2809TIP3    H229987   5.338   0.137   0.102  0.1219 -2.6061 -2.1781
 2810TIP3   OH229988   0.766   0.982   2.242  0.1050  0.4769 -0.3657
 2810TIP3    H129989   0.681   0.938   2.248  0.1459  0.5947  1.8138
 2810TIP3    H229990   0.745   1.075   2.250  0.3968  0.5327 -0.2400
 2811TIP3   OH229991   6.384   3.896   7.820 -0.6306 -0.0958  0.2839
 2811TIP3    H129992   6.431   3.980   7.820 -1.1591  0.2085 -0.0370
 2811TIP3    H229993   6.408   3.855   7.903 -0.1931  0.2743  0.3466
 2812TIP3   OH229994   6.107   5.451   8.002  0.1544 -0.2437  0.1137
 2812TIP3    H129995   6.158   5.443   8.083 -1.4183  0.0623  1.1671
 2812TIP3    H229996   6.016   5.452   8.030 -0.4502 -0.3267 -1.6907
 2813TIP3   OH229997   4.983   1.913   2.511 -0.2007 -0.0794  0.6154
 2813TIP3    H129998   5.069   1.882   2.482  1.0359  1.6545  2.2109
 2813TIP3    H229999   4.935   1.833   2.533  2.2955 -1.0532  3.1164
 2814TIP3   OH230000   1.105   4.672   2.694 -0.2464 -0.0474 -0.4044
 2814TIP3    H130001   1.133   4.581   2.695 -1.2799 -0.3714 -0.1772
 2814TIP3    H230002   1.183   4.721   2.723  0.1149 -0.9092  0.1247
 2815TIP3   OH230003   5.762   4.869   2.292  0.5408  1.1584 -0.6963
 2815TIP3    H130004   5.687   4.809   2.289 -0.1142  1.9756 -0.9941
 2815TIP3    H230005   5.820   4.838   2.223  0.4088  0.6265 -0.5798
 2816TIP3   OH230006   6.529   6.342   8.420  0.0916  0.3685 -0.1520
 2816TIP3    H130007   6.624   6.341   8.431  0.2711 -1.8827 -1.2785
 2816TIP3    H230008   6.506   6.251   8.402 -2.4267  0.6976  0.9910
 2817TIP3   OH230009   3.300   4.015   7.755 -0.3559 -0.5888  0.0281
 2817TIP3    H130010   3.291   4.024   7.660  2.7352 -2.0078 -0.5193
 2817TIP3    H230011   3.363   4.083   7.778  0.3922 -1.5075  0.7238
 2818TIP3   OH230012   2.531   6.303   2.699  0.0179  0.4955  0.7307
 2818TIP3    H130013   2.560   6.317   2.609 -1.3240 -1.8468 -0.1516
 2818TIP3    H230014   2.437   6.284   2.691  0.2727 -1.8871  2.3408
 2819TIP3   OH230015   2.566   5.848   1.238 -0.7769  0.0466  0.4273
 2819TIP3    H130016   2.482   5.830   1.195 -0.1209  0.9964 -1.3346
 2819TIP3    H230017   2.549   5.925   1.292 -0.5176  1.7781 -1.8180
 2820TIP3   OH230018   2.299   5.578   0.767 -0.3251 -0.3380 -0.2791
 2820TIP3    H130019   2.391   5.556   0.780 -0.1683 -0.7588 -1.8653
 2820TIP3    H230020   2.299   5.634   0.689 -1.1847  1.7151  1.1132
 2821TIP3   OH230021   0.806   4.890   0.281 -0.1791 -0.2736  0.1081
 2821TIP3    H130022   0.885   4.853   0.241 -0.2139 -1.3404  0.9991
 2821TIP3    H230023   0.827   4.896   0.374 -0.6535  0.7697  0.1581
 2822TIP3   OH230024   3.509   4.918   2.589 -0.7885 -0.4431  0.2183
 2822TIP3    H130025   3.567   4.843   2.602 -0.6282 -0.2781  0.4644
 2822TIP3    H230026   3.560   4.979   2.538 -1.5645 -1.2671 -1.6462
 2823TIP3   OH230027   5.815   6.816   8.504 -0.4205 -0.1283 -0.3037
 2823TIP3    H130028   5.859   6.900   8.514  1.1653 -0.7941 -1.2644
 2823TIP3    H230029   5.739   6.821   8.562  0.4999  1.3678  0.8327
 2824TIP3   OH230030   0.715   0.832   1.309 -0.1550  0.5683  0.3282
 2824TIP3    H130031   0.772   0.887   1.363  1.4752  0.3764 -1.1414
 2824TIP3    H230032   0.680   0.891   1.243 -0.8200  0.4479  0.5602
 2825TIP3   OH230033   5.778   1.042   2.562  0.2450 -0.1764  0.3653
 2825TIP3    H130034   5.842   0.972   2.575 -1.6892 -2.4075 -1.1371
 2825TIP3    H230035   5.716   1.031   2.635 -0.7804 -0.9665 -0.5845
 2826TIP3   OH230036   5.710   4.991   1.639 -0.2074 -0.0000  0.0673
 2826TIP3    H130037   5.615   4.997   1.625  0.0211  1.6200 -0.9274
 2826TIP3    H230038   5.738   4.921   1.580 -0.5975  0.4842 -0.7159
 2827TIP3   OH230039   2.386   4.426   7.430 -0.1883 -0.5976 -0.2674
 2827TIP3    H130040   2.307   4.443   7.378  0.0977 -0.6911 -0.7368
 2827TIP3    H230041   2.406   4.510   7.470 -1.1070 -0.8033  0.6822
 2828TIP3   OH230042   2.760   6.504   3.649 -0.3064  0.0026  0.1346
 2828TIP3    H130043   2.681   6.500   3.703  0.5476 -1.0350  1.3577
 2828TIP3    H230044   2.803   6.419   3.661  2.4991  1.5002  1.8970
 2829TIP3   OH230045   3.811   2.407   3.610  0.4115  0.0906  0.1772
 2829TIP3    H130046   3.868   2.450   3.673  0.9050  0.0494 -0.2361
 2829TIP3    H230047   3.870   2.369   3.545 -0.0820  0.0572 -0.2646
 2830TIP3   OH230048   2.326   5.780   1.114  0.1310  0.4820 -1.2832
 2830TIP3    H130049   2.266   5.727   1.061 -0.2105 -1.1312  0.5840
 2830TIP3    H230050   2.269   5.837   1.164  0.4900  2.5301 -3.0756
 2831TIP3   OH230051   6.417   2.880   1.978 -0.4807 -0.3997 -0.0476
 2831TIP3    H130052   6.454   2.823   2.044 -2.5121  0.0895  1.6349
 2831TIP3    H230053   6.347   2.828   1.937 -0.5211 -0.0515 -0.4327
 2832TIP3   OH230054   5.604   1.481   1.231  0.2973 -0.8693 -0.0484
 2832TIP3    H130055   5.675   1.502   1.171  1.4945 -1.6359  1.0385
 2832TIP3    H230056   5.631   1.399   1.273 -0.8468 -0.7613  0.9756
 2833TIP3   OH230057   5.501   5.500   8.488 -0.0823 -0.4903  0.8389
 2833TIP3    H130058   5.569   5.458   8.540  0.3109 -0.3696  0.4302
 2833TIP3    H230059   5.544   5.520   8.404 -1.6020 -3.9270 -0.9667
 2834TIP3   OH230060   4.175   4.635   2.972  0.4950  0.4080 -0.9734
 2834TIP3    H130061   4.198   4.666   3.059 -0.0326 -0.4587 -0.5180
 2834TIP3    H230062   4.215   4.548   2.966 -2.9899 -1.4373  0.0854
 2835TIP3   OH230063   5.116   5.716   3.191  0.1149  0.3219 -0.0928
 2835TIP3    H130064   5.134   5.623   3.203 -0.0278  0.2111 -0.6985
 2835TIP3    H230065   5.198   5.752   3.158  0.2546  0.4660  0.4072
 2836TIP3   OH230066   4.085   1.547   2.532  0.2238 -0.1821  0.0195
 2836TIP3    H130067   4.101   1.627   2.582 -1.4809  0.1916  0.0163
 2836TIP3    H230068   4.038   1.577   2.454 -0.9886 -1.2443  0.3109
 2837TIP3   OH230069   3.125   6.255   8.525  0.4050 -0.2799  0.1498
 2837TIP3    H130070   3.182   6.191   8.483  1.3254  0.5525  0.0900
 2837TIP3    H230071   3.132   6.333   8.469 -1.9001 -0.5829 -0.6547
 2838TIP3   OH230072   2.217   2.093   3.148 -0.1067 -0.2475 -0.0160
 2838TIP3    H130073   2.275   2.091   3.224 -0.1475 -0.6428  0.0060
 2838TIP3    H230074   2.152   2.025   3.165 -0.8775  0.5182  0.1889
 2839TIP3   OH230075   1.393   4.658   2.468  0.1114 -0.7827 -0.5532
 2839TIP3    H130076   1.419   4.630   2.380  0.3266  0.3365 -0.8661
 2839TIP3    H230077   1.381   4.753   2.460 -0.9428 -0.8178  0.3628
 2840TIP3   OH230078   1.233   6.705   2.211  0.0750  0.2293  0.7707
 2840TIP3    H130079   1.200   6.795   2.210 -0.0386  0.1917 -0.5487
 2840TIP3    H230080   1.226   6.678   2.303 -1.2127  1.0861  0.9584
 2841TIP3   OH230081   5.890   3.499   1.162 -0.7513 -0.3797 -0.3135
 2841TIP3    H130082   5.859   3.530   1.077 -0.1210  0.0189 -0.4064
 2841TIP3    H230083   5.893   3.577   1.217  0.2836 -0.3531 -0.3773
 2842TIP3   OH230084   0.206   3.870   3.141 -0.7052 -0.5796  0.1669
 2842TIP3    H130085   0.112   3.870   3.122 -1.0495  0.3657  1.6689
 2842TIP3    H230086   0.218   3.799   3.204 -0.5205 -0.3754  0.3678
 2843TIP3   OH230087   1.795   0.024   2.643  0.4074 -0.4397  0.2035
 2843TIP3    H130088   1.852  -0.013   2.575  0.3219 -0.8658  0.3597
 2843TIP3    H230089   1.767  -0.051   2.695 -0.7136 -0.3146 -0.1808
 2844TIP3   OH230090   5.593   6.433   0.492  0.1793 -0.3973 -0.2999
 2844TIP3    H130091   5.600   6.352   0.542 -1.2765 -0.6802 -0.5044
 2844TIP3    H230092   5.531   6.413   0.422 -1.1257  1.1999  0.3392
 2845TIP3   OH230093   4.385   0.954   1.386  0.0646  0.8607 -0.1553
 2845TIP3    H130094   4.311   0.978   1.442  0.1139  1.4481 -0.3315
 2845TIP3    H230095   4.365   0.865   1.357 -0.0144  0.5902  0.7035
 2846TIP3   OH230096   1.395   5.960   0.923  0.0264 -0.2361 -0.3798
 2846TIP3    H130097   1.306   5.994   0.920  0.5552  1.3955  0.9008
 2846TIP3    H230098   1.401   5.916   1.008  0.7453  0.6142  0.0217
 2847TIP3   OH230099   4.626   5.857   1.073  0.5248  0.4993 -0.2927
 2847TIP3    H130100   4.531   5.844   1.071  0.6525 -0.4471 -0.6355
 2847TIP3    H230101   4.642   5.931   1.014 -0.0520  1.0458  0.2285
 2848TIP3   OH230102   3.931   3.572   2.399 -0.2610 -0.3068  0.5713
 2848TIP3    H130103   3.894   3.494   2.358 -1.2954  0.5054 -0.0933
 2848TIP3    H230104   4.007   3.594   2.346 -1.8165  0.9692 -1.2600
 2849TIP3   OH230105   2.845   6.042   2.440  0.3083  0.0055 -0.0243
 2849TIP3    H130106   2.867   6.104   2.509 -0.9182  0.5172 -0.0708
 2849TIP3    H230107   2.772   5.992   2.475  0.0978 -0.1708 -0.7060
 2850TIP3   OH230108   6.547   5.840   1.603 -0.7857 -0.6439  0.2551
 2850TIP3    H130109   6.538   5.829   1.698 -0.2692 -0.9746  0.2678
 2850TIP3    H230110   6.581   5.929   1.593 -3.2060  0.3531  0.2434
 2851TIP3   OH230111   2.563   2.141   8.558 -0.3513  0.2562  0.3707
 2851TIP3    H130112   2.542   2.227   8.595  0.2513  1.2962 -1.5164
 2851TIP3    H230113   2.578   2.159   8.465  0.0457 -1.8753 -0.0258
 2852TIP3   OH230114   5.146   6.562   0.137 -0.1592  0.3565  0.3380
 2852TIP3    H130115   5.080   6.495   0.155 -0.5548  1.0152  1.4353
 2852TIP3    H230116   5.191   6.574   0.221  0.9278  0.3779 -0.2346
 2853TIP3   OH230117   4.852   2.702   2.113  0.1225  0.3647 -0.0555
 2853TIP3    H130118   4.917   2.705   2.184 -0.7345 -1.3939  0.8577
 2853TIP3    H230119   4.780   2.650   2.149  0.7997 -3.0848 -3.1220
 2854TIP3   OH230120   2.557   2.169   2.233 -0.0950  0.0569 -0.2490
 2854TIP3    H130121   2.595   2.113   2.300  0.4141 -1.3037 -1.6085
 2854TIP3    H230122   2.614   2.246   2.230 -0.3260  0.2946  1.0863
 2855TIP3   OH230123   4.485   5.340   8.593  0.4462  0.0651  0.1197
 2855TIP3    H130124   4.418   5.315   8.528  0.0222  0.5401  0.3665
 2855TIP3    H230125   4.461   5.429   8.619  1.0068  0.1274  0.4345
 2856TIP3   OH230126   6.064   4.665   0.033  0.3288  0.1349  0.7893
 2856TIP3    H130127   6.045   4.736   0.094  0.9053  0.4929  0.5673
 2856TIP3    H230128   6.133   4.701  -0.024 -0.0406 -0.2709  0.0793
 2857TIP3   OH230129   0.606   6.667   8.554 -0.0648  0.1045  0.5398
 2857TIP3    H130130   0.606   6.587   8.607  0.9580 -0.6200 -0.4925
 2857TIP3    H230131   0.623   6.637   8.465  0.6067  1.4864  0.1645
 2858TIP3   OH230132   2.143   4.987   1.043  0.9574  0.1896 -0.1511
 2858TIP3    H130133   2.183   4.913   0.999 -0.7126 -0.9599  0.1605
 2858TIP3    H230134   2.076   4.948   1.100  0.3992  1.8911  0.4207
 2859TIP3   OH230135   3.234   6.370   0.733 -0.1795  0.7144 -0.0008
 2859TIP3    H130136   3.238   6.319   0.814 -0.0943  0.4024 -0.2018
 2859TIP3    H230137   3.293   6.444   0.749 -1.1985  1.4002  0.7377
 2860TIP3   OH230138   0.826   3.921   1.347  0.1175  0.6680 -0.0892
 2860TIP3    H130139   0.838   3.830   1.322 -1.7487  0.8385 -1.8817
 2860TIP3    H230140   0.743   3.921   1.395  0.3275  1.3610  0.2780
 2861TIP3   OH230141   5.234   3.770   3.323  0.2227 -0.3434 -0.7761
 2861TIP3    H130142   5.298   3.741   3.389 -1.1119  0.0216  0.7382
 2861TIP3    H230143   5.155   3.788   3.373 -1.2671 -1.3187 -2.6756
 2862TIP3   OH230144   1.595   2.951   0.783  0.5725  0.0904  0.4768
 2862TIP3    H130145   1.512   2.968   0.738  0.4676  0.3145  0.7547
 2862TIP3    H230146   1.638   2.884   0.729  0.9783  1.1943 -0.6195
 2863TIP3   OH230147   6.268   1.083   1.892 -0.1448 -0.0021 -0.1104
 2863TIP3    H130148   6.292   0.999   1.853  1.3284  1.0404 -1.5899
 2863TIP3    H230149   6.350   1.133   1.894 -0.7479  0.9984  1.8350
 2864TIP3   OH230150   1.645   3.110   1.761  0.7168  0.5558 -1.0779
 2864TIP3    H130151   1.559   3.151   1.769  0.7889  0.5739 -0.2379
 2864TIP3    H230152   1.627   3.019   1.739  0.3932  0.1887  0.5283
 2865TIP3   OH230153   2.157   1.722   1.599  0.2193 -0.5716 -0.0157
 2865TIP3    H130154   2.172   1.750   1.689  0.0161 -0.6526  0.0428
 2865TIP3    H230155   2.076   1.672   1.602 -0.2677  0.1738 -0.3944
 2866TIP3   OH230156   4.116   2.156   1.631  0.0428  0.0814  0.0606
 2866TIP3    H130157   4.118   2.217   1.558 -1.0226  0.1427  0.0617
 2866TIP3    H230158   4.096   2.071   1.590  5.2154 -1.1834 -0.4784
 2867TIP3   OH230159   6.519   1.851   1.028 -0.2782  0.2831  0.0462
 2867TIP3    H130160   6.433   1.892   1.027 -0.0372  0.9069  1.3554
 2867TIP3    H230161   6.580   1.924   1.029  0.2975 -0.1539 -1.3379
 2868TIP3   OH230162   6.788   2.362   1.332 -0.1155 -0.3201 -0.0585
 2868TIP3    H130163   6.852   2.406   1.389  0.4926  0.3002 -1.1880
 2868TIP3    H230164   6.705   2.407   1.351  0.2182  0.3491 -0.1491
 2869TIP3   OH230165   0.046   4.040   0.248  0.5379 -0.2364 -0.4365
 2869TIP3    H130166  -0.018   4.091   0.199  1.9816  4.1430  1.6593
 2869TIP3    H230167   0.115   4.020   0.184  0.5205  1.7544 -1.1385
 2870TIP3   OH230168   4.602   5.815   1.431  0.0254 -0.3139 -0.3370
 2870TIP3    H130169   4.526   5.846   1.380 -0.6163  0.2096  0.9013
 2870TIP3    H230170   4.564   5.771   1.507  0.9134  1.4726  1.2275
 2871TIP3   OH230171   5.004   5.923   1.126  0.1121 -0.9601 -0.2804
 2871TIP3    H130172   4.967   5.857   1.067  1.1096 -1.2317 -0.6191
 2871TIP3    H230173   4.929   5.954   1.177 -0.2577 -2.9761  0.5025
 2872TIP3   OH230174   1.274   3.934   3.980 -0.2558 -0.0347  0.5349
 2872TIP3    H130175   1.269   3.979   3.895  0.2595 -0.3884  0.3106
 2872TIP3    H230176   1.200   3.968   4.029 -0.1102  0.7572  0.2237
 2873TIP3   OH230177   1.268   5.654   2.201 -0.5779  0.0156  0.5983
 2873TIP3    H130178   1.250   5.695   2.116  0.9352 -0.5170 -0.0174
 2873TIP3    H230179   1.227   5.712   2.265 -0.2547  1.3708 -0.3747
 2874TIP3   OH230180   1.929   2.347   8.652 -0.0709  0.3943  0.2834
 2874TIP3    H130181   1.971   2.421   8.697  0.2323  0.7884 -0.6407
 2874TIP3    H230182   1.859   2.387   8.601 -0.9962 -0.1608  1.0767
 2875TIP3   OH230183   5.983   0.601   3.250  0.2117 -0.3067  0.1997
 2875TIP3    H130184   6.061   0.620   3.303 -0.2315 -0.2167  0.8373
 2875TIP3    H230185   5.911   0.642   3.298 -0.4216 -1.5218  0.3372
 2876TIP3   OH230186   1.399   6.261   2.074  0.1670  0.1448 -0.4444
 2876TIP3    H130187   1.453   6.321   2.124  1.9374 -1.0163 -0.8807
 2876TIP3    H230188   1.391   6.301   1.988 -0.0421  0.5155 -0.2558
 2877TIP3   OH230189   5.789   3.965   3.091  0.0057  0.0414 -0.1474
 2877TIP3    H130190   5.840   3.975   3.011  0.3980  2.1316  0.3066
 2877TIP3    H230191   5.699   3.988   3.066 -0.1099 -0.4923 -0.2378
 2878TIP3   OH230192   2.567   3.136   2.126 -0.0746 -0.4943  0.0361
 2878TIP3    H130193   2.523   3.051   2.136 -1.7045  0.4093  0.9314
 2878TIP3    H230194   2.660   3.116   2.132 -0.4511 -2.1439  0.8680
 2879TIP3   OH230195   2.956   1.205   2.478  0.3650 -0.1217 -0.2584
 2879TIP3    H130196   2.905   1.233   2.402  0.8646  0.1602 -0.4928
 2879TIP3    H230197   3.044   1.240   2.463  0.2944  0.5667  0.8029
 2880TIP3   OH230198   5.372   6.250   8.185  0.2018  1.0139 -0.1089
 2880TIP3    H130199   5.311   6.246   8.258 -1.1012 -1.5786 -1.2032
 2880TIP3    H230200   5.444   6.305   8.217 -0.5963  0.5116  2.8622
 2881TIP3   OH230201   6.150   2.633   0.786  0.0532 -0.0415  0.2254
 2881TIP3    H130202   6.129   2.564   0.723 -1.1476 -0.2008  0.7574
 2881TIP3    H230203   6.230   2.672   0.753 -0.8130  0.2338 -1.6998
 2882TIP3   OH230204   3.428   2.179   0.117  0.2842 -0.3216 -0.1735
 2882TIP3    H130205   3.386   2.208   0.036  1.2797  0.2292 -0.5104
 2882TIP3    H230206   3.359   2.186   0.183 -0.4601 -0.4914 -0.9135
 2883TIP3   OH230207   5.201   5.288   1.352  0.1411 -0.3385  0.1050
 2883TIP3    H130208   5.185   5.379   1.377  0.9136 -0.3460  0.6786
 2883TIP3    H230209   5.187   5.239   1.433 -1.1231 -0.8428 -0.4029
 2884TIP3   OH230210   5.422   6.342   3.893  0.5858 -0.5014 -0.0089
 2884TIP3    H130211   5.474   6.368   3.817  0.5852  0.0780  0.1892
 2884TIP3    H230212   5.373   6.421   3.918 -0.8708 -1.1765 -0.5661
 2885TIP3   OH230213   5.413   0.796   0.197  0.0163 -0.3702  0.2140
 2885TIP3    H130214   5.372   0.775   0.113 -1.9390  2.0076  0.4347
 2885TIP3    H230215   5.501   0.761   0.191 -0.3106 -0.9322 -2.5293
 2886TIP3   OH230216   4.993   3.214   8.266  0.5902 -0.2322 -0.2324
 2886TIP3    H130217   5.040   3.133   8.284  5.0707  2.1799  0.5959
 2886TIP3    H230218   4.957   3.202   8.178  1.6699 -2.8836 -0.3961
 2887TIP3   OH230219   6.108   6.178   1.515 -0.1092 -0.2099 -0.1346
 2887TIP3    H130220   6.173   6.116   1.483 -0.5392 -1.2325  0.9260
 2887TIP3    H230221   6.111   6.170   1.610 -0.6669  0.8959 -0.0080
 2888TIP3   OH230222   5.879   3.645   1.617 -0.3212  0.2380  0.9786
 2888TIP3    H130223   5.956   3.698   1.634 -0.7281  1.8830 -1.5970
 2888TIP3    H230224   5.844   3.624   1.703  0.8717  2.7036  2.1684
 2889TIP3   OH230225   5.002   6.739   3.102  0.2313 -0.8660 -0.6724
 2889TIP3    H130226   5.053   6.806   3.148 -1.6501  0.0476  0.1960
 2889TIP3    H230227   4.961   6.688   3.171 -2.3168  0.2561 -1.2250
 2890TIP3   OH230228   5.730   5.481   1.911  0.4760 -0.1303 -0.1909
 2890TIP3    H130229   5.780   5.399   1.915 -0.2740 -0.5610  0.6822
 2890TIP3    H230230   5.694   5.481   1.822  0.0985 -0.9912 -0.0517
 2891TIP3   OH230231   6.340   6.778   1.272  0.0617  0.0558 -0.1542
 2891TIP3    H130232   6.294   6.731   1.202 -0.6979  0.8002 -0.1659
 2891TIP3    H230233   6.303   6.866   1.271  1.4364  0.6659 -0.1023
 2892TIP3   OH230234   6.603   2.741   2.136 -0.0314  0.3873 -0.0237
 2892TIP3    H130235   6.673   2.700   2.084 -0.3128  0.5129 -0.5031
 2892TIP3    H230236   6.580   2.674   2.201 -0.3488 -0.1508 -0.6786
 2893TIP3   OH230237   6.255   4.624   2.076  0.7425 -0.8809  0.2137
 2893TIP3    H130238   6.279   4.673   2.155  0.2415 -0.9997  0.4506
 2893TIP3    H230239   6.159   4.623   2.078  0.7269 -2.9458  0.9020
 2894TIP3   OH230240   3.516   2.032   2.328  0.0690  0.6413 -0.5328
 2894TIP3    H130241   3.556   2.012   2.243  1.6511  1.5099 -0.0201
 2894TIP3    H230242   3.554   1.968   2.388 -0.3530  0.6133 -0.2909
 2895TIP3   OH230243   5.845   4.234   1.137 -0.1276  0.3303  0.3618
 2895TIP3    H130244   5.913   4.302   1.132 -0.4868  0.7130  0.5655
 2895TIP3    H230245   5.763   4.282   1.123 -0.4111 -0.0082  0.8386
 2896TIP3   OH230246   1.817   6.323   2.944  0.2369  0.3723  0.1969
 2896TIP3    H130247   1.797   6.290   2.857  0.7205 -2.1932  0.9609
 2896TIP3    H230248   1.907   6.295   2.961 -0.2675 -0.3440  1.9809
 2897TIP3   OH230249   2.055   2.739   2.451 -0.1475  0.2911  0.2147
 2897TIP3    H130250   2.073   2.719   2.359  1.0846 -0.6504  0.6251
 2897TIP3    H230251   2.008   2.822   2.450  0.7400  0.8060 -1.2148
 2898TIP3   OH230252   6.741   1.894   8.624  0.3119  0.5313 -0.4467
 2898TIP3    H130253   6.822   1.867   8.669 -0.8971 -1.0188  0.9156
 2898TIP3    H230254   6.756   1.870   8.532  1.0154 -0.7014 -0.0367
 2899TIP3   OH230255   1.128   4.123   0.977 -0.4154 -0.3187  0.3007
 2899TIP3    H130256   1.110   4.067   0.902  0.2205 -1.8372  1.2319
 2899TIP3    H230257   1.187   4.190   0.943 -2.8611  1.1717 -1.3517
 2900TIP3   OH230258   3.055   2.931   1.025 -0.4873 -0.2909  0.0639
 2900TIP3    H130259   3.073   2.852   0.974  0.2624  1.0749 -1.9337
 2900TIP3    H230260   2.976   2.967   0.985 -0.2120  0.5070  0.2217
 2901TIP3   OH230261   2.794   3.340   1.896  0.1731 -0.4162  0.1771
 2901TIP3    H130262   2.755   3.255   1.920  0.2666 -0.2356  1.0024
 2901TIP3    H230263   2.801   3.387   1.979  2.3724 -0.5252  0.1047
 2902TIP3   OH230264   0.292   5.312   1.733 -1.1487  0.7662 -0.7641
 2902TIP3    H130265   0.347   5.274   1.664 -1.5177 -0.3141 -0.4860
 2902TIP3    H230266   0.340   5.389   1.763 -0.2952  0.4243 -1.2342
 2903TIP3   OH230267   6.829   5.480   0.149 -0.1935 -0.1490 -0.1338
 2903TIP3    H130268   6.803   5.505   0.238  0.3915  1.1917 -0.3277
 2903TIP3    H230269   6.873   5.557   0.114 -2.5879  0.2838 -2.4833
 2904TIP3   OH230270   4.940   3.027   0.522  0.5745 -0.2215  0.1652
 2904TIP3    H130271   5.030   3.018   0.553  0.0585 -0.5892  1.6786
 2904TIP3    H230272   4.918   2.942   0.485  0.1261 -0.9411  1.9594
 2905TIP3   OH230273   1.492   4.043   8.165  0.2050  0.4913 -0.3365
 2905TIP3    H130274   1.478   3.974   8.230 -1.8113  1.2251  0.0630
 2905TIP3    H230275   1.454   4.007   8.084  3.7888 -0.9419 -1.6046
 2906TIP3   OH230276   1.611   2.088   8.357  0.1032 -0.1137  0.3175
 2906TIP3    H130277   1.571   2.175   8.366 -1.0318 -0.5440 -0.4550
 2906TIP3    H230278   1.575   2.053   8.276  1.2944 -0.9297  0.1122
 2907TIP3   OH230279   3.211   6.834   1.649 -0.4827  0.1280  0.0151
 2907TIP3    H130280   3.138   6.795   1.697 -1.0704 -0.5445 -1.3766
 2907TIP3    H230281   3.250   6.895   1.711 -2.0990  0.3610  0.8637
 2908TIP3   OH230282   5.552   2.476   1.549 -0.0726 -0.4197  0.4988
 2908TIP3    H130283   5.518   2.415   1.483 -0.3412 -1.2181  1.3559
 2908TIP3    H230284   5.593   2.419   1.614  0.2644  0.3699  0.9822
 2909TIP3   OH230285   3.234   4.151   7.489 -0.9678 -0.0692 -0.1421
 2909TIP3    H130286   3.156   4.107   7.456 -1.9810  0.8981  0.8519
 2909TIP3    H230287   3.200   4.223   7.543  0.6138  0.5321  0.1159
 2910TIP3   OH230288   6.690   0.059   3.061 -0.8300 -0.5670 -0.2748
 2910TIP3    H130289   6.717   0.102   3.142  1.3318  0.2879 -1.3723
 2910TIP3    H230290   6.729  -0.028   3.066 -2.0077 -1.0887  0.2504
 2911TIP3   OH230291   5.953   4.989   3.776 -0.4065 -0.5374 -0.7890
 2911TIP3    H130292   5.879   4.967   3.833  0.8645  1.5958  1.9038
 2911TIP3    H230293   6.008   4.911   3.777 -1.4405 -1.2902 -0.8970
 2912TIP3   OH230294   5.877   5.235   1.570 -0.2211 -0.6621  0.7180
 2912TIP3    H130295   5.818   5.277   1.507  2.4417 -0.1764 -1.6885
 2912TIP3    H230296   5.836   5.151   1.590 -1.0280 -1.0104 -2.0230
 2913TIP3   OH230297   0.827   2.465   2.083  0.2253 -0.1863  0.4133
 2913TIP3    H130298   0.747   2.469   2.136  0.2277 -1.8826  0.5829
 2913TIP3    H230299   0.886   2.527   2.126 -1.0128  1.2322  0.1846
 2914TIP3   OH230300   6.284   2.700   1.804 -0.1174  0.5229 -0.7874
 2914TIP3    H130301   6.341   2.623   1.810  0.0522  0.4338 -2.6677
 2914TIP3    H230302   6.197   2.667   1.826  0.0931 -0.0372 -0.7754
 2915TIP3   OH230303   2.747   0.837   8.547  0.2475 -0.4070  0.0238
 2915TIP3    H130304   2.841   0.832   8.562  0.1829  0.4337  0.8081
 2915TIP3    H230305   2.738   0.871   8.458  0.7094  1.2334  0.5779
 2916TIP3   OH230306   1.622   0.072   0.747 -0.1101 -0.0093 -0.7140
 2916TIP3    H130307   1.617   0.092   0.653 -1.3455  0.3746 -0.5782
 2916TIP3    H230308   1.573  -0.009   0.758  0.4381 -0.3158 -0.4567
 2917TIP3   OH230309   5.400   3.751   1.818  0.1902  0.7321 -0.4198
 2917TIP3    H130310   5.396   3.815   1.747  1.2556  1.9690  0.5695
 2917TIP3    H230311   5.447   3.797   1.888 -2.2192  0.1758  1.7080
 2918TIP3   OH230312   2.117   5.993   0.900  0.4098 -0.0889  0.1749
 2918TIP3    H130313   2.075   5.972   0.983 -0.8792 -0.3432 -0.5170
 2918TIP3    H230314   2.211   5.982   0.917  0.2975  1.3100  1.9993
 2919TIP3   OH230315   5.248   6.725   1.652  0.1382 -0.7132 -0.0961
 2919TIP3    H130316   5.248   6.788   1.724 -0.1305  0.8147 -1.3713
 2919TIP3    H230317   5.184   6.659   1.678  0.8516 -0.8046  1.5472
 2920TIP3   OH230318   4.668   3.698   2.181 -0.5010  0.3730 -0.4827
 2920TIP3    H130319   4.711   3.727   2.101  1.2943  0.4142  0.4497
 2920TIP3    H230320   4.631   3.612   2.159  0.3689  0.1769 -1.2358
 2921TIP3   OH230321   3.493   4.923   3.325  0.6247  0.1176 -0.7426
 2921TIP3    H130322   3.562   4.892   3.384 -1.0564 -1.5502  0.4395
 2921TIP3    H230323   3.455   4.998   3.371 -0.5677 -1.0725  0.2966
 2922TIP3   OH230324   5.324   1.766   1.883 -1.3245 -0.6806  0.3090
 2922TIP3    H130325   5.316   1.739   1.791 -0.0235 -0.0886 -0.0079
 2922TIP3    H230326   5.302   1.860   1.881  1.9530  0.2207 -0.0662
 2923TIP3   OH230327   2.683   6.434   8.561 -0.6637 -0.1391 -0.8689
 2923TIP3    H130328   2.722   6.355   8.599  0.1882  0.9619  0.6279
 2923TIP3    H230329   2.612   6.456   8.621  0.7647  1.6869  0.2469
 2924TIP3   OH230330   4.809   3.745   1.266  0.6515 -0.5231 -0.4513
 2924TIP3    H130331   4.800   3.835   1.232 -1.6372 -0.5051  0.0056
 2924TIP3    H230332   4.833   3.693   1.189  3.6410  0.6299 -0.4421
 2925TIP3   OH230333   2.976   0.601   1.800 -0.1055 -0.3474 -0.1010
 2925TIP3    H130334   3.016   0.684   1.826 -1.5012 -0.1401  1.6300
 2925TIP3    H230335   2.884   0.610   1.828 -0.7280 -1.7803 -1.5449
 2926TIP3   OH230336   2.532   6.755   8.059 -0.3259 -0.7319 -0.4518
 2926TIP3    H130337   2.457   6.730   8.113 -0.5119 -0.5391 -0.6148
 2926TIP3    H230338   2.505   6.732   7.970 -0.3423 -0.3206 -0.5556
 2927TIP3   OH230339   4.580   5.181   2.959  0.0646 -0.3410  0.0256
 2927TIP3    H130340   4.657   5.224   2.997  0.8896  0.8094 -2.7260
 2927TIP3    H230341   4.528   5.155   3.035  2.0915  0.8304  1.9429
 2928TIP3   OH230342   6.757   1.019   1.960 -0.0447  0.3036 -0.5929
 2928TIP3    H130343   6.766   1.069   2.041  0.3620  0.0730 -0.4983
 2928TIP3    H230344   6.832   1.046   1.907  0.3268 -0.4116 -0.4337
 2929TIP3   OH230345   3.887   2.493   2.055  0.2000 -0.1784  0.0705
 2929TIP3    H130346   3.875   2.398   2.064  1.3335 -0.4276 -0.7567
 2929TIP3    H230347   3.962   2.502   1.996  1.9699  1.1922  2.3616
 2930TIP3   OH230348   2.470   1.578   2.706  0.2503 -0.3717 -0.1625
 2930TIP3    H130349   2.445   1.500   2.656  0.4624 -0.9493  0.6242
 2930TIP3    H230350   2.438   1.562   2.794 -1.1560  1.1381 -0.3375
 2931TIP3   OH230351   3.587   0.447   0.350 -0.3026  0.2419  0.3873
 2931TIP3    H130352   3.599   0.420   0.441  1.0108  0.2191  0.2279
 2931TIP3    H230353   3.559   0.367   0.305  2.3086 -0.6479  0.1644
 2932TIP3   OH230354   3.805   1.859   1.244 -0.4905 -0.0382 -0.0158
 2932TIP3    H130355   3.797   1.803   1.168 -0.2663  0.3855 -0.3556
 2932TIP3    H230356   3.724   1.845   1.293 -0.2441 -0.9893  0.1361
 2933TIP3   OH230357   0.775   6.695   1.809 -0.1076  0.7901 -0.2671
 2933TIP3    H130358   0.768   6.698   1.904 -0.7313 -0.3967 -0.2541
 2933TIP3    H230359   0.817   6.778   1.785 -0.1437  1.1983  1.0131
 2934TIP3   OH230360   5.082   6.359   1.102 -0.0512  0.2869  0.4113
 2934TIP3    H130361   5.075   6.452   1.077  0.9706  0.0200 -1.0342
 2934TIP3    H230362   5.152   6.357   1.166  0.0322  0.4968  0.3287
 2935TIP3   OH230363   2.775   5.216   1.921  0.2610 -0.1249  0.3947
 2935TIP3    H130364   2.775   5.299   1.968  1.5135  0.6872 -0.9709
 2935TIP3    H230365   2.856   5.217   1.870 -0.4572 -1.5145 -0.8395
 2936TIP3   OH230366   1.143   5.884   8.394 -0.1649 -0.2833  0.2939
 2936TIP3    H130367   1.122   5.832   8.317  0.8071  0.3857 -0.4660
 2936TIP3    H230368   1.061   5.891   8.442 -0.6521 -1.2227 -0.3693
 2937TIP3   OH230369   2.684   0.910   1.140  0.7255  0.0759 -1.3081
 2937TIP3    H130370   2.677   0.819   1.167 -0.1999  0.2211 -1.0374
 2937TIP3    H230371   2.760   0.912   1.081  0.5998 -0.9046 -1.5132
 2938TIP3   OH230372   0.005   1.527   8.700 -0.1330 -0.1953  0.3462
 2938TIP3    H130373  -0.043   1.446   8.681  0.4915 -0.4500 -0.1571
 2938TIP3    H230374   0.070   1.503   8.766  0.7551 -0.3492 -0.5725
 2939TIP3   OH230375   0.873   6.363   1.219 -0.2656 -0.1436  0.3380
 2939TIP3    H130376   0.864   6.267   1.220  0.1864 -0.1856  0.3489
 2939TIP3    H230377   0.877   6.387   1.312  1.8819 -0.3325  0.3332
 2940TIP3   OH230378   1.632   5.964   2.846  0.1913  0.3471 -0.3434
 2940TIP3    H130379   1.670   5.878   2.863 -0.1679  0.0940 -0.8174
 2940TIP3    H230380   1.697   6.009   2.791  0.4729  0.4622  0.0734
 2941TIP3   OH230381   4.055   1.014   8.053 -0.7585  0.3016  0.1683
 2941TIP3    H130382   4.024   1.036   7.965 -0.2692  0.1243 -0.0543
 2941TIP3    H230383   3.999   0.941   8.080 -0.1113 -0.4635 -0.5067
 2942TIP3   OH230384   1.397   1.131   2.516 -0.0024 -0.1403  0.0427
 2942TIP3    H130385   1.331   1.200   2.520  0.3340  0.1586  0.6838
 2942TIP3    H230386   1.421   1.126   2.424  0.5141  1.1344  0.0900
 2943TIP3   OH230387   6.562   0.027   1.014 -0.3279 -0.3626  0.4785
 2943TIP3    H130388   6.650   0.030   0.975  0.8361  0.6153  3.0068
 2943TIP3    H230389   6.552   0.111   1.058 -1.9599 -1.0214  1.4512
 2944TIP3   OH230390   3.663   2.883   1.579  0.0230 -0.0883 -0.6073
 2944TIP3    H130391   3.612   2.964   1.585  1.3008  0.9637 -2.8209
 2944TIP3    H230392   3.705   2.875   1.665 -0.1839  1.5765 -0.3159
 2945TIP3   OH230393   2.798   6.699   3.246 -0.5262 -0.2799  0.4079
 2945TIP3    H130394   2.779   6.628   3.186 -0.2132 -1.0553  1.2088
 2945TIP3    H230395   2.870   6.667   3.301  0.3272  1.0516  0.1095
 2946TIP3   OH230396   5.587   2.819   0.098  0.1058  1.3074  0.5013
 2946TIP3    H130397   5.502   2.808   0.139  0.2739  3.3098  1.4946
 2946TIP3    H230398   5.571   2.875   0.022  0.1665 -0.5106 -0.9354
 2947TIP3   OH230399   3.845   1.250   0.497  0.2326  0.0988 -0.4939
 2947TIP3    H130400   3.939   1.267   0.490  0.2595  0.4655  0.7030
 2947TIP3    H230401   3.811   1.275   0.411  0.8406  2.5594 -0.0962
 2948TIP3   OH230402   2.027   6.251   1.776 -0.7012 -0.2732  0.2814
 2948TIP3    H130403   1.996   6.201   1.851 -1.9753  0.6094  0.3770
 2948TIP3    H230404   1.974   6.221   1.702  0.0766 -0.6545 -0.1335
 2949TIP3   OH230405   3.837   6.607   1.574  0.2931  0.0405  0.2675
 2949TIP3    H130406   3.847   6.568   1.487  0.6266 -1.4646  0.9472
 2949TIP3    H230407   3.748   6.585   1.600  0.2450  0.3599  0.3753
 2950TIP3   OH230408   4.354   0.684   1.985 -0.0344  0.1597 -0.7055
 2950TIP3    H130409   4.412   0.754   1.956 -0.4034  0.0789 -1.6534
 2950TIP3    H230410   4.269   0.726   1.999  0.8023  0.9450  3.6178
 2951TIP3   OH230411   5.828   5.036   3.270  0.0925 -0.2156  0.1773
 2951TIP3    H130412   5.769   5.110   3.251 -0.4159 -0.2916  1.3256
 2951TIP3    H230413   5.799   5.005   3.356 -1.4412 -3.4268 -1.3043
 2952TIP3   OH230414   1.906   1.343   0.424 -0.3973 -0.0856  0.5445
 2952TIP3    H130415   1.909   1.250   0.399  0.9004 -0.2817  1.3327
 2952TIP3    H230416   1.963   1.386   0.360  0.7198 -0.1781  1.4426
 2953TIP3   OH230417   0.043   2.223   1.080  0.4138  0.1797  0.0123
 2953TIP3    H130418   0.044   2.302   1.026  1.7305 -0.4968 -0.9850
 2953TIP3    H230419   0.033   2.257   1.170  0.7599  1.4691 -0.4052
 2954TIP3   OH230420   6.238   5.294   0.244  0.2831  0.6492  0.3390
 2954TIP3    H130421   6.312   5.352   0.259  0.8077 -0.2264  1.2376
 2954TIP3    H230422   6.263   5.242   0.168 -1.0164  2.8699 -1.7656
 2955TIP3   OH230423   2.083   4.724   8.566  0.4075  0.0747  0.4323
 2955TIP3    H130424   2.088   4.693   8.657 -0.3985 -1.2036  0.0640
 2955TIP3    H230425   1.998   4.695   8.535  0.8250  0.1696 -0.8671
 2956TIP3   OH230426   5.662   0.208   2.105 -0.0127 -0.2228 -0.0473
 2956TIP3    H130427   5.726   0.168   2.164 -0.4367 -0.3560  0.3251
 2956TIP3    H230428   5.714   0.269   2.052  0.4005 -0.2222  0.3479
 2957TIP3   OH230429   0.076   1.362   3.916  0.3806 -0.0665  0.2707
 2957TIP3    H130430   0.123   1.288   3.952 -1.0121 -2.1033 -1.8264
 2957TIP3    H230431   0.137   1.403   3.856 -0.1929 -2.3983 -2.0689
 2958TIP3   OH230432   3.074   3.966   7.355 -0.2574  0.3606 -0.3259
 2958TIP3    H130433   3.149   3.947   7.298  0.3619  0.5218  0.4170
 2958TIP3    H230434   3.004   3.910   7.321 -0.1453  1.0446 -1.7345
 2959TIP3   OH230435   0.314   6.808   2.449 -0.6320 -0.0554  0.1026
 2959TIP3    H130436   0.260   6.799   2.527 -0.4385 -2.7509  0.0096
 2959TIP3    H230437   0.274   6.880   2.400 -2.9703 -0.6757  0.9635
 2960TIP3   OH230438   1.029   4.566   7.544 -0.0443 -0.0070  0.1551
 2960TIP3    H130439   1.038   4.472   7.562  1.3309  0.0899  0.0958
 2960TIP3    H230440   0.942   4.588   7.575 -0.1595 -1.1897  0.7262
 2961TIP3   OH230441   1.491   2.929   1.111  0.3922 -0.4027 -0.5743
 2961TIP3    H130442   1.519   2.857   1.166  1.3309  0.3517 -0.0299
 2961TIP3    H230443   1.511   3.008   1.161  0.8183  0.2901 -1.7706
 2962TIP3   OH230444   0.633   4.393   2.906  0.2708 -0.0749  0.1505
 2962TIP3    H130445   0.638   4.472   2.960  0.0110  0.9921 -1.3383
 2962TIP3    H230446   0.705   4.403   2.843 -0.8292 -0.1465 -1.1581
 2963TIP3   OH230447   6.175   6.367   0.494  0.4474 -0.1996 -0.4089
 2963TIP3    H130448   6.183   6.357   0.589 -0.6491 -0.2650 -0.2995
 2963TIP3    H230449   6.262   6.349   0.459  0.7750 -0.5236  0.5610
 2964TIP3   OH230450   5.425   6.128   3.466  0.0223 -0.4152  0.5377
 2964TIP3    H130451   5.475   6.047   3.474  1.2308  0.0931 -1.2062
 2964TIP3    H230452   5.358   6.107   3.401  1.3032  0.3463 -1.1162
 2965TIP3   OH230453   6.643   6.415   7.735  0.3220  0.9115 -0.0574
 2965TIP3    H130454   6.581   6.406   7.663 -0.9030 -0.0366  1.0536
 2965TIP3    H230455   6.632   6.505   7.765  0.4657  1.1544 -0.7233
 2966TIP3   OH230456   6.433   2.648   8.255  0.1316  0.3232  0.1388
 2966TIP3    H130457   6.442   2.554   8.241  0.0304  0.2584  0.5096
 2966TIP3    H230458   6.343   2.668   8.229 -0.1499  0.1520  0.9475
 2967TIP3   OH230459   3.378   0.954   0.434  0.4428 -0.0950  0.8730
 2967TIP3    H130460   3.449   1.017   0.449  1.4063 -0.5558 -1.4130
 2967TIP3    H230461   3.407   0.903   0.359 -2.6696  0.2401 -0.6993
 2968TIP3   OH230462   0.262   0.317   1.498 -0.0226  0.1054  0.4519
 2968TIP3    H130463   0.179   0.360   1.521 -1.0611 -2.2738  1.5948
 2968TIP3    H230464   0.260   0.236   1.548  2.6064 -0.4607 -0.2521
 2969TIP3   OH230465   1.673   1.580   2.162 -0.2063 -0.2128  0.5224
 2969TIP3    H130466   1.636   1.668   2.159  0.4224  0.0327 -0.4813
 2969TIP3    H230467   1.734   1.583   2.236 -0.2981  0.1403  0.5880
 2970TIP3   OH230468   5.285   6.607   0.404  0.0722  0.3732  0.5857
 2970TIP3    H130469   5.246   6.556   0.475 -0.6367 -0.0668 -0.1009
 2970TIP3    H230470   5.363   6.645   0.443 -0.9434  1.1552  1.9652
 2971TIP3   OH230471   2.488   4.382   8.070 -0.2416  0.7007 -0.0264
 2971TIP3    H130472   2.454   4.410   7.985  0.0531 -1.5389 -0.9570
 2971TIP3    H230473   2.411   4.369   8.125 -0.5474  0.5657 -0.4894
 2972TIP3   OH230474   4.598   5.317   2.369  0.1250  0.2032 -0.4517
 2972TIP3    H130475   4.578   5.383   2.435  0.4033  0.8380 -0.9954
 2972TIP3    H230476   4.543   5.242   2.392 -1.3121  1.1613 -0.6987
 2973TIP3   OH230477   5.919   1.289   0.505  0.2202  0.4041  0.1452
 2973TIP3    H130478   5.992   1.232   0.531  0.4246  0.3475 -0.5250
 2973TIP3    H230479   5.962   1.370   0.477 -0.0142  0.5818  0.3062
 2974TIP3   OH230480   5.309   3.920   0.688  0.3612 -0.3754 -0.4408
 2974TIP3    H130481   5.328   4.002   0.733  0.0489  0.2854 -1.4782
 2974TIP3    H230482   5.393   3.891   0.654  0.8436 -1.5484  1.5856
 2975TIP3   OH230483   4.480   1.768   1.601 -0.2891 -0.6848 -0.5581
 2975TIP3    H130484   4.418   1.785   1.529 -0.3001 -2.2712 -0.9573
 2975TIP3    H230485   4.564   1.803   1.569 -0.4135 -0.8863 -1.1081
 2976TIP3   OH230486   5.578   5.366   1.623 -0.2501 -0.1151  0.1965
 2976TIP3    H130487   5.545   5.356   1.534 -2.5335 -1.4818  1.1085
 2976TIP3    H230488   5.533   5.298   1.673  0.5367  0.9654  2.5101
 2977TIP3   OH230489   4.968   4.624   1.044  0.4464  0.3540  0.6240
 2977TIP3    H130490   5.063   4.632   1.056  1.0422 -1.1418 -2.0969
 2977TIP3    H230491   4.953   4.529   1.041 -1.0523  0.5746  0.5393
 2978TIP3   OH230492   6.136   3.073   0.418  0.4744  0.0985  0.1710
 2978TIP3    H130493   6.137   3.143   0.483 -0.5064 -0.3947  0.7423
 2978TIP3    H230494   6.074   3.103   0.352  0.7580  0.1736 -0.0651
 2979TIP3   OH230495   1.086   2.474   0.281 -0.4657  0.5546 -0.2672
 2979TIP3    H130496   1.058   2.559   0.246  1.1610  1.1631 -0.1492
 2979TIP3    H230497   1.112   2.493   0.371 -1.2006 -0.3161  0.1429
 2980TIP3   OH230498   0.986   3.400   8.291  0.1866  0.1933  0.0674
 2980TIP3    H130499   1.027   3.360   8.215 -0.6191  0.9209 -0.7674
 2980TIP3    H230500   1.018   3.490   8.291  2.0772 -0.3732  1.9954
 2981TIP3   OH230501   2.116   0.697   1.524  0.1866 -0.4432  0.0849
 2981TIP3    H130502   2.131   0.712   1.617 -0.8964 -0.6110  0.2956
 2981TIP3    H230503   2.113   0.602   1.515 -0.2470 -0.4180 -0.0342
 2982TIP3   OH230504   1.858   0.330   8.596 -0.1151 -0.0076 -0.5834
 2982TIP3    H130505   1.934   0.344   8.538 -1.5552 -0.5104 -2.7291
 2982TIP3    H230506   1.821   0.246   8.567 -1.4729  0.2157  0.4143
 2983TIP3   OH230507   3.534   0.027   1.725 -0.3299  0.0880  0.4303
 2983TIP3    H130508   3.464   0.075   1.770  0.8051  1.7834  0.4691
 2983TIP3    H230509   3.612   0.045   1.776  0.6769  0.6919 -1.2384
 2984TIP3   OH230510   6.778   5.396   8.428  0.2768  0.4219  0.1145
 2984TIP3    H130511   6.699   5.449   8.415  0.0124 -0.1447 -0.6867
 2984TIP3    H230512   6.817   5.390   8.341 -0.4119 -1.7820 -0.1192
 2985TIP3   OH230513   0.587   5.896   1.749 -0.1342 -0.0408 -0.1811
 2985TIP3    H130514   0.498   5.893   1.712 -0.1864 -2.3969  0.0323
 2985TIP3    H230515   0.644   5.909   1.673 -0.5286 -0.4317 -0.5500
 2986TIP3   OH230516   2.228   1.561   3.724  0.6961 -0.7419  0.3413
 2986TIP3    H130517   2.178   1.579   3.804  1.4989  0.1928  0.6501
 2986TIP3    H230518   2.319   1.557   3.754  1.0235 -0.1780 -0.5600
 2987TIP3   OH230519   2.115   1.353   3.023  0.0665  0.1487 -0.2252
 2987TIP3    H130520   2.127   1.305   3.105  0.0777  1.5012  0.5964
 2987TIP3    H230521   2.110   1.285   2.955 -2.3784 -1.1384  1.1378
 2988TIP3   OH230522   6.121   4.020   1.314 -0.1454  0.0212  0.2700
 2988TIP3    H130523   6.052   4.066   1.361  0.2753 -0.7262  1.6590
 2988TIP3    H230524   6.124   3.933   1.354  1.1910 -0.1647 -0.1670
 2989TIP3   OH230525   3.203   1.152   2.388  0.2969 -0.2507  0.4792
 2989TIP3    H130526   3.298   1.152   2.374 -0.0059 -0.3802 -2.1774
 2989TIP3    H230527   3.169   1.209   2.319 -1.6035 -0.8340  0.8837
 2990TIP3   OH230528   4.965   4.155   2.061 -0.6562 -0.5610 -0.6473
 2990TIP3    H130529   4.907   4.139   1.987  0.0534 -1.1275 -1.1095
 2990TIP3    H230530   5.050   4.120   2.032 -0.6940 -2.1522  0.9627
 2991TIP3   OH230531   0.757   4.464   2.437  0.2525 -0.1618 -0.2672
 2991TIP3    H130532   0.787   4.512   2.515 -2.0653  0.0659  0.5493
 2991TIP3    H230533   0.779   4.373   2.455  0.8330  0.0438  0.1013
 2992TIP3   OH230534   5.269   2.441   3.848 -0.3375 -0.8041 -0.1112
 2992TIP3    H130535   5.311   2.523   3.873 -0.7283 -0.2758 -1.1096
 2992TIP3    H230536   5.191   2.435   3.903 -1.4317  0.5627 -1.4011
 2993TIP3   OH230537   0.213   0.938   0.636 -0.0640 -0.3340  0.0207
 2993TIP3    H130538   0.228   1.030   0.614  0.1309  0.2459  2.3218
 2993TIP3    H230539   0.196   0.896   0.552  1.1466  1.5409 -1.2426
 2994TIP3   OH230540   3.786   3.501   0.003 -0.3506 -0.1302  0.3907
 2994TIP3    H130541   3.824   3.434   0.059  0.7797  0.5525  0.4577
 2994TIP3    H230542   3.850   3.572   0.002 -1.0788  0.5463 -0.4684
 2995TIP3   OH230543   2.403   1.374   1.430 -0.0187  0.2414 -0.0785
 2995TIP3    H130544   2.413   1.281   1.453 -1.3203 -0.1923 -1.1199
 2995TIP3    H230545   2.483   1.415   1.461 -0.2834 -0.8603  2.2283
 2996TIP3   OH230546   3.304   6.162   2.875 -0.2214  0.0273 -0.5797
 2996TIP3    H130547   3.360   6.093   2.910 -0.4455  0.0663 -0.1311
 2996TIP3    H230548   3.322   6.238   2.932 -1.1585 -0.1292 -0.0540
 2997TIP3   OH230549   1.428   3.636   2.699 -0.5995 -0.0646  0.0831
 2997TIP3    H130550   1.519   3.666   2.697 -0.8025  0.5619 -0.0530
 2997TIP3    H230551   1.434   3.541   2.707  0.0785 -0.1190 -0.8976
 2998TIP3   OH230552   3.527   3.438   0.914 -0.5741 -0.5473  0.0538
 2998TIP3    H130553   3.580   3.401   0.985 -0.9230 -0.5780  0.2995
 2998TIP3    H230554   3.466   3.369   0.891  0.3717 -1.0035 -1.1575
 2999TIP3   OH230555   4.125   6.138   2.553 -0.0405  0.0424  0.0876
 2999TIP3    H130556   4.192   6.122   2.620 -0.9035 -0.2896  0.8992
 2999TIP3    H230557   4.070   6.060   2.555 -1.0000  0.6970  0.1043
 3000TIP3   OH230558   2.348   2.194   3.721 -0.3529 -0.5792 -0.7830
 3000TIP3    H130559   2.401   2.274   3.714 -1.2932 -0.0353 -2.3939
 3000TIP3    H230560   2.412   2.124   3.731  0.5683  0.2509 -0.6757
 3001TIP3   OH230561   3.917   3.555   0.277 -0.3430 -0.2837 -0.2046
 3001TIP3    H130562   3.937   3.462   0.267 -1.7178 -0.8365  1.6528
 3001TIP3    H230563   3.987   3.588   0.333  0.1923 -0.1499 -0.9328
 3002TIP3   OH230564   5.614   3.775   1.539  0.0720  0.1962 -0.2257
 3002TIP3    H130565   5.605   3.753   1.447  0.0931 -0.5346 -0.0587
 3002TIP3    H230566   5.603   3.692   1.585  1.1384  0.3663  0.3745
 3003TIP3   OH230567   2.865   1.466   2.051 -0.5805  0.2330 -0.5044
 3003TIP3    H130568   2.905   1.432   1.971 -1.8331  0.7543 -1.3967
 3003TIP3    H230569   2.936   1.507   2.098  0.0815  0.4753 -1.6734
 3004TIP3   OH230570   0.749   3.620   2.530 -0.1186 -0.4482 -0.1545
 3004TIP3    H130571   0.823   3.563   2.509 -0.0428 -0.6859  0.7275
 3004TIP3    H230572   0.772   3.704   2.490  0.4755 -0.6057 -0.1619
 3005TIP3   OH230573   5.625   4.763   0.944 -0.1805 -0.4031  0.0089
 3005TIP3    H130574   5.541   4.717   0.945 -0.3858 -0.0345 -0.2373
 3005TIP3    H230575   5.629   4.803   0.857 -0.5013  0.9581  0.6099
 3006TIP3   OH230576   5.743   2.169   8.361  0.0467  0.0207  0.1198
 3006TIP3    H130577   5.776   2.174   8.451  0.8223  1.1755 -0.2022
 3006TIP3    H230578   5.649   2.151   8.371  0.2422 -0.5111  1.1330
 3007TIP3   OH230579   0.019   4.294   0.022  0.2319  0.4654 -0.2034
 3007TIP3    H130580  -0.025   4.214  -0.006  0.6111  0.3428 -0.4592
 3007TIP3    H230581   0.051   4.333  -0.059  0.1532  0.8150 -0.0673
 3008TIP3   OH230582   2.322   2.644   1.345 -0.0125  0.3485 -0.3903
 3008TIP3    H130583   2.396   2.657   1.286  0.4539  0.9178  0.2994
 3008TIP3    H230584   2.362   2.629   1.431 -0.6855  0.8565  0.0297
 3009TIP3   OH230585   4.860   6.340   2.805  0.2989  0.2140 -0.2216
 3009TIP3    H130586   4.844   6.383   2.722 -1.2739  1.2747  0.5922
 3009TIP3    H230587   4.887   6.251   2.781 -0.4469  0.3897 -1.8425
 3010TIP3   OH230588   3.323   6.242   0.998  0.8200  0.0694 -0.4295
 3010TIP3    H130589   3.328   6.316   1.058 -0.2411  0.2760 -0.5812
 3010TIP3    H230590   3.255   6.185   1.034  0.6114 -0.1129 -1.0859
 3011TIP3   OH230591   1.893   2.938   1.328 -0.6678 -0.4978 -0.1889
 3011TIP3    H130592   1.931   3.025   1.339 -1.1315 -0.3284  0.1038
 3011TIP3    H230593   1.854   2.918   1.413 -2.1930 -0.2045 -0.8001
 3012TIP3   OH230594   5.374   0.193   3.454 -0.4403 -0.7132 -0.2947
 3012TIP3    H130595   5.284   0.194   3.422 -1.1273 -2.7133  1.3532
 3012TIP3    H230596   5.389   0.103   3.481  2.5660 -0.7487 -1.7287
 3013TIP3   OH230597   5.857   6.800   2.243 -0.1145 -0.0241  0.0135
 3013TIP3    H130598   5.903   6.851   2.310  0.4358 -0.5684  0.0604
 3013TIP3    H230599   5.881   6.709   2.261  0.1350 -0.1739 -0.9766
 3014TIP3   OH230600   5.295   0.703   8.707  0.2248 -0.3800  0.4350
 3014TIP3    H130601   5.313   0.738   8.620  1.0657  0.2023  0.8256
 3014TIP3    H230602   5.243   0.624   8.691  1.4710 -1.0177 -0.6794
 3015TIP3   OH230603   0.847   5.757   0.046 -0.2192 -0.1641 -0.3612
 3015TIP3    H130604   0.771   5.705   0.074 -1.4228  1.4976 -0.3739
 3015TIP3    H230605   0.867   5.812   0.122  0.3126  0.1368 -0.7201
 3016TIP3   OH230606   2.366   1.251   1.101  0.5377 -0.1876  0.1782
 3016TIP3    H130607   2.298   1.302   1.144  1.1161 -0.3379  1.3039
 3016TIP3    H230608   2.369   1.168   1.149  1.4652 -0.2106  0.1042
 3017TIP3   OH230609   0.009   4.522   0.157  0.5549  0.3588  0.0375
 3017TIP3    H130610   0.036   4.442   0.113 -0.4438  0.9533 -1.7653
 3017TIP3    H230611  -0.018   4.493   0.244  2.3700 -0.8986  0.2256
 3018TIP3   OH230612   3.034   5.350   8.336  0.6324 -0.5462  0.4733
 3018TIP3    H130613   3.037   5.409   8.411  0.3558  1.8084 -1.2375
 3018TIP3    H230614   3.125   5.329   8.317  0.8366  0.4309  0.3345
 3019TIP3   OH230615   1.361   5.665   0.047  0.4260  0.2485  0.6295
 3019TIP3    H130616   1.292   5.623  -0.006  0.9064  0.8835 -0.5374
 3019TIP3    H230617   1.320   5.744   0.081  1.0962  1.7705 -1.7976
 3020TIP3   OH230618   3.720   6.093   8.207 -0.2044 -0.0701 -0.2013
 3020TIP3    H130619   3.680   6.092   8.120 -0.8710 -1.0034  0.0978
 3020TIP3    H230620   3.795   6.151   8.198  0.4890 -1.1308 -1.7403
 3021TIP3   OH230621   4.689   5.420   8.407 -0.1054 -0.8561 -0.1578
 3021TIP3    H130622   4.610   5.382   8.445  0.8062 -1.8833  0.7825
 3021TIP3    H230623   4.664   5.510   8.385 -1.0669 -0.6142  1.6977
 3022TIP3   OH230624   6.444   4.118   0.044 -0.1159  0.0874 -0.3710
 3022TIP3    H130625   6.443   4.095   0.137  0.7764 -0.7456 -0.5440
 3022TIP3    H230626   6.537   4.121   0.022 -0.3286 -0.2062 -1.3486
 3023TIP3   OH230627   5.084   4.006   1.621  0.5551  0.7032 -0.0603
 3023TIP3    H130628   5.054   3.934   1.566 -0.6337  1.8447 -0.9714
 3023TIP3    H230629   5.178   3.994   1.627  0.5943  0.0442 -1.6099
 3024TIP3   OH230630   1.275   4.490   8.596  0.0901  0.1426 -0.4073
 3024TIP3    H130631   1.304   4.404   8.566  0.2227 -0.6133  1.7157
 3024TIP3    H230632   1.186   4.475   8.627  0.7405  0.2994  1.6705
 3025TIP3   OH230633   6.685   6.594   0.568  0.5587  0.7889  0.0511
 3025TIP3    H130634   6.708   6.608   0.659 -1.9501  3.1977  0.4273
 3025TIP3    H230635   6.739   6.657   0.519  1.1251  0.2384 -0.0496
 3026TIP3   OH230636   2.359   2.167   3.353  0.1161 -0.1503  0.5982
 3026TIP3    H130637   2.381   2.261   3.355 -1.1244  0.2045 -0.5245
 3026TIP3    H230638   2.270   2.163   3.389 -0.1999 -0.7530 -0.2036
 3027TIP3   OH230639   4.267   3.019   1.985  0.1743  0.0210  0.0456
 3027TIP3    H130640   4.338   2.962   2.012  0.1028 -0.3682 -0.5647
 3027TIP3    H230641   4.187   2.973   2.011  0.1317  0.1399  0.1260
 3028TIP3   OH230642   3.637   5.040   1.884  0.6258 -0.1722  0.5441
 3028TIP3    H130643   3.695   5.113   1.904  0.3330  0.3016 -0.2908
 3028TIP3    H230644   3.673   4.967   1.934  1.4652  0.3127  0.6722
 3029TIP3   OH230645   2.079   5.072   0.228 -0.0506 -0.1978  0.5573
 3029TIP3    H130646   2.108   5.114   0.309 -1.8326  0.2481  1.0134
 3029TIP3    H230647   2.149   5.011   0.206  2.1387  2.2112  0.4655
 3030TIP3   OH230648   5.721   0.049   1.482 -0.5750  0.1863 -0.4159
 3030TIP3    H130649   5.720   0.103   1.561 -0.1082 -0.4513  0.0412
 3030TIP3    H230650   5.750  -0.037   1.513 -0.1978 -0.0164 -1.3180
 3031TIP3   OH230651   2.396   4.486   1.591 -0.4920 -0.0985 -0.2114
 3031TIP3    H130652   2.451   4.418   1.551  1.1591  0.3610  1.1655
 3031TIP3    H230653   2.448   4.518   1.665 -2.0204  1.4008  0.2620
 3032TIP3   OH230654   6.128   3.486   0.443  0.3817  0.5243 -0.1138
 3032TIP3    H130655   6.043   3.449   0.417  0.1331  0.6529  0.5047
 3032TIP3    H230656   6.139   3.562   0.386  0.2770  0.2675 -0.4834
 3033TIP3   OH230657   5.456   6.400   2.226 -0.0614  0.2674  0.1874
 3033TIP3    H130658   5.410   6.483   2.214 -0.8069  0.0699  1.5006
 3033TIP3    H230659   5.535   6.408   2.173 -1.6489  0.5697 -2.3305
 3034TIP3   OH230660   2.927   3.336   0.367 -0.4791 -0.2030 -0.4332
 3034TIP3    H130661   2.838   3.363   0.389  0.3030  3.0040 -0.6789
 3034TIP3    H230662   2.949   3.389   0.290  1.1908 -1.9727 -1.2511
 3035TIP3   OH230663   0.478   0.308   1.734  0.1759 -0.5220 -0.0858
 3035TIP3    H130664   0.524   0.359   1.667 -0.4431  0.8205  0.4831
 3035TIP3    H230665   0.391   0.346   1.739  0.7358  0.6586  2.7180
 3036TIP3   OH230666   2.683   3.621   1.330  0.1019  0.1254 -0.4460
 3036TIP3    H130667   2.698   3.529   1.308 -0.6224 -0.2253  0.4821
 3036TIP3    H230668   2.616   3.619   1.398 -0.5948  1.3970 -1.0671
 3037TIP3   OH230669   1.755   3.309   1.599  0.1690  0.8892 -0.1074
 3037TIP3    H130670   1.696   3.314   1.524  1.1813  2.0629 -0.8613
 3037TIP3    H230671   1.713   3.247   1.659  0.2811 -1.6497 -2.4527
 3038TIP3   OH230672   3.565   3.579   2.157  0.0273  0.0144  0.0703
 3038TIP3    H130673   3.495   3.637   2.187 -0.9193  0.2921 -2.4028
 3038TIP3    H230674   3.620   3.634   2.101  2.3365 -0.1900  1.9711
 3039TIP3   OH230675   4.508   6.699   3.204  0.3378 -0.0246 -0.7551
 3039TIP3    H130676   4.592   6.655   3.198 -0.4392 -1.9120  0.7747
 3039TIP3    H230677   4.525   6.775   3.259  0.9918 -0.5996 -0.1378
 3040TIP3   OH230678   2.909   2.501   0.955 -0.2109 -0.3144  0.0971
 3040TIP3    H130679   2.896   2.428   1.015 -1.5441 -1.4459 -1.4630
 3040TIP3    H230680   2.875   2.469   0.871  0.9262  1.4347 -1.0994
 3041TIP3   OH230681   3.868   2.853   1.760  0.0015  0.5554  0.0984
 3041TIP3    H130682   3.841   2.932   1.805 -2.2105 -0.0523 -0.0639
 3041TIP3    H230683   3.898   2.794   1.829 -0.3682  0.7603  0.4314
 3042TIP3   OH230684   6.670   0.727   1.390  0.2144 -0.1037 -0.0089
 3042TIP3    H130685   6.580   0.720   1.359  1.0173 -0.0914 -2.6149
 3042TIP3    H230686   6.674   0.669   1.466 -1.5100 -1.6796 -1.0291
 3043TIP3   OH230687   1.648   1.352   3.217 -0.7121 -0.3026 -0.0247
 3043TIP3    H130688   1.738   1.362   3.186 -0.1207 -0.5072  1.5267
 3043TIP3    H230689   1.595   1.402   3.154  0.2924 -1.3565 -1.7686
 3044TIP3   OH230690   0.349   0.637   3.243  0.2748 -0.5678 -0.3009
 3044TIP3    H130691   0.411   0.568   3.222  0.9447 -0.0258 -0.1351
 3044TIP3    H230692   0.403   0.708   3.278 -0.6651 -1.1504  2.6499
 3045TIP3   OH230693   1.549   4.017   0.972 -0.1272 -0.9916 -0.2734
 3045TIP3    H130694   1.530   4.093   1.026 -2.1138 -2.2829  0.9575
 3045TIP3    H230695   1.466   3.995   0.931 -0.1620 -3.6602  1.0099
 3046TIP3   OH230696   6.249   0.193   1.282  0.5901 -0.1309 -0.2106
 3046TIP3    H130697   6.283   0.252   1.349 -0.9387 -1.0906  1.5061
 3046TIP3    H230698   6.171   0.237   1.248  0.3838 -0.4039 -0.0995
 3047TIP3   OH230699   4.853   2.046   2.205  0.2422 -0.6316  0.5290
 3047TIP3    H130700   4.829   2.017   2.293 -0.6383 -1.4881  0.0226
 3047TIP3    H230701   4.937   2.004   2.188  1.3523  0.9967  1.6368
 3048TIP3   OH230702   0.623   0.003   3.250  0.0138 -0.2553 -0.4453
 3048TIP3    H130703   0.705   0.032   3.288  0.8007 -1.7934 -0.9146
 3048TIP3    H230704   0.621   0.044   3.163 -0.8708  1.6709  0.4075
 3049TIP3   OH230705   0.521   5.466   2.866  0.2247 -0.7043 -0.0745
 3049TIP3    H130706   0.581   5.518   2.813  0.2364 -1.2144 -0.5723
 3049TIP3    H230707   0.469   5.531   2.914  1.5731 -0.2545  0.8474
 3050TIP3   OH230708   1.658   6.048   2.002 -0.1064  0.0882  0.1116
 3050TIP3    H130709   1.571   6.059   2.041 -0.3509 -0.8611 -0.1380
 3050TIP3    H230710   1.650   5.969   1.948  1.1127 -0.4632  0.7037
 3051TIP3   OH230711   4.878   0.694   2.799  0.1902  0.7888  0.1780
 3051TIP3    H130712   4.829   0.613   2.815  2.3938 -0.4225  1.1268
 3051TIP3    H230713   4.930   0.675   2.721 -0.2427  1.7904 -0.3701
 3052TIP3   OH230714   6.743   2.918   3.213  0.0265 -0.7509  0.7512
 3052TIP3    H130715   6.697   2.955   3.138 -1.5346  0.9619  2.4761
 3052TIP3    H230716   6.832   2.903   3.181 -0.6051 -0.1599 -1.4519
 3053TIP3   OH230717   6.709   5.353   2.838  0.3056 -0.1816 -1.0542
 3053TIP3    H130718   6.782   5.331   2.780 -1.1430 -0.4654 -2.8880
 3053TIP3    H230719   6.666   5.269   2.854 -0.9745  0.2547 -2.0071
 3054TIP3   OH230720   4.302   6.426   1.710  0.5425  0.0754 -0.4062
 3054TIP3    H130721   4.311   6.346   1.659 -0.6450  0.5203 -1.3718
 3054TIP3    H230722   4.334   6.495   1.652 -0.1822  0.5109 -0.2945
 3055TIP3   OH230723   2.959   4.785   1.063  0.5184  0.4909 -0.0688
 3055TIP3    H130724   3.008   4.804   1.144  0.6791  2.4848 -0.5761
 3055TIP3    H230725   2.867   4.798   1.088  0.6223  1.9520 -0.3891
 3056TIP3   OH230726   3.024   0.614   2.346 -0.3881 -0.0181 -0.0556
 3056TIP3    H130727   3.052   0.527   2.373  0.7674  0.5137  0.5233
 3056TIP3    H230728   3.103   0.655   2.311 -0.2993  1.6569  1.9421
 3057TIP3   OH230729   6.255   2.243   1.709 -0.4046  0.1121 -0.0184
 3057TIP3    H130730   6.296   2.207   1.630 -0.1935 -1.0922  0.6115
 3057TIP3    H230731   6.162   2.247   1.687 -0.4580 -1.0094 -0.0563
 3058TIP3   OH230732   3.020   2.854   1.660  0.0872  0.3757  0.0085
 3058TIP3    H130733   3.034   2.797   1.584 -1.7395 -0.4006  0.1885
 3058TIP3    H230734   3.107   2.885   1.683  0.8799 -0.6260 -1.4354
 3059TIP3   OH230735   2.778   2.463   0.422 -0.3693 -0.4627  0.2069
 3059TIP3    H130736   2.710   2.495   0.362 -0.6864 -0.1060  0.7405
 3059TIP3    H230737   2.858   2.462   0.370 -0.0630  2.4429  0.4660
 3060TIP3   OH230738   6.504   6.561   1.869  0.2014  0.3498 -0.4544
 3060TIP3    H130739   6.588   6.604   1.855 -0.1894  0.6218 -2.2293
 3060TIP3    H230740   6.441   6.617   1.825 -1.4445  1.7740  3.3279
 3061TIP3   OH230741   1.193   3.723   1.557  0.3851  0.0184  0.0361
 3061TIP3    H130742   1.244   3.679   1.489 -1.5208 -0.4991 -1.1225
 3061TIP3    H230743   1.181   3.812   1.524  1.3781  0.4662  0.8105
 3062TIP3   OH230744   3.478   3.002   0.204 -0.2279  0.2152 -0.0259
 3062TIP3    H130745   3.547   3.068   0.197 -1.2775  1.1801 -2.8463
 3062TIP3    H230746   3.410   3.043   0.256 -0.5705  1.1572 -1.1695
 3063TIP3   OH230747   5.102   0.674   1.949 -0.2159  0.1429  0.7275
 3063TIP3    H130748   5.035   0.668   2.016 -0.3938  1.1025  0.6397
 3063TIP3    H230749   5.063   0.631   1.872  0.3419 -1.8213  1.4651
 3064TIP3   OH230750   2.496   1.496   3.811 -0.2632  0.1785 -0.2299
 3064TIP3    H130751   2.532   1.407   3.815 -2.5713 -0.7851  1.0172
 3064TIP3    H230752   2.550   1.547   3.872  1.6303 -0.0759 -1.5874
 3065TIP3   OH230753   1.649   0.919   0.021 -0.2524 -0.2729 -0.2487
 3065TIP3    H130754   1.655   0.824   0.032  0.7410 -0.2481 -0.4854
 3065TIP3    H230755   1.616   0.951   0.105  1.9532 -0.5994  0.8236
 3066TIP3   OH230756   6.787   5.582   0.861 -0.2211 -0.4474  0.4344
 3066TIP3    H130757   6.698   5.551   0.880 -0.0068 -1.4383 -0.1514
 3066TIP3    H230758   6.835   5.570   0.943 -0.2669 -1.2257  0.3519
 3067TIP3   OH230759   2.208   4.406   8.087  0.0841 -0.0393  0.1614
 3067TIP3    H130760   2.174   4.328   8.131 -3.1704 -0.7149 -3.0256
 3067TIP3    H230761   2.130   4.454   8.060  1.9060  2.0762 -1.7743
 3068TIP3   OH230762   2.524   2.428   1.459 -0.0620 -1.0695  0.3229
 3068TIP3    H130763   2.513   2.386   1.545 -0.6852 -0.1074  0.7303
 3068TIP3    H230764   2.452   2.393   1.407 -2.2510  1.3979  1.4656
 3069TIP3   OH230765   5.685   3.736   8.435  0.1522  0.4084  0.2712
 3069TIP3    H130766   5.779   3.721   8.423  0.1552 -0.1588  0.9246
 3069TIP3    H230767   5.680   3.812   8.494  0.2278 -0.1424  1.0047
 3070TIP3   OH230768   0.197   5.025   2.786  0.1725 -0.1944  0.6350
 3070TIP3    H130769   0.244   5.086   2.844 -0.0909  0.9699 -0.3398
 3070TIP3    H230770   0.255   5.015   2.710 -0.3156 -0.2182  0.2596
 3071TIP3   OH230771   6.672   1.362   8.536 -0.4088 -0.5483 -0.1542
 3071TIP3    H130772   6.645   1.348   8.445 -1.8492 -0.2175  0.1946
 3071TIP3    H230773   6.635   1.287   8.583  1.2124 -1.2730  0.0209
 3072TIP3   OH230774   3.628   2.476   3.851 -0.3689  0.2391  0.3353
 3072TIP3    H130775   3.682   2.554   3.860  0.6469 -0.4810  0.7766
 3072TIP3    H230776   3.678   2.408   3.896 -0.7621 -0.8818 -0.8590
 3073TIP3   OH230777   4.135   3.431   2.569 -0.1386  0.1758  0.0383
 3073TIP3    H130778   4.065   3.492   2.543 -0.8712 -0.1649  1.1277
 3073TIP3    H230779   4.203   3.488   2.607 -0.9621  0.3317  1.3643
 3074TIP3   OH230780   0.403   5.474   2.268 -0.2733  0.6381 -0.2474
 3074TIP3    H130781   0.435   5.495   2.180 -3.4833 -0.6720 -1.9112
 3074TIP3    H230782   0.423   5.381   2.279 -2.3221  0.0770 -0.8705
 3075TIP3   OH230783   0.975   0.806   1.644 -0.4445  0.0277  0.5223
 3075TIP3    H130784   1.004   0.846   1.726 -0.3445  1.7320 -0.2958
 3075TIP3    H230785   0.930   0.726   1.671  0.4363  0.0413  2.1609
 3076TIP3   OH230786   6.744   2.323   1.897 -0.0546  0.5236  0.3065
 3076TIP3    H130787   6.800   2.258   1.939  1.6356  2.3787  1.1177
 3076TIP3    H230788   6.658   2.282   1.892  1.3539 -2.5090 -1.1226
 3077TIP3   OH230789   3.371   3.032   8.342  0.9955 -0.1677 -0.1836
 3077TIP3    H130790   3.409   2.983   8.269 -0.3484 -0.6934 -0.5715
 3077TIP3    H230791   3.421   3.003   8.419 -0.0317 -2.5926 -0.3114
 3078TIP3   OH230792   5.392   2.732   0.960  0.6676 -0.2893 -0.3981
 3078TIP3    H130793   5.415   2.641   0.941  0.2274 -0.7785  1.2256
 3078TIP3    H230794   5.344   2.727   1.042 -0.6748  1.2588 -1.0360
 3079TIP3   OH230795   0.872   1.815   1.153 -0.1676 -0.7591 -0.1793
 3079TIP3    H130796   0.808   1.847   1.217  0.8355  1.4836 -0.2310
 3079TIP3    H230797   0.827   1.742   1.110 -2.2982  0.0722  0.4890
 3080TIP3   OH230798   6.547   4.040   1.174  0.7802  0.1297  0.3498
 3080TIP3    H130799   6.524   4.127   1.141 -0.1562 -0.4693 -0.6339
 3080TIP3    H230800   6.527   4.044   1.267  0.0157  0.7313  0.1711
 3081TIP3   OH230801   0.835   4.304   2.758 -0.8489  0.0444 -0.0996
 3081TIP3    H130802   0.886   4.296   2.677 -3.0926  0.0628 -1.6058
 3081TIP3    H230803   0.895   4.344   2.821  1.1736 -0.5750 -1.5400
 3082TIP3   OH230804   0.098   0.213   0.772 -0.3272  0.0437 -0.3282
 3082TIP3    H130805   0.104   0.124   0.740 -1.4337 -0.3485  0.5098
 3082TIP3    H230806   0.030   0.254   0.719 -1.1613 -0.1885  0.5377
 3083TIP3   OH230807   3.070   4.107   0.169 -0.2803 -0.0409 -0.3758
 3083TIP3    H130808   3.123   4.032   0.196 -0.3307  0.0920  0.0979
 3083TIP3    H230809   2.982   4.070   0.157 -0.0706 -0.2813 -1.2587
 3084TIP3   OH230810   1.693   0.788   8.047 -0.1155 -0.3262  0.0414
 3084TIP3    H130811   1.751   0.787   7.971 -1.2725 -0.5610 -0.8765
 3084TIP3    H230812   1.616   0.738   8.019 -0.8054  0.0558  1.1726
 3085TIP3   OH230813   5.669   2.969   1.178 -0.2376  0.0588 -0.0164
 3085TIP3    H130814   5.659   2.875   1.188 -1.4589  0.1801  0.1233
 3085TIP3    H230815   5.737   2.980   1.112  0.5661 -0.8957  0.6390
 3086TIP3   OH230816   4.584   0.584   4.035 -0.7156  0.0496  0.3596
 3086TIP3    H130817   4.598   0.638   3.957  1.1448  1.2636  1.4426
 3086TIP3    H230818   4.557   0.646   4.103 -0.9259 -0.7641  1.0407
 3087TIP3   OH230819   6.554   0.939   1.743 -0.0218  0.1573 -0.0410
 3087TIP3    H130820   6.639   0.925   1.702 -0.1627  0.6303 -0.4948
 3087TIP3    H230821   6.573   0.989   1.822  0.2535 -0.7981  0.5229
 3088TIP3   OH230822   4.390   0.389   3.168 -0.0802  0.0113  0.1311
 3088TIP3    H130823   4.436   0.467   3.199  0.0356  0.5333 -1.2873
 3088TIP3    H230824   4.326   0.422   3.105  0.7243 -1.1360 -1.3314
 3089TIP3   OH230825   1.020   3.673   0.549  0.4757  0.1183  0.4246
 3089TIP3    H130826   0.976   3.696   0.467  1.1806 -2.8389 -0.9303
 3089TIP3    H230827   1.113   3.679   0.528  0.6664 -0.1566  1.1794
 3090TIP3   OH230828   0.354   5.966   7.642 -0.0376  0.3705 -0.1591
 3090TIP3    H130829   0.440   5.996   7.615  0.3501  0.4646  1.1211
 3090TIP3    H230830   0.295   5.998   7.574  0.9353  0.2365 -1.0904
 3091TIP3   OH230831   2.573   4.651   3.177  0.0203  0.7637 -0.5431
 3091TIP3    H130832   2.657   4.684   3.146 -0.1833  1.3292 -0.5185
 3091TIP3    H230833   2.575   4.663   3.272  0.3483 -0.2697 -0.4076
 3092TIP3   OH230834   3.172   2.290   3.380  0.3185  0.2076 -0.2083
 3092TIP3    H130835   3.119   2.217   3.349 -0.2362  0.4975  0.0369
 3092TIP3    H230836   3.192   2.340   3.300 -1.7617  1.3823 -0.0704
 3093TIP3   OH230837   4.771   0.241   0.221 -0.2535 -0.2113 -0.4416
 3093TIP3    H130838   4.727   0.250   0.136 -0.0641  1.0918 -0.4324
 3093TIP3    H230839   4.839   0.176   0.206 -0.1280  0.1150 -1.3393
 3094TIP3   OH230840   2.610   0.641   2.760 -0.6287 -0.0551 -0.3317
 3094TIP3    H130841   2.552   0.717   2.764  0.3944  0.7387 -0.0582
 3094TIP3    H230842   2.570   0.577   2.819 -1.9973 -0.1002 -1.2634
 3095TIP3   OH230843   2.769   4.051   0.039  0.8499 -0.4189 -0.1256
 3095TIP3    H130844   2.690   3.997   0.042  0.8774 -0.4563 -0.0885
 3095TIP3    H230845   2.820   4.015  -0.034  1.5366 -1.3557  0.7853
 3096TIP3   OH230846   2.271   2.621   3.302  0.2891 -0.1581 -0.2842
 3096TIP3    H130847   2.204   2.689   3.303 -0.2732 -0.6806 -1.2350
 3096TIP3    H230848   2.353   2.669   3.288 -0.3283  0.2160 -3.3345
 3097TIP3   OH230849   5.872   4.861   2.668 -0.2659  0.5063  0.4675
 3097TIP3    H130850   5.839   4.940   2.713 -1.7581  0.4746 -0.4972
 3097TIP3    H230851   5.910   4.894   2.587  2.3234  0.5497  1.6077
 3098TIP3   OH230852   5.215   3.392   2.831  0.5479  0.0602 -1.0243
 3098TIP3    H130853   5.164   3.347   2.899  0.6960  0.1425 -0.8565
 3098TIP3    H230854   5.182   3.482   2.832  0.6577  0.0997 -0.9537
 3099TIP3   OH230855   4.370   3.739   1.681  0.3180  0.0770 -0.2516
 3099TIP3    H130856   4.303   3.685   1.641  0.2437  0.1142 -0.1760
 3099TIP3    H230857   4.451   3.690   1.668  0.2114 -0.1911  0.0748
 3100TIP3   OH230858   6.131   1.317   3.889 -0.7531 -0.3084  0.0543
 3100TIP3    H130859   6.206   1.258   3.884 -1.7816 -1.6250 -0.7622
 3100TIP3    H230860   6.123   1.338   3.982 -1.2333 -2.6934  0.6047
 3101TIP3   OH230861   1.351   2.409   2.181 -0.0436 -0.2238  0.7493
 3101TIP3    H130862   1.445   2.390   2.175 -0.1804 -0.9084  0.6668
 3101TIP3    H230863   1.331   2.457   2.101  0.2086 -0.1939  0.7026
 3102TIP3   OH230864   6.774   2.557   2.032 -0.0451  0.2731 -0.0824
 3102TIP3    H130865   6.751   2.466   2.012 -1.7065  0.4819  0.6506
 3102TIP3    H230866   6.791   2.557   2.127 -0.2307  0.7534 -0.0463
 3103TIP3   OH230867   2.622   1.350   1.161  0.3261 -0.0419 -0.6778
 3103TIP3    H130868   2.675   1.342   1.082  0.8023 -2.0920 -0.2242
 3103TIP3    H230869   2.546   1.294   1.145  0.8431 -1.1906  0.5784
 3104TIP3   OH230870   4.693   2.986   8.729  0.2893  0.4964 -0.3270
 3104TIP3    H130871   4.641   2.963   8.652  0.0067  1.2980 -0.3800
 3104TIP3    H230872   4.671   2.919   8.793  1.0641 -0.6124 -1.1641
 3105TIP3   OH230873   5.827   0.303   1.282  0.1897  0.1484 -0.5923
 3105TIP3    H130874   5.788   0.326   1.366 -0.3848 -1.0901 -0.5007
 3105TIP3    H230875   5.767   0.341   1.217 -0.4783 -0.6095 -0.4396
 3106TIP3   OH230876   2.234   1.698   7.995  0.5180  0.4476 -0.6297
 3106TIP3    H130877   2.240   1.604   8.012 -1.0798  0.7082  1.9515
 3106TIP3    H230878   2.291   1.713   7.919  0.9874 -2.5350 -0.9736
 3107TIP3   OH230879   3.053   3.721   3.413 -0.0369 -0.0721 -0.1711
 3107TIP3    H130880   3.117   3.677   3.470 -2.2498 -1.6865  1.2057
 3107TIP3    H230881   3.014   3.788   3.469 -1.2750 -0.7655 -0.1755
 3108TIP3   OH230882   4.840   2.913   8.357  0.1461 -0.7169  1.0486
 3108TIP3    H130883   4.826   2.877   8.269 -0.9974 -1.4866  1.5126
 3108TIP3    H230884   4.882   2.997   8.342 -3.2565  0.9223 -0.4885
 3109TIP3   OH230885   2.179   3.770   7.433 -0.6328  0.2080 -0.2771
 3109TIP3    H130886   2.196   3.805   7.521  0.7070  0.2489 -0.5291
 3109TIP3    H230887   2.158   3.846   7.380  1.5271  0.6036 -0.6493
 3110TIP3   OH230888   6.414   6.320   8.710 -1.0361 -0.0913  0.8678
 3110TIP3    H130889   6.358   6.278   8.644 -0.0824 -2.1232  1.2657
 3110TIP3    H230890   6.492   6.347   8.662 -1.9575  2.0659  0.4599
 3111TIP3   OH230891   1.376   5.814   1.448 -0.0728 -0.5542 -0.0215
 3111TIP3    H130892   1.394   5.879   1.516  0.3413 -1.4217  0.7143
 3111TIP3    H230893   1.306   5.759   1.485  0.2823 -1.1442 -0.2175
 3112TIP3   OH230894   3.999   4.206   2.071  0.4832  0.1405 -0.7274
 3112TIP3    H130895   3.983   4.216   2.165 -1.0747  3.2160 -1.1577
 3112TIP3    H230896   4.082   4.159   2.065  0.1777 -0.9659  2.1360
 3113TIP3   OH230897   4.289   3.180   1.197  0.0508 -0.6803 -0.1300
 3113TIP3    H130898   4.369   3.229   1.219  0.0152 -0.4176 -0.5875
 3113TIP3    H230899   4.299   3.098   1.245  0.7995 -0.8247 -0.5092
 3114TIP3   OH230900   4.653   6.764   1.890 -0.3636  0.6017  0.1036
 3114TIP3    H130901   4.627   6.813   1.811  1.0151  0.1695 -0.6550
 3114TIP3    H230902   4.641   6.672   1.866  1.7329  0.3797 -0.2837
 3115TIP3   OH230903   4.032   0.044   2.392 -0.2857 -0.1760  0.0469
 3115TIP3    H130904   4.024   0.021   2.485 -2.4278 -0.9065 -0.2782
 3115TIP3    H230905   4.093  -0.021   2.357 -0.7479 -0.9268  0.6088
 3116TIP3   OH230906   2.029   6.387   0.023  0.0819  0.2407 -0.1416
 3116TIP3    H130907   2.100   6.388   0.088  0.0285  0.1695 -0.0836
 3116TIP3    H230908   2.042   6.306  -0.027 -0.8175 -0.5039  0.8024
 3117TIP3   OH230909   0.672   3.308   1.702  0.3951  0.1937 -0.0337
 3117TIP3    H130910   0.637   3.387   1.661  0.4049  0.6661  0.8477
 3117TIP3    H230911   0.743   3.280   1.644  1.1649  1.5025  0.2635
 3118TIP3   OH230912   0.177   3.911   0.608  0.3047 -0.1748  0.1650
 3118TIP3    H130913   0.153   3.943   0.695  0.8712 -0.5377  0.4638
 3118TIP3    H230914   0.198   3.819   0.621  0.8948 -0.1086 -0.2527
 3119TIP3   OH230915   0.151   1.442   0.221 -0.2101 -0.3744 -0.0326
 3119TIP3    H130916   0.231   1.393   0.201 -1.0321 -0.6944 -3.1668
 3119TIP3    H230917   0.181   1.522   0.264  1.9034 -0.2132 -1.6362
 3120TIP3   OH230918   6.804   5.862   1.087  0.3697  0.4511  0.0327
 3120TIP3    H130919   6.898   5.876   1.082  0.3437  0.1620 -1.8276
 3120TIP3    H230920   6.772   5.882   0.999 -1.2566  0.1499  0.5224
 3121TIP3   OH230921   5.055   0.972   2.744  0.3531  0.0396 -0.7908
 3121TIP3    H130922   4.966   1.006   2.733  1.3732  2.4801 -2.5554
 3121TIP3    H230923   5.090   0.967   2.655  2.3996  0.4217 -0.0626
 3122TIP3   OH230924   5.040   1.949   0.633  0.6549  0.6471  0.0797
 3122TIP3    H130925   5.032   1.865   0.680  2.5143  0.4094  0.0554
 3122TIP3    H230926   5.127   1.980   0.656  0.0016  2.5962  0.0715
 3123TIP3   OH230927   0.706   2.782   0.824 -0.3876  0.0974  0.1561
 3123TIP3    H130928   0.708   2.753   0.733  1.7159  4.4981 -1.4985
 3123TIP3    H230929   0.619   2.758   0.855 -0.8115 -2.4923 -2.5750
 3124TIP3   OH230930   0.186   2.852   3.148 -0.0596  0.8563  0.0404
 3124TIP3    H130931   0.190   2.756   3.141 -1.3484  0.7782  0.0654
 3124TIP3    H230932   0.272   2.877   3.183  0.7561 -0.1702 -1.1279
 3125TIP3   OH230933   2.209   4.573   1.398  0.1220  0.1648 -0.1165
 3125TIP3    H130934   2.264   4.519   1.454  1.4217  1.2393 -0.3155
 3125TIP3    H230935   2.263   4.648   1.376  0.6235 -1.1936 -4.6879
 3126TIP3   OH230936   1.623   1.739   0.976 -0.5056  0.5729  0.7800
 3126TIP3    H130937   1.551   1.790   0.937 -0.5339 -0.5527 -0.7055
 3126TIP3    H230938   1.632   1.662   0.920  1.6079  0.4744  1.1623
 3127TIP3   OH230939   2.936   5.005   0.797 -0.1406 -0.1032  0.0760
 3127TIP3    H130940   2.947   5.010   0.892 -0.3579  1.6112  0.0403
 3127TIP3    H230941   2.903   5.091   0.772  1.2281 -0.0468 -1.7308
 3128TIP3   OH230942   0.594   4.625   2.714  0.7255  0.0791  0.4768
 3128TIP3    H130943   0.562   4.539   2.689 -0.4392  0.0592  1.9291
 3128TIP3    H230944   0.685   4.626   2.684  1.1060 -2.0558  1.3935
 3129TIP3   OH230945   4.103   3.121   8.250  0.5224  0.3458 -0.4341
 3129TIP3    H130946   4.195   3.107   8.274  0.1805 -2.1888 -0.2933
 3129TIP3    H230947   4.086   3.057   8.181 -1.2823  0.3151 -0.0196
 3130TIP3   OH230948   3.004   2.481   1.331  0.2183  0.0488 -0.3779
 3130TIP3    H130949   3.015   2.412   1.397 -1.9580 -0.9554 -0.9767
 3130TIP3    H230950   3.035   2.441   1.250 -0.9560 -0.2485 -0.7062
 3131TIP3   OH230951   5.562   5.909   3.380  0.3144  0.1251  0.4069
 3131TIP3    H130952   5.635   5.913   3.319  0.8650 -3.2194  0.6442
 3131TIP3    H230953   5.597   5.864   3.457 -1.8493 -1.3645  0.6245
 3132TIP3   OH230954   3.243   1.431   1.596 -0.6434 -0.7326 -0.2548
 3132TIP3    H130955   3.305   1.502   1.581 -0.6997 -0.8333 -0.9919
 3132TIP3    H230956   3.159   1.475   1.612 -0.3808 -0.5939  0.8290
 3133TIP3   OH230957   0.541   1.130   0.017 -0.3623  0.0170  0.3190
 3133TIP3    H130958   0.510   1.065   0.080 -1.3678  0.6166  0.4504
 3133TIP3    H230959   0.614   1.086  -0.027 -1.5015 -1.5046 -0.1441
 3134TIP3   OH230960   2.684   5.967   0.723 -0.1930 -0.1211  0.0133
 3134TIP3    H130961   2.657   5.905   0.790  0.4357 -0.1827  0.2228
 3134TIP3    H230962   2.626   5.950   0.649 -0.1982 -0.7819  0.1627
 3135TIP3   OH230963   2.514   4.333   0.451 -0.4575 -0.1708 -0.3278
 3135TIP3    H130964   2.466   4.321   0.533 -1.0182  0.6920 -0.5197
 3135TIP3    H230965   2.603   4.355   0.477 -0.8836  1.1241  0.0665
 3136TIP3   OH230966   5.100   1.402   8.109  0.0580  0.2890 -0.2868
 3136TIP3    H130967   5.005   1.416   8.118  0.0446 -0.0508  0.1148
 3136TIP3    H230968   5.108   1.341   8.036 -0.0842 -0.3127  0.1924
 3137TIP3   OH230969   1.551   1.158   2.888  0.6333 -0.5035 -0.6994
 3137TIP3    H130970   1.492   1.108   2.943  0.5034 -0.7636 -1.0683
 3137TIP3    H230971   1.627   1.101   2.874  0.5410 -0.5535 -1.0176
 3138TIP3   OH230972   3.839   4.954   1.007 -0.4222 -0.2560 -0.0140
 3138TIP3    H130973   3.758   5.003   1.018 -0.3900 -0.4449  1.1632
 3138TIP3    H230974   3.865   4.971   0.917 -1.0346  0.9246  0.0156
 3139TIP3   OH230975   5.136   1.619   2.333  0.1829  0.4259 -0.0142
 3139TIP3    H130976   5.127   1.579   2.419  1.6519  0.5253  0.2209
 3139TIP3    H230977   5.165   1.547   2.276 -0.5881  0.4036 -0.3899
 3140TIP3   OH230978   0.953   6.597   8.296  0.4300  0.2030  0.0170
 3140TIP3    H130979   0.984   6.558   8.214  0.5698  1.8094 -0.7217
 3140TIP3    H230980   0.863   6.564   8.305 -0.2070  1.3020 -1.7010
 3141TIP3   OH230981   4.630   0.726   2.911  0.2493 -0.5780  0.3238
 3141TIP3    H130982   4.600   0.816   2.923 -0.9275 -0.5615 -2.1164
 3141TIP3    H230983   4.720   0.735   2.883  0.6097 -0.2767  1.5027
 3142TIP3   OH230984   4.117   1.043   8.723  0.2540 -0.3855  0.2790
 3142TIP3    H130985   4.032   1.080   8.749  0.5659 -0.4624  1.4602
 3142TIP3    H230986   4.097   0.954   8.697  0.0223 -0.5533  1.0015
 3143TIP3   OH230987   4.446   6.773   8.174  0.3196  0.5627 -0.8476
 3143TIP3    H130988   4.413   6.693   8.214 -0.9788  1.3503 -0.2514
 3143TIP3    H230989   4.373   6.835   8.180  2.1694  2.7330  1.3604
 3144TIP3   OH230990   2.011   6.464   3.285  0.2551  0.4920  0.2389
 3144TIP3    H130991   1.980   6.555   3.291  0.1451  0.5382 -0.8541
 3144TIP3    H230992   1.989   6.426   3.370  0.0177  1.4017  0.5983
 3145TIP3   OH230993   5.089   4.552   0.736  0.2477  0.0100 -0.1587
 3145TIP3    H130994   5.181   4.533   0.758  0.7407  0.9040 -1.3353
 3145TIP3    H230995   5.050   4.466   0.720  0.8629 -0.3842  0.3771
 3146TIP3   OH230996   4.681   2.014   2.438  0.6166 -0.0814  0.2083
 3146TIP3    H130997   4.598   2.061   2.437  0.9754  0.7731 -3.3218
 3146TIP3    H230998   4.656   1.922   2.443 -0.7528  0.0783 -2.1099
 3147TIP3   OH230999   4.945   6.711   0.277 -0.1016  0.4183 -0.5155
 3147TIP3    H131000   4.887   6.665   0.216  0.9069 -1.0544 -0.4088
 3147TIP3    H231001   5.005   6.760   0.220 -0.4445  0.6750 -0.6584
 3148TIP3   OH231002   0.091   4.362   0.620  0.1344  0.6254 -0.6367
 3148TIP3    H131003   0.061   4.416   0.694 -1.2265  0.6162 -1.1480
 3148TIP3    H231004   0.184   4.383   0.611  0.2316  0.9455  0.7986
 3149TIP3   OH231005   6.756   2.740   0.414  0.7117  0.5288 -0.5672
 3149TIP3    H131006   6.667   2.735   0.450  0.4091  2.4526 -0.9193
 3149TIP3    H231007   6.756   2.675   0.343  0.2041 -0.8090  0.6223
 3150TIP3   OH231008   0.992   4.075   2.973  0.1068 -0.4191  0.6540
 3150TIP3    H131009   0.897   4.063   2.973 -0.0329  0.5836  1.0237
 3150TIP3    H231010   1.027   3.991   3.001 -0.7461 -0.3845  1.8870
 3151TIP3   OH231011   6.358   0.867   8.719 -0.2973 -0.0866 -0.2345
 3151TIP3    H131012   6.407   0.837   8.642  0.0178 -0.8586  0.2517
 3151TIP3    H231013   6.396   0.818   8.792 -1.7565 -0.6486  0.1791
 3152TIP3   OH231014   2.499   4.111   3.570  0.0334  0.0742  0.1515
 3152TIP3    H131015   2.561   4.177   3.539 -1.2168  1.5181  0.5697
 3152TIP3    H231016   2.461   4.075   3.490 -0.9459  1.5684 -0.1050
 3153TIP3   OH231017   2.079   1.130   2.091  0.5818  0.0307 -0.0472
 3153TIP3    H131018   2.124   1.158   2.171 -0.0135  3.0070 -0.6027
 3153TIP3    H231019   2.018   1.063   2.120  1.0164  0.3867  1.8518
 3154TIP3   OH231020   0.506   5.150   1.120  0.7649 -0.8176  0.0090
 3154TIP3    H131021   0.535   5.235   1.086 -0.1743 -0.5442 -0.1140
 3154TIP3    H231022   0.586   5.097   1.121  1.4584  0.1933  0.4958
 3155TIP3   OH231023   1.662   0.514   8.560  0.0397  0.1958 -0.2316
 3155TIP3    H131024   1.663   0.542   8.651 -1.2073  1.5250 -0.5955
 3155TIP3    H231025   1.737   0.455   8.553  0.1900  0.1015  1.6277
 3156TIP3   OH231026   1.962   4.030   0.740 -0.6701  0.4463  0.7228
 3156TIP3    H131027   1.950   4.033   0.835 -1.0767  1.2063  0.6467
 3156TIP3    H231028   1.928   3.944   0.715 -2.0120  0.8593  1.0687
 3157TIP3   OH231029   2.623   1.707   1.697  0.6396  0.0403 -0.3880
 3157TIP3    H131030   2.558   1.744   1.756 -0.8435  1.5532 -2.7916
 3157TIP3    H231031   2.705   1.747   1.723  0.0392  0.6151  0.6562
 3158TIP3   OH231032   5.705   3.611   0.379 -0.4039 -0.1147 -0.3396
 3158TIP3    H131033   5.658   3.656   0.309 -1.5132  0.2838  0.6379
 3158TIP3    H231034   5.754   3.542   0.334 -0.3123  0.7427 -1.6154
 3159TIP3   OH231035   6.110   5.724   1.273 -0.3769  0.2002 -0.2372
 3159TIP3    H131036   6.078   5.717   1.364 -1.1639 -1.7042 -0.6027
 3159TIP3    H231037   6.076   5.646   1.230 -1.2522  1.7755 -2.5943
 3160TIP3   OH231038   6.119   2.764   2.074 -0.3739  0.6428 -0.1368
 3160TIP3    H131039   6.081   2.838   2.028 -0.3005  0.6800 -0.1381
 3160TIP3    H231040   6.050   2.733   2.132 -0.2839  0.9427  0.1335
 3161TIP3   OH231041   3.695   2.901   7.276  0.0582 -0.6246 -0.3048
 3161TIP3    H131042   3.633   2.905   7.204 -1.9626  0.8287  1.3727
 3161TIP3    H231043   3.746   2.981   7.269 -1.8427  0.8148  1.1835
 3162TIP3   OH231044   4.901   6.453   2.519 -0.1557  0.5962 -0.2446
 3162TIP3    H131045   4.936   6.539   2.542  0.6778  0.2919 -0.3365
 3162TIP3    H231046   4.972   6.410   2.471 -0.7773  0.0813 -0.7300
 3163TIP3   OH231047   5.953   0.825   0.103 -0.3065  0.3668  0.0482
 3163TIP3    H131048   6.026   0.828   0.165  0.6854  0.0394 -1.0762
 3163TIP3    H231049   5.975   0.754   0.043 -2.7114 -1.3296  1.0603
 3164TIP3   OH231050   0.841   6.053   8.680 -0.0847  0.2392 -0.0671
 3164TIP3    H131051   0.852   6.003   8.761 -0.5223 -1.9573 -1.2737
 3164TIP3    H231052   0.925   6.096   8.666  0.4769 -0.5482  0.7941
 3165TIP3   OH231053   5.955   4.548   8.559 -0.3816  0.4032  0.1679
 3165TIP3    H131054   5.861   4.544   8.542 -0.8055 -0.2609  2.2839
 3165TIP3    H231055   5.963   4.612   8.631  0.5952 -0.5413  0.9325
 3166TIP3   OH231056   0.101   1.252   1.052 -0.2416  0.7867 -0.3256
 3166TIP3    H131057   0.040   1.325   1.059 -0.7370  0.6023 -2.2428
 3166TIP3    H231058   0.051   1.182   1.010  1.1848  0.5703 -1.7895
 3167TIP3   OH231059   4.939   2.881   0.143 -0.4689 -0.0303  0.0072
 3167TIP3    H131060   4.873   2.873   0.212 -0.3004 -0.5080  0.1108
 3167TIP3    H231061   4.894   2.929   0.073 -1.8918 -2.8318 -1.1317
 3168TIP3   OH231062   5.000   0.530   0.298 -0.5437  0.1133 -0.6993
 3168TIP3    H131063   5.019   0.437   0.313 -0.4166 -0.1196 -2.1691
 3168TIP3    H231064   4.988   0.537   0.204 -0.1008  1.6938 -0.6594
 3169TIP3   OH231065   0.566   1.769   0.548 -0.3887 -0.9921  0.3390
 3169TIP3    H131066   0.566   1.703   0.617  3.1013 -0.4599  1.0097
 3169TIP3    H231067   0.611   1.727   0.475  4.1854  1.1643  1.5957
 3170TIP3   OH231068   1.745   4.561   3.227  0.3752 -0.2893 -0.3919
 3170TIP3    H131069   1.672   4.512   3.187 -0.5792  1.1464 -0.4614
 3170TIP3    H231070   1.741   4.537   3.320 -1.9693  1.8191  0.1569
 3171TIP3   OH231071   1.730   0.438   1.935  0.5884 -0.0304 -0.0536
 3171TIP3    H131072   1.668   0.509   1.950 -0.7973 -1.3488  0.6966
 3171TIP3    H231073   1.733   0.390   2.017 -0.0329 -1.9930 -1.1085
 3172TIP3   OH231074   2.962   5.996   0.377 -0.1092 -0.0332 -0.2682
 3172TIP3    H131075   2.888   5.938   0.396 -0.0538 -0.1355 -0.3601
 3172TIP3    H231076   3.031   5.937   0.347 -0.2451  0.1357 -0.9323
 3173TIP3   OH231077   3.550   0.504   1.187 -0.4451 -0.1335  0.4032
 3173TIP3    H131078   3.465   0.473   1.156 -0.9586 -1.5918  3.0425
 3173TIP3    H231079   3.541   0.509   1.282  2.0370  0.8963  0.6439
 3174TIP3   OH231080   2.070   4.270   0.371  0.0167  0.4686  0.3541
 3174TIP3    H131081   2.094   4.342   0.430  1.0620 -0.5018  1.1639
 3174TIP3    H231082   1.981   4.246   0.398  0.2460  0.4478  1.1137
 3175TIP3   OH231083   6.736   0.257   2.703  0.2231 -0.0017  0.0706
 3175TIP3    H131084   6.778   0.277   2.619 -0.1674 -0.0504 -0.1425
 3175TIP3    H231085   6.795   0.292   2.769  1.8136 -2.1071 -0.1034
 3176TIP3   OH231086   4.746   4.654   2.480 -0.2605  0.0062  0.2216
 3176TIP3    H131087   4.833   4.638   2.444  0.4697  0.3823  1.7389
 3176TIP3    H231088   4.702   4.569   2.477 -0.3390  0.0644 -1.7199
 3177TIP3   OH231089   4.595   3.124   8.050  0.3621  0.3800 -0.4821
 3177TIP3    H131090   4.591   3.031   8.071  2.2037  0.7364  1.9467
 3177TIP3    H231091   4.641   3.128   7.966 -0.8426 -0.8995 -1.2383
 3178TIP3   OH231092   4.857   3.371   1.858 -0.1465  0.4237 -0.5018
 3178TIP3    H131093   4.794   3.306   1.890  0.1603  0.5388  0.3417
 3178TIP3    H231094   4.817   3.456   1.879  0.4666  0.4963  0.3880
 3179TIP3   OH231095   3.955   4.122   0.451  0.6985 -0.3108  0.2793
 3179TIP3    H131096   3.976   4.154   0.363 -2.7078 -2.9478 -1.7491
 3179TIP3    H231097   3.986   4.032   0.451 -1.1008 -0.9659  0.9734
 3180TIP3   OH231098   2.803   3.519   2.110  0.3693 -0.1975  0.2445
 3180TIP3    H131099   2.890   3.544   2.142  0.6532 -0.5798 -0.2219
 3180TIP3    H231100   2.765   3.601   2.079  0.0044  0.2258  1.7232
 3181TIP3   OH231101   2.414   3.354   2.531  0.0549 -0.3320 -0.2493
 3181TIP3    H131102   2.375   3.267   2.532 -1.1369  0.1532 -1.6875
 3181TIP3    H231103   2.490   3.346   2.473  0.1102 -0.4694 -0.1583
 3182TIP3   OH231104   5.557   1.863   1.662  0.4493 -0.1944 -0.5651
 3182TIP3    H131105   5.494   1.793   1.642  2.1673 -1.6379 -1.2196
 3182TIP3    H231106   5.598   1.836   1.744  0.5206  0.5123 -0.3607
 3183TIP3   OH231107   5.237   6.041   2.253  0.0031  0.0170 -0.2508
 3183TIP3    H131108   5.217   6.108   2.188 -0.2797  1.4260  1.2133
 3183TIP3    H231109   5.202   6.077   2.335  2.4026 -0.5970  1.1285
 3184TIP3   OH231110   6.526   5.661   0.536  0.0132 -0.1865  0.4076
 3184TIP3    H131111   6.538   5.752   0.510  0.6364  0.1122  1.6237
 3184TIP3    H231112   6.452   5.663   0.596 -0.2582 -0.5555  0.0855
 3185TIP3   OH231113   4.670   3.603   2.699 -0.3034 -0.9655 -0.2593
 3185TIP3    H131114   4.626   3.625   2.781 -0.6802  0.9599 -0.9242
 3185TIP3    H231115   4.660   3.681   2.645  1.8840 -1.3313 -1.3262
 3186TIP3   OH231116   1.302   5.752   0.458  0.0289 -0.0802  0.0940
 3186TIP3    H131117   1.207   5.740   0.451  0.1409 -0.6256 -0.6026
 3186TIP3    H231118   1.323   5.722   0.547 -0.3374 -0.7760 -0.0432
 3187TIP3   OH231119   6.362   2.326   0.939 -0.0961  0.4967 -0.2168
 3187TIP3    H131120   6.286   2.349   0.886 -0.8846 -0.2569  0.5287
 3187TIP3    H231121   6.399   2.249   0.895  1.0389  1.6381 -1.3097
 3188TIP3   OH231122   4.563   0.569   1.245 -0.0555  0.3559 -0.0080
 3188TIP3    H131123   4.513   0.640   1.205  1.2005  0.5289 -1.3715
 3188TIP3    H231124   4.543   0.575   1.338 -1.7033  1.0842 -0.3725
 3189TIP3   OH231125   2.819   3.846   1.361  1.2425 -0.1108 -0.1146
 3189TIP3    H131126   2.891   3.790   1.333 -0.6125 -2.9371  0.3713
 3189TIP3    H231127   2.744   3.787   1.368 -0.9658  2.5372  0.1439
 3190TIP3   OH231128   4.900   5.129   1.957  0.1113  0.0822  0.1944
 3190TIP3    H131129   4.910   5.034   1.969  0.9708  0.1103 -0.2170
 3190TIP3    H231130   4.980   5.166   1.995  0.4609  0.5322 -0.9245
 3191TIP3   OH231131   5.015   3.093   1.865 -0.3934  0.0859  0.2651
 3191TIP3    H131132   5.030   3.110   1.772 -0.3264  2.1901  0.6199
 3191TIP3    H231133   5.075   3.152   1.910 -1.0598 -0.2603  1.6508
 3192TIP3   OH231134   4.129   6.179   2.007 -0.1745 -0.0087  0.1405
 3192TIP3    H131135   4.170   6.200   1.923 -0.9311  0.7436 -0.0610
 3192TIP3    H231136   4.058   6.119   1.984  0.4977 -0.9393  0.4300
 3193TIP3   OH231137   1.462   2.692   3.011 -0.2713 -0.7888  0.2535
 3193TIP3    H131138   1.493   2.692   3.102 -1.6932  2.2205  0.8787
 3193TIP3    H231139   1.368   2.675   3.017 -0.2283 -1.4612 -0.7719
 3194TIP3   OH231140   5.137   0.719   2.916 -0.4546 -0.5740 -1.0217
 3194TIP3    H131141   5.067   0.660   2.947 -0.9269  1.2016  1.6183
 3194TIP3    H231142   5.091   0.784   2.863 -0.9234  0.6073  0.7333
 3195TIP3   OH231143   0.278   6.772   1.970 -0.4536  0.1776  0.5692
 3195TIP3    H131144   0.368   6.801   1.956 -0.5705  0.2107 -0.1510
 3195TIP3    H231145   0.225   6.851   1.959 -0.7121 -0.1496 -0.7150
 3196TIP3   OH231146   2.063   2.457   1.552 -0.0229 -0.1581  0.2500
 3196TIP3    H131147   2.097   2.475   1.464  0.2185  0.3135  0.4348
 3196TIP3    H231148   2.089   2.367   1.570 -1.0579 -0.6565 -0.6087
 3197TIP3   OH231149   0.515   1.617   3.178  0.1889 -0.3042 -0.3902
 3197TIP3    H131150   0.604   1.592   3.202 -0.0186 -1.8869 -1.1163
 3197TIP3    H231151   0.475   1.647   3.260  1.0882 -0.4935  0.1311
 3198TIP3   OH231152   5.573   3.668   3.175  0.0667 -0.1458 -0.5844
 3198TIP3    H131153   5.579   3.753   3.132  0.8472 -0.6256 -1.4612
 3198TIP3    H231154   5.658   3.655   3.216 -1.0610  0.8780  2.3138
 3199TIP3   OH231155   5.737   3.950   1.734  0.5279 -0.2300 -0.1353
 3199TIP3    H131156   5.694   3.886   1.677 -1.3546  0.5449  0.3683
 3199TIP3    H231157   5.667   3.985   1.788  1.0934  3.5686 -1.5596
 3200TIP3   OH231158   6.497   1.695   2.792 -0.7163  0.4442 -0.5013
 3200TIP3    H131159   6.554   1.695   2.869 -1.4088 -1.5501  0.0570
 3200TIP3    H231160   6.553   1.726   2.721  0.5510  0.2665  0.3862
 3201TIP3   OH231161   4.434   3.722   0.233 -0.3492  0.1713 -0.1274
 3201TIP3    H131162   4.521   3.730   0.194 -0.1334  0.3269  0.3787
 3201TIP3    H231163   4.448   3.670   0.313 -0.6617  0.4998  0.1430
 3202TIP3   OH231164   2.287   2.403   2.453  0.2817 -0.3025  0.5226
 3202TIP3    H131165   2.284   2.496   2.431  1.3724 -0.5786 -0.8882
 3202TIP3    H231166   2.253   2.399   2.543 -2.8357  1.0703 -0.4390
 3203TIP3   OH231167   0.042   2.718   1.350 -0.3993 -0.1105  0.1677
 3203TIP3    H131168  -0.053   2.732   1.352 -0.1845  1.4374  0.9021
 3203TIP3    H231169   0.079   2.799   1.385  1.2970  0.1846 -2.0600
 3204TIP3   OH231170   1.525   4.582   2.723 -0.0945  0.2445  0.1328
 3204TIP3    H131171   1.528   4.660   2.779 -1.5381 -0.4275  1.2316
 3204TIP3    H231172   1.482   4.611   2.643 -1.2212  0.4624  0.7949
 3205TIP3   OH231173   6.250   1.505   0.552  0.3896  0.2826 -0.2097
 3205TIP3    H131174   6.175   1.564   0.563  0.5392  0.7292 -1.5034
 3205TIP3    H231175   6.241   1.442   0.624 -0.9717  0.5967 -0.0811
 3206TIP3   OH231176   2.379   5.448   2.263  0.1698  0.4191 -0.0418
 3206TIP3    H131177   2.314   5.426   2.196 -0.8495  0.0942  1.0152
 3206TIP3    H231178   2.355   5.536   2.292  0.8836  0.7434 -0.4088
 3207TIP3   OH231179   1.799   6.122   2.689 -0.6912  0.0746  0.0690
 3207TIP3    H131180   1.838   6.067   2.621 -0.5126  0.5095 -0.1865
 3207TIP3    H231181   1.774   6.203   2.643  0.3813  0.8031  0.7022
 3208TIP3   OH231182   3.148   4.053   2.370 -0.6329  0.4085  0.1607
 3208TIP3    H131183   3.165   4.109   2.446  0.2520  1.0946 -0.5135
 3208TIP3    H231184   3.171   3.965   2.398 -2.8957  0.1845  1.5342
 3209TIP3   OH231185   3.228   0.721   8.311  0.1028  0.6144 -0.4056
 3209TIP3    H131186   3.296   0.776   8.271  2.1523 -1.5336 -0.0728
 3209TIP3    H231187   3.260   0.632   8.300 -1.4926 -0.3330  1.9479
 3210TIP3   OH231188   1.329   5.217   1.663  0.5816  0.2448  0.6557
 3210TIP3    H131189   1.394   5.230   1.732  0.8744 -0.8269  0.5957
 3210TIP3    H231190   1.369   5.256   1.585  0.2182  1.5274  1.0766
 3211TIP3   OH231191   3.237   0.529   2.934  0.1478 -0.2746 -0.2135
 3211TIP3    H131192   3.201   0.525   2.845  0.9151  0.5073 -0.5683
 3211TIP3    H231193   3.328   0.555   2.922  0.2295 -0.0475  0.8167
 3212TIP3   OH231194   2.701   2.159   2.735  0.2900  0.2431  0.0106
 3212TIP3    H131195   2.670   2.084   2.785 -0.1916  2.0934  2.6966
 3212TIP3    H231196   2.785   2.182   2.774 -0.1066  1.7552  0.0635
 3213TIP3   OH231197   0.111   1.647   8.481 -0.2356  0.1910  0.4358
 3213TIP3    H131198   0.100   1.564   8.434  0.5440  0.6102 -0.5184
 3213TIP3    H231199   0.103   1.623   8.573  3.4128 -1.6081  0.4717
 3214TIP3   OH231200   2.446   1.023   1.226  0.3058 -0.1263 -0.2150
 3214TIP3    H131201   2.425   0.982   1.310 -0.4473  1.0122  0.1735
 3214TIP3    H231202   2.530   0.984   1.200  0.0657 -1.2164  0.5707
 3215TIP3   OH231203   6.193   2.310   1.984 -0.8584  0.2818 -0.2552
 3215TIP3    H131204   6.227   2.399   1.996  0.9688 -0.4648  0.5500
 3215TIP3    H231205   6.268   2.260   1.952 -2.2026 -0.7198 -1.9676
 3216TIP3   OH231206   4.524   0.262   1.283  0.2009 -0.2400 -0.5405
 3216TIP3    H131207   4.450   0.204   1.302  0.5789 -0.1495  1.3758
 3216TIP3    H231208   4.492   0.349   1.305  0.2417  0.0684 -1.6439
 3217TIP3   OH231209   2.294   6.127   1.537  0.2799  0.4485  0.9612
 3217TIP3    H131210   2.338   6.072   1.602 -0.3856  0.2269  1.2351
 3217TIP3    H231211   2.201   6.123   1.561  0.0961  0.8372  0.3443
 3218TIP3   OH231212   0.249   0.217   3.283  0.3531  0.4159 -0.7147
 3218TIP3    H131213   0.281   0.239   3.370  0.8212 -1.4908 -0.3556
 3218TIP3    H231214   0.309   0.261   3.223  2.3601 -1.2663 -0.0390
 3219TIP3   OH231215   6.762   3.221   2.758 -0.4374 -0.0235 -0.2729
 3219TIP3    H131216   6.746   3.171   2.678 -1.5880 -2.1694  1.1922
 3219TIP3    H231217   6.857   3.224   2.766 -0.3283 -1.0237 -0.9862
 3220TIP3   OH231218   1.639   5.883   8.727  0.2284  0.2161 -0.3456
 3220TIP3    H131219   1.601   5.944   8.790  0.0439 -0.7659  0.5111
 3220TIP3    H231220   1.589   5.802   8.739  0.3761 -0.0687 -1.5636
 3221TIP3   OH231221   0.274   2.995   3.745 -0.1460  0.5650  0.4176
 3221TIP3    H131222   0.334   2.921   3.748  0.3257  0.9388  0.3803
 3221TIP3    H231223   0.195   2.964   3.789 -0.3851 -0.3297 -0.6354
 3222TIP3   OH231224   4.893   2.361   0.456 -0.0677  0.7922 -0.0279
 3222TIP3    H131225   4.917   2.344   0.365  1.3166 -0.6620  0.5688
 3222TIP3    H231226   4.822   2.299   0.474  2.1990 -1.7030  0.9261
 3223TIP3   OH231227   6.447   2.889   3.556 -0.4543 -0.0400  0.4795
 3223TIP3    H131228   6.463   2.882   3.650 -0.7064 -0.2562  0.5109
 3223TIP3    H231229   6.366   2.940   3.550 -0.9751 -0.8363  0.4307
 3224TIP3   OH231230   3.969   5.994   1.850  0.2064  0.3083 -0.1814
 3224TIP3    H131231   4.019   5.981   1.769  0.2698 -0.8035  0.0137
 3224TIP3    H231232   3.879   5.971   1.828  0.3307 -0.5810  0.2006
 3225TIP3   OH231233   2.000   3.198   1.333 -0.0675  0.1260  0.5513
 3225TIP3    H131234   2.021   3.277   1.383  0.6709 -0.2252  0.8093
 3225TIP3    H231235   1.983   3.229   1.244  0.7011  0.5203  0.5378
 3226TIP3   OH231236   4.128   3.802   2.988 -0.1564  0.3640  0.5508
 3226TIP3    H131237   4.155   3.881   3.035 -1.2323  0.2923  1.3201
 3226TIP3    H231238   4.096   3.834   2.903  0.7988  0.5969  0.2698
 3227TIP3   OH231239   3.793   2.919   2.949  0.2678 -0.1515 -0.0727
 3227TIP3    H131240   3.790   2.869   3.030  0.4761  0.5046  0.3520
 3227TIP3    H231241   3.719   2.978   2.955  1.4927  1.3999  0.6677
 3228TIP3   OH231242   4.263   3.929   3.401  0.2183  0.4305  0.0537
 3228TIP3    H131243   4.257   3.994   3.471  0.9905  0.5620  0.0030
 3228TIP3    H231244   4.357   3.910   3.393 -0.0152 -1.0734  0.4331
 3229TIP3   OH231245   4.884   4.644   1.825  0.3109  0.2550  0.7032
 3229TIP3    H131246   4.851   4.650   1.915 -2.4854 -0.3518 -0.1832
 3229TIP3    H231247   4.838   4.712   1.778 -1.2286 -1.8276 -1.0066
 3230TIP3   OH231248   0.352   6.242   3.866 -0.4083 -0.2386 -0.5364
 3230TIP3    H131249   0.330   6.199   3.783 -1.5138 -1.5837  0.4097
 3230TIP3    H231250   0.378   6.171   3.924 -0.4326  0.5935  0.5300
 3231TIP3   OH231251   4.970   3.889   0.942  0.1983  0.2944 -0.1651
 3231TIP3    H131252   4.980   3.900   0.847 -0.6129  0.9374 -0.1952
 3231TIP3    H231253   4.875   3.883   0.955  0.3357 -0.7233  0.5219
 3232TIP3   OH231254   4.313   2.172   8.395  0.1616 -0.7556 -0.1877
 3232TIP3    H131255   4.311   2.233   8.321 -0.7590  2.3351  2.1569
 3232TIP3    H231256   4.399   2.186   8.435 -0.4701 -0.0689  0.9982
 3233TIP3   OH231257   6.642   4.734   3.958 -0.2164 -0.0220 -0.0252
 3233TIP3    H131258   6.618   4.648   3.924 -2.1933  0.0120  1.1561
 3233TIP3    H231259   6.559   4.776   3.979  0.7486  1.8279  0.3186
 3234TIP3   OH231260   4.590   4.840   8.118 -0.8466 -0.5359  0.7871
 3234TIP3    H131261   4.587   4.810   8.028 -0.9828  3.0964 -0.5729
 3234TIP3    H231262   4.678   4.816   8.149 -0.3398 -0.7632 -0.7590
 3235TIP3   OH231263   4.179   0.901   0.480 -0.1878 -0.0921 -0.1301
 3235TIP3    H131264   4.214   0.840   0.544 -0.1365  0.0510 -0.0197
 3235TIP3    H231265   4.219   0.875   0.397  1.5866  1.1320  0.2720
 3236TIP3   OH231266   2.297   0.763   2.269 -0.2910 -0.4988  1.1230
 3236TIP3    H131267   2.273   0.716   2.349 -0.7977 -0.0358  1.2522
 3236TIP3    H231268   2.215   0.767   2.219  0.2243 -1.5937  0.1495
 3237TIP3   OH231269   3.510   1.504   8.595 -1.0155 -0.0198  0.4375
 3237TIP3    H131270   3.439   1.502   8.531 -0.6760 -0.5608  0.0653
 3237TIP3    H231271   3.549   1.591   8.586 -1.7553  0.3613  0.7971
 3238TIP3   OH231272   3.401   2.012   0.618  0.4038 -0.4466  0.0393
 3238TIP3    H131273   3.396   2.091   0.672  0.9385 -0.6813  0.4424
 3238TIP3    H231274   3.345   1.949   0.661  1.3450 -0.8502  0.7130
 3239TIP3   OH231275   0.685   1.425   1.267  0.3266 -0.5589  0.2089
 3239TIP3    H131276   0.638   1.347   1.296 -0.2728  0.6768  2.8326
 3239TIP3    H231277   0.629   1.498   1.294  1.9929  0.8645 -0.0199
 3240TIP3   OH231278   5.345   2.255   1.366 -0.2186 -0.3265  0.0786
 3240TIP3    H131279   5.439   2.272   1.351 -0.2888  3.8012  2.7198
 3240TIP3    H231280   5.343   2.179   1.424  1.6991  0.4960  1.3304
 3241TIP3   OH231281   6.432   6.381   0.467  0.5538 -0.1213 -0.0447
 3241TIP3    H131282   6.447   6.462   0.418  0.2177 -0.1539 -0.2026
 3241TIP3    H231283   6.501   6.322   0.438  0.2710 -0.1899 -0.5934
 3242TIP3   OH231284   0.058   3.062   0.095  0.3145  0.1010 -0.3512
 3242TIP3    H131285   0.074   3.028   0.183 -2.2929  0.4284  0.3298
 3242TIP3    H231286   0.083   3.154   0.101 -0.5576  0.3094  0.2926
 3243TIP3   OH231287   4.103   4.967   3.759 -0.1649  0.1852  1.1608
 3243TIP3    H131288   4.059   4.929   3.683 -1.7314  0.7575  1.7337
 3243TIP3    H231289   4.192   4.934   3.754 -0.6367 -0.9996 -0.0891
 3244TIP3   OH231290   1.138   1.349   7.879  0.0996  0.4766 -0.3928
 3244TIP3    H131291   1.178   1.368   7.964  0.7556  1.1399 -0.8441
 3244TIP3    H231292   1.167   1.260   7.858 -1.5032 -0.4152  0.8770
 3245TIP3   OH231293   6.649   4.890   1.615  0.1824 -0.2349  0.1712
 3245TIP3    H131294   6.560   4.869   1.643  0.4750  0.6050  1.8915
 3245TIP3    H231295   6.643   4.901   1.520 -1.7144  0.5635  0.3431
 3246TIP3   OH231296   1.647   4.590   1.460  0.2616  0.1875 -0.2608
 3246TIP3    H131297   1.588   4.536   1.512  0.9427 -1.2746 -0.9411
 3246TIP3    H231298   1.697   4.641   1.524  1.3299 -1.8246  0.5878
 3247TIP3   OH231299   1.085   6.617   7.731 -0.0428 -1.0063 -0.3719
 3247TIP3    H131300   1.006   6.597   7.781  1.6054 -0.9468  2.4272
 3247TIP3    H231301   1.115   6.701   7.765  0.2004  0.0174 -2.8523
 3248TIP3   OH231302   3.717   5.793   1.764 -0.5028  0.2856 -0.5497
 3248TIP3    H131303   3.685   5.717   1.715  1.2722 -0.6087 -0.4457
 3248TIP3    H231304   3.773   5.839   1.702  1.0135 -0.3349  0.2911
 3249TIP3   OH231305   5.025   3.475   3.167 -0.0994  0.2938 -0.2083
 3249TIP3    H131306   5.063   3.388   3.154  1.1532  0.8750 -0.5105
 3249TIP3    H231307   4.938   3.457   3.204  0.4992 -1.0628  0.6308
 3250TIP3   OH231308   4.156   3.915   7.744 -0.3681  0.0723 -0.2146
 3250TIP3    H131309   4.088   3.981   7.751 -0.9549 -0.3852 -1.4003
 3250TIP3    H231310   4.124   3.853   7.678  0.1176 -1.4438  0.8987
 3251TIP3   OH231311   2.675   4.960   1.370 -0.4689  0.1546 -0.3384
 3251TIP3    H131312   2.613   4.943   1.299 -1.4247  0.6242  0.3563
 3251TIP3    H231313   2.632   5.027   1.424  1.0976  1.2827 -0.4032
 3252TIP3   OH231314   1.529   5.243   8.459 -0.6884  0.0650 -0.5623
 3252TIP3    H131315   1.557   5.152   8.452  0.7865  0.5268 -0.9593
 3252TIP3    H231316   1.511   5.269   8.369  0.0770  0.5104 -0.5933
 3253TIP3   OH231317   2.071   0.103   0.937 -0.5353 -0.4613  0.2352
 3253TIP3    H131318   2.155   0.075   0.901 -1.3051 -0.3656 -1.7699
 3253TIP3    H231319   2.005   0.060   0.883 -1.7799  0.7070  0.7329
 3254TIP3   OH231320   4.219   4.276   3.148 -0.1573  0.1649  0.1508
 3254TIP3    H131321   4.285   4.334   3.111 -0.6903 -0.0639 -1.2173
 3254TIP3    H231322   4.153   4.267   3.079 -0.7476 -1.0094  0.8302
 3255TIP3   OH231323   0.641   2.149   3.528  0.8188  0.0887 -0.2108
 3255TIP3    H131324   0.584   2.082   3.490  2.2662 -0.4405 -1.5839
 3255TIP3    H231325   0.590   2.230   3.522 -0.4301 -0.6310  0.2231
 3256TIP3   OH231326   6.608   3.252   8.705 -0.5071  0.2322 -0.1833
 3256TIP3    H131327   6.701   3.245   8.682 -0.2384  2.0040  0.2117
 3256TIP3    H231328   6.608   3.265   8.800 -1.0890  1.1513 -0.3005
 3257TIP3   OH231329   2.581   0.025   0.666 -0.1008  0.1369  0.0037
 3257TIP3    H131330   2.672   0.002   0.649 -0.1947  1.1010 -2.1949
 3257TIP3    H231331   2.558  -0.022   0.746  1.8775 -1.2793 -0.2012
 3258TIP3   OH231332   2.803   4.726   3.079  0.2115 -0.1122 -0.0886
 3258TIP3    H131333   2.833   4.813   3.056  0.3562 -0.1270  0.0439
 3258TIP3    H231334   2.876   4.687   3.127 -0.4255  0.2766  1.2641
 3259TIP3   OH231335   0.988   0.408   8.619 -0.0510 -0.5663 -0.3033
 3259TIP3    H131336   1.021   0.457   8.694  1.1629  0.3509 -1.3756
 3259TIP3    H231337   1.045   0.331   8.614 -0.9018 -1.2645  0.3996
 3260TIP3   OH231338   2.886   0.284   0.262  0.2497 -0.0860 -0.4951
 3260TIP3    H131339   2.935   0.237   0.195  0.7755 -0.8415  0.3997
 3260TIP3    H231340   2.860   0.366   0.219 -0.5025 -1.0609 -2.0213
 3261TIP3   OH231341   2.128   3.819   2.268  0.3902  0.3611 -0.2908
 3261TIP3    H131342   2.060   3.768   2.311  0.6200 -0.7864 -1.2144
 3261TIP3    H231343   2.207   3.804   2.320  0.3778  0.0316 -0.3631
 3262TIP3   OH231344   0.966   0.226   1.155  0.1807  0.7732  0.3006
 3262TIP3    H131345   0.883   0.179   1.140 -0.0358  0.7643  1.4256
 3262TIP3    H231346   0.940   0.316   1.173  0.4652  0.9127  0.0185
 3263TIP3   OH231347   1.289   4.973   1.865  0.7087 -0.5434  0.0515
 3263TIP3    H131348   1.255   5.006   1.782 -0.6962 -1.3186  0.2810
 3263TIP3    H231349   1.230   4.901   1.888  0.4720  0.2672  2.2059
 3264TIP3   OH231350   6.255   1.169   3.189 -0.4672  0.2483 -0.3703
 3264TIP3    H131351   6.252   1.228   3.265 -1.7231  0.6116 -0.6769
 3264TIP3    H231352   6.343   1.130   3.193 -0.4292  0.4042  1.1466
 3265TIP3   OH231353   5.932   5.654   1.892  0.2767  0.2600 -0.1018
 3265TIP3    H131354   5.988   5.579   1.877  0.7577  0.6288 -0.1642
 3265TIP3    H231355   5.843   5.622   1.873  0.5822 -0.0111 -1.1492
 3266TIP3   OH231356   4.428   2.750   8.312 -0.6269 -0.2560 -0.0563
 3266TIP3    H131357   4.472   2.724   8.231  0.0869  0.8420 -0.0490
 3266TIP3    H231358   4.340   2.776   8.285 -0.7876 -1.0366 -0.2970
 3267TIP3   OH231359   6.221   0.621   8.259 -0.1753 -0.5843 -0.2199
 3267TIP3    H131360   6.229   0.651   8.168  0.0442  1.7028  0.4839
 3267TIP3    H231361   6.148   0.672   8.294  1.7537  1.0080  1.7251
 3268TIP3   OH231362   5.923   5.778   3.197 -0.7306 -0.4638 -0.0295
 3268TIP3    H131363   5.839   5.783   3.152 -1.3308 -3.7160  0.5065
 3268TIP3    H231364   5.903   5.808   3.286 -0.7452  0.9396 -0.4795
 3269TIP3   OH231365   5.383   5.105   3.546  0.1540 -0.3640  0.0881
 3269TIP3    H131366   5.360   5.032   3.603 -0.9520  0.4716  0.7388
 3269TIP3    H231367   5.461   5.143   3.587  0.7086 -1.1338 -0.2307
 3270TIP3   OH231368   5.830   3.299   7.382 -0.1210  0.1305 -0.4769
 3270TIP3    H131369   5.786   3.327   7.462 -2.2645 -1.6619 -0.9286
 3270TIP3    H231370   5.808   3.366   7.318  0.0980  0.6422 -0.0267
 3271TIP3   OH231371   1.399   1.413   0.308  0.5714 -0.1895  0.2438
 3271TIP3    H131372   1.487   1.443   0.330  0.1335  1.1110  0.2948
 3271TIP3    H231373   1.353   1.409   0.392 -0.4506  2.6571 -0.0761
 3272TIP3   OH231374   3.782   0.939   1.464  0.7330 -0.2427  0.8652
 3272TIP3    H131375   3.705   0.892   1.434  0.3836  0.8554 -0.0287
 3272TIP3    H231376   3.856   0.892   1.427  0.3536  0.4170 -0.7955
 3273TIP3   OH231377   6.281   4.439   7.450 -0.1326 -0.2911 -0.3548
 3273TIP3    H131378   6.267   4.461   7.542 -0.5590  1.3344 -0.7765
 3273TIP3    H231379   6.340   4.363   7.452 -0.2010 -0.3336  1.2424
 3274TIP3   OH231380   3.563   6.251   2.019  0.1373  0.0491 -0.6878
 3274TIP3    H131381   3.570   6.206   2.103 -1.9017 -0.3908 -0.7073
 3274TIP3    H231382   3.571   6.181   1.954 -1.0956 -0.0524 -0.7597
 3275TIP3   OH231383   4.659   2.783   1.343  0.1242  0.1303 -0.1915
 3275TIP3    H131384   4.750   2.752   1.335  0.5797  0.2438  3.2349
 3275TIP3    H231385   4.666   2.878   1.339 -0.3256  0.1307 -2.9596
 3276TIP3   OH231386   0.728   4.738   8.156 -0.4370 -0.5262  0.2436
 3276TIP3    H131387   0.755   4.649   8.180  3.5880  0.5711  0.4416
 3276TIP3    H231388   0.757   4.792   8.229  1.6680  1.4777 -1.8973
 3277TIP3   OH231389   6.248   5.849   2.770  0.4091  0.0266 -0.0113
 3277TIP3    H131390   6.211   5.761   2.764 -2.4504  1.0399  1.1666
 3277TIP3    H231391   6.220   5.892   2.689  0.8119  0.1975 -0.0595
 3278TIP3   OH231392   6.747   3.056   0.808 -0.4677 -0.3853  0.2565
 3278TIP3    H131393   6.729   3.027   0.718 -0.2998  1.4190 -0.3923
 3278TIP3    H231394   6.796   3.138   0.798  0.5321 -0.7094  2.0035
 3279TIP3   OH231395   5.974   4.439   3.268  0.3012  0.0942  0.4576
 3279TIP3    H131396   6.013   4.523   3.242  0.0049 -0.1034 -0.7060
 3279TIP3    H231397   6.031   4.373   3.227  0.9083 -0.3176  1.8933
 3280TIP3   OH231398   4.163   5.571   7.686  0.5164  0.6782 -0.7075
 3280TIP3    H131399   4.096   5.563   7.618  0.5563 -0.3813 -0.6372
 3280TIP3    H231400   4.229   5.629   7.649  1.7912 -1.7875 -2.6327
 3281TIP3   OH231401   6.576   5.364   1.046  0.4045 -0.2539  0.6000
 3281TIP3    H131402   6.547   5.455   1.037 -1.9402 -0.8182  1.8427
 3281TIP3    H231403   6.503   5.319   1.087  1.3702 -2.8197 -0.2927
 3282TIP3   OH231404   3.081   2.674   3.606  0.6546  0.0309 -0.1256
 3282TIP3    H131405   3.098   2.713   3.692  0.6546  1.1206 -0.6135
 3282TIP3    H231406   3.044   2.588   3.626 -0.2470  0.6472  0.9762
 3283TIP3   OH231407   2.555   3.176   1.043 -0.1214 -0.0695  0.0477
 3283TIP3    H131408   2.609   3.200   1.118  1.1594  1.1111 -1.1834
 3283TIP3    H231409   2.479   3.234   1.049  0.1830  0.3190  0.2109
 3284TIP3   OH231410   0.378   5.688   2.931  0.1423 -0.1179  0.4144
 3284TIP3    H131411   0.357   5.779   2.907 -2.7890 -0.7142  0.3538
 3284TIP3    H231412   0.370   5.687   3.027  2.7129  0.1766  0.7076
 3285TIP3   OH231413   2.537   3.718   8.438  0.3605  0.1539 -0.0006
 3285TIP3    H131414   2.517   3.678   8.354  2.0579 -0.4876 -0.1456
 3285TIP3    H231415   2.510   3.809   8.429  0.3690  0.0442 -1.1897
 3286TIP3   OH231416   5.387   6.713   1.119 -0.2959  0.6985  0.3971
 3286TIP3    H131417   5.457   6.755   1.169 -0.0661  0.2427  0.4594
 3286TIP3    H231418   5.412   6.724   1.027  0.2239 -0.0920  0.4389
 3287TIP3   OH231419   0.748   1.376   3.032 -0.1128  0.9906  0.3600
 3287TIP3    H131420   0.703   1.300   2.996  0.4620 -0.8874  3.2970
 3287TIP3    H231421   0.841   1.359   3.012  0.0008  0.9806  0.8946
 3288TIP3   OH231422   6.819   6.617   8.089 -0.1955 -0.2174  0.4742
 3288TIP3    H131423   6.774   6.597   8.007 -0.9062 -1.1563  1.0672
 3288TIP3    H231424   6.809   6.712   8.099 -0.6899 -0.1907 -0.1898
 3289TIP3   OH231425   4.393   5.001   3.514  0.1232  0.0931 -0.1535
 3289TIP3    H131426   4.308   4.987   3.472 -0.5127  0.5727  0.9199
 3289TIP3    H231427   4.409   4.921   3.563  0.3099 -0.0133 -0.3886
 3290TIP3   OH231428   6.145   6.829   8.256  0.1626  0.2931 -0.2247
 3290TIP3    H131429   6.171   6.863   8.171  1.4763  1.2472  0.5179
 3290TIP3    H231430   6.173   6.895   8.319  0.2183 -0.8717  1.0453
 3291TIP3   OH231431   2.469   4.886   2.775 -0.1180  0.5181 -0.1574
 3291TIP3    H131432   2.561   4.908   2.793 -0.2221  0.1513  0.9293
 3291TIP3    H231433   2.425   4.898   2.859 -0.8985 -0.1494 -0.4527
 3292TIP3   OH231434   3.721   1.168   2.171  0.0718 -0.6445  0.1452
 3292TIP3    H131435   3.815   1.157   2.184 -0.0669 -1.4509  0.5386
 3292TIP3    H231436   3.713   1.227   2.097  0.8990 -1.7670 -0.8766
 3293TIP3   OH231437   0.733   4.380   2.152 -0.0633  0.1008  0.6740
 3293TIP3    H131438   0.758   4.417   2.236 -1.4955  1.8205  0.3904
 3293TIP3    H231439   0.681   4.448   2.110  0.1597 -0.9265 -1.3901
 3294TIP3   OH231440   4.028   0.663   2.761 -0.1005 -0.4640 -0.0889
 3294TIP3    H131441   4.040   0.578   2.803 -1.1428 -0.2847  0.6428
 3294TIP3    H231442   4.097   0.718   2.799 -0.0617 -0.7188  0.2215
 3295TIP3   OH231443   0.355   0.293   2.096 -0.0779  0.0859  0.3118
 3295TIP3    H131444   0.393   0.380   2.082  0.6645  0.0939  2.1614
 3295TIP3    H231445   0.431   0.235   2.107 -0.4807 -1.2361 -2.7851
 3296TIP3   OH231446   5.419   1.236   1.948 -0.5672  0.2254 -0.1692
 3296TIP3    H131447   5.383   1.324   1.936  1.4843  1.3585  1.1289
 3296TIP3    H231448   5.400   1.190   1.867 -1.3023  2.0322 -1.0738
 3297TIP3   OH231449   6.587   1.329   3.988 -0.0547 -0.1825 -0.3710
 3297TIP3    H131450   6.638   1.409   3.997  0.3228 -0.3688 -0.8020
 3297TIP3    H231451   6.524   1.332   4.060  0.3380  0.2167 -0.0389
 3298TIP3   OH231452   6.192   0.710   2.919 -0.5226 -0.4997  0.5458
 3298TIP3    H131453   6.192   0.650   2.844 -2.9560 -2.3740  1.8780
 3298TIP3    H231454   6.107   0.752   2.915 -1.0785 -1.3091  2.6772
 3299TIP3   OH231455   1.596   1.396   1.443 -0.4200 -0.1622  0.2883
 3299TIP3    H131456   1.591   1.449   1.364 -0.5856  0.2697  0.5835
 3299TIP3    H231457   1.591   1.305   1.412 -0.6298  0.0078 -0.1817
 3300TIP3   OH231458   0.660   6.314   1.573 -0.5032 -0.0167  0.1092
 3300TIP3    H131459   0.603   6.308   1.497 -1.6317 -0.5437  0.9813
 3300TIP3    H231460   0.741   6.353   1.539 -1.2852  0.5234 -1.1847
 3301TIP3   OH231461   3.352   6.784   0.846  0.1315 -0.0059 -1.0570
 3301TIP3    H131462   3.371   6.705   0.795 -1.7458 -1.4374  0.2784
 3301TIP3    H231463   3.256   6.784   0.854  0.1085  2.2566 -0.7295
 3302TIP3   OH231464   6.688   3.566   2.673  0.4440  0.0770  0.5148
 3302TIP3    H131465   6.599   3.600   2.664 -0.6267 -2.9262 -1.3821
 3302TIP3    H231466   6.694   3.538   2.765 -0.2189  1.0601  0.8731
 3303TIP3   OH231467   4.979   5.946   2.794 -0.3456 -0.2698 -0.1161
 3303TIP3    H131468   4.964   5.876   2.858 -1.9102  1.9137  2.0969
 3303TIP3    H231469   4.891   5.972   2.766  0.2465  0.2362 -1.6061
 3304TIP3   OH231470   0.557   5.920   8.584  0.3155 -0.2334 -0.1201
 3304TIP3    H131471   0.524   5.959   8.503 -1.1717 -1.1983 -0.0077
 3304TIP3    H231472   0.652   5.936   8.581  0.1958  0.3771 -1.6865
 3305TIP3   OH231473   2.941   6.426   2.226  0.0836  0.6303  0.5081
 3305TIP3    H131474   2.900   6.485   2.161 -0.9449  1.4243  1.8267
 3305TIP3    H231475   3.027   6.465   2.242  0.6075  0.0720 -0.8191
 3306TIP3   OH231476   5.511   4.957   2.973  0.1539 -0.0318  0.5144
 3306TIP3    H131477   5.453   4.900   2.924 -0.1000  0.7994 -0.1650
 3306TIP3    H231478   5.596   4.911   2.973 -0.4279 -1.1656  1.3731
 3307TIP3   OH231479   3.543   4.514   3.023  0.1765  0.3147 -0.1396
 3307TIP3    H131480   3.486   4.587   3.048  0.8478  0.1582  2.1055
 3307TIP3    H231481   3.631   4.552   3.021  0.4675 -0.2989  0.5343
 3308TIP3   OH231482   4.915   4.206   8.007  0.2999 -0.0122  0.8399
 3308TIP3    H131483   4.961   4.179   7.927 -0.9176 -2.4949  0.9029
 3308TIP3    H231484   4.984   4.210   8.074  0.9282 -0.5229  0.2443
 3309TIP3   OH231485   6.321   3.893   8.390 -0.0099 -0.3117  0.0887
 3309TIP3    H131486   6.367   3.810   8.389 -1.5885 -1.2349 -0.3552
 3309TIP3    H231487   6.269   3.893   8.309  0.1672  1.2431 -0.0719
 3310TIP3   OH231488   3.586   0.429   0.647 -0.1649  0.1325  0.3645
 3310TIP3    H131489   3.642   0.499   0.680  1.1091 -0.5361 -0.3137
 3310TIP3    H231490   3.576   0.370   0.722 -2.0587  1.4604  1.2493
 3311TIP3   OH231491   2.051   3.298   8.512 -0.0643 -0.3810 -0.1181
 3311TIP3    H131492   2.044   3.329   8.421 -0.0628  0.4018  0.1388
 3311TIP3    H231493   1.997   3.219   8.514  0.1633 -0.5650 -0.8683
 3312TIP3   OH231494   2.172   2.189   0.704  0.0354  0.2880 -0.3476
 3312TIP3    H131495   2.100   2.236   0.744  0.4629  1.1058 -0.5137
 3312TIP3    H231496   2.245   2.251   0.704  1.2250 -1.0155  1.2387
 3313TIP3   OH231497   6.096   1.815   2.355  0.0870 -0.7590  0.0075
 3313TIP3    H131498   6.136   1.898   2.329 -2.7148  0.9602  0.7140
 3313TIP3    H231499   6.067   1.829   2.445 -1.1804 -2.1941 -0.1388
 3314TIP3   OH231500   5.263   6.254   8.440  0.3367  0.0325  0.0697
 3314TIP3    H131501   5.225   6.341   8.424  0.2737 -0.1549 -0.8149
 3314TIP3    H231502   5.249   6.240   8.534 -2.2240 -0.2108 -0.2580
 3315TIP3   OH231503   2.015   0.042   0.029 -0.5490  0.1860  0.2197
 3315TIP3    H131504   1.995   0.045  -0.065 -0.1379  2.2270  0.1653
 3315TIP3    H231505   1.972  -0.038   0.059 -0.9130 -0.3841 -1.6463
 3316TIP3   OH231506   4.603   0.771   3.811  0.3678 -0.0658  0.0682
 3316TIP3    H131507   4.593   0.853   3.763  0.6203 -0.3617 -0.5084
 3316TIP3    H231508   4.688   0.737   3.782 -0.3634 -1.2281 -0.8040
 3317TIP3   OH231509   2.603   4.510   1.881  0.4702  0.0523 -0.5796
 3317TIP3    H131510   2.523   4.513   1.934 -0.8714  1.7676 -2.5371
 3317TIP3    H231511   2.661   4.575   1.921  0.3924 -0.2974  0.1122
 3318TIP3   OH231512   6.401   1.318   0.057 -0.4562 -0.0383  0.0204
 3318TIP3    H131513   6.354   1.395   0.090 -2.0408 -1.3725  1.0234
 3318TIP3    H231514   6.338   1.246   0.066  0.6067 -1.2706 -1.9071
 3319TIP3   OH231515   1.146   1.146   0.503 -0.4516 -0.2276  0.0584
 3319TIP3    H131516   1.146   1.066   0.556  1.6150 -0.6690 -0.4948
 3319TIP3    H231517   1.058   1.181   0.512 -1.3739 -2.4830  0.4511
 3320TIP3   OH231518   2.653   3.812   0.263  0.3972 -0.6229 -0.5430
 3320TIP3    H131519   2.597   3.820   0.187 -0.7040  0.1918  0.3222
 3320TIP3    H231520   2.603   3.850   0.335  2.1167  0.2901  0.2455
 3321TIP3   OH231521   1.344   0.255   1.529 -0.3364 -0.3418 -0.2268
 3321TIP3    H131522   1.418   0.270   1.587  0.2936 -0.9516 -0.8558
 3321TIP3    H231523   1.329   0.339   1.486 -0.8907  0.1486  0.8977
 3322TIP3   OH231524   6.597   1.201   0.541 -0.5678  0.6880 -0.2273
 3322TIP3    H131525   6.641   1.285   0.554  0.1380  0.8894 -3.3601
 3322TIP3    H231526   6.608   1.181   0.448 -3.7785 -1.1601 -0.3550
 3323TIP3   OH231527   5.062   0.377   2.149 -0.9175  0.1188 -0.0402
 3323TIP3    H131528   5.104   0.356   2.065  0.5143 -0.8642  0.8748
 3323TIP3    H231529   4.984   0.427   2.125  0.0621  0.8545 -1.9029
 3324TIP3   OH231530   5.863   0.362   7.854 -0.0768  0.2430 -0.9562
 3324TIP3    H131531   5.954   0.346   7.831  0.4575 -0.0521  1.1472
 3324TIP3    H231532   5.865   0.444   7.904 -0.6101 -0.7724  0.8322
 3325TIP3   OH231533   3.952   1.175   1.494  0.4549 -0.4691 -0.2975
 3325TIP3    H131534   3.886   1.199   1.430  2.3305  1.6764 -1.5583
 3325TIP3    H231535   3.919   1.209   1.577 -1.0133 -1.4220 -0.4541
 3326TIP3   OH231536   5.101   2.368   8.213  0.2067 -0.5107  0.2988
 3326TIP3    H131537   5.021   2.392   8.260 -0.7385  0.2209 -1.5671
 3326TIP3    H231538   5.076   2.294   8.158  0.1439  0.9772 -1.8296
 3327TIP3   OH231539   3.350   5.545   3.265  0.1150 -0.8587  0.1469
 3327TIP3    H131540   3.257   5.525   3.273  0.1495 -0.6402  1.1506
 3327TIP3    H231541   3.394   5.472   3.308  0.3487 -0.2540  0.9585
 3328TIP3   OH231542   4.296   3.317   2.089  0.2050 -0.1405 -0.2237
 3328TIP3    H131543   4.268   3.241   2.140  0.3819 -0.3276 -0.4050
 3328TIP3    H231544   4.319   3.282   2.003  0.8850  0.0229 -0.1156
 3329TIP3   OH231545   2.669   0.636   0.357  0.1912  0.8885  0.2748
 3329TIP3    H131546   2.679   0.593   0.442 -0.0403 -0.4380 -0.3459
 3329TIP3    H231547   2.576   0.630   0.338  0.3084  0.7877 -0.2739
 3330TIP3   OH231548   2.264   2.006   0.898  0.1205 -0.1209  0.4196
 3330TIP3    H131549   2.209   2.040   0.827  1.1691 -1.1019 -0.9102
 3330TIP3    H231550   2.202   1.966   0.958 -0.8588  1.3205  0.4356
 3331TIP3   OH231551   5.380   0.597   2.315  0.0921 -0.0772  0.0908
 3331TIP3    H131552   5.441   0.528   2.344  0.4732  0.2112 -0.0083
 3331TIP3    H231553   5.293   0.560   2.328  0.2841 -0.3614  0.5743
 3332TIP3   OH231554   6.217   5.023   1.804 -0.6266 -0.3734 -0.4533
 3332TIP3    H131555   6.203   5.098   1.747  1.7417 -0.5961 -1.4921
 3332TIP3    H231556   6.225   5.059   1.892 -1.7075  0.2919 -0.6166
 3333TIP3   OH231557   6.573   4.115   1.981  0.0550 -0.0912  0.6766
 3333TIP3    H131558   6.655   4.131   1.935  0.4161  1.2956  1.7158
 3333TIP3    H231559   6.524   4.056   1.924  0.4389  1.6039 -1.5448
 3334TIP3   OH231560   4.048   4.120   0.190 -0.2357 -0.0022  0.0572
 3334TIP3    H131561   4.010   4.207   0.176 -1.3058 -0.3268  0.8749
 3334TIP3    H231562   4.139   4.130   0.161 -1.2564  0.3306 -3.6695
 3335TIP3   OH231563   4.621   2.070   3.497 -0.1911  0.2393 -0.1529
 3335TIP3    H131564   4.635   2.003   3.564  0.5366 -0.2570 -0.7821
 3335TIP3    H231565   4.669   2.146   3.529 -0.8872  0.4278  0.4871
 3336TIP3   OH231566   1.373   0.803   2.342  0.4612  0.4739  0.7192
 3336TIP3    H131567   1.302   0.798   2.406  1.1175  0.7706  1.4852
 3336TIP3    H231568   1.330   0.796   2.257 -0.4376  0.2214  1.1927
 3337TIP3   OH231569   6.588   0.532   1.914 -0.4129 -0.3262 -0.1527
 3337TIP3    H131570   6.565   0.594   1.983  0.8136  0.9751 -0.8400
 3337TIP3    H231571   6.512   0.475   1.905 -0.9992  0.1380  1.5313
 3338TIP3   OH231572   3.077   0.287   3.457  0.1624  0.1481  0.2434
 3338TIP3    H131573   3.044   0.334   3.533  1.0290 -0.5470  1.0810
 3338TIP3    H231574   3.130   0.351   3.409  1.2674  0.0715  1.3240
 3339TIP3   OH231575   6.800   6.015   1.663  0.6047  0.2550  0.3408
 3339TIP3    H131576   6.847   5.944   1.707  1.2109  0.4515  0.0185
 3339TIP3    H231577   6.812   5.998   1.570 -2.0501 -1.0946  0.1464
 3340TIP3   OH231578   1.120   2.906   8.319 -0.7160  0.2110  0.2603
 3340TIP3    H131579   1.134   2.998   8.344 -2.7873  0.2891  1.3187
 3340TIP3    H231580   1.078   2.911   8.233  0.4582  0.1761 -0.3326
 3341TIP3   OH231581   6.017   1.187   2.496  0.3302 -0.2852 -0.0001
 3341TIP3    H131582   6.054   1.273   2.513  0.8641 -0.6323  0.6442
 3341TIP3    H231583   5.937   1.183   2.548  0.0719 -0.0225 -0.3712
 3342TIP3   OH231584   1.683   3.867   0.065  0.2846  0.1156  0.1820
 3342TIP3    H131585   1.619   3.886   0.133 -0.1437  0.9000 -0.4231
 3342TIP3    H231586   1.686   3.771   0.062 -1.1492  0.0459 -0.0228
 3343TIP3   OH231587   0.917   4.537   1.887 -0.5350 -0.1668 -0.4769
 3343TIP3    H131588   0.862   4.475   1.840  0.3310 -1.3098 -0.0290
 3343TIP3    H231589   0.899   4.621   1.845 -0.2524 -1.0245 -2.4773
 3344TIP3   OH231590   3.459   5.026   1.539 -0.4088 -0.1702  0.0539
 3344TIP3    H131591   3.504   5.029   1.454 -1.3269 -0.0970 -0.4433
 3344TIP3    H231592   3.491   4.946   1.580  0.2972 -0.0342 -0.2108
 3345TIP3   OH231593   6.372   2.664   3.229  0.0483  0.2771  0.3781
 3345TIP3    H131594   6.420   2.713   3.296  2.8335  2.2524 -2.7298
 3345TIP3    H231595   6.319   2.731   3.184  1.2088 -0.1184 -1.7280
 3346TIP3   OH231596   5.514   1.433   3.030  0.2797  0.0437 -0.0549
 3346TIP3    H131597   5.485   1.361   2.974 -0.5248  1.3871 -1.4335
 3346TIP3    H231598   5.568   1.487   2.973  1.9031 -0.0684  1.2995
 3347TIP3   OH231599   2.157   2.475   1.238  0.2169  0.5546  0.5297
 3347TIP3    H131600   2.210   2.541   1.281  0.6563 -0.3810  1.4607
 3347TIP3    H231601   2.219   2.408   1.211 -0.2143  0.5241 -0.4598
 3348TIP3   OH231602   3.839   4.007   1.356 -0.3282  0.0624 -0.4091
 3348TIP3    H131603   3.878   3.986   1.271 -1.0405 -0.7700 -0.5439
 3348TIP3    H231604   3.748   4.028   1.336  0.0365  2.1864 -0.1216
 3349TIP3   OH231605   5.284   1.185   1.346  0.1490 -0.2015  0.0203
 3349TIP3    H131606   5.319   1.213   1.262  1.2210 -1.6263 -0.0391
 3349TIP3    H231607   5.355   1.137   1.387 -1.5073 -2.7734  0.1141
 3350TIP3   OH231608   1.209   5.875   2.917  0.2882  0.2337 -0.2901
 3350TIP3    H131609   1.125   5.898   2.877  1.6287  2.4006 -2.0713
 3350TIP3    H231610   1.231   5.949   2.973  1.3853  0.0675 -0.4666
 3351TIP3   OH231611   6.390   1.130   2.534 -0.3904  0.2010 -0.4504
 3351TIP3    H131612   6.359   1.220   2.524 -0.0391  0.4706  0.6833
 3351TIP3    H231613   6.434   1.110   2.452 -1.9810  0.4303 -1.3991
 3352TIP3   OH231614   2.932   5.569   8.505 -0.1292 -0.1061  0.5792
 3352TIP3    H131615   2.852   5.616   8.480  0.1116  1.0818  1.8926
 3352TIP3    H231616   3.001   5.612   8.456 -0.2954 -1.3935 -0.8653
 3353TIP3   OH231617   4.019   5.026   0.412 -0.1943 -0.3076  0.1481
 3353TIP3    H131618   4.090   5.016   0.474 -0.8626 -1.3938  0.7744
 3353TIP3    H231619   4.056   4.999   0.328  0.3736  0.0206  0.2875
 3354TIP3   OH231620   1.770   1.622   1.535  0.2008  0.2409  0.1554
 3354TIP3    H131621   1.701   1.560   1.513  1.7784 -0.9901 -1.6247
 3354TIP3    H231622   1.851   1.571   1.531  1.3804  1.9733  0.6331
 3355TIP3   OH231623   2.682   1.875   0.131  0.0593 -0.2222 -0.4293
 3355TIP3    H131624   2.713   1.831   0.052  0.5007 -0.7034  0.0018
 3355TIP3    H231625   2.748   1.853   0.197 -0.9920 -0.9316  0.4153
 3356TIP3   OH231626   1.339   2.732   3.304 -0.0675 -0.2465 -0.5133
 3356TIP3    H131627   1.246   2.752   3.311  0.1079  0.4143  0.0456
 3356TIP3    H231628   1.349   2.646   3.345 -0.5484 -0.6742 -1.2809
 3357TIP3   OH231629   3.361   5.982   1.567  0.6239  0.0583  0.7134
 3357TIP3    H131630   3.289   6.034   1.531 -0.5454 -1.3591  0.9203
 3357TIP3    H231631   3.437   6.039   1.560 -0.0635  0.8098 -1.5757
 3358TIP3   OH231632   3.777   3.132   0.400 -0.1514  0.4154  0.6733
 3358TIP3    H131633   3.702   3.150   0.343  0.8744 -0.1243 -0.9089
 3358TIP3    H231634   3.774   3.037   0.412  0.6834  0.2844 -0.0308
 3359TIP3   OH231635   3.004   2.969   8.418  0.0973  0.3994 -0.4956
 3359TIP3    H131636   3.027   2.955   8.327 -0.5884 -0.4511 -0.5457
 3359TIP3    H231637   3.085   2.954   8.466  0.6207  1.4964 -1.0088
 3360TIP3   OH231638   2.975   1.825   1.992  0.7730  0.0209 -0.3028
 3360TIP3    H131639   3.035   1.766   2.036  1.1335  0.6696  0.0785
 3360TIP3    H231640   2.922   1.863   2.062 -1.9547 -2.5282 -0.8034
 3361TIP3   OH231641   2.266   5.500   8.397 -0.0498 -0.0501 -0.0377
 3361TIP3    H131642   2.234   5.413   8.377  0.6843 -0.2600 -0.3183
 3361TIP3    H231643   2.306   5.531   8.316 -0.6467  0.7102 -0.0597
 3362TIP3   OH231644   5.098   4.871   3.221  0.5001 -0.3881 -0.0944
 3362TIP3    H131645   5.115   4.963   3.240 -3.0064  0.6115 -0.9862
 3362TIP3    H231646   5.080   4.869   3.127  0.2036 -1.9425 -0.0378
 3363TIP3   OH231647   4.602   0.726   8.581 -0.2057 -0.1489 -0.5972
 3363TIP3    H131648   4.509   0.707   8.570 -0.1815 -2.3240  1.8708
 3363TIP3    H231649   4.605   0.801   8.641 -0.4703 -1.7270  1.4865
 3364TIP3   OH231650   2.507   0.296   0.211 -0.5594 -0.0458 -0.4293
 3364TIP3    H131651   2.528   0.273   0.120  0.9244 -1.1170  0.1363
 3364TIP3    H231652   2.522   0.390   0.216 -2.1557  0.3084 -1.6581
 3365TIP3   OH231653   4.164   6.560   2.496 -0.1925 -0.1355 -0.0375
 3365TIP3    H131654   4.209   6.504   2.560  0.0066 -0.2491 -0.2744
 3365TIP3    H231655   4.072   6.556   2.522  0.0021  0.5678  0.8071
 3366TIP3   OH231656   2.514   5.756   1.936  0.6488 -0.1821  0.4145
 3366TIP3    H131657   2.548   5.670   1.911  1.3220  0.5737 -1.4673
 3366TIP3    H231658   2.430   5.763   1.889  1.4848  0.8916 -1.0077
 3367TIP3   OH231659   5.664   1.006   2.027  0.6374 -0.0294  0.6217
 3367TIP3    H131660   5.571   0.988   2.044  0.3290  0.1119 -0.7937
 3367TIP3    H231661   5.672   1.101   2.038  0.2039  0.2133 -0.9861
 3368TIP3   OH231662   4.847   2.105   3.782  0.3887 -0.5816  0.0882
 3368TIP3    H131663   4.858   2.011   3.800  0.6880 -0.4132  0.7972
 3368TIP3    H231664   4.935   2.142   3.791 -0.0062  0.0616  1.5997
 3369TIP3   OH231665   0.776   5.724   0.483  0.1499 -0.5072  0.4626
 3369TIP3    H131666   0.743   5.794   0.427 -0.0003 -0.6787  0.3387
 3369TIP3    H231667   0.732   5.645   0.453  0.4093 -0.6782  0.5238
 3370TIP3   OH231668   5.827   6.412   0.225  0.6711 -0.0280 -0.0108
 3370TIP3    H131669   5.922   6.419   0.213  0.6774 -1.0167 -0.6800
 3370TIP3    H231670   5.804   6.329   0.185 -0.4058 -0.0792  0.6632
 3371TIP3   OH231671   0.093   3.178   1.010 -0.1967  0.3227  0.1833
 3371TIP3    H131672   0.077   3.236   0.936 -3.1069 -1.5429 -0.8217
 3371TIP3    H231673   0.063   3.227   1.086 -0.3692  1.0201 -0.3236
 3372TIP3   OH231674   3.132   6.068   1.119 -0.6260  0.9276  0.6360
 3372TIP3    H131675   3.081   5.988   1.128 -1.0885  1.2069  0.5225
 3372TIP3    H231676   3.083   6.134   1.169 -0.3411  1.1833  0.5857
 3373TIP3   OH231677   4.032   4.774   8.109  0.0374 -0.1879 -0.5787
 3373TIP3    H131678   4.000   4.850   8.157  1.5799  0.2009 -0.1168
 3373TIP3    H231679   4.125   4.790   8.097 -0.0998 -0.7294 -2.8895
 3374TIP3   OH231680   3.399   3.958   7.390 -0.1989 -1.1086  0.2852
 3374TIP3    H131681   3.355   4.041   7.408 -0.1307 -0.8736 -0.6229
 3374TIP3    H231682   3.462   3.949   7.462 -1.1030 -1.0184  1.1087
 3375TIP3   OH231683   0.674   1.300   2.268 -0.3103  0.4109  0.0408
 3375TIP3    H131684   0.645   1.363   2.334 -0.9372  1.0231 -0.7906
 3375TIP3    H231685   0.594   1.255   2.241  0.2225 -1.2720  1.1207
 3376TIP3   OH231686   3.353   1.498   8.383 -0.2036  0.0343  0.0682
 3376TIP3    H131687   3.363   1.447   8.302  0.6638  2.0641 -1.1870
 3376TIP3    H231688   3.259   1.493   8.402 -0.1156 -2.2347  0.2020
 3377TIP3   OH231689   5.298   2.978   1.591 -0.0733 -0.1034  0.0025
 3377TIP3    H131690   5.271   2.887   1.600  0.9309 -0.5272 -0.9163
 3377TIP3    H231691   5.377   2.974   1.536 -0.9295  1.4335 -1.4606
 3378TIP3   OH231692   4.965   4.303   1.442  0.2830 -0.4900 -0.5542
 3378TIP3    H131693   5.058   4.304   1.417  0.1213  1.4152 -1.2092
 3378TIP3    H231694   4.955   4.375   1.503 -0.5888 -1.3265  0.3297
 3379TIP3   OH231695   4.793   6.492   8.421  0.1268  0.0991  0.4448
 3379TIP3    H131696   4.748   6.572   8.394  0.5170  1.0456  2.4373
 3379TIP3    H231697   4.754   6.469   8.505  1.3877 -0.6735  0.8545
 3380TIP3   OH231698   0.200   3.691   2.894 -0.7982 -0.5765  0.7358
 3380TIP3    H131699   0.192   3.654   2.806 -0.2018 -1.2256  0.9423
 3380TIP3    H231700   0.166   3.780   2.886  0.4384 -0.1839 -0.4488
 3381TIP3   OH231701   6.542   5.138   0.218 -0.5685 -0.3338  0.2474
 3381TIP3    H131702   6.500   5.143   0.304  1.1157 -1.6419  1.1966
 3381TIP3    H231703   6.614   5.076   0.229 -0.4355 -0.7426 -2.1799
 3382TIP3   OH231704   4.053   3.306   0.673 -0.4623 -0.0383  0.4439
 3382TIP3    H131705   3.969   3.291   0.716 -0.9990  0.2004 -0.4727
 3382TIP3    H231706   4.100   3.365   0.731 -1.4913  0.9298  0.3186
 3383TIP3   OH231707   0.947   1.319   2.334 -0.4119 -0.5490  0.3202
 3383TIP3    H131708   0.938   1.405   2.376  0.0687  0.7707 -2.1037
 3383TIP3    H231709   0.861   1.279   2.342 -0.9076  0.5513  0.6903
 3384TIP3   OH231710   1.684   3.378   3.397 -0.1768 -0.3047  0.0751
 3384TIP3    H131711   1.720   3.291   3.382 -2.3560 -1.0093 -1.6331
 3384TIP3    H231712   1.633   3.369   3.478 -1.5296 -1.0597 -0.8244
 3385TIP3   OH231713   6.618   5.704   3.349  0.1459  0.1300 -0.2877
 3385TIP3    H131714   6.548   5.767   3.368 -0.0933  0.7909 -2.9753
 3385TIP3    H231715   6.602   5.676   3.259  1.4435 -2.2790  0.1366
 3386TIP3   OH231716   4.344   6.259   2.440  0.0402  0.2198  0.3991
 3386TIP3    H131717   4.318   6.334   2.387 -0.0084 -0.3511 -0.4016
 3386TIP3    H231718   4.262   6.218   2.466  0.0785  0.1459  0.4047
 3387TIP3   OH231719   5.866   1.484   2.985  0.2646  0.2234  0.3849
 3387TIP3    H131720   5.796   1.536   2.945  0.8356  1.2593  0.6824
 3387TIP3    H231721   5.850   1.490   3.079 -1.1245 -2.2765  0.3856
 3388TIP3   OH231722   0.460   0.913   2.784  0.0016  0.7159 -0.5374
 3388TIP3    H131723   0.405   0.992   2.781 -0.2720  0.6104  0.9864
 3388TIP3    H231724   0.506   0.920   2.867  1.4848  0.2407 -1.2888
 3389TIP3   OH231725   1.354   0.872   2.690 -0.0381 -0.0956 -0.0717
 3389TIP3    H131726   1.359   0.939   2.622  2.3549  1.0169  1.0704
 3389TIP3    H231727   1.279   0.899   2.745 -0.9151 -0.0558 -1.2472
 3390TIP3   OH231728   2.681   3.665   1.058  0.1704 -0.0695  0.4778
 3390TIP3    H131729   2.589   3.673   1.083 -0.0159  0.0232 -0.2306
 3390TIP3    H231730   2.728   3.671   1.141 -0.4169  0.7065  0.7753
 3391TIP3   OH231731   1.108   6.437   8.091  0.2337  0.1638 -0.0720
 3391TIP3    H131732   1.166   6.473   8.025  0.0613 -1.9554 -1.4991
 3391TIP3    H231733   1.158   6.442   8.172  0.5799  2.5184 -0.3752
 3392TIP3   OH231734   2.286   3.853   8.677 -1.2403  0.3029  0.6970
 3392TIP3    H131735   2.225   3.837   8.749  0.5249 -0.6982  2.0498
 3392TIP3    H231736   2.265   3.941   8.647 -3.1208  0.0976  1.3206
 3393TIP3   OH231737   3.852   2.224   2.147 -0.5016  0.2224 -0.1183
 3393TIP3    H131738   3.941   2.193   2.164  0.0215  2.3535  1.3409
 3393TIP3    H231739   3.816   2.245   2.233 -1.0987  2.7668 -0.9121
 3394TIP3   OH231740   4.351   0.788   2.631  0.0626  0.4398 -0.0827
 3394TIP3    H131741   4.336   0.824   2.543 -0.0249 -0.3868 -0.4100
 3394TIP3    H231742   4.277   0.820   2.682 -1.1512 -0.9685 -0.8930
 3395TIP3   OH231743   0.450   0.178   1.306  0.4037 -0.0312 -0.0335
 3395TIP3    H131744   0.394   0.224   1.368  2.0178  0.0660  1.4200
 3395TIP3    H231745   0.523   0.145   1.359  1.8140 -0.0089 -1.8688
 3396TIP3   OH231746   1.036   3.622   0.129  0.0846 -0.5523 -0.4835
 3396TIP3    H131747   1.102   3.564   0.091 -1.2613 -0.4747 -3.2127
 3396TIP3    H231748   1.086   3.693   0.169  1.6840 -2.1010  0.3776
 3397TIP3   OH231749   0.493   4.726   0.668 -0.5139 -0.1985 -0.5866
 3397TIP3    H131750   0.470   4.762   0.582  0.0779  3.2902  0.5476
 3397TIP3    H231751   0.564   4.782   0.699 -0.2125 -1.8122  1.8925
 3398TIP3   OH231752   0.107   5.342   7.656 -0.1900 -0.4826  0.6241
 3398TIP3    H131753   0.187   5.302   7.692  0.6162 -0.6118 -1.1975
 3398TIP3    H231754   0.094   5.298   7.572 -1.7426  0.1123  0.5236
 3399TIP3   OH231755   1.881   5.322   0.298  0.0298  0.2179  0.0074
 3399TIP3    H131756   1.896   5.326   0.393 -0.6703  1.7213  0.0790
 3399TIP3    H231757   1.851   5.410   0.275 -3.3080 -1.0166 -0.9822
 3400TIP3   OH231758   6.270   6.352   2.975 -0.4382  0.3025  0.0345
 3400TIP3    H131759   6.292   6.398   2.894 -1.9645  0.7649 -0.1609
 3400TIP3    H231760   6.181   6.317   2.959 -0.7752  0.4309  1.5104
 3401TIP3   OH231761   3.437   1.008   3.628 -0.0542  0.2498 -0.7563
 3401TIP3    H131762   3.523   1.044   3.653 -0.3192  0.6828 -0.4567
 3401TIP3    H231763   3.408   1.066   3.557  0.2719 -0.4062 -1.4522
 3402TIP3   OH231764   4.287   4.758   3.695  0.6328 -0.3021  0.5530
 3402TIP3    H131765   4.282   4.672   3.654  2.0267  0.2267 -0.7977
 3402TIP3    H231766   4.342   4.744   3.773  0.0038 -0.8200  0.9130
 3403TIP3   OH231767   2.381   3.425   2.793 -0.2414 -0.0943  0.0999
 3403TIP3    H131768   2.299   3.472   2.775  0.9057  1.8823 -0.3483
 3403TIP3    H231769   2.406   3.388   2.708 -0.0984  0.3102 -0.0397
 3404TIP3   OH231770   3.046   3.349   8.673 -0.7220  0.1319  0.3529
 3404TIP3    H131771   2.994   3.376   8.749 -1.8144 -0.2734 -0.2217
 3404TIP3    H231772   3.013   3.262   8.651 -0.0254  0.0058 -0.2454
 3405TIP3   OH231773   6.778   3.001   8.024 -0.2919 -0.0430 -0.3365
 3405TIP3    H131774   6.721   2.934   8.061  0.7848 -0.4606  0.5826
 3405TIP3    H231775   6.722   3.079   8.020 -1.4534 -0.8728 -1.1218
 3406TIP3   OH231776   6.501   2.943   2.568 -0.1694  0.1264  0.2647
 3406TIP3    H131777   6.488   2.946   2.473 -0.4555 -1.0045  0.2513
 3406TIP3    H231778   6.595   2.959   2.580 -0.0334 -0.2603 -0.2525
 3407TIP3   OH231779   4.612   1.603   8.501 -0.2168 -0.1434  0.4546
 3407TIP3    H131780   4.629   1.598   8.407  1.2334  0.2947  0.6681
 3407TIP3    H231781   4.699   1.604   8.541 -0.8156 -0.5389  1.8172
 3408TIP3   OH231782   1.654   4.468   1.211 -0.2355 -0.1056 -0.3553
 3408TIP3    H131783   1.748   4.467   1.195 -0.1873 -1.9970 -0.2224
 3408TIP3    H231784   1.644   4.505   1.298  0.4476 -0.4617 -0.1203
 3409TIP3   OH231785   0.279   3.996   1.378  0.1083 -0.0509  0.1204
 3409TIP3    H131786   0.349   3.987   1.314  0.0054 -2.9992  0.2973
 3409TIP3    H231787   0.240   3.909   1.384 -1.7068  0.8046  2.1484
 3410TIP3   OH231788   6.797   5.297   1.196  0.1816  0.3972  0.1973
 3410TIP3    H131789   6.803   5.338   1.283 -0.5571  0.1147  0.3913
 3410TIP3    H231790   6.730   5.348   1.150 -1.8234 -1.3886  0.9345
 3411TIP3   OH231791   2.739   4.530   0.518 -0.4989  0.2260 -0.4393
 3411TIP3    H131792   2.770   4.478   0.592 -0.0702  2.7267  1.2963
 3411TIP3    H231793   2.778   4.617   0.533 -2.2086  1.4118 -2.4132
 3412TIP3   OH231794   5.859   1.980   2.846 -0.0246 -0.3723 -0.3039
 3412TIP3    H131795   5.878   1.916   2.915  0.0378  2.2382  2.3158
 3412TIP3    H231796   5.844   2.062   2.894 -0.1109  1.5951 -3.4496
 3413TIP3   OH231797   0.622   5.597   2.377 -0.4226  0.1253 -0.2940
 3413TIP3    H131798   0.569   5.667   2.339  0.4496  0.8825 -0.1432
 3413TIP3    H231799   0.567   5.519   2.370 -0.8357  0.5110 -1.8432
 3414TIP3   OH231800   1.418   6.759   8.687 -0.2530  0.6448  0.7607
 3414TIP3    H131801   1.427   6.690   8.754  0.3729  0.4291  0.4570
 3414TIP3    H231802   1.480   6.827   8.715 -1.3708  1.4084  1.4458
 3415TIP3   OH231803   6.283   6.472   1.129  0.3014  0.1812 -0.2625
 3415TIP3    H131804   6.256   6.381   1.131  1.6824 -0.2508  0.1199
 3415TIP3    H231805   6.202   6.522   1.135 -0.4139 -1.0272  0.5170
 3416TIP3   OH231806   0.533   1.795   7.968 -0.0780 -0.2594 -0.6466
 3416TIP3    H131807   0.440   1.785   7.987  0.1521 -1.1076  0.1034
 3416TIP3    H231808   0.570   1.708   7.982  1.0290  0.3271  0.2108
 3417TIP3   OH231809   3.082   5.267   2.395  0.1437 -0.0839 -0.1030
 3417TIP3    H131810   3.132   5.335   2.439 -0.2349  0.3706 -0.3707
 3417TIP3    H231811   3.149   5.209   2.358  0.5801  1.6247 -2.2395
 3418TIP3   OH231812   0.510   1.982   8.665 -0.2076  0.0309  0.2819
 3418TIP3    H131813   0.600   2.003   8.642 -0.1075  0.3261  0.9040
 3418TIP3    H231814   0.459   2.009   8.589  0.1898  0.1955  0.0682
 3419TIP3   OH231815   6.301   0.780   1.721  0.0983  0.5335  0.5654
 3419TIP3    H131816   6.255   0.754   1.801 -1.1270  0.9893  0.0411
 3419TIP3    H231817   6.391   0.749   1.733 -0.4288 -0.6917  1.4817
 3420TIP3   OH231818   1.373   1.582   1.486  0.3432  0.3205 -0.5061
 3420TIP3    H131819   1.353   1.490   1.502  0.7750  0.1273 -1.0404
 3420TIP3    H231820   1.441   1.580   1.418 -1.1210  1.0704 -2.0684
 3421TIP3   OH231821   0.370   3.374   3.090 -0.5527 -0.0479  0.0354
 3421TIP3    H131822   0.442   3.410   3.039 -0.0825 -0.0524  0.6939
 3421TIP3    H231823   0.412   3.321   3.158 -1.1920 -0.6220 -0.0034
 3422TIP3   OH231824   6.027   4.832   1.785 -0.3828 -0.1010 -0.0192
 3422TIP3    H131825   6.084   4.909   1.788 -0.4430  0.0042 -1.1723
 3422TIP3    H231826   5.999   4.819   1.876  2.3045 -0.7951  0.8123
 3423TIP3   OH231827   6.838   4.409   1.734  0.0557 -0.1436  0.0949
 3423TIP3    H131828   6.787   4.477   1.690  0.6194 -0.3167 -0.8607
 3423TIP3    H231829   6.825   4.425   1.827  0.5652  1.5677 -0.0999
 3424TIP3   OH231830   2.044   5.658   2.491 -0.4369  0.3179 -1.0834
 3424TIP3    H131831   2.028   5.564   2.500  0.6409  0.2313  0.1927
 3424TIP3    H231832   2.140   5.666   2.496 -0.6039  1.7140  1.5896
 3425TIP3   OH231833   5.578   6.715   3.025  0.0261  0.0199 -0.3293
 3425TIP3    H131834   5.602   6.788   3.082  0.2504 -0.9606  0.8546
 3425TIP3    H231835   5.658   6.664   3.014 -0.5982 -1.2223  0.6151
 3426TIP3   OH231836   3.066   0.077   3.256 -0.4421  0.3985  0.1224
 3426TIP3    H131837   3.066  -0.003   3.308  0.4536  0.1077 -0.3188
 3426TIP3    H231838   3.078   0.147   3.320  0.2725  0.0696  0.3599
 3427TIP3   OH231839   6.293   0.624   2.467  0.2329 -0.4243  0.0975
 3427TIP3    H131840   6.282   0.574   2.548  0.4757  0.3608  0.6287
 3427TIP3    H231841   6.331   0.708   2.496 -2.0320  0.8850 -0.5074
 3428TIP3   OH231842   1.925   5.918   2.530 -0.6483  0.1836  0.2455
 3428TIP3    H131843   1.838   5.887   2.508  0.0785  0.2074 -3.2971
 3428TIP3    H231844   1.979   5.839   2.535 -0.6897  0.2101  1.9065
 3429TIP3   OH231845   2.915   3.760   0.162 -0.8693 -0.0930 -0.2035
 3429TIP3    H131846   2.838   3.790   0.210 -0.7883 -0.9097  0.4388
 3429TIP3    H231847   2.916   3.816   0.083 -0.6295  1.7092  1.0130
 3430TIP3   OH231848   6.446   1.803   3.067 -0.1455 -0.4599 -0.7506
 3430TIP3    H131849   6.370   1.802   3.126  0.8128  0.6596  0.5511
 3430TIP3    H231850   6.412   1.843   2.986 -0.8661  0.3596 -0.0642
 3431TIP3   OH231851   1.457   2.230   1.671  0.4258  0.0317 -0.2758
 3431TIP3    H131852   1.418   2.314   1.693 -0.7398 -0.0179 -1.9488
 3431TIP3    H231853   1.396   2.165   1.705  1.7331 -0.2109  1.7524
 3432TIP3   OH231854   2.784   4.904   0.079  0.6725 -0.3537  0.1268
 3432TIP3    H131855   2.767   4.912  -0.015 -0.6274 -1.4004  0.2587
 3432TIP3    H231856   2.879   4.891   0.084  0.6947 -0.8060 -1.0678
 3433TIP3   OH231857   4.595   5.614   2.235 -0.5174  0.3440 -0.2538
 3433TIP3    H131858   4.570   5.638   2.324 -1.5449 -0.5597 -0.2721
 3433TIP3    H231859   4.646   5.534   2.245 -2.2809 -0.8737 -0.5720
 3434TIP3   OH231860   4.866   5.094   0.973 -0.0911 -0.6507  0.3669
 3434TIP3    H131861   4.828   5.130   1.053 -0.7135 -0.4870  0.0057
 3434TIP3    H231862   4.846   5.000   0.978 -0.5574 -0.5623  0.1704
 3435TIP3   OH231863   3.869   6.141   1.597 -0.4719  0.0444 -0.2592
 3435TIP3    H131864   3.908   6.181   1.520 -1.0939 -0.9310 -1.1079
 3435TIP3    H231865   3.870   6.047   1.579  0.5180 -0.3311  1.4685
 3436TIP3   OH231866   5.510   3.223   1.203 -0.5348  0.8765 -0.7311
 3436TIP3    H131867   5.553   3.138   1.197 -1.1650  0.6134 -1.8172
 3436TIP3    H231868   5.539   3.259   1.287  2.9381  1.3848 -2.0051
 3437TIP3   OH231869   3.292   4.815   2.066  0.1727 -0.0180 -0.5938
 3437TIP3    H131870   3.313   4.737   2.016 -0.7320 -2.4203  2.4492
 3437TIP3    H231871   3.362   4.822   2.131 -0.3136  1.0461 -0.1561
 3438TIP3   OH231872   3.486   5.313   3.338 -0.2309  0.1259  0.3442
 3438TIP3    H131873   3.575   5.341   3.361 -0.1063  0.5985 -0.6817
 3438TIP3    H231874   3.498   5.253   3.264 -0.7341 -0.2012  0.5242
 3439TIP3   OH231875   0.756   4.979   1.568  0.1584  0.2977  0.1593
 3439TIP3    H131876   0.701   4.901   1.574  1.0130 -0.2268  1.7752
 3439TIP3    H231877   0.694   5.052   1.576 -0.6185 -0.1963 -1.0698
 3440TIP3   OH231878   0.045   5.260   1.646 -0.0246  0.0367  0.2625
 3440TIP3    H131879   0.129   5.287   1.683 -0.2207 -0.8651  1.4141
 3440TIP3    H231880   0.048   5.165   1.646 -0.8777  0.0058 -0.0905
 3441TIP3   OH231881   1.434   0.030   2.022  0.0334 -0.3026  0.5806
 3441TIP3    H131882   1.446   0.049   1.930  0.2077 -0.3547  0.5928
 3441TIP3    H231883   1.423  -0.065   2.026  2.6626 -0.6577  0.8828
 3442TIP3   OH231884   4.369   3.482   0.689 -0.4335 -0.0463  0.2669
 3442TIP3    H131885   4.317   3.402   0.676 -0.1987  0.0668 -1.5610
 3442TIP3    H231886   4.408   3.470   0.776  0.5640 -2.5085 -0.4179
 3443TIP3   OH231887   0.903   5.228   0.293 -0.2218  0.1550 -0.3079
 3443TIP3    H131888   0.821   5.181   0.283  0.2361 -0.6862 -0.2166
 3443TIP3    H231889   0.922   5.224   0.387 -0.6576  1.3778 -0.1453
 3444TIP3   OH231890   4.276   0.115   0.859 -0.5747  0.0860 -0.0870
 3444TIP3    H131891   4.228   0.072   0.789 -0.1928 -1.8649  0.7960
 3444TIP3    H231892   4.341   0.051   0.888  1.0551  1.8126  0.2980
 3445TIP3   OH231893   3.401   3.893   8.699  0.2020  0.0614 -0.5223
 3445TIP3    H131894   3.420   3.984   8.724 -0.0715 -0.0581  0.1215
 3445TIP3    H231895   3.487   3.850   8.699  0.2556  0.1664 -0.1988
 3446TIP3   OH231896   0.531   1.110   2.091  0.4739  0.3696  0.4423
 3446TIP3    H131897   0.459   1.129   2.031 -0.0673  1.2694  1.3528
 3446TIP3    H231898   0.609   1.109   2.035  0.3395  3.6459 -0.0224
 3447TIP3   OH231899   6.384   3.880   2.022 -0.3393  0.0142 -0.1224
 3447TIP3    H131900   6.300   3.834   2.021 -0.1390 -0.3551 -0.3245
 3447TIP3    H231901   6.399   3.905   1.931 -0.4258  0.4485 -0.0195
 3448TIP3   OH231902   2.802   6.575   2.422 -0.7479 -0.0193  0.5175
 3448TIP3    H131903   2.730   6.520   2.452 -0.5002 -0.4785  0.2889
 3448TIP3    H231904   2.848   6.521   2.358 -1.6757  1.1912 -1.2331
 3449TIP3   OH231905   6.103   5.071   3.175 -0.1035  0.0228  0.0422
 3449TIP3    H131906   6.024   5.049   3.224  0.5570 -1.6468  0.4493
 3449TIP3    H231907   6.159   4.994   3.185  0.6061  0.1661 -2.2352
 3450TIP3   OH231908   2.941   2.698   0.319 -0.6349 -0.6455 -0.6627
 3450TIP3    H131909   2.879   2.771   0.321 -3.0136 -2.5731  1.0082
 3450TIP3    H231910   2.964   2.683   0.410  0.4754 -1.5034 -1.0525
 3451TIP3   OH231911   0.473   4.704   0.965 -0.3355  0.5580 -0.0490
 3451TIP3    H131912   0.494   4.666   0.880  0.5972  1.5475 -0.2758
 3451TIP3    H231913   0.425   4.635   1.011  2.2194 -1.3545 -0.0368
 3452TIP3   OH231914   1.225   4.601   0.127  0.4412  0.1098 -0.1276
 3452TIP3    H131915   1.293   4.539   0.150  0.7638  0.2938 -0.5728
 3452TIP3    H231916   1.144   4.550   0.131  0.4631  0.1566  1.4787
 3453TIP3   OH231917   2.433   1.900   8.617 -0.3046  0.2922 -0.3884
 3453TIP3    H131918   2.473   1.828   8.568  0.1805  0.2952 -0.0089
 3453TIP3    H231919   2.491   1.974   8.602  1.4528 -0.3688  2.3690
 3454TIP3   OH231920   5.087   3.891   2.686  0.3834 -0.0555 -0.4499
 3454TIP3    H131921   5.104   3.980   2.717 -2.1786 -0.3048  1.9969
 3454TIP3    H231922   5.173   3.848   2.689  1.0553  1.2975  1.9268
 3455TIP3   OH231923   5.110   0.963   8.729 -0.2501 -0.0763  0.3709
 3455TIP3    H131924   5.163   1.031   8.773 -1.0732 -0.4811  2.0882
 3455TIP3    H231925   5.146   0.881   8.762 -1.9630 -0.3607  1.6945
 3456TIP3   OH231926   3.248   4.467   8.368  0.2458  0.7420  0.5602
 3456TIP3    H131927   3.304   4.421   8.430  0.7377  0.7162  0.1049
 3456TIP3    H231928   3.176   4.500   8.421  0.0361 -0.2950  0.9428
 3457TIP3   OH231929   6.075   2.044   1.806  0.2112 -0.2850  0.2561
 3457TIP3    H131930   6.090   2.100   1.882  1.3314 -1.1311  0.6790
 3457TIP3    H231931   5.987   2.009   1.820  0.4301 -0.4862  1.2125
 3458TIP3   OH231932   1.534   4.619   2.227 -0.3534  0.4766 -0.4155
 3458TIP3    H131933   1.629   4.622   2.219 -0.3141  0.6864  0.0995
 3458TIP3    H231934   1.503   4.691   2.173 -0.0569  2.3035  1.7219
 3459TIP3   OH231935   1.268   3.010   1.567 -0.9581 -0.4994  0.3065
 3459TIP3    H131936   1.187   3.012   1.517  0.4533 -0.4840 -2.1426
 3459TIP3    H231937   1.335   2.986   1.503  1.0151 -0.3029  2.1813
 3460TIP3   OH231938   1.252   2.278   0.553 -0.2461 -0.4070 -0.0103
 3460TIP3    H131939   1.237   2.202   0.497 -0.8579 -0.3706  0.0896
 3460TIP3    H231940   1.270   2.241   0.639 -0.0288 -0.4504 -0.0753
 3461TIP3   OH231941   4.560   1.376   1.954  0.0520  0.0831 -0.5106
 3461TIP3    H131942   4.539   1.458   2.000  1.2693  0.6781 -0.9455
 3461TIP3    H231943   4.613   1.327   2.017 -1.9806 -1.1103  0.3389
 3462TIP3   OH231944   3.738   4.403   2.790  0.2433 -0.1336 -0.4278
 3462TIP3    H131945   3.645   4.403   2.812  0.3595  0.7794  0.0716
 3462TIP3    H231946   3.779   4.459   2.855  1.7193 -3.2994  1.6359
 3463TIP3   OH231947   4.572   1.340   0.816  0.0263 -0.2749  0.4240
 3463TIP3    H131948   4.596   1.263   0.764 -0.9088 -0.4401  0.2215
 3463TIP3    H231949   4.477   1.340   0.815 -0.0035  1.6085 -0.6381
 3464TIP3   OH231950   0.069   5.933   1.419  0.2833  0.1535  0.3637
 3464TIP3    H131951   0.116   5.852   1.401  0.2022  0.1819  0.0177
 3464TIP3    H231952   0.028   5.956   1.336  0.5221  0.6929  0.3930
 3465TIP3   OH231953   3.862   3.154   3.913  0.6035  0.4436  0.5265
 3465TIP3    H131954   3.886   3.190   3.827 -0.7407  0.4958  0.1414
 3465TIP3    H231955   3.940   3.165   3.967  1.4075  0.5911 -0.6377
 3466TIP3   OH231956   4.567   2.269   3.216  0.2344  0.0563 -0.1360
 3466TIP3    H131957   4.649   2.221   3.226 -0.9091 -2.4270 -1.7472
 3466TIP3    H231958   4.570   2.302   3.126  0.0709  1.2288  0.2717
 3467TIP3   OH231959   2.837   4.662   1.294 -0.3199  0.5108 -0.5021
 3467TIP3    H131960   2.800   4.653   1.383 -0.3958  2.0648 -0.3543
 3467TIP3    H231961   2.918   4.711   1.307 -0.0530  0.2614 -1.2364
 3468TIP3   OH231962   1.379   4.197   2.988 -0.5766  0.1594 -0.0046
 3468TIP3    H131963   1.441   4.251   2.939 -0.8132  0.4866  0.0510
 3468TIP3    H231964   1.380   4.112   2.943 -0.4186  0.2991 -0.2675
 3469TIP3   OH231965   5.406   5.571   2.124 -0.0108 -0.6938  0.4851
 3469TIP3    H131966   5.427   5.651   2.075 -1.0712 -1.7091 -1.7785
 3469TIP3    H231967   5.315   5.553   2.102  0.5967 -3.2838 -0.2546
 3470TIP3   OH231968   1.224   5.489   1.441  0.3140  0.1139 -0.0783
 3470TIP3    H131969   1.222   5.401   1.404  1.5960  1.0177 -2.4328
 3470TIP3    H231970   1.147   5.532   1.404  1.0899  0.7414 -0.9909
 3471TIP3   OH231971   6.516   4.855   2.326 -0.6762  0.0590  0.0858
 3471TIP3    H131972   6.507   4.929   2.265 -1.1359  0.6655  0.8675
 3471TIP3    H231973   6.589   4.880   2.383 -0.0589 -0.6378 -0.3816
 3472TIP3   OH231974   4.475   1.693   0.727  0.2379 -0.2643 -0.0709
 3472TIP3    H131975   4.560   1.654   0.743  0.5963  0.1960 -0.7607
 3472TIP3    H231976   4.454   1.742   0.807  0.6291 -0.3708  0.0954
 3473TIP3   OH231977   6.644   2.267   2.287 -1.3235  0.3372 -0.7643
 3473TIP3    H131978   6.695   2.232   2.214  0.2885  0.3862  0.3014
 3473TIP3    H231979   6.581   2.198   2.308 -0.9027 -0.2198 -1.3285
 3474TIP3   OH231980   3.835   1.332   3.435  0.8225  0.0079 -0.3542
 3474TIP3    H131981   3.896   1.279   3.385  0.6712 -1.8065  1.2525
 3474TIP3    H231982   3.757   1.277   3.445 -0.1065  1.2834 -0.2179
 3475TIP3   OH231983   5.625   1.680   2.926  0.6168 -0.4762 -0.1780
 3475TIP3    H131984   5.616   1.753   2.988  2.9479  0.6368 -1.0199
 3475TIP3    H231985   5.629   1.722   2.840  1.4085 -1.6315 -0.7348
 3476TIP3   OH231986   3.532   5.655   2.047  0.2020 -0.3449  0.2639
 3476TIP3    H131987   3.529   5.742   2.085 -0.0758 -0.6471  0.9520
 3476TIP3    H231988   3.480   5.661   1.967  0.0285  0.0754  0.4091
 3477TIP3   OH231989   5.985   5.671   1.509 -0.2593  0.1028  0.4968
 3477TIP3    H131990   5.959   5.749   1.559  0.5515  0.5437  0.2539
 3477TIP3    H231991   6.014   5.609   1.576  1.3732  0.9021  0.5843
 3478TIP3   OH231992   4.851   0.386   1.006 -0.3196  0.1753 -0.1635
 3478TIP3    H131993   4.926   0.372   1.064 -0.8402 -0.1932  0.4295
 3478TIP3    H231994   4.870   0.332   0.929 -0.4111 -0.6576  0.3845
 3479TIP3   OH231995   5.682   4.568   8.657 -0.1479 -0.0041 -0.0116
 3479TIP3    H131996   5.611   4.628   8.677 -0.1978  0.1405 -0.6231
 3479TIP3    H231997   5.655   4.524   8.576 -0.2338 -1.0409  0.5557
 3480TIP3   OH231998   3.913   0.358   0.690  0.2510  0.2059  0.2313
 3480TIP3    H131999   3.869   0.296   0.632 -0.7005  1.4964 -0.4900
 3480TIP3    H232000   3.861   0.357   0.770 -0.0541  0.4281  0.0375
 3481TIP3   OH232001   2.386   2.071   2.479  0.3499  0.0615 -0.5878
 3481TIP3    H132002   2.407   1.982   2.451 -0.8098  0.0747 -1.6104
 3481TIP3    H232003   2.396   2.124   2.400  0.6602  0.7844 -0.0764
 3482TIP3   OH232004   5.500   0.935   2.525  0.4101 -0.2988 -0.0033
 3482TIP3    H132005   5.554   0.860   2.550 -0.2236 -0.6136  0.4502
 3482TIP3    H232006   5.513   0.998   2.596  2.0439  0.6344 -1.0540
 3483TIP3   OH232007   4.559   5.565   2.534 -0.1240 -0.1269  0.4407
 3483TIP3    H132008   4.602   5.525   2.610  0.0931 -0.6907  0.0296
 3483TIP3    H232009   4.466   5.562   2.556 -0.0556 -0.1908  0.7287
 3484TIP3   OH232010   4.276   5.251   1.226  0.0494  0.5328 -0.4566
 3484TIP3    H132011   4.334   5.268   1.300  0.2395  0.5989 -0.6204
 3484TIP3    H232012   4.194   5.294   1.250  0.0719  0.4512 -0.2318
 3485TIP3   OH232013   3.236   2.526   8.720  0.3997 -0.1956  0.1807
 3485TIP3    H132014   3.247   2.533   8.815  3.2446 -0.8330 -0.0296
 3485TIP3    H232015   3.141   2.534   8.707 -0.0309  0.4495  3.0013
 3486TIP3   OH232016   2.601   3.593   2.297  0.3857  0.0970 -0.0262
 3486TIP3    H132017   2.597   3.535   2.373  0.1591  0.1889  0.0337
 3486TIP3    H232018   2.638   3.539   2.227 -0.6270 -0.3904 -0.2142
 3487TIP3   OH232019   5.365   5.799   3.187  0.4121 -0.0019  0.0872
 3487TIP3    H132020   5.387   5.878   3.137  0.7351 -0.1717 -0.0400
 3487TIP3    H232021   5.414   5.808   3.268  2.8160 -1.4450 -1.0870
 3488TIP3   OH232022   4.160   6.087   0.309 -0.1438 -0.2259  0.0045
 3488TIP3    H132023   4.137   6.010   0.257 -0.5692  0.6985 -1.2075
 3488TIP3    H232024   4.082   6.142   0.305  0.8679  1.1949 -0.8610
 3489TIP3   OH232025   0.967   2.126   0.306 -0.2497 -0.5439  0.6721
 3489TIP3    H132026   0.948   2.208   0.353 -0.3703 -0.2410  0.0963
 3489TIP3    H232027   0.893   2.069   0.328 -0.1055 -0.5450  1.1714
 3490TIP3   OH232028   4.408   4.586   0.652 -0.5214 -0.3371 -0.4602
 3490TIP3    H132029   4.426   4.602   0.559  0.4668 -0.9141 -0.3755
 3490TIP3    H232030   4.446   4.499   0.669  1.1252  0.6167  0.9742
 3491TIP3   OH232031   5.421   1.425   3.592  0.0283 -0.2107 -0.0624
 3491TIP3    H132032   5.484   1.355   3.574 -0.2027 -0.6591  0.7801
 3491TIP3    H232033   5.344   1.403   3.540 -0.4639 -1.2302  1.0390
 3492TIP3   OH232034   6.471   3.347   1.191 -0.6256 -0.4729  0.3343
 3492TIP3    H132035   6.428   3.395   1.121 -0.8618 -2.0249 -0.6400
 3492TIP3    H232036   6.528   3.285   1.146  0.0855 -0.7425  1.5467
 3493TIP3   OH232037   1.070   2.862   2.150  0.0767  0.5008 -0.0017
 3493TIP3    H132038   1.014   2.904   2.086  0.8394 -0.3188 -1.2598
 3493TIP3    H232039   1.094   2.778   2.111  1.0299  0.2121  1.1016
 3494TIP3   OH232040   4.580   3.998   1.740 -0.3265  0.2676  0.4820
 3494TIP3    H132041   4.663   3.953   1.722 -0.3245  0.2160  0.6144
 3494TIP3    H232042   4.573   3.996   1.836 -1.2424 -1.1234  0.4198
 3495TIP3   OH232043   0.112   0.115   2.959  0.2221  0.7549  0.2762
 3495TIP3    H132044   0.048   0.046   2.976  2.2526 -1.6676 -1.2464
 3495TIP3    H232045   0.149   0.136   3.045  0.3223 -0.8538  0.6450
 3496TIP3   OH232046   2.788   1.013   2.170  0.3745 -0.0138  0.1635
 3496TIP3    H132047   2.799   1.101   2.132  0.2726  0.1943  0.6177
 3496TIP3    H232048   2.695   0.993   2.158 -0.2090  1.0413  2.4112
 3497TIP3   OH232049   3.941   1.643   1.491 -0.3655  0.4506  0.2615
 3497TIP3    H132050   4.000   1.570   1.507 -1.7823 -1.6182 -2.9849
 3497TIP3    H232051   3.922   1.679   1.578  0.8789 -2.6316  1.9478
 3498TIP3   OH232052   1.169   4.890   3.167 -0.2625  0.0132  0.0553
 3498TIP3    H132053   1.088   4.849   3.138 -0.2206 -0.6158  0.7815
 3498TIP3    H232054   1.226   4.816   3.190 -0.5767  0.4274  2.4598
 3499TIP3   OH232055   3.225   3.893   0.243 -0.3790 -0.0465 -0.4340
 3499TIP3    H132056   3.299   3.896   0.181 -0.2061 -1.1443 -0.3117
 3499TIP3    H232057   3.194   3.803   0.237  0.4896 -0.5745  2.0376
 3500TIP3   OH232058   2.108   5.146   0.475  0.0413  0.0380 -0.1049
 3500TIP3    H132059   2.023   5.175   0.506 -1.2699 -1.5139 -2.0048
 3500TIP3    H232060   2.137   5.082   0.540 -0.3557  0.3456  0.3863
 3501TIP3   OH232061   5.618   5.689   0.761  0.1424 -0.1232 -0.2480
 3501TIP3    H132062   5.565   5.676   0.840  0.9082 -1.9382  0.0066
 3501TIP3    H232063   5.579   5.632   0.695  1.2083 -0.8023 -0.3161
 3502TIP3   OH232064   6.053   0.882   3.219  0.0960  0.0054  0.8791
 3502TIP3    H132065   6.130   0.824   3.220  0.1595  0.0904  1.2265
 3502TIP3    H232066   6.084   0.964   3.258 -0.0275  0.2307  0.5055
 3503TIP3   OH232067   1.367   6.660   1.715 -0.3520  0.2046  0.0614
 3503TIP3    H132068   1.296   6.622   1.663 -1.8801 -0.6569  2.5735
 3503TIP3    H232069   1.331   6.741   1.750 -0.3961 -0.5119  1.8114
 3504TIP3   OH232070   4.373   4.034   0.282 -0.0624  0.1629 -0.4933
 3504TIP3    H132071   4.338   3.951   0.249 -1.3741  0.2255  0.6394
 3504TIP3    H232072   4.366   4.028   0.377  1.3476  0.9484 -0.3098
 3505TIP3   OH232073   0.169   6.835   1.333 -0.3970 -0.4064  0.1011
 3505TIP3    H132074   0.119   6.847   1.414 -0.1851  2.1052 -0.0678
 3505TIP3    H232075   0.232   6.766   1.354 -1.1191 -0.6317  1.6871
 3506TIP3   OH232076   6.491   2.010   2.052  0.3937  0.4430 -0.1459
 3506TIP3    H132077   6.455   2.042   2.135  0.2390  0.1279 -0.0891
 3506TIP3    H232078   6.492   1.915   2.062  0.3825  0.4052 -0.5030
 3507TIP3   OH232079   6.760   3.931   2.185 -0.1409 -0.1668  0.3409
 3507TIP3    H132080   6.701   3.991   2.139  1.0976  1.9764  1.4199
 3507TIP3    H232081   6.845   3.944   2.143  0.1428 -1.2412  0.5553
 3508TIP3   OH232082   0.408   6.105   0.757  0.2693 -0.6423  0.0124
 3508TIP3    H132083   0.438   6.184   0.801  0.8013  1.0130 -3.0546
 3508TIP3    H232084   0.487   6.064   0.724 -0.2313 -0.7508 -1.0851
 3509TIP3   OH232085   2.542   3.856   0.016 -0.2423  0.3459  0.1794
 3509TIP3    H132086   2.578   3.794  -0.048  2.3428  1.6446  0.2525
 3509TIP3    H232087   2.452   3.869  -0.013 -0.3133 -2.0051 -0.9091
 3510TIP3   OH232088   2.998   4.148   8.398 -0.3380  1.0126  0.0515
 3510TIP3    H132089   2.988   4.238   8.368  1.8177  1.5059  0.6358
 3510TIP3    H232090   3.077   4.150   8.453 -1.1406 -0.9077  1.3787
 3511TIP3   OH232091   3.953   4.599   8.306  0.0225  0.0347 -0.2578
 3511TIP3    H132092   4.034   4.557   8.335 -0.7704 -0.5007  1.3527
 3511TIP3    H232093   3.977   4.647   8.227  1.7443 -0.6590 -0.1967
 3512TIP3   OH232094   2.837   3.131   7.552 -0.4087 -0.0845 -0.7061
 3512TIP3    H132095   2.868   3.074   7.481  0.4537 -0.7543  0.1753
 3512TIP3    H232096   2.834   3.073   7.629  1.2575  1.1985  0.4120
 3513TIP3   OH232097   1.707   5.303   3.724 -0.0337 -0.4777 -0.5075
 3513TIP3    H132098   1.711   5.383   3.671 -0.9300 -0.7245 -0.9711
 3513TIP3    H232099   1.681   5.235   3.662 -0.7513 -0.8394  0.1700
 3514TIP3   OH232100   0.227   0.915   2.433  0.3501  0.2333 -0.2912
 3514TIP3    H132101   0.289   0.846   2.409  0.3118  0.3199 -0.6376
 3514TIP3    H232102   0.259   0.993   2.389  0.6869  0.5620  0.5271
 3515TIP3   OH232103   2.989   2.668   3.348 -0.2341 -0.2195 -0.2453
 3515TIP3    H132104   3.041   2.666   3.429 -2.4580  0.2967  1.3187
 3515TIP3    H232105   2.972   2.761   3.334 -0.0520 -0.3234 -1.2211
 3516TIP3   OH232106   5.441   3.183   0.127 -0.1815  0.0235  0.0162
 3516TIP3    H132107   5.533   3.210   0.119  0.2303 -1.0520  0.8691
 3516TIP3    H232108   5.405   3.242   0.194  0.5819 -1.1395  1.5128
 3517TIP3   OH232109   5.729   3.548   1.816  0.2447 -0.2792 -0.1299
 3517TIP3    H132110   5.707   3.604   1.891  0.1145  1.9561 -1.7465
 3517TIP3    H232111   5.738   3.460   1.854 -1.6163  0.4309  2.2018
 3518TIP3   OH232112   1.312   0.376   8.321  0.0382  0.3571  0.8125
 3518TIP3    H132113   1.295   0.283   8.309 -0.5171  0.7363 -1.9277
 3518TIP3    H232114   1.408   0.382   8.326  0.0945 -0.3257  0.6436
 3519TIP3   OH232115   6.170   3.389   1.941 -0.3838  0.2859 -0.2740
 3519TIP3    H132116   6.227   3.313   1.950  1.5921  1.5880 -1.1749
 3519TIP3    H232117   6.104   3.362   1.877 -1.6922 -1.6965  1.7545
 3520TIP3   OH232118   4.934   0.177   3.081 -0.3722 -0.3039  0.1250
 3520TIP3    H132119   5.010   0.191   3.136 -0.0898 -1.4710  0.0600
 3520TIP3    H232120   4.859   0.201   3.136 -0.1409 -1.9366  1.2527
 3521TIP3   OH232121   4.567   2.953   2.437 -0.2148 -0.2265  0.0484
 3521TIP3    H132122   4.648   2.999   2.461  0.8247 -1.6862 -0.5328
 3521TIP3    H232123   4.531   2.923   2.521 -0.9832  1.6935  0.4517
 3522TIP3   OH232124   1.716   5.302   8.098 -0.2122 -0.3521 -0.0233
 3522TIP3    H132125   1.693   5.306   8.006  0.5677 -0.7856 -0.2440
 3522TIP3    H232126   1.632   5.293   8.144 -0.5817 -0.3767 -0.7016
 3523TIP3   OH232127   4.413   4.258   8.364 -0.1186 -0.2228  0.0130
 3523TIP3    H132128   4.428   4.186   8.304 -1.7517 -0.7030  0.1405
 3523TIP3    H232129   4.322   4.249   8.391 -0.8202  2.6618 -0.9983
 3524TIP3   OH232130   5.301   4.097   3.177 -0.2683  0.3155  0.1159
 3524TIP3    H132131   5.372   4.157   3.196 -0.3092  0.5339 -0.4031
 3524TIP3    H232132   5.274   4.063   3.263  1.6618 -1.1625  0.2000
 3525TIP3   OH232133   2.354   6.779   1.994  0.1455  0.6019  0.2485
 3525TIP3    H132134   2.343   6.724   1.916 -1.0147  2.4466 -0.9997
 3525TIP3    H232135   2.360   6.718   2.067  1.5757 -1.2082 -1.3128
 3526TIP3   OH232136   5.435   3.346   2.969 -0.5469  0.1605  0.4952
 3526TIP3    H132137   5.349   3.379   2.942 -0.6111  0.4440  1.0291
 3526TIP3    H232138   5.420   3.310   3.056  0.1631  1.4969  1.1987
 3527TIP3   OH232139   4.490   2.590   8.526  0.3226 -0.0451  0.2996
 3527TIP3    H132140   4.442   2.638   8.458 -1.0208 -1.2128  0.3823
 3527TIP3    H232141   4.534   2.519   8.479 -1.0758 -1.2063  0.6673
 3528TIP3   OH232142   5.312   3.156   1.030 -0.1223  0.1272 -0.4446
 3528TIP3    H132143   5.377   3.187   1.092  0.5363 -2.9900  0.5467
 3528TIP3    H232144   5.359   3.096   0.973 -1.6135 -0.2319 -1.3461
 3529TIP3   OH232145   5.651   5.967   0.612 -0.3274  0.2233 -0.0757
 3529TIP3    H132146   5.666   5.896   0.550 -0.2486  0.5127 -0.3878
 3529TIP3    H232147   5.699   5.940   0.691 -0.2824 -0.0597 -0.1963
 3530TIP3   OH232148   3.058   0.102   2.672 -0.5030  0.1469 -0.1210
 3530TIP3    H132149   3.141   0.135   2.708 -0.8273 -0.9899  1.8207
 3530TIP3    H232150   2.997   0.174   2.682  0.1017  0.8181 -1.0916
 3531TIP3   OH232151   4.432   2.143   1.492  0.7390  0.0912  0.1088
 3531TIP3    H132152   4.373   2.091   1.547 -0.6334  0.1607 -1.2218
 3531TIP3    H232153   4.405   2.234   1.509 -0.5605  0.0649 -1.5274
 3532TIP3   OH232154   6.830   0.151   3.291 -0.1200 -0.8410 -0.1116
 3532TIP3    H132155   6.922   0.164   3.270  0.4448 -1.5673  1.7351
 3532TIP3    H232156   6.830   0.111   3.378 -2.2032 -0.3724  0.1648
 3533TIP3   OH232157   2.913   1.185   0.291  0.1874 -0.0740 -0.4098
 3533TIP3    H132158   2.994   1.194   0.341  0.7465  0.4376 -1.4024
 3533TIP3    H232159   2.863   1.119   0.340  1.1893 -0.3951  0.2150
 3534TIP3   OH232160   5.592   4.283   8.699  0.4998 -0.1628  0.1520
 3534TIP3    H132161   5.576   4.370   8.735 -0.0808 -0.6323  1.0805
 3534TIP3    H232162   5.662   4.247   8.754 -1.2066 -1.3419  1.6669
 3535TIP3   OH232163   4.898   3.508   1.502 -0.5881 -0.0878 -0.4381
 3535TIP3    H132164   4.929   3.517   1.412 -0.7069  1.5427 -0.3402
 3535TIP3    H232165   4.977   3.516   1.556 -0.7663  0.9916 -0.3218
 3536TIP3   OH232166   2.438   0.210   2.826  0.5638 -0.8951  0.1291
 3536TIP3    H132167   2.476   0.156   2.895  3.3844 -0.0442 -0.6279
 3536TIP3    H232168   2.505   0.215   2.758 -1.1261  0.3351 -1.5990
 3537TIP3   OH232169   4.546   5.300   0.403  0.5690 -0.2544  0.0413
 3537TIP3    H132170   4.483   5.372   0.399 -0.0787 -0.7393  0.9675
 3537TIP3    H232171   4.631   5.342   0.407  0.1190  0.5942  2.8565
 3538TIP3   OH232172   4.281   1.747   1.216  0.2385  0.1002  0.2557
 3538TIP3    H132173   4.332   1.667   1.233  0.1873  0.1817  0.8078
 3538TIP3    H232174   4.192   1.715   1.201  0.4844 -0.0622 -0.9401
 3539TIP3   OH232175   6.694   3.386   2.965 -0.3063  0.4510 -0.1166
 3539TIP3    H132176   6.780   3.404   3.002 -0.5323 -2.1896  2.0137
 3539TIP3    H232177   6.702   3.299   2.926 -1.5789  0.9003 -1.4606
 3540TIP3   OH232178   3.972   4.429   7.576  0.0450  0.0220  0.3257
 3540TIP3    H132179   4.053   4.424   7.626  0.2312  1.1193  0.1607
 3540TIP3    H232180   3.982   4.508   7.523 -1.7554  1.0603  1.4352
 3541TIP3   OH232181   0.966   3.082   1.774  0.4736  0.3742  0.0740
 3541TIP3    H132182   0.999   3.129   1.697  0.1380 -0.8179 -0.8363
 3541TIP3    H232183   1.036   3.022   1.798  0.0768 -0.1609 -0.0987
 3542TIP3   OH232184   5.652   6.176   0.165 -0.1087 -0.0197 -0.1638
 3542TIP3    H132185   5.603   6.207   0.240  1.9135  2.0766  0.4058
 3542TIP3    H232186   5.618   6.087   0.149 -2.0855  0.2876  1.8230
 3543TIP3   OH232187   2.347   4.832   1.346  0.1784 -0.5998  0.0349
 3543TIP3    H132188   2.313   4.885   1.418  1.2858  1.0041 -0.5723
 3543TIP3    H232189   2.387   4.895   1.286  0.8798 -2.0588 -1.0996
 3544TIP3   OH232190   4.288   5.390   2.416  0.3084  0.9202  0.0398
 3544TIP3    H132191   4.222   5.459   2.407 -0.4405  0.0797 -1.2114
 3544TIP3    H232192   4.293   5.351   2.329  0.7284 -0.5823  0.7139
 3545TIP3   OH232193   4.908   1.538   2.790  0.3378 -0.0716  0.2698
 3545TIP3    H132194   4.891   1.579   2.704 -0.2121  0.1271  0.4671
 3545TIP3    H232195   4.825   1.548   2.837  0.5027 -0.5755  0.6661
 3546TIP3   OH232196   2.537   4.799   0.120  0.1743 -0.5262  0.0854
 3546TIP3    H132197   2.567   4.742   0.191 -0.0028 -0.1640  0.4530
 3546TIP3    H232198   2.617   4.836   0.083  0.2309 -0.2201  0.5115
 3547TIP3   OH232199   5.570   0.635   2.801 -0.0551  0.4300  0.3246
 3547TIP3    H132200   5.495   0.583   2.828 -0.4262  1.3058  1.0294
 3547TIP3    H232201   5.587   0.693   2.875  1.7628 -0.2145  0.4635
 3548TIP3   OH232202   6.045   1.692   0.592 -0.0834  0.2975  0.1841
 3548TIP3    H132203   6.038   1.735   0.507 -1.4234 -0.1708  0.0224
 3548TIP3    H232204   6.059   1.763   0.654 -2.3398  1.0595 -0.0685
 3549TIP3   OH232205   4.709   0.395   3.470  0.4053  0.0335  0.5343
 3549TIP3    H132206   4.738   0.471   3.520  0.4442  0.4287 -0.0861
 3549TIP3    H232207   4.617   0.413   3.449  0.6531  0.3265 -0.3616
 3550TIP3   OH232208   5.220   6.011   1.294  0.3713 -0.1656  0.1510
 3550TIP3    H132209   5.134   6.015   1.251  1.4468  0.0027 -2.0833
 3550TIP3    H232210   5.231   6.099   1.331 -0.6754 -0.3845  1.0447
 3551TIP3   OH232211   2.983   4.253   2.114  0.1729  0.1095  0.5133
 3551TIP3    H132212   2.970   4.160   2.134 -0.2089  0.2548  0.9500
 3551TIP3    H232213   2.919   4.272   2.045  0.6769 -0.1001 -0.0189
 3552TIP3   OH232214   0.173   4.917   8.380  0.3479  0.2897 -0.9016
 3552TIP3    H132215   0.136   5.004   8.360 -1.7909 -0.3766 -0.1476
 3552TIP3    H232216   0.147   4.863   8.306 -0.1445 -0.1741 -0.3999
 3553TIP3   OH232217   5.810   2.489   0.500 -0.4028  0.3950  0.0035
 3553TIP3    H132218   5.806   2.399   0.468  0.3253  0.0412  0.8586
 3553TIP3    H232219   5.904   2.509   0.504 -0.5680  1.6504 -1.3956
 3554TIP3   OH232220   1.208   3.803   0.259  0.1547 -0.2463  0.0551
 3554TIP3    H132221   1.190   3.886   0.304  0.5796 -0.3744  0.4743
 3554TIP3    H232222   1.214   3.739   0.330  0.1166 -0.5863 -0.2462
 3555TIP3   OH232223   0.772   1.649   8.634 -0.0290 -0.2767 -0.0407
 3555TIP3    H132224   0.764   1.591   8.710 -0.7820  0.5977  0.5761
 3555TIP3    H232225   0.682   1.676   8.616  0.0583 -0.9579 -1.6574
 3556TIP3   OH232226   5.604   1.540   2.375 -0.1840  0.2477  0.4411
 3556TIP3    H132227   5.672   1.534   2.307  0.9326  0.4565  1.4977
 3556TIP3    H232228   5.623   1.466   2.433 -0.1958  0.9296  1.3254
 3557TIP3   OH232229   4.989   2.315   3.481  0.1232  0.1744  0.4514
 3557TIP3    H132230   5.026   2.270   3.557 -1.3159 -0.7502  0.6634
 3557TIP3    H232231   5.030   2.401   3.481  1.5711 -0.4906  1.1450
 3558TIP3   OH232232   0.631   6.678   0.988  0.4807 -0.3022  0.4435
 3558TIP3    H132233   0.559   6.741   0.986  0.5270 -0.2089  1.2074
 3558TIP3    H232234   0.705   6.728   1.023  0.4262 -0.8557  1.3855
 3559TIP3   OH232235   5.343   2.345   2.237  0.2448  0.5386 -0.3599
 3559TIP3    H132236   5.331   2.350   2.332 -2.5511 -1.9629 -0.4504
 3559TIP3    H232237   5.306   2.426   2.203  0.0453  0.8553  0.5929
 3560TIP3   OH232238   4.416   4.904   0.220 -0.5662 -0.0439  0.4175
 3560TIP3    H132239   4.445   4.900   0.129 -2.3003 -2.1001 -0.1161
 3560TIP3    H232240   4.491   4.941   0.267  0.5781  0.5691 -1.7308
 3561TIP3   OH232241   0.113   3.561   2.589 -0.3069 -0.1019  0.0828
 3561TIP3    H132242   0.115   3.470   2.561 -0.5544  0.0875 -0.5752
 3561TIP3    H232243   0.025   3.574   2.624  0.4081 -0.7019  2.2727
 3562TIP3   OH232244   5.252   1.932   2.423  0.1244  0.7423 -0.2803
 3562TIP3    H132245   5.287   1.843   2.430 -2.9801 -0.4788  3.0782
 3562TIP3    H232246   5.321   1.988   2.459  1.4474 -0.4998 -0.8165
 3563TIP3   OH232247   1.403   3.359   2.746 -0.2106 -0.1034 -0.1107
 3563TIP3    H132248   1.344   3.316   2.808  1.3778  0.5853  2.0198
 3563TIP3    H232249   1.478   3.299   2.740  0.0428  0.2636 -0.6422
 3564TIP3   OH232250   1.285   4.305   0.875 -0.0513 -0.3062  0.2902
 3564TIP3    H132251   1.307   4.322   0.784 -1.5249  1.1549  0.1700
 3564TIP3    H232252   1.332   4.372   0.925 -2.0764  1.2641  0.2327
 3565TIP3   OH232253   1.973   3.567   1.872  0.8536  0.3402 -0.4129
 3565TIP3    H132254   1.911   3.592   1.804  2.7159 -0.1636 -2.3910
 3565TIP3    H232255   2.044   3.631   1.866  2.3224 -1.2488 -0.8075
 3566TIP3   OH232256   3.047   2.286   2.290  0.4282 -0.1537 -0.0862
 3566TIP3    H132257   2.992   2.353   2.248  1.5745  0.2482 -1.0040
 3566TIP3    H232258   3.078   2.232   2.218  0.1967 -1.1773  0.5669
 3567TIP3   OH232259   0.444   0.712   8.258  0.0462 -0.0117  0.1001
 3567TIP3    H132260   0.539   0.717   8.251  0.0262 -0.8799 -1.1014
 3567TIP3    H232261   0.412   0.786   8.206  0.0579 -0.3928 -0.4584
 3568TIP3   OH232262   1.566   4.349   2.206  0.5652  0.0382 -0.5492
 3568TIP3    H132263   1.484   4.315   2.173  0.1468 -0.6283  1.0658
 3568TIP3    H232264   1.543   4.433   2.246  0.4530 -0.5956  0.7679
 3569TIP3   OH232265   3.812   0.838   2.556  0.2601 -0.0882 -0.3762
 3569TIP3    H132266   3.869   0.805   2.486  1.0217  3.9056 -1.9140
 3569TIP3    H232267   3.724   0.831   2.520  0.5131  0.5191 -1.1482
 3570TIP3   OH232268   3.901   6.741   3.448 -0.7036  0.1537 -0.1448
 3570TIP3    H132269   3.813   6.703   3.458 -1.0940  0.1909 -2.7441
 3570TIP3    H232270   3.888   6.835   3.463 -1.0277  0.1101 -0.1375
 3571TIP3   OH232271   4.394   5.523   0.459 -0.0245  0.1954 -0.1167
 3571TIP3    H132272   4.299   5.517   0.468 -0.0209 -0.6792 -0.5443
 3571TIP3    H232273   4.410   5.610   0.423 -0.5464  0.9242  1.3703
 3572TIP3   OH232274   6.603   2.706   3.402  0.1621  0.3942  0.7997
 3572TIP3    H132275   6.678   2.672   3.353 -0.8364 -0.4700 -0.1657
 3572TIP3    H232276   6.622   2.684   3.493  0.6960 -0.5512  0.4661
 3573TIP3   OH232277   1.979   3.017   0.612  0.0401 -0.1730  0.0717
 3573TIP3    H132278   1.972   2.929   0.647 -1.7609  0.7510  2.2401
 3573TIP3    H232279   2.046   3.060   0.666  1.6819 -0.4223 -1.6372
 3574TIP3   OH232280   3.594   4.363   8.686 -0.1902 -0.3003 -0.1357
 3574TIP3    H132281   3.620   4.413   8.764  0.7098  1.2871 -1.3929
 3574TIP3    H232282   3.512   4.404   8.658  1.0085  1.1680 -1.6889
 3575TIP3   OH232283   1.913   2.861   0.895  0.2210  0.0243  0.2284
 3575TIP3    H132284   1.848   2.931   0.898  1.2090  0.9511  0.0982
 3575TIP3    H232285   1.862   2.781   0.912 -0.6882  0.8959  1.8573
 3576TIP3   OH232286   3.969   3.790   1.451  0.0374  0.0025 -0.0750
 3576TIP3    H132287   3.891   3.844   1.444 -0.4004 -0.3864  1.4396
 3576TIP3    H232288   4.039   3.852   1.474 -0.4350  0.0037  1.5120
 3577TIP3   OH232289   4.181   5.204   0.744  0.2509 -0.0041  0.2630
 3577TIP3    H132290   4.266   5.244   0.726 -0.4918  1.9690  0.9127
 3577TIP3    H232291   4.197   5.146   0.818  1.2939 -0.7715 -0.5216
 3578TIP3   OH232292   6.600   5.684   7.870 -0.0674  0.8373  0.2074
 3578TIP3    H132293   6.668   5.629   7.833 -0.9680 -0.0491 -0.1702
 3578TIP3    H232294   6.556   5.723   7.795  0.9177  2.5852  0.4692
 3579TIP3   OH232295   2.144   5.525   3.352  0.8370 -0.8464 -0.4497
 3579TIP3    H132296   2.123   5.506   3.443  0.5140  1.7597  0.0876
 3579TIP3    H232297   2.238   5.542   3.352  0.5216  1.1373 -0.1510
 3580TIP3   OH232298   2.041   1.200   3.650  0.0846  0.4361  0.5897
 3580TIP3    H132299   2.077   1.112   3.655 -1.3024 -0.1511  0.5191
 3580TIP3    H232300   1.999   1.214   3.734 -0.6544  0.5944  0.2033
 3581TIP3   OH232301   2.453   0.535   3.099 -0.1689 -0.3867  0.0464
 3581TIP3    H132302   2.388   0.549   3.169 -0.8326 -1.8557 -0.2531
 3581TIP3    H232303   2.523   0.486   3.141  0.7882  1.1721  0.3601
 3582TIP3   OH232304   3.763   0.194   0.532  0.2712  0.3925 -0.1981
 3582TIP3    H132305   3.795   0.110   0.566  0.1203  0.5418  0.3117
 3582TIP3    H232306   3.705   0.169   0.460  0.7611  0.0853 -0.4949
 3583TIP3   OH232307   0.618   2.772   0.244 -0.4519 -0.2097  0.1219
 3583TIP3    H132308   0.648   2.850   0.291 -0.0910 -0.1932 -0.1285
 3583TIP3    H232309   0.547   2.738   0.298  1.4634 -1.5529  1.9983
 3584TIP3   OH232310   6.788   1.161   2.233  0.4267 -0.0439  0.5124
 3584TIP3    H132311   6.821   1.171   2.322 -0.1119  0.1665  0.6899
 3584TIP3    H232312   6.710   1.217   2.229  0.9792  0.7072 -0.3689
 3585TIP3   OH232313   2.314   2.924   1.108  0.4871  0.0834  0.1377
 3585TIP3    H132314   2.276   2.836   1.116  0.7934  0.0200  0.9569
 3585TIP3    H232315   2.389   2.913   1.050 -0.2841  0.0733 -0.8964
 3586TIP3   OH232316   5.742   3.426   1.409  0.0869 -0.0662  0.0416
 3586TIP3    H132317   5.779   3.486   1.474  0.2178 -0.2986  0.1873
 3586TIP3    H232318   5.794   3.440   1.330  0.6342 -0.5445  0.3090
 3587TIP3   OH232319   1.600   6.205   0.869  0.0485 -0.0690  0.3092
 3587TIP3    H132320   1.514   6.219   0.910  0.4287  0.4137  0.9555
 3587TIP3    H232321   1.597   6.114   0.840 -1.6248  0.6047 -1.9516
 3588TIP3   OH232322   1.838   6.027   8.639 -0.1968 -0.0358 -0.5358
 3588TIP3    H132323   1.772   5.976   8.687  0.1532 -0.4048 -0.4391
 3588TIP3    H232324   1.798   6.113   8.627 -0.1415  0.1924  0.7584
 3589TIP3   OH232325   2.868   5.894   8.587  0.3471  0.1674  0.3325
 3589TIP3    H132326   2.828   5.857   8.509  0.0261 -1.7536  1.3409
 3589TIP3    H232327   2.927   5.825   8.619  1.4659  1.4070  1.0780
 3590TIP3   OH232328   6.650   1.395   0.132 -0.1196 -0.3689  0.3674
 3590TIP3    H132329   6.576   1.391   0.072  0.4842  0.2117 -0.4505
 3590TIP3    H232330   6.645   1.314   0.183 -0.1406 -1.3204 -1.0957
 3591TIP3   OH232331   5.333   2.478   0.751 -0.3752 -0.0904  0.0138
 3591TIP3    H132332   5.329   2.484   0.655 -1.8769 -0.3080  0.0362
 3591TIP3    H232333   5.267   2.540   0.782  0.2698  0.1594  0.9240
 3592TIP3   OH232334   2.659   0.413   1.657  0.6155 -0.5071 -0.4285
 3592TIP3    H132335   2.701   0.371   1.732 -0.8331  1.9414  1.9451
 3592TIP3    H232336   2.573   0.440   1.689 -0.4284 -0.1218 -3.2803
 3593TIP3   OH232337   0.166   0.175   1.933  0.0473  0.4618 -0.2124
 3593TIP3    H132338   0.094   0.231   1.962  0.7035  1.5856 -0.6746
 3593TIP3    H232339   0.240   0.201   1.988 -0.3239 -2.1031  1.7056
 3594TIP3   OH232340   5.446   4.644   7.440  0.0234 -0.6285  0.3859
 3594TIP3    H132341   5.408   4.731   7.434  0.0160 -0.4417  2.2938
 3594TIP3    H232342   5.514   4.652   7.507  0.0199 -2.0617  0.6062
 3595TIP3   OH232343   1.045   4.724   0.733 -0.1605  0.7085  0.2323
 3595TIP3    H132344   1.025   4.634   0.759  0.5232  0.4000 -0.2726
 3595TIP3    H232345   0.981   4.778   0.780 -1.1237 -0.1033 -0.1357
 3596TIP3   OH232346   5.660   1.784   0.510  0.3352 -0.0723  0.6229
 3596TIP3    H132347   5.588   1.838   0.480 -0.3233  0.8151  3.4843
 3596TIP3    H232348   5.736   1.843   0.511  0.1037  0.2354  1.6427
 3597TIP3   OH232349   4.148   1.467   1.502  0.2494  0.0479 -0.4761
 3597TIP3    H132350   4.180   1.390   1.456 -1.7835 -1.1739  0.0530
 3597TIP3    H232351   4.224   1.499   1.551  1.1147 -1.6392 -0.6585
 3598TIP3   OH232352   3.217   3.800   8.506  0.2975 -0.3503  0.2378
 3598TIP3    H132353   3.297   3.802   8.557 -0.4949 -0.9801  1.5536
 3598TIP3    H232354   3.168   3.725   8.540 -1.0709  0.2988 -0.1905
 3599TIP3   OH232355   4.545   5.037   2.707 -0.2745  0.2304 -0.0269
 3599TIP3    H132356   4.585   5.090   2.776 -1.1164  1.4329 -0.4315
 3599TIP3    H232357   4.618   4.989   2.669  0.7790  2.1594 -0.5694
 3600TIP3   OH232358   2.278   4.280   1.370 -0.8863  0.2804  0.0297
 3600TIP3    H132359   2.234   4.235   1.298 -1.7703  2.1797 -0.6727
 3600TIP3    H232360   2.221   4.266   1.446  0.3753 -2.2899  0.6301
 3601TIP3   OH232361   5.571   6.099   2.609 -0.5613  0.1888 -0.3974
 3601TIP3    H132362   5.576   6.054   2.524  1.2471  0.6425 -0.5802
 3601TIP3    H232363   5.511   6.172   2.595 -0.9215 -0.2242 -1.0443
 3602TIP3   OH232364   1.082   1.073   2.491  0.4754 -0.4121 -0.1638
 3602TIP3    H132365   1.094   1.101   2.400 -1.1332 -0.4140 -0.4031
 3602TIP3    H232366   1.067   0.979   2.485 -2.5241 -0.0121 -0.2460
 3603TIP3   OH232367   5.226   6.743   2.405  0.6245  0.0033 -0.0906
 3603TIP3    H132368   5.197   6.665   2.453 -0.0654 -0.0846 -0.6296
 3603TIP3    H232369   5.167   6.747   2.329  1.7842  0.0609 -1.0067
 3604TIP3   OH232370   0.038   1.873   1.010 -0.0677  0.5502 -0.0386
 3604TIP3    H132371   0.004   1.829   0.932 -1.5594  0.0326  0.8681
 3604TIP3    H232372  -0.008   1.957   1.012 -0.3153  0.4086  0.4659
 3605TIP3   OH232373   5.114   0.074   2.871  0.1784  0.0805 -0.2197
 3605TIP3    H132374   5.136   0.161   2.837  0.5598  0.3898  0.7855
 3605TIP3    H232375   5.181   0.057   2.938 -2.4573  0.9782  2.8924
 3606TIP3   OH232376   6.107   2.992   2.870 -0.0909  0.0520 -0.1139
 3606TIP3    H132377   6.187   3.008   2.820 -0.8644 -0.2734 -1.4988
 3606TIP3    H232378   6.037   2.998   2.806 -1.2542  0.9583  1.1930
 3607TIP3   OH232379   3.101   6.194   3.201  0.3081 -0.3421  0.0512
 3607TIP3    H132380   3.139   6.112   3.169 -0.2303 -1.0018  1.0520
 3607TIP3    H232381   3.154   6.263   3.160  1.6792 -1.2042  0.3080
 3608TIP3   OH232382   3.177   5.770   8.474 -0.5874 -0.3965  0.2185
 3608TIP3    H132383   3.234   5.846   8.459 -1.5909  0.3460  0.0654
 3608TIP3    H232384   3.111   5.777   8.405 -0.4449 -1.6618 -0.0593
 3609TIP3   OH232385   5.068   5.589   1.126  0.4445  0.3153  0.5294
 3609TIP3    H132386   5.052   5.629   1.212 -0.8322 -2.3413  1.6360
 3609TIP3    H232387   5.008   5.635   1.067  1.2986  2.1363  0.9993
 3610TIP3   OH232388   1.994   0.586   8.667  0.3299 -0.6503  0.1459
 3610TIP3    H132389   1.924   0.600   8.731 -0.6800 -0.2079 -1.0174
 3610TIP3    H232390   1.952   0.538   8.596  1.4778 -1.3059 -0.1171
 3611TIP3   OH232391   5.463   3.884   8.045  0.0404 -0.0730 -0.4347
 3611TIP3    H132392   5.448   3.864   7.953  1.7094  0.7051 -0.9260
 3611TIP3    H232393   5.533   3.949   8.044 -0.3760  0.4592  1.3707
 3612TIP3   OH232394   5.341   2.389   3.581 -0.5593 -0.2898  0.0730
 3612TIP3    H132395   5.260   2.429   3.550 -0.3183  1.3369  1.3914
 3612TIP3    H232396   5.359   2.433   3.664  1.9212 -0.2680 -0.4041
 3613TIP3   OH232397   5.515   4.266   3.239  0.0455  0.1179  0.7762
 3613TIP3    H132398   5.528   4.225   3.325  1.2714 -2.3983 -0.4987
 3613TIP3    H232399   5.579   4.337   3.236  0.8815 -0.5912  1.4735
 3614TIP3   OH232400   4.881   5.321   1.392 -0.0569 -0.6686  0.7292
 3614TIP3    H132401   4.965   5.292   1.356 -0.4616  0.5119 -1.3490
 3614TIP3    H232402   4.900   5.408   1.428 -0.3264 -0.5457  0.5688
 3615TIP3   OH232403   0.854   0.951   0.483 -0.1078 -0.0795 -0.0412
 3615TIP3    H132404   0.766   0.915   0.493 -0.1315 -0.1196 -0.3833
 3615TIP3    H232405   0.843   1.046   0.492 -0.0401 -0.1467  0.8973
 3616TIP3   OH232406   1.857   3.428   3.055  1.1372 -0.1052  0.0370
 3616TIP3    H132407   1.927   3.384   3.008  0.8704  0.4952 -0.9702
 3616TIP3    H232408   1.779   3.412   3.002  0.5866 -0.4146  0.9172
 3617TIP3   OH232409   0.158   2.639   0.235  0.0897  0.0242  0.3403
 3617TIP3    H132410   0.157   2.579   0.161 -1.1385  0.5594 -0.1159
 3617TIP3    H232411   0.117   2.719   0.201  0.7691  0.7598  1.2122
 3618TIP3   OH232412   5.048   3.062   2.856 -0.2930  0.1158  0.5471
 3618TIP3    H132413   5.025   2.980   2.812  0.1025 -0.2779  1.0714
 3618TIP3    H232414   5.089   3.115   2.788 -1.3149  0.2247 -0.0116
 3619TIP3   OH232415   4.739   4.874   1.728  0.3529 -0.2509  0.0265
 3619TIP3    H132416   4.697   4.889   1.813  0.9983 -0.9936  0.4973
 3619TIP3    H232417   4.670   4.838   1.673  0.1144 -0.4888  0.4732
 3620TIP3   OH232418   0.311   5.074   1.908  0.2300 -0.5688 -0.0956
 3620TIP3    H132419   0.391   5.116   1.939 -0.1004  0.7120 -0.8985
 3620TIP3    H232420   0.278   5.133   1.840  0.6383 -2.9591 -2.5320
 3621TIP3   OH232421   0.734   1.590   1.029 -0.2025  0.3938  0.1969
 3621TIP3    H132422   0.809   1.538   1.060 -0.6111 -0.5120 -0.2864
 3621TIP3    H232423   0.658   1.545   1.066 -0.5305  1.1353  0.4338
 3622TIP3   OH232424   6.693   0.247   1.291 -0.4131 -0.8281 -0.0121
 3622TIP3    H132425   6.785   0.248   1.266  0.0227  0.9443  1.3943
 3622TIP3    H232426   6.679   0.160   1.327  1.0874 -0.7472  0.8836
 3623TIP3   OH232427   2.991   3.859   0.847 -0.0619  0.1787  0.0121
 3623TIP3    H132428   2.960   3.867   0.937  0.0430  1.1103 -0.0269
 3623TIP3    H232429   2.950   3.778   0.815 -1.5703  0.7836  0.3172
 3624TIP3   OH232430   4.559   5.940   3.071  0.0413 -0.0509 -0.0300
 3624TIP3    H132431   4.615   5.951   3.147 -2.0529 -0.2937  1.6356
 3624TIP3    H232432   4.573   5.850   3.043  1.1804  0.1819 -0.2894
 3625TIP3   OH232433   1.407   4.356   0.147  0.7290  0.3893 -0.3364
 3625TIP3    H132434   1.459   4.343   0.068  0.7669 -0.3089 -0.2013
 3625TIP3    H232435   1.472   4.363   0.217  0.6602 -0.1113 -0.2191
 3626TIP3   OH232436   3.550   0.258   1.013  0.1363  0.1476 -0.0522
 3626TIP3    H132437   3.499   0.238   0.934 -0.3940 -0.0730  0.3327
 3626TIP3    H232438   3.503   0.212   1.083  2.6805 -2.8911 -0.1097
 3627TIP3   OH232439   2.223   3.583   2.464  0.0055  0.8311  0.2569
 3627TIP3    H132440   2.290   3.522   2.496 -0.5154 -0.3212 -0.7641
 3627TIP3    H232441   2.185   3.620   2.544 -0.7182 -1.3556  1.0096
 3628TIP3   OH232442   2.208   5.630   0.113  0.1146 -0.2629  0.7256
 3628TIP3    H132443   2.135   5.691   0.120 -1.2716 -1.7639  0.0733
 3628TIP3    H232444   2.234   5.634   0.021  1.0892  0.4944  1.0216
 3629TIP3   OH232445   6.740   3.398   2.377  0.1274 -0.3866 -0.2064
 3629TIP3    H132446   6.660   3.346   2.368 -0.8146  0.9007  0.4277
 3629TIP3    H232447   6.733   3.439   2.463  0.8387  0.7506 -0.6592
 3630TIP3   OH232448   5.741   3.794   2.309 -0.4735 -0.5902 -0.3265
 3630TIP3    H132449   5.769   3.765   2.395 -1.1142  0.9176  0.4145
 3630TIP3    H232450   5.816   3.841   2.273 -0.8273  0.3769  0.1847
 3631TIP3   OH232451   5.821   1.503   0.252 -0.9943 -0.2405  0.5177
 3631TIP3    H132452   5.905   1.501   0.299 -0.7591  2.2421  0.3481
 3631TIP3    H232453   5.846   1.492   0.160 -0.5552  2.2884  0.2586
 3632TIP3   OH232454   4.303   0.165   2.040  0.0550 -0.1588  0.0617
 3632TIP3    H132455   4.320   0.248   1.994  0.2684  0.5807  1.4204
 3632TIP3    H232456   4.333   0.098   1.979  0.4228  0.7863 -0.8361
 3633TIP3   OH232457   6.203   3.926   0.714  0.4698 -0.5167  0.2439
 3633TIP3    H132458   6.187   3.836   0.684 -2.4443 -0.8667  2.3874
 3633TIP3    H232459   6.122   3.973   0.694  0.1697  0.3925  3.1498
 3634TIP3   OH232460   6.697   4.602   1.583 -0.0794  0.0826  0.3009
 3634TIP3    H132461   6.697   4.696   1.605  0.2786  0.2162 -0.2483
 3634TIP3    H232462   6.717   4.599   1.489  0.0179 -0.5502  0.3363
 3635TIP3   OH232463   1.072   1.658   3.357 -0.3061  0.1724  0.0595
 3635TIP3    H132464   1.127   1.696   3.288 -1.2864  0.9231 -0.3445
 3635TIP3    H232465   1.117   1.680   3.438  1.3478 -1.5097 -0.3455
 3636TIP3   OH232466   3.267   1.694   1.030  0.3500  0.7031 -0.0110
 3636TIP3    H132467   3.223   1.646   1.100 -0.5754  0.5016 -0.7143
 3636TIP3    H232468   3.359   1.667   1.036  0.0651 -0.1999  0.3775
 3637TIP3   OH232469   5.184   5.836   3.497 -0.0261 -0.0819 -0.5300
 3637TIP3    H132470   5.182   5.836   3.402  0.2539  0.4253 -0.5375
 3637TIP3    H232471   5.132   5.912   3.523 -1.6599 -1.2521 -0.2302
 3638TIP3   OH232472   4.502   2.813   7.991 -0.5547 -0.1833 -0.4891
 3638TIP3    H132473   4.428   2.762   8.024  0.3749 -0.1141  1.9334
 3638TIP3    H232474   4.498   2.802   7.896 -4.9893  1.6890 -0.7815
 3639TIP3   OH232475   3.528   2.805   0.419  0.0939  0.3141 -0.0925
 3639TIP3    H132476   3.589   2.745   0.377  0.8285  0.5083  0.6890
 3639TIP3    H232477   3.516   2.875   0.355  0.3636  0.0701 -0.4153
 3640TIP3   OH232478   5.322   0.038   1.422 -0.6552  0.5108  0.0759
 3640TIP3    H132479   5.368   0.111   1.463  0.7245  0.3157 -1.0238
 3640TIP3    H232480   5.324  -0.031   1.488  0.4772  0.5838  0.1437
 3641TIP3   OH232481   5.927   5.230   0.646 -0.2101 -0.5936  1.0786
 3641TIP3    H132482   5.953   5.154   0.698  1.0340 -1.5422 -0.8201
 3641TIP3    H232483   6.004   5.287   0.646 -0.9671  0.4871  2.0761
 3642TIP3   OH232484   6.108   4.210   1.657 -0.4459  0.3523  0.0229
 3642TIP3    H132485   6.125   4.275   1.589  0.5212 -0.1410 -0.2167
 3642TIP3    H232486   6.029   4.164   1.627 -1.2984  1.5829  0.3337
 3643TIP3   OH232487   1.390   3.022   8.371 -0.1468  0.4809 -0.5035
 3643TIP3    H132488   1.370   3.056   8.458 -0.0572  1.0088 -0.6836
 3643TIP3    H232489   1.430   2.936   8.387  2.2124  1.6131  0.1203
 3644TIP3   OH232490   5.045   2.674   2.319  0.4866  0.2856  0.3792
 3644TIP3    H132491   4.975   2.609   2.316  0.4456  0.3507 -0.0985
 3644TIP3    H232492   5.075   2.673   2.411  0.6667 -0.6036  0.3228
 3645TIP3   OH232493   0.135   0.649   0.972  0.0611  0.0422  0.3046
 3645TIP3    H132494   0.190   0.590   0.922  0.2884 -0.4653  1.1249
 3645TIP3    H232495   0.082   0.591   1.027 -1.2567  0.5217 -0.4263
 3646TIP3   OH232496   1.548   3.085   2.695 -0.5571 -0.4993 -0.2742
 3646TIP3    H132497   1.554   3.026   2.620  3.6722 -1.1953  0.3783
 3646TIP3    H232498   1.554   3.029   2.772  0.8498  0.5240  0.4152
 3647TIP3   OH232499   1.787   4.564   0.051  0.4070 -0.2924 -0.9968
 3647TIP3    H132500   1.850   4.610   0.107 -0.0830  1.2707 -1.6596
 3647TIP3    H232501   1.827   4.563  -0.035  0.8158 -1.9955 -0.8135
 3648TIP3   OH232502   5.979   2.303   0.901 -0.1343  0.1392 -0.3693
 3648TIP3    H132503   6.012   2.340   0.819 -2.5837 -0.4929 -1.7434
 3648TIP3    H232504   5.885   2.318   0.898 -0.3188  0.0627  2.3587
 3649TIP3   OH232505   6.668   4.561   8.143  0.2024  0.4469 -0.1567
 3649TIP3    H132506   6.668   4.471   8.110 -2.3151 -1.3002  3.8240
 3649TIP3    H232507   6.741   4.564   8.205  0.2792  1.1542 -0.2735
 3650TIP3   OH232508   3.596   3.331   7.341 -0.3461 -0.0829  0.0735
 3650TIP3    H132509   3.518   3.304   7.294 -1.2030 -1.6355  2.2276
 3650TIP3    H232510   3.664   3.270   7.313 -0.3467  0.1815 -0.5101
 3651TIP3   OH232511   0.683   6.599   0.715 -0.2567  0.6337  0.0162
 3651TIP3    H132512   0.773   6.625   0.694  0.2048 -1.7792 -1.4232
 3651TIP3    H232513   0.679   6.601   0.810  1.4177  0.5922  0.1258
 3652TIP3   OH232514   0.966   4.693   8.484 -0.1906  0.4708 -0.1438
 3652TIP3    H132515   0.892   4.635   8.501  0.9822 -0.6658  1.2845
 3652TIP3    H232516   0.960   4.761   8.551  0.7889 -0.3704  0.8130
 3653TIP3   OH232517   2.459   3.559   0.924  0.6077  0.9150  0.2277
 3653TIP3    H132518   2.417   3.519   1.000 -0.2412  2.2547  0.5027
 3653TIP3    H232519   2.550   3.571   0.950  0.4244  0.9624  0.8676
 3654TIP3   OH232520   0.390   0.855   1.392  0.4139 -0.0447  0.8311
 3654TIP3    H132521   0.446   0.911   1.445 -1.0736  2.1428  0.2308
 3654TIP3    H232522   0.403   0.885   1.302 -0.5515 -0.5519  0.5040
 3655TIP3   OH232523   4.179   3.278   1.624 -0.3230  0.3302 -0.3831
 3655TIP3    H132524   4.250   3.249   1.568  1.3338  3.5498 -0.1866
 3655TIP3    H232525   4.103   3.229   1.594  0.9940  0.1087 -3.7958
 3656TIP3   OH232526   1.676   2.971   3.618  0.1646 -0.2824 -0.1420
 3656TIP3    H132527   1.662   2.919   3.538 -2.9441  0.4701 -0.2408
 3656TIP3    H232528   1.591   2.970   3.661  1.2347  1.0582  2.1443
 3657TIP3   OH232529   3.794   2.556   7.810  0.1002 -0.1197  0.9095
 3657TIP3    H132530   3.861   2.545   7.742 -0.0121  1.0964  0.5847
 3657TIP3    H232531   3.750   2.471   7.815  0.1658 -0.2510 -0.4903
 3658TIP3   OH232532   6.492   5.279   8.565 -0.3344 -0.2027 -0.1395
 3658TIP3    H132533   6.573   5.303   8.612  0.4193  0.6488 -1.7844
 3658TIP3    H232534   6.488   5.341   8.493 -1.7159 -1.1655 -0.9158
 3659TIP3   OH232535   1.539   3.540   3.748 -0.1555 -0.4751  0.2800
 3659TIP3    H132536   1.445   3.527   3.764  0.2177 -0.0051  3.5727
 3659TIP3    H232537   1.549   3.635   3.739 -0.1767 -0.6413 -2.2516
 3660TIP3   OH232538   0.483   2.654   8.069 -0.1667  0.2236 -0.5138
 3660TIP3    H132539   0.467   2.571   8.115 -0.1547 -0.2053 -1.2761
 3660TIP3    H232540   0.405   2.667   8.016  0.5921 -0.2433 -1.7930
 3661TIP3   OH232541   4.975   6.020   2.059 -0.2738  0.1152 -0.2871
 3661TIP3    H132542   4.914   5.997   2.129  0.8096  0.0984  0.6736
 3661TIP3    H232543   4.952   6.110   2.036 -0.1535  0.3725  0.6007
 3662TIP3   OH232544   5.334   2.444   2.893  0.1613 -0.4353 -0.1374
 3662TIP3    H132545   5.366   2.521   2.939  0.8488 -0.8598  0.1164
 3662TIP3    H232546   5.245   2.466   2.868  0.4261  0.5216 -0.2602
 3663TIP3   OH232547   5.815   4.791   1.173 -0.0777  0.2789  1.1365
 3663TIP3    H132548   5.862   4.874   1.172 -1.0548  0.8561  1.6896
 3663TIP3    H232549   5.767   4.790   1.090 -0.4484  0.5023  1.3446
 3664TIP3   OH232550   5.706   3.840   2.772  0.1246 -0.3670 -0.2358
 3664TIP3    H132551   5.715   3.935   2.763 -1.3183 -0.2646 -0.8996
 3664TIP3    H232552   5.774   3.815   2.834  0.2942  1.1552  0.2317
 3665TIP3   OH232553   3.244   3.584   1.858 -0.0862  0.1830 -0.3580
 3665TIP3    H132554   3.153   3.555   1.865 -0.0461 -0.4549 -1.9654
 3665TIP3    H232555   3.242   3.675   1.887 -1.4990  0.5771 -1.5588
 3666TIP3   OH232556   2.587   2.637   2.568 -0.2009 -0.3551  0.5681
 3666TIP3    H132557   2.504   2.667   2.532 -1.2688 -0.2356  2.9200
 3666TIP3    H232558   2.562   2.567   2.629  1.3819 -0.0833  1.5812
 3667TIP3   OH232559   3.034   2.702   2.962  0.1787  0.1090 -0.0783
 3667TIP3    H132560   3.050   2.639   3.033  1.9419  1.6074  0.9488
 3667TIP3    H232561   2.960   2.754   2.993 -0.2967 -0.4610 -0.2373
 3668TIP3   OH232562   4.957   0.281   8.548 -0.1282  0.4158  0.0890
 3668TIP3    H132563   4.927   0.278   8.457  1.3757  0.1908 -0.4249
 3668TIP3    H232564   4.919   0.203   8.588 -0.6629  0.4239 -0.3884
 3669TIP3   OH232565   0.184   6.477   0.065  0.4898 -0.4756 -0.3070
 3669TIP3    H132566   0.143   6.390   0.069  0.6952 -0.5429  0.6727
 3669TIP3    H232567   0.213   6.486  -0.025  0.1949 -1.3013 -0.4958
 3670TIP3   OH232568   0.754   3.989   0.774 -0.1850 -0.0275  0.1189
 3670TIP3    H132569   0.713   4.050   0.834 -0.9313  0.4292 -0.8223
 3670TIP3    H232570   0.840   4.027   0.755 -0.9732  1.2177 -1.1288
 3671TIP3   OH232571   1.464   4.498   0.999  0.0649  0.2716 -0.3474
 3671TIP3    H132572   1.500   4.584   1.022 -0.3058  0.6982 -1.3341
 3671TIP3    H232573   1.503   4.439   1.063  1.4788  0.9331 -0.5674
 3672TIP3   OH232574   1.008   4.258   2.046  0.5387  0.2869 -0.2424
 3672TIP3    H132575   1.021   4.237   1.954 -0.1286 -0.0338 -0.2705
 3672TIP3    H232576   0.949   4.334   2.046 -0.7867 -0.7116 -0.0660
 3673TIP3   OH232577   5.942   3.269   3.270 -0.2508  0.0567  0.6325
 3673TIP3    H132578   5.950   3.346   3.214 -0.6682 -0.7310 -0.5392
 3673TIP3    H232579   5.979   3.297   3.354 -0.4985  1.5596  0.2710
 3674TIP3   OH232580   2.948   6.547   8.614 -0.5558 -0.7658  0.4228
 3674TIP3    H132581   2.921   6.575   8.702 -0.6351  0.9756 -0.1097
 3674TIP3    H232582   3.035   6.509   8.627  0.8507  2.3106  0.9153
 3675TIP3   OH232583   0.454   5.533   1.746 -0.3189  0.1591 -0.2286
 3675TIP3    H132584   0.547   5.511   1.755  0.5789  3.3743 -0.6786
 3675TIP3    H232585   0.436   5.522   1.652 -0.3951 -0.3148 -0.1649
 3676TIP3   OH232586   1.557   6.278   1.553  0.0462  0.5419  0.0554
 3676TIP3    H132587   1.580   6.343   1.620 -0.3644  1.2502 -0.4740
 3676TIP3    H232588   1.634   6.273   1.497  1.2768 -1.7019  1.8009
 3677TIP3   OH232589   3.132   3.522   8.268 -0.0321 -0.0756  0.2372
 3677TIP3    H132590   3.147   3.483   8.354 -0.1007  0.6286  0.5778
 3677TIP3    H232591   3.220   3.543   8.236 -0.0388  0.2245  0.4092
 3678TIP3   OH232592   4.700   4.389   1.963 -0.0526  0.4673  0.0808
 3678TIP3    H132593   4.712   4.345   2.047 -2.5537 -1.6434 -0.5238
 3678TIP3    H232594   4.643   4.463   1.983 -1.3230 -0.5082  0.1795
 3679TIP3   OH232595   6.519   0.241   1.647 -0.6120  0.5891  0.2895
 3679TIP3    H132596   6.444   0.182   1.636  0.4483 -0.8265  0.4128
 3679TIP3    H232597   6.532   0.278   1.560 -1.2625  0.6340  0.2000
 3680TIP3   OH232598   4.207   3.443   8.645 -0.0604  0.0239  0.3642
 3680TIP3    H132599   4.154   3.403   8.576  1.0449  1.0166 -1.1327
 3680TIP3    H232600   4.200   3.384   8.719 -3.1764  0.0696  0.2232
 3681TIP3   OH232601   4.017   2.739   7.638 -0.1376  0.3088 -0.0070
 3681TIP3    H132602   3.989   2.808   7.698 -1.2893 -0.0567 -0.1053
 3681TIP3    H232603   3.949   2.736   7.571  0.7392  0.1891 -0.9209
 3682TIP3   OH232604   2.899   2.682   8.171 -0.0295 -0.4872 -0.3752
 3682TIP3    H132605   2.809   2.653   8.184 -0.2261 -0.2893 -1.2782
 3682TIP3    H232606   2.894   2.749   8.104  0.8070 -0.5651 -0.5319
 3683TIP3   OH232607   0.667   1.565   0.737  0.2050  0.2457  0.7635
 3683TIP3    H132608   0.725   1.534   0.806 -0.5069  1.7948  2.1229
 3683TIP3    H232609   0.588   1.593   0.783  0.0286  2.0878 -0.5505
 3684TIP3   OH232610   1.886   2.845   3.760 -0.7680  0.2957 -0.0780
 3684TIP3    H132611   1.801   2.889   3.755 -0.9454 -0.0836 -0.4968
 3684TIP3    H232612   1.866   2.753   3.738 -0.8120 -0.5194  2.9379
 3685TIP3   OH232613   2.076   3.958   3.074  0.1001  0.1567  0.6149
 3685TIP3    H132614   2.078   4.023   3.145  0.8676  1.3582 -0.4682
 3685TIP3    H232615   2.157   3.974   3.025 -0.0103 -1.2131 -0.0600
 3686TIP3   OH232616   0.357   0.946   0.176 -0.6982  0.0898  0.6677
 3686TIP3    H132617   0.267   0.972   0.160 -1.1481 -0.9244  1.4559
 3686TIP3    H232618   0.371   0.871   0.119  0.1160  1.1072 -0.5043
 3687TIP3   OH232619   5.659   1.362   3.345  0.6901 -0.3102 -0.4803
 3687TIP3    H132620   5.667   1.456   3.356  0.5859 -0.1383 -1.6955
 3687TIP3    H232621   5.569   1.349   3.314  0.6702 -0.8210 -0.2320
 3688TIP3   OH232622   1.991   4.768   3.217  0.2576  0.1154  0.2134
 3688TIP3    H132623   1.990   4.844   3.158  0.8004  0.5730  0.7764
 3688TIP3    H232624   1.919   4.784   3.277 -0.0960 -0.1921 -0.1264
 3689TIP3   OH232625   6.302   2.015   1.042 -0.1704 -0.3315  0.1043
 3689TIP3    H132626   6.240   1.946   1.068 -1.1138  1.3033  2.6006
 3689TIP3    H232627   6.262   2.096   1.074  2.1193  1.0961 -0.4255
 3690TIP3   OH232628   4.701   5.788   0.289 -0.3226 -0.5614 -0.6441
 3690TIP3    H132629   4.708   5.861   0.351  0.0666  0.4739 -1.8790
 3690TIP3    H232630   4.752   5.815   0.213 -0.3037 -2.0574 -1.2123
 3691TIP3   OH232631   4.421   4.222   2.711 -0.3620 -0.0731  0.5575
 3691TIP3    H132632   4.444   4.164   2.783  1.0264 -1.0219 -0.5942
 3691TIP3    H232633   4.345   4.182   2.670 -0.3992 -0.2040  0.7559
 3692TIP3   OH232634   4.989   6.606   8.126  0.1296 -0.5480  0.2309
 3692TIP3    H132635   5.006   6.585   8.218 -1.8953  0.7280  0.9658
 3692TIP3    H232636   4.919   6.671   8.129  1.9149  1.6982 -2.0977
 3693TIP3   OH232637   0.268   6.602   8.127  0.1671  0.7374  0.2105
 3693TIP3    H132638   0.267   6.515   8.168 -0.2489  1.2957  1.4207
 3693TIP3    H232639   0.177   6.632   8.132  0.3823  1.4096  0.1508
 3694TIP3   OH232640   5.793   5.862   0.875 -0.3558 -0.3778 -0.4390
 3694TIP3    H132641   5.741   5.799   0.827 -0.6108 -0.1283 -0.4938
 3694TIP3    H232642   5.749   5.870   0.960 -0.3582 -0.2352 -0.4524
 3695TIP3   OH232643   2.523   1.204   3.646  0.1600 -0.4657 -0.1411
 3695TIP3    H132644   2.572   1.243   3.718  1.1773  0.3528 -1.2421
 3695TIP3    H232645   2.588   1.150   3.601 -0.3528 -0.6090 -0.7102
 3696TIP3   OH232646   2.612   3.699   0.639  0.7168 -0.6493 -0.6834
 3696TIP3    H132647   2.641   3.706   0.730  0.7770 -2.2861 -0.5459
 3696TIP3    H232648   2.518   3.684   0.645  0.7202 -0.7575 -0.8831
 3697TIP3   OH232649   3.619   3.982   0.863 -0.0965  0.0787  0.3415
 3697TIP3    H132650   3.560   4.034   0.809 -1.2373 -0.2599  1.2351
 3697TIP3    H232651   3.590   3.892   0.850  1.4335 -0.3147 -0.6596
 3698TIP3   OH232652   6.691   5.395   1.860  0.1177  0.0034 -0.0546
 3698TIP3    H132653   6.773   5.371   1.904  1.0769  1.6966 -0.8140
 3698TIP3    H232654   6.702   5.367   1.770  0.5050  1.5286 -0.5110
 3699TIP3   OH232655   2.203   2.010   1.440  0.2918  0.2043  0.4165
 3699TIP3    H132656   2.130   1.956   1.470  0.1266 -0.2681 -0.7625
 3699TIP3    H232657   2.266   2.008   1.512 -0.5997  0.1355  1.2171
 3700TIP3   OH232658   1.085   1.344   0.300 -0.0858 -0.0672 -0.5247
 3700TIP3    H132659   1.015   1.304   0.353  1.1052  1.7264  2.6881
 3700TIP3    H232660   1.124   1.409   0.358  3.3156  0.0546 -2.7035
 3701TIP3   OH232661   4.935   2.328   2.788  0.0674 -0.3971  0.1257
 3701TIP3    H132662   4.900   2.274   2.716  0.0784 -0.0429 -0.1445
 3701TIP3    H232663   5.007   2.276   2.824 -0.2786 -0.8140  0.2253
 3702TIP3   OH232664   2.566   1.142   0.876  0.2297  0.1022 -0.1823
 3702TIP3    H132665   2.523   1.103   0.953 -0.2834  2.6763  0.9537
 3702TIP3    H232666   2.625   1.207   0.913  1.4217  0.0826 -1.9534
 3703TIP3   OH232667   5.536   2.569   8.025 -0.3405 -0.2594  0.4211
 3703TIP3    H132668   5.529   2.546   8.118 -1.4578 -1.6035  0.0437
 3703TIP3    H232669   5.451   2.547   7.988 -0.3544  1.4795 -0.7000
 3704TIP3   OH232670   2.526   1.838   2.601  0.6572 -0.2543 -0.2920
 3704TIP3    H132671   2.532   1.875   2.689  1.8642  1.4214 -1.0179
 3704TIP3    H232672   2.506   1.746   2.615  0.2087  0.1028  1.7112
 3705TIP3   OH232673   3.845   4.175   0.694  0.0606  0.3679 -0.7364
 3705TIP3    H132674   3.882   4.191   0.607  2.1206  0.8197  0.1765
 3705TIP3    H232675   3.896   4.103   0.729 -1.1738 -0.2413 -0.1011
 3706TIP3   OH232676   2.248   3.100   1.889 -0.1792 -0.4250  0.1821
 3706TIP3    H132677   2.226   3.189   1.860 -0.4893 -1.4276 -2.9741
 3706TIP3    H232678   2.178   3.077   1.950 -1.2230  0.7750 -0.5074
 3707TIP3   OH232679   2.118   4.985   8.301  0.6299 -0.2591 -0.3045
 3707TIP3    H132680   2.128   5.007   8.209  0.1217 -1.0120 -0.5546
 3707TIP3    H232681   2.082   4.896   8.300 -1.1385  0.3882  0.5739
 3708TIP3   OH232682   4.261   4.499   0.942 -0.5910  0.5724 -0.2756
 3708TIP3    H132683   4.216   4.435   0.886 -1.5341  0.4657  0.5888
 3708TIP3    H232684   4.203   4.512   1.016  1.5824 -1.0085  1.8723
 3709TIP3   OH232685   4.759   3.539   1.069 -0.0537 -0.1350 -0.4047
 3709TIP3    H132686   4.715   3.487   1.136  2.9825  0.3623  2.1796
 3709TIP3    H232687   4.815   3.476   1.024  1.4119  0.2942  0.7495
 3710TIP3   OH232688   1.906   0.717   7.902 -0.4386  0.4520 -0.0479
 3710TIP3    H132689   1.993   0.735   7.868 -0.4026  0.3338 -0.0187
 3710TIP3    H232690   1.849   0.717   7.824 -0.4657  0.8511 -0.0282
 3711TIP3   OH232691   1.056   5.472   0.244 -0.1246  0.1888 -0.0058
 3711TIP3    H132692   1.118   5.470   0.171 -0.1550  0.3438 -0.0354
 3711TIP3    H232693   1.001   5.395   0.231  0.4214 -0.2674  0.3294
 3712TIP3   OH232694   0.880   5.474   1.254  0.2481 -0.4146 -0.2712
 3712TIP3    H132695   0.838   5.487   1.339 -0.3652 -1.3067 -0.4322
 3712TIP3    H232696   0.865   5.557   1.208 -0.3268 -0.3094  0.0939
 3713TIP3   OH232697   2.352   5.600   1.614  0.2759 -0.0697 -0.1309
 3713TIP3    H132698   2.298   5.625   1.690 -2.8348 -0.7736 -1.9310
 3713TIP3    H232699   2.304   5.634   1.539  1.9279 -1.5668 -1.9571
 3714TIP3   OH232700   1.155   1.223   2.190 -0.4411  0.2835 -0.3877
 3714TIP3    H132701   1.079   1.257   2.238 -0.2756  0.2443 -0.1001
 3714TIP3    H232702   1.205   1.301   2.167  0.2811  0.2039  0.8401
 3715TIP3   OH232703   0.929   3.427   2.553 -0.4188  0.2830  0.1511
 3715TIP3    H132704   0.866   3.360   2.527 -0.9064  0.4548  0.8565
 3715TIP3    H232705   1.014   3.393   2.523 -0.7437 -0.3165 -0.1121
 3716TIP3   OH232706   4.736   5.345   1.011 -0.0112  0.5029 -0.1442
 3716TIP3    H132707   4.676   5.278   0.978 -0.1700  0.7552 -0.3713
 3716TIP3    H232708   4.754   5.318   1.101 -1.2281  0.9346  0.2597
 3717TIP3   OH232709   4.746   0.565   2.458 -0.9188  0.2509 -0.4021
 3717TIP3    H132710   4.719   0.632   2.520  0.7179  1.0702 -0.5143
 3717TIP3    H232711   4.702   0.588   2.376  1.6651  2.9213 -1.2212
 3718TIP3   OH232712   6.029   5.482   2.426 -0.1183 -0.1732 -0.0273
 3718TIP3    H132713   5.989   5.405   2.385  0.4065 -0.2593 -0.3868
 3718TIP3    H232714   6.054   5.452   2.514 -0.6007 -0.1952  0.1027
 3719TIP3   OH232715   2.798   0.737   2.934  0.1378 -0.9101  0.6135
 3719TIP3    H132716   2.773   0.830   2.930  0.1694 -0.9117  0.3628
 3719TIP3    H232717   2.752   0.697   2.860  2.9583 -0.4218 -1.5745
 3720TIP3   OH232718   4.091   0.271   2.650  0.2512  0.2304 -0.3779
 3720TIP3    H132719   4.055   0.187   2.678  2.4009 -1.0262 -1.1275
 3720TIP3    H232720   4.119   0.314   2.730 -1.1719  0.4335  0.0419
 3721TIP3   OH232721   4.540   4.985   2.334  0.0634 -0.9821 -0.8171
 3721TIP3    H132722   4.608   4.953   2.393 -0.0311 -0.2585 -0.2895
 3721TIP3    H232723   4.488   5.046   2.388 -0.9280 -1.4239 -1.2385
 3722TIP3   OH232724   4.669   4.161   7.893 -0.6555 -0.0231 -0.6655
 3722TIP3    H132725   4.662   4.227   7.824  1.1225  0.0634 -0.8065
 3722TIP3    H232726   4.751   4.182   7.939 -1.6292 -0.2588  1.2973
 3723TIP3   OH232727   6.372   4.813   3.914 -0.4634  0.3040 -0.3876
 3723TIP3    H132728   6.332   4.900   3.913 -1.8333 -0.2978 -0.6663
 3723TIP3    H232729   6.297   4.753   3.922  0.4738 -0.8318  0.0704
 3724TIP3   OH232730   4.287   5.844   2.171  0.1445 -0.4443  0.5458
 3724TIP3    H132731   4.314   5.899   2.245  0.0934  1.1732 -0.5844
 3724TIP3    H232732   4.368   5.805   2.139  0.0799 -1.7699  1.8670
 3725TIP3   OH232733   4.824   6.786   1.214 -0.6260 -0.1787  0.3595
 3725TIP3    H132734   4.919   6.792   1.220 -0.4604 -1.1505 -1.0000
 3725TIP3    H232735   4.799   6.865   1.165 -0.5912  0.3385  1.1511
 3726TIP3   OH232736   4.137   2.036   1.877 -0.6915 -0.0247 -0.5474
 3726TIP3    H132737   4.143   2.094   1.801 -0.1685  1.3058  0.4756
 3726TIP3    H232738   4.213   1.978   1.869 -0.4471  0.3356 -0.8596
 3727TIP3   OH232739   4.697   0.374   3.081  0.2086 -0.4226 -0.5305
 3727TIP3    H132740   4.617   0.321   3.090  0.8618 -1.3510  0.0491
 3727TIP3    H232741   4.717   0.371   2.988 -0.8368  0.4536 -0.8070
 3728TIP3   OH232742   4.166   4.622   1.498  0.6170  0.9726  0.2214
 3728TIP3    H132743   4.076   4.620   1.530  1.1790 -0.8553  1.8434
 3728TIP3    H232744   4.190   4.715   1.503 -0.2773  1.1500  2.4821
 3729TIP3   OH232745   2.252   1.148   0.001  0.7126 -0.1734  0.0292
 3729TIP3    H132746   2.331   1.122   0.049 -0.0636 -2.6434  0.1297
 3729TIP3    H232747   2.264   1.113  -0.087 -0.9399 -2.1742  0.5216
 3730TIP3   OH232748   1.027   1.208   1.553 -0.2990  0.4247  0.3578
 3730TIP3    H132749   1.058   1.181   1.639 -1.2143  0.8415  0.8283
 3730TIP3    H232750   1.105   1.243   1.510  0.4146 -0.8778  0.5623
 3731TIP3   OH232751   5.550   3.473   2.162  0.3876  0.8302 -0.2100
 3731TIP3    H132752   5.491   3.547   2.156  1.2105  1.5231  0.0084
 3731TIP3    H232753   5.637   3.509   2.145  0.6951 -0.2727 -1.1419
 3732TIP3   OH232754   5.679   3.001   2.609 -0.1597  0.8162  0.0638
 3732TIP3    H132755   5.598   2.951   2.620  0.2888 -0.0447 -0.4787
 3732TIP3    H232756   5.651   3.093   2.611 -1.6471  0.5911 -3.2215
 3733TIP3   OH232757   1.187   0.767   0.888 -0.0677  0.2813 -0.3497
 3733TIP3    H132758   1.156   0.840   0.834  0.0407 -0.9317 -2.1441
 3733TIP3    H232759   1.220   0.703   0.825 -0.7479 -1.6057  1.1007
 3734TIP3   OH232760   3.438   2.192   2.783  0.1083  0.2768  0.0192
 3734TIP3    H132761   3.499   2.265   2.773  1.2370 -0.7874 -1.2678
 3734TIP3    H232762   3.391   2.189   2.700 -0.2159 -0.2162  0.2148
 3735TIP3   OH232763   2.820   5.977   3.420  0.0664  0.5316  1.1706
 3735TIP3    H132764   2.878   5.967   3.345  0.3724 -1.3008  1.5931
 3735TIP3    H232765   2.733   5.954   3.386 -0.1573  1.7068  0.9159
 3736TIP3   OH232766   5.538   1.529   0.351 -0.1342  0.3748  0.0274
 3736TIP3    H132767   5.628   1.509   0.328 -1.0077 -1.2620 -2.3423
 3736TIP3    H232768   5.508   1.589   0.283 -0.8541  0.8337  0.7313
 3737TIP3   OH232769   2.111   2.729   8.429 -0.8207  0.2645  0.2939
 3737TIP3    H132770   2.104   2.796   8.497 -0.2725 -1.5002  2.1706
 3737TIP3    H232771   2.021   2.718   8.397 -1.1851  0.7359  1.1257
 3738TIP3   OH232772   5.589   0.151   3.216 -0.1243  0.5231 -0.6417
 3738TIP3    H132773   5.620   0.081   3.274 -1.7027  0.7322  0.5120
 3738TIP3    H232774   5.533   0.205   3.271 -0.0067  1.9548 -1.8625
 3739TIP3   OH232775   3.104   1.044   1.268 -0.1011 -0.0545 -0.3820
 3739TIP3    H132776   3.026   0.993   1.291 -0.1836 -0.1719 -0.9168
 3739TIP3    H232777   3.176   0.981   1.272 -0.4066 -0.6422 -2.6040
 3740TIP3   OH232778   0.577   1.068   3.287  0.1525  0.3123  0.1559
 3740TIP3    H132779   0.627   1.143   3.258  2.0261 -1.2288 -0.8062
 3740TIP3    H232780   0.642   1.001   3.306 -1.4889 -1.7874 -1.1231
 3741TIP3   OH232781   0.614   5.554   0.137  0.0362 -0.0255  0.0842
 3741TIP3    H132782   0.620   5.460   0.118 -0.7416  0.1336 -1.0536
 3741TIP3    H232783   0.676   5.568   0.208  0.9550 -1.2119 -0.4535
 3742TIP3   OH232784   0.511   2.253   1.652  0.3223  0.1379  0.1973
 3742TIP3    H132785   0.455   2.292   1.585  0.7823 -0.7234 -0.7009
 3742TIP3    H232786   0.450   2.208   1.710  0.0532 -0.5894 -0.6385
 3743TIP3   OH232787   3.312   5.792   2.529  0.0581 -1.0628  0.2759
 3743TIP3    H132788   3.230   5.834   2.506  1.8799  2.1224 -0.9377
 3743TIP3    H232789   3.306   5.778   2.623 -1.6724 -0.4643  0.2884
 3744TIP3   OH232790   4.264   6.437   2.738  0.1564 -0.1848 -0.3168
 3744TIP3    H132791   4.201   6.365   2.738  0.9079 -0.8573 -0.9318
 3744TIP3    H232792   4.349   6.394   2.733  0.5691  0.7525 -3.5023
 3745TIP3   OH232793   5.402   6.347   0.760  0.0163  0.4895  0.1582
 3745TIP3    H132794   5.317   6.392   0.762 -1.1923 -1.5393 -1.0257
 3745TIP3    H232795   5.435   6.353   0.849 -1.8947  0.4325  0.9120
 3746TIP3   OH232796   2.240   2.499   8.470  0.0468 -1.1504  0.4125
 3746TIP3    H132797   2.193   2.577   8.440  2.0096 -0.6600 -1.6930
 3746TIP3    H232798   2.219   2.492   8.563 -0.5948  1.6103  0.5581
 3747TIP3   OH232799   1.058   4.147   2.276  0.1845  0.0153  0.1641
 3747TIP3    H132800   1.133   4.088   2.263 -0.0894 -0.3547  0.2420
 3747TIP3    H232801   1.030   4.170   2.187  0.3500  0.1038  0.1343
 3748TIP3   OH232802   1.994   0.626   2.973 -0.0931 -0.3872 -0.1649
 3748TIP3    H132803   1.924   0.624   2.907 -0.6185 -1.5002  0.3914
 3748TIP3    H232804   1.952   0.664   3.050  0.1914 -0.2026 -0.0988
 3749TIP3   OH232805   1.717   3.875   8.516  0.0711  1.0974 -0.0333
 3749TIP3    H132806   1.812   3.869   8.515  0.1504  2.0165  0.8690
 3749TIP3    H232807   1.695   3.899   8.606 -1.0701  0.1535 -0.0252
 3750TIP3   OH232808   1.408   3.260   1.807 -0.4019  0.2611  0.3157
 3750TIP3    H132809   1.386   3.327   1.872 -1.5483  0.1549  0.0618
 3750TIP3    H232810   1.389   3.301   1.723 -0.8160 -0.2792  0.1435
 3751TIP3   OH232811   1.278   0.595   1.528 -0.7731 -0.4401 -1.2278
 3751TIP3    H132812   1.307   0.636   1.447 -0.5147  0.7166 -0.5827
 3751TIP3    H232813   1.206   0.538   1.503 -0.1358 -0.7540 -2.3813
 3752TIP3   OH232814   3.480   5.799   2.320 -0.3755  0.1848 -0.4243
 3752TIP3    H132815   3.441   5.846   2.246 -0.7734 -0.6030 -0.7288
 3752TIP3    H232816   3.420   5.816   2.393 -0.2732  0.5159 -0.4151
 3753TIP3   OH232817   4.853   5.273   0.247  0.0305  0.2174 -0.2620
 3753TIP3    H132818   4.794   5.348   0.257 -3.1676 -2.0111 -0.9748
 3753TIP3    H232819   4.910   5.277   0.325 -2.2062  1.5952  1.4212
 3754TIP3   OH232820   4.509   0.336   4.143 -0.2686  0.0419  0.3506
 3754TIP3    H132821   4.490   0.278   4.069 -2.1526  0.3248  0.5674
 3754TIP3    H232822   4.532   0.419   4.102 -2.7795  0.6527 -0.0046
 3755TIP3   OH232823   1.230   5.429   2.434  0.0333 -0.4361  0.3349
 3755TIP3    H132824   1.181   5.511   2.424  0.7232 -0.2502 -2.2183
 3755TIP3    H232825   1.322   5.454   2.426  0.3920 -1.2137  1.7406
 3756TIP3   OH232826   5.794   0.793   3.210  0.0410 -0.7825  0.2976
 3756TIP3    H132827   5.882   0.822   3.231 -0.4047 -0.9913  2.7519
 3756TIP3    H232828   5.741   0.873   3.212  0.5223 -0.0215 -4.5182
 3757TIP3   OH232829   3.331   1.488   2.042  0.3760 -0.1428  0.2072
 3757TIP3    H132830   3.416   1.531   2.050 -0.1617  0.7786  1.1151
 3757TIP3    H232831   3.306   1.503   1.951  1.2229 -0.5234 -0.1063
 3758TIP3   OH232832   0.865   5.443   2.283 -0.1639 -0.2134 -0.1831
 3758TIP3    H132833   0.910   5.520   2.318 -0.8169  0.4625 -0.7874
 3758TIP3    H232834   0.772   5.461   2.298 -0.2753 -1.4551  0.7837
 3759TIP3   OH232835   1.385   5.791   3.402 -0.2006 -0.8157  0.5183
 3759TIP3    H132836   1.301   5.758   3.370  0.7248 -1.4442 -1.4593
 3759TIP3    H232837   1.436   5.713   3.423  0.6031 -0.5407 -0.3326
 3760TIP3   OH232838   1.254   1.072   0.262  0.2496  0.2101  0.2813
 3760TIP3    H132839   1.179   1.023   0.228  0.9480  0.3924 -1.6131
 3760TIP3    H232840   1.222   1.114   0.342 -2.0362  1.2783 -1.1230
 3761TIP3   OH232841   2.422   3.299   0.779  0.5528  0.1850 -0.5432
 3761TIP3    H132842   2.500   3.265   0.823  0.7706  0.6633 -0.5476
 3761TIP3    H232843   2.423   3.393   0.798 -0.3988  0.0907  0.0335
 3762TIP3   OH232844   3.490   2.982   8.581  0.1119 -0.2024  0.7934
 3762TIP3    H132845   3.496   3.060   8.636 -0.3531  0.5795 -0.2071
 3762TIP3    H232846   3.580   2.954   8.569  0.5730  1.6770 -0.8194
 3763TIP3   OH232847   3.767   5.777   8.720  0.0617 -0.3735 -0.4211
 3763TIP3    H132848   3.833   5.813   8.662  0.6054 -1.1608 -0.3047
 3763TIP3    H232849   3.798   5.689   8.741 -0.3748 -0.2933  0.6504
 3764TIP3   OH232850   3.743   5.456   2.069 -0.0368 -0.7801 -0.2824
 3764TIP3    H132851   3.822   5.509   2.087  0.1227 -1.3737  0.8467
 3764TIP3    H232852   3.672   5.520   2.065  0.0966 -0.4777  1.4623
 3765TIP3   OH232853   6.803   2.797   0.097 -0.1484  0.1012 -0.6222
 3765TIP3    H132854   6.784   2.883   0.135  0.4862  0.9352 -2.0934
 3765TIP3    H232855   6.804   2.813   0.002 -0.5196 -1.6426 -0.9400
 3766TIP3   OH232856   3.330   5.197   1.140  0.6129 -0.3040 -0.6015
 3766TIP3    H132857   3.332   5.106   1.170 -1.1059 -0.3192 -0.4255
 3766TIP3    H232858   3.373   5.195   1.055 -0.0729 -1.4387 -0.9451
 3767TIP3   OH232859   6.713   0.930   2.795 -0.5915  0.3105 -0.5857
 3767TIP3    H132860   6.667   1.003   2.836  0.1449 -0.3846  1.6841
 3767TIP3    H232861   6.793   0.920   2.847 -0.1250 -1.3810 -1.5384
 3768TIP3   OH232862   3.513   3.141   2.170  0.0056  0.0650  0.2722
 3768TIP3    H132863   3.554   3.153   2.255  1.1467 -0.8520 -0.1248
 3768TIP3    H232864   3.495   3.047   2.164  0.6704 -0.0105 -0.8055
 3769TIP3   OH232865   5.793   2.348   1.914  0.0438  0.1011  0.4445
 3769TIP3    H132866   5.741   2.403   1.855  2.3373  0.7759 -1.0899
 3769TIP3    H232867   5.740   2.341   1.993 -2.1478  1.0913 -0.8182
 3770TIP3   OH232868   2.691   3.549   0.267 -0.0578 -0.0199 -0.0513
 3770TIP3    H132869   2.771   3.528   0.221 -0.5024  1.2848 -1.5167
 3770TIP3    H232870   2.694   3.644   0.278 -2.3873  0.4297 -2.2256
 3771TIP3   OH232871   3.915   6.349   2.515 -0.0547  0.0232  0.4035
 3771TIP3    H132872   3.972   6.277   2.539  1.8167  1.1057 -0.5353
 3771TIP3    H232873   3.931   6.362   2.421  0.2855  2.1477  0.7064
 3772TIP3   OH232874   3.572   1.247   8.128  0.4092  0.5185  0.2034
 3772TIP3    H132875   3.649   1.280   8.174  0.1311  0.3932  0.7626
 3772TIP3    H232876   3.503   1.311   8.145  0.8295  1.5839 -1.7692
 3773TIP3   OH232877   6.165   0.715   0.824 -0.2803 -1.0832 -0.2679
 3773TIP3    H132878   6.209   0.797   0.846  0.5512 -1.2855 -1.1109
 3773TIP3    H232879   6.081   0.720   0.869 -0.4598  0.4611 -0.7244
 3774TIP3   OH232880   4.514   6.359   3.714  0.1486  0.3114 -0.0255
 3774TIP3    H132881   4.590   6.383   3.767  0.1930  0.0298  0.0396
 3774TIP3    H232882   4.551   6.317   3.637  0.0338 -0.4694  0.3374
 3775TIP3   OH232883   5.262   4.211   2.110 -0.0873  0.4454 -0.3037
 3775TIP3    H132884   5.283   4.238   2.199 -2.1443  0.1399  0.3314
 3775TIP3    H232885   5.268   4.116   2.112  1.1235  0.4908 -0.8736
 3776TIP3   OH232886   4.070   6.239   2.869  0.5411  0.1771 -0.3853
 3776TIP3    H132887   4.092   6.186   2.946 -2.0210  0.0920  0.4093
 3776TIP3    H232888   4.017   6.181   2.814  0.0993  1.0497 -0.8982
 3777TIP3   OH232889   3.169   1.451   0.787  0.0757  0.2248 -0.2147
 3777TIP3    H132890   3.138   1.527   0.837 -0.0393  0.2412 -0.3088
 3777TIP3    H232891   3.256   1.476   0.756  0.9761 -0.5136  1.5771
 3778TIP3   OH232892   5.169   4.987   8.408  0.1579 -0.2571 -0.1952
 3778TIP3    H132893   5.185   5.061   8.466 -1.8788  0.7740 -0.8502
 3778TIP3    H232894   5.193   4.910   8.460  1.3980  0.7762  0.8400
 3779TIP3   OH232895   0.906   2.419   2.430  0.1051 -0.0613  0.2319
 3779TIP3    H132896   0.947   2.370   2.501  0.8770  0.1562 -0.0572
 3779TIP3    H232897   0.971   2.419   2.360 -0.2856  0.5129 -0.1401
 3780TIP3   OH232898   0.673   0.994   0.774  0.3012  0.5194 -0.2456
 3780TIP3    H132899   0.706   1.076   0.738 -1.6848  2.7804  2.6222
 3780TIP3    H232900   0.734   0.972   0.844 -0.9094  1.4223  1.1375
 3781TIP3   OH232901   6.342   6.206   1.237  0.2430 -0.2405  0.3049
 3781TIP3    H132902   6.356   6.112   1.225  0.5270 -0.2668  0.8451
 3781TIP3    H232903   6.284   6.213   1.312 -0.5585 -0.0152 -0.3130
 3782TIP3   OH232904   2.280   0.274   1.676  0.2450 -0.3245  0.2224
 3782TIP3    H132905   2.347   0.313   1.732 -0.2806 -0.2217  0.7958
 3782TIP3    H232906   2.267   0.337   1.606 -0.2781  0.3558  0.9013
 3783TIP3   OH232907   3.876   1.571   0.369 -0.0345 -0.2694 -0.0377
 3783TIP3    H132908   3.909   1.599   0.284  1.3403 -2.3296 -0.2491
 3783TIP3    H232909   3.816   1.499   0.350  0.7232 -1.1405  0.7204
 3784TIP3   OH232910   6.629   4.708   0.136  0.2489  0.5877 -0.2554
 3784TIP3    H132911   6.588   4.688   0.220 -1.1111  3.1075 -0.2129
 3784TIP3    H232912   6.713   4.663   0.138 -0.3150 -0.4685  1.8991
 3785TIP3   OH232913   1.479   5.024   2.614 -0.2255 -0.2393  0.7287
 3785TIP3    H132914   1.405   5.019   2.554  0.2448  2.7311 -0.2529
 3785TIP3    H232915   1.444   5.066   2.692  0.5405  2.1153 -0.1218
 3786TIP3   OH232916   6.188   6.713   2.664 -0.0248 -0.2297 -0.5530
 3786TIP3    H132917   6.157   6.740   2.577 -1.1584  0.1224 -0.0603
 3786TIP3    H232918   6.244   6.785   2.693 -0.5952  0.2062 -0.5122
 3787TIP3   OH232919   3.009   0.231   1.275  0.1013  0.2121  0.1885
 3787TIP3    H132920   2.932   0.193   1.316 -0.0485 -0.8134 -0.9903
 3787TIP3    H232921   3.015   0.188   1.190  1.0376  1.4628 -0.4189
 3788TIP3   OH232922   2.504   6.748   0.420 -0.1757  0.1245 -0.0967
 3788TIP3    H132923   2.545   6.804   0.485  1.4462 -1.3117  0.2062
 3788TIP3    H232924   2.528   6.786   0.335 -1.0874  1.1785  0.0914
 3789TIP3   OH232925   2.609   0.879   0.052  0.2249 -0.2636 -0.2939
 3789TIP3    H132926   2.549   0.804   0.050 -0.1835  0.0274  0.6285
 3789TIP3    H232927   2.661   0.870  -0.028  2.1228 -3.0910  1.1139
 3790TIP3   OH232928   3.375   5.856   0.418 -0.3761 -0.6823 -0.0418
 3790TIP3    H132929   3.427   5.936   0.412 -1.1570  0.2096  3.0939
 3790TIP3    H232930   3.315   5.861   0.343  1.0639  0.5083 -1.1759
 3791TIP3   OH232931   3.096   4.865   2.387  0.3022 -0.3164  0.1286
 3791TIP3    H132932   3.104   4.960   2.394 -0.4955 -0.3497  1.9902
 3791TIP3    H232933   3.130   4.844   2.300  1.6857  1.5242  0.1888
 3792TIP3   OH232934   6.159   3.601   3.975 -0.0207  0.0593  0.5222
 3792TIP3    H132935   6.075   3.560   3.953  0.1800  0.2494 -0.6639
 3792TIP3    H232936   6.139   3.695   3.978  0.4271  0.2728 -1.3718
 3793TIP3   OH232937   3.635   3.338   2.015 -0.1084  0.0712  0.1940
 3793TIP3    H132938   3.639   3.264   2.076  2.1269  0.5034  0.6592
 3793TIP3    H232939   3.637   3.416   2.072  1.9804  0.4798 -0.3449
 3794TIP3   OH232940   4.666   3.888   2.820 -0.4623  0.0354 -0.2557
 3794TIP3    H132941   4.622   3.910   2.902  0.0887 -2.7842  0.9023
 3794TIP3    H232942   4.757   3.912   2.833 -0.4236 -0.1734 -0.1441
 3795TIP3   OH232943   4.351   0.122   2.308  0.0058 -0.4424 -0.5650
 3795TIP3    H132944   4.307   0.153   2.229 -1.2255 -2.2246 -0.6214
 3795TIP3    H232945   4.332   0.029   2.312  1.0157 -0.6219  1.2274
 3796TIP3   OH232946   2.164   1.063   2.908 -0.0663 -0.6590  0.4814
 3796TIP3    H132947   2.163   0.993   2.973 -0.2496  0.7389  2.0773
 3796TIP3    H232948   2.167   1.019   2.824 -1.7576 -2.6266  1.3590
 3797TIP3   OH232949   0.081   2.087   2.900  0.5000  0.8141  0.2700
 3797TIP3    H132950   0.142   2.024   2.940  0.5056  1.6124  1.5957
 3797TIP3    H232951   0.129   2.122   2.825  1.8752  1.7066  1.4952
 3798TIP3   OH232952   1.559   1.365   2.329 -0.2586 -0.0676  0.1705
 3798TIP3    H132953   1.548   1.450   2.371 -1.0777 -0.0546 -0.0654
 3798TIP3    H232954   1.505   1.369   2.250  0.5989 -0.3922 -0.4571
 3799TIP3   OH232955   3.753   5.556   0.942 -0.5762 -0.4639  0.2595
 3799TIP3    H132956   3.837   5.515   0.924  0.6384  2.4850 -1.5301
 3799TIP3    H232957   3.695   5.525   0.871  0.0128  0.0551 -0.4621
 3800TIP3   OH232958   4.424   0.153   3.959 -0.1556 -0.1767  0.5757
 3800TIP3    H132959   4.336   0.123   3.936  0.6313 -1.3691 -1.0386
 3800TIP3    H232960   4.478   0.075   3.956  0.8079  0.3307  2.7024
 3801TIP3   OH232961   2.492   4.186   7.423 -0.0491  0.0064 -0.3870
 3801TIP3    H132962   2.447   4.269   7.436 -0.8798 -0.6506  1.1664
 3801TIP3    H232963   2.537   4.170   7.506  1.4192 -0.3473 -1.2108
 3802TIP3   OH232964   6.603   0.658   8.709  0.3708 -0.2999  0.2638
 3802TIP3    H132965   6.550   0.661   8.788 -1.5337 -0.5791 -0.9544
 3802TIP3    H232966   6.620   0.565   8.694 -0.3034 -0.3474 -0.2823
 3803TIP3   OH232967   1.518   1.883   3.577  0.8683  0.4639  0.4865
 3803TIP3    H132968   1.453   1.827   3.620  0.7212  0.4867  0.2918
 3803TIP3    H232969   1.565   1.924   3.650  1.5443 -0.5553  0.6506
 3804TIP3   OH232970   1.530   4.891   3.304 -0.1435  0.5944  0.6317
 3804TIP3    H132971   1.487   4.932   3.379 -0.7704  0.2659  0.4634
 3804TIP3    H232972   1.510   4.798   3.314 -0.4296  0.5794 -0.0682
 3805TIP3   OH232973   3.242   1.742   0.207 -0.8149 -0.3588  0.3929
 3805TIP3    H132974   3.188   1.819   0.190 -0.8955  0.0302  2.2149
 3805TIP3    H232975   3.186   1.668   0.183 -1.0622  0.0966 -0.5035
 3806TIP3   OH232976   0.257   2.036   8.509 -0.0762  0.1765 -0.4202
 3806TIP3    H132977   0.233   2.126   8.530  0.5927 -0.3616  3.3275
 3806TIP3    H232978   0.198   1.982   8.561  1.0848 -1.4925 -0.7366
 3807TIP3   OH232979   0.505   1.975   3.361 -0.8195  0.1193 -0.3290
 3807TIP3    H132980   0.425   1.989   3.411 -0.6958  0.9661 -0.3489
 3807TIP3    H232981   0.528   1.884   3.378 -1.4859  0.0228  0.1141
 3808TIP3   OH232982   2.992   2.008   2.607 -0.1373 -0.0863  0.3887
 3808TIP3    H132983   3.028   1.988   2.694 -1.1265  0.4688  0.9503
 3808TIP3    H232984   2.897   2.003   2.619 -0.3085 -2.2475 -1.2237
 3809TIP3   OH232985   2.083   4.514   1.146  0.1703 -0.5333  0.3055
 3809TIP3    H132986   2.010   4.574   1.161 -0.7267 -1.6337  0.4876
 3809TIP3    H232987   2.135   4.519   1.226  0.9145  1.0624 -0.2448
 3810TIP3   OH232988   2.538   2.036   3.196 -0.4402 -0.2608  0.2231
 3810TIP3    H132989   2.489   2.103   3.244  1.2961 -0.1604  1.9552
 3810TIP3    H232990   2.487   1.956   3.207 -2.0481  0.5056 -1.0787
 3811TIP3   OH232991   5.631   2.756   4.013 -0.1910  0.0143  0.1353
 3811TIP3    H132992   5.618   2.696   3.939 -0.4137  0.3559 -0.1084
 3811TIP3    H232993   5.693   2.711   4.070 -0.8581 -0.7452  0.2882
 3812TIP3   OH232994   3.080   0.700   1.090  0.4732  0.5258  0.1088
 3812TIP3    H132995   3.133   0.632   1.132 -0.5493 -0.2831  0.0991
 3812TIP3    H232996   3.141   0.742   1.029  0.9267 -0.8769 -0.4403
 3813TIP3   OH232997   1.827   5.986   3.642  0.3060 -0.5905 -0.2861
 3813TIP3    H132998   1.900   5.953   3.695 -1.5349 -2.8668  1.0510
 3813TIP3    H232999   1.801   6.067   3.686  1.4292 -0.2292 -0.2473
 3814TIP3   OH233000   4.566   6.559   2.834  0.3575  0.6206 -0.0102
 3814TIP3    H133001   4.577   6.472   2.797 -0.3030 -0.0541  1.3383
 3814TIP3    H233002   4.509   6.547   2.910 -1.3022  2.4975 -0.8632
 3815TIP3   OH233003   2.858   6.399   0.874 -0.4348  0.1696 -0.0301
 3815TIP3    H133004   2.822   6.378   0.788 -1.2867 -1.2925  0.6677
 3815TIP3    H233005   2.788   6.447   0.919 -0.0682  0.7402 -0.0469
 3816TIP3   OH233006   0.749   1.210   1.614  0.2950 -0.2428  0.2071
 3816TIP3    H133007   0.773   1.283   1.670 -1.0886 -0.4580  1.1191
 3816TIP3    H233008   0.831   1.183   1.573  0.6994  2.4643 -0.9803
 3817TIP3   OH233009   0.458   0.911   1.778  0.2943 -0.2351  0.0655
 3817TIP3    H133010   0.472   0.939   1.688  0.4534 -0.9241 -0.1298
 3817TIP3    H233011   0.378   0.858   1.774 -0.3879  0.7371  0.5464
 3818TIP3   OH233012   6.375   1.071   0.369 -0.2608 -0.4926 -0.2043
 3818TIP3    H133013   6.434   1.002   0.400  2.5046  1.3435 -1.0313
 3818TIP3    H233014   6.359   1.125   0.447 -2.3203 -1.8656  0.4119
 3819TIP3   OH233015   0.526   6.053   1.479  0.6164  0.0549 -0.7240
 3819TIP3    H133016   0.486   6.087   1.399 -1.2585  0.4686  0.3518
 3819TIP3    H233017   0.620   6.055   1.461  0.2834  0.9470 -2.5850
 3820TIP3   OH233018   5.700   3.293   1.818  0.1323 -0.1940 -0.1207
 3820TIP3    H133019   5.741   3.219   1.861  1.4196 -0.3060 -1.4315
 3820TIP3    H233020   5.618   3.259   1.782  1.9923 -1.8604 -3.1681
 3821TIP3   OH233021   2.669   6.516   7.838  0.0421  0.3196  0.5946
 3821TIP3    H133022   2.601   6.581   7.855  0.0208  0.2029  0.9796
 3821TIP3    H233023   2.746   6.551   7.883  0.5926  1.0787 -0.8998
 3822TIP3   OH233024   2.545   1.976   0.936  0.1502 -0.0556  0.5461
 3822TIP3    H133025   2.458   1.975   0.896  0.2265  0.3381  0.3716
 3822TIP3    H233026   2.591   2.048   0.893  1.9407 -2.6673 -2.2745
 3823TIP3   OH233027   3.226   4.780   8.471  0.2295 -0.1604  0.2714
 3823TIP3    H133028   3.143   4.802   8.514  0.4861  1.2431  0.1221
 3823TIP3    H233029   3.201   4.727   8.395 -0.3261 -1.6168  1.4321
 3824TIP3   OH233030   6.628   3.174   1.043 -0.9061 -0.4748  0.8976
 3824TIP3    H133031   6.693   3.144   0.979 -0.7842  0.5820  0.5094
 3824TIP3    H233032   6.616   3.099   1.101 -0.2246 -1.0932  0.2704
 3825TIP3   OH233033   5.853   1.403   2.275 -0.3137  0.0845  0.4012
 3825TIP3    H133034   5.876   1.384   2.184 -1.7582 -0.5495  0.1336
 3825TIP3    H233035   5.931   1.443   2.312  0.1548  0.7750 -1.2452
 3826TIP3   OH233036   4.876   2.108   1.438 -0.2315  0.2134  0.2881
 3826TIP3    H133037   4.866   2.202   1.454  0.9206  0.2018  1.2176
 3826TIP3    H233038   4.935   2.102   1.362  1.3328  0.2647  1.4582
 3827TIP3   OH233039   1.250   2.063   1.664  0.0272  0.3831 -0.2608
 3827TIP3    H133040   1.264   1.992   1.602 -2.2861 -1.2531  0.9399
 3827TIP3    H233041   1.182   2.118   1.625  0.1829  0.6361 -0.1809
 3828TIP3   OH233042   1.496   1.436   8.125  0.3012  0.4055 -0.0510
 3828TIP3    H133043   1.572   1.438   8.066 -1.4935 -0.4994 -2.5768
 3828TIP3    H233044   1.490   1.346   8.155 -0.7851 -0.0153 -1.4018
 3829TIP3   OH233045   6.290   4.022   2.655  0.1497  0.0286  0.7988
 3829TIP3    H133046   6.209   4.064   2.687 -0.9405  0.4592 -2.1524
 3829TIP3    H233047   6.259   3.949   2.601  1.6601  0.4992 -0.8090
 3830TIP3   OH233048   2.057   1.874   2.486  0.7092  0.1659  0.3217
 3830TIP3    H133049   2.024   1.785   2.498  0.0744  0.3292 -0.1490
 3830TIP3    H233050   2.050   1.889   2.392 -0.2296  1.1132  0.5306
 3831TIP3   OH233051   5.453   4.175   0.195 -0.0616 -0.6348  0.1762
 3831TIP3    H133052   5.360   4.174   0.171 -0.3327 -0.1129  1.1621
 3831TIP3    H233053   5.471   4.266   0.216  0.8169 -0.6449 -0.4875
 3832TIP3   OH233054   2.019   6.609   2.461 -0.0968 -0.0995  0.2290
 3832TIP3    H133055   2.070   6.546   2.410 -0.6978 -0.1730 -0.2926
 3832TIP3    H233056   1.984   6.669   2.396 -1.6503 -0.7454  0.4332
 3833TIP3   OH233057   5.850   5.403   2.986 -0.0902  0.3028 -0.5383
 3833TIP3    H133058   5.862   5.426   3.078 -0.9630 -1.2651 -0.0016
 3833TIP3    H233059   5.921   5.449   2.941  0.7481  0.5835  0.9922
 3834TIP3   OH233060   1.397   2.900   8.112 -0.2688  0.0686  0.0048
 3834TIP3    H133061   1.421   2.954   8.037  1.0592 -0.7788 -0.2023
 3834TIP3    H233062   1.381   2.964   8.182 -1.3206  0.8503 -0.9013
 3835TIP3   OH233063   2.594   3.097   2.641 -0.1631  0.0756  0.2740
 3835TIP3    H133064   2.631   3.173   2.686 -1.5547  0.6946  0.4608
 3835TIP3    H233065   2.597   3.120   2.548  2.3876 -1.0547 -0.0044
 3836TIP3   OH233066   4.281   5.761   3.048 -0.4321 -0.2716 -0.1051
 3836TIP3    H133067   4.235   5.679   3.029  1.5783 -1.8582  1.3745
 3836TIP3    H233068   4.343   5.771   2.976  2.8116 -2.9103  2.0022
 3837TIP3   OH233069   4.809   1.054   1.760 -0.2009 -0.3382 -0.4613
 3837TIP3    H133070   4.879   0.995   1.787 -0.2327 -0.5530 -0.8472
 3837TIP3    H233071   4.852   1.138   1.746 -0.3419  0.0548  1.2542
 3838TIP3   OH233072   5.861   1.461   1.117 -0.4703 -0.1773  0.2770
 3838TIP3    H133073   5.860   1.378   1.070  3.0895 -0.2288  0.0263
 3838TIP3    H233074   5.879   1.436   1.208  0.5030  0.2779  0.2178
 3839TIP3   OH233075   3.632   0.125   0.271  0.3185  0.0212  0.2125
 3839TIP3    H133076   3.690   0.120   0.195 -0.5459 -0.6538 -0.4195
 3839TIP3    H233077   3.551   0.084   0.242 -0.7876  1.6749  0.8072
 3840TIP3   OH233078   4.102   5.712   1.377  0.2749 -0.3932 -0.6560
 3840TIP3    H133079   4.049   5.659   1.318 -1.1055 -2.2935  2.0443
 3840TIP3    H233080   4.192   5.683   1.363 -0.0268 -0.8398 -1.7542
 3841TIP3   OH233081   3.172   1.690   0.500 -0.1952  0.0436  0.1699
 3841TIP3    H133082   3.114   1.618   0.479 -0.1926  0.4194 -1.1881
 3841TIP3    H233083   3.258   1.663   0.467 -0.0195  0.3154  0.3957
 3842TIP3   OH233084   1.497   0.076   1.757 -0.0524  0.2252 -0.3518
 3842TIP3    H133085   1.531  -0.008   1.727  0.8151  0.7328 -0.8208
 3842TIP3    H233086   1.574   0.133   1.760 -0.9138  1.5136 -1.8028
 3843TIP3   OH233087   4.914   2.102   0.825  0.7586  0.2958 -0.4538
 3843TIP3    H133088   4.854   2.071   0.893  0.2670  1.1167 -0.5084
 3843TIP3    H233089   4.919   2.029   0.763 -0.5135  0.3726 -0.6717
 3844TIP3   OH233090   6.425   2.558   8.716 -0.3577 -0.0204  0.5905
 3844TIP3    H133091   6.330   2.547   8.719 -0.5318  1.5270  1.7617
 3844TIP3    H233092   6.458   2.471   8.694 -1.9294 -1.1477  2.3872
 3845TIP3   OH233093   0.988   6.764   1.417  0.7624 -0.0060  0.5654
 3845TIP3    H133094   1.005   6.858   1.409  0.4505  0.0572  0.6679
 3845TIP3    H233095   0.998   6.745   1.510  1.4624 -0.1959  0.4556
 3846TIP3   OH233096   6.383   4.790   1.713 -0.1080 -0.3624 -0.2057
 3846TIP3    H133097   6.339   4.715   1.753 -0.3434  0.5339  1.3118
 3846TIP3    H233098   6.364   4.863   1.773  1.3568  0.5805 -0.8409
 3847TIP3   OH233099   0.205   4.590   8.454 -0.3448  0.3850 -0.3055
 3847TIP3    H133100   0.280   4.640   8.424  0.8591 -2.7646 -3.1681
 3847TIP3    H233101   0.242   4.514   8.499 -1.9050 -0.2520 -0.0072
 3848TIP3   OH233102   2.824   2.721   2.678 -0.2229 -1.0094  0.0818
 3848TIP3    H133103   2.809   2.711   2.771  0.2940 -0.0513  0.2816
 3848TIP3    H233104   2.740   2.703   2.637 -0.3898 -1.6788  0.7104
 3849TIP3   OH233105   5.402   0.734   1.511 -0.4378 -0.1366  0.7991
 3849TIP3    H133106   5.375   0.759   1.422 -0.2295  0.8756  1.0128
 3849TIP3    H233107   5.386   0.639   1.515 -2.7714  0.1953  0.5027
 3850TIP3   OH233108   3.662   0.710   8.274  0.5254 -0.5363  0.1871
 3850TIP3    H133109   3.704   0.627   8.248 -0.2955 -1.3802  1.4653
 3850TIP3    H233110   3.663   0.708   8.369 -0.4532  0.4605  0.2275
 3851TIP3   OH233111   0.400   4.493   1.888  0.0349 -0.4312  0.3564
 3851TIP3    H133112   0.358   4.538   1.815  0.1387 -0.4736  0.2688
 3851TIP3    H233113   0.416   4.404   1.855  2.1244  0.1558 -0.3835
 3852TIP3   OH233114   2.963   1.340   0.622  0.2792  0.1494 -0.2726
 3852TIP3    H133115   3.022   1.342   0.546  0.8102  2.4754  0.1196
 3852TIP3    H233116   3.021   1.349   0.697 -0.2638 -1.9372  0.4546
 3853TIP3   OH233117   4.460   3.426   0.960 -0.1065  0.0490  0.3932
 3853TIP3    H133118   4.386   3.367   0.951 -1.1081  1.1257  1.2154
 3853TIP3    H233119   4.491   3.412   1.049  1.7350 -1.5278 -0.4223
 3854TIP3   OH233120   1.400   6.460   1.216 -0.7260  0.3044 -0.2196
 3854TIP3    H133121   1.331   6.517   1.249 -1.6891 -0.5203 -0.7364
 3854TIP3    H233122   1.393   6.381   1.271 -0.5124  0.0312 -0.5849
 3855TIP3   OH233123   2.118   4.109   2.308  0.0759  0.0009 -0.8282
 3855TIP3    H133124   2.114   4.150   2.394 -2.1885  1.4830 -1.5192
 3855TIP3    H233125   2.123   4.015   2.325  0.4594  0.3109  0.8958
 3856TIP3   OH233126   1.839   0.580   1.692  0.2744  0.1222  0.2394
 3856TIP3    H133127   1.780   0.560   1.620  1.5839 -0.2534 -0.7596
 3856TIP3    H233128   1.793   0.549   1.770 -0.5184 -0.8718 -0.5999
 3857TIP3   OH233129   5.216   2.326   2.527  0.1988 -0.0582 -0.2737
 3857TIP3    H133130   5.143   2.267   2.507  1.0839 -1.0159 -0.7617
 3857TIP3    H233131   5.173   2.407   2.557 -1.0258 -1.1780  1.1541
 3858TIP3   OH233132   2.504   3.888   7.441 -0.4076 -0.2520 -0.8346
 3858TIP3    H133133   2.467   3.960   7.390 -1.8450 -0.3746 -0.0277
 3858TIP3    H233134   2.527   3.928   7.525 -0.6447 -0.6026 -0.5992
 3859TIP3   OH233135   4.516   0.832   0.515 -0.0588  0.0243  0.1829
 3859TIP3    H133136   4.446   0.896   0.531 -0.5917 -0.7832  1.1818
 3859TIP3    H233137   4.470   0.755   0.482  0.0840 -1.1803  2.5947
 3860TIP3   OH233138   4.186   0.105   3.371 -0.1505  0.4113  0.0749
 3860TIP3    H133139   4.241   0.103   3.450  0.8233 -0.8218 -0.5987
 3860TIP3    H233140   4.097   0.092   3.404  0.1103  1.0144  1.0652
 3861TIP3   OH233141   5.797   1.990   1.838  0.3808 -0.3517 -0.0894
 3861TIP3    H133142   5.755   2.037   1.766 -0.3725  0.8451  1.0648
 3861TIP3    H233143   5.764   1.901   1.832 -2.0698  0.4308  0.4962
 3862TIP3   OH233144   0.219   3.816   0.306  0.4480 -0.0924 -0.1644
 3862TIP3    H133145   0.239   3.800   0.214  1.2786  1.2990 -0.2513
 3862TIP3    H233146   0.137   3.865   0.305  0.2866 -0.3581 -0.1360
 3863TIP3   OH233147   3.138   5.028   1.518 -0.8084 -0.3770  0.3135
 3863TIP3    H133148   3.180   4.952   1.477 -1.2313  0.8208 -2.5530
 3863TIP3    H233149   3.204   5.097   1.516 -1.6259  0.4038 -0.6444
 3864TIP3   OH233150   1.676   6.511   3.264  0.1899 -0.3606  0.0355
 3864TIP3    H133151   1.602   6.567   3.286 -1.2492 -1.9772 -0.4179
 3864TIP3    H233152   1.708   6.479   3.348 -1.0018 -1.2813  0.1702
 3865TIP3   OH233153   0.398   2.511   1.209  0.4514  0.4842 -0.3387
 3865TIP3    H133154   0.424   2.603   1.198  0.7557  0.1845 -2.2732
 3865TIP3    H233155   0.334   2.496   1.140  0.3874 -0.7784 -0.0185
 3866TIP3   OH233156   2.694   6.232   1.716 -0.1797 -0.2780  0.5624
 3866TIP3    H133157   2.638   6.278   1.653 -1.8926 -0.8098  1.6218
 3866TIP3    H233158   2.746   6.172   1.663  0.6213  1.4115 -0.6290
 3867TIP3   OH233159   1.672   0.790   7.731 -0.1292 -0.1056  0.0005
 3867TIP3    H133160   1.612   0.727   7.772 -1.6042  1.6892  0.7484
 3867TIP3    H233161   1.655   0.781   7.637 -0.4937 -0.6552  0.1110
 3868TIP3   OH233162   0.779   6.323   8.637 -0.7447  0.2618 -0.6685
 3868TIP3    H133163   0.798   6.232   8.618  0.5254  0.7585 -1.9784
 3868TIP3    H233164   0.865   6.365   8.641 -1.2102  1.1497  1.4368
 3869TIP3   OH233165   1.429   1.982   8.677 -0.4040  0.0405  0.2014
 3869TIP3    H133166   1.399   2.063   8.636  0.6169  1.4373  2.0642
 3869TIP3    H233167   1.517   1.969   8.643  1.3201  2.3621  3.1843
 3870TIP3   OH233168   5.693   5.572   2.173 -0.1062  0.6765 -0.2714
 3870TIP3    H133169   5.598   5.570   2.167 -0.1249  2.5934 -1.3568
 3870TIP3    H233170   5.723   5.557   2.083  0.5645  1.6467 -0.2201
 3871TIP3   OH233171   6.260   3.299   0.105 -0.6674  0.3146 -0.5635
 3871TIP3    H133172   6.300   3.378   0.141 -1.6489  0.2371  0.7774
 3871TIP3    H233173   6.255   3.316   0.011 -2.3137  2.5789 -0.1585
 3872TIP3   OH233174   1.153   1.928   3.037 -0.2393 -0.8161  0.0979
 3872TIP3    H133175   1.103   1.862   2.989 -0.9911 -0.1062 -0.1322
 3872TIP3    H233176   1.092   1.962   3.102  0.7449 -1.6914  1.5159
 3873TIP3   OH233177   4.413   1.194   8.222  0.2047  0.2721 -0.1687
 3873TIP3    H133178   4.486   1.254   8.215  0.2870 -0.0232 -2.9858
 3873TIP3    H233179   4.375   1.191   8.134 -0.4073 -2.9973  0.0476
 3874TIP3   OH233180   2.998   0.224   0.496 -0.0283  0.4020 -0.5797
 3874TIP3    H133181   3.073   0.267   0.454  0.4738  1.3045  1.1492
 3874TIP3    H233182   2.936   0.209   0.424  1.6564 -0.0874 -1.9988
 3875TIP3   OH233183   1.797   1.869   1.150 -0.1105 -0.2938  0.4917
 3875TIP3    H133184   1.854   1.799   1.181  0.8509  0.3703  0.2802
 3875TIP3    H233185   1.749   1.831   1.076  1.7652 -0.1968 -0.8328
 3876TIP3   OH233186   4.099   5.329   2.089  0.2525  0.0790 -0.2649
 3876TIP3    H133187   4.179   5.284   2.060  0.0551  0.7812 -1.9825
 3876TIP3    H233188   4.117   5.422   2.075 -0.4032  0.3421  0.5539
 3877TIP3   OH233189   4.597   6.508   1.799  0.1500 -0.0520 -0.0330
 3877TIP3    H133190   4.672   6.453   1.780 -0.1758  0.0333 -1.7572
 3877TIP3    H233191   4.533   6.486   1.732 -0.9924  0.5909  0.7970
 3878TIP3   OH233192   3.913   3.834   0.474 -0.2096  0.5260 -0.3789
 3878TIP3    H133193   3.973   3.807   0.405  0.6605 -0.5841  0.7645
 3878TIP3    H233194   3.952   3.801   0.554 -1.3728  1.4724  0.6273
 3879TIP3   OH233195   3.509   2.829   2.166 -0.0306  0.3247 -0.8328
 3879TIP3    H133196   3.531   2.807   2.257 -0.1698  2.2994 -0.2558
 3879TIP3    H233197   3.587   2.804   2.116  0.3088 -0.1880 -0.0690
 3880TIP3   OH233198   6.035   5.154   0.365 -0.6414  0.0592 -0.3620
 3880TIP3    H133199   6.108   5.207   0.332 -0.8497  0.3223 -0.4027
 3880TIP3    H233200   6.012   5.194   0.449 -0.1245 -0.5984  0.1034
 3881TIP3   OH233201   2.282   1.398   7.955  0.3821  0.2717  0.0037
 3881TIP3    H133202   2.222   1.349   8.011  0.0362  0.2507 -0.3780
 3881TIP3    H233203   2.295   1.342   7.879 -0.1045  0.8171 -0.4859
 3882TIP3   OH233204   3.524   1.203   3.299  0.1690  0.0355  0.8769
 3882TIP3    H133205   3.582   1.157   3.360 -1.9264  0.0509  3.0086
 3882TIP3    H233206   3.437   1.194   3.336 -0.7257  3.4486  0.0115
 3883TIP3   OH233207   0.801   0.119   0.821  0.0425 -0.2616  0.3259
 3883TIP3    H133208   0.782   0.212   0.836  0.5496 -0.4042  2.2006
 3883TIP3    H233209   0.783   0.105   0.729  0.3429  1.8047 -0.1028
 3884TIP3   OH233210   1.105   0.651   3.671 -0.1338 -0.1194  0.4247
 3884TIP3    H133211   1.066   0.691   3.593  2.1802 -0.0032 -0.7474
 3884TIP3    H233212   1.038   0.590   3.702 -0.8301 -0.7998 -2.1736
 3885TIP3   OH233213   0.996   4.842   2.138 -0.0350 -0.0117  0.2430
 3885TIP3    H133214   0.917   4.815   2.185  0.3887 -2.1898 -0.1765
 3885TIP3    H233215   1.067   4.829   2.200  0.4188 -2.0089 -0.6046
 3886TIP3   OH233216   0.632   1.308   1.020  0.6396 -0.6998  0.7099
 3886TIP3    H133217   0.662   1.335   1.107  0.8266 -2.6816  1.3042
 3886TIP3    H233218   0.536   1.307   1.028  0.4856  1.6392  0.0445
 3887TIP3   OH233219   0.545   3.922   1.444  0.1585 -0.3838 -0.7230
 3887TIP3    H133220   0.510   3.903   1.531 -0.8389 -2.2394 -1.4866
 3887TIP3    H233221   0.517   4.012   1.427  2.3683  0.9198  1.7681
 3888TIP3   OH233222   3.643   4.173   3.344 -0.6264 -0.7836 -0.4249
 3888TIP3    H133223   3.605   4.193   3.258 -0.7146  0.0081 -0.2110
 3888TIP3    H233224   3.733   4.206   3.339 -0.2074 -1.9314 -0.6568
 3889TIP3   OH233225   5.481   4.628   1.167  0.4376  0.1925 -0.0055
 3889TIP3    H133226   5.390   4.644   1.192  0.7737  0.7789  0.9306
 3889TIP3    H233227   5.520   4.715   1.162  0.9097 -0.0461 -0.5627
 3890TIP3   OH233228   3.663   4.765   1.084  0.0503  0.1859 -0.1926
 3890TIP3    H133229   3.735   4.811   1.040  0.6493 -0.9506 -0.4488
 3890TIP3    H233230   3.587   4.781   1.028  0.6276 -0.5460 -1.2398
 3891TIP3   OH233231   0.449   0.264   0.869 -0.0915 -0.4498  0.3159
 3891TIP3    H133232   0.376   0.322   0.847 -0.5571 -0.6558  1.2973
 3891TIP3    H233233   0.486   0.239   0.784 -1.2399 -0.4479 -0.1948
 3892TIP3   OH233234   3.587   3.485   8.532 -0.1990  0.6659  0.2620
 3892TIP3    H133235   3.587   3.556   8.468 -0.9582  0.6094  0.1941
 3892TIP3    H233236   3.664   3.503   8.586  1.1552  0.0462 -1.3719
 3893TIP3   OH233237   5.728   4.529   1.313 -0.3371 -0.2306  0.1509
 3893TIP3    H133238   5.647   4.537   1.261 -0.4424 -0.5203  0.2639
 3893TIP3    H233239   5.797   4.562   1.256 -0.9592  3.5496  1.3467
 3894TIP3   OH233240   3.657   3.587   7.310 -0.1734 -0.0040  0.5870
 3894TIP3    H133241   3.636   3.494   7.313  1.8672 -0.5051  0.7052
 3894TIP3    H233242   3.581   3.630   7.349 -1.4174 -1.5454 -0.0218
 3895TIP3   OH233243   4.775   6.210   0.635  0.8131  0.6062 -0.0537
 3895TIP3    H133244   4.720   6.248   0.703  2.2604  0.4242  1.2540
 3895TIP3    H233245   4.857   6.187   0.679  0.9818 -1.6103 -1.3512
 3896TIP3   OH233246   4.628   0.963   3.280 -0.0300 -0.2614 -0.1732
 3896TIP3    H133247   4.561   0.980   3.346  1.0687  2.6463  0.3285
 3896TIP3    H233248   4.709   0.952   3.331  0.4203 -0.4361 -0.9154
 3897TIP3   OH233249   0.094   0.884   1.152 -0.1258 -0.4010 -0.8169
 3897TIP3    H133250   0.105   0.818   1.083 -2.4437 -1.4826 -0.2606
 3897TIP3    H233251   0.062   0.834   1.227  1.8294  0.8308  0.9156
 3898TIP3   OH233252   5.425   3.635   0.154 -0.3106  0.6236 -0.1881
 3898TIP3    H133253   5.348   3.662   0.103 -0.9527 -1.5030 -0.4513
 3898TIP3    H233254   5.494   3.624   0.089 -0.5917 -0.2060 -0.3582
 3899TIP3   OH233255   6.590   4.687   0.957  0.4954  0.4640 -0.1532
 3899TIP3    H133256   6.623   4.628   1.025 -0.8825  1.1958  1.2052
 3899TIP3    H233257   6.565   4.629   0.885  0.3983 -0.4895  0.6245
 3900TIP3   OH233258   4.968   5.538   3.549  0.7318  0.4973 -0.1158
 3900TIP3    H133259   5.033   5.498   3.607  0.6213  0.3604 -0.0886
 3900TIP3    H233260   4.897   5.475   3.544  0.3608  0.8814  0.2816
 3901TIP3   OH233261   2.367   4.264   1.821  0.1521  0.3497  0.0384
 3901TIP3    H133262   2.410   4.242   1.904  0.2716 -1.5881 -0.4906
 3901TIP3    H233263   2.438   4.295   1.765  0.4307 -0.3142  0.0132
 3902TIP3   OH233264   6.219   0.994   7.946  0.5561 -0.2369 -0.4350
 3902TIP3    H133265   6.125   0.977   7.959  0.5917  0.8685  1.8567
 3902TIP3    H233266   6.222   1.068   7.886 -0.0337 -0.2823 -0.5273
 3903TIP3   OH233267   6.777   0.896   2.534 -0.2811 -0.3158 -0.2977
 3903TIP3    H133268   6.783   0.940   2.618  0.3659  0.9267 -0.9758
 3903TIP3    H233269   6.867   0.894   2.501 -0.8004  1.3367 -1.9934
 3904TIP3   OH233270   2.087   4.883   7.563 -0.4481 -0.4824  0.0218
 3904TIP3    H133271   2.001   4.841   7.573 -0.3530 -0.9039 -0.8061
 3904TIP3    H233272   2.081   4.929   7.480 -0.1120  0.0917  0.3144
 3905TIP3   OH233273   5.091   1.708   3.439 -0.3539 -0.4237  0.2939
 3905TIP3    H133274   5.040   1.637   3.477 -0.8071 -0.9335 -1.1718
 3905TIP3    H233275   5.066   1.786   3.489 -0.3695 -1.1679  1.4705
 3906TIP3   OH233276   1.654   1.915   8.556  0.0631 -0.0507  0.3026
 3906TIP3    H133277   1.634   1.980   8.488  0.2591 -0.6380 -0.3401
 3906TIP3    H233278   1.702   1.964   8.623  0.2337  0.4599 -0.1816
 3907TIP3   OH233279   2.876   0.471   8.080 -0.6510  0.0836  0.4579
 3907TIP3    H133280   2.820   0.541   8.114  0.1475  0.4418  1.0633
 3907TIP3    H233281   2.937   0.516   8.022 -0.1106 -0.1001  0.8809
 3908TIP3   OH233282   3.081   1.843   2.321 -0.2189  0.0538 -0.1491
 3908TIP3    H133283   3.011   1.851   2.257  0.3405  2.1025 -0.5638
 3908TIP3    H233284   3.061   1.909   2.387  0.2421 -0.7364  0.8158
 3909TIP3   OH233285   0.205   3.953   0.041  0.2512 -0.4868 -0.1684
 3909TIP3    H133286   0.163   3.930  -0.042 -0.0606 -1.8581  0.3438
 3909TIP3    H233287   0.258   4.029   0.021 -1.0030  0.1336 -1.2786
 3910TIP3   OH233288   5.021   1.691   0.716  0.3802  0.1244  0.4707
 3910TIP3    H133289   5.100   1.644   0.689  0.3651  0.3280  0.0629
 3910TIP3    H233290   5.000   1.655   0.802  1.1570  0.3679  0.7709
 3911TIP3   OH233291   4.308   2.906   1.240  0.1674 -0.0273 -0.0778
 3911TIP3    H133292   4.339   2.903   1.149  0.5769 -0.5187  0.0723
 3911TIP3    H233293   4.380   2.868   1.291 -1.0682 -2.1414  0.1725
 3912TIP3   OH233294   4.022   4.762   8.541  0.0975 -0.6089 -0.6677
 3912TIP3    H133295   4.004   4.677   8.582 -1.1732 -0.1985 -0.3336
 3912TIP3    H233296   3.994   4.752   8.450  0.1073 -0.5975 -0.6717
 3913TIP3   OH233297   2.723   1.476   7.744 -0.1295  0.1368 -0.3835
 3913TIP3    H133298   2.781   1.525   7.686  0.0740 -1.7902 -1.8869
 3913TIP3    H233299   2.779   1.450   7.817  0.7986 -1.1827 -1.5222
 3914TIP3   OH233300   5.486   3.723   2.223  0.0845  0.1121  0.0853
 3914TIP3    H133301   5.563   3.758   2.268 -0.8354  1.0687  0.9771
 3914TIP3    H233302   5.414   3.738   2.284 -0.9811  0.1579 -1.1491
 3915TIP3   OH233303   2.573   0.863   0.511  0.4961  0.3177  0.0693
 3915TIP3    H133304   2.486   0.882   0.477  0.5051  0.3819  0.0817
 3915TIP3    H233305   2.567   0.773   0.544  0.2201  0.5933  0.7838
 3916TIP3   OH233306   5.161   4.537   2.302 -0.4646  0.2742  0.0711
 3916TIP3    H133307   5.209   4.482   2.363  1.4562  0.6958 -0.9662
 3916TIP3    H233308   5.182   4.626   2.328 -1.8544  0.5118  0.4504
 3917TIP3   OH233309   1.062   0.427   1.488  0.3018  0.6328 -0.1712
 3917TIP3    H133310   0.982   0.439   1.539  0.1508 -0.1840 -0.1953
 3917TIP3    H233311   1.068   0.332   1.476  1.7042  0.6058  0.5153
 3918TIP3   OH233312   3.196   1.744   7.834 -0.3836  0.0942  0.7673
 3918TIP3    H133313   3.243   1.822   7.806 -2.8942  1.2243 -0.6188
 3918TIP3    H233314   3.256   1.700   7.894  1.8244  2.1210  0.1872
 3919TIP3   OH233315   0.420   5.700   0.292  0.2870  0.0436  0.3530
 3919TIP3    H133316   0.364   5.753   0.235  0.6436  1.5752  1.3812
 3919TIP3    H233317   0.484   5.661   0.233 -0.5587 -0.0195 -0.5537
 3920TIP3   OH233318   4.800   3.248   0.021 -0.3254  0.2201  0.6044
 3920TIP3    H133319   4.838   3.240  -0.067 -0.7764  1.1840  0.3100
 3920TIP3    H233320   4.786   3.157   0.049 -0.9058 -0.1076 -0.6444
 3921TIP3   OH233321   1.916   1.002   8.686  0.1786 -0.0545  0.2256
 3921TIP3    H133322   1.967   0.953   8.621 -0.8453  0.0241 -0.6664
 3921TIP3    H233323   1.835   0.952   8.696 -1.4628  2.0261 -1.6658
 3922TIP3   OH233324   6.835   0.782   0.794  0.4650 -0.2201 -0.2988
 3922TIP3    H133325   6.855   0.729   0.872 -0.1988 -2.6378 -1.6460
 3922TIP3    H233326   6.920   0.814   0.764  0.5692  2.8617  2.6441
 3923TIP3   OH233327   3.013   4.837   2.051  0.2534 -0.1565  0.2264
 3923TIP3    H133328   2.989   4.909   2.110  2.4044  0.3306  0.6017
 3923TIP3    H233329   3.109   4.838   2.050  0.3091 -1.1125 -2.1281
 3924TIP3   OH233330   2.676   0.176   2.154  0.3309 -0.0795 -0.4120
 3924TIP3    H133331   2.743   0.108   2.166 -0.5507 -0.8225  0.3977
 3924TIP3    H233332   2.611   0.158   2.221  1.5466  3.4848  2.0480
 3925TIP3   OH233333   0.282   3.314   8.396  0.4216 -0.1338 -0.5553
 3925TIP3    H133334   0.306   3.314   8.304 -2.9117 -1.4481 -1.5603
 3925TIP3    H233335   0.215   3.382   8.404 -0.8102 -1.4037  0.4101
 3926TIP3   OH233336   2.692   4.644   1.533  0.9404  0.1907  0.7790
 3926TIP3    H133337   2.653   4.713   1.586  1.4235  0.0926  1.2724
 3926TIP3    H233338   2.658   4.563   1.570 -0.5368  0.1617 -0.5161
 3927TIP3   OH233339   0.975   2.588   8.532  0.0992 -0.5527  0.3835
 3927TIP3    H133340   0.904   2.586   8.467 -1.3895 -1.8985  1.9576
 3927TIP3    H233341   1.053   2.612   8.481 -1.3651  0.5184 -1.4958
 3928TIP3   OH233342   3.390   6.729   1.119 -0.1173  0.4987  0.2694
 3928TIP3    H133343   3.369   6.817   1.151  0.3374  0.5704  0.3689
 3928TIP3    H233344   3.419   6.742   1.029  0.3929  0.5034  0.4328
 3929TIP3   OH233345   1.729   3.720   0.972  0.1808  0.0299 -0.1265
 3929TIP3    H133346   1.639   3.694   0.989  0.6412 -1.3130  0.4027
 3929TIP3    H233347   1.723   3.785   0.903 -1.2612  0.6663  0.5550
 3930TIP3   OH233348   3.950   1.740   0.834 -0.4271  0.1637 -0.1582
 3930TIP3    H133349   3.946   1.676   0.763  0.9336 -1.6485  1.2992
 3930TIP3    H233350   4.027   1.793   0.814  1.7866 -2.2543  1.3580
 3931TIP3   OH233351   0.475   0.116   8.511  0.3857 -0.2760  0.3270
 3931TIP3    H133352   0.387   0.095   8.542  0.3140 -1.0534 -0.3813
 3931TIP3    H233353   0.519   0.031   8.503  0.5224 -0.0644 -1.3315
 3932TIP3   OH233354   1.716   5.166   1.635 -0.3513  0.2073 -0.0464
 3932TIP3    H133355   1.709   5.245   1.689 -1.1086  0.6295 -0.7290
 3932TIP3    H233356   1.774   5.108   1.684  1.0711  1.5810  0.0000
 3933TIP3   OH233357   4.404   5.164   2.505  0.0826  0.2597  0.1179
 3933TIP3    H133358   4.321   5.208   2.523 -0.0820 -0.3514  0.9479
 3933TIP3    H233359   4.441   5.148   2.592  1.0135  0.4189 -0.2443
 3934TIP3   OH233360   1.879   1.097   3.098 -0.0471  0.7716 -0.0543
 3934TIP3    H133361   1.921   1.065   3.178  0.5343  4.1049  1.1355
 3934TIP3    H233362   1.853   1.018   3.051  2.4128 -1.3612  1.9024
 3935TIP3   OH233363   4.008   0.036   1.236  0.6117  0.1378  0.3835
 3935TIP3    H133364   3.977   0.029   1.326 -0.0517 -0.7553  0.1081
 3935TIP3    H233365   4.075  -0.032   1.228  0.8448  0.3801  0.2715
 3936TIP3   OH233366   2.419   6.648   1.728 -0.2389 -0.4893  0.0494
 3936TIP3    H133367   2.381   6.630   1.642  1.2545 -2.0245 -0.3409
 3936TIP3    H233368   2.433   6.562   1.767  0.5661  0.1261  1.1777
 3937TIP3   OH233369   6.468   3.250   2.375 -0.0402  0.1360  0.6985
 3937TIP3    H133370   6.456   3.314   2.305  0.6613  1.0803  1.4215
 3937TIP3    H233371   6.448   3.165   2.334  0.9919  0.5932 -0.8126
 3938TIP3   OH233372   6.527   2.213   1.319  0.4899  0.3241 -0.2048
 3938TIP3    H133373   6.530   2.225   1.413 -0.4902 -0.4387 -0.0628
 3938TIP3    H233374   6.474   2.135   1.306 -0.1855  0.9545 -1.4306
 3939TIP3   OH233375   1.469   4.432   1.596 -0.2094  0.0192 -0.3794
 3939TIP3    H133376   1.498   4.348   1.631 -0.9406 -0.0580  0.0688
 3939TIP3    H233377   1.384   4.447   1.638 -0.2471  0.8131 -0.7235
 3940TIP3   OH233378   1.981   5.220   3.169  0.1190 -0.3793  0.0453
 3940TIP3    H133379   1.941   5.186   3.249 -0.3708 -1.6514 -0.7037
 3940TIP3    H233380   1.956   5.312   3.167 -1.4966 -0.7891  0.3802
 3941TIP3   OH233381   5.861   2.885   8.724 -0.2737  0.5545  0.8828
 3941TIP3    H133382   5.817   2.967   8.703  0.0581  0.2506 -1.2234
 3941TIP3    H233383   5.790   2.827   8.755 -1.0511  0.7145 -0.5042
 3942TIP3   OH233384   5.280   3.576   2.023 -0.8406  0.0518 -0.8994
 3942TIP3    H133385   5.293   3.494   1.976 -1.1061  0.1721 -1.1927
 3942TIP3    H233386   5.307   3.643   1.960 -1.9635  0.2586 -1.1917
 3943TIP3   OH233387   1.196   2.521   3.454  0.0027 -0.5099  0.6764
 3943TIP3    H133388   1.119   2.511   3.510 -1.7096 -0.6753 -1.5725
 3943TIP3    H233389   1.172   2.478   3.372  1.7800  1.0407 -0.7481
 3944TIP3   OH233390   3.876   3.310   2.315  0.3644 -0.1077  0.2304
 3944TIP3    H133391   3.916   3.261   2.242  0.1575 -0.3652  0.2877
 3944TIP3    H233392   3.868   3.246   2.385  0.1752  0.0338  0.3380
 3945TIP3   OH233393   5.523   5.656   1.712  0.2718  0.0667  0.2081
 3945TIP3    H133394   5.576   5.735   1.701 -0.0439  0.3994  1.0269
 3945TIP3    H233395   5.565   5.591   1.656  0.9363  0.6145  0.0593
 3946TIP3   OH233396   2.591   4.389   3.035  0.2159  0.2003 -0.4269
 3946TIP3    H133397   2.599   4.464   3.094 -1.7283 -0.7551  1.1872
 3946TIP3    H233398   2.660   4.329   3.063  0.0845  0.2718  0.0574
 3947TIP3   OH233399   4.036   3.068   2.994 -0.1163 -0.4284  1.0405
 3947TIP3    H133400   3.952   3.022   2.993  0.1174 -0.8656  1.1800
 3947TIP3    H233401   4.091   3.016   3.052 -0.2834  0.8215  2.3761
 3948TIP3   OH233402   5.307   5.435   1.702 -0.1052  0.0744 -0.0764
 3948TIP3    H133403   5.375   5.500   1.719  0.3259 -0.5396  0.6253
 3948TIP3    H233404   5.298   5.388   1.785  0.4924 -1.5768 -0.8995
 3949TIP3   OH233405   1.716   1.807   1.731 -0.0224 -0.4302 -0.2295
 3949TIP3    H133406   1.631   1.773   1.761 -0.0516 -0.2454 -0.0984
 3949TIP3    H233407   1.754   1.735   1.680 -0.2463 -0.5230 -0.2669
 3950TIP3   OH233408   6.674   6.780   1.795  0.1302 -0.1267  0.1756
 3950TIP3    H133409   6.649   6.774   1.703  0.1150  1.9421  0.0043
 3950TIP3    H233410   6.766   6.753   1.797  0.3116  0.4103 -0.5652
 3951TIP3   OH233411   3.689   3.572   1.478  0.2140 -0.0920  0.8888
 3951TIP3    H133412   3.754   3.562   1.408  0.1039  0.4879  0.6972
 3951TIP3    H233413   3.657   3.484   1.494  0.0508 -0.2002  0.0126
 3952TIP3   OH233414   4.568   1.813   0.047 -0.1184 -0.4149  0.0164
 3952TIP3    H133415   4.500   1.746   0.036 -1.8408  0.9539  1.6199
 3952TIP3    H233416   4.623   1.778   0.117  0.1989 -1.0393 -0.5335
 3953TIP3   OH233417   4.148   2.917   0.309  0.2408  0.7942  0.0603
 3953TIP3    H133418   4.122   3.000   0.348  1.7452  0.1929  2.4909
 3953TIP3    H233419   4.201   2.874   0.375 -1.0263 -2.4444 -0.8319
 3954TIP3   OH233420   5.588   5.067   1.198 -0.0835  0.6964  0.0592
 3954TIP3    H133421   5.575   5.002   1.266  0.0805  1.0359  0.4209
 3954TIP3    H233422   5.534   5.142   1.225 -0.2299  0.7336 -0.3229
 3955TIP3   OH233423   1.392   3.962   2.826  0.0440 -0.5526  0.2850
 3955TIP3    H133424   1.407   3.883   2.879  1.2586  1.0522  2.5064
 3955TIP3    H233425   1.458   3.956   2.757 -0.9734 -2.2488 -0.6143
 3956TIP3   OH233426   4.726   2.083   0.293 -0.4262 -0.1827  0.0231
 3956TIP3    H133427   4.699   2.140   0.365 -1.4687  0.3373 -0.7558
 3956TIP3    H233428   4.821   2.078   0.302 -0.1413  2.6011 -0.5266
 3957TIP3   OH233429   5.635   1.587   1.553  0.2312  0.5965  0.3904
 3957TIP3    H133430   5.547   1.577   1.516 -0.0891 -1.0988  1.4864
 3957TIP3    H233431   5.689   1.617   1.480 -0.9877  0.4071 -0.6251
 3958TIP3   OH233432   2.863   1.308   7.939 -0.6454 -0.3404 -0.5989
 3958TIP3    H133433   2.938   1.343   7.986  1.3632 -1.8697 -2.4692
 3958TIP3    H233434   2.818   1.252   8.003  0.0790  0.2002  0.4065
 3959TIP3   OH233435   3.043   3.664   1.333  0.4253 -0.2711 -0.0861
 3959TIP3    H133436   3.086   3.666   1.247  0.6996  2.6711  0.0308
 3959TIP3    H233437   3.114   3.641   1.394  0.4050 -1.5565 -0.5108
 3960TIP3   OH233438   1.224   4.032   0.436  0.3143 -0.1103 -0.2077
 3960TIP3    H133439   1.318   4.028   0.455  0.3637 -1.5586 -0.6418
 3960TIP3    H233440   1.212   4.116   0.391  1.4241 -0.0002 -0.3272
 3961TIP3   OH233441   5.843   4.014   2.507 -0.1737  0.0619 -0.5462
 3961TIP3    H133442   5.749   4.007   2.493 -0.6218  3.8517 -0.4328
 3961TIP3    H233443   5.852   4.058   2.591  1.6262  1.0744 -1.1963
 3962TIP3   OH233444   6.213   2.817   3.079  0.2695  0.6779  0.2467
 3962TIP3    H133445   6.204   2.866   2.997  0.3457  0.3170  0.0203
 3962TIP3    H233446   6.159   2.740   3.066  2.5282 -0.8600 -0.6156
 3963TIP3   OH233447   0.546   2.523   0.509 -0.0622  0.0586  0.1668
 3963TIP3    H133448   0.511   2.449   0.559  0.5062  0.1475  0.7141
 3963TIP3    H233449   0.513   2.510   0.421 -0.9432 -0.1977  0.5236
 3964TIP3   OH233450   2.206   3.661   1.438  0.0241  0.3822 -0.4620
 3964TIP3    H133451   2.162   3.586   1.478 -0.2092  1.1589  0.7935
 3964TIP3    H233452   2.135   3.717   1.406  0.1480  0.7904 -0.0262
 3965TIP3   OH233453   6.712   0.539   2.351 -0.0808 -0.2238  0.8416
 3965TIP3    H133454   6.792   0.556   2.301 -0.8378 -0.9421 -0.6952
 3965TIP3    H233455   6.720   0.595   2.428  1.0332  1.1606 -0.2148
 3966TIP3   OH233456   0.350   4.645   0.330 -0.7560  0.7424  0.7744
 3966TIP3    H133457   0.291   4.619   0.259  1.1957 -1.6440 -0.1566
 3966TIP3    H233458   0.364   4.564   0.380  0.8061  1.4685  1.5982
 3967TIP3   OH233459   1.686   3.592   8.475  0.2596  0.2029 -0.3183
 3967TIP3    H133460   1.723   3.679   8.491 -0.4857  0.0735  2.9704
 3967TIP3    H233461   1.628   3.604   8.399  0.1863  2.6037  0.0343
 3968TIP3   OH233462   6.297   2.009   2.621  0.0582  0.1376 -0.8811
 3968TIP3    H133463   6.259   1.937   2.671  1.7605 -0.7988 -0.8522
 3968TIP3    H233464   6.222   2.053   2.581 -1.1695 -0.4100  0.7267
 3969TIP3   OH233465   5.154   4.349   0.157 -0.5842  0.0680 -0.4140
 3969TIP3    H133466   5.155   4.284   0.087 -0.7678  1.1943 -1.5143
 3969TIP3    H233467   5.104   4.308   0.227 -1.2230 -0.7458 -1.3139
 3970TIP3   OH233468   6.753   6.834   8.255  0.3024 -0.1958  0.0673
 3970TIP3    H133469   6.732   6.926   8.271  1.9080  0.2313 -0.0788
 3970TIP3    H233470   6.796   6.805   8.336  3.7222  0.4825 -1.3345
 3971TIP3   OH233471   0.592   6.471   0.023  0.2376  0.3101 -0.9113
 3971TIP3    H133472   0.618   6.490   0.113 -1.7739 -1.7042  0.1973
 3971TIP3    H233473   0.658   6.409  -0.008  1.1643  1.3151 -0.9957
 3972TIP3   OH233474   6.178   1.188   0.994 -0.0446 -0.0784 -0.9239
 3972TIP3    H133475   6.268   1.162   1.011 -0.5602 -0.9460  0.6092
 3972TIP3    H233476   6.127   1.145   1.062 -1.5657  0.8010 -1.4631
 3973TIP3   OH233477   3.895   5.959   8.568 -0.1493  0.4160 -0.7536
 3973TIP3    H133478   3.904   6.051   8.593 -0.9144  0.1440  0.5901
 3973TIP3    H233479   3.984   5.932   8.544  0.4116  1.0324  0.5712
 3974TIP3   OH233480   2.962   4.695   8.532  0.1809  0.0875 -0.3018
 3974TIP3    H133481   2.896   4.746   8.578  1.7100  0.8983  1.0996
 3974TIP3    H233482   2.961   4.609   8.574  1.3195  0.7113  1.0744
 3975TIP3   OH233483   6.229   4.864   2.633 -1.1539 -0.1268 -0.0557
 3975TIP3    H133484   6.225   4.930   2.564 -1.1143 -0.0958 -0.0279
 3975TIP3    H233485   6.306   4.887   2.685 -2.2706  1.0246  1.1826
 3976TIP3   OH233486   0.466   2.435   8.297  0.6873 -0.4193  0.3132
 3976TIP3    H133487   0.378   2.470   8.305  0.8361 -0.0977  0.5918
 3976TIP3    H233488   0.456   2.340   8.304  0.4317 -0.3504  0.9590
 3977TIP3   OH233489   4.035   5.954   1.226 -0.6332 -0.3036  0.0332
 3977TIP3    H133490   4.055   5.956   1.132  0.2523 -0.3302  0.2086
 3977TIP3    H233491   4.031   5.861   1.247 -0.1415 -0.3020  0.1518
 3978TIP3   OH233492   3.699   1.110   3.480 -0.2192 -0.2477 -1.0037
 3978TIP3    H133493   3.702   1.030   3.426 -0.8536  0.1764 -1.6869
 3978TIP3    H233494   3.703   1.078   3.570 -0.4288 -1.0585 -1.2703
 3979TIP3   OH233495   5.227   4.661   2.912 -0.0616  0.2673  0.3241
 3979TIP3    H133496   5.210   4.754   2.924  1.8768  0.7484 -0.3454
 3979TIP3    H233497   5.321   4.655   2.894 -0.1878 -1.7899  0.0308
 3980TIP3   OH233498   1.790   5.617   7.807 -0.2072 -0.5632  0.0657
 3980TIP3    H133499   1.711   5.565   7.793 -1.0648  0.3951  1.1965
 3980TIP3    H233500   1.796   5.627   7.902 -0.8072  2.4400 -0.1127
 3981TIP3   OH233501   6.180   4.533   0.423  0.2134  0.0015  0.0807
 3981TIP3    H133502   6.207   4.461   0.479  0.3998  0.5508  0.7025
 3981TIP3    H233503   6.151   4.491   0.342 -2.2092 -0.9871  1.3834
 3982TIP3   OH233504   2.029   4.852   2.469  0.5302 -0.5167  0.6034
 3982TIP3    H133505   2.021   4.758   2.458 -0.6595 -0.2993 -0.5405
 3982TIP3    H233506   1.960   4.875   2.531  0.8324 -0.3903  0.8983
 3983TIP3   OH233507   5.094   0.070   1.234  0.2355 -0.7792 -0.0546
 3983TIP3    H133508   5.177   0.062   1.281  0.0134 -0.8940  0.3229
 3983TIP3    H233509   5.065   0.160   1.253  0.0072 -0.9185  0.2630
 3984TIP3   OH233510   3.859   4.983   7.721 -0.4151 -0.6003  0.4403
 3984TIP3    H133511   3.824   5.069   7.742 -0.1547 -0.8631  2.1616
 3984TIP3    H233512   3.801   4.922   7.766 -0.3033 -1.3020 -0.3420
 3985TIP3   OH233513   0.686   0.941   8.599  0.1622 -0.2955  0.7163
 3985TIP3    H133514   0.731   0.927   8.516  2.4782 -0.2048  1.8844
 3985TIP3    H233515   0.668   0.854   8.632 -1.1614 -0.3325 -0.0497
 3986TIP3   OH233516   0.213   1.651   1.660 -0.0597  0.7772 -0.2481
 3986TIP3    H133517   0.153   1.586   1.623 -0.5433  1.2518 -0.3254
 3986TIP3    H233518   0.182   1.734   1.624  0.5252  1.0517 -0.1200
 3987TIP3   OH233519   5.005   6.450   1.418  0.1697 -0.4280 -0.2418
 3987TIP3    H133520   5.044   6.450   1.505  0.5037 -1.4742 -0.3743
 3987TIP3    H233521   5.077   6.473   1.359  0.3608 -1.3727 -0.3906
 3988TIP3   OH233522   4.315   5.242   8.410 -0.1743 -0.1634 -0.1149
 3988TIP3    H133523   4.223   5.216   8.424  0.1765 -0.8175  1.1851
 3988TIP3    H233524   4.332   5.220   8.318 -1.3732  0.1559 -0.4360
 3989TIP3   OH233525   2.453   1.277   2.123  0.2078 -0.0882  0.6198
 3989TIP3    H133526   2.485   1.202   2.074 -2.3051 -0.9709  0.1868
 3989TIP3    H233527   2.493   1.353   2.079 -0.8687 -0.9264 -2.0047
 3990TIP3   OH233528   0.526   6.265   8.496 -0.2060  0.3103 -0.1872
 3990TIP3    H133529   0.566   6.225   8.418 -0.2818 -1.0761  0.4642
 3990TIP3    H233530   0.496   6.192   8.548  0.1862  1.1987  1.3536
 3991TIP3   OH233531   3.877   4.504   2.307  0.4543 -0.1179  0.4047
 3991TIP3    H133532   3.812   4.532   2.371 -1.3359  3.4243 -2.5778
 3991TIP3    H233533   3.962   4.524   2.347 -0.5525  1.3417  1.9228
 3992TIP3   OH233534   5.912   0.511   8.440 -0.1237 -0.1125 -0.1563
 3992TIP3    H133535   5.985   0.456   8.468 -0.4576 -1.2051 -1.3028
 3992TIP3    H233536   5.949   0.568   8.373 -0.1362 -0.1151 -0.1659
 3993TIP3   OH233537   1.340   6.368   2.820 -0.4283 -0.3410 -0.7626
 3993TIP3    H133538   1.309   6.299   2.761 -1.8809  0.3255 -0.8327
 3993TIP3    H233539   1.334   6.328   2.907 -0.8674 -0.4563 -0.8393
 3994TIP3   OH233540   4.182   0.872   2.832 -0.5853 -0.7714 -0.3430
 3994TIP3    H133541   4.244   0.934   2.870  1.0264 -0.7863 -2.7623
 3994TIP3    H233542   4.097   0.916   2.838  0.0709  0.4226  0.5311
 3995TIP3   OH233543   2.929   5.653   2.274 -0.6861 -0.1923 -0.2778
 3995TIP3    H133544   2.962   5.566   2.249 -1.9675 -0.3410 -1.6361
 3995TIP3    H233545   2.863   5.634   2.341 -0.4247 -0.2000 -0.0226
 3996TIP3   OH233546   2.771   6.177   1.003  0.2879 -0.2222 -0.0832
 3996TIP3    H133547   2.679   6.195   0.982  0.3310  1.3654  0.8961
 3996TIP3    H233548   2.818   6.253   0.968  1.0534 -0.3575  0.6400
 3997TIP3   OH233549   2.573   1.697   1.005 -0.1413  0.3625  0.3567
 3997TIP3    H133550   2.580   1.650   0.922 -1.0675 -1.2302  1.1437
 3997TIP3    H233551   2.628   1.775   0.993  1.6189 -0.9932 -0.9426
 3998TIP3   OH233552   5.005   3.426   0.134 -0.2445 -0.1427 -0.2666
 3998TIP3    H133553   4.984   3.375   0.213  1.1662 -0.7153 -0.2126
 3998TIP3    H233554   4.959   3.381   0.063  0.2014 -0.9347 -0.0717
 3999TIP3   OH233555   3.862   6.238   7.899 -0.0023  0.4254  0.5479
 3999TIP3    H133556   3.916   6.316   7.884 -0.6702  0.9996  1.0437
 3999TIP3    H233557   3.880   6.214   7.990  0.9874 -0.6329  0.0893
 4000TIP3   OH233558   1.112   6.147   8.678  0.6097 -0.2555 -0.1322
 4000TIP3    H133559   1.170   6.078   8.647  0.3719 -0.3011 -0.4833
 4000TIP3    H233560   1.127   6.220   8.616  1.7526  0.4545  0.9341
 4001TIP3   OH233561   5.375   4.370   2.834  0.2622 -0.2848  0.3354
 4001TIP3    H133562   5.290   4.393   2.872  0.3398  0.1749  0.2391
 4001TIP3    H233563   5.432   4.444   2.856  0.5806 -0.4944  0.2219
 4002TIP3   OH233564   5.483   4.028   3.777 -0.1486  0.4559 -0.5332
 4002TIP3    H133565   5.477   4.123   3.782  1.3269  0.5177  2.2093
 4002TIP3    H233566   5.395   3.997   3.801 -0.1141  1.1793  0.6158
 4003TIP3   OH233567   4.071   0.629   3.412  0.2965 -0.0148 -0.1229
 4003TIP3    H133568   4.091   0.554   3.356  0.7355  0.3906 -0.5280
 4003TIP3    H233569   3.976   0.636   3.411  0.2989  0.0480 -0.9188
 4004TIP3   OH233570   6.752   1.274   3.654  0.1473  0.2989 -0.4578
 4004TIP3    H133571   6.673   1.325   3.635  0.5422  1.2377  0.3184
 4004TIP3    H233572   6.742   1.249   3.746  0.5163 -0.0318 -0.5061
 4005TIP3   OH233573   3.613   4.319   0.517  0.1831  0.1011 -0.0542
 4005TIP3    H133574   3.649   4.405   0.541 -0.2237  0.5288 -0.9077
 4005TIP3    H233575   3.689   4.266   0.496  0.4669  0.0899  1.0033
 4006TIP3   OH233576   2.007   2.588   0.086  0.2404 -0.2037 -0.4250
 4006TIP3    H133577   1.929   2.643   0.098  1.2101  0.9202  1.0845
 4006TIP3    H233578   2.081   2.647   0.099  1.3509 -1.9952  2.5447
 4007TIP3   OH233579   1.518   4.903   0.268 -0.4314 -0.3858 -0.1487
 4007TIP3    H133580   1.601   4.950   0.257 -0.3482 -0.5032 -0.0173
 4007TIP3    H233581   1.493   4.919   0.359 -0.2290 -0.8820 -0.0056
 4008TIP3   OH233582   5.116   3.167   1.618  0.0128  0.5924 -0.3442
 4008TIP3    H133583   5.186   3.104   1.599 -0.3676  0.2577 -0.6669
 4008TIP3    H233584   5.133   3.239   1.558 -0.7552 -0.1393 -1.4846
 4009TIP3   OH233585   6.021   4.909   8.508 -0.3542  0.2754 -0.3299
 4009TIP3    H133586   6.003   4.942   8.596 -2.0951  0.3253 -0.6809
 4009TIP3    H233587   6.091   4.845   8.520 -0.9928 -0.1736  1.1743
 4010TIP3   OH233588   2.357   4.148   0.158 -0.3483  0.4752  0.0975
 4010TIP3    H133589   2.438   4.143   0.208 -0.5191  0.2636  0.3596
 4010TIP3    H233590   2.303   4.076   0.192  0.2675 -0.9420 -1.7314
 4011TIP3   OH233591   1.087   5.061   0.154 -0.0938 -0.3479 -0.5393
 4011TIP3    H133592   1.042   5.116   0.218 -0.7008 -1.1809 -0.2256
 4011TIP3    H233593   1.094   5.115   0.076  0.5033  0.6236  0.1678
 4012TIP3   OH233594   5.928   3.777   2.923 -0.4156  0.1058  0.0171
 4012TIP3    H133595   6.005   3.733   2.887  0.1405  1.4981 -0.5559
 4012TIP3    H233596   5.955   3.803   3.011  0.7128  2.6929 -0.9758
 4013TIP3   OH233597   6.166   2.166   8.730 -0.5713  0.3339  0.3431
 4013TIP3    H133598   6.139   2.111   8.656  1.0204 -0.9025  0.6318
 4013TIP3    H233599   6.166   2.255   8.694  0.2769 -0.2451 -1.2213
 4014TIP3   OH233600   4.026   6.643   8.448 -0.2678  0.2179 -0.0241
 4014TIP3    H133601   3.943   6.689   8.441 -0.5886 -0.1599  1.1002
 4014TIP3    H233602   4.020   6.574   8.382  0.2182  1.7230 -1.7165
 4015TIP3   OH233603   1.197   2.917   0.891  0.0860  0.2405  0.3332
 4015TIP3    H133604   1.120   2.860   0.884  0.2970 -0.0304  0.1848
 4015TIP3    H233605   1.268   2.857   0.915  0.0152  0.6651  1.6960
 4016TIP3   OH233606   4.371   4.574   1.304  0.3435  0.0280 -0.0874
 4016TIP3    H133607   4.362   4.651   1.248 -0.3024 -0.1031 -0.1681
 4016TIP3    H233608   4.311   4.590   1.377  2.8148  1.2843  1.8623
 4017TIP3   OH233609   4.358   2.767   2.342 -0.1468 -0.3308 -0.1089
 4017TIP3    H133610   4.283   2.822   2.366  0.1843  0.7377 -1.3876
 4017TIP3    H233611   4.430   2.829   2.329 -0.1591 -0.8013 -3.1489
 4018TIP3   OH233612   1.379   6.531   8.479 -0.2597  0.1943 -0.1456
 4018TIP3    H133613   1.333   6.593   8.536  1.5624 -0.7756  2.5482
 4018TIP3    H233614   1.309   6.483   8.435 -1.7523  1.2432  0.9844
 4019TIP3   OH233615   4.719   5.304   7.996 -0.1229 -0.4821  0.2850
 4019TIP3    H133616   4.732   5.391   8.034 -0.8156 -0.2193 -0.0715
 4019TIP3    H233617   4.642   5.313   7.940 -1.1462 -1.7124  1.4393
 4020TIP3   OH233618   2.922   1.008   3.012 -0.1846 -0.0796  0.5659
 4020TIP3    H133619   3.014   1.014   2.986 -0.4304 -0.2631 -0.4117
 4020TIP3    H233620   2.892   1.099   3.016  0.1943  0.0119  1.5143
 4021TIP3   OH233621   3.426   1.432   3.128  0.3530  0.3547  0.0508
 4021TIP3    H133622   3.393   1.389   3.207  0.4733  1.4806  0.7362
 4021TIP3    H233623   3.347   1.458   3.080  0.2481  1.2202  0.6755
 4022TIP3   OH233624   5.131   3.245   0.850  0.0168 -0.0244  0.2471
 4022TIP3    H133625   5.198   3.269   0.786 -0.2107  1.1404  0.4192
 4022TIP3    H233626   5.180   3.211   0.925  0.5183  1.6213  0.7201
 4023TIP3   OH233627   0.710   3.759   8.702  0.3017 -0.9144 -0.6793
 4023TIP3    H133628   0.672   3.696   8.640 -0.5080 -0.5563 -0.5686
 4023TIP3    H233629   0.635   3.813   8.729  0.8731 -0.2947 -0.3133
 4024TIP3   OH233630   2.507   5.475   2.712 -0.3302 -0.1198  0.1762
 4024TIP3    H133631   2.570   5.424   2.763  0.1991  0.2140 -0.1357
 4024TIP3    H233632   2.504   5.560   2.756 -0.5563 -0.1331  0.1863
 4025TIP3   OH233633   1.790   2.194   1.907  0.3959 -0.0823  0.1902
 4025TIP3    H133634   1.834   2.146   1.837  0.7213  0.2788  0.1427
 4025TIP3    H233635   1.806   2.286   1.887 -0.9832  0.0922 -0.2120
 4026TIP3   OH233636   3.330   2.112   2.548  0.0222 -0.0465  0.2302
 4026TIP3    H133637   3.248   2.083   2.507  0.4721 -2.1710  0.7127
 4026TIP3    H233638   3.398   2.089   2.486  0.4705 -0.8327  0.9879
 4027TIP3   OH233639   2.832   1.831   8.047 -0.6346  0.1387 -0.2055
 4027TIP3    H133640   2.912   1.882   8.034 -0.9853  0.7785  0.1219
 4027TIP3    H233641   2.853   1.745   8.009 -0.2531  0.7047 -1.3234
 4028TIP3   OH233642   5.048   5.752   1.349 -0.2336  0.0907 -1.4331
 4028TIP3    H133643   5.123   5.698   1.375 -0.3611  0.2729 -0.6905
 4028TIP3    H233644   5.085   5.817   1.289  0.4758  1.0774  0.0351
 4029TIP3   OH233645   3.229   3.041   2.685  0.3223  0.1723  0.6617
 4029TIP3    H133646   3.260   2.980   2.752 -0.8612 -0.3120  0.7870
 4029TIP3    H233647   3.254   3.128   2.719  1.6498 -0.1912  0.6747
 4030TIP3   OH233648   2.583   5.528   1.795  0.2073  0.3705 -0.0665
 4030TIP3    H133649   2.507   5.558   1.745  0.1682 -1.3188 -1.0848
 4030TIP3    H233650   2.651   5.512   1.729 -0.4177 -3.6463  0.0696
 4031TIP3   OH233651   0.492   0.786   3.422  0.2659 -0.6108 -0.0197
 4031TIP3    H133652   0.491   0.792   3.517  0.2855 -1.3947  0.0372
 4031TIP3    H233653   0.584   0.777   3.399  0.2155 -1.0042 -0.0701
 4032TIP3   OH233654   5.813   5.229   2.013  0.0526  0.1538  0.0867
 4032TIP3    H133655   5.807   5.141   1.976  3.3857  0.0687 -0.5885
 4032TIP3    H233656   5.865   5.218   2.093  0.7061  1.5200 -0.1216
 4033TIP3   OH233657   4.569   3.243   2.295  0.8018  0.5542  0.4852
 4033TIP3    H133658   4.536   3.308   2.234  1.1016 -0.7752 -1.1563
 4033TIP3    H233659   4.550   3.280   2.382  0.2007  2.4006 -0.3802
 4034TIP3   OH233660   5.286   3.324   1.899  0.2652 -0.0293  0.1840
 4034TIP3    H133661   5.297   3.286   1.986 -0.4437  0.2801  0.4155
 4034TIP3    H233662   5.337   3.267   1.841 -0.9318 -1.4741  0.4826
 4035TIP3   OH233663   5.510   5.515   0.607  0.0794  0.0736 -0.4472
 4035TIP3    H133664   5.505   5.446   0.673 -1.1208  0.1549 -0.4410
 4035TIP3    H233665   5.590   5.495   0.558 -0.4848 -1.5934 -0.7440
 4036TIP3   OH233666   3.844   1.751   2.707 -0.5769 -0.7201  0.0433
 4036TIP3    H133667   3.828   1.677   2.648  0.2380  0.7107 -2.0879
 4036TIP3    H233668   3.885   1.711   2.784 -0.6699 -2.5509 -0.8022
 4037TIP3   OH233669   5.440   3.461   0.364  0.3953 -0.0282  0.2219
 4037TIP3    H133670   5.411   3.517   0.292  1.9632 -1.7394 -1.8784
 4037TIP3    H233671   5.504   3.514   0.412  1.3906  0.2463 -1.3480
 4038TIP3   OH233672   5.912   3.434   0.232  0.7280  0.1940 -0.0905
 4038TIP3    H133673   5.972   3.359   0.226  0.4916  0.0482 -0.7178
 4038TIP3    H233674   5.925   3.481   0.149  0.0234  0.1932 -0.2041
 4039TIP3   OH233675   1.466   0.265   8.564  0.3930  0.2800  0.1174
 4039TIP3    H133676   1.535   0.233   8.622  0.0836  0.8573  0.8198
 4039TIP3    H233677   1.511   0.292   8.484  0.9335  0.3289  0.4387
 4040TIP3   OH233678   4.506   3.522   2.951  0.7450  0.0723  0.3254
 4040TIP3    H133679   4.515   3.527   3.046  1.0235 -0.9345  0.3669
 4040TIP3    H233680   4.412   3.526   2.935  0.7049  0.3564  0.6309
 4041TIP3   OH233681   1.203   1.433   8.131 -0.8140  0.1075 -0.0931
 4041TIP3    H133682   1.281   1.380   8.148 -1.6291 -0.7806  1.0007
 4041TIP3    H233683   1.219   1.514   8.180  1.0848  1.6253 -2.9182
 4042TIP3   OH233684   4.135   6.509   0.339 -0.3765  0.3027 -0.1783
 4042TIP3    H133685   4.066   6.520   0.405 -0.7531  0.0463 -0.5256
 4042TIP3    H233686   4.094   6.456   0.271  0.5794 -1.0108  0.2344
 4043TIP3   OH233687   2.415   0.840   0.774  0.1276  0.4435 -0.6277
 4043TIP3    H133688   2.333   0.854   0.821  0.5434  0.1616  0.2064
 4043TIP3    H233689   2.391   0.786   0.699 -0.1036 -1.6541  0.8780
 4044TIP3   OH233690   1.092   6.608   1.030  0.0532  0.3732 -0.3400
 4044TIP3    H133691   1.080   6.702   1.017 -1.4661  0.2197 -0.2852
 4044TIP3    H233692   1.157   6.601   1.100 -0.2537  1.4121  0.0672
 4045TIP3   OH233693   0.939   3.431   0.367  0.1552  0.1118  0.5383
 4045TIP3    H133694   0.942   3.485   0.446  0.7567  0.3922  0.3229
 4045TIP3    H233695   0.952   3.492   0.295 -1.8999  0.1091  0.0907
 4046TIP3   OH233696   5.623   1.040   3.176 -0.1092  0.0944  0.0121
 4046TIP3    H133697   5.671   1.076   3.102 -0.5911 -0.5872 -0.6468
 4046TIP3    H233698   5.547   1.097   3.185  0.6603  1.0280  0.9016
 4047TIP3   OH233699   2.594   2.361   7.584  0.3632  0.0129 -0.1438
 4047TIP3    H133700   2.633   2.283   7.625  1.6285  0.9549  0.5194
 4047TIP3    H233701   2.507   2.333   7.557  0.8026 -1.6473  0.0483
 4048TIP3   OH233702   2.350   6.645   1.411  0.2465  0.1492  0.3515
 4048TIP3    H133703   2.336   6.739   1.404 -2.0562 -0.0939  0.6080
 4048TIP3    H233704   2.360   6.615   1.321 -1.8220  0.3636 -0.0110
 4049TIP3   OH233705   6.221   3.415   3.363  0.0011  0.3074 -0.1990
 4049TIP3    H133706   6.264   3.332   3.341 -4.9131 -2.5795 -0.3822
 4049TIP3    H233707   6.200   3.408   3.456 -0.6723  1.2794 -0.2625
 4050TIP3   OH233708   1.240   2.247   0.188 -0.1234 -0.5728 -0.3114
 4050TIP3    H133709   1.176   2.318   0.184  1.4439  0.8505 -2.7492
 4050TIP3    H233710   1.303   2.275   0.254 -1.0577 -1.1943  0.8927
 4051TIP3   OH233711   5.459   1.059   1.753 -0.1194 -0.2801  0.2808
 4051TIP3    H133712   5.374   1.043   1.712 -0.9692  1.1342  1.3716
 4051TIP3    H233713   5.475   0.982   1.807  0.7945 -1.9546 -2.2230
 4052TIP3   OH233714   3.902   0.592   1.583 -0.2560  0.4058  0.1713
 4052TIP3    H133715   3.903   0.499   1.562  0.8583  0.7028 -1.2216
 4052TIP3    H233716   3.812   0.609   1.610 -0.9858 -0.6820 -1.4347
 4053TIP3   OH233717   2.986   6.130   1.779  0.2503  0.3676 -0.4443
 4053TIP3    H133718   3.007   6.219   1.808  0.5263  0.3986 -0.7371
 4053TIP3    H233719   3.009   6.129   1.686  2.5588 -0.7230  0.0747
 4054TIP3   OH233720   6.843   0.841   1.655  0.2262 -0.4617  0.2954
 4054TIP3    H133721   6.821   0.913   1.595 -0.2115  0.0695  1.0738
 4054TIP3    H233722   6.939   0.838   1.653  0.2624  0.2652  0.3842
 4055TIP3   OH233723   2.107   0.900   0.150 -0.1772  0.4904 -0.9714
 4055TIP3    H133724   2.126   0.824   0.095 -1.9567 -1.5494  0.9955
 4055TIP3    H233725   2.065   0.962   0.091 -0.0205 -0.6719 -2.3781
 4056TIP3   OH233726   6.507   2.491   7.872  0.2985 -0.1793  0.4587
 4056TIP3    H133727   6.515   2.414   7.815  1.1750  1.6096 -2.0592
 4056TIP3    H233728   6.415   2.492   7.898  0.0730 -1.5974 -0.1725
 4057TIP3   OH233729   4.821   6.253   2.048  0.4257  0.4786 -0.2042
 4057TIP3    H133730   4.730   6.233   2.071 -0.0570  1.4182 -1.2327
 4057TIP3    H233731   4.849   6.317   2.114  0.3224  0.2472  0.0686
 4058TIP3   OH233732   6.401   6.047   2.816 -0.4890  0.4685 -0.1548
 4058TIP3    H133733   6.334   5.982   2.797 -0.2959  0.4820 -0.9480
 4058TIP3    H233734   6.378   6.122   2.761  1.2128 -0.2328 -1.9894
 4059TIP3   OH233735   5.368   3.918   2.054 -0.3534 -0.4979  0.7521
 4059TIP3    H133736   5.396   3.839   2.099 -0.4073 -0.4301  0.9059
 4059TIP3    H233737   5.287   3.894   2.009 -1.0202 -0.2197  1.7592
 4060TIP3   OH233738   1.542   4.700   0.042  0.3218 -0.4737 -0.6907
 4060TIP3    H133739   1.527   4.783   0.088 -0.3083  0.0125 -1.7266
 4060TIP3    H233740   1.637   4.690   0.040  0.3901  0.0265 -0.2083
 4061TIP3   OH233741   1.509   5.459   0.911 -0.2788  0.5199 -0.1175
 4061TIP3    H133742   1.494   5.365   0.926 -1.8507  0.4056 -2.0295
 4061TIP3    H233743   1.604   5.466   0.898 -0.2056 -0.9211 -0.5390
 4062TIP3   OH233744   5.370   5.666   8.663  0.2412  0.2363  0.3556
 4062TIP3    H133745   5.385   5.587   8.611  2.8851  0.1326  1.1269
 4062TIP3    H233746   5.362   5.736   8.599 -0.2743 -0.3847 -0.2738
 4063TIP3   OH233747   6.279   6.674   3.910  0.2138  0.1918  0.5411
 4063TIP3    H133748   6.278   6.768   3.931 -1.7906  0.3797 -0.2081
 4063TIP3    H233749   6.323   6.669   3.825 -0.3780  0.5483  0.2117
 4064TIP3   OH233750   1.308   0.417   1.244 -0.1007 -0.1016 -0.2614
 4064TIP3    H133751   1.284   0.365   1.168 -1.1727 -1.2097  0.7760
 4064TIP3    H233752   1.246   0.491   1.243 -0.4710 -0.4069 -0.1804
 4065TIP3   OH233753   6.468   0.415   8.725 -0.0808  0.1666  0.0748
 4065TIP3    H133754   6.401   0.483   8.724  1.6659  2.0801  2.4410
 4065TIP3    H233755   6.431   0.347   8.781 -0.2475  1.0119  1.0164
 4066TIP3   OH233756   2.328   1.340   0.229 -0.2090 -0.0212  0.5201
 4066TIP3    H133757   2.417   1.363   0.200 -0.9785  1.9038 -0.5404
 4066TIP3    H233758   2.300   1.274   0.167 -0.5055  1.4498 -0.9981
 4067TIP3   OH233759   1.025   3.048   7.828  0.0918  0.1861  0.2630
 4067TIP3    H133760   1.070   2.964   7.816 -0.7977  0.0440 -3.0677
 4067TIP3    H233761   1.095   3.114   7.821  0.7242 -0.1416  2.4541
 4068TIP3   OH233762   6.447   6.326   0.943 -0.5229 -0.1842  0.0424
 4068TIP3    H133763   6.428   6.233   0.947  1.3160 -0.6975 -1.7687
 4068TIP3    H233764   6.377   6.367   0.994 -1.6276 -2.4948  0.4886
 4069TIP3   OH233765   3.956   0.941   3.497  0.1380 -0.1165  0.0403
 4069TIP3    H133766   4.014   0.903   3.431  0.7389 -0.0515  0.5127
 4069TIP3    H233767   3.967   1.036   3.486 -0.6900 -0.0853 -0.5611
 4070TIP3   OH233768   0.737   4.933   2.624 -0.6089 -0.4022 -0.0729
 4070TIP3    H133769   0.790   4.970   2.695  0.5979 -2.1852  0.0312
 4070TIP3    H233770   0.694   5.009   2.584  1.1038  1.0103  0.5989
 4071TIP3   OH233771   4.345   0.948   0.734 -0.1993 -0.0599 -0.4185
 4071TIP3    H133772   4.257   0.962   0.768  0.7129 -0.1966  2.2240
 4071TIP3    H233773   4.367   0.858   0.760  0.4636 -0.3037 -1.7215
 4072TIP3   OH233774   0.773   6.276   0.557 -0.2941 -0.2351  0.5799
 4072TIP3    H133775   0.818   6.356   0.532 -0.2617 -0.7531 -1.1680
 4072TIP3    H233776   0.687   6.283   0.515  0.4481 -1.9985 -1.4275
 4073TIP3   OH233777   1.320   2.647   1.356  0.1143 -0.3216 -0.3300
 4073TIP3    H133778   1.406   2.689   1.343  1.2451 -1.7286  1.9070
 4073TIP3    H233779   1.289   2.682   1.439 -1.2964 -0.2212 -0.8686
 4074TIP3   OH233780   1.052   6.180   1.499  0.0818 -0.1392  0.4118
 4074TIP3    H133781   1.082   6.190   1.589 -0.8270  2.6268  0.5049
 4074TIP3    H233782   1.004   6.261   1.480  1.0534 -0.1723 -2.8688
 4075TIP3   OH233783   6.754   3.547   3.598 -0.3130 -0.2339 -0.1929
 4075TIP3    H133784   6.823   3.502   3.648  0.7300 -0.1227 -1.4889
 4075TIP3    H233785   6.683   3.484   3.593  0.5494 -1.1892 -0.7065
 4076TIP3   OH233786   5.349   3.914   1.256 -0.2817  0.6100  0.0033
 4076TIP3    H133787   5.411   3.841   1.265  0.8160  1.2744 -1.5797
 4076TIP3    H233788   5.342   3.950   1.344  1.1034  0.0971  0.3554
 4077TIP3   OH233789   2.911   5.977   2.005  0.6476 -0.1311  0.1544
 4077TIP3    H133790   2.927   6.033   1.928  3.1670 -1.8366 -0.6848
 4077TIP3    H233791   2.926   6.035   2.079  0.4088  0.9953 -0.6408
 4078TIP3   OH233792   6.238   6.313   8.477 -0.0959 -0.2143 -0.4826
 4078TIP3    H133793   6.273   6.319   8.388 -0.0391 -1.8705 -0.6065
 4078TIP3    H233794   6.202   6.224   8.483 -0.3855 -0.0260  1.0435
 4079TIP3   OH233795   4.816   3.343   7.845  1.0444  0.1064 -0.0154
 4079TIP3    H133796   4.793   3.372   7.757  1.0188 -0.1543 -0.0951
 4079TIP3    H233797   4.738   3.359   7.897  0.7604 -0.5490 -0.2314
 4080TIP3   OH233798   5.831   1.835   2.152 -0.2290 -0.0631  0.3008
 4080TIP3    H133799   5.897   1.822   2.219 -1.5961  0.1403  1.7392
 4080TIP3    H233800   5.833   1.930   2.135 -0.4728  0.0136  0.6917
 4081TIP3   OH233801   3.610   5.903   0.824  0.5864 -0.0422 -0.1984
 4081TIP3    H133802   3.528   5.854   0.813  0.2123  0.3511  0.7940
 4081TIP3    H233803   3.582   5.992   0.845  1.2643  0.5368 -1.6143
 4082TIP3   OH233804   6.067   6.645   3.215  0.0096 -0.2631  0.5938
 4082TIP3    H133805   6.050   6.715   3.277  2.4031  1.6438 -0.7135
 4082TIP3    H233806   6.030   6.676   3.133 -0.4416 -1.3627  0.3672
 4083TIP3   OH233807   6.062   3.626   0.074  0.1280  0.9687  0.2780
 4083TIP3    H133808   6.076   3.644   0.166 -0.0414 -1.0012  0.7387
 4083TIP3    H233809   6.135   3.669   0.029  1.5263  0.0379  1.5672
 4084TIP3   OH233810   0.746   3.636   2.829 -0.1299 -0.0904  0.6877
 4084TIP3    H133811   0.842   3.642   2.832 -0.1499  0.0209  1.4712
 4084TIP3    H233812   0.724   3.644   2.736  0.6461 -0.5575  0.4534
 4085TIP3   OH233813   6.130   1.786   0.095 -0.4341 -0.0599 -0.2893
 4085TIP3    H133814   6.129   1.780  -0.000 -0.7399  0.7574 -0.3519
 4085TIP3    H233815   6.038   1.796   0.120 -0.2294  1.9862 -0.1090
 4086TIP3   OH233816   1.959   0.509   2.185  0.6403  0.1909 -0.2766
 4086TIP3    H133817   2.016   0.434   2.166  1.8397  0.6089  1.4709
 4086TIP3    H233818   2.007   0.585   2.152  0.2141  0.3703 -0.4932
 4087TIP3   OH233819   4.759   3.611   3.361  0.0892 -0.3828  0.2070
 4087TIP3    H133820   4.680   3.580   3.406  0.0210 -0.0153  0.3451
 4087TIP3    H233821   4.824   3.542   3.376 -0.7516 -1.6288 -1.5566
 4088TIP3   OH233822   4.407   3.281   3.196 -0.5873 -0.0150  0.0630
 4088TIP3    H133823   4.438   3.210   3.252  1.9187  0.2594 -0.8378
 4088TIP3    H233824   4.364   3.237   3.122 -3.6159 -0.3846  1.8842
 4089TIP3   OH233825   5.957   1.828   3.062  0.1061  0.0525 -0.1909
 4089TIP3    H133826   5.964   1.738   3.094 -0.1976 -0.8098 -2.3591
 4089TIP3    H233827   5.989   1.882   3.134 -0.8797 -1.6929  1.6502
 4090TIP3   OH233828   3.264   4.841   0.540 -0.3380  0.4566  0.4259
 4090TIP3    H133829   3.175   4.864   0.514  0.0719  0.6587 -0.8526
 4090TIP3    H233830   3.257   4.821   0.633 -2.3371 -2.6708 -0.2650
 4091TIP3   OH233831   2.773   5.284   0.382 -1.1410  0.5905  0.7658
 4091TIP3    H133832   2.753   5.199   0.343 -0.4698 -0.0360  1.7532
 4091TIP3    H233833   2.729   5.347   0.325  0.5352 -0.1892 -1.5401
 4092TIP3   OH233834   0.348   6.157   1.750 -0.0114  0.3415  0.1610
 4092TIP3    H133835   0.406   6.233   1.755  0.9885 -0.4479  1.2244
 4092TIP3    H233836   0.327   6.149   1.657  1.4487  0.7756 -0.2360
 4093TIP3   OH233837   0.374   3.164   1.088  0.3084  0.0592  0.6813
 4093TIP3    H133838   0.403   3.229   1.153  2.0471  0.7953 -0.7549
 4093TIP3    H233839   0.285   3.191   1.065  0.3031  0.7831  1.4942
 4094TIP3   OH233840   0.702   6.282   2.079  0.3936  0.2122 -0.1109
 4094TIP3    H133841   0.703   6.370   2.116 -1.8540  0.2690 -0.0844
 4094TIP3    H233842   0.611   6.267   2.054  1.0266 -1.4946 -1.6305
 4095TIP3   OH233843   4.630   2.363   2.323  0.4430  0.4318  0.0773
 4095TIP3    H133844   4.551   2.311   2.334  0.7260  0.0232  0.1885
 4095TIP3    H233845   4.646   2.401   2.409 -1.2728  2.9096 -0.5907
 4096TIP3   OH233846   0.809   2.677   2.348 -0.4344 -0.7900  0.7725
 4096TIP3    H133847   0.856   2.594   2.348 -0.4852 -0.8219  0.3979
 4096TIP3    H233848   0.829   2.716   2.263 -1.7450 -1.1790  0.2555
 4097TIP3   OH233849   3.667   1.086   1.640  0.2412  0.0092 -0.4356
 4097TIP3    H133850   3.706   1.019   1.584 -0.5337 -0.5580 -0.3188
 4097TIP3    H233851   3.692   1.169   1.600 -0.0297 -0.3813 -1.4528
 4098TIP3   OH233852   3.577   1.134   0.173  0.2118 -0.5218  0.6107
 4098TIP3    H133853   3.499   1.087   0.142  1.1511 -2.2604  0.7946
 4098TIP3    H233854   3.642   1.066   0.188  1.1986  0.7077  2.2351
 4099TIP3   OH233855   2.110   6.056   3.047  0.2565 -0.0791 -0.0740
 4099TIP3    H133856   2.087   6.149   3.049  0.4015  0.0917 -2.9263
 4099TIP3    H233857   2.205   6.054   3.044  0.2762 -0.3685  0.4931
 4100TIP3   OH233858   5.243   2.373   1.070 -0.1317  0.1845  0.0596
 4100TIP3    H133859   5.179   2.442   1.051 -0.4449 -0.3205 -0.8131
 4100TIP3    H233860   5.195   2.291   1.055  0.2006 -0.2315  1.1901
 4101TIP3   OH233861   4.249   3.466   7.693  0.4351 -0.5126 -0.2197
 4101TIP3    H133862   4.199   3.512   7.761  0.7619 -1.6607  0.8297
 4101TIP3    H233863   4.188   3.457   7.620  0.4039  1.6946 -0.5300
 4102TIP3   OH233864   4.602   5.847   2.105 -0.1892 -0.1492 -0.6727
 4102TIP3    H133865   4.556   5.764   2.121  0.5396 -0.3305  0.6368
 4102TIP3    H233866   4.651   5.832   2.025 -1.4647 -0.3450 -1.4586
 4103TIP3   OH233867   4.140   5.670   2.340  0.4049 -0.4626  0.1524
 4103TIP3    H133868   4.124   5.713   2.425  0.5962  0.6153 -0.3468
 4103TIP3    H233869   4.183   5.736   2.287  2.1318 -1.7736 -0.1562
 4104TIP3   OH233870   4.773   3.747   8.543  0.1540 -0.0767 -0.3788
 4104TIP3    H133871   4.713   3.682   8.508  0.8031 -0.0273 -1.6112
 4104TIP3    H233872   4.859   3.718   8.516  0.5872  0.5328  0.3028
 4105TIP3   OH233873   2.290   2.511   2.003  0.4804 -0.5993  0.0289
 4105TIP3    H133874   2.375   2.551   2.021  0.7612 -1.3700  0.4155
 4105TIP3    H233875   2.310   2.431   1.956 -0.1484  0.2888 -1.8620
 4106TIP3   OH233876   4.763   2.007   2.988  0.0723 -0.1236 -0.2751
 4106TIP3    H133877   4.808   2.058   3.056 -1.0316 -0.1890  0.5474
 4106TIP3    H233878   4.814   1.926   2.981  0.9592  0.4445 -0.4855
 4107TIP3   OH233879   2.899   4.039   2.259 -0.4116 -0.6738 -0.1367
 4107TIP3    H133880   2.857   4.105   2.314  0.5556  0.3004 -0.5133
 4107TIP3    H233881   2.988   4.032   2.294  0.0887 -0.3315 -1.2924
 4108TIP3   OH233882   6.060   3.216   8.285 -0.4126  0.1786  0.7402
 4108TIP3    H133883   6.111   3.292   8.256  0.2501  0.2052  1.9222
 4108TIP3    H233884   6.027   3.177   8.204  1.2095  0.3628 -0.0534
 4109TIP3   OH233885   5.092   5.292   2.058  0.0989  0.5086  0.4611
 4109TIP3    H133886   5.151   5.265   2.129  0.6687  3.0489  1.0674
 4109TIP3    H233887   5.122   5.380   2.035  1.6905 -1.0855 -4.8415
 4110TIP3   OH233888   3.417   2.690   3.268  0.0759  0.2351 -0.0344
 4110TIP3    H133889   3.363   2.707   3.191  1.2313  0.6449 -0.7964
 4110TIP3    H233890   3.377   2.741   3.338  0.4754  1.9848 -1.0148
 4111TIP3   OH233891   1.329   4.668   1.644  0.0557 -0.1839 -0.1253
 4111TIP3    H133892   1.414   4.655   1.686  0.2989 -2.5563 -1.1643
 4111TIP3    H233893   1.346   4.729   1.573  0.1494  1.9041  1.5886
 4112TIP3   OH233894   0.249   4.692   3.602  0.7777  0.0595  0.2268
 4112TIP3    H133895   0.180   4.707   3.667  0.3982 -2.1066  0.4039
 4112TIP3    H233896   0.296   4.615   3.634  1.7485  0.0443 -1.1415
 4113TIP3   OH233897   0.244   2.231   2.701 -0.8777 -0.7915 -0.4114
 4113TIP3    H133898   0.296   2.191   2.770 -2.1439 -3.6513 -0.9942
 4113TIP3    H233899   0.305   2.242   2.628  0.2921  1.6082  0.7835
 4114TIP3   OH233900   3.673   4.324   1.539 -0.0149  0.5072 -0.0560
 4114TIP3    H133901   3.758   4.285   1.556 -0.3948 -0.1370  0.4168
 4114TIP3    H233902   3.669   4.401   1.596  0.4314  0.8074 -0.4255
 4115TIP3   OH233903   2.446   2.813   3.285  0.0136 -0.0565 -0.5045
 4115TIP3    H133904   2.410   2.881   3.342  0.4871  0.5196 -0.8744
 4115TIP3    H233905   2.536   2.802   3.315  0.1639  0.0156 -0.9194
 4116TIP3   OH233906   1.668   6.232   8.604  0.1560 -0.1530  0.4713
 4116TIP3    H133907   1.648   6.164   8.540  1.6216  0.5584 -0.8025
 4116TIP3    H233908   1.685   6.310   8.552  0.1258  0.7926  1.8101
 4117TIP3   OH233909   4.971   2.046   0.399  0.1166  0.2769  0.2365
 4117TIP3    H133910   4.983   1.998   0.481  0.2562 -1.2232 -0.6288
 4117TIP3    H233911   5.016   1.994   0.334 -2.0087  0.1669 -1.2316
 4118TIP3   OH233912   5.909   2.338   2.444 -0.3041  0.2613  0.2972
 4118TIP3    H133913   5.819   2.367   2.455 -0.6553 -1.2198  1.6919
 4118TIP3    H233914   5.934   2.368   2.356 -1.9422  1.1855  0.1165
 4119TIP3   OH233915   3.583   6.173   2.275  0.1308 -0.5704  0.0401
 4119TIP3    H133916   3.555   6.234   2.342  0.6399 -0.0369 -0.2230
 4119TIP3    H233917   3.562   6.086   2.310 -0.0600 -0.2705  0.6665
 4120TIP3   OH233918   0.579   6.141   2.710 -0.3352  0.6044  0.1066
 4120TIP3    H133919   0.657   6.091   2.687 -0.4121  1.0590 -1.2739
 4120TIP3    H233920   0.610   6.231   2.720 -0.5458  0.6435  0.4354
 4121TIP3   OH233921   3.208   4.098   8.583 -0.1367 -0.5392 -0.2027
 4121TIP3    H133922   3.211   4.003   8.571  0.1643 -0.4636 -0.7929
 4121TIP3    H233923   3.239   4.112   8.672  1.5880 -0.9039 -0.6943
 4122TIP3   OH233924   2.876   3.585   8.176  0.3965  0.1467  0.0680
 4122TIP3    H133925   2.857   3.678   8.160 -2.2406  0.3666  3.3632
 4122TIP3    H233926   2.962   3.586   8.217  0.6037  1.0744 -0.3478
 4123TIP3   OH233927   0.002   3.825   1.163  0.3591  0.2442  0.4758
 4123TIP3    H133928  -0.088   3.815   1.194 -0.2411  0.9273 -0.9428
 4123TIP3    H233929   0.030   3.736   1.142 -0.0362  0.0470  0.7662
 4124TIP3   OH233930   0.542   5.539   2.013  0.7303  0.3237 -0.4812
 4124TIP3    H133931   0.589   5.621   2.026 -0.4918  0.9822 -0.0523
 4124TIP3    H233932   0.473   5.560   1.950 -0.1098 -0.1590  0.2543
 4125TIP3   OH233933   1.488   0.645   2.704  0.2953  0.1920 -0.2052
 4125TIP3    H133934   1.579   0.672   2.717  0.7685 -0.7960 -1.2684
 4125TIP3    H233935   1.445   0.722   2.667  0.6789  0.6857  0.3550
 4126TIP3   OH233936   1.747   1.242   1.894 -0.6898  0.2933 -0.5659
 4126TIP3    H133937   1.784   1.220   1.979 -0.6747 -0.3310 -0.7307
 4126TIP3    H233938   1.691   1.168   1.872  0.9702 -0.5965 -2.0794
 4127TIP3   OH233939   1.754   3.156   0.916  0.4281 -0.0830 -0.5107
 4127TIP3    H133940   1.697   3.084   0.890  1.3244 -0.9519 -0.1038
 4127TIP3    H233941   1.768   3.207   0.836  0.0637 -0.5483 -0.8689
 4128TIP3   OH233942   5.942   4.510   1.899 -0.2644 -0.5854 -0.7297
 4128TIP3    H133943   5.954   4.543   1.810  1.7971  1.2762  0.1597
 4128TIP3    H233944   5.931   4.588   1.953  0.9240 -1.5159  0.9658
 4129TIP3   OH233945   6.592   1.147   2.832  0.5383  0.6373  0.3126
 4129TIP3    H133946   6.600   1.229   2.783 -0.3189 -0.8206 -2.4793
 4129TIP3    H233947   6.498   1.138   2.848  0.7299  0.6775  1.5658
 4130TIP3   OH233948   3.225   4.390   1.304  0.0103  0.0034  0.2379
 4130TIP3    H133949   3.206   4.418   1.215  2.0853  1.5339  0.2178
 4130TIP3    H233950   3.266   4.304   1.294 -0.2653 -0.0789 -0.2199
 4131TIP3   OH233951   5.868   0.557   8.728  0.1219  0.3220 -0.0025
 4131TIP3    H133952   5.871   0.552   8.632 -2.0599  0.1279 -0.1118
 4131TIP3    H233953   5.775   0.549   8.749  0.5705  0.3158  2.1516
 4132TIP3   OH233954   3.045   4.032   1.820 -0.4702 -0.0783 -0.0357
 4132TIP3    H133955   3.089   4.093   1.761  1.8845 -2.3413 -0.7999
 4132TIP3    H233956   3.038   3.950   1.771 -2.2061 -0.9020  1.4365
 4133TIP3   OH233957   6.256   3.079   3.591 -0.4778  0.0405  0.3772
 4133TIP3    H133958   6.292   3.155   3.545 -1.7744 -0.4885 -1.6561
 4133TIP3    H233959   6.195   3.116   3.655  0.0713  0.7362  0.5150
 4134TIP3   OH233960   3.302   1.852   1.739 -0.3280  0.1190 -0.2372
 4134TIP3    H133961   3.312   1.908   1.816 -0.6894 -3.5785  2.7824
 4134TIP3    H233962   3.227   1.888   1.693 -1.0948  1.6020  1.9889
 4135TIP3   OH233963   0.811   3.377   1.318 -0.0126  0.0738  0.4388
 4135TIP3    H133964   0.793   3.365   1.224 -0.5181 -3.4720  0.8521
 4135TIP3    H233965   0.762   3.306   1.361  3.0791 -0.7125  3.0280
 4136TIP3   OH233966   5.137   4.778   1.648 -0.2492  0.5134  0.2549
 4136TIP3    H133967   5.090   4.696   1.664 -1.3133  0.8546 -0.9532
 4136TIP3    H233968   5.146   4.781   1.553  0.8611  1.2215  0.3756
 4137TIP3   OH233969   3.989   5.116   2.234 -0.5939  0.5290 -0.9573
 4137TIP3    H133970   4.028   5.191   2.189 -2.5703  0.8796 -2.1872
 4137TIP3    H233971   3.968   5.149   2.321  1.3993  0.4302 -0.3774
 4138TIP3   OH233972   1.270   0.134   0.188  0.3737  0.0732  0.2214
 4138TIP3    H133973   1.308   0.199   0.248 -0.8729  0.4031  0.6913
 4138TIP3    H233974   1.183   0.116   0.225 -0.2041 -0.1296 -1.1936
 4139TIP3   OH233975   0.825   0.178   0.309 -0.6899  0.0246 -0.0478
 4139TIP3    H133976   0.809   0.195   0.216 -1.5231 -0.4514  0.0027
 4139TIP3    H233977   0.828   0.265   0.349 -1.9606  0.1805 -0.2661
 4140TIP3   OH233978   0.524   2.894   2.264  0.7662  0.6034  0.1555
 4140TIP3    H133979   0.607   2.866   2.225  1.6740  1.0583  1.6705
 4140TIP3    H233980   0.521   2.849   2.349 -0.1541  1.1873  0.4484
 4141TIP3   OH233981   4.391   1.510   2.341 -0.3000 -0.7561 -0.2408
 4141TIP3    H133982   4.357   1.599   2.354  0.9214 -0.5253  1.9093
 4141TIP3    H233983   4.336   1.473   2.273 -0.7169  1.7162 -1.3595
 4142TIP3   OH233984   0.003   5.188   0.598  0.2452 -0.3098 -0.0265
 4142TIP3    H133985  -0.057   5.114   0.599  1.3478 -1.2782 -1.4434
 4142TIP3    H233986  -0.021   5.238   0.519  2.6679 -2.0084 -2.0183
 4143TIP3   OH233987   4.360   2.220   2.393  0.3794 -0.2441 -0.0703
 4143TIP3    H133988   4.282   2.275   2.398  1.1398  0.8460  0.2060
 4143TIP3    H233989   4.327   2.132   2.373 -0.7777  0.5325 -1.7756
 4144TIP3   OH233990   2.486   2.665   7.847 -0.0476  0.0815 -0.9640
 4144TIP3    H133991   2.529   2.749   7.858 -1.6601  0.8200  0.1382
 4144TIP3    H233992   2.435   2.673   7.767 -3.0798  1.5926  0.9238
 4145TIP3   OH233993   2.875   1.825   1.280  0.5240 -0.0485 -0.3750
 4145TIP3    H133994   2.902   1.875   1.357 -0.2036 -1.4726  0.8671
 4145TIP3    H233995   2.802   1.875   1.243  0.7910  0.5868 -0.0559
 4146TIP3   OH233996   5.218   3.958   2.328  0.0688 -0.4475  0.0153
 4146TIP3    H133997   5.153   4.013   2.372 -0.3675 -0.5036 -0.5554
 4146TIP3    H233998   5.170   3.879   2.302  0.1543 -0.1326 -1.1490
 4147TIP3   OH233999   1.707   3.956   2.856  0.1834  0.4261  0.7428
 4147TIP3    H134000   1.695   3.986   2.946 -0.5697  0.9387  0.4746
 4147TIP3    H234001   1.677   4.029   2.802  0.6530  0.1327  0.0697
 4148TIP3   OH234002   0.352   4.451   0.702 -0.3085 -0.5015 -0.3605
 4148TIP3    H134003   0.412   4.521   0.676  0.7974 -1.3272 -0.1077
 4148TIP3    H234004   0.321   4.477   0.788  2.2703 -1.6014  1.0216
 4149TIP3   OH234005   0.333   5.779   1.834  0.1515 -0.0634 -0.0859
 4149TIP3    H134006   0.318   5.853   1.776 -0.0721  0.3370  0.4680
 4149TIP3    H234007   0.387   5.718   1.784 -2.2242 -0.9724 -1.7105
 4150TIP3   OH234008   6.716   4.895   2.513 -0.0832  0.4588  0.1926
 4150TIP3    H134009   6.800   4.850   2.527  0.0179 -0.0522 -1.7309
 4150TIP3    H234010   6.727   4.980   2.555  1.3979  0.3842  0.0232
 4151TIP3   OH234011   4.256   5.889   1.855 -1.1052  0.2215 -0.0183
 4151TIP3    H134012   4.309   5.969   1.858 -0.5612 -0.1044 -0.7756
 4151TIP3    H234013   4.209   5.889   1.939  2.1430 -0.8936  1.9785
 4152TIP3   OH234014   4.453   3.426   2.494  0.0152 -0.2935  0.2553
 4152TIP3    H134015   4.478   3.376   2.573  2.9533 -1.5608 -1.2944
 4152TIP3    H234016   4.431   3.513   2.527  1.6465 -0.6218  2.4811
 4153TIP3   OH234017   3.960   6.469   2.936  0.2126 -0.5018  1.2513
 4153TIP3    H134018   3.994   6.513   3.014  1.1266  0.0655  0.5595
 4153TIP3    H234019   4.027   6.404   2.914 -0.1878 -0.8757  1.1210
 4154TIP3   OH234020   0.012   5.421   8.143 -0.0927 -0.2264 -0.2486
 4154TIP3    H134021   0.050   5.503   8.113  0.5244  0.0979  1.3300
 4154TIP3    H234022  -0.037   5.388   8.067  0.2375  1.2211 -1.1274
 4155TIP3   OH234023   5.825   5.354   2.296 -0.0158  0.5127 -0.3980
 4155TIP3    H134024   5.779   5.434   2.269 -0.6891  0.3664  0.2648
 4155TIP3    H234025   5.755   5.291   2.314  0.5189 -0.8251 -2.5961
 4156TIP3   OH234026   6.710   1.434   0.632 -0.3421  0.5520 -0.2063
 4156TIP3    H134027   6.722   1.459   0.540 -0.2238  1.9108  0.1573
 4156TIP3    H234028   6.654   1.503   0.668  0.3445  0.5350  0.9512
 4157TIP3   OH234029   0.876   3.005   2.367 -0.6915 -0.1618  0.7268
 4157TIP3    H134030   0.970   3.021   2.371 -0.4808  0.1751 -2.5254
 4157TIP3    H234031   0.869   2.912   2.343 -1.1414 -0.0644  0.4699
 4158TIP3   OH234032   6.826   1.601   2.287 -0.1196  0.5799 -0.1026
 4158TIP3    H134033   6.869   1.674   2.243  1.7048 -0.1732  0.3679
 4158TIP3    H234034   6.862   1.601   2.375 -0.5620 -0.5170  0.0970
 4159TIP3   OH234035   2.650   5.132   0.921 -0.1599 -0.3690  0.2214
 4159TIP3    H134036   2.662   5.042   0.889 -1.5494  0.1065 -1.8045
 4159TIP3    H234037   2.555   5.146   0.920 -0.1937  0.2259  3.2653
 4160TIP3   OH234038   2.677   1.669   2.894 -0.2050 -0.3814  0.0298
 4160TIP3    H134039   2.751   1.621   2.856  0.0495  0.2954 -0.3522
 4160TIP3    H234040   2.600   1.630   2.852 -0.2478 -2.3665  1.7970
 4161TIP3   OH234041   5.517   5.118   2.068  0.1445  0.0475  0.3107
 4161TIP3    H134042   5.567   5.140   2.146  0.0684  0.2098  0.3144
 4161TIP3    H234043   5.578   5.069   2.013  1.6977  3.7034 -1.5607
 4162TIP3   OH234044   0.306   5.440   2.557  0.5958 -0.3996  0.0743
 4162TIP3    H134045   0.299   5.492   2.477  1.4885  1.4849  1.1531
 4162TIP3    H234046   0.375   5.377   2.539 -0.8050 -1.5872 -1.4146
 4163TIP3   OH234047   4.065   1.644   0.608 -0.0847 -0.2403 -0.0935
 4163TIP3    H134048   4.014   1.617   0.531 -0.0785  1.4320 -0.7224
 4163TIP3    H234049   4.059   1.570   0.668  1.2544 -2.3202 -2.3417
 4164TIP3   OH234050   1.431   3.832   8.330 -0.1879 -0.0670 -0.0596
 4164TIP3    H134051   1.392   3.833   8.417  0.1329  1.5073  0.0988
 4164TIP3    H234052   1.451   3.740   8.313  1.6585 -0.2261  2.4137
 4165TIP3   OH234053   5.019   0.336   1.318  0.2193  0.4142 -0.3540
 4165TIP3    H134054   4.960   0.305   1.387 -0.2343  0.3397 -0.7652
 4165TIP3    H234055   4.988   0.425   1.300 -0.6904 -0.1200 -1.5539
 4166TIP3   OH234056   6.036   0.360   8.148 -0.1715 -0.3676 -0.5090
 4166TIP3    H134057   6.106   0.331   8.207 -0.4552 -0.0072  0.0178
 4166TIP3    H234058   5.971   0.290   8.152  0.0007 -0.5431 -0.7326
 4167TIP3   OH234059   3.618   5.345   2.840  0.6934 -0.0157  0.4069
 4167TIP3    H134060   3.612   5.407   2.768 -0.8074 -1.9937 -1.2764
 4167TIP3    H234061   3.587   5.394   2.916  2.0783  2.0475 -0.2632
 4168TIP3   OH234062   1.328   6.071   2.270 -0.2049 -0.3241 -1.1315
 4168TIP3    H134063   1.255   6.127   2.294 -0.5147 -1.2525  0.1937
 4168TIP3    H234064   1.363   6.110   2.190 -0.5595  1.5844 -0.4009
 4169TIP3   OH234065   6.439   3.695   3.904  0.4464 -0.1416 -0.6404
 4169TIP3    H134066   6.356   3.648   3.914  0.8743 -0.6634  0.5778
 4169TIP3    H234067   6.487   3.677   3.984  1.8663 -0.0735 -1.4452
 4170TIP3   OH234068   4.533   3.294   2.747  0.3353 -0.1022 -0.3820
 4170TIP3    H134069   4.560   3.371   2.796  1.2323 -0.3956 -0.3980
 4170TIP3    H234070   4.586   3.223   2.782  2.4201 -0.0062 -2.9626
 4171TIP3   OH234071   1.161   3.770   2.710  0.6808 -0.1132  0.2905
 4171TIP3    H134072   1.091   3.715   2.745  1.6816 -0.7308  1.3835
 4171TIP3    H234073   1.241   3.736   2.750  1.6291  0.5293 -0.9838
 4172TIP3   OH234074   5.629   6.677   2.159  0.7115  0.2260  0.0222
 4172TIP3    H134075   5.720   6.701   2.177  0.6357  0.3897  0.1968
 4172TIP3    H234076   5.584   6.690   2.243  0.4864  0.3453 -0.1150
 4173TIP3   OH234077   0.724   6.804   0.028  0.3361  0.4536  0.2883
 4173TIP3    H134078   0.735   6.898   0.014  1.2633  0.4793  1.0764
 4173TIP3    H234079   0.704   6.769  -0.059 -0.7659  1.4618  0.1059
 4174TIP3   OH234080   4.953   6.696   2.628 -0.1723 -0.3756 -0.5245
 4174TIP3    H134081   5.044   6.722   2.615 -0.2601 -0.2462 -0.8962
 4174TIP3    H234082   4.903   6.778   2.622 -0.0458  0.0628  2.7706
 4175TIP3   OH234083   0.174   3.948   2.730  0.0391 -0.1002  0.2478
 4175TIP3    H134084   0.183   4.035   2.769 -0.8398 -0.3126  0.9565
 4175TIP3    H234085   0.142   3.964   2.641  0.6432  0.3266  0.1005
 4176TIP3   OH234086   3.185   4.210   2.585 -0.0845 -0.3049 -0.0938
 4176TIP3    H134087   3.165   4.199   2.678 -0.0248  1.1549  0.1160
 4176TIP3    H234088   3.280   4.210   2.581 -0.0878 -0.5009 -0.1748
 4177TIP3   OH234089   1.776   2.757   1.842 -0.0088  0.0749  0.4565
 4177TIP3    H134090   1.716   2.743   1.915 -1.6574  2.2204 -0.3740
 4177TIP3    H234091   1.826   2.676   1.836 -0.5047 -0.5529  3.2984
 4178TIP3   OH234092   5.140   1.218   8.555 -0.3305 -0.0631 -0.4126
 4178TIP3    H134093   5.221   1.238   8.508 -0.5129 -0.1847 -0.7796
 4178TIP3    H234094   5.169   1.186   8.640  0.0709 -2.0222 -1.2522
 4179TIP3   OH234095   0.119   4.730   3.273 -0.1943 -0.1224 -0.7113
 4179TIP3    H134096   0.101   4.683   3.354 -2.0050  0.2888 -0.8272
 4179TIP3    H234097   0.098   4.668   3.204  0.0215 -0.0237 -0.8664
 4180TIP3   OH234098   0.988   6.274   2.778 -0.3791  0.0422  0.1456
 4180TIP3    H134099   0.998   6.182   2.805  2.3226 -0.5352 -2.4037
 4180TIP3    H234100   0.981   6.271   2.683  3.3312  2.5967 -0.3912
 4181TIP3   OH234101   0.467   3.022   3.064  0.0633  0.1074  0.1046
 4181TIP3    H134102   0.455   2.956   3.132  1.4323 -1.1723 -0.8317
 4181TIP3    H234103   0.558   3.049   3.072  1.4643 -2.6934 -3.2939
 4182TIP3   OH234104   3.219   3.215   0.962 -0.2352 -0.4828 -0.8894
 4182TIP3    H134105   3.128   3.217   0.992  0.3344 -0.6640  1.0021
 4182TIP3    H234106   3.231   3.125   0.929 -1.2902  0.1534 -3.1806
 4183TIP3   OH234107   5.601   0.213   0.269 -0.0663 -0.2667 -0.3522
 4183TIP3    H134108   5.543   0.137   0.272 -2.1272  1.2607  0.6053
 4183TIP3    H234109   5.556   0.279   0.321  2.6112  0.9886  0.5245
 4184TIP3   OH234110   0.011   4.385   2.693 -0.1856  0.4517  0.1219
 4184TIP3    H134111  -0.035   4.456   2.647  1.1804  0.5786 -1.1061
 4184TIP3    H234112   0.056   4.337   2.624 -2.5483 -2.8487  0.6677
 4185TIP3   OH234113   4.264   2.458   0.991 -0.6172  0.4701 -0.3873
 4185TIP3    H134114   4.242   2.366   0.980  0.7755  0.2079 -1.1889
 4185TIP3    H234115   4.227   2.481   1.077  0.0930 -1.1693  0.3949
 4186TIP3   OH234116   4.769   2.359   1.825 -0.0953  0.1524  0.1111
 4186TIP3    H134117   4.782   2.267   1.803 -1.1886 -0.2995  1.1951
 4186TIP3    H234118   4.767   2.360   1.921  0.9955  1.4830  0.1518
 4187TIP3   OH234119   3.355   2.008   1.964 -0.4154 -0.7947 -0.0119
 4187TIP3    H134120   3.314   1.951   2.029  0.2078 -1.2857 -0.0316
 4187TIP3    H234121   3.449   1.997   1.980 -0.2494 -1.0300 -1.0739
 4188TIP3   OH234122   0.142   3.091   1.429 -0.1573 -0.2678  0.2130
 4188TIP3    H134123   0.071   3.044   1.472 -0.6237  0.5206  0.3116
 4188TIP3    H234124   0.103   3.173   1.400  0.9595  0.6449  1.2021
 4189TIP3   OH234125   4.794   3.997   1.438  0.4282  0.6734 -0.2907
 4189TIP3    H134126   4.709   3.959   1.419  0.4871  0.4016 -0.0185
 4189TIP3    H234127   4.835   4.010   1.352  0.8722 -0.9447 -0.3533
 4190TIP3   OH234128   0.263   4.858   0.862 -0.0211  0.1775  0.4222
 4190TIP3    H134129   0.264   4.886   0.770  1.5858  0.5483  0.5207
 4190TIP3    H234130   0.342   4.804   0.871 -1.1316 -1.3968  1.1548
 4191TIP3   OH234131   0.992   0.745   1.123  0.2011  0.4891 -0.2855
 4191TIP3    H134132   0.958   0.824   1.166 -2.3333 -0.6383 -0.0001
 4191TIP3    H234133   0.943   0.739   1.041  0.4825 -0.6638 -0.3878
 4192TIP3   OH234134   1.203   4.634   7.346  0.2938  0.3544  0.1965
 4192TIP3    H134135   1.146   4.613   7.420  1.7294  0.1000  1.2588
 4192TIP3    H234136   1.273   4.688   7.382  1.6742 -0.7375 -0.7023
 4193TIP3   OH234137   3.382   4.647   7.960  0.6446  0.5742  0.4512
 4193TIP3    H134138   3.384   4.743   7.954 -0.5413  0.5031 -1.9543
 4193TIP3    H234139   3.329   4.619   7.886  0.6538 -1.9618  1.3162
 4194TIP3   OH234140   4.560   2.746   3.137 -0.3824  0.1154 -0.6646
 4194TIP3    H134141   4.554   2.835   3.102  0.5323  0.0882 -0.9204
 4194TIP3    H234142   4.543   2.755   3.230 -2.5698  0.2320 -1.0119
 4195TIP3   OH234143   1.236   4.379   2.722 -0.3507  1.0127  0.0010
 4195TIP3    H134144   1.241   4.383   2.626  1.4358 -1.1800 -0.0737
 4195TIP3    H234145   1.243   4.286   2.743  0.2842  1.5118  2.3043
 4196TIP3   OH234146   5.045   5.128   8.002  0.1945 -0.2433 -0.1284
 4196TIP3    H134147   5.053   5.213   7.959 -0.7131 -0.3868 -0.6074
 4196TIP3    H234148   5.101   5.134   8.080 -1.1701  1.3960  0.7753
 4197TIP3   OH234149   2.688   2.027   2.452 -0.1585 -0.6338 -0.0440
 4197TIP3    H134150   2.636   1.962   2.500  0.4128 -1.3796 -0.4030
 4197TIP3    H234151   2.690   2.103   2.509 -0.9630 -0.8784  0.3296
 4198TIP3   OH234152   4.337   1.812   2.355  0.3078 -0.2960 -0.0083
 4198TIP3    H134153   4.267   1.871   2.382  0.5097 -0.3364  0.6146
 4198TIP3    H234154   4.308   1.778   2.270  0.6716  1.4679 -0.8702
 4199TIP3   OH234155   2.663   5.626   8.677  0.1110 -0.1155  0.5504
 4199TIP3    H134156   2.657   5.715   8.711 -2.1089 -0.0757  0.1828
 4199TIP3    H234157   2.681   5.636   8.583  1.0976 -0.1150  0.7258
 4200TIP3   OH234158   5.950   1.536   3.259  0.3660 -0.0582  0.3172
 4200TIP3    H134159   5.965   1.616   3.309 -1.9188  1.3531 -1.0866
 4200TIP3    H234160   5.892   1.484   3.315  1.6279 -0.6674  1.1087
 4201TIP3   OH234161   5.433   3.002   0.429  0.1789 -0.3126  0.7269
 4201TIP3    H134162   5.485   3.041   0.358 -0.4457  0.1843  0.5301
 4201TIP3    H234163   5.460   3.050   0.507  0.6469 -0.6521  0.7778
 4202TIP3   OH234164   0.219   1.839   1.232 -0.2331 -0.4875 -0.3963
 4202TIP3    H134165   0.152   1.832   1.164  0.0189  0.0591 -0.7070
 4202TIP3    H234166   0.301   1.850   1.185 -0.0226 -0.3586 -0.0099
 4203TIP3   OH234167   0.305   6.469   0.331  0.4797  0.2700  0.4919
 4203TIP3    H134168   0.393   6.456   0.295 -0.2153 -1.8826 -0.6244
 4203TIP3    H234169   0.255   6.506   0.259 -0.1068 -0.9070  0.2681
 4204TIP3   OH234170   3.763   5.149   3.168 -0.2609 -0.9063  0.5496
 4204TIP3    H134171   3.814   5.087   3.220  0.2597  0.9781  2.4319
 4204TIP3    H234172   3.769   5.231   3.216  0.2219  1.0198 -2.5169
 4205TIP3   OH234173   2.988   6.411   1.620 -0.8732  0.4238  0.3379
 4205TIP3    H134174   3.039   6.474   1.569  1.1034 -1.3849 -0.0809
 4205TIP3    H234175   2.898   6.428   1.595 -0.3723  2.7162 -0.1388
 4206TIP3   OH234176   5.291   5.012   1.401 -0.1185  0.4722  0.1138
 4206TIP3    H134177   5.235   4.935   1.411 -0.5817  0.6173 -1.2123
 4206TIP3    H234178   5.287   5.056   1.486 -1.5542  0.1654  0.2241
 4207TIP3   OH234179   6.639   6.264   2.856 -0.4860  0.1327 -0.2417
 4207TIP3    H134180   6.653   6.173   2.830 -0.1191 -0.1736  0.9414
 4207TIP3    H234181   6.545   6.271   2.870 -0.4275 -0.3062  0.4400
 4208TIP3   OH234182   3.728   0.737   1.925  0.2928  0.5128 -0.0405
 4208TIP3    H134183   3.674   0.816   1.937  2.4191  1.8759  1.3688
 4208TIP3    H234184   3.812   0.771   1.894  1.1549 -1.2510  0.2707
 4209TIP3   OH234185   0.952   4.938   1.754 -0.0467 -0.6106  0.3513
 4209TIP3    H134186   0.901   4.953   1.675  1.9026 -1.5002 -1.1487
 4209TIP3    H234187   1.014   5.011   1.758  0.3344 -0.9424  0.6468
 4210TIP3   OH234188   4.163   6.638   3.477 -0.5285 -0.0216  0.6766
 4210TIP3    H134189   4.139   6.555   3.437 -0.8605  0.5552 -0.3668
 4210TIP3    H234190   4.088   6.695   3.459 -0.7784  0.2130  2.3093
 4211TIP3   OH234191   6.600   0.509   2.876  0.0135 -0.0984 -0.3819
 4211TIP3    H134192   6.663   0.568   2.834  0.4013  1.5046  2.2390
 4211TIP3    H234193   6.652   0.434   2.905  0.7716  1.1524  1.6488
 4212TIP3   OH234194   6.574   5.316   2.294  0.1442 -0.1146  0.1050
 4212TIP3    H134195   6.492   5.365   2.291 -1.8154 -3.0518  0.6501
 4212TIP3    H234196   6.643   5.382   2.296 -2.0123  2.5487 -3.1322
 4213TIP3   OH234197   5.117   3.893   3.000  0.0680  0.0612 -0.1289
 4213TIP3    H134198   5.022   3.906   2.988  0.1808  0.5394 -0.5564
 4213TIP3    H234199   5.154   3.980   2.989  0.7536 -0.4098 -1.9779
 4214TIP3   OH234200   4.837   0.120   2.722  0.1465  0.0462 -0.4719
 4214TIP3    H134201   4.842   0.192   2.660 -0.4941 -0.1785 -0.7999
 4214TIP3    H234202   4.745   0.093   2.719  0.7716 -2.1549 -1.9204
 4215TIP3   OH234203   1.263   4.335   2.208  0.9722 -0.1095 -0.2756
 4215TIP3    H134204   1.241   4.383   2.128  1.5927 -0.9134 -0.9508
 4215TIP3    H234205   1.187   4.280   2.225  0.9821 -0.1952 -0.5114
 4216TIP3   OH234206   6.696   4.045   0.027 -0.0623 -0.7749  0.3352
 4216TIP3    H134207   6.692   3.964   0.079  1.8051 -0.9287  0.2837
 4216TIP3    H234208   6.754   4.024  -0.046 -1.3873 -0.0614 -0.9845
 4217TIP3   OH234209   4.454   1.378   8.536  0.3029  0.2865 -0.0995
 4217TIP3    H134210   4.524   1.435   8.506 -0.3277  0.3998 -1.4342
 4217TIP3    H234211   4.490   1.290   8.532  0.6754  0.4291  0.1429
 4218TIP3   OH234212   2.370   3.550   8.722 -0.0770  0.0580 -0.0186
 4218TIP3    H134213   2.336   3.574   8.808 -0.4008  0.4588 -0.2501
 4218TIP3    H234214   2.354   3.628   8.668  4.4309  1.8335  0.6919
 4219TIP3   OH234215   6.036   0.248   2.160 -0.0022  0.2371 -0.2369
 4219TIP3    H134216   6.061   0.328   2.206  2.1568 -0.0759 -0.7734
 4219TIP3    H234217   6.077   0.178   2.210 -0.7363 -0.4310 -0.5469
 4220TIP3   OH234218   3.961   3.257   0.261 -0.5918 -0.0284  0.4183
 4220TIP3    H134219   3.915   3.197   0.320 -0.3111 -0.8996 -0.2204
 4220TIP3    H234220   4.054   3.240   0.278 -0.4973 -0.9540 -0.9002
 4221TIP3   OH234221   3.555   4.633   1.882 -0.0224 -0.4413 -0.1833
 4221TIP3    H134222   3.460   4.621   1.891 -0.1894  0.5868 -0.4921
 4221TIP3    H234223   3.591   4.601   1.965 -0.4707 -2.4402 -0.7012
 4222TIP3   OH234224   1.683   5.486   1.725 -0.0275  0.2229 -0.1258
 4222TIP3    H134225   1.593   5.503   1.698  0.2106  0.1531 -1.0187
 4222TIP3    H234226   1.689   5.519   1.814 -0.7703  0.7863 -0.2782
 4223TIP3   OH234227   3.747   0.337   2.173  0.1960 -0.1979  0.0664
 4223TIP3    H134228   3.657   0.358   2.197 -0.5708 -2.1180 -0.8415
 4223TIP3    H234229   3.755   0.367   2.082 -0.5537 -2.5006 -0.8579
 4224TIP3   OH234230   1.804   5.761   2.240  0.2162  0.6009  0.0523
 4224TIP3    H134231   1.764   5.774   2.326  0.7600 -0.4924  0.4935
 4224TIP3    H234232   1.867   5.833   2.231  2.2885 -0.8661  1.8886
 4225TIP3   OH234233   6.113   0.583   0.129 -0.7833  0.1261 -0.1303
 4225TIP3    H134234   6.029   0.558   0.092 -3.0983  1.4173  3.6324
 4225TIP3    H234235   6.138   0.509   0.184  0.8515 -0.4056 -1.4969
 4226TIP3   OH234236   1.777   6.315   1.045 -0.1208 -0.5516 -0.8650
 4226TIP3    H134237   1.722   6.391   1.025 -0.4420 -0.5861 -0.1667
 4226TIP3    H234238   1.744   6.246   0.989  0.9985  0.1385 -2.4443
 4227TIP3   OH234239   6.479   3.959   0.635  0.2083 -0.8324  0.1054
 4227TIP3    H134240   6.519   3.875   0.612 -0.3691 -1.5145  1.5179
 4227TIP3    H234241   6.385   3.944   0.621  0.2133  0.0597 -1.0382
 4228TIP3   OH234242   6.081   2.721   8.658  0.0987 -0.1575  0.0053
 4228TIP3    H134243   6.024   2.794   8.681  1.0716  0.5466  0.2913
 4228TIP3    H234244   6.115   2.744   8.571  1.6783  0.5840  0.7749
 4229TIP3   OH234245   4.569   4.983   1.406 -0.6162  0.1060  0.4489
 4229TIP3    H134246   4.632   4.912   1.419 -1.4798 -0.5676  1.0735
 4229TIP3    H234247   4.484   4.940   1.407 -1.1103  1.0400 -0.1062
 4230TIP3   OH234248   2.408   2.118   8.267  0.4045  0.0977  0.2851
 4230TIP3    H134249   2.499   2.124   8.238  0.2208  0.0315 -0.3248
 4230TIP3    H234250   2.379   2.032   8.236 -0.0966  0.4395 -0.2239
 4231TIP3   OH234251   0.385   2.579   0.839 -0.5365 -0.2471  0.5572
 4231TIP3    H134252   0.437   2.499   0.842 -0.8103 -0.4062  1.1452
 4231TIP3    H234253   0.304   2.553   0.795  0.8742  0.5975 -2.8805
 4232TIP3   OH234254   2.152   5.973   2.003 -0.0046 -0.1144 -0.2310
 4232TIP3    H134255   2.108   5.890   1.983  1.3079 -0.6720 -0.9056
 4232TIP3    H234256   2.080   6.033   2.021 -0.9801 -1.5389  0.9033
 4233TIP3   OH234257   5.929   5.866   1.718  0.5175  0.2304  0.3881
 4233TIP3    H134258   5.947   5.796   1.781  1.3080  0.6389  0.6385
 4233TIP3    H234259   5.937   5.946   1.769  1.1584  0.5672 -0.2221
 4234TIP3   OH234260   2.984   4.356   8.226 -0.2452  0.0269 -0.1978
 4234TIP3    H134261   3.050   4.424   8.211 -0.4620  0.4872  0.7932
 4234TIP3    H234262   2.906   4.405   8.252 -0.3240 -0.6070  0.8096
 4235TIP3   OH234263   0.416   2.848   3.301 -0.3522  0.0360 -0.2039
 4235TIP3    H134264   0.477   2.774   3.298  0.1659  0.4478  0.0528
 4235TIP3    H234265   0.442   2.897   3.378  0.0305  1.0987 -0.9897
 4236TIP3   OH234266   1.509   2.782   8.375 -0.8032  0.0598 -0.0830
 4236TIP3    H134267   1.568   2.825   8.313 -0.2794 -0.4275  0.0644
 4236TIP3    H234268   1.460   2.719   8.321 -0.9780  0.2613 -0.1576
 4237TIP3   OH234269   5.012   4.451   2.750  0.0420 -0.0241  0.0806
 4237TIP3    H134270   4.996   4.522   2.811 -0.6841  0.3833 -0.5729
 4237TIP3    H234271   5.089   4.478   2.701 -0.2295  0.3201 -0.1638
 4238TIP3   OH234272   0.707   6.638   0.245 -0.0028 -0.9573 -0.1975
 4238TIP3    H134273   0.703   6.696   0.168 -0.2078 -1.6873 -0.7522
 4238TIP3    H234274   0.737   6.694   0.316 -2.3423  0.3928 -0.1784
 4239TIP3   OH234275   1.453   2.499   8.622  0.3530  0.5538 -0.2993
 4239TIP3    H134276   1.532   2.464   8.580  2.2732  4.1814 -0.0939
 4239TIP3    H234277   1.418   2.562   8.559 -0.3156  1.5548  1.0207
 4240TIP3   OH234278   2.714   4.266   3.434 -0.2280 -0.0448 -0.6399
 4240TIP3    H134279   2.730   4.304   3.347 -2.1152 -2.2856 -2.0859
 4240TIP3    H234280   2.799   4.229   3.459  0.2584  0.2900 -1.7043
 4241TIP3   OH234281   1.417   0.732   0.247 -0.4837  0.1630  0.1604
 4241TIP3    H134282   1.504   0.702   0.219 -0.2564 -1.5034  2.3349
 4241TIP3    H234283   1.361   0.718   0.172  1.1213  1.4375 -1.3687
 4242TIP3   OH234284   6.028   6.389   2.575 -0.0421  0.1999 -0.1070
 4242TIP3    H134285   6.041   6.430   2.661 -0.5437  0.8123 -0.3134
 4242TIP3    H234286   5.984   6.307   2.594 -0.8079  0.6665  0.1777
 4243TIP3   OH234287   4.375   1.437   0.228 -0.1473  0.2522  0.1676
 4243TIP3    H134288   4.297   1.492   0.222 -0.3461  0.2831  2.2234
 4243TIP3    H234289   4.430   1.480   0.293  0.7100 -0.7741  0.1489
 4244TIP3   OH234290   5.470   4.080   2.375  0.0331  0.2406 -0.5784
 4244TIP3    H134291   5.391   4.036   2.344 -0.3429 -0.5621  1.3381
 4244TIP3    H234292   5.448   4.109   2.464  1.9557 -0.2076  0.0955
 4245TIP3   OH234293   3.944   6.261   0.728  0.0169 -0.0593 -0.3857
 4245TIP3    H134294   3.946   6.236   0.820  1.2992 -0.1702 -0.4161
 4245TIP3    H234295   4.017   6.212   0.688  1.2996  2.1040 -0.8576
 4246TIP3   OH234296   0.092   2.789   3.795  1.0864 -0.2357 -0.1595
 4246TIP3    H134297   0.002   2.764   3.817  1.1104  0.7281  1.1504
 4246TIP3    H234298   0.136   2.706   3.776  0.3801 -0.9049  1.0058
 4247TIP3   OH234299   6.693   0.275   8.600 -0.0561 -0.2499  0.1391
 4247TIP3    H134300   6.605   0.295   8.632  0.2425  1.3322  0.0282
 4247TIP3    H234301   6.679   0.240   8.511 -0.6060 -0.7721  0.4249
 4248TIP3   OH234302   4.352   2.436   1.479  0.2202  0.0592 -0.5215
 4248TIP3    H134303   4.372   2.495   1.408 -2.4269 -0.4938 -1.8547
 4248TIP3    H234304   4.257   2.426   1.477  0.3492 -2.6493  0.9107
 4249TIP3   OH234305   0.209   6.823   2.703  0.1922  0.0027 -0.0519
 4249TIP3    H134306   0.133   6.801   2.757  0.5797 -1.3996 -0.0403
 4249TIP3    H234307   0.266   6.874   2.761 -0.9267  1.5079 -0.2120
 4250TIP3   OH234308   6.450   2.843   2.903 -0.3983  0.3295  0.2997
 4250TIP3    H134309   6.423   2.813   2.989  2.2256  1.1413  1.4819
 4250TIP3    H234310   6.456   2.764   2.850 -0.4943 -0.3573  1.2959
 4251TIP3   OH234311   4.037   4.239   2.930  0.2383 -0.2242  0.4482
 4251TIP3    H134312   4.075   4.286   2.856  0.1426  0.7253  0.9904
 4251TIP3    H234313   3.967   4.186   2.892 -1.0180  1.6029  0.0659
 4252TIP3   OH234314   0.569   0.138   2.182  0.1418  0.1806  0.4447
 4252TIP3    H134315   0.607   0.173   2.262  0.3497  0.7424  0.1093
 4252TIP3    H234316   0.642   0.134   2.120  0.1796 -1.1162  0.5466
 4253TIP3   OH234317   0.188   0.788   2.673  0.1795 -0.6770  0.0272
 4253TIP3    H134318   0.201   0.844   2.597  0.7536 -0.0374  0.5807
 4253TIP3    H234319   0.186   0.699   2.637 -1.1280 -0.2958 -0.8988
 4254TIP3   OH234320   2.184   2.483   3.513 -0.1888  0.1883  0.5476
 4254TIP3    H134321   2.093   2.470   3.486 -0.4538  2.1891  0.3136
 4254TIP3    H234322   2.213   2.560   3.464  1.6246 -0.3495  0.6867
 4255TIP3   OH234323   3.275   4.587   1.905 -0.0674 -1.0006  0.3836
 4255TIP3    H134324   3.251   4.509   1.954 -1.2920 -0.8439  0.0661
 4255TIP3    H234325   3.265   4.562   1.813 -0.2515 -0.5413  0.2755
 4256TIP3   OH234326   2.834   5.046   2.442 -0.3916 -0.1098 -0.0937
 4256TIP3    H134327   2.739   5.044   2.457 -0.6099  0.5552 -1.2116
 4256TIP3    H234328   2.865   4.961   2.471 -1.3223 -0.3114  0.3624
 4257TIP3   OH234329   2.153   6.813   2.615 -0.1290 -0.1179  0.0667
 4257TIP3    H134330   2.089   6.750   2.581  0.1878 -0.5076  0.1774
 4257TIP3    H234331   2.142   6.808   2.710 -2.3520  2.3681  0.0356
 4258TIP3   OH234332   6.243   0.142   0.937 -0.5857 -0.8765 -0.2627
 4258TIP3    H134333   6.302   0.071   0.963 -0.9070 -1.5524 -1.3134
 4258TIP3    H234334   6.300   0.218   0.927 -0.2976 -0.8358  1.3078
 4259TIP3   OH234335   1.792   2.314   1.654 -0.0046  0.2429 -0.6661
 4259TIP3    H134336   1.795   2.223   1.623 -1.6394 -0.0767  0.0371
 4259TIP3    H234337   1.767   2.364   1.576  0.0407 -0.0085 -0.8469
 4260TIP3   OH234338   0.899   4.231   0.817 -0.4362  0.5304  0.5081
 4260TIP3    H134339   0.899   4.233   0.722 -1.8218 -2.1135  0.3644
 4260TIP3    H234340   0.991   4.241   0.841 -0.1073  1.5881 -1.0629
 4261TIP3   OH234341   6.531   4.954   1.920 -1.0834 -0.1825 -0.2111
 4261TIP3    H134342   6.486   4.976   2.002 -1.4349  0.8672 -0.6677
 4261TIP3    H234343   6.602   5.018   1.915 -1.1990 -0.1018 -0.8387
 4262TIP3   OH234344   5.909   1.399   2.726  0.0324  0.0701 -0.0559
 4262TIP3    H134345   5.983   1.443   2.685 -0.1580  0.6949  0.2637
 4262TIP3    H234346   5.919   1.416   2.819 -1.1163  1.1294 -0.0951
 4263TIP3   OH234347   4.777   1.824   3.821  0.1878  0.5602 -0.3705
 4263TIP3    H134348   4.775   1.745   3.876  1.1179  1.2810  0.7284
 4263TIP3    H234349   4.752   1.793   3.734  1.0336 -1.0470 -0.0739
 4264TIP3   OH234350   5.311   5.823   7.670 -1.0188 -0.1928  0.3141
 4264TIP3    H134351   5.321   5.728   7.660  1.2461 -0.1654  1.5925
 4264TIP3    H234352   5.289   5.835   7.762 -0.7021  0.5349  0.3041
 4265TIP3   OH234353   3.959   3.484   4.037  0.7470  0.8277  0.6241
 4265TIP3    H134354   3.869   3.458   4.021  0.3261  2.0539  0.8802
 4265TIP3    H234355   3.982   3.538   3.961  1.8753 -0.8551 -0.3120
 4266TIP3   OH234356   3.247   1.625   2.403  0.0185  0.3113 -0.5812
 4266TIP3    H134357   3.210   1.711   2.387 -2.7453 -0.9374 -1.5157
 4266TIP3    H234358   3.216   1.601   2.490 -0.5729 -0.3336 -0.9561
 4267TIP3   OH234359   4.022   3.901   2.764  0.1250 -0.7703 -0.0653
 4267TIP3    H134360   4.097   3.954   2.736 -0.1201 -0.7365 -0.6822
 4267TIP3    H234361   4.004   3.843   2.689  0.5614 -1.9315  0.7061
 4268TIP3   OH234362   6.018   2.889   3.271 -0.0805  0.1311 -0.2712
 4268TIP3    H134363   6.087   2.876   3.206  0.5438 -0.0832  0.4220
 4268TIP3    H234364   5.951   2.940   3.226 -0.2541 -1.1053 -1.4872
 4269TIP3   OH234365   1.610   1.654   8.610  0.3990  0.3683  0.2266
 4269TIP3    H134366   1.556   1.687   8.681 -1.2890  1.8038 -1.6134
 4269TIP3    H234367   1.644   1.732   8.566  1.9093 -0.4825 -0.2270
 4270TIP3   OH234368   2.562   1.079   8.388  0.5178 -0.6787 -0.4305
 4270TIP3    H134369   2.501   1.006   8.379  0.0712 -0.5210  1.0071
 4270TIP3    H234370   2.636   1.056   8.332  0.1497 -1.9844 -0.4122
 4271TIP3   OH234371   6.686   1.488   0.987  0.1212  0.2851 -0.2423
 4271TIP3    H134372   6.634   1.548   0.934  0.4918 -0.0786 -1.0502
 4271TIP3    H234373   6.717   1.541   1.061 -1.4136  0.4838  0.2796
 4272TIP3   OH234374   4.236   6.746   3.185 -0.3649  1.0324 -0.8743
 4272TIP3    H134375   4.330   6.732   3.182 -0.5549 -1.3234  1.0751
 4272TIP3    H234376   4.220   6.783   3.272 -1.4334 -1.1693 -0.0609
 4273TIP3   OH234377   3.072   0.537   0.755  0.6042  0.9557 -0.3239
 4273TIP3    H134378   3.117   0.478   0.816 -0.5947  0.1530 -0.1827
 4273TIP3    H234379   3.143   0.579   0.706  1.5043 -0.9152 -0.7338
 4274TIP3   OH234380   1.278   4.296   3.272 -0.2268 -0.5746  0.2109
 4274TIP3    H134381   1.265   4.252   3.188  0.2252  1.0847 -0.7568
 4274TIP3    H234382   1.294   4.387   3.250  0.4868 -0.2022  2.0729
 4275TIP3   OH234383   5.205   2.100   3.320 -0.1040  0.4074 -0.4943
 4275TIP3    H134384   5.186   2.191   3.299  1.2429  0.5995 -1.0072
 4275TIP3    H234385   5.129   2.052   3.289 -0.3780  1.2513 -1.1780
 4276TIP3   OH234386   1.937   3.787   0.617  0.5387 -0.0759 -0.0865
 4276TIP3    H134387   1.959   3.714   0.559 -0.1277 -1.1713  0.9941
 4276TIP3    H234388   1.845   3.774   0.639  1.0069 -0.2750  1.9737
 4277TIP3   OH234389   1.462   2.974   3.227  0.2794  0.2545  0.4986
 4277TIP3    H134390   1.443   3.052   3.280 -0.9830 -0.8546  1.7755
 4277TIP3    H234391   1.403   2.907   3.262  1.4056 -1.3140 -0.4959
 4278TIP3   OH234392   4.878   1.493   0.118 -0.6040 -0.3916  0.6345
 4278TIP3    H134393   4.828   1.428   0.069 -2.6401  1.1568  0.5421
 4278TIP3    H234394   4.813   1.556   0.149  1.0097  0.4215  2.6243
 4279TIP3   OH234395   6.203   3.574   2.594  0.4917  0.3726 -0.0259
 4279TIP3    H134396   6.138   3.595   2.527  0.2149 -0.1185  0.0861
 4279TIP3    H234397   6.225   3.482   2.579 -0.9336 -0.3089  1.6592
 4280TIP3   OH234398   5.884   0.564   8.021  0.2974  0.0535 -0.4906
 4280TIP3    H134399   5.844   0.633   8.073 -1.0860 -1.6318  0.8082
 4280TIP3    H234400   5.952   0.528   8.077  1.5739  0.8160 -1.4739
 4281TIP3   OH234401   4.985   4.079   8.581  0.0415 -0.1109 -0.3181
 4281TIP3    H134402   5.021   4.029   8.507  0.4653 -1.2045  0.6040
 4281TIP3    H234403   4.920   4.137   8.540 -0.0620 -1.0095 -1.5048
 4282TIP3   OH234404   5.257   3.368   0.604  0.2828  0.1346 -0.2202
 4282TIP3    H134405   5.283   3.366   0.512 -0.3675 -0.1054 -0.4058
 4282TIP3    H234406   5.317   3.430   0.645  3.0149 -2.4397 -0.0452
 4283TIP3   OH234407   3.252   1.731   8.597 -0.3953 -0.2130  0.0239
 4283TIP3    H134408   3.216   1.665   8.656 -0.5661 -0.8939 -0.8402
 4283TIP3    H234409   3.322   1.772   8.648 -1.5572  0.2898  1.2757
 4284TIP3   OH234410   3.689   3.700   1.957  0.0037  0.0374 -0.8076
 4284TIP3    H134411   3.653   3.698   1.868 -0.6893  1.1148 -0.5758
 4284TIP3    H234412   3.772   3.747   1.948  0.0111  0.0060 -0.9037
 4285TIP3   OH234413   4.926   0.877   2.470 -0.0295 -0.8154  0.5492
 4285TIP3    H134414   4.840   0.834   2.469  0.6980 -2.3399 -1.4833
 4285TIP3    H234415   4.986   0.810   2.502  0.6902 -0.3782  0.1371
 4286TIP3   OH234416   2.750   6.490   1.507 -0.5297  0.6070  0.2559
 4286TIP3    H134417   2.670   6.438   1.505  0.7309 -1.4728  0.4238
 4286TIP3    H234418   2.741   6.546   1.584 -2.2637  1.2719 -0.3733
 4287TIP3   OH234419   2.410   4.498   2.122 -0.2886 -0.0354 -0.4789
 4287TIP3    H134420   2.477   4.456   2.175  1.2521  0.5741 -1.8865
 4287TIP3    H234421   2.330   4.449   2.142  0.2762 -0.0808  2.0744
 4288TIP3   OH234422   3.858   3.958   2.267  0.3215  0.3114  0.1998
 4288TIP3    H134423   3.864   4.053   2.269 -0.7193  0.4352 -1.1346
 4288TIP3    H234424   3.831   3.934   2.356  0.5336  1.2415  0.5339
 4289TIP3   OH234425   4.985   5.919   3.868 -0.1832  0.0108 -0.1636
 4289TIP3    H134426   5.012   5.942   3.957 -0.4220  0.8187 -0.2947
 4289TIP3    H234427   4.891   5.904   3.874 -0.4811  1.6120 -0.5752
 4290TIP3   OH234428   2.991   4.922   0.542  0.2451 -0.3325 -0.0818
 4290TIP3    H134429   2.964   4.975   0.618 -1.2032 -0.0822 -0.7260
 4290TIP3    H234430   2.969   4.977   0.466 -2.4240 -2.2228 -0.8282
 4291TIP3   OH234431   2.032   1.596   3.304  0.1558 -0.0773 -0.3888
 4291TIP3    H134432   2.063   1.580   3.215  0.9563 -0.9918  0.0334
 4291TIP3    H234433   2.094   1.548   3.360 -0.6906 -0.0349  0.6201
 4292TIP3   OH234434   4.292   4.929   8.533 -0.0297 -0.1604  0.4592
 4292TIP3    H134435   4.206   4.890   8.522  0.5672 -1.6673  0.8565
 4292TIP3    H234436   4.313   4.965   8.446 -0.5927 -0.7711  0.0639
 4293TIP3   OH234437   4.889   5.554   0.007  0.4931  0.1438  0.1612
 4293TIP3    H134438   4.815   5.508   0.046 -0.1061 -0.3040 -1.4189
 4293TIP3    H234439   4.864   5.647   0.012 -0.1019  0.0070 -0.2081
 4294TIP3   OH234440   6.262   4.176   2.180 -0.3273 -0.3673 -0.5557
 4294TIP3    H134441   6.186   4.184   2.238 -0.7781  0.3893 -1.2242
 4294TIP3    H234442   6.225   4.185   2.092  0.7086  1.5338 -0.8402
 4295TIP3   OH234443   2.194   4.320   2.140 -0.0022 -0.0540  0.2091
 4295TIP3    H134444   2.143   4.266   2.078  1.2159 -2.1573  0.9278
 4295TIP3    H234445   2.216   4.260   2.211 -0.2025  1.9558  2.0540
 4296TIP3   OH234446   1.709   2.041   2.195 -0.6632  0.3790 -0.4071
 4296TIP3    H134447   1.766   1.965   2.208 -2.1030 -0.6555  0.0907
 4296TIP3    H234448   1.769   2.115   2.194  0.5837 -0.5092  1.4540
 4297TIP3   OH234449   1.878   3.125   3.752 -0.2280 -0.5334  0.3364
 4297TIP3    H134450   1.814   3.182   3.796 -0.5687 -2.0163  1.8618
 4297TIP3    H234451   1.833   3.096   3.673 -0.5658  0.2055  0.2438
 4298TIP3   OH234452   3.768   0.410   0.936  0.5204  0.3321  0.2304
 4298TIP3    H134453   3.829   0.433   1.006 -0.9945  0.6742  1.4848
 4298TIP3    H234454   3.712   0.342   0.973 -1.0715  1.3575 -0.2007
 4299TIP3   OH234455   1.065   0.519   0.902 -0.4083 -0.3358  0.4951
 4299TIP3    H134456   1.077   0.610   0.930  1.9765 -0.8189  1.3358
 4299TIP3    H234457   1.089   0.518   0.809 -0.4124 -0.1116  0.4930
 4300TIP3   OH234458   3.763   2.318   8.025  0.6577  0.3517 -0.0530
 4300TIP3    H134459   3.667   2.319   8.034  0.5484  1.0086 -1.1611
 4300TIP3    H234460   3.794   2.380   8.090  0.5440 -1.7495  2.1543
 4301TIP3   OH234461   3.939   5.044   0.736 -0.2233  0.1511  0.1073
 4301TIP3    H134462   4.000   5.104   0.693 -0.8061  0.3392 -0.4723
 4301TIP3    H234463   3.976   4.957   0.720  0.7652  0.3441  1.1730
 4302TIP3   OH234464   6.536   1.725   1.915  0.0015  0.0202 -0.5062
 4302TIP3    H134465   6.543   1.640   1.959 -1.6378  0.7712  1.3451
 4302TIP3    H234466   6.445   1.730   1.887  0.1204  1.0918 -0.7422
 4303TIP3   OH234467   5.024   4.633   0.447  0.2458  0.0073 -0.0378
 4303TIP3    H134468   5.080   4.602   0.376 -0.6415 -2.1007  0.1197
 4303TIP3    H234469   5.082   4.638   0.523  1.3016  2.6661 -0.8762
 4304TIP3   OH234470   0.260   5.009   1.085  0.0258 -0.1368 -0.5253
 4304TIP3    H134471   0.342   5.055   1.068  0.4591 -1.2292 -1.5163
 4304TIP3    H234472   0.239   4.965   1.003 -1.9296  0.6524 -0.5037
 4305TIP3   OH234473   0.435   2.286   0.642 -0.7154 -0.0321 -0.3772
 4305TIP3    H134474   0.424   2.207   0.589  1.3972 -1.6405  1.4372
 4305TIP3    H234475   0.526   2.285   0.670 -0.7451  2.8107  0.1859
 4306TIP3   OH234476   3.131   6.185   1.542 -0.0124  0.5470 -0.2396
 4306TIP3    H134477   3.087   6.264   1.573 -2.9791 -0.9048 -0.3998
 4306TIP3    H234478   3.075   6.152   1.471 -0.0785 -2.7115  1.1154
 4307TIP3   OH234479   2.587   1.690   3.137 -0.5028  0.2198 -0.1652
 4307TIP3    H134480   2.496   1.714   3.117 -0.6976 -0.8688 -0.6760
 4307TIP3    H234481   2.633   1.697   3.053 -0.4734 -0.7300 -0.2375
 4308TIP3   OH234482   5.918   1.375   0.038  0.0172 -0.1629  0.1013
 4308TIP3    H134483   5.948   1.284   0.044 -0.5512 -0.5830 -2.3262
 4308TIP3    H234484   5.975   1.415  -0.027 -1.2536  0.5252 -0.6273
 4309TIP3   OH234485   2.094   1.850   1.071 -0.6233  0.5245  0.0915
 4309TIP3    H134486   2.101   1.804   1.155 -3.2546  0.1873  0.2054
 4309TIP3    H234487   2.023   1.913   1.084 -0.7781  0.7858 -1.7511
 4310TIP3   OH234488   0.900   0.457   0.329  0.0715  0.3505 -0.0920
 4310TIP3    H134489   0.932   0.486   0.244 -0.7713  3.7637  0.6093
 4310TIP3    H234490   0.939   0.517   0.392 -2.7748  0.8216  1.4233
 4311TIP3   OH234491   5.055   6.240   3.157 -0.6484 -0.2276 -0.6214
 4311TIP3    H134492   5.064   6.299   3.082  0.0128  0.7166  0.1694
 4311TIP3    H234493   4.987   6.280   3.212  0.2013  0.1584  0.1979
 4312TIP3   OH234494   2.857   2.993   0.838 -0.0974 -0.4296  0.1617
 4312TIP3    H134495   2.809   3.044   0.774  0.0944  0.6129  0.8178
 4312TIP3    H234496   2.816   2.907   0.837 -1.0238  0.0111 -0.3257
 4313TIP3   OH234497   6.102   6.758   0.501 -0.2124  0.1928  0.0324
 4313TIP3    H134498   6.066   6.845   0.514 -2.4637 -0.7260  0.5642
 4313TIP3    H234499   6.143   6.737   0.585 -0.4880  0.4060  0.2249
 4314TIP3   OH234500   6.205   2.324   0.701 -0.0957  0.2352  0.6468
 4314TIP3    H134501   6.282   2.318   0.643  1.2395  2.7332  1.9858
 4314TIP3    H234502   6.131   2.330   0.641  0.8833 -0.6711 -0.7343
 4315TIP3   OH234503   6.567   0.147   1.918 -0.3900  0.3062  0.0865
 4315TIP3    H134504   6.566   0.202   1.840 -0.5887  0.5735  0.2785
 4315TIP3    H234505   6.618   0.070   1.892  0.1421  0.7095 -0.0931
 4316TIP3   OH234506   4.831   5.646   7.972 -0.5749 -0.3247 -0.1947
 4316TIP3    H134507   4.819   5.727   7.921  1.1029  0.7927  1.1020
 4316TIP3    H234508   4.899   5.598   7.924 -1.0085 -0.6256 -0.5244
 4317TIP3   OH234509   2.591   2.635   8.496 -0.2624  0.1478  0.8017
 4317TIP3    H134510   2.675   2.594   8.516 -1.6671 -2.3011  2.1627
 4317TIP3    H234511   2.587   2.636   8.400  0.8953 -0.5904  0.7232
 4318TIP3   OH234512   6.046   6.612   1.141 -0.0002  0.1940  0.1607
 4318TIP3    H134513   5.973   6.661   1.180  0.5619  2.0788 -1.0406
 4318TIP3    H234514   6.004   6.538   1.097 -0.8869 -0.4149  1.9314
 4319TIP3   OH234515   2.177   5.034   3.036  0.4113 -0.0057  0.0967
 4319TIP3    H134516   2.158   4.943   3.012  1.4828 -0.4450  0.8344
 4319TIP3    H234517   2.099   5.082   3.009 -0.0560 -1.0910 -0.5814
 4320TIP3   OH234518   1.200   3.079   2.245  0.5978 -0.0134  0.2190
 4320TIP3    H134519   1.244   3.122   2.171  0.7235  0.4365  0.5489
 4320TIP3    H234520   1.169   2.995   2.210  1.2881 -0.1187 -0.1480
 4321TIP3   OH234521   5.742   4.946   1.911  0.3891 -0.6220 -0.0605
 4321TIP3    H134522   5.815   4.884   1.916  1.3504  0.4243 -0.5847
 4321TIP3    H234523   5.740   4.973   1.819 -0.6329 -0.5849 -0.0354
 4322TIP3   OH234524   5.693   0.149   0.979  0.0498  0.2752  0.7086
 4322TIP3    H134525   5.628   0.135   1.048  0.1837  0.5734  0.9009
 4322TIP3    H234526   5.755   0.210   1.018  0.1687  0.3864  0.3464
 4323TIP3   OH234527   0.305   6.424   0.975 -0.1339 -0.3955 -0.1978
 4323TIP3    H134528   0.262   6.353   0.928 -0.7340  0.2712 -0.6786
 4323TIP3    H234529   0.393   6.428   0.938 -1.2015  1.4397 -2.8232
 4324TIP3   OH234530   6.684   1.018   0.963  0.1454  0.2640 -0.3555
 4324TIP3    H134531   6.758   0.957   0.970  0.0550 -0.1281 -2.1831
 4324TIP3    H234532   6.720   1.092   0.914 -0.1539  1.0109  0.5320
 4325TIP3   OH234533   3.632   5.985   8.592 -0.5650 -0.2960  0.0170
 4325TIP3    H134534   3.594   5.921   8.653 -1.4483  0.0221 -0.1803
 4325TIP3    H234535   3.724   5.959   8.584 -0.0192  0.5589  2.6766
 4326TIP3   OH234536   4.845   2.174   3.290 -0.0041  0.2253 -0.4324
 4326TIP3    H134537   4.897   2.103   3.252 -0.6669 -0.2667 -0.4419
 4326TIP3    H234538   4.904   2.215   3.354 -0.4001 -2.0200  1.5382
 4327TIP3   OH234539   0.122   1.816   3.257  0.4383  0.6985 -0.2672
 4327TIP3    H134540   0.185   1.797   3.187  1.6195 -1.1192  1.1872
 4327TIP3    H234541   0.176   1.856   3.326 -0.2802  0.4657  0.4385
 4328TIP3   OH234542   3.055   5.074   8.538  0.5943  0.1610 -0.2630
 4328TIP3    H134543   3.147   5.084   8.563  0.3804  1.0233  0.2025
 4328TIP3    H234544   3.047   5.122   8.455  0.9092 -1.2588 -1.1574
 4329TIP3   OH234545   0.265   6.496   2.403 -0.2510 -0.1499  0.3782
 4329TIP3    H134546   0.250   6.566   2.340 -0.5197  0.5983  1.2379
 4329TIP3    H234547   0.180   6.485   2.447 -0.1008 -0.7255  0.5370
 4330TIP3   OH234548   6.081   3.453   2.194 -0.3043  0.2891  0.0610
 4330TIP3    H134549   6.080   3.368   2.237 -2.4574  0.3795  0.2738
 4330TIP3    H234550   6.112   3.434   2.105 -1.1848 -0.7967 -0.0360
 4331TIP3   OH234551   2.763   5.673   2.729 -0.0758 -0.0759  0.2454
 4331TIP3    H134552   2.775   5.589   2.773 -0.8401 -0.4169 -0.1820
 4331TIP3    H234553   2.846   5.720   2.743  1.0844 -1.6212 -1.0660
 4332TIP3   OH234554   0.847   4.672   2.606  0.3266  0.6071  0.0167
 4332TIP3    H134555   0.940   4.663   2.630  0.4090  0.4269 -0.3619
 4332TIP3    H234556   0.823   4.759   2.637  1.0302  1.2551 -1.1823
 4333TIP3   OH234557   5.235   5.643   0.814 -0.0006  0.2901  0.4040
 4333TIP3    H134558   5.165   5.578   0.824  0.7995 -0.3694  2.3047
 4333TIP3    H234559   5.315   5.591   0.809  0.5498  1.1014  0.6067
 4334TIP3   OH234560   6.785   5.032   2.760  0.0495 -0.5564 -0.1514
 4334TIP3    H134561   6.878   5.017   2.744  0.0889 -1.2189  0.6455
 4334TIP3    H234562   6.770   4.997   2.847 -0.4071  1.8918  0.8185
 4335TIP3   OH234563   2.663   1.284   3.863 -0.3630 -0.7905  0.3130
 4335TIP3    H134564   2.747   1.325   3.885 -0.9399 -0.0452  1.2109
 4335TIP3    H234565   2.675   1.192   3.884 -0.1157 -0.5007  1.5072
 4336TIP3   OH234566   4.502   1.168   1.554 -1.3286 -0.1966  0.1588
 4336TIP3    H134567   4.441   1.144   1.623 -0.8707 -0.3537  0.5062
 4336TIP3    H234568   4.460   1.137   1.473 -3.0019  2.0263  0.0683
 4337TIP3   OH234569   2.712   4.208   0.755 -0.0758  0.1896  0.2561
 4337TIP3    H134570   2.654   4.265   0.805  0.0713 -0.0426  0.7055
 4337TIP3    H234571   2.728   4.134   0.814 -0.5075 -0.4605 -0.4405
 4338TIP3   OH234572   4.431   3.899   8.708 -0.5622  0.0208 -0.7664
 4338TIP3    H134573   4.377   3.890   8.786  0.4375  1.4548  0.1409
 4338TIP3    H234574   4.451   3.809   8.682  1.2357 -0.5539  2.1712
 4339TIP3   OH234575   2.902   6.630   2.040  0.1030  0.1615  0.5538
 4339TIP3    H134576   2.869   6.701   2.094  0.0315  0.4693  0.1075
 4339TIP3    H234577   2.828   6.604   1.986  0.5095  0.6933 -0.2764
 4340TIP3   OH234578   3.562   6.171   0.877 -0.1705  0.4255 -0.4382
 4340TIP3    H134579   3.483   6.223   0.894 -0.4436  0.2326 -1.1196
 4340TIP3    H234580   3.612   6.177   0.959 -0.5021  1.2262 -0.2859
 4341TIP3   OH234581   4.915   2.985   1.322 -0.0608  0.0127  0.4813
 4341TIP3    H134582   4.880   2.927   1.389 -1.2597 -0.5217 -0.5526
 4341TIP3    H234583   5.008   2.993   1.343 -0.3255 -0.4534  1.9484
 4342TIP3   OH234584   1.041   4.618   0.452 -0.1182  0.4572  0.5518
 4342TIP3    H134585   1.106   4.549   0.460 -0.9108 -0.5408 -1.0337
 4342TIP3    H234586   1.016   4.638   0.542  0.0470 -1.4247  1.0614
 4343TIP3   OH234587   2.207   1.445   1.975  0.0013 -0.1374 -0.6008
 4343TIP3    H134588   2.199   1.434   1.881 -0.8161 -1.5824 -0.3811
 4343TIP3    H234589   2.243   1.362   2.007  0.5229  0.4231  0.3459
 4344TIP3   OH234590   2.705   2.325   3.730 -0.2216 -0.0838  0.1102
 4344TIP3    H134591   2.686   2.246   3.780 -0.5011  0.6333  1.1845
 4344TIP3    H234592   2.637   2.387   3.757  0.4725  0.7830 -0.0817
 4345TIP3   OH234593   0.456   6.694   3.403  0.3586  0.1250 -0.7543
 4345TIP3    H134594   0.540   6.722   3.366  0.6975 -0.4886 -0.4670
 4345TIP3    H234595   0.391   6.722   3.338  0.8382  0.0925 -1.2581
 4346TIP3   OH234596   3.637   4.640   7.993 -0.1061 -0.1291  0.4907
 4346TIP3    H134597   3.553   4.599   7.974 -0.3192  0.4700  0.1310
 4346TIP3    H234598   3.694   4.567   8.020 -0.1948 -0.8195 -1.0709
 4347TIP3   OH234599   2.065   0.009   1.431 -0.1173  0.4219 -0.3185
 4347TIP3    H134600   2.036   0.020   1.341 -1.6637  3.6787  0.4233
 4347TIP3    H234601   2.160   0.023   1.428  0.0231 -0.6421 -1.5324
 4348TIP3   OH234602   0.403   3.236   3.695  0.6823 -0.1817 -0.2262
 4348TIP3    H134603   0.439   3.285   3.769 -1.8485  1.6385 -0.0548
 4348TIP3    H234604   0.336   3.180   3.734 -0.1967  0.2864 -1.0128
 4349TIP3   OH234605   1.385   1.519   8.511  0.3204 -0.1992  0.0986
 4349TIP3    H134606   1.404   1.426   8.525 -0.0548 -0.3056 -0.0877
 4349TIP3    H234607   1.469   1.562   8.522  0.5893 -0.6120 -0.2832
 4350TIP3   OH234608   6.674   1.404   2.145 -0.4600  0.0688 -0.4682
 4350TIP3    H134609   6.584   1.432   2.166 -0.3609  1.0755 -1.3224
 4350TIP3    H234610   6.729   1.463   2.197 -0.2568 -1.5491  1.2914
 4351TIP3   OH234611   3.944   0.717   1.136 -0.1657 -0.9762 -0.4875
 4351TIP3    H134612   3.986   0.753   1.214  1.3670 -0.6901 -1.3955
 4351TIP3    H234613   3.855   0.752   1.137  0.1091 -0.2761  0.6621
 4352TIP3   OH234614   5.620   3.922   3.548  0.1569 -0.5157 -0.3157
 4352TIP3    H134615   5.567   3.848   3.520 -1.3030  0.5043 -0.3129
 4352TIP3    H234616   5.581   3.949   3.632  0.5509  0.3725 -0.4086
 4353TIP3   OH234617   3.527   5.564   2.675 -0.3057  0.0011  0.2375
 4353TIP3    H134618   3.520   5.554   2.580  1.0789  0.2320  0.0896
 4353TIP3    H234619   3.487   5.649   2.694 -0.1616  0.1692 -0.1992
 4354TIP3   OH234620   2.203   1.453   0.463 -0.4874  0.3029 -0.0190
 4354TIP3    H134621   2.189   1.369   0.507  1.7123  0.3693  0.9435
 4354TIP3    H234622   2.216   1.429   0.371 -0.4616 -0.3571  0.1486
 4355TIP3   OH234623   0.589   6.476   0.432 -0.1709 -0.2822 -0.3457
 4355TIP3    H134624   0.635   6.524   0.363 -1.3290 -1.2842 -1.8826
 4355TIP3    H234625   0.616   6.519   0.513 -0.9813  2.8587 -1.5788
 4356TIP3   OH234626   1.202   3.848   8.100  0.3893  0.1329  0.4279
 4356TIP3    H134627   1.126   3.882   8.051  0.5482  1.3047  0.9494
 4356TIP3    H234628   1.278   3.875   8.048  0.5187  0.6454  0.8672
 4357TIP3   OH234629   3.143   5.331   1.663 -0.0707 -0.2821 -0.0241
 4357TIP3    H134630   3.076   5.300   1.602 -0.4726 -0.3053  0.4275
 4357TIP3    H234631   3.139   5.271   1.737  1.2165 -0.9640 -0.4685
 4358TIP3   OH234632   1.500   3.927   0.262 -0.1186 -0.1748  0.0035
 4358TIP3    H134633   1.489   3.928   0.357 -1.4713 -0.0188 -0.1407
 4358TIP3    H234634   1.445   3.854   0.232  0.4756 -0.3670 -0.6470
 4359TIP3   OH234635   3.394   5.311   1.851  0.0252  0.2196  0.1918
 4359TIP3    H134636   3.391   5.236   1.910  1.5874  0.0166  0.0525
 4359TIP3    H234637   3.457   5.286   1.783  1.1107  1.9157  0.5214
 4360TIP3   OH234638   1.031   4.566   3.381  0.3563  0.6632  0.3045
 4360TIP3    H134639   0.962   4.573   3.315  2.1736  2.6301 -1.5954
 4360TIP3    H234640   0.993   4.515   3.452 -2.3765  0.1006 -1.4360
 4361TIP3   OH234641   1.188   3.630   8.288  0.1026 -0.0555 -0.3610
 4361TIP3    H134642   1.214   3.704   8.233  0.5240 -0.6485 -0.9771
 4361TIP3    H234643   1.270   3.582   8.304 -0.0700 -0.0781  0.5076
 4362TIP3   OH234644   1.907   1.255   3.888  0.2729 -0.1907 -0.1777
 4362TIP3    H134645   1.811   1.257   3.888  0.2791  0.5705 -1.1828
 4362TIP3    H234646   1.931   1.275   3.979 -0.5117  0.4754 -0.1085
 4363TIP3   OH234647   5.848   6.235   8.449  0.5525 -0.2662  0.0247
 4363TIP3    H134648   5.761   6.217   8.485  0.1961  0.6594 -0.3466
 4363TIP3    H234649   5.900   6.158   8.473  0.3644  0.3265  2.5396
 4364TIP3   OH234650   6.665   3.440   0.500 -0.4870 -0.3096 -0.0810
 4364TIP3    H134651   6.756   3.412   0.505  0.2171  1.8974  1.2020
 4364TIP3    H234652   6.620   3.387   0.567 -0.2064 -1.4924 -0.8020
 4365TIP3   OH234653   1.762   3.714   3.136 -0.3903  0.1429  0.5365
 4365TIP3    H134654   1.681   3.666   3.149 -1.7197  1.2494 -2.6720
 4365TIP3    H234655   1.806   3.668   3.064  0.9457  0.6285  1.0105
 4366TIP3   OH234656   5.623   3.788   1.983 -0.5221  0.1376  0.0674
 4366TIP3    H134657   5.633   3.743   2.067 -0.2389  0.0663 -0.0042
 4366TIP3    H234658   5.634   3.881   2.004  1.4014  0.0026 -0.1657
 4367TIP3   OH234659   3.744   0.857   0.158 -0.2006 -0.3868  0.0563
 4367TIP3    H134660   3.781   0.771   0.180  0.3425  0.5275  3.1625
 4367TIP3    H234661   3.780   0.876   0.071  0.6912 -2.7165 -0.1700
 4368TIP3   OH234662   1.905   6.127   0.814 -0.1402 -0.0405  0.5546
 4368TIP3    H134663   1.822   6.085   0.836 -0.6050 -0.6388 -2.0799
 4368TIP3    H234664   1.971   6.067   0.849 -0.8182 -1.0614  0.1345
 4369TIP3   OH234665   3.750   4.247   1.897 -0.2480  0.2438 -0.0140
 4369TIP3    H134666   3.701   4.180   1.849 -0.1602  0.7386 -0.8174
 4369TIP3    H234667   3.810   4.198   1.953 -0.9779 -0.3562  0.2569
 4370TIP3   OH234668   2.672   0.240   2.675 -0.1885  0.1993 -0.1451
 4370TIP3    H134669   2.747   0.236   2.734  0.9190  0.9079 -1.4434
 4370TIP3    H234670   2.671   0.155   2.631 -1.3128 -0.5164  1.1939
 4371TIP3   OH234671   6.354   0.687   4.136  0.1985 -0.4570 -0.3824
 4371TIP3    H134672   6.264   0.654   4.144  0.1709 -0.3833 -0.3843
 4371TIP3    H234673   6.409   0.613   4.160  0.1403 -0.5442 -0.5217
 4372TIP3   OH234674   5.025   4.209   0.375 -0.0645  0.2942  0.4373
 4372TIP3    H134675   4.941   4.208   0.330  0.1907 -0.3356 -0.0303
 4372TIP3    H234676   5.002   4.229   0.466 -0.6390  0.8996  0.1726
 4373TIP3   OH234677   2.585   1.195   1.883  0.5196 -0.2067 -0.1420
 4373TIP3    H134678   2.583   1.284   1.848  0.4616 -0.0953  0.1440
 4373TIP3    H234679   2.662   1.155   1.843 -0.0263 -0.3632 -1.0877
 4374TIP3   OH234680   3.656   6.682   3.541 -0.1498  0.2406  0.2592
 4374TIP3    H134681   3.608   6.603   3.564  0.3517 -0.2315 -0.2892
 4374TIP3    H234682   3.590   6.751   3.543 -0.6301 -0.2174  0.5642
 4375TIP3   OH234683   0.854   5.333   3.706 -0.5179  0.6204 -0.0276
 4375TIP3    H134684   0.864   5.292   3.791 -0.2118 -1.9918 -1.2156
 4375TIP3    H234685   0.942   5.366   3.685 -0.3854  0.4644  0.2826
 4376TIP3   OH234686   4.464   6.108   2.099  0.1651 -0.2170 -0.4039
 4376TIP3    H134687   4.388   6.089   2.154  1.5613 -0.2468  1.6190
 4376TIP3    H234688   4.519   6.030   2.107  0.4783 -0.1564 -1.7561
 4377TIP3   OH234689   5.486   1.001   0.733 -0.1711 -0.0396  0.2284
 4377TIP3    H134690   5.428   0.926   0.721  0.9474 -1.3109  2.1600
 4377TIP3    H234691   5.573   0.962   0.742  0.4143  1.4657  1.4193
 4378TIP3   OH234692   5.452   6.741   0.846 -0.1485  0.4211  0.7679
 4378TIP3    H134693   5.436   6.814   0.787 -2.9986 -0.6747  0.0510
 4378TIP3    H234694   5.520   6.689   0.802 -0.4528  0.9084 -0.3098
 4379TIP3   OH234695   3.623   5.409   0.465  0.1902 -0.1958 -0.0911
 4379TIP3    H134696   3.644   5.385   0.556 -2.0570 -0.9836  0.2802
 4379TIP3    H234697   3.675   5.348   0.412  1.9354  0.6133  0.5987
 4380TIP3   OH234698   1.565   6.175   3.048 -0.0170 -0.1350  0.0605
 4380TIP3    H134699   1.599   6.131   2.969  0.1978 -0.8325  0.5308
 4380TIP3    H234700   1.641   6.222   3.083 -0.4094  1.2188 -0.8234
 4381TIP3   OH234701   1.110   0.796   2.426 -0.3654  0.3622  0.0903
 4381TIP3    H134702   1.110   0.744   2.506 -0.7529  1.3383  0.7402
 4381TIP3    H234703   1.083   0.734   2.358 -0.1867 -0.4439  0.7259
 4382TIP3   OH234704   1.968   3.125   1.625 -0.6085 -0.5090 -0.5360
 4382TIP3    H134705   2.054   3.123   1.583 -0.0328  1.6904  0.4163
 4382TIP3    H234706   1.922   3.197   1.582 -0.5981  0.7230  1.3703
 4383TIP3   OH234707   6.054   3.087   1.594  0.4862  0.3960  0.0514
 4383TIP3    H134708   5.961   3.083   1.574  0.1288 -0.7862  1.8305
 4383TIP3    H234709   6.079   3.177   1.571 -1.7730  1.7042  2.2939
 4384TIP3   OH234710   1.023   1.705   4.033  0.5990  0.2437 -0.1669
 4384TIP3    H134711   1.035   1.610   4.025 -1.0981 -0.1077  0.8208
 4384TIP3    H234712   1.109   1.742   4.013  1.4031 -1.5217 -0.2070
 4385TIP3   OH234713   2.749   0.355   3.526 -0.3399 -0.0471 -0.0026
 4385TIP3    H134714   2.835   0.365   3.568  0.2184  0.3742 -1.2044
 4385TIP3    H234715   2.716   0.445   3.519 -1.4674 -0.3005  1.5892
 4386TIP3   OH234716   1.488   3.977   1.520  0.1912 -0.1581 -0.2030
 4386TIP3    H134717   1.462   4.059   1.562  1.2971  0.7185 -1.1547
 4386TIP3    H234718   1.584   3.981   1.519  0.2437 -1.3009 -0.6055
 4387TIP3   OH234719   4.688   5.826   8.644  0.0939  0.4490  0.4989
 4387TIP3    H134720   4.763   5.875   8.676 -2.1786  3.5495  1.4842
 4387TIP3    H234721   4.679   5.853   8.552  0.5117 -0.4184  0.1903
 4388TIP3   OH234722   2.068   0.970   0.506 -0.0064  0.5107  0.2400
 4388TIP3    H134723   2.020   0.906   0.558 -0.7656  1.2617  0.4929
 4388TIP3    H234724   2.006   0.997   0.438  0.8745 -0.2445 -0.8975
 4389TIP3   OH234725   6.064   5.972   8.209  0.2135 -0.1518 -0.8084
 4389TIP3    H134726   5.969   5.975   8.196 -0.0062  1.2483  0.6519
 4389TIP3    H234727   6.097   6.048   8.161  0.4611 -0.0932 -0.5521
 4390TIP3   OH234728   6.144   1.426   1.953  0.4351 -0.1493  0.0632
 4390TIP3    H134729   6.086   1.364   1.909  1.0867 -0.3490 -0.5217
 4390TIP3    H234730   6.143   1.398   2.045 -0.0290 -0.4293 -0.0234
 4391TIP3   OH234731   5.678   1.284   2.031 -0.0041  0.0058  0.1258
 4391TIP3    H134732   5.585   1.287   2.008 -0.6250 -0.7967  2.2742
 4391TIP3    H234733   5.702   1.376   2.046 -0.6282  0.1600  0.2024
 4392TIP3   OH234734   6.755   3.021   2.549 -0.3991 -0.0608 -0.4459
 4392TIP3    H134735   6.828   2.960   2.561 -0.7183 -0.5431 -0.9231
 4392TIP3    H234736   6.742   3.024   2.454  1.0149  2.4024 -0.6302
 4393TIP3   OH234737   4.451   3.934   0.799  0.4599 -0.2833 -0.2633
 4393TIP3    H134738   4.432   3.866   0.864 -2.1667  0.3876 -0.2111
 4393TIP3    H234739   4.439   3.890   0.715 -2.0581  0.1967 -0.2369
 4394TIP3   OH234740   1.572   3.541   3.202 -0.1746 -0.1519 -0.3634
 4394TIP3    H134741   1.603   3.497   3.281  1.1188  0.0738 -0.7168
 4394TIP3    H234742   1.562   3.471   3.138  2.4658  0.0705 -1.1070
 4395TIP3   OH234743   1.693   0.016   2.101 -0.3274  0.2251  0.1221
 4395TIP3    H134744   1.716   0.079   2.033 -3.0515  0.9116 -0.2758
 4395TIP3    H234745   1.637  -0.048   2.056  0.0531 -0.8616  1.1519
 4396TIP3   OH234746   2.223   3.057   2.228 -0.3679  0.0854 -0.1931
 4396TIP3    H134747   2.295   2.996   2.244  0.3129  1.3282  1.7625
 4396TIP3    H234748   2.160   3.006   2.176  1.3025 -1.4429 -0.8081
 4397TIP3   OH234749   1.596   4.121   2.657 -0.2597  0.5629  0.1374
 4397TIP3    H134750   1.630   4.180   2.590 -0.5234  0.0416 -0.4657
 4397TIP3    H234751   1.609   4.034   2.622 -0.3112  0.2732  0.8134
 4398TIP3   OH234752   3.858   5.434   8.309  0.5096 -0.1227  0.1777
 4398TIP3    H134753   3.943   5.430   8.352  0.5692  1.1847  0.2286
 4398TIP3    H234754   3.878   5.453   8.217  0.2948 -0.4325  0.0654
 4399TIP3   OH234755   5.907   1.129   1.281  0.1061 -0.0211  0.0644
 4399TIP3    H134756   5.993   1.136   1.321  0.4518  0.1048 -0.6862
 4399TIP3    H234757   5.909   1.046   1.233  0.6793  1.0781 -1.9325
 4400TIP3   OH234758   4.204   3.997   2.343  0.5402 -0.1571  1.2486
 4400TIP3    H134759   4.299   3.985   2.340  0.7493  1.4533  0.0680
 4400TIP3    H234760   4.168   3.918   2.303  1.3256 -1.0826  2.3099
 4401TIP3   OH234761   5.918   0.587   1.518 -0.8133  0.2072  0.4991
 4401TIP3    H134762   5.926   0.672   1.561  0.3216  0.3133  0.1246
 4401TIP3    H234763   5.841   0.595   1.463 -0.8669  0.9112  0.6647
 4402TIP3   OH234764   1.996   1.875   8.106 -0.4595  0.3093 -0.2478
 4402TIP3    H134765   2.074   1.826   8.081 -0.8365 -1.2225  1.3796
 4402TIP3    H234766   1.939   1.870   8.029  1.2404  2.0991 -1.7523
 4403TIP3   OH234767   5.353   4.210   0.752 -0.0238  0.0681 -0.5627
 4403TIP3    H134768   5.393   4.264   0.684 -1.2104  0.9587 -0.5878
 4403TIP3    H234769   5.396   4.238   0.833 -0.9905  1.4808 -0.4981
 4404TIP3   OH234770   1.441   3.697   0.962  0.3812  0.0736 -0.1014
 4404TIP3    H134771   1.449   3.731   1.051 -1.1365  1.2549 -0.3721
 4404TIP3    H234772   1.415   3.605   0.973  0.4803  0.1321  0.6596
 4405TIP3   OH234773   3.008   2.610   1.785 -0.7724 -0.3181  0.0802
 4405TIP3    H134774   3.026   2.694   1.742 -1.4189  0.0300  0.4678
 4405TIP3    H234775   3.057   2.614   1.867 -0.9852 -0.2160  0.2047
 4406TIP3   OH234776   6.223   3.295   0.608 -0.5434  0.4689  0.0037
 4406TIP3    H134777   6.193   3.377   0.569  0.4665  0.5986 -0.5297
 4406TIP3    H234778   6.145   3.259   0.651 -1.6216  0.5358 -1.7545
 4407TIP3   OH234779   4.889   3.155   3.621  0.2788 -0.7047  0.8061
 4407TIP3    H134780   4.975   3.137   3.660 -0.3255  0.3606  2.7651
 4407TIP3    H234781   4.826   3.138   3.691 -1.0676 -0.7383 -0.3608
 4408TIP3   OH234782   2.955   3.721   2.910 -0.1130 -0.6184 -0.0418
 4408TIP3    H134783   3.006   3.763   2.980  0.4608 -2.1808  0.5206
 4408TIP3    H234784   3.012   3.726   2.833  0.3574 -1.2076  0.2629
 4409TIP3   OH234785   5.547   1.426   8.636  0.0251  0.4159 -0.2328
 4409TIP3    H134786   5.467   1.390   8.597  0.0075  0.1059  0.0803
 4409TIP3    H234787   5.519   1.461   8.720  0.1335  0.7364 -0.3313
 4410TIP3   OH234788   4.454   4.671   0.378  0.0077  0.2205  0.1532
 4410TIP3    H134789   4.392   4.738   0.347  0.1040  0.2550  0.0333
 4410TIP3    H234790   4.496   4.640   0.298  0.7100  0.7523  0.3142
 4411TIP3   OH234791   4.268   1.122   2.165 -0.4361  0.2992  0.1970
 4411TIP3    H134792   4.336   1.091   2.225 -0.5539 -1.3546 -0.4496
 4411TIP3    H234793   4.312   1.127   2.080 -1.2411 -1.5941 -0.3982
 4412TIP3   OH234794   6.167   2.802   8.378 -0.1997  0.3460  0.1179
 4412TIP3    H134795   6.223   2.879   8.368  0.3828  0.2577  2.3234
 4412TIP3    H234796   6.177   2.755   8.295 -1.1116  2.9303 -1.5737
 4413TIP3   OH234797   1.887   3.514   0.855 -0.0440  0.4344  0.4130
 4413TIP3    H134798   1.838   3.572   0.913 -0.1709  0.8564 -0.1186
 4413TIP3    H234799   1.831   3.502   0.779 -0.0604 -0.4607  0.5483
 4414TIP3   OH234800   5.212   5.159   8.619 -0.7362  0.1512 -0.6342
 4414TIP3    H134801   5.284   5.145   8.681 -0.5001  1.6752 -0.5232
 4414TIP3    H234802   5.164   5.234   8.655 -2.7800 -1.1966 -0.3766
 4415TIP3   OH234803   1.324   3.626   2.198 -0.7009 -0.1608 -0.0420
 4415TIP3    H134804   1.299   3.652   2.286 -0.9316 -0.3313 -0.0589
 4415TIP3    H234805   1.418   3.644   2.194 -0.6695 -0.2491  0.2717
 4416TIP3   OH234806   1.313   1.211   8.383 -0.1478  0.5842  0.4792
 4416TIP3    H134807   1.254   1.268   8.432  0.6336  2.4595 -0.6525
 4416TIP3    H234808   1.329   1.138   8.442 -4.1032 -0.4277  0.5725
 4417TIP3   OH234809   0.047   0.846   3.589 -0.0731  0.3197  0.2057
 4417TIP3    H134810   0.066   0.761   3.548  0.0143  0.3268  0.2316
 4417TIP3    H234811  -0.045   0.863   3.566  0.0666  0.4753 -0.2549
 4418TIP3   OH234812   4.307   4.493   1.810  0.4999 -0.2738 -0.3047
 4418TIP3    H134813   4.375   4.544   1.854 -0.5357 -0.5808  1.7325
 4418TIP3    H234814   4.225   4.533   1.837 -0.2401 -1.6127 -0.4802
 4419TIP3   OH234815   1.363   0.812   8.379  0.2266  0.0133  0.0050
 4419TIP3    H134816   1.445   0.846   8.416  1.1565 -0.0599 -1.8720
 4419TIP3    H234817   1.369   0.831   8.285 -2.3165  0.7785 -0.0844
 4420TIP3   OH234818   3.257   1.241   0.147 -0.2559  0.2376  0.3900
 4420TIP3    H134819   3.292   1.157   0.177  1.5042  1.0850  0.8684
 4420TIP3    H234820   3.168   1.222   0.119 -0.4603 -1.4585  2.0235
 4421TIP3   OH234821   4.238   1.880   1.468 -0.0591  0.2381  0.1251
 4421TIP3    H134822   4.146   1.895   1.488 -0.2989 -0.3795 -0.4588
 4421TIP3    H234823   4.237   1.834   1.384  0.8657  2.2677 -1.0686
 4422TIP3   OH234824   0.388   3.028   0.382  0.3457  0.7001  0.0432
 4422TIP3    H134825   0.412   2.937   0.398  0.8076  0.8029 -0.0555
 4422TIP3    H234826   0.294   3.025   0.362  0.4371  0.2011 -0.3234
 4423TIP3   OH234827   0.701   0.777   1.907 -0.9700 -0.2281  0.1069
 4423TIP3    H134828   0.727   0.864   1.940  1.0707 -1.1030  0.9802
 4423TIP3    H234829   0.644   0.796   1.832 -0.5033  1.8648  0.2141
 4424TIP3   OH234830   6.623   4.701   0.439 -0.2844  0.2152 -0.6407
 4424TIP3    H134831   6.654   4.788   0.466  0.9749 -0.6485  0.8720
 4424TIP3    H234832   6.534   4.696   0.472 -0.5546  1.1229 -1.2087
 4425TIP3   OH234833   2.155   2.244   1.661 -0.3400  0.0272 -0.2007
 4425TIP3    H134834   2.223   2.274   1.721 -0.6438  1.1401 -0.3921
 4425TIP3    H234835   2.138   2.154   1.687 -0.1506  0.3444  1.0910
 4426TIP3   OH234836   0.117   4.604   7.869 -0.4597 -0.4717  0.0978
 4426TIP3    H134837   0.202   4.577   7.905 -1.0217 -2.1437  0.2857
 4426TIP3    H234838   0.115   4.699   7.880  1.5555 -0.3354 -0.3014
 4427TIP3   OH234839   2.365   1.524   2.964  0.0329 -0.7573  0.6517
 4427TIP3    H134840   2.346   1.561   3.050 -1.2572  0.8967 -0.2791
 4427TIP3    H234841   2.293   1.462   2.948 -0.0617 -0.6115  0.5124
 4428TIP3   OH234842   5.507   6.837   1.975  0.4581  1.0396  0.5507
 4428TIP3    H134843   5.548   6.920   2.000  0.5400  1.2865 -0.3637
 4428TIP3    H234844   5.559   6.770   2.019  1.7464  1.3605 -0.4267
 4429TIP3   OH234845   0.619   6.751   8.129  0.8279 -0.1254  0.1616
 4429TIP3    H134846   0.609   6.846   8.123 -0.6647 -0.2873 -0.6298
 4429TIP3    H234847   0.570   6.726   8.207  0.0053 -0.3677 -0.4204
 4430TIP3   OH234848   0.406   3.026   8.038  0.0649 -0.0219  0.3790
 4430TIP3    H134849   0.348   2.971   8.092 -0.9118  0.6912  0.0783
 4430TIP3    H234850   0.382   3.004   7.948 -0.6662  1.2109  0.2502
 4431TIP3   OH234851   1.949   5.668   0.492  0.1879 -0.1881 -0.2901
 4431TIP3    H134852   1.961   5.711   0.577 -0.0157  1.8396 -1.2334
 4431TIP3    H234853   1.951   5.740   0.429 -2.1634 -1.3360 -1.7906
 4432TIP3   OH234854   6.310   0.948   0.834 -0.2941  0.2544 -0.3588
 4432TIP3    H134855   6.338   0.978   0.920 -2.5460  0.2244  0.4666
 4432TIP3    H234856   6.324   1.023   0.776  0.5255  0.5276  0.1768
 4433TIP3   OH234857   4.610   5.470   7.571 -0.0035  0.5184  0.1649
 4433TIP3    H134858   4.618   5.412   7.495 -1.1091 -0.8198  1.0239
 4433TIP3    H234859   4.695   5.516   7.575  0.6958 -0.6214 -0.8725
 4434TIP3   OH234860   2.366   4.997   7.454 -0.5588  0.0300 -0.5143
 4434TIP3    H134861   2.295   5.015   7.393 -0.5279  0.5649 -0.4001
 4434TIP3    H234862   2.387   4.904   7.440 -2.0365 -0.4514  0.2665
 4435TIP3   OH234863   0.603   3.476   2.981 -0.2083 -0.1039 -0.1662
 4435TIP3    H134864   0.659   3.522   2.919 -0.9582 -0.0839 -0.8469
 4435TIP3    H234865   0.646   3.488   3.066  1.4212 -1.0618 -0.8226
 4436TIP3   OH234866   1.102   1.514   1.936  0.1171  0.1440  0.1417
 4436TIP3    H134867   1.174   1.578   1.936  1.0862 -0.9196 -0.1598
 4436TIP3    H234868   1.055   1.531   2.018 -1.2162  2.9191 -1.0437
 4437TIP3   OH234869   5.056   0.069   0.114 -0.3527  0.4271  0.1562
 4437TIP3    H134870   5.005   0.059   0.034 -1.1182  1.3698  0.5103
 4437TIP3    H234871   5.141   0.103   0.084 -0.5433  0.5184 -0.2832
 4438TIP3   OH234872   3.943   2.310   2.685  0.4819 -0.4306 -0.9504
 4438TIP3    H134873   3.917   2.397   2.655  0.2591  0.1650  0.8448
 4438TIP3    H234874   4.028   2.323   2.725  0.8957 -1.2488 -1.5325
 4439TIP3   OH234875   4.249   0.918   3.353 -0.6035  0.7693 -0.0388
 4439TIP3    H134876   4.325   0.949   3.402 -2.2186  0.1359  3.1591
 4439TIP3    H234877   4.242   0.825   3.376 -1.8613  0.6112 -0.9206
 4440TIP3   OH234878   4.790   5.081   2.238 -0.0437 -0.0927  0.4346
 4440TIP3    H134879   4.703   5.074   2.276 -0.2232 -0.1400  0.0146
 4440TIP3    H234880   4.810   4.993   2.207 -0.4022  0.2086 -0.6766
 4441TIP3   OH234881   0.252   6.062   0.532  0.1177 -0.6241 -0.1858
 4441TIP3    H134882   0.293   6.100   0.610  0.2282  0.6884 -0.8666
 4441TIP3    H234883   0.292   5.975   0.525  2.0235  0.2087 -0.2180
 4442TIP3   OH234884   0.675   3.260   0.234 -0.1529  0.3526  0.5558
 4442TIP3    H134885   0.677   3.342   0.185 -0.5063  1.0388  1.6540
 4442TIP3    H234886   0.653   3.193   0.169  1.2078  0.9434 -0.5811
 4443TIP3   OH234887   4.371   6.131   3.020  0.0290 -0.1662  0.6868
 4443TIP3    H134888   4.407   6.219   3.021 -0.2026 -0.0000 -1.2900
 4443TIP3    H234889   4.447   6.074   3.031  0.3703  0.2640  0.5830
 4444TIP3   OH234890   5.475   2.759   1.843  0.0498 -0.0528 -0.4772
 4444TIP3    H134891   5.422   2.679   1.849  0.1122 -0.0804 -0.2891
 4444TIP3    H234892   5.452   2.796   1.758  0.5573 -0.6548 -0.8894
 4445TIP3   OH234893   5.273   6.523   8.094 -0.3030  0.0089  0.1585
 4445TIP3    H134894   5.178   6.531   8.098 -0.1322  2.0781  1.3857
 4445TIP3    H234895   5.306   6.585   8.158  1.9552  1.4674 -2.1885
 4446TIP3   OH234896   1.941   3.939   1.743 -0.1645 -0.2810 -0.2683
 4446TIP3    H134897   2.034   3.923   1.726  0.1132  0.5110  0.4069
 4446TIP3    H234898   1.933   3.937   1.839 -1.0020 -1.1304 -0.3380
 4447TIP3   OH234899   1.599   0.368   1.269  0.3316 -0.0795 -0.4417
 4447TIP3    H134900   1.606   0.327   1.183  1.2213  2.4027 -1.6384
 4447TIP3    H234901   1.505   0.385   1.280  0.2372 -0.1540 -1.0754
 4448TIP3   OH234902   4.485   0.022   3.572 -0.2055  0.2423  0.1271
 4448TIP3    H134903   4.495  -0.072   3.587 -0.2346  0.0390 -1.0354
 4448TIP3    H234904   4.403   0.045   3.615  0.6072  0.0750  1.8193
 4449TIP3   OH234905   3.132   2.161   2.046  0.2477 -0.1412  0.3220
 4449TIP3    H134906   3.085   2.138   1.966  0.5225  0.4803 -0.0265
 4449TIP3    H234907   3.224   2.147   2.024  0.2322 -2.0762  1.2358
 4450TIP3   OH234908   2.636   0.011   8.648 -0.2169 -0.1682 -0.0388
 4450TIP3    H134909   2.664  -0.077   8.624 -1.8974 -0.3386 -1.5741
 4450TIP3    H234910   2.678   0.068   8.584 -0.3926 -0.0322 -0.0343
 4451TIP3   OH234911   6.144   3.654   0.709 -0.0817  0.1892  0.5853
 4451TIP3    H134912   6.225   3.659   0.760  0.0562 -1.8386  0.6500
 4451TIP3    H234913   6.164   3.591   0.640 -1.6093 -0.3725  0.6283
 4452TIP3   OH234914   4.235   3.249   0.391 -0.3362  0.0898  0.3906
 4452TIP3    H134915   4.312   3.233   0.446 -0.6101 -2.1064  0.2403
 4452TIP3    H234916   4.162   3.254   0.453 -0.8175 -3.5534  0.3263
 4453TIP3   OH234917   3.479   3.006   0.731 -0.5757 -0.4875  0.5916
 4453TIP3    H134918   3.432   2.952   0.795 -1.2456 -1.1642 -0.4471
 4453TIP3    H234919   3.442   2.980   0.646  1.6505 -1.0253 -0.2819
 4454TIP3   OH234920   1.030   2.477   2.829  0.6743  0.5701 -0.6834
 4454TIP3    H134921   1.027   2.382   2.834  2.5628  0.5357  1.6363
 4454TIP3    H234922   1.076   2.496   2.747 -1.1929 -0.3686 -2.0431
 4455TIP3   OH234923   2.712   3.431   0.503 -0.0721 -0.2914  0.2939
 4455TIP3    H134924   2.741   3.520   0.524 -1.1489  0.2760 -0.5023
 4455TIP3    H234925   2.659   3.441   0.424  2.0545 -2.0281 -1.4623
 4456TIP3   OH234926   4.836   4.698   2.890  0.5110 -0.0521 -0.2991
 4456TIP3    H134927   4.888   4.686   2.969  0.5327 -2.1424 -0.5857
 4456TIP3    H234928   4.753   4.736   2.921  0.3903 -1.1586  0.7826
 4457TIP3   OH234929   5.160   0.021   3.269 -0.4999 -0.0661 -0.1764
 4457TIP3    H134930   5.149   0.005   3.363 -2.7646  0.8629 -0.2175
 4457TIP3    H234931   5.128   0.110   3.256 -0.4669 -0.2686 -1.8713
 4458TIP3   OH234932   4.824   0.087   8.664  0.9273 -0.3640  0.3479
 4458TIP3    H134933   4.831  -0.008   8.657 -0.4375 -0.4780  0.1460
 4458TIP3    H234934   4.737   0.102   8.702  0.1455  0.8433 -1.7247
 4459TIP3   OH234935   3.580   3.968   8.004 -0.4616  0.0742  0.5063
 4459TIP3    H134936   3.499   4.006   7.970 -0.5021 -0.7391 -0.3753
 4459TIP3    H234937   3.581   3.991   8.097 -1.4761  0.4844  0.4282
 4460TIP3   OH234938   3.891   5.245   7.989 -0.2424  0.2985 -0.4423
 4460TIP3    H134939   3.827   5.258   7.919  0.7642  2.1922 -1.0771
 4460TIP3    H234940   3.882   5.322   8.044 -0.7296 -0.9702  1.3600
 4461TIP3   OH234941   5.828   4.374   2.968  0.0505 -0.0933  0.4136
 4461TIP3    H134942   5.806   4.312   2.899 -1.9465  0.9003  0.0938
 4461TIP3    H234943   5.903   4.334   3.013  0.0238 -1.7900 -0.9440
 4462TIP3   OH234944   2.116   3.022   0.936 -0.7154 -0.4932 -0.1887
 4462TIP3    H134945   2.143   2.985   1.020 -0.5284  1.4363  0.6406
 4462TIP3    H234946   2.059   2.955   0.898  2.5392 -3.3197 -0.5371
 4463TIP3   OH234947   4.949   0.293   3.652 -0.6356  0.0459 -0.0777
 4463TIP3    H134948   5.014   0.262   3.589 -0.8623 -0.7842  0.0941
 4463TIP3    H234949   4.901   0.361   3.605 -0.7003 -0.4597 -0.7443
 4464TIP3   OH234950   2.014   2.824   2.919 -0.1617 -0.1335 -0.2502
 4464TIP3    H134951   1.967   2.827   3.002 -0.2796  1.4947 -0.3389
 4464TIP3    H234952   1.969   2.888   2.864 -1.1131 -2.3111 -2.1644
 4465TIP3   OH234953   2.152   3.607   0.847  0.0192  0.5302  0.6251
 4465TIP3    H134954   2.177   3.614   0.939 -0.7184 -0.8096  0.9522
 4465TIP3    H234955   2.062   3.575   0.849  0.2066 -0.1220 -0.5733
 4466TIP3   OH234956   5.990   2.228   0.556  0.0748 -0.0188  0.1719
 4466TIP3    H134957   5.903   2.219   0.594  0.1170  1.3275  0.6633
 4466TIP3    H234958   5.974   2.248   0.464 -0.1298 -0.1785  0.1725
 4467TIP3   OH234959   6.677   3.272   7.984 -0.2909 -0.8291  0.2782
 4467TIP3    H134960   6.599   3.323   8.005  0.8287  1.9212 -1.7249
 4467TIP3    H234961   6.707   3.306   7.900  2.1938 -2.9072  0.1938
 4468TIP3   OH234962   4.345   1.527   3.460 -0.5747  0.1673  0.0868
 4468TIP3    H134963   4.289   1.599   3.433 -1.1494 -0.1485  0.4212
 4468TIP3    H234964   4.357   1.475   3.380  1.1457  1.4524 -0.5655
 4469TIP3   OH234965   1.070   2.586   1.284 -0.3446  0.1618  0.2406
 4469TIP3    H134966   1.155   2.610   1.323 -0.1039 -1.0513  0.4929
 4469TIP3    H234967   1.034   2.520   1.344  0.0137 -1.7306 -1.5202
 4470TIP3   OH234968   1.981   1.304   0.853  0.4247  0.7819  0.1696
 4470TIP3    H134969   1.959   1.388   0.811  0.1847  0.2420 -0.8309
 4470TIP3    H234970   2.036   1.328   0.927  0.4389  1.8272 -0.1596
 4471TIP3   OH234971   1.731   5.111   3.135 -0.5526  0.3827  0.8143
 4471TIP3    H134972   1.822   5.128   3.110 -0.3505  0.0551  1.3082
 4471TIP3    H234973   1.717   5.019   3.115 -0.8751  0.5140  0.4432
 4472TIP3   OH234974   5.310   0.721   2.583 -0.2413  0.1293  0.4198
 4472TIP3    H134975   5.354   0.805   2.576  0.7443 -0.2917  1.3321
 4472TIP3    H234976   5.315   0.683   2.495 -1.4169  1.3416 -0.2091
 4473TIP3   OH234977   4.685   0.083   1.427  0.3709  0.0290 -0.3734
 4473TIP3    H134978   4.727   0.025   1.363 -0.4031 -0.4900 -0.4335
 4473TIP3    H234979   4.632   0.142   1.373  0.9673  0.6406 -0.2967
 4474TIP3   OH234980   4.790   5.379   2.184  0.0384 -0.0043 -0.0462
 4474TIP3    H134981   4.702   5.358   2.217  0.3280  0.3209  0.9396
 4474TIP3    H234982   4.834   5.295   2.179 -0.3547 -0.1858 -0.6572
 4475TIP3   OH234983   6.825   1.473   8.279  0.0879 -0.5665 -0.0307
 4475TIP3    H134984   6.733   1.450   8.295 -0.7931  2.2496 -0.5802
 4475TIP3    H234985   6.823   1.531   8.203  1.9758  1.7413  1.5221
 4476TIP3   OH234986   2.728   0.253   1.087  0.0324  0.3449 -0.6994
 4476TIP3    H134987   2.794   0.242   1.018 -0.1897  1.7494 -1.1749
 4476TIP3    H234988   2.758   0.198   1.159  0.6223 -0.6414 -1.6666
 4477TIP3   OH234989   2.840   4.024   3.209 -0.0772  0.5395 -0.2716
 4477TIP3    H134990   2.894   4.079   3.152 -0.4336 -0.2158 -1.3743
 4477TIP3    H234991   2.750   4.041   3.181 -0.3227  0.7130  0.5815
 4478TIP3   OH234992   0.454   3.533   8.114 -0.0519 -0.1115 -0.1451
 4478TIP3    H134993   0.381   3.583   8.150  0.1137 -0.2886  0.4442
 4478TIP3    H234994   0.418   3.447   8.093 -0.9210  0.8650 -3.2863
 4479TIP3   OH234995   1.733   6.638   2.765 -0.1522  0.2169  0.3723
 4479TIP3    H134996   1.719   6.578   2.838  0.9227 -0.6780 -0.1478
 4479TIP3    H234997   1.669   6.611   2.699 -0.9330  0.8511  0.8349
 4480TIP3   OH234998   3.722   1.504   2.017  0.0811 -0.1450  0.6238
 4480TIP3    H134999   3.810   1.477   2.042  0.5721  0.8909  0.0599
 4480TIP3    H235000   3.672   1.501   2.098  0.3343 -1.8046  0.7613
 4481TIP3   OH235001   5.510   6.438   7.927 -0.4475  0.2199  0.2225
 4481TIP3    H135002   5.564   6.515   7.911 -0.5473  0.1569 -0.4373
 4481TIP3    H235003   5.458   6.461   8.004  1.6794 -0.3385  1.9245
 4482TIP3   OH235004   5.554   1.963   3.775 -0.0429 -0.3035  0.7617
 4482TIP3    H135005   5.611   1.910   3.832 -0.4704  0.4017  1.8874
 4482TIP3    H235006   5.612   2.031   3.741  0.2640 -0.8520  0.1671
 4483TIP3   OH235007   3.751   0.448   8.332 -0.4102 -0.0446  0.3654
 4483TIP3    H135008   3.659   0.456   8.358 -0.2765 -0.0337  0.8443
 4483TIP3    H235009   3.796   0.425   8.413  0.3197  2.0250  0.5958
 4484TIP3   OH235010   0.512   6.059   1.200  0.3583 -0.2359 -0.0146
 4484TIP3    H135011   0.512   5.969   1.231  2.4914  0.1934  1.4975
 4484TIP3    H235012   0.586   6.063   1.139  0.9785  0.7069  0.7695
 4485TIP3   OH235013   2.832   5.188   7.906  0.6366 -0.0310 -0.1402
 4485TIP3    H135014   2.849   5.259   7.967 -0.6800 -0.6875  1.0668
 4485TIP3    H235015   2.867   5.110   7.949 -1.4205 -0.7034  0.4260
 4486TIP3   OH235016   0.002   5.824   0.379  0.4110 -0.1720 -0.1627
 4486TIP3    H135017  -0.062   5.778   0.325  1.3644 -0.4144 -1.1228
 4486TIP3    H235018   0.030   5.759   0.444 -1.0852  0.2613  0.9839
 4487TIP3   OH235019   0.285   1.673   0.381 -0.2139 -0.4846  0.0493
 4487TIP3    H135020   0.240   1.728   0.444 -0.2034 -0.3674 -0.0452
 4487TIP3    H235021   0.377   1.677   0.407 -0.3473 -1.3351  0.7066
 4488TIP3   OH235022   5.481   5.902   1.272  0.2439 -0.5153 -0.0749
 4488TIP3    H135023   5.398   5.950   1.261  0.2859 -0.5516 -0.6048
 4488TIP3    H235024   5.538   5.963   1.319 -0.0520 -0.4486  0.1956
 4489TIP3   OH235025   0.661   2.329   2.537 -0.1168 -0.1362  0.0423
 4489TIP3    H135026   0.592   2.386   2.503 -0.6744 -0.4114  0.6869
 4489TIP3    H235027   0.742   2.370   2.508 -0.5492  0.0395 -0.9757
 4490TIP3   OH235028   4.201   6.467   8.605 -0.0420  0.3067  0.6922
 4490TIP3    H135029   4.140   6.532   8.570 -0.5432 -0.4327  0.1511
 4490TIP3    H235030   4.287   6.497   8.577 -0.2624  0.7901  0.5234
 4491TIP3   OH235031   5.687   0.279   0.010 -0.4067 -0.4957 -0.3356
 4491TIP3    H135032   5.649   0.205  -0.038 -2.3704  0.1695  0.1126
 4491TIP3    H235033   5.664   0.262   0.102  0.6937 -0.2222  0.0043
 4492TIP3   OH235034   3.986   0.258   0.080  0.2732  0.1663 -0.2240
 4492TIP3    H135035   3.903   0.211   0.082  1.0924 -1.3305  0.5236
 4492TIP3    H235036   4.019   0.244  -0.009 -0.1229  0.4997 -0.4261
 4493TIP3   OH235037   6.699   1.989   1.854  0.9485 -0.3787 -0.3225
 4493TIP3    H135038   6.635   2.012   1.921  0.3054  0.5760 -1.2507
 4493TIP3    H235039   6.647   1.961   1.779  1.5445  1.2763 -1.4078
 4494TIP3   OH235040   3.287   5.612   0.572  0.3609 -0.7366 -0.2845
 4494TIP3    H135041   3.205   5.656   0.592  0.7414  0.0771 -0.4820
 4494TIP3    H235042   3.349   5.683   0.552  1.0914 -1.3353 -0.2110
 4495TIP3   OH235043   1.993   4.726   0.173  0.9106  0.3117 -0.0325
 4495TIP3    H135044   2.049   4.682   0.236  1.7798 -0.1656 -1.1135
 4495TIP3    H235045   1.950   4.795   0.223  1.3948 -0.2130  1.1277
 4496TIP3   OH235046   0.359   1.143   2.643  0.0126  0.0456  0.0049
 4496TIP3    H135047   0.291   1.193   2.597  1.0162  1.7365  0.2852
 4496TIP3    H235048   0.389   1.202   2.712  2.3092 -0.3341 -0.5939
 4497TIP3   OH235049   0.717   3.947   0.323 -0.8933  0.6385 -0.1323
 4497TIP3    H135050   0.673   3.929   0.406 -0.1633  0.2389  0.1815
 4497TIP3    H235051   0.663   4.013   0.281 -0.3575  2.1811  1.4587
 4498TIP3   OH235052   3.264   5.570   2.999  0.1393 -0.1258 -0.0413
 4498TIP3    H135053   3.284   5.586   3.092 -1.9301  0.0809  0.4155
 4498TIP3    H235054   3.283   5.477   2.987  0.9646 -0.0336  0.4196
 4499TIP3   OH235055   3.078   4.287   0.754 -0.7527 -0.4198 -0.2344
 4499TIP3    H135056   3.129   4.362   0.726 -2.3877  0.8936  0.1209
 4499TIP3    H235057   3.047   4.247   0.673  1.3519 -1.6945 -0.4917
 4500TIP3   OH235058   4.314   2.746   2.792 -0.0803 -0.7111 -0.0037
 4500TIP3    H135059   4.225   2.774   2.813  0.6650  0.9087  1.1904
 4500TIP3    H235060   4.337   2.684   2.861  0.2408  0.0001  0.5270
 4501TIP3   OH235061   4.814   3.043   2.541  0.1255  0.0066  0.0574
 4501TIP3    H135062   4.846   3.127   2.508  2.1310 -0.0762  1.5996
 4501TIP3    H235063   4.883   3.012   2.600 -1.9235 -1.2258  1.9990
 4502TIP3   OH235064   6.054   1.545   8.611 -0.1561  0.0965 -0.2865
 4502TIP3    H135065   6.045   1.529   8.517  0.2615  0.1747 -0.3409
 4502TIP3    H235066   6.138   1.590   8.620 -0.1259 -0.0373  0.1393
 4503TIP3   OH235067   1.573   1.515   3.020 -0.6843  0.7451 -0.5531
 4503TIP3    H135068   1.559   1.519   2.926  1.0699  0.3423 -0.8698
 4503TIP3    H235069   1.582   1.607   3.046 -0.4260  0.8217 -0.9046
 4504TIP3   OH235070   0.529   5.304   2.478  0.2346 -0.3912 -0.5840
 4504TIP3    H135071   0.527   5.233   2.413 -2.5492 -0.1495 -0.9014
 4504TIP3    H235072   0.617   5.301   2.514  1.0135 -2.3348 -2.4211
 4505TIP3   OH235073   6.339   1.953   0.071 -0.5369 -0.0164  0.2926
 4505TIP3    H135074   6.283   2.023   0.038 -0.9564 -0.0100  0.9959
 4505TIP3    H235075   6.289   1.873   0.057 -0.0047 -0.2046 -0.6278
 4506TIP3   OH235076   0.743   2.470   7.983 -0.0050 -0.0854 -0.8468
 4506TIP3    H135077   0.649   2.458   7.988  0.0876 -0.5953 -0.1555
 4506TIP3    H235078   0.755   2.554   7.939 -0.8051  0.7946  0.5642
 4507TIP3   OH235079   6.388   5.945   1.213 -0.2567 -0.1142  0.1805
 4507TIP3    H135080   6.443   5.875   1.178 -1.2894 -0.2242 -1.3291
 4507TIP3    H235081   6.376   5.922   1.305  1.2266 -0.7226  0.2453
 4508TIP3   OH235082   1.365   3.984   7.911 -0.1425  0.0643 -0.1604
 4508TIP3    H135083   1.287   3.956   7.864  0.5784 -0.9074 -0.8160
 4508TIP3    H235084   1.397   4.060   7.861 -0.0754 -0.1942 -0.5115
 4509TIP3   OH235085   4.479   0.235   2.841  0.0787 -0.6057  0.1992
 4509TIP3    H135086   4.390   0.207   2.817  0.5009 -1.4096 -0.4649
 4509TIP3    H235087   4.473   0.331   2.845 -0.4473 -0.5379 -1.3861
 4510TIP3   OH235088   5.625   3.896   4.060  0.0201 -0.6723  0.3068
 4510TIP3    H135089   5.662   3.947   3.988  0.0741 -0.0065  0.7915
 4510TIP3    H235090   5.568   3.957   4.106 -1.5569 -1.6310 -0.3056
 4511TIP3   OH235091   3.755   4.540   2.545 -0.2441  0.0683 -0.0605
 4511TIP3    H135092   3.663   4.543   2.569 -0.9644 -1.3465 -2.2840
 4511TIP3    H235093   3.792   4.469   2.598 -1.1950 -1.3562 -1.2388
 4512TIP3   OH235094   2.070   6.171   8.579  0.1460  0.3701  0.0790
 4512TIP3    H135095   2.144   6.111   8.569  1.0752  1.5722 -0.5136
 4512TIP3    H235096   1.993   6.113   8.585  1.0176 -0.8792 -0.3140
 4513TIP3   OH235097   3.739   6.345   8.441 -0.3403  0.0575  0.0507
 4513TIP3    H135098   3.801   6.299   8.385  2.0751  1.9830  0.9381
 4513TIP3    H235099   3.661   6.290   8.441  0.6657 -1.5737 -2.6307
 4514TIP3   OH235100   6.793   3.333   1.248 -0.3050 -0.0349 -0.2768
 4514TIP3    H135101   6.820   3.399   1.313 -1.7546 -0.1066  0.4419
 4514TIP3    H235102   6.714   3.294   1.286 -0.7719 -0.5852 -1.7692
 4515TIP3   OH235103   3.806   4.573   1.376 -0.1095 -0.3220 -0.5126
 4515TIP3    H135104   3.854   4.493   1.392  0.5994  0.1997  0.0157
 4515TIP3    H235105   3.715   4.545   1.361  0.4002 -1.3382 -1.8847
 4516TIP3   OH235106   0.434   0.946   8.490  0.0694 -0.3480 -0.0007
 4516TIP3    H135107   0.491   0.986   8.555 -0.5230 -1.6025  1.3450
 4516TIP3    H235108   0.441   0.852   8.507 -2.7687 -0.5221  0.5588
 4517TIP3   OH235109   2.421   2.313   0.728 -0.3182 -0.0550 -0.4118
 4517TIP3    H135110   2.404   2.391   0.781 -1.5723 -2.7167  3.5629
 4517TIP3    H235111   2.506   2.281   0.757 -0.0418 -0.4924 -1.6270
 4518TIP3   OH235112   4.246   4.096   3.604 -0.9350 -0.1127  0.2930
 4518TIP3    H135113   4.189   4.162   3.564 -1.9556 -0.5013  1.0786
 4518TIP3    H235114   4.293   4.144   3.673 -0.4862  0.1487 -0.1880
 4519TIP3   OH235115   5.978   1.037   0.818  0.8093 -0.1825 -0.1702
 4519TIP3    H135116   5.933   1.103   0.872  0.0634 -2.4785  2.2563
 4519TIP3    H235117   6.053   1.010   0.871  1.0880 -1.2586 -1.0815
 4520TIP3   OH235118   1.404   6.800   2.984  0.0533 -0.0702  0.3655
 4520TIP3    H135119   1.352   6.738   2.934  0.0292  0.8341 -0.7646
 4520TIP3    H235120   1.378   6.886   2.951  0.7112  0.5102  1.2921
 4521TIP3   OH235121   5.757   4.521   1.572  0.1705 -0.5799 -0.5413
 4521TIP3    H135122   5.755   4.511   1.477  1.8991 -3.4015 -0.3995
 4521TIP3    H235123   5.839   4.567   1.589  0.5656 -1.3509 -0.3538
 4522TIP3   OH235124   3.725   4.418   1.091 -0.5010  0.2627 -0.3354
 4522TIP3    H135125   3.667   4.403   1.016  0.1508  0.3610 -0.8770
 4522TIP3    H235126   3.669   4.457   1.158 -1.9003 -2.9443  0.5287
 4523TIP3   OH235127   6.096   4.421   0.183  0.7647  0.4490 -0.8574
 4523TIP3    H135128   6.118   4.358   0.114  3.0068  0.6572 -0.4333
 4523TIP3    H235129   6.059   4.496   0.137  0.0066 -0.3426 -1.5732
 4524TIP3   OH235130   3.970   4.913   2.483  0.0712  0.0780 -0.0297
 4524TIP3    H135131   4.043   4.881   2.536  1.2366  1.3424 -0.7961
 4524TIP3    H235132   4.012   4.950   2.405 -1.4091  0.6974 -0.5641
 4525TIP3   OH235133   4.443   5.795   0.379 -0.2386 -0.5246  0.7693
 4525TIP3    H135134   4.370   5.799   0.317  0.4854  2.8619 -0.0197
 4525TIP3    H235135   4.520   5.818   0.328  0.7591 -0.0393  2.4173
 4526TIP3   OH235136   3.435   6.556   0.722  0.2162  0.3574  0.5197
 4526TIP3    H135137   3.423   6.537   0.629 -1.7273 -2.1618  1.1837
 4526TIP3    H235138   3.516   6.509   0.745 -0.1957 -0.4103  0.4311
 4527TIP3   OH235139   5.005   2.476   1.008  0.0177  0.2882 -0.7590
 4527TIP3    H135140   4.969   2.425   1.080  1.2767 -0.3178 -0.5242
 4527TIP3    H235141   4.984   2.426   0.930 -1.2196  0.8722 -0.8286
 4528TIP3   OH235142   5.819   3.555   2.114  1.0606 -0.2988  0.8651
 4528TIP3    H135143   5.892   3.493   2.112  1.8555  0.6389 -0.6476
 4528TIP3    H235144   5.850   3.626   2.170  1.7301  0.5434 -0.5203
 4529TIP3   OH235145   4.478   5.627   8.686  0.2508 -0.1042  0.1648
 4529TIP3    H135146   4.564   5.653   8.719 -0.0976 -0.1979  1.1670
 4529TIP3    H235147   4.469   5.675   8.603  0.9976  0.3990  0.3621
 4530TIP3   OH235148   5.096   5.237   0.471  0.7365 -0.3336 -0.1576
 4530TIP3    H135149   5.071   5.153   0.434  0.7972 -1.0799  1.4226
 4530TIP3    H235150   5.057   5.238   0.558  0.3495  1.4829 -0.3065
 4531TIP3   OH235151   5.514   0.390   2.432 -0.3861 -0.3146  0.0483
 4531TIP3    H135152   5.575   0.326   2.468 -1.6331 -1.3566  0.4180
 4531TIP3    H235153   5.430   0.343   2.429 -1.4225  1.4118  0.6430
 4532TIP3   OH235154   2.541   5.079   2.510 -0.0176 -0.0292 -0.1995
 4532TIP3    H135155   2.539   5.043   2.599  0.8000 -0.8473 -0.4965
 4532TIP3    H235156   2.503   5.166   2.519 -2.0226 -0.8975  0.5662
 4533TIP3   OH235157   2.916   4.169   2.499 -0.3366 -0.0294  0.8881
 4533TIP3    H135158   3.005   4.197   2.520  0.0991 -0.5539 -0.1858
 4533TIP3    H235159   2.898   4.098   2.560  0.0720 -0.0927  0.9381
 4534TIP3   OH235160   2.637   2.044   8.133  0.0077  0.3554  0.3550
 4534TIP3    H135161   2.713   2.101   8.144 -0.7151  1.6626 -1.0073
 4534TIP3    H235162   2.673   1.955   8.130  1.5875  0.9992 -1.2234
 4535TIP3   OH235163   5.039   1.962   3.600 -0.1793 -0.1059 -0.0013
 4535TIP3    H135164   4.965   2.020   3.615  0.5167  0.7251  0.3311
 4535TIP3    H235165   5.116   2.016   3.621  0.4497 -1.4937  1.4619
 4536TIP3   OH235166   5.333   5.565   1.158 -0.1037  0.2818 -0.2153
 4536TIP3    H135167   5.244   5.565   1.123 -1.1791 -5.3487  1.4999
 4536TIP3    H235168   5.326   5.612   1.241 -1.2170  0.7258 -0.5446
 4537TIP3   OH235169   1.263   6.641   2.832 -0.5887 -0.1727 -0.1357
 4537TIP3    H135170   1.212   6.647   2.751  0.1415  0.2373 -0.5757
 4537TIP3    H235171   1.288   6.549   2.838 -2.4286 -0.6835  0.7694
 4538TIP3   OH235172   1.864   4.102   8.259  0.6184 -0.0623 -0.3152
 4538TIP3    H135173   1.894   4.098   8.168 -0.0026 -1.3803 -0.4775
 4538TIP3    H235174   1.816   4.021   8.273 -0.4794  0.7286  0.7872
 4539TIP3   OH235175   2.967   5.470   0.837  0.0494 -0.6658 -0.1953
 4539TIP3    H135176   2.941   5.469   0.930 -0.8814  0.5704 -0.4051
 4539TIP3    H235177   2.908   5.407   0.795  0.0622 -0.7847 -0.0373
 4540TIP3   OH235178   1.125   2.369   8.616  0.3578  0.1566  0.2219
 4540TIP3    H135179   1.072   2.439   8.578 -0.0100  0.7026  1.6651
 4540TIP3    H235180   1.209   2.410   8.636  0.9392 -0.4039 -0.9551
 4541TIP3   OH235181   2.775   2.958   1.537 -0.1955  0.2857 -0.0435
 4541TIP3    H135182   2.868   2.981   1.537 -1.0556  4.6383 -1.0000
 4541TIP3    H235183   2.750   2.963   1.629  0.3471  0.0016  0.1248
 4542TIP3   OH235184   6.787   1.841   8.375  0.5153 -0.1703 -0.2244
 4542TIP3    H135185   6.803   1.870   8.285 -0.9981  0.6352 -0.2624
 4542TIP3    H235186   6.853   1.773   8.390 -0.0559 -1.2912 -2.4165
 4543TIP3   OH235187   3.755   2.757   7.525 -0.0754  0.1244 -0.5428
 4543TIP3    H135188   3.674   2.770   7.575 -1.3806 -0.9750 -2.2523
 4543TIP3    H235189   3.739   2.802   7.441  1.4058  0.5426 -0.6319
 4544TIP3   OH235190   1.425   1.597   2.384 -0.4620 -0.6605 -0.1588
 4544TIP3    H135191   1.341   1.627   2.420 -0.3345 -0.6037  0.0978
 4544TIP3    H235192   1.479   1.676   2.383  0.5263 -1.2067  2.3658
 4545TIP3   OH235193   1.867   1.006   0.734 -0.7495 -0.1623  0.0781
 4545TIP3    H135194   1.833   1.074   0.676 -1.0326  1.2154  1.7818
 4545TIP3    H235195   1.913   1.054   0.803  1.1263 -1.8178  0.0872
 4546TIP3   OH235196   0.042   2.496   0.960 -0.0768 -0.3340 -0.0646
 4546TIP3    H135197   0.099   2.451   0.898 -0.8410  2.5840 -3.2136
 4546TIP3    H235198   0.093   2.571   0.990 -1.2034  0.7542 -0.7449
 4547TIP3   OH235199   3.483   3.469   1.268 -0.4975 -0.5803 -0.4166
 4547TIP3    H135200   3.394   3.455   1.234  0.1642 -0.3926 -2.3326
 4547TIP3    H235201   3.511   3.383   1.299 -0.3423 -1.3087 -2.4220
 4548TIP3   OH235202   6.424   2.059   3.356  0.9404 -0.0701  0.0546
 4548TIP3    H135203   6.346   2.105   3.388  0.2404  0.4115 -2.2003
 4548TIP3    H235204   6.393   1.969   3.341  1.4704 -0.5018  1.3349
 4549TIP3   OH235205   1.881   5.063   8.712  0.0217  0.0975 -0.1580
 4549TIP3    H135206   1.829   5.021   8.643  0.8399  0.7908 -1.2441
 4549TIP3    H235207   1.971   5.043   8.689  0.2886 -0.2900  1.1646
 4550TIP3   OH235208   0.595   0.453   0.433 -0.6146 -0.9082  0.0969
 4550TIP3    H135209   0.667   0.482   0.489 -0.9160 -0.4606  0.2623
 4550TIP3    H235210   0.629   0.461   0.344 -0.7044  0.0298  0.1332
 4551TIP3   OH235211   2.636   6.044   3.199 -0.4990  0.0018 -0.0257
 4551TIP3    H135212   2.720   6.084   3.177  0.5226 -2.0888 -0.1317
 4551TIP3    H235213   2.583   6.054   3.120  0.4105 -0.5532 -0.7228
 4552TIP3   OH235214   0.611   3.426   0.890 -0.0823 -0.3956 -0.4588
 4552TIP3    H135215   0.679   3.467   0.837 -0.8000  1.3869 -0.0833
 4552TIP3    H235216   0.654   3.352   0.931  1.6234  0.6241 -0.3014
 4553TIP3   OH235217   3.352   4.138   8.190 -0.0637 -0.5700  0.2794
 4553TIP3    H135218   3.262   4.156   8.161 -0.2118  0.2775  1.2002
 4553TIP3    H235219   3.342   4.069   8.256 -0.0134 -0.6467  0.2066
 4554TIP3   OH235220   1.867   2.881   1.611 -0.6574 -0.3171 -0.1695
 4554TIP3    H135221   1.820   2.858   1.691  1.3816  1.3841  1.6686
 4554TIP3    H235222   1.911   2.963   1.632  1.2792 -0.6398 -2.4922
 4555TIP3   OH235223   1.118   5.143   2.445  0.0563 -0.3493 -0.2753
 4555TIP3    H135224   1.060   5.149   2.369 -2.2997  0.0637  1.4387
 4555TIP3    H235225   1.158   5.229   2.452 -2.3950  0.7766  0.8731
 4556TIP3   OH235226   2.348   2.241   1.324 -0.2055  0.5530  0.5765
 4556TIP3    H135227   2.282   2.181   1.358  0.4227 -0.1538  0.5553
 4556TIP3    H235228   2.351   2.222   1.230 -0.5745  1.1853  0.4256
 4557TIP3   OH235229   4.178   6.394   1.255 -0.2540 -0.3530  0.7817
 4557TIP3    H135230   4.136   6.318   1.296  1.7082 -1.7152  0.3683
 4557TIP3    H235231   4.193   6.368   1.165 -1.9856  1.5910 -0.1674
 4558TIP3   OH235232   0.353   6.283   3.277 -0.0831  0.6646  0.7798
 4558TIP3    H135233   0.316   6.195   3.267  0.7668  0.4902 -1.1173
 4558TIP3    H235234   0.432   6.269   3.329 -0.5088  0.4715  1.3885
 4559TIP3   OH235235   1.044   3.342   0.687 -0.5589  0.1707 -0.1728
 4559TIP3    H135236   1.058   3.292   0.607 -0.7304  0.6294 -0.4982
 4559TIP3    H235237   1.113   3.409   0.686 -0.9716  0.6058 -0.2947
 4560TIP3   OH235238   1.889   0.416   1.305 -0.5062 -0.4789  0.2343
 4560TIP3    H135239   1.895   0.485   1.240  0.6200  0.4176  1.2368
 4560TIP3    H235240   1.820   0.358   1.273  0.0844 -0.1396 -1.7904
 4561TIP3   OH235241   5.697   2.027   0.991  0.2590  0.0641 -0.0588
 4561TIP3    H135242   5.756   2.076   1.048  0.0042 -1.0288  1.2266
 4561TIP3    H235243   5.747   1.948   0.968  0.7836  1.0137 -2.3386
 4562TIP3   OH235244   0.389   5.991   8.378  0.4573 -0.0138  0.4496
 4562TIP3    H135245   0.328   5.936   8.329  0.3458 -0.5340  1.1643
 4562TIP3    H235246   0.454   6.018   8.313  0.0595 -0.3205 -0.0833
 4563TIP3   OH235247   6.060   3.257   1.151  0.3967  0.1573  0.0703
 4563TIP3    H135248   6.001   3.331   1.135 -0.0217 -0.3014 -0.5665
 4563TIP3    H235249   6.123   3.262   1.079  0.0488 -0.4098 -0.2792
 4564TIP3   OH235250   2.074   0.774   0.816  0.4022  0.2943 -0.5967
 4564TIP3    H135251   2.060   0.767   0.722 -1.3955  0.2828 -0.3507
 4564TIP3    H235252   2.049   0.864   0.837 -1.7776 -0.4498  0.2418
 4565TIP3   OH235253   6.327   5.587   1.111  0.2220 -0.2135 -0.1291
 4565TIP3    H135254   6.357   5.641   1.184 -1.1089 -1.1262  1.1314
 4565TIP3    H235255   6.235   5.570   1.129 -0.6213  0.8999 -2.9008
 4566TIP3   OH235256   2.374   1.334   2.574  0.0416  0.0573  0.2348
 4566TIP3    H135257   2.292   1.306   2.533 -0.4427 -2.6248  2.6866
 4566TIP3    H235258   2.439   1.330   2.503 -1.3705 -0.7882 -1.0708
 4567TIP3   OH235259   4.155   1.038   8.307  0.3286  0.6393  0.7370
 4567TIP3    H135260   4.130   1.043   8.215  0.1167  0.1452  0.7636
 4567TIP3    H235261   4.248   1.062   8.308  0.8661 -1.2428  0.1320
 4568TIP3   OH235262   5.974   3.692   0.919 -0.1911  0.4632  0.5752
 4568TIP3    H135263   6.031   3.762   0.949  0.7088 -0.0714  0.1485
 4568TIP3    H235264   6.013   3.663   0.837 -0.1667 -0.9750  1.0695
 4569TIP3   OH235265   4.014   1.618   1.214  0.2034  0.3193  0.3069
 4569TIP3    H135266   3.928   1.642   1.178  1.2880 -1.4424 -4.2342
 4569TIP3    H235267   3.998   1.605   1.307 -4.7691 -0.9317 -0.4052
 4570TIP3   OH235268   1.732   0.172   1.887 -0.4340  0.3896  0.3254
 4570TIP3    H135269   1.739   0.265   1.907 -1.1211  0.2563  1.2826
 4570TIP3    H235270   1.800   0.156   1.821  1.0548  1.1664  1.5861
 4571TIP3   OH235271   0.272   4.124   0.430  0.0195 -0.2388 -0.1158
 4571TIP3    H135272   0.194   4.110   0.377 -0.4546  0.1827  0.4465
 4571TIP3    H235273   0.256   4.072   0.509  0.3992 -0.3119 -0.0884
 4572TIP3   OH235274   4.530   5.030   1.984 -0.1384 -0.6380 -0.5175
 4572TIP3    H135275   4.570   4.949   2.015  0.7026  0.5749  1.8296
 4572TIP3    H235276   4.446   5.003   1.948  0.5337 -2.6524 -0.6716
 4573TIP3   OH235277   5.181   2.523   2.103 -0.1625 -0.6939 -0.7075
 4573TIP3    H135278   5.116   2.532   2.033  0.4316 -0.3359 -1.2235
 4573TIP3    H235279   5.144   2.572   2.176 -0.1995  0.0261 -1.1985
 4574TIP3   OH235280   4.899   5.587   0.578  0.3426  0.5833 -0.1742
 4574TIP3    H135281   4.929   5.537   0.654  0.5289  1.5275  0.3998
 4574TIP3    H235282   4.977   5.632   0.546 -0.2317  2.3428  0.7757
 4575TIP3   OH235283   4.871   4.812   8.164 -0.4102 -0.0333 -0.0453
 4575TIP3    H135284   4.887   4.880   8.230  1.2459  0.1914 -0.6319
 4575TIP3    H235285   4.932   4.742   8.187 -0.4884 -0.3543 -0.7922
 4576TIP3   OH235286   3.275   2.829   3.444 -0.2414 -0.0789  0.1753
 4576TIP3    H135287   3.218   2.797   3.513 -1.3285 -1.7807 -1.4273
 4576TIP3    H235288   3.221   2.891   3.395  0.1077  0.1419  0.0622
 4577TIP3   OH235289   4.565   3.995   1.166 -0.0929  0.0603  0.5361
 4577TIP3    H135290   4.603   3.957   1.086  0.3968 -2.0570  1.7058
 4577TIP3    H235291   4.610   4.080   1.175 -0.1632  0.3656 -1.4068
 4578TIP3   OH235292   5.128   5.620   7.812  0.2544  0.2876 -0.1534
 4578TIP3    H135293   5.179   5.672   7.875 -1.4769  1.4663  0.3596
 4578TIP3    H235294   5.194   5.583   7.753  1.6690  2.2751  0.0646
 4579TIP3   OH235295   1.632   1.794   3.115  0.2661 -0.0417 -0.1213
 4579TIP3    H135296   1.674   1.837   3.189  1.3290  0.5872 -1.0550
 4579TIP3    H235297   1.599   1.865   3.061 -0.0513 -0.4700 -0.4983
 4580TIP3   OH235298   5.515   5.330   0.231  0.0694  0.3722  0.2311
 4580TIP3    H135299   5.443   5.350   0.292 -0.6235 -0.6381 -0.2213
 4580TIP3    H235300   5.576   5.278   0.283 -1.2741 -1.8493 -0.2778
 4581TIP3   OH235301   3.973   1.086   2.148  0.1689  0.3361  0.4114
 4581TIP3    H135302   3.981   0.991   2.152 -0.1482  0.2692 -0.3158
 4581TIP3    H235303   4.053   1.119   2.188 -1.0505 -0.1962  3.6108
 4582TIP3   OH235304   2.654   0.143   3.687 -0.4980 -0.1094 -0.6362
 4582TIP3    H135305   2.666   0.066   3.632 -0.4347  0.2313 -1.1024
 4582TIP3    H235306   2.695   0.215   3.638 -0.7835  0.2710 -0.3249
 4583TIP3   OH235307   2.836   2.388   8.575 -0.0220  0.1013 -0.6979
 4583TIP3    H135308   2.876   2.449   8.636 -0.8449 -0.2772  0.2533
 4583TIP3    H235309   2.819   2.310   8.627 -0.4286 -0.3613 -1.5014
 4584TIP3   OH235310   3.050   1.923   0.479  0.0791  0.1038 -0.7571
 4584TIP3    H135311   2.969   1.929   0.529  0.6351  0.6012  0.1004
 4584TIP3    H235312   3.103   1.858   0.525 -0.4080 -1.3759 -2.1797
 4585TIP3   OH235313   0.727   1.663   0.326 -0.4418  0.4357  0.1654
 4585TIP3    H135314   0.703   1.716   0.250 -1.7241  1.4789  1.2352
 4585TIP3    H235315   0.793   1.716   0.372 -0.8192  0.5546  0.5830
 4586TIP3   OH235316   6.099   1.863   0.376 -0.4766  0.1876  0.5423
 4586TIP3    H135317   6.120   1.797   0.309  0.5926 -0.4216  1.4365
 4586TIP3    H235318   6.085   1.944   0.327 -2.0089 -0.7173 -0.6076
 4587TIP3   OH235319   4.232   2.184   1.014 -0.0622 -0.8743  0.2566
 4587TIP3    H135320   4.326   2.184   1.028  0.4061 -2.8848 -2.2281
 4587TIP3    H235321   4.196   2.144   1.093  1.1217 -0.1393  1.2030
 4588TIP3   OH235322   6.449   0.836   2.645 -0.1781 -0.1266 -0.7992
 4588TIP3    H135323   6.458   0.931   2.633  0.7576 -0.3633 -2.3668
 4588TIP3    H235324   6.539   0.804   2.645 -0.4401 -0.9405  0.7286
 4589TIP3   OH235325   2.584   6.135   8.600  0.2828 -0.2840  0.0891
 4589TIP3    H135326   2.579   6.164   8.509  0.4581  0.0418  0.1841
 4589TIP3    H235327   2.677   6.119   8.615  0.1838 -0.9254  0.0291
 4590TIP3   OH235328   3.257   1.811   0.773  0.6896  0.2406  0.2995
 4590TIP3    H135329   3.178   1.777   0.731  0.6908  1.0528 -0.3991
 4590TIP3    H235330   3.259   1.768   0.858  0.0548 -0.5676 -0.0804
 4591TIP3   OH235331   1.284   1.840   3.254  0.3096  0.5325 -0.0671
 4591TIP3    H135332   1.264   1.870   3.166 -1.6720 -0.8785 -0.1567
 4591TIP3    H235333   1.350   1.902   3.286  1.4130  0.8179 -2.6546
 4592TIP3   OH235334   5.768   1.611   8.697  0.1903 -0.7035 -0.2040
 4592TIP3    H135335   5.724   1.546   8.642  0.4209 -1.8769  0.9513
 4592TIP3    H235336   5.855   1.573   8.714  0.4434  0.0522  0.2290
 4593TIP3   OH235337   2.201   2.749   8.081  0.3117  0.1679 -0.1835
 4593TIP3    H135338   2.255   2.795   8.018 -0.5461  1.9215  0.3141
 4593TIP3    H235339   2.159   2.679   8.030  1.3321  0.1396 -1.0245
 4594TIP3   OH235340   0.773   2.652   0.579 -0.8112 -0.4448 -0.3849
 4594TIP3    H135341   0.823   2.641   0.497 -1.0630 -2.8247 -0.2857
 4594TIP3    H235342   0.690   2.609   0.562 -1.1554 -0.3181  0.8954
 4595TIP3   OH235343   0.974   6.635   0.761  0.0450 -0.2644  1.2769
 4595TIP3    H135344   1.012   6.588   0.835  0.7844  0.5893  1.4573
 4595TIP3    H235345   0.976   6.727   0.787  0.8554  0.1133 -0.0304
 4596TIP3   OH235346   4.153   0.977   0.969  0.4571  0.7127  0.2028
 4596TIP3    H135347   4.097   0.961   0.894 -0.2883 -0.1081  0.9094
 4596TIP3    H235348   4.206   0.898   0.977  1.5202  1.3436 -0.2580
 4597TIP3   OH235349   1.493   0.387   0.476  0.4013 -0.1287  0.4907
 4597TIP3    H135350   1.536   0.306   0.506  0.3519 -0.0825  0.6819
 4597TIP3    H235351   1.404   0.360   0.453  0.8947 -0.5031 -1.1650
 4598TIP3   OH235352   3.753   6.602   0.191 -0.1942 -0.2940  0.4600
 4598TIP3    H135353   3.811   6.533   0.159  0.5026  0.7859 -0.6926
 4598TIP3    H235354   3.723   6.646   0.112  0.4402  1.5553  1.1942
 4599TIP3   OH235355   2.986   1.197   1.984  0.2788 -0.7798 -0.0021
 4599TIP3    H135356   2.998   1.102   1.987  0.8891 -0.8494 -2.4771
 4599TIP3    H235357   2.945   1.214   1.899 -0.4083  1.1328  0.6474
 4600TIP3   OH235358   4.785   1.662   4.065  0.2741 -0.2979  0.0046
 4600TIP3    H135359   4.813   1.624   3.982  0.3940  1.2628 -0.6980
 4600TIP3    H235360   4.861   1.655   4.122  1.1649  1.1730 -0.9347
 4601TIP3   OH235361   3.463   0.476   1.963 -0.2226 -0.0478  0.6139
 4601TIP3    H135362   3.398   0.539   1.931 -0.5606 -0.8366 -0.3032
 4601TIP3    H235363   3.415   0.419   2.022 -0.0943  0.0670  0.8314
 4602TIP3   OH235364   2.113   2.062   3.449  0.0122 -0.1615  0.3123
 4602TIP3    H135365   2.098   1.987   3.506 -2.0798 -0.0901 -0.0835
 4602TIP3    H235366   2.026   2.094   3.427  0.8293  2.5579  0.6576
 4603TIP3   OH235367   5.050   6.050   8.370  0.0846  0.7231  0.5014
 4603TIP3    H135368   4.972   6.100   8.346  0.8365  1.2898 -0.9293
 4603TIP3    H235369   5.116   6.116   8.389  0.6489  0.2726  0.1532
 4604TIP3   OH235370   1.907   1.635   1.246  0.2809 -0.4357 -0.0211
 4604TIP3    H135371   1.871   1.593   1.324  1.1030 -0.7759  0.1861
 4604TIP3    H235372   1.923   1.562   1.185 -0.0242 -0.2114 -0.3724
 4605TIP3   OH235373   3.842   1.326   2.424  0.2217 -0.0829 -0.2715
 4605TIP3    H135374   3.924   1.342   2.377  0.9275  0.0853  0.9726
 4605TIP3    H235375   3.860   1.248   2.477 -1.2859 -1.6249 -1.8974
 4606TIP3   OH235376   1.003   5.376   8.098 -0.2526 -0.0873 -0.0571
 4606TIP3    H135377   1.074   5.395   8.036 -0.6232  0.5473 -0.2926
 4606TIP3    H235378   0.924   5.379   8.045 -0.7469  1.9852  0.6860
 4607TIP3   OH235379   0.494   4.340   0.987 -0.5527 -0.1060 -0.0003
 4607TIP3    H135380   0.403   4.316   1.002 -1.0184  0.5643 -1.5409
 4607TIP3    H235381   0.506   4.328   0.893  0.6525  0.8141  0.0148
 4608TIP3   OH235382   5.297   4.018   3.456  0.4550  0.3103  0.5001
 4608TIP3    H135383   5.311   3.932   3.416  0.5689  0.2228  0.7248
 4608TIP3    H235384   5.382   4.042   3.493  0.1988  0.0767  1.2775
 4609TIP3   OH235385   5.635   6.105   7.969 -0.0083 -0.0193  0.4125
 4609TIP3    H135386   5.567   6.057   8.015  0.9626  0.5030  2.5428
 4609TIP3    H235387   5.588   6.169   7.915 -1.2168 -0.4868  0.8841
 4610TIP3   OH235388   3.462   5.528   2.359  0.3742  0.0506 -0.4373
 4610TIP3    H135389   3.453   5.611   2.313  1.1643  0.0041 -0.6944
 4610TIP3    H235390   3.485   5.465   2.291  0.0969 -0.3123 -0.1985
 4611TIP3   OH235391   4.328   0.718   8.525 -0.4476  0.4338  0.9415
 4611TIP3    H135392   4.351   0.626   8.536 -0.5050  0.2712 -0.1989
 4611TIP3    H235393   4.257   0.718   8.461  0.2940  1.3389  0.0804
 4612TIP3   OH235394   1.398   5.075   7.843 -0.3939 -0.9227  0.1252
 4612TIP3    H135395   1.336   5.124   7.788  0.2866  0.7290  0.7530
 4612TIP3    H235396   1.474   5.133   7.850 -0.4552 -1.0738  2.7895
 4613TIP3   OH235397   1.084   3.832   3.095  0.1414 -0.0877 -0.3465
 4613TIP3    H135398   1.128   3.748   3.079 -1.6326 -0.8302 -1.8104
 4613TIP3    H235399   1.018   3.812   3.161 -0.6805 -0.0362 -1.1233
 4614TIP3   OH235400   5.691   5.894   2.077  0.1780  0.7721 -0.1504
 4614TIP3    H135401   5.782   5.877   2.104  0.6017  3.1775  0.1120
 4614TIP3    H235402   5.693   5.983   2.042 -1.6679  0.0799 -2.2083
 4615TIP3   OH235403   1.492   0.211   2.234  0.0983 -0.3047  0.0549
 4615TIP3    H135404   1.493   0.135   2.175  0.6216 -0.8882  0.8010
 4615TIP3    H235405   1.565   0.266   2.203 -1.5290  0.9455 -1.7861
 4616TIP3   OH235406   0.064   4.499   8.235 -0.0905 -0.0692 -0.3054
 4616TIP3    H135407   0.110   4.537   8.310  1.2691 -1.5438 -0.3381
 4616TIP3    H235408   0.058   4.405   8.255 -0.5664 -0.3442 -1.6001
 4617TIP3   OH235409   4.047   3.208   2.769  0.4168  0.8602  0.4785
 4617TIP3    H135410   4.018   3.176   2.855 -0.1570  0.9627  0.3309
 4617TIP3    H235411   4.082   3.295   2.786  1.1010  0.5392  0.7378
 4618TIP3   OH235412   0.767   6.731   2.334  0.0341  0.5224 -0.3615
 4618TIP3    H135413   0.672   6.734   2.325  0.1090 -0.3011 -1.7611
 4618TIP3    H235414   0.784   6.764   2.422 -1.5249  0.9089 -0.1759
 4619TIP3   OH235415   5.834   4.087   7.833 -0.0458  0.4560  0.0145
 4619TIP3    H135416   5.882   4.055   7.910  1.2094  0.4686 -0.7437
 4619TIP3    H235417   5.821   4.180   7.850 -2.8540 -0.1446  1.7819
 4620TIP3   OH235418   6.284   2.071   1.447  0.4502 -0.3541  0.1954
 4620TIP3    H135419   6.288   2.024   1.530 -1.5272  0.1453  0.6201
 4620TIP3    H235420   6.192   2.068   1.422  1.0355 -0.6706 -2.1051
 4621TIP3   OH235421   0.080   0.157   8.665 -0.0032 -0.2592 -0.2610
 4621TIP3    H135422   0.131   0.237   8.671  1.9048 -1.4766  0.4870
 4621TIP3    H235423  -0.010   0.187   8.652  0.6222  1.9826  0.2106
 4622TIP3   OH235424   6.169   4.190   7.698 -0.2666  0.1803 -0.3883
 4622TIP3    H135425   6.129   4.276   7.712  0.4102  0.2049  1.8909
 4622TIP3    H235426   6.262   4.205   7.712 -0.1811 -0.9706  0.4203
 4623TIP3   OH235427   1.708   2.799   3.368  0.1257  0.0953 -0.5480
 4623TIP3    H135428   1.613   2.801   3.359  0.1704 -0.3721 -1.1564
 4623TIP3    H235429   1.726   2.720   3.419  0.3630 -1.5283 -3.0069
 4624TIP3   OH235430   0.813   6.108   1.703 -0.3761  0.4854  0.8403
 4624TIP3    H135431   0.877   6.163   1.749 -1.7661  1.1989  2.0348
 4624TIP3    H235432   0.739   6.166   1.688 -1.1436 -0.5835  0.4027
 4625TIP3   OH235433   6.662   3.582   0.964 -0.0693  0.2146 -0.2045
 4625TIP3    H135434   6.601   3.627   1.023 -0.9480 -0.8618 -0.2569
 4625TIP3    H235435   6.723   3.537   1.022 -0.7203 -0.5560 -0.0925
 4626TIP3   OH235436   2.215   4.677   0.357  0.0328  0.0245  0.6148
 4626TIP3    H135437   2.136   4.647   0.402 -0.0609  0.9286  1.0702
 4626TIP3    H235438   2.276   4.699   0.427  0.9025 -1.1587  0.2681
 4627TIP3   OH235439   4.936   3.901   0.049 -0.0877 -0.2319  0.3158
 4627TIP3    H135440   4.968   3.943  -0.031 -1.7493 -1.6721 -1.1997
 4627TIP3    H235441   4.871   3.963   0.084  1.5642  0.9999  1.3500
 4628TIP3   OH235442   5.080   1.835   1.013  0.4586  0.5931 -0.0632
 4628TIP3    H135443   5.073   1.741   0.999  2.4623  0.2472  0.9570
 4628TIP3    H235444   5.173   1.850   1.031 -0.3493  2.1524  3.8271
 4629TIP3   OH235445   1.574   0.995   1.100  0.1572 -0.2222 -0.3073
 4629TIP3    H135446   1.640   0.937   1.137  1.8154  0.4170 -2.0799
 4629TIP3    H235447   1.550   0.954   1.017 -1.2355 -0.1054  0.0156
 4630TIP3   OH235448   3.973   6.565   0.785 -0.3440 -0.0700  0.3449
 4630TIP3    H135449   3.923   6.633   0.740  0.4421 -0.0730 -0.5696
 4630TIP3    H235450   3.988   6.498   0.718  1.6272  0.3332  0.3130
 4631TIP3   OH235451   1.513   0.593   2.026 -0.1958 -0.0456  0.2930
 4631TIP3    H135452   1.502   0.557   2.114  0.0601  0.2330  0.4407
 4631TIP3    H235453   1.424   0.601   1.993 -0.2365 -3.6524 -0.9284
 4632TIP3   OH235454   0.887   5.821   0.876  0.4226  0.3815  0.1710
 4632TIP3    H135455   0.883   5.888   0.807 -1.6203  0.5649  0.4107
 4632TIP3    H235456   0.869   5.739   0.830  0.0236  0.3782  0.3335
 4633TIP3   OH235457   0.332   2.369   2.007  0.2889  0.0863  0.1916
 4633TIP3    H135458   0.410   2.406   2.049  1.5171 -1.4011 -0.6581
 4633TIP3    H235459   0.300   2.439   1.951 -0.5440  1.6065  2.4397
 4634TIP3   OH235460   1.317   6.201   0.688 -0.2830 -0.0167 -0.5509
 4634TIP3    H135461   1.319   6.106   0.694  2.2761 -0.0397 -0.8439
 4634TIP3    H235462   1.225   6.222   0.670 -1.1579 -2.3031  0.8475
 4635TIP3   OH235463   1.254   3.692   2.456 -0.0192 -0.3628  0.1966
 4635TIP3    H135464   1.297   3.659   2.535  0.2011 -1.2275 -0.2668
 4635TIP3    H235465   1.181   3.745   2.488  0.4287 -0.2103  0.9764
 4636TIP3   OH235466   3.638   1.047   0.475  0.1992  0.6887 -0.2895
 4636TIP3    H135467   3.709   1.110   0.488  1.3843 -0.5836 -0.4364
 4636TIP3    H235468   3.680   0.970   0.437 -1.7056  0.9978 -3.4465
 4637TIP3   OH235469   3.329   6.329   2.386  0.2461  0.3829 -0.2082
 4637TIP3    H135470   3.321   6.234   2.378 -2.6625  0.4575  0.6910
 4637TIP3    H235471   3.374   6.342   2.469  0.6015 -0.1998 -0.2984
 4638TIP3   OH235472   6.675   0.921   0.040  0.2683 -0.2627 -0.0156
 4638TIP3    H135473   6.771   0.927   0.049  0.4283 -0.4348 -1.3748
 4638TIP3    H235474   6.660   0.832   0.008 -0.3303 -0.1678  0.0076
 4639TIP3   OH235475   6.336   0.066   2.046  0.1430  0.2237 -0.0563
 4639TIP3    H135476   6.398   0.130   2.012  0.5060 -0.2530 -0.2861
 4639TIP3    H235477   6.340  -0.008   1.985  0.1350 -0.2538  0.5100
 4640TIP3   OH235478   3.161   6.414   0.011  0.1777  0.2626 -0.3294
 4640TIP3    H135479   3.150   6.330  -0.034 -1.1185  0.7652 -1.0125
 4640TIP3    H235480   3.136   6.397   0.101  1.5407 -0.4579 -0.0603
 4641TIP3   OH235481   2.284   4.782   3.347  0.1374  0.2261  0.2541
 4641TIP3    H135482   2.253   4.710   3.401 -1.3822  0.3826 -0.3783
 4641TIP3    H235483   2.223   4.853   3.363  1.0885  1.0848  0.1745
 4642TIP3   OH235484   4.613   3.040   1.340 -0.3105  0.5145  0.5334
 4642TIP3    H135485   4.571   3.121   1.310 -1.3553  0.0255  0.6480
 4642TIP3    H235486   4.707   3.056   1.327 -0.6348  0.2678 -3.3007
 4643TIP3   OH235487   0.225   1.351   8.309 -0.1386 -0.7318  0.3247
 4643TIP3    H135488   0.144   1.401   8.299  0.3278  0.0825  0.5079
 4643TIP3    H235489   0.230   1.296   8.231 -0.6374 -0.4482  0.0959
 4644TIP3   OH235490   1.705   4.316   2.503 -0.5088  0.0789  0.3855
 4644TIP3    H135491   1.699   4.409   2.480  1.8148  0.3171  0.5100
 4644TIP3    H235492   1.762   4.278   2.435 -0.3846 -0.9823  1.0597
 4645TIP3   OH235493   1.436   2.713   0.958  0.4647  0.5793 -0.0541
 4645TIP3    H135494   1.473   2.786   1.007 -1.6023 -0.1689  2.8692
 4645TIP3    H235495   1.494   2.640   0.975  0.1980  0.5196  0.5972
 4646TIP3   OH235496   2.736   5.387   8.309 -0.6289  0.1558  0.0502
 4646TIP3    H135497   2.794   5.386   8.385  0.6479  0.0762 -0.8926
 4646TIP3    H235498   2.748   5.473   8.269 -1.5799  0.3443  0.1262
 4647TIP3   OH235499   5.730   3.748   0.775  0.2809  0.9366 -0.0862
 4647TIP3    H135500   5.805   3.734   0.832  0.8027  0.5891 -0.8501
 4647TIP3    H235501   5.714   3.843   0.780 -0.1627  0.8116  1.2149
 4648TIP3   OH235502   2.099   4.406   2.953 -0.4187  0.5152 -0.1370
 4648TIP3    H135503   2.079   4.438   3.041  0.2001 -2.2171  1.1150
 4648TIP3    H235504   2.020   4.359   2.925  0.0107 -0.1884 -0.2174
 4649TIP3   OH235505   6.681   2.555   1.601 -0.1748 -0.4982 -0.5508
 4649TIP3    H135506   6.649   2.582   1.515  0.1637 -0.2271 -0.5959
 4649TIP3    H235507   6.773   2.533   1.586  0.1205  0.3782 -0.0966
 4650TIP3   OH235508   5.793   5.974   1.163  0.4167 -0.5665 -0.1836
 4650TIP3    H135509   5.773   5.999   1.254  0.1911 -0.7230 -0.1903
 4650TIP3    H235510   5.889   5.972   1.160  0.4370  0.2582 -0.1734
 4651TIP3   OH235511   4.285   1.885   0.928  0.1216 -0.3744 -0.4017
 4651TIP3    H135512   4.351   1.824   0.964  1.5663  1.5325  0.3638
 4651TIP3    H235513   4.241   1.920   1.005  2.7440  3.2095 -0.3088
 4652TIP3   OH235514   5.239   1.086   2.560 -0.7378  0.0549  0.6407
 4652TIP3    H135515   5.313   1.027   2.562 -1.9706 -1.7070 -1.2615
 4652TIP3    H235516   5.277   1.171   2.536  0.7242 -0.6853  0.2121
 4653TIP3   OH235517   5.204   6.539   0.812  0.6577 -0.1784  0.2379
 4653TIP3    H135518   5.167   6.588   0.886  1.0980 -1.3777  1.2844
 4653TIP3    H235519   5.192   6.597   0.737 -0.6237  0.7021  1.0802
 4654TIP3   OH235520   5.293   2.553   8.266  0.1285 -0.3509  0.1806
 4654TIP3    H135521   5.219   2.499   8.241 -0.2101  0.3471 -0.3409
 4654TIP3    H235522   5.266   2.642   8.246 -0.2082  0.3047  3.0315
 4655TIP3   OH235523   2.781   5.560   7.899  0.0775 -0.4612 -0.3779
 4655TIP3    H135524   2.842   5.532   7.967 -0.5728 -0.2333  0.3172
 4655TIP3    H235525   2.753   5.647   7.926  0.4426 -0.0168 -1.3859
 4656TIP3   OH235526   5.953   0.453   2.997  0.0444  0.4501  0.3068
 4656TIP3    H135527   5.874   0.403   3.017  0.6544 -0.0203  1.7085
 4656TIP3    H235528   5.986   0.481   3.082  3.3376 -2.4276  0.2080
 4657TIP3   OH235529   1.068   0.499   2.586  0.1219  0.8004  0.1952
 4657TIP3    H135530   1.151   0.469   2.622  0.1119  0.1603 -0.2918
 4657TIP3    H235531   1.043   0.431   2.523  0.9911  2.6291 -2.3025
 4658TIP3   OH235532   1.649   1.054   7.725  0.2484 -0.1997 -0.4815
 4658TIP3    H135533   1.558   1.052   7.756 -0.1339  0.8748 -1.4678
 4658TIP3    H235534   1.674   0.962   7.718 -0.8132 -0.5087 -0.3388
 4659TIP3   OH235535   0.296   2.280   3.760 -0.7490  0.0003 -0.2284
 4659TIP3    H135536   0.276   2.187   3.771  0.5938 -0.4703 -1.3873
 4659TIP3    H235537   0.355   2.301   3.833  0.0569 -0.4545 -0.7239
 4660TIP3   OH235538   2.384   1.842   3.563 -0.0569 -0.1575 -0.5215
 4660TIP3    H135539   2.448   1.909   3.587  0.6883 -0.8322 -0.5756
 4660TIP3    H235540   2.342   1.818   3.646  0.4023 -0.3474 -0.3385
 4661TIP3   OH235541   5.404   6.040   3.035  0.1594  0.2792  0.1667
 4661TIP3    H135542   5.469   6.109   3.047 -2.2153  2.5718  0.9269
 4661TIP3    H235543   5.391   6.035   2.941  0.3501  0.9075  0.1006
 4662TIP3   OH235544   5.311   6.607   1.988  0.3122 -0.3377  0.1531
 4662TIP3    H135545   5.384   6.668   2.000  0.6191 -0.5943 -0.4083
 4662TIP3    H235546   5.349   6.531   1.945  0.3577 -1.8445  2.6575
 4663TIP3   OH235547   6.306   0.728   8.013  0.7120 -0.1609 -0.5318
 4663TIP3    H135548   6.277   0.817   7.994 -0.6246 -0.8498 -1.8678
 4663TIP3    H235549   6.399   0.728   7.991  0.8621  1.0409  0.0288
 4664TIP3   OH235550   4.420   3.604   7.840 -0.2388  0.3109 -0.0221
 4664TIP3    H135551   4.449   3.657   7.765 -1.2564  0.7561 -0.1264
 4664TIP3    H235552   4.349   3.550   7.805 -0.3447  0.1148  0.4846
 4665TIP3   OH235553   6.439   1.703   0.538  0.2277  0.3540 -0.2766
 4665TIP3    H135554   6.441   1.754   0.458 -2.7455  1.5594  0.2827
 4665TIP3    H235555   6.375   1.634   0.522  0.2588  0.0647  0.7301
 4666TIP3   OH235556   0.539   1.038   1.537  0.6926  0.1210 -0.1487
 4666TIP3    H135557   0.587   1.089   1.602 -0.9336 -0.6783  1.7850
 4666TIP3    H235558   0.519   1.100   1.467  1.9602  1.1650  0.3672
 4667TIP3   OH235559   1.082   6.630   2.579  0.1276 -1.1201  0.0565
 4667TIP3    H135560   1.018   6.601   2.645  0.6180  0.3853  1.2521
 4667TIP3    H235561   1.084   6.725   2.589  0.9916 -0.9582 -1.4518
 4668TIP3   OH235562   1.695   5.813   2.519  0.3569  0.0587  0.2035
 4668TIP3    H135563   1.638   5.756   2.571  1.1161  0.4193  1.4691
 4668TIP3    H235564   1.640   5.890   2.500  0.1227  0.0033  0.6332
 4669TIP3   OH235565   6.227   5.587   8.606  0.4261 -0.3348  0.1613
 4669TIP3    H135566   6.163   5.630   8.663  1.5918  1.7428  0.0035
 4669TIP3    H235567   6.312   5.611   8.644  1.1710 -0.6245 -1.2765
 4670TIP3   OH235568   4.653   5.685   8.347 -0.3404  0.0139 -0.1401
 4670TIP3    H135569   4.645   5.738   8.267 -0.2148  0.0337 -0.1383
 4670TIP3    H235570   4.597   5.730   8.411  0.9837  1.0255  0.3393
 4671TIP3   OH235571   1.214   4.299   4.060  0.4117  0.6236  0.3388
 4671TIP3    H135572   1.279   4.275   3.994 -0.6590 -0.4732 -0.3406
 4671TIP3    H235573   1.151   4.227   4.060 -1.9157  2.5130 -0.4534
 4672TIP3   OH235574   2.956   4.535   1.847  0.2518 -0.1169  0.3256
 4672TIP3    H135575   2.932   4.450   1.884 -0.7837  0.4042  0.9116
 4672TIP3    H235576   3.006   4.578   1.916  1.4976 -0.5485 -0.2774
 4673TIP3   OH235577   6.064   5.495   1.069  0.4616 -0.0776 -0.9866
 4673TIP3    H135578   6.049   5.434   1.141  1.1936 -1.0667 -1.6479
 4673TIP3    H235579   5.976   5.514   1.035 -0.0327  1.5421  1.0419
 4674TIP3   OH235580   0.078   6.237   3.629 -0.3366 -0.0719 -0.1926
 4674TIP3    H135581   0.126   6.154   3.625 -0.0401  0.1050 -0.3555
 4674TIP3    H235582   0.044   6.248   3.540 -1.0809 -0.4312  0.0432
 4675TIP3   OH235583   1.155   5.663   1.676 -0.0750 -0.1640 -0.1420
 4675TIP3    H135584   1.107   5.666   1.594 -0.0441 -0.0291 -0.1569
 4675TIP3    H235585   1.148   5.573   1.706  1.8287 -0.7933 -1.4252
 4676TIP3   OH235586   3.933   3.715   7.654 -0.8065 -0.3576  0.4757
 4676TIP3    H135587   3.900   3.726   7.743 -0.7356 -0.6884  0.5438
 4676TIP3    H235588   3.893   3.787   7.605 -0.7220 -0.0848  0.8078
 4677TIP3   OH235589   6.319   0.922   1.279 -0.1515  0.3705 -0.0442
 4677TIP3    H135590   6.350   0.977   1.207 -2.1937  0.6729 -0.7418
 4677TIP3    H235591   6.225   0.914   1.265 -0.1343 -2.2050  0.8125
 4678TIP3   OH235592   6.449   0.484   8.297  0.4291 -0.5025 -0.2606
 4678TIP3    H135593   6.377   0.546   8.287  0.3951 -0.7737 -2.2837
 4678TIP3    H235594   6.519   0.536   8.337 -0.5654  0.0063  0.8731
 4679TIP3   OH235595   5.972   6.617   1.771 -0.3756 -0.0808 -0.3411
 4679TIP3    H135596   5.884   6.584   1.792  0.5728 -1.7644  1.3731
 4679TIP3    H235597   6.000   6.663   1.850  1.4797 -2.4168  0.4921
 4680TIP3   OH235598   4.125   6.714   0.954 -0.0500  0.0837  0.2579
 4680TIP3    H135599   4.119   6.648   0.886  1.2182  1.1723 -0.9862
 4680TIP3    H235600   4.068   6.785   0.924  0.5047  0.5619  0.3013
 4681TIP3   OH235601   6.153   0.383   8.573  0.2483 -0.8202  0.1539
 4681TIP3    H135602   6.177   0.353   8.661 -0.9185  0.0944  0.8110
 4681TIP3    H235603   6.179   0.475   8.570  0.1636 -0.8086 -0.4267
 4682TIP3   OH235604   5.212   5.969   1.628 -0.1141 -0.0615 -0.0779
 4682TIP3    H135605   5.165   5.925   1.699  0.9993 -2.6918 -0.8704
 4682TIP3    H235606   5.304   5.962   1.652  0.2242 -0.2195 -1.3574
 4683TIP3   OH235607   5.570   5.362   1.320 -0.3131 -0.4935 -0.4976
 4683TIP3    H135608   5.482   5.363   1.284 -0.9190 -0.1886  0.9334
 4683TIP3    H235609   5.607   5.447   1.296 -1.5564  0.7075  1.4953
 4684TIP3   OH235610   1.346   6.280   0.944  0.1242 -0.3003 -0.3743
 4684TIP3    H135611   1.346   6.375   0.937 -0.7569 -0.3493 -1.1963
 4684TIP3    H235612   1.327   6.249   0.855 -0.1268 -1.2331 -0.0091
 4685TIP3   OH235613   5.090   2.110   1.029 -0.3984  0.0368  0.1945
 4685TIP3    H135614   5.092   2.022   1.066 -0.8449 -0.5217 -1.0469
 4685TIP3    H235615   5.035   2.102   0.951  0.9051  1.0457 -0.8761
 4686TIP3   OH235616   1.365   3.876   1.261 -0.2068  0.2947 -0.3931
 4686TIP3    H135617   1.291   3.881   1.199 -1.9152  0.3874  1.5290
 4686TIP3    H235618   1.331   3.918   1.340  0.1602 -3.7715  2.2082
 4687TIP3   OH235619   6.292   4.891   0.232  0.0814 -0.7381 -0.1228
 4687TIP3    H135620   6.215   4.836   0.236  1.6226 -3.1640 -1.3681
 4687TIP3    H235621   6.332   4.870   0.147  2.0526  0.4832  0.4319
 4688TIP3   OH235622   2.017   2.066   1.240 -0.5446 -0.2754  0.3347
 4688TIP3    H135623   1.958   1.994   1.262  0.9997 -1.7440 -0.1192
 4688TIP3    H235624   2.096   2.049   1.291  0.5513  0.0435 -1.1959
 4689TIP3   OH235625   2.107   3.324   2.194 -0.6247  0.0298 -0.0730
 4689TIP3    H135626   2.140   3.250   2.245  0.2990  0.1122 -0.5403
 4689TIP3    H235627   2.165   3.396   2.216 -1.6377  0.6967  0.5353
 4690TIP3   OH235628   5.766   1.189   0.234  0.0438  0.9352 -0.7451
 4690TIP3    H135629   5.763   1.271   0.283 -0.2549  2.2079 -2.7827
 4690TIP3    H235630   5.849   1.192   0.186  0.5337 -0.4745 -0.0494
 4691TIP3   OH235631   3.138   1.103   0.467  0.3094  0.4222  0.6413
 4691TIP3    H135632   3.215   1.048   0.450 -0.1371 -0.2618  0.7986
 4691TIP3    H235633   3.139   1.117   0.562 -0.2596 -0.3552  0.7739
 4692TIP3   OH235634   3.106   1.961   0.090  0.2374 -0.7115 -0.3006
 4692TIP3    H135635   3.013   1.938   0.097  0.3033 -0.9213 -0.1187
 4692TIP3    H235636   3.115   1.995   0.001 -0.5799  1.8490  0.5252
 4693TIP3   OH235637   5.677   2.432   8.623  0.4110  0.6947  0.3562
 4693TIP3    H135638   5.608   2.473   8.675  0.0516 -1.7773  2.0127
 4693TIP3    H235639   5.646   2.435   8.533 -1.9423 -0.3963  1.0619
 4694TIP3   OH235640   0.950   5.124   2.037  0.7062  0.3114  0.2952
 4694TIP3    H135641   0.974   5.037   2.068  0.1518  0.2296  0.5150
 4694TIP3    H235642   0.962   5.120   1.942  0.2027 -0.1620  0.2481
 4695TIP3   OH235643   4.512   3.192   8.546 -0.1703 -0.7461  0.5669
 4695TIP3    H135644   4.530   3.104   8.512  0.1259 -0.8999  1.1172
 4695TIP3    H235645   4.476   3.178   8.633  0.6678 -0.3010  1.0053
 4696TIP3   OH235646   5.475   4.328   1.954  0.0461 -0.3431  0.9019
 4696TIP3    H135647   5.404   4.306   2.014 -1.0847  0.3911 -0.1144
 4696TIP3    H235648   5.482   4.423   1.959  0.6972 -0.3752  0.6994
 4697TIP3   OH235649   3.337   4.165   0.827 -0.5282  0.3075 -0.2440
 4697TIP3    H135650   3.301   4.114   0.755 -0.4921  1.4264 -1.0805
 4697TIP3    H235651   3.260   4.205   0.868 -0.5157 -0.0172  0.0965
 4698TIP3   OH235652   1.035   3.162   8.400 -0.8019  0.0775  0.0852
 4698TIP3    H135653   1.087   3.227   8.447  0.2758 -0.2795 -0.5794
 4698TIP3    H235654   0.971   3.215   8.351 -1.1379  0.5134  0.9773
 4699TIP3   OH235655   2.835   0.642   2.055 -0.0456  0.0116  0.0967
 4699TIP3    H135656   2.872   0.653   2.142  0.8075  1.7213 -0.4270
 4699TIP3    H235657   2.755   0.696   2.056  0.3809  0.6698 -0.3945
 4700TIP3   OH235658   1.243   5.076   2.126 -0.2770  0.2582 -0.4156
 4700TIP3    H135659   1.188   5.152   2.148  0.3967  0.7606 -0.4432
 4700TIP3    H235660   1.255   5.081   2.031 -0.3457  0.0353 -0.4372
 4701TIP3   OH235661   6.577   6.036   0.694  0.0517  0.4221  0.5426
 4701TIP3    H135662   6.510   6.035   0.763 -0.3283 -1.3173  0.1744
 4701TIP3    H235663   6.644   5.975   0.724  0.0744 -0.0477 -0.4546
 4702TIP3   OH235664   2.190   4.213   2.605  0.1247  0.5556 -0.4219
 4702TIP3    H135665   2.168   4.301   2.577 -1.7408 -0.7794 -3.6984
 4702TIP3    H235666   2.113   4.183   2.654  0.7803  0.7142  0.7448
 4703TIP3   OH235667   5.550   6.415   8.314  0.0085  0.0852 -0.0078
 4703TIP3    H135668   5.583   6.450   8.397  2.7487 -0.0711 -0.9245
 4703TIP3    H235669   5.553   6.489   8.254  0.8775 -0.4613 -0.6641
 4704TIP3   OH235670   5.582   2.578   3.802  0.0578  0.4115 -0.0689
 4704TIP3    H135671   5.582   2.485   3.823 -2.0457  0.7599  1.8004
 4704TIP3    H235672   5.589   2.581   3.706  2.2827 -1.5228 -0.0749
 4705TIP3   OH235673   6.287   4.624   3.401 -0.1332  0.1637  0.3919
 4705TIP3    H135674   6.301   4.606   3.494  2.4787 -0.8006 -0.0841
 4705TIP3    H235675   6.225   4.557   3.373 -0.2901 -0.0772  1.2845
 4706TIP3   OH235676   4.317   5.883   1.107  0.6491  0.1105  0.1930
 4706TIP3    H135677   4.343   5.975   1.099 -0.3464  0.3973  0.1943
 4706TIP3    H235678   4.321   5.849   1.017 -0.2757  0.5166 -0.0097
 4707TIP3   OH235679   0.020   5.576   8.646  0.0076  0.5442 -0.5522
 4707TIP3    H135680   0.066   5.540   8.570  1.0967 -1.1951  0.8447
 4707TIP3    H235681  -0.060   5.524   8.653 -0.1044  0.7198 -0.5356
 4708TIP3   OH235682   2.662   1.570   1.472  0.1533  0.4816 -0.1231
 4708TIP3    H135683   2.650   1.633   1.543 -0.2880  1.6905 -1.2547
 4708TIP3    H235684   2.588   1.584   1.413 -0.1054 -1.2827 -0.2870
 4709TIP3   OH235685   6.497   2.133   3.034 -0.4385 -0.6154  0.3451
 4709TIP3    H135686   6.526   2.063   3.093  2.6568  2.1629  2.5205
 4709TIP3    H235687   6.471   2.204   3.092  3.2114  2.4791 -1.3500
 4710TIP3   OH235688   0.372   6.203   8.155 -0.2192 -0.4543  0.2494
 4710TIP3    H135689   0.452   6.245   8.187 -0.2667 -1.5041  1.9176
 4710TIP3    H235690   0.369   6.224   8.062  1.4276  0.5015  0.3685
 4711TIP3   OH235691   1.302   6.544   7.899 -0.1213 -0.0009 -0.2031
 4711TIP3    H135692   1.377   6.508   7.853 -0.2758  0.7312 -1.0401
 4711TIP3    H235693   1.232   6.544   7.834 -0.1542  1.6941 -0.1932
 4712TIP3   OH235694   4.443   5.776   2.800 -0.3801  0.2860 -0.7137
 4712TIP3    H135695   4.538   5.770   2.808 -0.3539  0.5749 -0.8140
 4712TIP3    H235696   4.419   5.701   2.746 -0.0869  0.8406 -1.6451
 4713TIP3   OH235697   4.598   4.779   2.096  0.6750 -0.2224  0.3123
 4713TIP3    H135698   4.691   4.799   2.094  0.3337  1.5829  0.0988
 4713TIP3    H235699   4.566   4.822   2.175  0.1529 -1.6050  0.8869
 4714TIP3   OH235700   6.668   2.078   2.826  0.0248 -0.6228  0.0492
 4714TIP3    H135701   6.752   2.098   2.868  0.8860 -1.5342 -1.1368
 4714TIP3    H235702   6.605   2.078   2.897  0.5257  2.6291  0.6524
 4715TIP3   OH235703   3.254   2.477   2.280 -0.8214  0.0737  0.0854
 4715TIP3    H135704   3.208   2.393   2.286  0.1573 -0.5759 -1.1349
 4715TIP3    H235705   3.247   2.502   2.188  2.0535 -0.5764 -0.4316
 4716TIP3   OH235706   4.700   4.843   3.256 -0.0794  0.4713  0.1450
 4716TIP3    H135707   4.677   4.931   3.284  0.6681  0.7928 -0.2247
 4716TIP3    H235708   4.781   4.823   3.303 -0.2843 -0.0510  0.2881
 4717TIP3   OH235709   3.301   5.514   1.038  0.4351 -0.8985 -0.6689
 4717TIP3    H135710   3.342   5.429   1.018  0.0451 -1.2991  0.1832
 4717TIP3    H235711   3.268   5.544   0.953  0.3172 -1.7383 -0.9349
 4718TIP3   OH235712   6.471   3.853   3.209  0.5268 -0.6450  0.3473
 4718TIP3    H135713   6.458   3.763   3.240  0.4887 -1.3544 -1.5649
 4718TIP3    H235714   6.385   3.879   3.176  0.8815 -0.4785 -0.4659
 4719TIP3   OH235715   4.310   1.347   0.815 -0.0041  0.0207 -0.2391
 4719TIP3    H135716   4.225   1.323   0.852 -0.4062 -0.5351 -1.4707
 4719TIP3    H235717   4.289   1.388   0.731  0.8734  1.3440  0.1541
 4720TIP3   OH235718   1.412   0.714   1.037  0.0111  0.7334 -0.3334
 4720TIP3    H135719   1.377   0.683   1.121  1.0345 -0.5863 -0.3475
 4720TIP3    H235720   1.335   0.741   0.987 -0.7774  0.0028  0.4450
 4721TIP3   OH235721   4.710   3.039   2.051 -0.0593  0.5073  0.0126
 4721TIP3    H135722   4.755   3.072   2.129  1.8765  0.9294 -1.2162
 4721TIP3    H235723   4.664   2.961   2.081 -0.6102  1.4883  1.8886
 4722TIP3   OH235724   3.665   0.696   8.535  0.4517  0.3350  0.3323
 4722TIP3    H135725   3.726   0.745   8.590 -1.0320  0.3336  2.1228
 4722TIP3    H235726   3.643   0.618   8.587 -1.7634  0.8119  0.2313
 4723TIP3   OH235727   2.383   0.398   1.064 -0.3168 -0.3886  0.2052
 4723TIP3    H135728   2.419   0.395   0.975  1.3260  1.4701  0.7345
 4723TIP3    H235729   2.313   0.464   1.058  1.0954  1.2320  0.6382
 4724TIP3   OH235730   2.922   4.304   1.358 -0.6374 -0.1644 -0.3486
 4724TIP3    H135731   2.887   4.358   1.288  0.0973  0.2547 -0.4092
 4724TIP3    H235732   2.961   4.366   1.419  1.3924 -0.6531 -1.0657
 4725TIP3   OH235733   3.478   1.510   0.412  0.7493 -0.1705 -0.2822
 4725TIP3    H135734   3.468   1.605   0.409 -0.3221 -0.1980  1.1507
 4725TIP3    H235735   3.479   1.482   0.320  0.3043  1.1470 -0.6988
 4726TIP3   OH235736   3.682   4.919   8.039 -0.0971  0.0016  0.8280
 4726TIP3    H135737   3.671   4.833   7.998  3.2374  1.0927 -3.0027
 4726TIP3    H235738   3.607   4.970   8.008 -0.0307 -0.4820 -0.1667
 4727TIP3   OH235739   5.982   2.463   3.531 -0.0170  0.3292  0.1378
 4727TIP3    H135740   5.916   2.446   3.597  0.3689  1.0035  0.7081
 4727TIP3    H235741   6.035   2.382   3.528  0.1732  0.4198  0.9003
 4728TIP3   OH235742   4.193   1.113   2.530 -0.1641 -0.8494  0.3926
 4728TIP3    H135743   4.247   1.190   2.511  0.4734 -1.0224  1.4329
 4728TIP3    H235744   4.219   1.049   2.463 -0.9309 -0.0736 -0.6773
 4729TIP3   OH235745   3.096   4.866   0.047 -0.0130  0.1424 -0.3292
 4729TIP3    H135746   3.123   4.913  -0.032  0.7559 -0.2052 -0.2823
 4729TIP3    H235747   3.099   4.932   0.117 -2.2600  0.8593 -0.8469
 4730TIP3   OH235748   2.891   1.401   1.774 -0.2417 -0.1760  0.2985
 4730TIP3    H135749   2.839   1.344   1.717  0.9782 -0.4452 -0.5722
 4730TIP3    H235750   2.876   1.489   1.740 -0.9437 -0.1229  0.7157
 4731TIP3   OH235751   1.279   4.514   2.011 -0.0391 -0.6943  0.2014
 4731TIP3    H135752   1.265   4.609   2.015  1.1074 -0.5440  1.3834
 4731TIP3    H235753   1.356   4.503   1.955  0.7597 -0.7831  1.2786
 4732TIP3   OH235754   1.874   1.257   1.637 -0.4158  0.0673 -0.0027
 4732TIP3    H135755   1.825   1.232   1.716 -0.8856  0.6604 -0.0917
 4732TIP3    H235756   1.911   1.176   1.605  0.8160 -0.0197  1.5093
 4733TIP3   OH235757   4.474   6.474   2.057  0.1144  0.0593 -0.3030
 4733TIP3    H135758   4.470   6.569   2.062 -1.6552  0.0196 -0.3689
 4733TIP3    H235759   4.508   6.456   1.969 -2.0058  0.6620 -1.3100
 4734TIP3   OH235760   0.176   2.760   3.457  0.2604  0.0368  0.3207
 4734TIP3    H135761   0.217   2.741   3.541  0.9508  2.2975  0.5691
 4734TIP3    H235762   0.248   2.757   3.394  0.0247 -0.1475  0.0597
 4735TIP3   OH235763   1.518   1.594   1.234  0.3772 -0.2558  0.0606
 4735TIP3    H135764   1.564   1.658   1.179  1.3526 -0.2046  0.9044
 4735TIP3    H235765   1.495   1.523   1.174  1.5356 -0.2635 -0.4120
 4736TIP3   OH235766   3.676   2.281   2.359 -0.1280 -0.2641  0.0940
 4736TIP3    H135767   3.603   2.223   2.339  0.0785 -0.6459  0.4294
 4736TIP3    H235768   3.645   2.368   2.336 -0.0411 -0.6219 -1.5069
 4737TIP3   OH235769   4.946   4.523   3.585 -0.2128  0.2672 -0.3576
 4737TIP3    H135770   5.006   4.597   3.591 -0.6106  0.5809 -0.1641
 4737TIP3    H235771   4.940   4.491   3.675 -0.9080  0.7086 -0.2339
 4738TIP3   OH235772   2.967   6.752   1.781 -0.1964 -0.0548 -0.0039
 4738TIP3    H135773   2.879   6.736   1.745 -0.2603 -0.2640  0.2415
 4738TIP3    H235774   2.971   6.697   1.859  0.0722  0.1281  0.1112
 4739TIP3   OH235775   2.501   0.152   2.342  0.4994  0.3028 -0.6369
 4739TIP3    H135776   2.500   0.229   2.399 -0.2739  0.4418 -0.8312
 4739TIP3    H235777   2.439   0.092   2.382 -0.6109  0.6918 -1.7144
 4740TIP3   OH235778   3.717   6.227   2.926  0.3353 -0.0367 -0.0553
 4740TIP3    H135779   3.779   6.247   2.997 -0.2278  0.1036  0.3991
 4740TIP3    H235780   3.671   6.310   2.910 -0.8955 -0.5454  0.7483
 4741TIP3   OH235781   5.533   1.316   3.943 -0.0875  0.2974 -0.0420
 4741TIP3    H135782   5.569   1.241   3.895  0.5984 -0.7546  2.0170
 4741TIP3    H235783   5.592   1.388   3.923 -1.1708  0.5738 -2.6566
 4742TIP3   OH235784   1.659   5.424   2.692  0.1114  0.5102 -0.1146
 4742TIP3    H135785   1.719   5.390   2.758  1.4277  1.3238 -0.8438
 4742TIP3    H235786   1.680   5.375   2.613  1.4790  2.3797 -0.9725
 4743TIP3   OH235787   2.015   5.955   1.148  0.1435 -0.1089 -0.1804
 4743TIP3    H135788   1.926   5.988   1.142  0.3591  0.5532  0.1298
 4743TIP3    H235789   2.007   5.873   1.196 -0.2864  0.0114 -0.0402
 4744TIP3   OH235790   0.902   1.999   2.920 -0.6205 -0.6328 -0.1364
 4744TIP3    H135791   0.870   1.948   2.845  0.4572 -0.8861 -0.4413
 4744TIP3    H235792   0.872   1.951   2.997  0.1271 -1.6021 -0.4171
 4745TIP3   OH235793   2.277   3.946   2.570  0.3370 -0.5279 -0.1588
 4745TIP3    H135794   2.259   4.039   2.583 -2.5380 -1.0250  0.0918
 4745TIP3    H235795   2.332   3.942   2.492 -1.1790  1.2953 -1.3977
 4746TIP3   OH235796   5.204   1.028   1.626 -0.0380 -0.1937 -0.3817
 4746TIP3    H135797   5.187   1.098   1.563  3.6282 -0.5918 -2.0561
 4746TIP3    H235798   5.193   0.947   1.576  0.1212 -0.6335  0.2793
 4747TIP3   OH235799   2.305   6.651   3.087  0.1765  0.5069 -0.6624
 4747TIP3    H135800   2.386   6.700   3.073 -0.5451  1.4497 -1.6605
 4747TIP3    H235801   2.288   6.658   3.180  1.0296  0.6351 -0.5108
 4748TIP3   OH235802   4.203   1.233   1.375  0.5018  0.2932 -0.9957
 4748TIP3    H135803   4.132   1.172   1.397  1.7690 -1.0364 -0.4182
 4748TIP3    H235804   4.165   1.292   1.310 -1.4023  0.2154 -0.0184
 4749TIP3   OH235805   3.317   0.189   1.218 -0.7110 -0.1284 -0.0576
 4749TIP3    H135806   3.230   0.150   1.213  0.3641 -2.6734 -0.4600
 4749TIP3    H235807   3.351   0.161   1.303 -0.8928  2.4481  0.9781
 4750TIP3   OH235808   3.853   3.710   1.713 -0.4334  0.2995 -0.0606
 4750TIP3    H135809   3.763   3.716   1.683 -0.9924 -3.9581  0.1954
 4750TIP3    H235810   3.905   3.703   1.632 -0.6395  0.0769 -0.1734
 4751TIP3   OH235811   1.647   5.937   0.854 -0.2636 -0.1948  0.4587
 4751TIP3    H135812   1.650   5.887   0.773  0.3881 -0.0476  0.3868
 4751TIP3    H235813   1.554   5.936   0.879 -0.4145 -0.5495 -0.0889
 4752TIP3   OH235814   2.114   4.240   8.288 -0.1468 -0.1571 -0.4004
 4752TIP3    H135815   2.020   4.233   8.269 -0.1865  0.1741 -0.3453
 4752TIP3    H235816   2.140   4.152   8.313  0.1111 -0.8809 -2.8818
 4753TIP3   OH235817   0.795   3.520   0.707 -0.3954 -0.0943  0.3843
 4753TIP3    H135818   0.884   3.518   0.670 -0.4079 -2.0982  0.3343
 4753TIP3    H235819   0.740   3.554   0.636  0.3683  1.6930  0.5953
 4754TIP3   OH235820   6.697   4.299   1.346  0.0688 -0.1777 -0.3175
 4754TIP3    H135821   6.749   4.230   1.306 -0.9397 -1.0318 -0.1821
 4754TIP3    H235822   6.631   4.253   1.398  0.7578  0.8941  1.6116
 4755TIP3   OH235823   5.240   2.781   1.175 -0.1145 -0.0135  0.4034
 4755TIP3    H135824   5.242   2.865   1.220  1.7247  0.1537  0.0628
 4755TIP3    H235825   5.154   2.780   1.132  0.3161  2.2857 -0.6835
 4756TIP3   OH235826   2.318   4.413   3.430 -0.1987 -0.2049 -0.4787
 4756TIP3    H135827   2.239   4.460   3.406 -0.3502 -0.2728 -0.1198
 4756TIP3    H235828   2.340   4.360   3.354 -0.3667 -0.0085 -0.6620
 4757TIP3   OH235829   0.779   6.617   3.442  0.1596 -0.1691  0.5772
 4757TIP3    H135830   0.795   6.686   3.506 -0.0106  0.7088 -0.3061
 4757TIP3    H235831   0.865   6.576   3.430  0.3399  0.1345  0.8229
 4758TIP3   OH235832   2.799   2.476   0.716  0.7106  0.8041 -0.5182
 4758TIP3    H135833   2.799   2.470   0.620 -1.1739  0.2098 -0.5140
 4758TIP3    H235834   2.837   2.562   0.734  0.2621  1.3114 -1.8433
 4759TIP3   OH235835   1.581   4.117   8.448 -0.1552  0.0960  0.3376
 4759TIP3    H135836   1.621   4.030   8.445 -0.4907 -0.0799  0.8950
 4759TIP3    H235837   1.584   4.147   8.358 -1.0003 -0.9379 -0.0638
 4760TIP3   OH235838   0.533   4.832   1.570  0.2765  0.6358 -0.2143
 4760TIP3    H135839   0.505   4.762   1.510  1.1581  0.2105 -0.1372
 4760TIP3    H235840   0.453   4.854   1.619  0.1256 -0.7678  0.2102
 4761TIP3   OH235841   2.166   2.987   0.013 -0.5904  0.3500  0.6450
 4761TIP3    H135842   2.217   2.910   0.040  0.0058  0.4111 -0.2550
 4761TIP3    H235843   2.226   3.061   0.024 -1.0978  0.6718  1.3248
 4762TIP3   OH235844   1.942   4.502   8.048  0.2798  0.5146 -0.1326
 4762TIP3    H135845   1.950   4.425   7.992 -1.7296  0.7979 -0.9049
 4762TIP3    H235846   1.853   4.496   8.084  1.3680  0.4794  2.9030
 4763TIP3   OH235847   4.914   5.565   1.555 -0.2295  0.7976 -0.1478
 4763TIP3    H135848   4.928   5.513   1.634 -2.0072 -0.5103 -0.6306
 4763TIP3    H235849   5.000   5.569   1.513  0.6600  1.1908  1.6202
 4764TIP3   OH235850   3.702   1.541   1.364  0.3756 -0.1430 -0.5623
 4764TIP3    H135851   3.786   1.511   1.329  0.9578 -0.9547  1.3716
 4764TIP3    H235852   3.723   1.624   1.407  0.1267 -0.1976 -0.3347
 4765TIP3   OH235853   2.416   1.916   1.637  0.2100 -0.0654  0.0163
 4765TIP3    H135854   2.445   1.905   1.546 -1.6888  1.2649 -0.8274
 4765TIP3    H235855   2.479   1.978   1.675 -0.8318  2.0844 -1.4964
 4766TIP3   OH235856   5.547   6.336   2.901  0.3031  0.0336 -0.9937
 4766TIP3    H135857   5.605   6.293   2.963  0.6289  0.7244 -0.8097
 4766TIP3    H235858   5.605   6.380   2.840 -0.0178  0.6217 -0.8853
 4767TIP3   OH235859   0.184   4.969   0.289 -0.0596 -0.4420  0.0421
 4767TIP3    H135860   0.208   4.896   0.232 -1.6456 -0.8118 -0.2033
 4767TIP3    H235861   0.090   4.958   0.304 -0.6180  2.2276 -1.0001
 4768TIP3   OH235862   4.963   5.198   0.719  0.5383 -0.0056 -0.1429
 4768TIP3    H135863   4.939   5.151   0.799  2.2256 -0.4528  0.1381
 4768TIP3    H235864   4.968   5.290   0.746 -1.0323  0.1550 -0.2806
 4769TIP3   OH235865   0.835   1.849   2.655  0.2723  0.4027  0.3066
 4769TIP3    H135866   0.786   1.890   2.584  0.1459  1.5685  1.0316
 4769TIP3    H235867   0.812   1.756   2.649  0.0149  0.5292 -0.9601
 4770TIP3   OH235868   1.357   0.564   8.554  0.2530 -0.1774  0.4063
 4770TIP3    H135869   1.446   0.547   8.585 -0.0047 -2.1364  0.1995
 4770TIP3    H235870   1.359   0.543   8.461  0.1078  2.0441 -0.1459
 4771TIP3   OH235871   5.033   6.141   0.725 -0.1235  0.5154 -0.1220
 4771TIP3    H135872   5.085   6.167   0.801  0.6105 -0.1633 -0.3915
 4771TIP3    H235873   5.048   6.047   0.715 -0.8669  0.4355 -0.6132
 4772TIP3   OH235874   4.649   1.818   1.258 -0.3621 -0.1421 -0.2525
 4772TIP3    H135875   4.650   1.871   1.338 -1.7872  0.1386 -0.3988
 4772TIP3    H235876   4.655   1.728   1.289  0.6432  0.0217  0.0717
 4773TIP3   OH235877   4.131   4.258   7.957 -0.0016  0.0068 -0.3151
 4773TIP3    H135878   4.128   4.331   7.895  1.9267  0.0372 -0.4352
 4773TIP3    H235879   4.224   4.234   7.961 -0.6925 -3.3343 -1.3439
 4774TIP3   OH235880   5.989   5.850   3.873  0.2169  0.1023  0.0254
 4774TIP3    H135881   5.899   5.822   3.859 -0.0149  0.6914  0.2981
 4774TIP3    H235882   5.997   5.864   3.967  0.2565  1.1248 -0.1144
 4775TIP3   OH235883   0.905   1.865   3.699  0.2063 -0.1315  0.5674
 4775TIP3    H135884   0.897   1.833   3.788  1.3089  0.8778  1.0504
 4775TIP3    H235885   0.994   1.898   3.693 -0.0343  0.3364 -0.7347
 4776TIP3   OH235886   0.686   2.601   0.041 -0.0324  0.5924 -0.2997
 4776TIP3    H135887   0.668   2.662  -0.030 -1.4320  1.1315  0.4779
 4776TIP3    H235888   0.642   2.638   0.117  0.0813 -0.7843  0.4807
 4777TIP3   OH235889   4.011   2.710   1.578 -0.2058  0.0685  0.3145
 4777TIP3    H135890   3.977   2.769   1.646  2.3135  0.0300  1.7293
 4777TIP3    H235891   4.106   2.724   1.580  0.5016 -3.8540  0.5600
 4778TIP3   OH235892   2.384   4.721   7.386  0.0934 -0.3960  0.0554
 4778TIP3    H135893   2.298   4.680   7.377  0.0992 -0.5573  0.6896
 4778TIP3    H235894   2.410   4.704   7.477  0.5127  0.1991  0.0575
 4779TIP3   OH235895   1.299   1.273   1.476 -0.0981 -0.0174 -0.2269
 4779TIP3    H135896   1.364   1.217   1.519  0.4334  1.3632  0.8509
 4779TIP3    H235897   1.333   1.286   1.387  0.1174 -0.8483 -0.2700
 4780TIP3   OH235898   5.200   4.259   8.084 -0.3385  0.0323  0.1301
 4780TIP3    H135899   5.239   4.178   8.116  2.5242  0.7595 -1.2086
 4780TIP3    H235900   5.236   4.327   8.141  1.0549  0.8079 -1.5881
 4781TIP3   OH235901   5.569   3.534   0.727  0.3082  0.3203  0.6667
 4781TIP3    H135902   5.497   3.585   0.691  1.0879 -0.6204 -2.4662
 4781TIP3    H235903   5.638   3.597   0.744 -0.0917  0.7807  0.5954
 4782TIP3   OH235904   0.869   1.271   8.171  0.0194 -0.3519  0.2780
 4782TIP3    H135905   0.854   1.346   8.229 -0.1728  0.1139 -0.3622
 4782TIP3    H235906   0.870   1.196   8.230 -0.0790  0.1202  0.9000
 4783TIP3   OH235907   0.156   2.627   2.734  0.3040  0.2462 -0.4225
 4783TIP3    H135908   0.228   2.608   2.794 -0.3836  1.4241  0.8558
 4783TIP3    H235909   0.133   2.543   2.695  1.2043 -0.4382  0.4859
 4784TIP3   OH235910   4.482   4.110   2.950  0.1115  0.5526 -0.5784
 4784TIP3    H135911   4.534   4.188   2.969 -0.4991  0.7690  0.2728
 4784TIP3    H235912   4.464   4.072   3.036  0.3270 -0.4828 -0.9780
 4785TIP3   OH235913   0.316   3.673   0.655 -0.0507 -0.0371 -0.0386
 4785TIP3    H135914   0.357   3.688   0.570 -0.0075  0.3171  0.0444
 4785TIP3    H235915   0.326   3.579   0.671 -0.5792 -0.2116 -0.6978
 4786TIP3   OH235916   5.278   1.546   1.087  0.7040 -0.7147  0.0843
 4786TIP3    H135917   5.195   1.524   1.045  0.2660  3.0701 -1.4209
 4786TIP3    H235918   5.344   1.527   1.020  0.2792  2.4005 -1.4308
 4787TIP3   OH235919   3.405   2.639   1.672 -0.3144 -0.0966  0.1504
 4787TIP3    H135920   3.379   2.730   1.664  0.8259  0.1801 -0.8031
 4787TIP3    H235921   3.349   2.603   1.740 -3.5205  0.2721 -2.0479
 4788TIP3   OH235922   1.398   6.710   0.469 -0.4805 -0.0765  0.5705
 4788TIP3    H135923   1.443   6.761   0.402  0.4800  0.2811  1.4621
 4788TIP3    H235924   1.314   6.688   0.430  0.3738 -0.5980 -1.0791
 4789TIP3   OH235925   0.060   1.411   1.979  0.2741 -0.0383 -0.5549
 4789TIP3    H135926  -0.020   1.398   2.029 -0.5043  0.8950 -1.5048
 4789TIP3    H235927   0.049   1.497   1.938  0.8973 -0.7289 -2.2544
 4790TIP3   OH235928   4.280   0.998   3.091 -0.0989  0.3319 -0.4619
 4790TIP3    H135929   4.268   1.092   3.082 -0.7912  0.1395 -2.0482
 4790TIP3    H235930   4.243   0.976   3.176 -2.8283  1.1079 -1.3369
 4791TIP3   OH235931   4.101   3.049   0.564  0.5363 -0.0084  0.4515
 4791TIP3    H135932   4.039   2.988   0.605  1.1318 -1.5203 -0.7569
 4791TIP3    H235933   4.074   3.135   0.594 -1.2471 -0.7483  1.1133
 4792TIP3   OH235934   3.141   2.236   0.709  0.5192 -0.3753  0.6956
 4792TIP3    H135935   3.213   2.210   0.766  0.2041 -0.9449  0.8387
 4792TIP3    H235936   3.168   2.321   0.674 -0.1281  0.9965  3.2155
 4793TIP3   OH235937   5.007   2.700   8.008 -0.1429  0.3317  0.4592
 4793TIP3    H135938   5.055   2.714   7.926 -0.9083  2.3257  0.2987
 4793TIP3    H235939   5.071   2.720   8.077 -0.4058  1.9206  0.2663
 4794TIP3   OH235940   3.369   2.170   1.227  0.2684 -0.9910 -0.5464
 4794TIP3    H135941   3.390   2.232   1.298 -0.7521  0.3400 -1.3588
 4794TIP3    H235942   3.415   2.090   1.251  1.4596  0.0071  0.6726
 4795TIP3   OH235943   1.515   2.111   1.996 -0.4970 -0.0792 -0.1319
 4795TIP3    H135944   1.610   2.097   2.006 -0.9672 -2.4504  2.1194
 4795TIP3    H235945   1.508   2.196   1.953  2.7044 -1.3644 -3.8667
 4796TIP3   OH235946   1.862   4.726   2.162  0.4099 -0.0800 -0.3725
 4796TIP3    H135947   1.910   4.712   2.080  1.1719  0.7586 -0.0851
 4796TIP3    H235948   1.916   4.684   2.229  1.7652  2.3929  0.2275
 4797TIP3   OH235949   2.847   6.772   0.356  0.1217 -0.3146  0.1794
 4797TIP3    H135950   2.772   6.782   0.298  1.3695 -1.8701 -1.8456
 4797TIP3    H235951   2.923   6.770   0.297  1.6424 -0.1893  2.0297
 4798TIP3   OH235952   4.136   1.927   0.653 -0.1237  0.4510 -0.0578
 4798TIP3    H135953   4.109   1.844   0.614 -1.1483  1.6116 -1.9774
 4798TIP3    H235954   4.223   1.909   0.690 -0.1363 -1.3500 -0.7982
 4799TIP3   OH235955   4.247   4.022   7.300  0.3994  0.3135 -0.3244
 4799TIP3    H135956   4.178   4.079   7.267  0.2326 -0.0316 -0.5830
 4799TIP3    H235957   4.324   4.046   7.248  0.7481  1.3965  0.6498
 4800TIP3   OH235958   0.367   4.503   1.227  0.3149  0.0388 -0.3331
 4800TIP3    H135959   0.272   4.492   1.236  0.1652  0.8975 -0.8346
 4800TIP3    H235960   0.400   4.413   1.217 -0.1385 -0.5011  2.4295
 4801TIP3   OH235961   0.766   0.447   2.910 -0.3092 -0.3766 -0.4599
 4801TIP3    H135962   0.721   0.524   2.877 -0.0988 -0.4771 -0.9790
 4801TIP3    H235963   0.823   0.480   2.980  1.4241  0.2949 -2.1034
 4802TIP3   OH235964   5.972   6.331   2.155 -0.3998 -0.2615  0.1584
 4802TIP3    H135965   5.952   6.238   2.149 -0.6707 -0.2913  1.2676
 4802TIP3    H235966   6.067   6.336   2.148 -0.1051 -0.9142  2.7204
 4803TIP3   OH235967   2.792   4.733   7.727 -0.4260  0.3699  0.5174
 4803TIP3    H135968   2.846   4.763   7.653 -0.2180  1.9797  1.2725
 4803TIP3    H235969   2.853   4.726   7.800 -0.7696 -0.4489  0.7261
 4804TIP3   OH235970   5.175   3.057   1.277 -0.0231 -0.0117 -0.2379
 4804TIP3    H135971   5.184   3.136   1.330  3.2098 -0.7724  0.5642
 4804TIP3    H235972   5.202   3.083   1.189  2.1999 -0.3744  0.2768
 4805TIP3   OH235973   1.816   2.257   1.316  0.1063  0.3606  0.1575
 4805TIP3    H135974   1.777   2.170   1.320  0.6623  0.0745 -0.4778
 4805TIP3    H235975   1.910   2.241   1.306  0.0700  1.0065 -1.5017
 4806TIP3   OH235976   1.862   3.720   0.279 -0.3970  0.2589 -0.7403
 4806TIP3    H135977   1.848   3.667   0.201  0.5041 -1.1957  0.0580
 4806TIP3    H235978   1.944   3.766   0.263  0.4532 -1.0083 -0.1621
 4807TIP3   OH235979   6.655   2.531   1.113 -0.0419  0.1303  0.3702
 4807TIP3    H135980   6.643   2.488   1.029 -0.0889  1.1575 -0.1628
 4807TIP3    H235981   6.743   2.507   1.140  0.2844  0.4585 -0.3773
 4808TIP3   OH235982   5.302   1.248   0.795 -0.0701  0.1377 -0.2909
 4808TIP3    H135983   5.365   1.320   0.789 -0.3549  0.3468 -5.7327
 4808TIP3    H235984   5.356   1.169   0.800  0.2411  0.3677  4.3505
 4809TIP3   OH235985   5.824   6.602   1.531  0.0931 -0.2070  0.1903
 4809TIP3    H135986   5.867   6.624   1.613 -0.4535  0.8775  0.2045
 4809TIP3    H235987   5.846   6.510   1.516  0.4716 -0.3224  1.3717
 4810TIP3   OH235988   1.923   2.058   8.663 -0.1518 -0.0988 -0.5502
 4810TIP3    H135989   1.909   2.152   8.659 -1.0370 -0.2567 -1.6173
 4810TIP3    H235990   2.018   2.049   8.676  0.0170  0.9340 -0.9499
 4811TIP3   OH235991   0.479   3.490   1.130  0.0847  0.3162  0.1107
 4811TIP3    H135992   0.540   3.480   1.057 -1.3056  0.1110 -1.0613
 4811TIP3    H235993   0.517   3.560   1.183  2.0360 -0.7157  0.1761
 4812TIP3   OH235994   0.140   4.757   8.156 -0.1091 -0.3162  0.3971
 4812TIP3    H135995   0.108   4.668   8.169  0.5419 -0.3648  1.8755
 4812TIP3    H235996   0.234   4.747   8.144 -0.2888  0.0235 -1.5406
 4813TIP3   OH235997   6.746   0.625   2.602 -0.3001 -0.6929  0.3715
 4813TIP3    H135998   6.834   0.597   2.576 -0.6377 -0.9813 -0.4959
 4813TIP3    H235999   6.755   0.720   2.616 -0.4692 -0.1107 -2.7042
 4814TIP3   OH236000   5.917   1.461   1.414  0.2325  0.1376  0.1146
 4814TIP3    H136001   5.985   1.413   1.461  1.1774 -0.0171 -1.3218
 4814TIP3    H236002   5.851   1.481   1.480  1.2743 -0.4485  1.3812
 4815TIP3   OH236003   5.592   5.286   2.899 -0.1591 -0.3097 -0.2684
 4815TIP3    H136004   5.555   5.364   2.858  0.7403 -2.1586 -5.3696
 4815TIP3    H236005   5.682   5.310   2.921 -0.0589  0.2676 -1.2780
 4816TIP3   OH236006   1.011   0.980   2.099  0.3579 -0.5428 -0.6165
 4816TIP3    H136007   0.935   0.968   2.155 -0.1639  0.5159 -1.0676
 4816TIP3    H236008   1.066   1.043   2.145  0.7541 -0.9599 -0.5073
 4817TIP3   OH236009   0.133   3.476   3.082 -0.1682 -0.4539 -0.2061
 4817TIP3    H136010   0.222   3.449   3.102 -0.0385 -2.0333 -2.4604
 4817TIP3    H236011   0.142   3.545   3.016 -0.5539 -1.7869 -1.7198
 4818TIP3   OH236012   3.510   4.572   0.680 -0.1019 -0.1414 -0.1734
 4818TIP3    H136013   3.561   4.590   0.602 -1.8376  0.6648 -1.1900
 4818TIP3    H236014   3.569   4.522   0.737  1.6237  0.3781 -1.4329
 4819TIP3   OH236015   2.884   3.805   2.122 -0.3486 -0.3743  0.2667
 4819TIP3    H136016   2.838   3.785   2.204 -0.1224  1.9937  1.0493
 4819TIP3    H236017   2.969   3.839   2.150 -0.0918  0.0595 -0.9664
 4820TIP3   OH236018   4.416   0.331   1.575 -0.2440 -0.3583  0.0687
 4820TIP3    H136019   4.334   0.363   1.538  0.1642  0.0127 -0.5486
 4820TIP3    H236020   4.459   0.409   1.611  1.3218  0.1342 -2.5412
 4821TIP3   OH236021   3.056   0.021   2.999  0.1814 -0.2411  0.1406
 4821TIP3    H136022   3.056   0.036   3.094  0.8394  1.1607 -0.0534
 4821TIP3    H236023   3.148   0.030   2.973 -0.0796  0.0387 -0.7142
 4822TIP3   OH236024   1.034   4.701   1.170  0.4004  0.3466 -0.3633
 4822TIP3    H136025   0.979   4.778   1.184 -0.4683 -0.2108 -0.6729
 4822TIP3    H236026   0.979   4.627   1.193  1.6189 -0.1464  1.1031
 4823TIP3   OH236027   3.371   2.561   0.868  0.3560  0.5712 -0.2935
 4823TIP3    H136028   3.466   2.550   0.861  0.0212 -1.7830 -1.9846
 4823TIP3    H236029   3.339   2.549   0.779 -1.5600  1.3389  0.2501
 4824TIP3   OH236030   6.256   0.281   8.330  0.1151 -0.1301  0.1752
 4824TIP3    H136031   6.317   0.350   8.304  0.0479 -0.3131 -0.5015
 4824TIP3    H236032   6.212   0.316   8.407  0.4651  0.3622  0.1602
 4825TIP3   OH236033   1.704   2.820   2.395 -0.1741  0.2057  0.3315
 4825TIP3    H136034   1.783   2.873   2.402  1.0600 -1.3754 -0.9038
 4825TIP3    H236035   1.665   2.845   2.311 -0.8564  0.7471  0.7898
 4826TIP3   OH236036   5.938   0.186   0.098  0.7812 -0.0579 -0.2961
 4826TIP3    H136037   5.934   0.091   0.105  0.6895  0.0092  0.6243
 4826TIP3    H236038   5.846   0.214   0.095  0.4953  0.3113  4.4202
 4827TIP3   OH236039   1.282   4.029   2.138  0.3845 -0.5845 -0.3563
 4827TIP3    H136040   1.287   4.088   2.062  1.6630  1.1600  1.0066
 4827TIP3    H236041   1.349   4.062   2.198  1.8069 -3.9956  0.1396
 4828TIP3   OH236042   4.395   5.688   7.635 -0.2534  0.0181 -0.3871
 4828TIP3    H136043   4.441   5.770   7.651  1.5125 -1.0743  0.5627
 4828TIP3    H236044   4.463   5.629   7.601 -1.4328 -1.0782 -0.9148
 4829TIP3   OH236045   0.682   5.015   2.107  0.0879  0.1237 -0.2056
 4829TIP3    H136046   0.773   4.986   2.117  0.6585  1.9256  0.2009
 4829TIP3    H236047   0.630   4.938   2.129  1.4995 -1.0219 -0.6723
 4830TIP3   OH236048   3.901   6.489   1.328  0.2108 -0.3636  0.3743
 4830TIP3    H136049   3.898   6.488   1.232  1.0703 -1.6701  0.3347
 4830TIP3    H236050   3.994   6.498   1.348  0.0325 -0.0988  1.0933
 4831TIP3   OH236051   1.319   2.582   0.728 -0.2973  0.3848  0.5888
 4831TIP3    H136052   1.364   2.660   0.760 -2.3720  1.6076  0.7249
 4831TIP3    H236053   1.313   2.524   0.805 -0.0218  0.7305  0.8721
 4832TIP3   OH236054   1.124   2.540   0.545 -0.3998 -0.3144  0.2108
 4832TIP3    H136055   1.125   2.445   0.552 -0.9552 -0.2994  0.5246
 4832TIP3    H236056   1.196   2.569   0.601 -1.8066 -0.4385  2.1825
 4833TIP3   OH236057   3.283   6.242   0.295 -0.2386  0.0304 -0.2924
 4833TIP3    H136058   3.199   6.248   0.251 -0.6465 -1.5480  0.2004
 4833TIP3    H236059   3.343   6.208   0.229 -0.6270 -1.4104  0.0708
 4834TIP3   OH236060   3.717   1.045   3.749 -0.2462 -0.2645  0.1142
 4834TIP3    H136061   3.774   1.091   3.811  0.4777 -1.0000  0.0150
 4834TIP3    H236062   3.753   0.957   3.744 -1.0799 -0.5917 -0.3710
 4835TIP3   OH236063   6.294   6.375   3.626 -0.0015  0.9141  0.0989
 4835TIP3    H136064   6.371   6.429   3.609  0.6857 -0.2303 -0.5459
 4835TIP3    H236065   6.227   6.411   3.568  0.9509  0.0309 -1.6174
 4836TIP3   OH236066   3.084   6.703   0.819 -0.4785  0.0776  0.4603
 4836TIP3    H136067   3.021   6.732   0.753 -0.3801  0.7341  0.6497
 4836TIP3    H236068   3.054   6.616   0.843 -1.5026  0.4949  0.7622
 4837TIP3   OH236069   0.558   0.788   0.641  0.0358 -0.2596 -0.2297
 4837TIP3    H136070   0.609   0.853   0.689  0.6573 -0.2302 -0.9177
 4837TIP3    H236071   0.577   0.805   0.549 -0.7051 -0.6730 -0.4724
 4838TIP3   OH236072   2.331   2.740   0.354 -0.2112  0.0559 -1.0669
 4838TIP3    H136073   2.285   2.806   0.406  1.7159 -0.0537  0.9012
 4838TIP3    H236074   2.341   2.665   0.413 -0.2889 -1.1342 -2.4961
 4839TIP3   OH236075   2.646   3.201   8.587  0.2466 -0.2887  0.3239
 4839TIP3    H136076   2.644   3.282   8.638  2.6167 -0.7520  1.2815
 4839TIP3    H236077   2.637   3.229   8.496  0.6022  1.0182  0.6764
 4840TIP3   OH236078   1.811   2.594   1.515  0.3662 -0.3621  0.3854
 4840TIP3    H136079   1.827   2.685   1.542  1.0178 -0.2243 -0.4375
 4840TIP3    H236080   1.892   2.548   1.536  0.5118 -0.4703 -0.3876
 4841TIP3   OH236081   5.142   4.031   8.341 -0.2720 -0.8104 -0.0690
 4841TIP3    H136082   5.141   3.979   8.261 -0.6838  0.9500 -1.2709
 4841TIP3    H236083   5.230   4.068   8.345 -0.6227  0.0781 -0.3881
 4842TIP3   OH236084   6.262   2.715   7.615  0.1048  0.2628  0.0654
 4842TIP3    H136085   6.220   2.800   7.628 -0.5328 -0.3304  2.2540
 4842TIP3    H236086   6.308   2.698   7.697  1.9002 -0.6423 -1.0585
 4843TIP3   OH236087   1.554   4.623   3.473 -0.3790  0.0684  0.5440
 4843TIP3    H136088   1.465   4.605   3.441  0.5446 -0.9577 -1.5987
 4843TIP3    H236089   1.555   4.584   3.561 -1.3410 -2.1576 -0.3440
 4844TIP3   OH236090   1.194   3.476   2.991 -0.2843 -0.0907  0.0523
 4844TIP3    H136091   1.269   3.417   2.985 -0.0888 -0.0406  1.7320
 4844TIP3    H236092   1.133   3.432   3.050 -0.3450  1.1477  0.9507
 4845TIP3   OH236093   0.276   4.193   1.045  0.3042  0.4065 -0.5697
 4845TIP3    H136094   0.241   4.105   1.059 -1.2442  0.8928 -1.1747
 4845TIP3    H236095   0.202   4.251   1.063  1.9444  1.8208  2.4665
 4846TIP3   OH236096   1.851   4.293   2.299 -0.0884 -0.4414  0.0560
 4846TIP3    H136097   1.780   4.306   2.237  0.3103 -1.2087 -0.5882
 4846TIP3    H236098   1.925   4.267   2.245  1.1798  1.8899  0.5143
 4847TIP3   OH236099   3.568   2.513   0.525  0.1447  0.7429  0.2054
 4847TIP3    H136100   3.590   2.593   0.572  0.9917  0.6735 -0.0516
 4847TIP3    H236101   3.474   2.502   0.538 -0.0428  1.9483 -0.0112
 4848TIP3   OH236102   4.596   0.994   2.995 -0.4446  0.1992  0.3704
 4848TIP3    H136103   4.624   0.997   3.086  0.2446  0.4613  0.1574
 4848TIP3    H236104   4.511   1.037   2.995 -1.5490 -1.8699  1.2584
 4849TIP3   OH236105   1.247   0.215   2.867  0.1860  0.5559 -0.5011
 4849TIP3    H136106   1.259   0.288   2.806  3.0956  0.7244  0.1566
 4849TIP3    H236107   1.170   0.239   2.918  0.2724  2.4862 -1.2053
 4850TIP3   OH236108   1.062   2.890   2.786 -0.4454  0.3194  0.2775
 4850TIP3    H136109   1.140   2.842   2.757 -0.8433 -0.0825 -0.1621
 4850TIP3    H236110   1.041   2.948   2.713  1.3687  2.9249  1.6793
 4851TIP3   OH236111   0.718   1.557   8.007  0.5276  0.1347 -0.2510
 4851TIP3    H136112   0.793   1.519   7.961  1.4526 -2.2847  2.9158
 4851TIP3    H236113   0.652   1.488   8.005 -0.1244  0.7366  0.3203
 4852TIP3   OH236114   3.558   2.106   8.211 -0.2856  0.0876 -0.4751
 4852TIP3    H136115   3.527   2.179   8.158 -2.3311  0.0691  0.6028
 4852TIP3    H236116   3.532   2.129   8.301 -0.9102 -1.9025 -0.1078
 4853TIP3   OH236117   6.108   6.251   1.058 -0.2431  0.2263 -0.1923
 4853TIP3    H136118   6.133   6.166   1.096  0.0625  0.8354  1.0291
 4853TIP3    H236119   6.035   6.280   1.113  1.1704  1.8199  0.9503
 4854TIP3   OH236120   5.788   4.655   8.199  0.1194  0.2382 -0.5259
 4854TIP3    H136121   5.810   4.737   8.244  1.1719  0.4684 -1.4026
 4854TIP3    H236122   5.734   4.683   8.125  0.3238  0.1254 -0.7188
 4855TIP3   OH236123   4.747   3.350   8.239 -0.0683 -0.1128  0.6425
 4855TIP3    H136124   4.827   3.300   8.257 -0.6406 -1.3059 -0.0058
 4855TIP3    H236125   4.697   3.294   8.179 -1.0483  0.9487  0.4435
 4856TIP3   OH236126   4.691   6.087   2.825  0.6222 -0.5779 -0.1863
 4856TIP3    H136127   4.662   6.177   2.807  0.3088 -0.7485 -0.5477
 4856TIP3    H236128   4.669   6.073   2.917 -1.2550 -0.9971 -0.6673
 4857TIP3   OH236129   1.254   0.695   1.246  0.2167  0.6309  0.4605
 4857TIP3    H136130   1.282   0.782   1.274 -0.8986  1.2201 -0.1545
 4857TIP3    H236131   1.172   0.711   1.198  1.6326 -0.3573 -2.5385
 4858TIP3   OH236132   1.699   2.980   8.259 -0.0809  0.3961 -0.2229
 4858TIP3    H136133   1.792   2.962   8.246 -0.1953 -1.3486  0.9231
 4858TIP3    H236134   1.667   3.007   8.173  1.6943  2.2168 -0.3854
 4859TIP3   OH236135   1.916   3.518   1.492 -0.0983 -0.1541  0.3370
 4859TIP3    H136136   1.970   3.445   1.522 -0.8514 -0.7804  0.1966
 4859TIP3    H236137   1.860   3.539   1.566 -1.5887 -1.3507 -0.3975
 4860TIP3   OH236138   5.035   2.254   1.934 -0.2480 -0.5599 -0.5078
 4860TIP3    H136139   5.018   2.347   1.949 -0.3710 -0.7903  0.9636
 4860TIP3    H236140   4.966   2.226   1.874 -2.1503 -0.3613  1.4389
 4861TIP3   OH236141   6.578   1.943   2.543 -0.1625 -0.2906  0.0192
 4861TIP3    H136142   6.491   1.934   2.581  0.3985  0.3843  1.5464
 4861TIP3    H236143   6.605   2.033   2.564  1.3929 -0.8811  0.7087
 4862TIP3   OH236144   1.042   0.892   0.283 -0.3421  0.2834 -0.0847
 4862TIP3    H136145   0.964   0.903   0.338  0.7762 -0.5138  1.7629
 4862TIP3    H236146   1.027   0.810   0.236 -0.6324  0.1499  0.2369
 4863TIP3   OH236147   2.278   2.471   0.913 -0.0539  0.2905 -0.0974
 4863TIP3    H136148   2.267   2.559   0.947 -1.0395  0.8770 -1.7900
 4863TIP3    H236149   2.188   2.438   0.902  0.2868 -1.6186  2.0853
 4864TIP3   OH236150   3.761   6.741   1.095  0.0480 -0.2209  0.5009
 4864TIP3    H136151   3.832   6.792   1.134 -0.6590  1.8988 -0.8140
 4864TIP3    H236152   3.794   6.651   1.092  2.3873  0.5777  0.5454
 4865TIP3   OH236153   6.164   1.116   1.381  0.1810  0.6044  0.1823
 4865TIP3    H136154   6.133   1.066   1.457  1.1317 -2.5721 -1.3561
 4865TIP3    H236155   6.244   1.071   1.354 -0.0387  1.6990 -2.5910
 4866TIP3   OH236156   2.669   6.535   1.902 -0.3526 -0.0431 -0.7805
 4866TIP3    H136157   2.656   6.595   1.828 -2.0576 -0.3569 -0.7721
 4866TIP3    H236158   2.633   6.452   1.872  0.6247 -0.6903 -0.2362
 4867TIP3   OH236159   6.158   4.701   0.851 -0.2852  0.1643  0.8546
 4867TIP3    H136160   6.242   4.734   0.821 -0.6264 -0.4070 -0.8569
 4867TIP3    H236161   6.104   4.779   0.864 -0.5168  0.4374 -1.3735
 4868TIP3   OH236162   5.378   6.452   0.031 -0.4023 -0.2654 -0.3419
 4868TIP3    H136163   5.306   6.487   0.083 -0.4853 -3.1961  1.7409
 4868TIP3    H236164   5.342   6.376  -0.013  0.7006 -0.0790 -1.6416
 4869TIP3   OH236165   6.305   2.588   0.329 -0.6271  0.4145 -0.0476
 4869TIP3    H136166   6.279   2.600   0.238 -0.9407 -1.6119 -0.2572
 4869TIP3    H236167   6.385   2.641   0.338  0.0460 -0.2200 -1.8088
 4870TIP3   OH236168   6.068   5.781   0.925  0.4929 -0.2373  0.3940
 4870TIP3    H136169   5.973   5.786   0.920  0.5040 -0.0278  0.3839
 4870TIP3    H236170   6.088   5.688   0.926  0.3037 -0.2776  0.1346
 4871TIP3   OH236171   6.537   4.223   0.667 -0.6009 -0.3653 -0.2598
 4871TIP3    H136172   6.632   4.231   0.656 -0.6244 -2.1319 -2.4768
 4871TIP3    H236173   6.518   4.133   0.642 -2.7455 -0.4173  1.3785
 4872TIP3   OH236174   3.931   6.221   1.008  0.1889  0.2803  0.2635
 4872TIP3    H136175   3.843   6.193   1.033  0.7994 -1.0920  1.0196
 4872TIP3    H236176   3.985   6.143   1.020  1.1362  0.4472 -2.3260
 4873TIP3   OH236177   6.493   0.231   3.089  0.3206 -0.1838  0.8985
 4873TIP3    H136178   6.571   0.177   3.078  0.1079 -0.2360 -0.5074
 4873TIP3    H236179   6.420   0.170   3.085  0.0708  0.1844 -0.8485
 4874TIP3   OH236180   2.405   0.667   1.210  0.0791 -0.5699  0.7524
 4874TIP3    H136181   2.347   0.661   1.134 -0.0776  0.2627  0.7935
 4874TIP3    H236182   2.493   0.658   1.174  0.0944  1.0810  0.2610
 4875TIP3   OH236183   1.371   1.870   1.415 -0.7196 -0.2734  0.0357
 4875TIP3    H136184   1.401   1.785   1.449 -1.9020 -0.5323  0.4692
 4875TIP3    H236185   1.283   1.853   1.383 -1.7373  1.1885  1.8342
 4876TIP3   OH236186   3.830   5.522   1.272  0.6838  0.2732 -0.0191
 4876TIP3    H136187   3.907   5.515   1.215 -0.2495  1.5641 -1.5301
 4876TIP3    H236188   3.790   5.606   1.248 -2.2275 -1.1723 -0.7127
 4877TIP3   OH236189   5.386   0.427   0.106 -0.1247  0.0963 -0.8414
 4877TIP3    H136190   5.435   0.418   0.188 -1.9166  0.0799  0.2762
 4877TIP3    H236191   5.335   0.507   0.118 -0.5110  0.0179 -1.9002
 4878TIP3   OH236192   6.013   2.831   0.511 -0.3383 -0.1386 -0.2594
 4878TIP3    H136193   6.080   2.894   0.484  0.0914 -0.7571 -0.6761
 4878TIP3    H236194   5.932   2.865   0.474  0.0590 -0.3676 -1.3993
 4879TIP3   OH236195   6.633   2.067   0.434  0.3408 -0.0151 -0.1120
 4879TIP3    H136196   6.633   2.162   0.426  0.0985 -0.0632 -0.7369
 4879TIP3    H236197   6.541   2.042   0.426  0.3060 -0.2451  0.8625
 4880TIP3   OH236198   5.582   0.394   3.888  0.7591  0.4924  0.3163
 4880TIP3    H136199   5.525   0.389   3.811  0.5293  0.3024  0.4992
 4880TIP3    H236200   5.636   0.473   3.873 -0.5038  1.4801  0.8014
 4881TIP3   OH236201   4.690   2.619   0.468 -0.5207  0.6100  0.2975
 4881TIP3    H136202   4.750   2.573   0.527 -1.1573 -0.3526  0.2049
 4881TIP3    H236203   4.609   2.570   0.472 -0.1404 -0.4676 -2.5527
 4882TIP3   OH236204   5.684   1.306   2.473 -0.2552  0.0136 -0.0977
 4882TIP3    H136205   5.741   1.323   2.397 -1.6873 -1.2829 -1.5410
 4882TIP3    H236206   5.701   1.214   2.494  1.3343  0.7469  2.2994
 4883TIP3   OH236207   4.107   4.978   1.515  0.3333 -0.6283 -0.3999
 4883TIP3    H136208   4.128   5.071   1.509  0.7083 -0.7763 -1.7748
 4883TIP3    H236209   4.029   4.974   1.570 -0.5378  0.6362 -1.4978
 4884TIP3   OH236210   3.151   2.911   8.180 -0.2646 -0.3668  0.5154
 4884TIP3    H136211   3.186   2.845   8.120 -1.3061 -4.1429  3.6724
 4884TIP3    H236212   3.223   2.973   8.191  1.2394 -1.5498 -1.7130
 4885TIP3   OH236213   6.799   4.545   0.795 -0.5428  0.4697 -0.4974
 4885TIP3    H136214   6.710   4.550   0.763 -1.0614  0.5888  0.8817
 4885TIP3    H236215   6.801   4.606   0.870  0.9620  1.2224 -1.0979
 4886TIP3   OH236216   0.705   5.289   3.274 -0.1895  0.1792 -0.0957
 4886TIP3    H136217   0.684   5.363   3.216 -1.1758 -0.8764 -1.1333
 4886TIP3    H236218   0.647   5.301   3.350 -0.0557  0.6873 -0.0708
 4887TIP3   OH236219   4.277   2.748   1.632  0.1794 -0.5332 -0.1572
 4887TIP3    H136220   4.340   2.689   1.591  1.8471  1.6602 -0.9405
 4887TIP3    H236221   4.324   2.831   1.641 -1.9278  0.6020  1.2327
 4888TIP3   OH236222   4.818   5.060   7.654 -0.3197  0.5258 -0.5965
 4888TIP3    H136223   4.877   4.991   7.623  1.0042  0.5988  1.5854
 4888TIP3    H236224   4.739   5.049   7.601  1.2117 -0.2861 -2.8405
 4889TIP3   OH236225   0.843   1.827   3.107 -0.1118  0.3053  0.0379
 4889TIP3    H136226   0.869   1.766   3.038  2.3814  0.6083  0.6130
 4889TIP3    H236227   0.845   1.775   3.187 -0.1293  0.6189  0.2437
 4890TIP3   OH236228   4.744   6.561   3.129  0.2292 -0.6521 -0.0600
 4890TIP3    H136229   4.796   6.565   3.049  1.3410 -0.9524  0.6253
 4890TIP3    H236230   4.806   6.578   3.200 -1.1199  1.8520  0.6436
 4891TIP3   OH236231   2.684   3.134   3.128  0.1186  1.2003  0.0212
 4891TIP3    H136232   2.626   3.190   3.076  1.2786  1.5699 -0.9112
 4891TIP3    H236233   2.720   3.071   3.066 -1.7552 -1.2055  1.1661
 4892TIP3   OH236234   2.820   1.905   2.223 -0.1786 -0.8645 -0.2096
 4892TIP3    H136235   2.817   1.966   2.297  0.9013 -2.3315  1.0940
 4892TIP3    H236236   2.744   1.849   2.234 -0.9034 -0.1037 -1.1411
 4893TIP3   OH236237   3.796   6.810   0.826  0.2365 -0.5277 -0.1412
 4893TIP3    H136238   3.762   6.757   0.898 -1.8999  0.2081 -0.5147
 4893TIP3    H236239   3.851   6.876   0.868 -0.5527 -0.4347  0.7881
 4894TIP3   OH236240   1.556   1.017   0.257  0.2467  0.1906 -0.1864
 4894TIP3    H136241   1.463   0.998   0.260  0.1730  0.0602 -1.8994
 4894TIP3    H236242   1.567   1.098   0.307 -0.7649  0.1527  0.1027
 4895TIP3   OH236243   5.900   4.925   0.473 -0.7668  0.0864 -0.1032
 4895TIP3    H136244   5.948   5.003   0.447 -0.2368 -0.3319 -0.4051
 4895TIP3    H236245   5.815   4.957   0.501 -0.6236  0.7509 -0.4154
 4896TIP3   OH236246   1.374   2.120   2.814 -0.2303 -0.0136 -0.2432
 4896TIP3    H136247   1.454   2.134   2.764 -0.2677  0.4231 -0.1836
 4896TIP3    H236248   1.403   2.095   2.901 -0.1549  0.1604 -0.2172
 4897TIP3   OH236249   5.221   3.669   7.941 -0.1218  0.3455  0.0252
 4897TIP3    H136250   5.151   3.604   7.940  0.3502 -0.1625 -0.4673
 4897TIP3    H236251   5.294   3.627   7.896  0.6724  0.6850  0.9672
 4898TIP3   OH236252   3.642   6.521   0.481  0.9392  1.0344 -0.5751
 4898TIP3    H136253   3.577   6.452   0.497  0.4936  1.1956 -1.5676
 4898TIP3    H236254   3.658   6.517   0.387  1.1437  2.0739 -0.6005
 4899TIP3   OH236255   4.339   5.778   1.602  0.0983 -0.1117 -0.1190
 4899TIP3    H136256   4.311   5.828   1.679  0.2702 -1.3910  0.8040
 4899TIP3    H236257   4.315   5.688   1.621  0.3888 -0.5049 -1.4656
 4900TIP3   OH236258   0.616   6.180   2.367  0.1192 -0.3047 -1.1107
 4900TIP3    H136259   0.607   6.263   2.413  0.5446  0.2973 -2.0928
 4900TIP3    H236260   0.616   6.203   2.274  0.5737 -1.3593 -1.3932
 4901TIP3   OH236261   6.739   0.595   1.640 -1.0309  0.1387 -0.0864
 4901TIP3    H136262   6.711   0.589   1.732  0.9919 -1.6331  0.4961
 4901TIP3    H236263   6.781   0.681   1.633 -1.7130  0.5244  0.4835
 4902TIP3   OH236264   2.148   3.536   1.123 -0.3678  0.0630 -0.7173
 4902TIP3    H136265   2.142   3.453   1.074  0.1675 -1.5905  1.8405
 4902TIP3    H236266   2.057   3.561   1.138 -0.5602 -0.7765 -0.3994
 4903TIP3   OH236267   4.688   6.697   8.049 -0.0955 -0.4047 -0.2154
 4903TIP3    H136268   4.713   6.767   8.109 -0.1971  0.3234 -0.9922
 4903TIP3    H236269   4.592   6.706   8.041 -0.1729 -0.9596  0.0755
 4904TIP3   OH236270   3.061   0.671   1.486 -0.0649  0.4830 -0.6474
 4904TIP3    H136271   3.055   0.660   1.581  0.2015  1.6854 -0.4776
 4904TIP3    H236272   3.086   0.585   1.454 -0.2665  0.0283  0.3613
 4905TIP3   OH236273   3.066   6.180   0.143 -0.2023  0.1748 -0.5388
 4905TIP3    H136274   3.081   6.093   0.180  0.5691  0.7615  0.5859
 4905TIP3    H236275   2.977   6.203   0.171  0.4852  0.7447  1.3279
 4906TIP3   OH236276   2.677   4.428   7.447 -0.4558 -0.2615  0.2913
 4906TIP3    H136277   2.694   4.426   7.353  0.6349  1.2442  0.4121
 4906TIP3    H236278   2.582   4.434   7.454 -0.4958  0.6534 -0.7617
 4907TIP3   OH236279   5.958   6.013   8.585  0.5802  0.4966 -0.2222
 4907TIP3    H136280   5.916   5.959   8.518  0.8756  2.0147 -1.6742
 4907TIP3    H236281   6.051   6.013   8.561  0.6338  1.3567 -0.0441
 4908TIP3   OH236282   2.361   3.565   7.545  0.2529  0.1242  0.1580
 4908TIP3    H136283   2.405   3.513   7.479 -2.2706 -0.5135 -1.1704
 4908TIP3    H236284   2.313   3.632   7.495  0.8958  1.7529  1.6093
 4909TIP3   OH236285   3.489   4.596   1.218  0.7673 -0.1053 -0.1006
 4909TIP3    H136286   3.446   4.568   1.137 -1.4241 -0.2299  1.0456
 4909TIP3    H236287   3.538   4.675   1.193 -0.6029  0.3808 -1.3644
 4910TIP3   OH236288   3.965   1.926   1.481 -0.0887  0.7262  0.1155
 4910TIP3    H136289   3.883   1.964   1.514  0.3495  0.3524  1.6908
 4910TIP3    H236290   3.940   1.838   1.452 -0.1016  0.2325  1.5220
 4911TIP3   OH236291   2.548   3.689   2.663 -0.0821  0.3572 -0.2350
 4911TIP3    H136292   2.454   3.706   2.662 -0.3476 -1.0257 -0.6025
 4911TIP3    H236293   2.561   3.628   2.736  0.4234  0.0090 -0.6113
 4912TIP3   OH236294   0.906   5.838   2.161 -0.8370  0.1677  0.1685
 4912TIP3    H136295   0.929   5.792   2.242 -0.6140 -0.3790 -0.2034
 4912TIP3    H236296   0.915   5.930   2.183  3.5440  0.0601 -0.4401
 4913TIP3   OH236297   5.355   5.139   3.909 -0.3699  0.3272  0.0930
 4913TIP3    H136298   5.418   5.198   3.950 -0.9129  1.0413 -0.0882
 4913TIP3    H236299   5.360   5.059   3.961 -0.1111  0.7677  0.7587
 4914TIP3   OH236300   3.019   4.614   3.218  0.3130  0.0734 -0.2693
 4914TIP3    H136301   3.047   4.671   3.288  2.1961  0.2909 -1.1572
 4914TIP3    H236302   3.085   4.545   3.214 -0.5629 -0.7696 -0.8637
 4915TIP3   OH236303   4.551   4.448   2.519  0.3823  0.0689  0.7184
 4915TIP3    H136304   4.529   4.397   2.598  0.4429  0.1937  0.8167
 4915TIP3    H236305   4.535   4.388   2.447  4.5058 -1.6928  0.9592
 4916TIP3   OH236306   5.699   0.774   0.199  0.0485  0.1436  0.3918
 4916TIP3    H136307   5.786   0.756   0.163 -0.0659  2.6680 -1.3943
 4916TIP3    H236308   5.715   0.834   0.272 -0.2146  2.1950 -1.1497
 4917TIP3   OH236309   5.240   1.483   8.315  0.5709  0.0150  0.4053
 4917TIP3    H136310   5.251   1.575   8.293  0.9766 -0.2847 -0.7011
 4917TIP3    H236311   5.204   1.443   8.236 -0.5162 -0.6080  1.1935
 4918TIP3   OH236312   2.380   5.150   0.889 -0.7327 -0.1275  0.3469
 4918TIP3    H136313   2.330   5.122   0.813 -1.4855  1.7166  0.1007
 4918TIP3    H236314   2.333   5.227   0.921  1.1472  0.8225  0.9721
 4919TIP3   OH236315   1.436   4.327   0.468 -0.7197 -0.1452  0.1136
 4919TIP3    H136316   1.482   4.299   0.547  0.9280  2.6585  0.2372
 4919TIP3    H236317   1.453   4.420   0.461 -1.4658 -0.1336 -3.1600
 4920TIP3   OH236318   1.137   1.899   8.022  0.5250  0.1195 -0.3036
 4920TIP3    H136319   1.133   1.809   7.987  0.1183  0.4224 -1.0746
 4920TIP3    H236320   1.047   1.918   8.049 -0.1006  1.3164 -2.8929
 4921TIP3   OH236321   3.975   1.063   2.863 -0.3606  0.5732  0.8019
 4921TIP3    H136322   4.030   1.125   2.815 -1.3547  0.1039 -1.0521
 4921TIP3    H236323   3.886   1.085   2.836 -1.0034  0.4355  2.6802
 4922TIP3   OH236324   1.183   5.334   0.459 -0.0785  0.4392 -0.2107
 4922TIP3    H136325   1.154   5.387   0.385 -0.7400 -1.2753 -1.2491
 4922TIP3    H236326   1.238   5.266   0.420  0.4763  0.1510  1.0210
 4923TIP3   OH236327   3.870   2.217   0.611  0.3534 -0.4364  0.3800
 4923TIP3    H136328   3.897   2.182   0.696 -0.3716 -1.9802  0.0104
 4923TIP3    H236329   3.787   2.173   0.593 -0.9767  1.9995  0.1690
 4924TIP3   OH236330   6.180   3.104   3.116 -0.0526 -0.5909  0.3666
 4924TIP3    H136331   6.164   3.075   3.026  0.6288  1.1411 -0.3632
 4924TIP3    H236332   6.094   3.121   3.152 -0.3262 -1.1562 -0.0045
 4925TIP3   OH236333   2.633   6.077   0.439 -0.0143 -0.3635  0.0630
 4925TIP3    H136334   2.603   6.061   0.350 -0.3652  1.4014 -0.1652
 4925TIP3    H236335   2.708   6.136   0.429  1.5563 -2.1081  0.8249
 4926TIP3   OH236336   4.388   5.228   1.718 -0.1722 -0.0553 -0.3809
 4926TIP3    H136337   4.331   5.200   1.647  0.6399 -1.6096 -0.4822
 4926TIP3    H236338   4.476   5.222   1.682  0.1479  1.0903  0.1533
 4927TIP3   OH236339   4.116   3.326   3.127  0.2804  0.0143 -0.0333
 4927TIP3    H136340   4.202   3.314   3.168 -0.4286  0.3734  1.6028
 4927TIP3    H236341   4.086   3.238   3.108  0.9344 -0.1215 -0.4900
 4928TIP3   OH236342   2.917   3.878   8.625  0.1452 -0.1241  0.4069
 4928TIP3    H136343   2.884   3.803   8.577 -1.9960  0.9054  0.1389
 4928TIP3    H236344   2.953   3.936   8.558  0.1606 -0.1227  0.4169
 4929TIP3   OH236345   6.085   5.199   3.647  0.0856 -0.5770 -0.4312
 4929TIP3    H136346   6.044   5.128   3.696 -0.5210 -2.5176 -3.4632
 4929TIP3    H236347   6.164   5.159   3.609 -0.0001  0.4752 -1.7994
 4930TIP3   OH236348   1.496   1.041   1.563 -0.1510 -0.4833 -0.0534
 4930TIP3    H136349   1.504   1.073   1.652  1.2720 -2.1650  0.4873
 4930TIP3    H236350   1.466   0.950   1.573 -2.1271 -0.0371 -1.4092
 4931TIP3   OH236351   4.039   1.712   3.815  0.2499 -0.4507  0.4432
 4931TIP3    H136352   4.043   1.632   3.763  0.5151 -1.8034  2.4297
 4931TIP3    H236353   4.051   1.782   3.752 -3.8818 -1.6211 -2.0343
 4932TIP3   OH236354   3.167   3.935   2.804  0.3568  0.3045 -0.0244
 4932TIP3    H136355   3.220   3.937   2.883  0.1654  0.6196  0.0973
 4932TIP3    H236356   3.155   4.027   2.780 -1.5430  0.3429  0.9094
 4933TIP3   OH236357   3.940   1.734   0.127 -0.3141  0.1061 -0.0290
 4933TIP3    H136358   3.844   1.736   0.133 -0.3336  3.4860  1.3452
 4933TIP3    H236359   3.959   1.777   0.043  0.0265 -1.1386 -0.6011
 4934TIP3   OH236360   5.693   2.437   2.900 -0.0698 -0.2368  0.0839
 4934TIP3    H136361   5.600   2.459   2.894  0.5399  2.2162 -3.1770
 4934TIP3    H236362   5.733   2.512   2.943  0.4211 -1.4984  1.9212
 4935TIP3   OH236363   3.491   5.148   3.119 -0.4538  0.3491  0.1620
 4935TIP3    H136364   3.478   5.070   3.065 -0.8080  0.6804 -0.2400
 4935TIP3    H236365   3.586   5.154   3.130 -0.4210 -0.1037  0.1507
 4936TIP3   OH236366   2.569   5.813   2.213  0.2552  0.5049  0.1412
 4936TIP3    H136367   2.532   5.782   2.130  2.2239  0.6313 -0.8237
 4936TIP3    H236368   2.643   5.755   2.230  0.7666  1.4032  1.0730
 4937TIP3   OH236369   4.436   1.320   2.544 -0.1786  0.4473 -0.1566
 4937TIP3    H136370   4.492   1.364   2.609  1.0204 -1.2135  0.0043
 4937TIP3    H236371   4.427   1.384   2.473  0.0959  1.5729  0.7836
 4938TIP3   OH236372   0.710   3.249   0.568  0.1378 -0.0400 -0.2183
 4938TIP3    H136373   0.732   3.316   0.634  1.2147 -0.4355 -0.1484
 4938TIP3    H236374   0.623   3.218   0.593  0.5071 -0.1424  1.0040
 4939TIP3   OH236375   5.817   2.204   2.992 -0.3981 -0.0884 -0.1513
 4939TIP3    H136376   5.776   2.266   2.932 -0.8855  0.8278  1.0976
 4939TIP3    H236377   5.822   2.250   3.076 -3.2064 -2.5969  1.5914
 4940TIP3   OH236378   0.231   6.505   0.613  0.9063  0.8012  0.1591
 4940TIP3    H136379   0.153   6.449   0.612  1.2251  0.3217  0.9777
 4940TIP3    H236380   0.285   6.473   0.542  0.8171  0.4679  0.2414
 4941TIP3   OH236381   1.999   4.271   8.704  0.2427 -0.0583 -0.0345
 4941TIP3    H136382   1.967   4.293   8.616  0.2124 -0.1428 -0.0452
 4941TIP3    H236383   1.919   4.247   8.752  0.3994 -1.2927 -0.3544
 4942TIP3   OH236384   1.201   1.642   8.327  0.1879  0.0250  0.1052
 4942TIP3    H136385   1.274   1.604   8.376  0.9637  0.3883 -0.7315
 4942TIP3    H236386   1.125   1.629   8.383  0.5516 -2.0761  0.1925
 4943TIP3   OH236387   3.221   5.472   2.504 -0.3782 -0.5235 -0.6961
 4943TIP3    H136388   3.313   5.485   2.480  0.1098 -0.0423  1.2569
 4943TIP3    H236389   3.178   5.555   2.480  0.4665  0.6577  1.6217
 4944TIP3   OH236390   0.901   6.114   2.116  0.2142  0.2572  0.5473
 4944TIP3    H136391   0.826   6.172   2.125 -0.7858 -0.9715  0.4965
 4944TIP3    H236392   0.930   6.126   2.026 -2.2283 -1.8255 -0.6594
 4945TIP3   OH236393   2.004   4.554   0.831 -0.2405  0.1056 -0.3091
 4945TIP3    H136394   1.921   4.507   0.823 -0.4580  0.3760  0.3360
 4945TIP3    H236395   2.014   4.571   0.925  2.1751 -2.8348  0.1386
 4946TIP3   OH236396   1.688   5.049   7.714  0.0620 -0.3049 -0.1503
 4946TIP3    H136397   1.729   4.978   7.762 -3.3031 -0.9260  2.2089
 4946TIP3    H236398   1.617   5.007   7.665 -0.5782  1.1422 -0.5242
 4947TIP3   OH236399   4.797   6.498   2.193  0.0077  0.0790  0.4029
 4947TIP3    H136400   4.743   6.567   2.154 -0.3269 -0.0879  0.5714
 4947TIP3    H236401   4.735   6.439   2.235  0.3352 -0.0042  0.7766
 4948TIP3   OH236402   2.616   5.262   3.040 -0.1805  0.0754 -0.5594
 4948TIP3    H136403   2.659   5.302   2.964 -0.7531 -0.6098 -1.2638
 4948TIP3    H236404   2.671   5.287   3.114  1.0210 -0.1719 -1.3372
 4949TIP3   OH236405   4.302   4.987   2.779 -0.0951 -0.5605  0.2539
 4949TIP3    H136406   4.388   5.012   2.745 -0.5740 -1.0531 -1.4019
 4949TIP3    H236407   4.320   4.955   2.867  1.3044  0.1384  0.2491
 4950TIP3   OH236408   2.890   4.698   7.288  0.2387  0.0916 -0.2561
 4950TIP3    H136409   2.902   4.614   7.244 -0.0143  0.6640 -1.4631
 4950TIP3    H236410   2.798   4.719   7.274  0.0862  0.1763  0.7927
 4951TIP3   OH236411   0.722   0.700   3.144 -0.3380  0.0819 -0.4512
 4951TIP3    H136412   0.805   0.677   3.186 -0.8808 -0.9251  0.1189
 4951TIP3    H236413   0.659   0.638   3.181 -1.7939  2.1570  0.7541
 4952TIP3   OH236414   5.754   0.382   1.941  0.1293 -0.1494 -0.3222
 4952TIP3    H136415   5.831   0.438   1.952 -1.1649  1.5194  0.6400
 4952TIP3    H236416   5.701   0.428   1.875 -2.5401  1.7251  2.8493
 4953TIP3   OH236417   5.868   1.948   0.515 -0.0488 -1.0480  0.3751
 4953TIP3    H136418   5.934   1.933   0.448  0.5905 -0.4435  0.8569
 4953TIP3    H236419   5.831   2.033   0.494  1.5942  0.1260  1.9297
 4954TIP3   OH236420   6.792   6.474   2.727 -0.1769 -0.3594 -0.7714
 4954TIP3    H136421   6.873   6.423   2.726 -0.3283 -0.5904 -1.6256
 4954TIP3    H236422   6.726   6.415   2.765  0.3223  0.2801  1.2239
 4955TIP3   OH236423   5.343   2.186   3.057 -0.0477  0.2867 -0.4831
 4955TIP3    H136424   5.398   2.164   3.132  0.1246  0.3206 -0.6000
 4955TIP3    H236425   5.293   2.262   3.086 -1.4457 -0.8661  0.3295
 4956TIP3   OH236426   4.613   1.577   1.397  0.3710  0.2520  0.1807
 4956TIP3    H136427   4.593   1.557   1.488 -1.4081 -0.0709 -0.2426
 4956TIP3    H236428   4.542   1.538   1.347  1.2233  0.5555 -1.3500
 4957TIP3   OH236429   6.478   2.230   1.895  0.1751 -0.3221  0.1671
 4957TIP3    H136430   6.416   2.223   1.823 -0.2683  1.2246  0.3722
 4957TIP3    H236431   6.476   2.144   1.936  0.9150 -1.4508 -2.0095
 4958TIP3   OH236432   0.564   4.286   8.526  0.1143 -0.6046  0.4212
 4958TIP3    H136433   0.557   4.191   8.537  1.1244 -0.7414 -0.0212
 4958TIP3    H236434   0.504   4.306   8.454 -1.1563 -0.6898  1.4110
 4959TIP3   OH236435   2.096   2.187   2.413  0.1138 -0.4493 -0.0609
 4959TIP3    H136436   2.145   2.114   2.450 -1.0815 -0.1473  2.3441
 4959TIP3    H236437   2.150   2.264   2.432 -0.8890 -0.1914  2.0101
 4960TIP3   OH236438   3.641   3.498   2.667 -0.0011  0.3609  0.0611
 4960TIP3    H136439   3.625   3.413   2.708  1.2507 -0.2000 -0.5631
 4960TIP3    H236440   3.631   3.481   2.573  0.8972  0.7421 -0.1148
 4961TIP3   OH236441   5.056   1.428   3.174  0.2114 -0.1757 -0.0399
 4961TIP3    H136442   5.046   1.356   3.112  0.9067 -0.9008  0.6684
 4961TIP3    H236443   5.114   1.490   3.129  0.4735 -0.5585 -0.2381
 4962TIP3   OH236444   2.841   6.272   3.192  0.3401 -0.3502  0.5338
 4962TIP3    H136445   2.812   6.325   3.266  0.2299 -1.6179  1.4249
 4962TIP3    H236446   2.928   6.241   3.217  1.3110  1.0962 -0.8951
 4963TIP3   OH236447   0.146   4.679   2.547 -0.4245  0.0816  0.1095
 4963TIP3    H136448   0.209   4.748   2.524 -0.3050 -0.4487 -1.2378
 4963TIP3    H236449   0.181   4.641   2.628 -0.1192  1.1241  0.4913
 4964TIP3   OH236450   5.438   6.738   8.416  0.6254  0.4467  0.9987
 4964TIP3    H136451   5.418   6.831   8.406 -2.7301 -0.2949 -0.7941
 4964TIP3    H236452   5.482   6.715   8.334 -3.1519 -0.3676 -1.0564
 4965TIP3   OH236453   0.097   1.829   1.481 -0.2027 -0.3232  1.0563
 4965TIP3    H136454   0.139   1.844   1.396 -0.7694 -3.1816  0.1610
 4965TIP3    H236455   0.049   1.910   1.499 -0.1846  0.3166 -1.4100
 4966TIP3   OH236456   3.161   0.432   1.394  0.7814 -0.1792 -0.1965
 4966TIP3    H136457   3.204   0.380   1.462 -1.9057 -1.0016  1.0156
 4966TIP3    H236458   3.110   0.368   1.344 -2.0592  1.0947  0.8980
 4967TIP3   OH236459   4.394   2.034   2.959 -0.1165 -0.2806 -0.3323
 4967TIP3    H136460   4.314   2.054   2.910  0.1198  2.8140  0.3104
 4967TIP3    H236461   4.363   2.008   3.046 -0.4339 -0.5539 -0.5247
 4968TIP3   OH236462   3.099   5.870   1.780  0.0758  0.1755  0.0446
 4968TIP3    H136463   3.032   5.933   1.752 -0.6371 -0.2352  0.8037
 4968TIP3    H236464   3.092   5.868   1.875  2.7494  1.8620  0.3660
 4969TIP3   OH236465   6.830   5.373   2.489 -0.2638 -0.4475  0.7761
 4969TIP3    H136466   6.893   5.349   2.420 -1.8534  1.2776 -1.4265
 4969TIP3    H236467   6.866   5.335   2.569  2.6348 -1.0228 -0.6774
 4970TIP3   OH236468   5.935   3.247   0.601 -0.0415  0.2716  0.0770
 4970TIP3    H136469   5.873   3.314   0.630  0.4995  2.2938 -2.9397
 4970TIP3    H236470   5.880   3.181   0.558 -0.4086 -0.3099  1.3779
 4971TIP3   OH236471   5.576   0.781   3.035 -0.0705 -0.4767 -0.1221
 4971TIP3    H136472   5.650   0.831   3.069 -0.1697 -0.0923 -0.4612
 4971TIP3    H236473   5.503   0.843   3.035 -0.3676 -0.8263  0.1228
 4972TIP3   OH236474   4.668   2.453   2.561 -0.1658 -0.3121 -0.5924
 4972TIP3    H136475   4.749   2.499   2.584 -1.4223  0.7888  1.9828
 4972TIP3    H236476   4.600   2.520   2.565 -1.7091 -1.8600  1.0353
 4973TIP3   OH236477   0.574   1.841   8.415  0.2507  0.2733 -0.1918
 4973TIP3    H136478   0.542   1.774   8.476  0.1354  0.7862  0.3225
 4973TIP3    H236479   0.637   1.796   8.359  0.8467 -0.0541  0.7345
 4974TIP3   OH236480   4.401   6.484   1.026  0.4966  0.3109  0.3080
 4974TIP3    H136481   4.468   6.445   0.970  1.1526  0.0528  1.2520
 4974TIP3    H236482   4.321   6.438   1.003  0.9745 -0.5688  0.3503
 4975TIP3   OH236483   4.047   4.739   3.899 -0.2891 -0.6517 -0.6697
 4975TIP3    H136484   4.071   4.831   3.891  1.6725 -1.1898 -1.4167
 4975TIP3    H236485   4.067   4.702   3.813 -0.3415 -1.9268 -0.1482
 4976TIP3   OH236486   5.955   5.446   3.237 -0.0810 -0.2819 -0.0486
 4976TIP3    H136487   5.886   5.461   3.301  1.0815  1.2849  0.9091
 4976TIP3    H236488   5.999   5.366   3.268  0.3438  0.3511  1.0174
 4977TIP3   OH236489   3.644   0.303   2.776 -0.0677  0.6061  0.2533
 4977TIP3    H136490   3.582   0.338   2.711 -0.5773  1.8035  1.3492
 4977TIP3    H236491   3.609   0.332   2.860  0.4697 -1.0896  1.1113
 4978TIP3   OH236492   5.642   0.562   1.789  0.2190  0.2276 -0.0802
 4978TIP3    H136493   5.547   0.559   1.795  0.2984 -2.1975  1.3129
 4978TIP3    H236494   5.667   0.643   1.833 -1.1456  0.5670  0.1046
 4979TIP3   OH236495   0.511   6.740   2.262 -0.5267  0.0560 -0.8549
 4979TIP3    H136496   0.439   6.746   2.326  0.9009  0.0057  0.8330
 4979TIP3    H236497   0.514   6.826   2.221 -0.3988  0.6674  0.3923
 4980TIP3   OH236498   5.912   2.492   2.732  0.4524 -0.4450 -0.4042
 4980TIP3    H136499   5.828   2.468   2.770  1.5091  0.1110  2.4667
 4980TIP3    H236500   5.951   2.408   2.706  0.1592 -0.9866  0.8360
 4981TIP3   OH236501   2.759   0.128   3.362 -0.1063 -0.5408  0.6203
 4981TIP3    H136502   2.806   0.168   3.435  0.3734 -0.4325  0.2550
 4981TIP3    H236503   2.764   0.034   3.378 -0.0410 -0.5151  0.7485
 4982TIP3   OH236504   4.187   0.589   3.065  0.0242  0.2082 -0.4012
 4982TIP3    H136505   4.253   0.656   3.083 -0.0974  0.3755 -0.5751
 4982TIP3    H236506   4.104   0.637   3.062 -0.0983  0.0091 -0.2489
 4983TIP3   OH236507   5.605   0.667   2.194  0.8152 -0.6362  0.2536
 4983TIP3    H136508   5.556   0.638   2.271  1.3118 -0.7549  0.5330
 4983TIP3    H236509   5.574   0.756   2.178 -1.1239 -1.4583 -0.9364
 4984TIP3   OH236510   0.958   0.605   3.251  0.3065 -0.1830  0.4530
 4984TIP3    H136511   0.952   0.651   3.335 -1.6455  1.2492 -0.3790
 4984TIP3    H236512   0.979   0.515   3.274  0.2530  0.2681  2.4554
 4985TIP3   OH236513   4.132   1.483   1.860  0.1106 -0.4028 -0.0241
 4985TIP3    H136514   4.193   1.537   1.810 -0.8299  1.2161  0.4827
 4985TIP3    H236515   4.095   1.423   1.796 -1.6445  2.1270 -1.5621
 4986TIP3   OH236516   3.655   0.633   1.665  0.0039  0.0928 -0.0407
 4986TIP3    H136517   3.676   0.670   1.751 -0.2022 -0.4603  0.2587
 4986TIP3    H236518   3.560   0.639   1.658  0.0729  0.7030 -0.5021
 4987TIP3   OH236519   1.038   5.699   0.482 -0.0875 -0.0045  0.0020
 4987TIP3    H136520   1.061   5.632   0.417 -1.7370 -0.2134 -0.4133
 4987TIP3    H236521   0.942   5.700   0.483 -0.1014  1.5680  0.8349
 4988TIP3   OH236522   6.406   3.666   2.755  0.0932  0.3476  0.1476
 4988TIP3    H136523   6.346   3.600   2.720  0.0379  0.3226  0.2886
 4988TIP3    H236524   6.431   3.633   2.842  0.3754  0.3172  0.0573
 4989TIP3   OH236525   5.484   5.870   2.299  0.4773 -0.1647  0.1672
 4989TIP3    H136526   5.563   5.871   2.245  1.2601  2.3294  1.2220
 4989TIP3    H236527   5.418   5.914   2.246  1.6049  3.5387  1.4989
 4990TIP3   OH236528   2.245   3.661   7.988  0.1298 -0.3787  0.2497
 4990TIP3    H136529   2.215   3.751   7.997  1.3810 -0.0558  1.6847
 4990TIP3    H236530   2.194   3.611   8.052 -1.9276 -1.1129 -1.8519
 4991TIP3   OH236531   3.483   5.308   8.036 -0.0539 -0.2744  0.2682
 4991TIP3    H136532   3.482   5.384   7.977 -0.2002  0.4147  1.1288
 4991TIP3    H236533   3.474   5.232   7.978  1.5220  0.2684 -0.7386
 4992TIP3   OH236534   3.985   0.965   3.132 -0.0977  0.2973 -0.0062
 4992TIP3    H136535   3.978   1.012   3.049 -2.1758 -0.4291 -0.3228
 4992TIP3    H236536   3.985   0.873   3.107 -1.3476  0.0536  0.7750
 4993TIP3   OH236537   3.892   2.150   2.462  0.0617 -0.0969 -0.0990
 4993TIP3    H136538   3.906   2.204   2.540  0.7969 -0.7279  0.2314
 4993TIP3    H236539   3.805   2.174   2.431  0.2500  1.0358  0.2133
 4994TIP3   OH236540   0.037   2.343   0.557 -0.5517 -0.0270  0.3172
 4994TIP3    H136541  -0.034   2.328   0.619 -0.6389 -3.1286 -0.3687
 4994TIP3    H236542  -0.005   2.383   0.481 -0.7816  1.9659  1.4396
 4995TIP3   OH236543   0.671   2.051   1.569  0.7580  0.4906  0.5121
 4995TIP3    H136544   0.657   1.983   1.635  0.2205 -0.2435 -0.3382
 4995TIP3    H236545   0.633   2.130   1.607 -1.7261 -0.4448  0.1487
 4996TIP3   OH236546   4.863   0.218   0.765  0.0722  0.3279  0.4289
 4996TIP3    H136547   4.879   0.235   0.672 -1.6016  1.1362  0.2531
 4996TIP3    H236548   4.837   0.126   0.768  0.4782  0.2013  0.1585
 4997TIP3   OH236549   4.392   5.538   8.235  0.2475 -0.0276  0.1457
 4997TIP3    H136550   4.463   5.525   8.173 -0.3319  1.0945 -0.7931
 4997TIP3    H236551   4.429   5.598   8.301  0.0113  1.0741 -0.6887
 4998TIP3   OH236552   3.667   1.337   1.544  0.1270  0.4303 -0.3634
 4998TIP3    H136553   3.649   1.371   1.632 -3.0668 -1.8663  0.0346
 4998TIP3    H236554   3.665   1.415   1.488 -0.5448  1.6382  1.2543
 4999TIP3   OH236555   2.725   3.035   0.502 -0.0258 -0.6167 -0.9454
 4999TIP3    H136556   2.660   3.075   0.560  0.2833 -0.1067 -0.9375
 4999TIP3    H236557   2.724   2.942   0.524  0.7388 -0.2987  0.5316
 5000TIP3   OH236558   0.496   4.915   0.418  0.2255  0.4675 -0.3261
 5000TIP3    H136559   0.458   5.003   0.412  0.5793  0.6973  0.6173
 5000TIP3    H236560   0.429   4.858   0.380 -0.2673  1.0776 -0.3980
 5001TIP3   OH236561   5.607   4.715   0.276 -0.4631 -0.2515 -0.0140
 5001TIP3    H136562   5.579   4.723   0.368 -2.8658  0.3210 -0.7243
 5001TIP3    H236563   5.602   4.805   0.242  1.5707 -0.2471 -0.4618
 5002TIP3   OH236564   4.654   5.403   0.050  0.4853 -0.3941  0.0565
 5002TIP3    H136565   4.583   5.407   0.114  0.7506  0.1962  0.3214
 5002TIP3    H236566   4.615   5.359  -0.026 -0.2495  0.1559  0.0989
 5003TIP3   OH236567   0.423   4.235   1.817  0.2404  0.2107 -0.3203
 5003TIP3    H136568   0.399   4.213   1.727 -2.9278 -1.0906  0.7097
 5003TIP3    H236569   0.464   4.155   1.851  1.8966  0.8667 -0.6985
 5004TIP3   OH236570   5.597   1.072   2.766 -0.6343 -0.5526  0.3709
 5004TIP3    H136571   5.626   1.083   2.857  0.5277 -0.9850  0.0763
 5004TIP3    H236572   5.548   1.151   2.747  0.7777  0.4757  0.7865
 5005TIP3   OH236573   4.616   2.280   3.765 -0.2752  0.7324  0.1730
 5005TIP3    H136574   4.564   2.221   3.819 -0.9394 -1.6955 -2.7868
 5005TIP3    H236575   4.705   2.247   3.772 -0.5018 -0.1356 -0.7950
 5006TIP3   OH236576   6.793   4.543   3.401 -0.3617 -0.1296  0.0372
 5006TIP3    H136577   6.734   4.502   3.338 -1.2385  1.9163 -0.5656
 5006TIP3    H236578   6.814   4.473   3.464 -0.0239 -2.0355 -2.0690
 5007TIP3   OH236579   2.734   1.202   8.723  0.0161 -0.3347 -0.2651
 5007TIP3    H136580   2.665   1.145   8.689 -0.0347  0.5465 -1.7242
 5007TIP3    H236581   2.711   1.289   8.690  0.5625  0.3953  1.2001
 5008TIP3   OH236582   1.646   4.498   0.286 -0.0170  0.2034  0.2069
 5008TIP3    H136583   1.705   4.510   0.212  0.6356 -1.0826  0.4888
 5008TIP3    H236584   1.662   4.408   0.315 -2.4463 -0.3705  0.0137
 5009TIP3   OH236585   4.936   5.847   0.152 -0.5160 -0.0745 -0.4194
 5009TIP3    H136586   4.945   5.942   0.142 -0.6387  0.3029  2.3749
 5009TIP3    H236587   5.026   5.816   0.167 -0.8360  0.3101  3.0800
 5010TIP3   OH236588   2.222   3.144   3.701  0.2518 -0.0471  0.6778
 5010TIP3    H136589   2.309   3.156   3.739  0.2561 -0.1525  0.7007
 5010TIP3    H236590   2.180   3.230   3.710  1.6065  1.1262 -2.5621
 5011TIP3   OH236591   0.211   4.502   0.945 -0.2653 -0.4288  0.1031
 5011TIP3    H136592   0.219   4.584   0.994 -1.8328 -0.4570  0.4560
 5011TIP3    H236593   0.118   4.499   0.919 -0.3350 -2.2824  0.4451
 5012TIP3   OH236594   3.183   4.778   7.630 -0.6111  0.3398 -0.5620
 5012TIP3    H136595   3.253   4.837   7.659  0.2664 -0.9818  0.1223
 5012TIP3    H236596   3.214   4.691   7.656 -2.0740 -0.3713 -1.1443
 5013TIP3   OH236597   4.577   0.595   2.234 -0.3082 -0.2670  0.0871
 5013TIP3    H136598   4.501   0.586   2.292 -0.5922  0.7240 -0.0973
 5013TIP3    H236599   4.556   0.673   2.181  1.0500  0.3154  0.3750
 5014TIP3   OH236600   2.346   2.737   2.486 -0.3072 -0.1863  0.0611
 5014TIP3    H136601   2.361   2.769   2.575 -1.6830 -0.2681  0.3354
 5014TIP3    H236602   2.254   2.755   2.469 -0.5126 -1.7901 -0.6798
 5015TIP3   OH236603   3.785   5.735   0.676 -0.3348 -0.0814 -0.6925
 5015TIP3    H136604   3.748   5.803   0.732 -0.0999  1.1587 -1.9825
 5015TIP3    H236605   3.715   5.714   0.614  0.2120  0.4121 -1.5106
 5016TIP3   OH236606   1.409   3.889   0.783  0.5276  0.7415  0.1123
 5016TIP3    H136607   1.445   3.839   0.856  1.1642  0.3057 -0.4891
 5016TIP3    H236608   1.324   3.848   0.765  0.6082  0.5118  0.2523
 5017TIP3   OH236609   3.562   2.980   2.684  0.5724  0.4599  0.5422
 5017TIP3    H136610   3.546   2.899   2.637  0.3331  0.6286  0.3299
 5017TIP3    H236611   3.571   2.954   2.776 -0.5599  0.3081  0.6311
 5018TIP3   OH236612   2.710   1.605   3.969  0.0301 -0.3323  0.4673
 5018TIP3    H136613   2.805   1.612   3.976  0.1316  0.4955 -1.2249
 5018TIP3    H236614   2.679   1.695   3.975 -0.4834 -0.4150 -0.6890
 5019TIP3   OH236615   1.438   4.562   3.170  0.1369 -0.1835 -0.0131
 5019TIP3    H136616   1.385   4.628   3.215 -0.2305 -0.1833 -0.4365
 5019TIP3    H236617   1.402   4.560   3.081  1.2271  0.2358 -0.4821
 5020TIP3   OH236618   5.326   6.276   7.772 -0.1029  0.6696  0.1062
 5020TIP3    H136619   5.398   6.339   7.785  0.7829 -0.6033  1.9356
 5020TIP3    H236620   5.356   6.220   7.700 -1.1995  2.6568 -2.0036
 5021TIP3   OH236621   5.863   3.732   1.351 -0.7126  0.3879 -0.7592
 5021TIP3    H136622   5.857   3.723   1.446  0.4159 -1.0741 -0.8078
 5021TIP3    H236623   5.799   3.801   1.330  0.9631  2.7697  1.3365
 5022TIP3   OH236624   2.046   5.710   1.297  0.0570 -0.2288  0.6153
 5022TIP3    H136625   2.118   5.714   1.360  0.7343 -2.4067  0.0412
 5022TIP3    H236626   1.967   5.703   1.352  0.2531  1.7101  1.2306
 5023TIP3   OH236627   5.851   6.816   1.127 -0.0052  0.1864  0.7354
 5023TIP3    H136628   5.780   6.873   1.156 -0.6069 -0.5603  0.7599
 5023TIP3    H236629   5.907   6.873   1.074 -0.5733  0.8094  0.7894
 5024TIP3   OH236630   0.950   2.508   3.563 -0.0966 -0.0388  0.8349
 5024TIP3    H136631   0.882   2.473   3.505  1.8277 -1.2794 -0.8413
 5024TIP3    H236632   0.902   2.551   3.634 -2.6203  1.1496 -1.3936
 5025TIP3   OH236633   1.461   1.969   0.831 -0.3336 -0.2772  0.0764
 5025TIP3    H136634   1.436   2.034   0.896 -1.0472 -0.8865  0.4258
 5025TIP3    H236635   1.531   2.011   0.781 -1.9396  1.4732 -0.8689
 5026TIP3   OH236636   0.817   1.901   4.071  0.5801 -0.2683 -1.1321
 5026TIP3    H136637   0.912   1.904   4.074  0.6578  1.7258 -2.9374
 5026TIP3    H236638   0.796   1.837   4.004  0.5550 -1.6934  0.1808
 5027TIP3   OH236639   1.669   3.849   1.229  0.5154 -0.6391 -0.4671
 5027TIP3    H136640   1.656   3.860   1.135  0.3089 -1.5619 -0.5509
 5027TIP3    H236641   1.581   3.849   1.266  0.6102  3.9339  0.2847
 5028TIP3   OH236642   3.616   3.249   2.768 -0.1395 -0.2366  0.0146
 5028TIP3    H136643   3.644   3.213   2.852  0.3449  0.7961  0.3112
 5028TIP3    H236644   3.630   3.178   2.705  0.7833 -0.5655  0.5825
 5029TIP3   OH236645   2.354   6.566   2.171 -0.2391  0.1498  0.5472
 5029TIP3    H136646   2.294   6.503   2.212 -1.3129  0.1704 -0.9455
 5029TIP3    H236647   2.437   6.518   2.164 -0.3040 -0.1905  1.7735
 5030TIP3   OH236648   0.456   3.861   8.232  0.2115 -0.5793 -0.4677
 5030TIP3    H136649   0.388   3.793   8.231  0.5836 -1.0111  0.9772
 5030TIP3    H236650   0.474   3.878   8.139  1.5847 -4.0050 -0.9810
 5031TIP3   OH236651   6.262   6.570   8.706 -0.4506  0.0895  0.5862
 5031TIP3    H136652   6.287   6.502   8.643 -2.1485  0.7786 -0.9199
 5031TIP3    H236653   6.342   6.622   8.718  0.3967 -1.1263  0.4250
 5032TIP3   OH236654   0.544   3.573   8.568  0.2994 -0.1576  0.1213
 5032TIP3    H136655   0.578   3.556   8.480  0.5709 -0.7606  0.3380
 5032TIP3    H236656   0.471   3.635   8.554  0.5853  0.0526 -0.4829
 5033TIP3   OH236657   3.242   1.365   0.483  0.1423  0.0718  0.2735
 5033TIP3    H136658   3.253   1.273   0.459 -0.1754  0.5100 -1.7245
 5033TIP3    H236659   3.315   1.409   0.439 -1.3456  1.1273 -1.2497
 5034TIP3   OH236660   2.237   5.715   8.180  0.2757  0.0770  0.1806
 5034TIP3    H136661   2.164   5.772   8.204  0.7684  0.6941  0.2408
 5034TIP3    H236662   2.213   5.680   8.095  1.3966  2.9709 -1.4776
 5035TIP3   OH236663   2.132   4.161   1.178  0.0741  0.2706 -0.1688
 5035TIP3    H136664   2.159   4.084   1.128  0.0969  0.4483 -0.4312
 5035TIP3    H236665   2.079   4.125   1.249  0.6738 -0.0458  0.1274
 5036TIP3   OH236666   6.067   5.964   1.146 -0.1864 -0.4769  0.7470
 5036TIP3    H136667   6.083   5.900   1.216  3.9727 -0.4962  0.0316
 5036TIP3    H236668   6.101   5.922   1.067 -1.1833  1.0482 -0.5475
 5037TIP3   OH236669   3.442   4.083   1.110  0.2402 -0.7547 -0.3145
 5037TIP3    H136670   3.532   4.056   1.123  1.3926  2.5798 -0.3646
 5037TIP3    H236671   3.427   4.077   1.016  0.6302 -0.6708 -0.3801
 5038TIP3   OH236672   4.250   2.559   0.038 -0.2756 -0.1787 -0.2390
 5038TIP3    H136673   4.261   2.520   0.124 -0.6549  0.4564  0.1088
 5038TIP3    H236674   4.286   2.494  -0.023  1.9241  0.2167  0.5299
 5039TIP3   OH236675   6.309   3.094   2.730  0.2169  0.2441 -0.1788
 5039TIP3    H136676   6.386   3.038   2.722  0.8043  1.0727 -0.5126
 5039TIP3    H236677   6.343   3.183   2.718 -0.5215  0.7654  1.2842
 5040TIP3   OH236678   0.434   4.522   3.687  0.1150  0.6418 -0.4878
 5040TIP3    H136679   0.446   4.448   3.748  1.0704  0.8693 -0.3837
 5040TIP3    H236680   0.520   4.535   3.648 -0.1476  1.4397 -0.8179
 5041TIP3   OH236681   2.323   4.640   3.091 -0.2419 -0.4809  0.2928
 5041TIP3    H136682   2.260   4.628   3.161  0.6540 -1.6360  0.9367
 5041TIP3    H236683   2.408   4.634   3.134  0.3222  0.0363 -0.7111
 5042TIP3   OH236684   1.453   6.786   8.371  0.1897  0.3593 -0.4066
 5042TIP3    H136685   1.419   6.711   8.420  0.0913 -1.2938 -2.7987
 5042TIP3    H236686   1.536   6.807   8.413  2.3218 -3.8458 -1.9493
 5043TIP3   OH236687   1.745   3.108   3.367  0.1737 -0.4416 -0.4768
 5043TIP3    H136688   1.678   3.064   3.315 -0.1971 -1.3224  0.7044
 5043TIP3    H236689   1.755   3.053   3.445 -0.0302  1.3743  0.8775
 5044TIP3   OH236690   5.281   3.640   8.574  0.4537 -0.0886 -0.0252
 5044TIP3    H136691   5.332   3.721   8.573  0.0188  0.1769 -1.0887
 5044TIP3    H236692   5.219   3.652   8.646  0.4328  0.4968 -0.1368
 5045TIP3   OH236693   0.396   3.269   1.649 -0.0514 -0.1893 -0.0921
 5045TIP3    H136694   0.478   3.280   1.697  1.5263 -1.2732 -2.3699
 5045TIP3    H236695   0.413   3.199   1.586 -2.2403  0.5775 -1.6889
 5046TIP3   OH236696   6.756   5.137   1.972  0.3398 -0.1073 -0.0407
 5046TIP3    H136697   6.677   5.188   1.989 -0.8871 -1.1667 -2.1571
 5046TIP3    H236698   6.827   5.189   2.010 -1.2172  1.4825  0.8195
 5047TIP3   OH236699   1.600   0.193   2.629 -0.2450 -0.5645  0.1552
 5047TIP3    H136700   1.682   0.143   2.619  0.0746  0.2051 -1.5260
 5047TIP3    H236701   1.532   0.134   2.595 -0.1139 -0.4858 -0.2443
 5048TIP3   OH236702   6.349   5.674   0.166 -0.0429 -0.4684  0.0518
 5048TIP3    H136703   6.405   5.711   0.097 -0.5356 -1.8692 -1.1643
 5048TIP3    H236704   6.260   5.696   0.140 -0.1733  0.2929  1.0811
 5049TIP3   OH236705   4.092   4.226   7.239 -0.7259  0.2213 -0.1313
 5049TIP3    H136706   4.099   4.320   7.224 -1.4925  0.3514  0.2686
 5049TIP3    H236707   4.004   4.214   7.274 -0.8800 -0.7373 -0.8166
 5050TIP3   OH236708   5.841   0.460   0.828 -0.2182  0.9156 -0.6982
 5050TIP3    H136709   5.879   0.372   0.839 -0.9498  0.7411  0.8126
 5050TIP3    H236710   5.880   0.494   0.748  1.4674 -0.0839 -0.3514
 5051TIP3   OH236711   5.002   2.532   1.867  0.2598 -0.5697  0.1556
 5051TIP3    H136712   5.033   2.500   1.783  1.7753  2.0168 -0.4106
 5051TIP3    H236713   4.996   2.627   1.856  4.0442  0.4352  3.8520
 5052TIP3   OH236714   4.608   2.300   1.312  0.2252  0.0179  1.0413
 5052TIP3    H136715   4.599   2.218   1.264  0.6350  0.4880  0.1358
 5052TIP3    H236716   4.531   2.351   1.287  1.4325  1.0650 -0.7719
 5053TIP3   OH236717   6.024   5.197   2.915 -0.4004  0.0983 -0.2504
 5053TIP3    H136718   6.057   5.149   2.991  0.2735  0.5832 -0.2215
 5053TIP3    H236719   5.959   5.258   2.952 -0.5927 -0.1613 -0.1612
 5054TIP3   OH236720   2.904   3.438   1.399 -0.0209 -0.2117 -0.0154
 5054TIP3    H136721   2.945   3.524   1.392 -0.4103  0.0034  0.3190
 5054TIP3    H236722   2.899   3.421   1.493  0.2917 -0.7152 -0.0857
 5055TIP3   OH236723   6.022   6.360   3.904 -0.7185 -0.6950 -0.3861
 5055TIP3    H136724   5.927   6.362   3.916 -0.9458  0.8010 -1.9997
 5055TIP3    H236725   6.035   6.383   3.812  1.2461  0.3045  0.0833
 5056TIP3   OH236726   5.663   1.749   2.628 -0.6379 -0.1338  0.3935
 5056TIP3    H136727   5.608   1.821   2.597  1.2048  1.4399  0.6050
 5056TIP3    H236728   5.748   1.765   2.587  0.2790 -1.2374  1.7918
 5057TIP3   OH236729   5.018   6.145   1.616  0.1181 -0.5298 -0.0509
 5057TIP3    H136730   5.028   6.171   1.707 -0.6629 -0.7674  0.1069
 5057TIP3    H236731   5.106   6.115   1.590  0.6328  0.6483  0.2541
 5058TIP3   OH236732   4.250   3.169   3.578 -0.3643  0.8987  0.1193
 5058TIP3    H136733   4.272   3.083   3.542 -0.0115  0.3290  1.6282
 5058TIP3    H236734   4.328   3.222   3.564 -1.0134  1.4168 -1.9661
 5059TIP3   OH236735   0.612   4.601   2.051  0.0029  0.3992  0.0765
 5059TIP3    H136736   0.531   4.582   2.003  1.8086 -0.9882 -2.6307
 5059TIP3    H236737   0.657   4.667   1.998  0.6519  1.2135  1.5796
 5060TIP3   OH236738   2.945   2.467   3.712 -0.1994  0.2025 -0.0548
 5060TIP3    H136739   2.858   2.429   3.729  0.1210  0.1128  1.6412
 5060TIP3    H236740   3.006   2.403   3.751  0.5784  0.6323 -0.5564
 5061TIP3   OH236741   1.656   0.876   2.329 -0.2112 -0.0274  0.6033
 5061TIP3    H136742   1.565   0.844   2.328 -0.8382  1.1069  4.6437
 5061TIP3    H236743   1.706   0.807   2.371  0.7864 -0.3991 -1.0907
 5062TIP3   OH236744   2.481   5.678   0.198  0.0385 -0.5136  0.6696
 5062TIP3    H136745   2.507   5.718   0.115  0.8563 -1.5445  0.4035
 5062TIP3    H236746   2.386   5.674   0.195  0.0741 -0.8025 -0.3595
 5063TIP3   OH236747   3.743   1.310   1.126  0.4084  0.1510  1.0589
 5063TIP3    H136748   3.671   1.307   1.189 -0.1655 -0.0499  0.4057
 5063TIP3    H236749   3.744   1.223   1.087  0.6951  0.3039  0.7200
 5064TIP3   OH236750   4.787   0.314   2.552  0.2181 -0.4596 -0.3879
 5064TIP3    H136751   4.748   0.267   2.478  1.2566 -0.2808 -1.0828
 5064TIP3    H236752   4.796   0.404   2.521  1.8254 -0.6459 -0.5438
 5065TIP3   OH236753   3.771   1.652   1.073  0.0171 -0.6145 -0.4098
 5065TIP3    H136754   3.796   1.679   0.984  0.7978 -0.7110 -0.2258
 5065TIP3    H236755   3.689   1.603   1.061 -0.7215  0.7001 -0.8958
 5066TIP3   OH236756   4.318   3.662   1.230  0.5121 -0.0351 -0.8657
 5066TIP3    H136757   4.278   3.575   1.223  1.3082 -0.3862 -1.1231
 5066TIP3    H236758   4.411   3.645   1.242  0.5718  0.7731 -0.0499
 5067TIP3   OH236759   2.503   0.829   1.842 -0.1171  0.0826 -0.4336
 5067TIP3    H136760   2.454   0.901   1.803 -0.0017  0.9360  0.9258
 5067TIP3    H236761   2.438   0.762   1.859 -0.3564  0.1552 -1.0403
 5068TIP3   OH236762   2.438   2.414   8.277  0.2461  0.1893 -0.3048
 5068TIP3    H136763   2.502   2.359   8.324 -0.3992 -1.6130 -1.4228
 5068TIP3    H236764   2.382   2.449   8.346  0.0108 -1.4672  0.4008
 5069TIP3   OH236765   6.093   4.271   0.751 -0.1036 -0.2641  0.2189
 5069TIP3    H136766   6.039   4.193   0.733  0.6531 -0.8310  0.3351
 5069TIP3    H236767   6.031   4.336   0.783 -0.6561 -1.0820  0.8774
 5070TIP3   OH236768   5.561   3.992   0.557  0.0302  0.3528  0.1733
 5070TIP3    H136769   5.534   4.083   0.551  0.5678  0.5547  0.7356
 5070TIP3    H236770   5.614   3.977   0.478  0.2242  0.6241  0.2512
 5071TIP3   OH236771   6.182   2.188   3.406  0.5111 -0.3274 -0.1742
 5071TIP3    H136772   6.213   2.271   3.370 -1.0146  0.0555 -0.6454
 5071TIP3    H236773   6.181   2.201   3.501 -0.9837  0.6752 -0.3042
 5072TIP3   OH236774   1.650   3.337   2.515 -0.0641 -0.4744 -0.1521
 5072TIP3    H136775   1.645   3.273   2.586  1.7772  1.5452  1.9768
 5072TIP3    H236776   1.560   3.369   2.505 -0.1243  0.4985  2.6833
 5073TIP3   OH236777   5.186   3.310   1.381  0.2798  0.4705 -0.2274
 5073TIP3    H136778   5.132   3.382   1.348 -0.5140  0.3238  0.7234
 5073TIP3    H236779   5.266   3.353   1.412 -0.5463  1.0782  1.1400
 5074TIP3   OH236780   5.237   0.842   0.400  0.0919  0.0111  0.0187
 5074TIP3    H136781   5.304   0.846   0.468 -0.0617  0.9749  0.1318
 5074TIP3    H236782   5.286   0.827   0.319  0.4217  0.3277  0.1524
 5075TIP3   OH236783   0.493   4.856   8.004 -0.0173 -0.2032 -0.3402
 5075TIP3    H136784   0.505   4.947   8.032 -2.1544 -0.6927  2.5341
 5075TIP3    H236785   0.561   4.807   8.051 -0.5414 -0.4019  0.2250
 5076TIP3   OH236786   4.356   2.256   8.155 -0.8425 -0.4562  0.6443
 5076TIP3    H136787   4.381   2.342   8.121  0.0728 -0.1506  2.0127
 5076TIP3    H236788   4.264   2.246   8.130 -0.4031 -0.0167 -1.3675
 5077TIP3   OH236789   5.747   1.419   8.453 -0.1548  0.1337  0.4189
 5077TIP3    H136790   5.709   1.368   8.382 -1.7755 -1.9527  2.6424
 5077TIP3    H236791   5.677   1.428   8.518  1.5159  1.0624  2.2256
 5078TIP3   OH236792   6.233   0.629   3.349  0.0581 -0.7057 -0.0961
 5078TIP3    H136793   6.280   0.690   3.406 -1.1590 -0.2486  0.4445
 5078TIP3    H236794   6.212   0.555   3.405 -0.7260 -0.4695 -0.0773
 5079TIP3   OH236795   1.899   3.089   3.127 -0.3819 -0.7130 -0.2096
 5079TIP3    H136796   1.865   3.000   3.125 -0.9138 -0.5732  1.2215
 5079TIP3    H236797   1.882   3.119   3.216 -0.2609  0.8471 -0.6789
 5080TIP3   OH236798   2.749   3.023   2.897 -0.5099 -0.0529  0.2367
 5080TIP3    H136799   2.786   2.982   2.819 -0.6076 -1.0607  0.7034
 5080TIP3    H236800   2.674   3.073   2.864 -2.4694 -2.9315 -0.0153
 5081TIP3   OH236801   3.031   5.711   2.861  1.1054 -0.2376  0.0961
 5081TIP3    H136802   3.125   5.693   2.869  1.1450  0.2235  0.8501
 5081TIP3    H236803   2.991   5.659   2.931  0.6987 -1.0394 -0.7066
 5082TIP3   OH236804   0.951   3.083   0.211  0.3198 -0.3081  0.3841
 5082TIP3    H136805   0.954   3.080   0.115  0.1893 -0.9558  0.3909
 5082TIP3    H236806   1.035   3.120   0.236 -0.6600  2.4326 -0.0410
 5083TIP3   OH236807   2.930   5.108   1.059 -0.3719 -0.2741  0.1172
 5083TIP3    H136808   2.906   5.042   1.125  0.3046 -1.7571 -1.0463
 5083TIP3    H236809   2.994   5.164   1.102  0.4967 -1.5670  0.5645
 5084TIP3   OH236810   4.056   5.781   2.582 -0.3140  0.0369 -0.4687
 5084TIP3    H136811   3.969   5.750   2.554 -0.2467 -1.1108  0.4898
 5084TIP3    H236812   4.041   5.817   2.670  0.4785 -2.0672  0.6095
 5085TIP3   OH236813   1.091   6.192   2.307  0.3832 -0.6489 -0.0856
 5085TIP3    H136814   1.059   6.141   2.232  0.8266 -0.4333 -0.4291
 5085TIP3    H236815   1.018   6.250   2.328  0.7302  0.2663 -1.2582
 5086TIP3   OH236816   3.064   2.157   1.776 -0.0152 -0.3963 -0.0902
 5086TIP3    H136817   2.989   2.205   1.741 -0.7484 -2.0298 -0.8485
 5086TIP3    H236818   3.088   2.096   1.707 -0.0105 -2.0991  1.3653
 5087TIP3   OH236819   1.325   0.412   2.715 -0.2385  0.7916  0.1474
 5087TIP3    H136820   1.404   0.362   2.698 -1.1840 -1.2848  1.5130
 5087TIP3    H236821   1.355   0.502   2.724  1.8221  0.1870 -0.2144
 5088TIP3   OH236822   1.323   2.958   2.954  0.8256  0.6994 -0.2010
 5088TIP3    H136823   1.301   2.928   3.042 -0.1553  0.7691 -0.4035
 5088TIP3    H236824   1.312   2.881   2.899 -1.9225  1.3926 -0.7567
 5089TIP3   OH236825   6.630   3.014   2.993  0.2969 -0.6172 -0.1163
 5089TIP3    H136826   6.707   3.022   2.937 -0.1407  0.4970 -0.5821
 5089TIP3    H236827   6.567   2.966   2.940 -0.1652  0.5519 -0.6670
 5090TIP3   OH236828   5.211   2.208   0.091 -0.2794  0.0399 -0.6769
 5090TIP3    H136829   5.203   2.301   0.069  1.8851  0.5349  0.3835
 5090TIP3    H236830   5.183   2.203   0.182  0.5707 -0.1483 -0.4184
 5091TIP3   OH236831   1.794   2.052   1.622 -0.3891 -0.2978  0.3124
 5091TIP3    H136832   1.755   1.971   1.657  0.7290 -1.0600 -0.1568
 5091TIP3    H236833   1.830   2.026   1.537 -1.6815  1.1549 -0.7320
 5092TIP3   OH236834   0.042   6.705   3.078  0.3429  0.4405 -0.8237
 5092TIP3    H136835   0.027   6.615   3.050  1.6315  0.3599 -1.3324
 5092TIP3    H236836   0.097   6.697   3.156  0.4130  0.7739 -0.8352
 5093TIP3   OH236837   4.784   6.276   1.080  0.1784 -0.1111  0.3842
 5093TIP3    H136838   4.744   6.308   1.161  0.4536 -0.0551  0.4984
 5093TIP3    H236839   4.864   6.329   1.071  0.0042  0.0754 -0.0685
 5094TIP3   OH236840   3.998   5.286   1.064  0.3144  0.6945  0.0167
 5094TIP3    H136841   3.935   5.284   0.992  0.0060  0.3543  0.2942
 5094TIP3    H236842   4.036   5.198   1.065  0.5915  0.8133  0.0288
 5095TIP3   OH236843   1.227   2.662   1.635 -0.2773 -0.1550 -0.1863
 5095TIP3    H136844   1.321   2.655   1.653 -0.3339  1.0003  0.6955
 5095TIP3    H236845   1.188   2.677   1.721 -0.7971  3.5711 -0.9122
 5096TIP3   OH236846   2.493   1.491   1.786 -0.2805  0.0581  0.2889
 5096TIP3    H136847   2.524   1.513   1.874  2.3212 -1.0654 -0.2415
 5096TIP3    H236848   2.537   1.555   1.729  1.4284 -1.7335 -0.5215
 5097TIP3   OH236849   0.169   2.848   1.625  0.0417  0.1440  0.0732
 5097TIP3    H136850   0.154   2.823   1.716  2.4043 -1.3364  0.1412
 5097TIP3    H236851   0.181   2.765   1.579  0.5369  0.9201 -1.2522
 5098TIP3   OH236852   4.541   1.768   2.549  0.3070  0.9297  0.1830
 5098TIP3    H136853   4.465   1.765   2.490  0.2641 -0.9444  0.2567
 5098TIP3    H236854   4.517   1.832   2.616 -1.6112 -0.1947  0.6674
 5099TIP3   OH236855   6.229   2.040   3.008  0.2725  0.0796  0.3245
 5099TIP3    H136856   6.173   2.054   3.084  0.0187  0.5194  0.0569
 5099TIP3    H236857   6.314   2.075   3.035 -0.3981  2.4245 -0.4049
 5100TIP3   OH236858   6.100   1.522   8.345 -0.1882  0.2748  0.3149
 5100TIP3    H136859   6.064   1.518   8.256 -0.1833 -0.9198  0.3534
 5100TIP3    H236860   6.187   1.482   8.338 -0.4254 -0.3767  0.9685
 5101TIP3   OH236861   6.800   1.603   1.578  0.0189 -0.0632 -0.0802
 5101TIP3    H136862   6.711   1.637   1.568  0.1591 -0.1615 -1.9932
 5101TIP3    H236863   6.852   1.651   1.514  1.1351 -0.7248  0.3018
 5102TIP3   OH236864   4.019   3.680   8.471 -0.6982 -0.1518  0.1040
 5102TIP3    H136865   4.062   3.650   8.390 -1.2391 -0.4493 -0.0800
 5102TIP3    H236866   3.941   3.726   8.440 -2.3215 -2.4684  0.4821
 5103TIP3   OH236867   5.627   0.158   2.517  0.2752 -0.3712  0.5668
 5103TIP3    H136868   5.715   0.182   2.488  0.3315 -0.0806  0.9605
 5103TIP3    H236869   5.641   0.082   2.575  0.0350 -1.8294 -1.1959
 5104TIP3   OH236870   5.089   1.952   1.468  0.2478 -0.0948  0.6806
 5104TIP3    H136871   5.007   1.975   1.511  0.0674  2.4071 -0.8141
 5104TIP3    H236872   5.066   1.945   1.375  1.8395  1.7391  0.0804
 5105TIP3   OH236873   1.996   3.421   0.253  0.4833  0.4155 -0.6713
 5105TIP3    H136874   2.037   3.452   0.172  2.5924  1.7596  0.7931
 5105TIP3    H236875   2.022   3.329   0.261 -0.9327 -0.1533 -2.1679
 5106TIP3   OH236876   5.286   0.781   1.258  0.2492 -0.1246 -0.4698
 5106TIP3    H136877   5.331   0.830   1.190  0.2334 -0.5438 -0.7835
 5106TIP3    H236878   5.216   0.735   1.213 -1.9319  2.2237  0.3184
 5107TIP3   OH236879   4.075   1.670   3.178 -0.1257 -0.0943  0.1294
 5107TIP3    H136880   4.036   1.599   3.229 -2.1197  0.4465 -0.5505
 5107TIP3    H236881   4.012   1.686   3.108  1.3313  0.8985 -1.0092
 5108TIP3   OH236882   0.564   1.988   3.081  0.1445  0.1053 -0.0428
 5108TIP3    H136883   0.653   1.953   3.083 -0.3215 -1.1707 -0.7338
 5108TIP3    H236884   0.546   2.013   3.172  0.2195 -2.2320  0.6799
 5109TIP3   OH236885   5.602   6.154   1.958 -0.6956  0.2017 -0.4859
 5109TIP3    H136886   5.610   6.230   2.015 -2.6036  0.3143 -0.3160
 5109TIP3    H236887   5.603   6.190   1.869 -0.1645  0.2689 -0.4555
 5110TIP3   OH236888   4.971   0.029   1.503  0.1397 -0.0298  0.4418
 5110TIP3    H136889   5.019  -0.027   1.565 -0.4386 -0.4564  0.5113
 5110TIP3    H236890   5.011   0.010   1.418 -0.3702 -0.9200  0.3890
 5111TIP3   OH236891   4.277   1.162   7.989 -0.1082 -0.3224 -0.4653
 5111TIP3    H136892   4.247   1.196   7.905 -0.8866  1.4016  0.4585
 5111TIP3    H236893   4.206   1.106   8.020  0.4316 -1.4539 -1.1806
 5112TIP3   OH236894   4.083   4.619   7.436  0.2806 -0.2438  0.4081
 5112TIP3    H136895   4.068   4.707   7.471 -0.4919 -0.8780  1.7726
 5112TIP3    H236896   4.176   4.603   7.451  0.3305  0.1656  0.5594
 5113TIP3   OH236897   0.431   3.125   8.539  0.5066 -0.0018 -0.7504
 5113TIP3    H136898   0.390   3.210   8.553  0.4877  0.0873 -1.3273
 5113TIP3    H236899   0.525   3.141   8.552  0.4329 -0.0585 -0.1179
 5114TIP3   OH236900   5.921   4.030   1.549  0.0243 -0.0913  0.2361
 5114TIP3    H136901   5.884   4.113   1.578  0.2064  0.0881 -0.0374
 5114TIP3    H236902   5.855   3.965   1.572 -0.8522  0.3278 -1.0351
 5115TIP3   OH236903   6.070   4.962   0.811  0.8933  0.2654 -0.0710
 5115TIP3    H136904   5.977   4.978   0.828  1.0622  0.1054  1.0487
 5115TIP3    H236905   6.117   5.028   0.861  1.3791  1.4831 -2.0083
 5116TIP3   OH236906   0.772   5.341   7.973 -0.2186  0.4818 -0.5287
 5116TIP3    H136907   0.773   5.245   7.980 -1.8504  0.5063  0.7126
 5116TIP3    H236908   0.679   5.363   7.974  0.1224  2.0789 -1.2188
 5117TIP3   OH236909   5.642   6.224   0.703 -0.2318  0.6073 -0.1852
 5117TIP3    H136910   5.548   6.241   0.702 -0.4746 -0.3035  1.8804
 5117TIP3    H236911   5.649   6.133   0.672 -0.0887  0.4885  0.1973
 5118TIP3   OH236912   0.056   6.046   2.508  0.1687  0.4085  0.7255
 5118TIP3    H136913   0.084   6.081   2.423 -0.8979 -0.5938 -0.0842
 5118TIP3    H236914  -0.024   6.094   2.529  0.3682  0.5747  1.1152
 5119TIP3   OH236915   0.592   0.505   3.297 -0.4379 -0.1789 -0.3562
 5119TIP3    H136916   0.610   0.419   3.258 -1.9344  0.1808 -1.9890
 5119TIP3    H236917   0.649   0.509   3.373  2.6673 -0.9971 -2.4241
 5120TIP3   OH236918   0.244   1.567   1.361 -0.3645  0.2130  0.3908
 5120TIP3    H136919   0.223   1.660   1.358 -0.9182  0.0650 -0.5254
 5120TIP3    H236920   0.160   1.523   1.356 -0.1968 -0.3476  1.9549
 5121TIP3   OH236921   6.211   2.256   7.983  0.1776 -0.4985  0.2051
 5121TIP3    H136922   6.265   2.222   7.911  1.9222  0.9024  0.7812
 5121TIP3    H236923   6.219   2.351   7.976 -2.5485 -0.2080  0.1385
 5122TIP3   OH236924   6.140   2.533   1.083  0.3861 -0.3194 -0.3041
 5122TIP3    H136925   6.234   2.541   1.100  0.2870 -0.7872  0.5135
 5122TIP3    H236926   6.131   2.556   0.990  1.4415 -1.2254 -0.6671
 5123TIP3   OH236927   5.209   5.129   1.815 -0.3422  0.0217  0.0686
 5123TIP3    H136928   5.184   5.167   1.900 -3.3990  1.2396 -1.2264
 5123TIP3    H236929   5.208   5.035   1.830 -2.3202  0.1399  1.1200
 5124TIP3   OH236930   2.015   0.234   1.827  0.1924 -0.7006 -0.5386
 5124TIP3    H136931   2.088   0.228   1.765  0.6427  1.2234 -0.2397
 5124TIP3    H236932   2.043   0.180   1.901  2.0044  1.1117  0.1877
 5125TIP3   OH236933   3.613   4.928   8.310 -0.0149  0.1205 -0.4198
 5125TIP3    H136934   3.635   4.927   8.216  1.9717 -0.4843  0.0012
 5125TIP3    H236935   3.622   4.836   8.337  2.8775  0.7189  1.0314
 5126TIP3   OH236936   1.582   4.222   1.719 -0.0292  0.8534  0.0931
 5126TIP3    H136937   1.647   4.169   1.673 -0.4768  1.6183 -1.4823
 5126TIP3    H236938   1.613   4.225   1.810 -0.4089 -2.7563  0.4972
 5127TIP3   OH236939   0.581   2.493   2.211  0.4395 -0.1094 -0.3864
 5127TIP3    H136940   0.533   2.493   2.294  1.5619  2.5038  0.3610
 5127TIP3    H236941   0.540   2.563   2.160  3.8634  2.9957  0.6905
 5128TIP3   OH236942   2.004   6.164   3.861 -0.0901 -0.3441  0.0017
 5128TIP3    H136943   1.935   6.199   3.804 -0.6694 -1.8361 -0.2558
 5128TIP3    H236944   2.033   6.240   3.913 -0.1691  0.8545 -1.6227
 5129TIP3   OH236945   5.201   1.397   1.546  0.4472 -0.1353  0.0681
 5129TIP3    H136946   5.245   1.388   1.462  1.5571 -1.0038  0.7153
 5129TIP3    H236947   5.139   1.469   1.533 -0.0201 -0.8146 -1.7287
 5130TIP3   OH236948   4.407   6.193   0.278 -0.3547  0.5761 -0.2956
 5130TIP3    H136949   4.452   6.131   0.220 -0.8929  1.4641 -1.7135
 5130TIP3    H236950   4.315   6.167   0.275 -0.5151  1.1531 -0.5445
 5131TIP3   OH236951   2.880   1.528   2.743 -0.1631 -0.5881  0.0121
 5131TIP3    H136952   2.909   1.460   2.804  1.3014  0.5572  0.6573
 5131TIP3    H236953   2.959   1.580   2.726 -1.4341  1.5715  0.3816
 5132TIP3   OH236954   1.329   3.533   1.413  0.3211  0.4301  0.4381
 5132TIP3    H136955   1.346   3.445   1.446 -0.1421  0.7189  1.4977
 5132TIP3    H236956   1.416   3.572   1.401  0.5118  0.3081  1.3376
 5133TIP3   OH236957   0.342   6.006   3.281 -0.5161 -0.0904 -0.3552
 5133TIP3    H136958   0.398   6.046   3.347 -1.1707  1.8020 -0.8694
 5133TIP3    H236959   0.285   5.947   3.330 -1.3106  1.6258  0.8838
 5134TIP3   OH236960   0.785   1.121   2.904 -0.3177  0.1906 -0.0803
 5134TIP3    H136961   0.789   1.109   2.809 -0.7785  1.4685 -0.2825
 5134TIP3    H236962   0.720   1.057   2.933  0.3951 -0.7567 -0.5034
 5135TIP3   OH236963   6.128   6.384   0.147 -0.2257  0.3993 -0.1939
 5135TIP3    H136964   6.139   6.289   0.143  0.2719  0.2978  2.0068
 5135TIP3    H236965   6.211   6.419   0.113 -1.0051  0.1406 -2.5160
 5136TIP3   OH236966   2.349   5.888   2.623  0.0332 -0.1675 -0.5330
 5136TIP3    H136967   2.421   5.905   2.683  0.7328 -0.7889 -1.1626
 5136TIP3    H236968   2.285   5.957   2.640  0.0556 -0.5282  1.1417
 5137TIP3   OH236969   3.859   1.089   8.469  0.3762  0.1293 -0.8027
 5137TIP3    H136970   3.833   1.029   8.399 -0.6979 -0.9932  0.4890
 5137TIP3    H236971   3.797   1.162   8.461  0.9300  0.5331 -1.6370
 5138TIP3   OH236972   5.734   0.895   1.099  0.3395 -0.0643 -0.2430
 5138TIP3    H136973   5.725   0.990   1.106  0.3951 -0.1948  3.6730
 5138TIP3    H236974   5.645   0.862   1.093  0.1726  0.1528  0.9699
 5139TIP3   OH236975   3.611   6.147   7.959  0.0992  0.4315  0.0028
 5139TIP3    H136976   3.562   6.092   7.899  0.0918 -1.3141  1.5064
 5139TIP3    H236977   3.660   6.207   7.903  1.3602 -2.1521 -1.8584
 5140TIP3   OH236978   3.306   0.546   0.619 -0.7621  0.3608  0.0738
 5140TIP3    H136979   3.357   0.465   0.620  0.1443  0.8495 -1.5720
 5140TIP3    H236980   3.344   0.599   0.689 -1.0092 -0.4157  0.8113
 5141TIP3   OH236981   4.249   2.252   3.704 -0.1210  0.0500  0.0787
 5141TIP3    H136982   4.159   2.219   3.702 -0.9224  2.0412 -2.1551
 5141TIP3    H236983   4.304   2.175   3.690 -1.6667 -0.8325 -1.4448
 5142TIP3   OH236984   5.424   0.523   8.371  0.1441  0.6713 -1.3333
 5142TIP3    H136985   5.464   0.474   8.442  2.1513  3.5682 -0.2542
 5142TIP3    H236986   5.492   0.527   8.304 -0.3333  1.1191 -1.7935
 5143TIP3   OH236987   1.267   5.516   2.719 -0.1562  0.2768 -0.4219
 5143TIP3    H136988   1.338   5.580   2.710 -0.0298  0.3326  0.8161
 5143TIP3    H236989   1.292   5.464   2.795  0.1842 -1.8269 -1.8882
 5144TIP3   OH236990   4.402   1.130   8.733  0.2071  0.5105  0.2984
 5144TIP3    H136991   4.415   1.224   8.746 -0.1611  0.3599  2.0459
 5144TIP3    H236992   4.308   1.117   8.742  0.2724 -0.0519  0.2277
 5145TIP3   OH236993   4.371   4.945   8.281  0.3115 -0.1581 -0.5894
 5145TIP3    H136994   4.311   4.953   8.207  2.6885  1.4154 -2.5098
 5145TIP3    H236995   4.450   4.907   8.243  0.9241 -1.2775  1.6401
 5146TIP3   OH236996   4.501   3.822   3.068 -0.1567  0.4687 -0.2409
 5146TIP3    H136997   4.489   3.736   3.108 -0.6102  1.2091  1.2863
 5146TIP3    H236998   4.454   3.816   2.984  0.0483 -0.8312 -0.2926
 5147TIP3   OH236999   4.322   5.682   0.153  0.0850 -0.2338 -0.3071
 5147TIP3    H137000   4.393   5.701   0.091 -0.7617 -2.4196 -2.1074
 5147TIP3    H237001   4.329   5.587   0.167 -2.7909 -0.6271 -1.0124
 5148TIP3   OH237002   5.201   2.573   0.511  0.5549  0.1572 -0.1606
 5148TIP3    H137003   5.165   2.592   0.424  0.8561 -1.5554 -0.6938
 5148TIP3    H237004   5.126   2.579   0.570  0.6315  3.0083 -0.2032
 5149TIP3   OH237005   1.713   5.319   3.993  0.3963 -0.8862 -0.0623
 5149TIP3    H137006   1.787   5.378   4.007  0.2795 -1.1565  1.9516
 5149TIP3    H237007   1.709   5.308   3.898  1.2527  1.2738 -0.4037
 5150TIP3   OH237008   2.855   4.373   3.204  0.8208  0.1143  0.0732
 5150TIP3    H137009   2.930   4.357   3.146  0.7817  0.6329 -0.1259
 5150TIP3    H237010   2.869   4.462   3.237  0.1581  0.3122 -0.1646
 5151TIP3   OH237011   2.614   2.609   0.268  0.2615 -0.3169 -0.0516
 5151TIP3    H137012   2.558   2.679   0.302 -1.8152 -1.4039 -1.0215
 5151TIP3    H237013   2.618   2.625   0.173  0.1685 -1.2261 -0.2155
 5152TIP3   OH237014   4.253   2.271   3.095  0.2638  0.6833 -0.1131
 5152TIP3    H137015   4.181   2.248   3.153  1.0728 -1.0649  0.2623
 5152TIP3    H237016   4.331   2.262   3.149  1.1894 -2.3561 -1.7003
 5153TIP3   OH237017   1.993   1.423   2.184 -0.0451  0.2037  0.2548
 5153TIP3    H137018   1.910   1.377   2.174 -0.7524  1.1261  1.5911
 5153TIP3    H237019   2.012   1.457   2.097 -2.0758  1.6208  0.3109
 5154TIP3   OH237020   3.215   0.678   2.171 -0.6022  0.0432  0.5776
 5154TIP3    H137021   3.308   0.670   2.190 -0.7149 -1.6496  0.6113
 5154TIP3    H237022   3.198   0.609   2.107 -1.6045  1.1218 -0.3662
 5155TIP3   OH237023   0.033   0.141   7.992 -0.0369 -0.6570 -0.3679
 5155TIP3    H137024  -0.037   0.086   7.957 -1.1793 -0.1906  1.0755
 5155TIP3    H237025   0.025   0.224   7.944 -0.5423 -0.5783 -0.1562
 5156TIP3   OH237026   0.724   2.987   2.850  0.2318 -0.0313 -0.0209
 5156TIP3    H137027   0.809   3.018   2.880  1.1145 -0.3745 -1.9658
 5156TIP3    H237028   0.681   3.066   2.815  0.5585 -0.1708 -0.7592
 5157TIP3   OH237029   1.749   1.712   8.034  0.8398  0.0021 -0.2008
 5157TIP3    H137030   1.809   1.733   7.962  0.8133 -2.2975 -1.0042
 5157TIP3    H237031   1.719   1.623   8.014 -2.3400  0.7906  0.5218
 5158TIP3   OH237032   4.074   3.424   1.858 -0.4524  0.3510 -0.4733
 5158TIP3    H137033   4.134   3.498   1.864 -1.3399  0.9603  1.5461
 5158TIP3    H237034   4.105   3.374   1.782  2.7178  0.5308  0.5794
 5159TIP3   OH237035   4.095   4.298   0.861  0.1366  0.4316  0.2499
 5159TIP3    H137036   4.151   4.235   0.815 -0.3266  1.0109 -1.1549
 5159TIP3    H237037   4.006   4.276   0.833 -0.3972 -0.4878  2.4683
 5160TIP3   OH237038   5.779   6.496   8.518 -0.3574  0.4462 -0.7419
 5160TIP3    H137039   5.779   6.409   8.479  0.1136  0.0744  0.0559
 5160TIP3    H237040   5.862   6.501   8.565 -1.1924  0.5988  0.7870
 5161TIP3   OH237041   3.370   3.627   0.756 -0.0210  0.3294  0.0236
 5161TIP3    H137042   3.420   3.587   0.826  0.5576 -0.6168 -0.8961
 5161TIP3    H237043   3.294   3.569   0.745  0.9216 -0.6800 -1.4488
 5162TIP3   OH237044   2.786   1.625   0.409 -0.0934 -0.1749  0.0975
 5162TIP3    H137045   2.808   1.625   0.502  2.1326  0.7069 -0.3426
 5162TIP3    H237046   2.728   1.700   0.398  2.9159  2.4153  0.2477
 5163TIP3   OH237047   4.706   0.912   1.132 -0.2376  0.2021  0.0044
 5163TIP3    H137048   4.692   0.980   1.067 -2.4819 -0.3176 -0.1359
 5163TIP3    H237049   4.672   0.832   1.091  1.5889 -0.8853  0.4739
 5164TIP3   OH237050   1.469   1.796   8.341  0.0943 -0.1134 -0.0883
 5164TIP3    H137051   1.520   1.717   8.356  1.7927  0.7149 -1.1638
 5164TIP3    H237052   1.486   1.851   8.417 -0.9717 -0.7087  0.5917
 5165TIP3   OH237053   3.673   6.317   0.677  0.1140  0.3313  0.0940
 5165TIP3    H137054   3.630   6.243   0.720 -1.4359  0.0316 -1.8376
 5165TIP3    H237055   3.766   6.304   0.694 -0.2775 -1.0042  1.3861
 5166TIP3   OH237056   5.041   2.621   0.722  0.2031  0.1321  0.3976
 5166TIP3    H137057   4.953   2.652   0.745 -0.5167 -1.2454 -0.3818
 5166TIP3    H237058   5.037   2.526   0.734  1.9308  0.1373  1.4065
 5167TIP3   OH237059   5.209   0.438   8.581  0.2476  0.3259  0.0241
 5167TIP3    H137060   5.255   0.452   8.498 -0.7694  0.0484 -0.6100
 5167TIP3    H237061   5.167   0.352   8.571 -0.9038  0.8293  0.3137
 5168TIP3   OH237062   0.048   5.623   0.589  0.0917  0.1572 -0.3700
 5168TIP3    H137063   0.023   5.621   0.682  0.6186  1.2670 -0.1875
 5168TIP3    H237064   0.138   5.656   0.590  1.0641 -2.2204 -1.1098
 5169TIP3   OH237065   3.497   4.604   2.684 -0.2134  0.6760  0.2773
 5169TIP3    H137066   3.443   4.623   2.607  0.3161  1.9060  0.1817
 5169TIP3    H237067   3.437   4.613   2.758 -0.4991  0.4782  0.0702
 5170TIP3   OH237068   4.102   2.155   8.098 -0.4391  0.1311 -0.0364
 5170TIP3    H137069   4.015   2.166   8.137 -0.7889  2.4357 -1.2662
 5170TIP3    H237070   4.086   2.107   8.017 -0.4876  0.1060 -0.0119
 5171TIP3   OH237071   2.367   6.256   8.738  0.6305  0.1978  0.0123
 5171TIP3    H137072   2.426   6.226   8.669 -1.2611  1.6048 -2.4153
 5171TIP3    H237073   2.408   6.336   8.772  0.7386  0.5235 -0.8440
 5172TIP3   OH237074   0.690   4.103   2.212  0.0618 -0.6963  0.3823
 5172TIP3    H137075   0.719   4.186   2.177 -1.1083  0.7502  2.5989
 5172TIP3    H237076   0.597   4.099   2.191 -0.0508 -1.0887  0.9242
 5173TIP3   OH237077   6.152   5.192   1.599 -0.5199 -0.2736 -0.3418
 5173TIP3    H137078   6.202   5.122   1.558 -0.5917 -0.9119  0.6361
 5173TIP3    H237079   6.061   5.166   1.589 -0.5122 -1.8837  2.5659
 5174TIP3   OH237080   4.783   1.306   3.282  0.0687  0.6354  0.1163
 5174TIP3    H137081   4.821   1.221   3.307  0.1476 -0.1023 -2.2508
 5174TIP3    H237082   4.856   1.354   3.243 -0.1464  1.5087  0.7790
 5175TIP3   OH237083   6.776   1.051   3.172  0.7493 -0.2808 -0.3369
 5175TIP3    H137084   6.831   0.973   3.174 -1.0388 -1.6108 -0.0059
 5175TIP3    H237085   6.748   1.062   3.263 -1.3639 -1.0852 -0.8261
 5176TIP3   OH237086   3.980   4.833   2.962 -0.4346 -0.1691  0.0281
 5176TIP3    H137087   4.022   4.774   2.901  0.0126  0.3520 -0.1736
 5176TIP3    H237088   4.031   4.826   3.043 -0.6283 -0.3585  0.1377
 5177TIP3   OH237089   0.867   1.298   8.722  0.2993  0.6643  0.0120
 5177TIP3    H137090   0.889   1.363   8.789  0.8611  0.9373 -0.4326
 5177TIP3    H237091   0.844   1.219   8.772 -1.1569  1.4059  0.5898
 5178TIP3   OH237092   2.003   2.939   8.553  0.1334 -0.3750  1.0787
 5178TIP3    H137093   2.049   2.978   8.628 -0.0380 -1.7157  1.9199
 5178TIP3    H237094   1.912   2.934   8.581 -0.0249 -0.4250  0.5653
 5179TIP3   OH237095   4.116   2.593   3.795  0.3036  0.1422  0.1901
 5179TIP3    H137096   4.125   2.686   3.815  0.1640 -0.4267  3.7115
 5179TIP3    H237097   4.200   2.555   3.821 -0.1271 -0.8638  0.1424
 5180TIP3   OH237098   5.201   4.184   1.236  0.3139  0.1517 -0.0104
 5180TIP3    H137099   5.262   4.123   1.277  2.5595  1.6165 -0.9340
 5180TIP3    H237100   5.204   4.162   1.143 -0.5453  0.2777 -0.0760
 5181TIP3   OH237101   6.663   1.424   2.673  0.0182  0.1220  0.0269
 5181TIP3    H137102   6.665   1.468   2.758  2.9623  1.4353 -0.6013
 5181TIP3    H237103   6.663   1.496   2.609 -2.3282 -0.8357 -1.1687
 5182TIP3   OH237104   5.779   1.704   1.342 -0.1032  0.5793  0.0445
 5182TIP3    H137105   5.746   1.695   1.252 -1.9538 -1.7159  0.8410
 5182TIP3    H237106   5.861   1.654   1.342 -0.1069  0.5709 -0.3596
 5183TIP3   OH237107   4.114   5.610   0.510 -0.1314 -0.3771 -0.0100
 5183TIP3    H137108   4.042   5.593   0.449  0.3361  0.6537 -0.8911
 5183TIP3    H237109   4.092   5.695   0.549  0.7665  0.1293 -0.5640
 5184TIP3   OH237110   4.072   5.532   1.157 -0.3970  0.3808  0.7069
 5184TIP3    H137111   4.060   5.443   1.124 -0.8560  0.4319  0.7249
 5184TIP3    H237112   4.154   5.561   1.118 -1.1969  0.6373 -0.8383
 5185TIP3   OH237113   0.749   1.880   0.908 -0.5876 -0.0895 -0.4338
 5185TIP3    H137114   0.683   1.823   0.948  0.1721 -0.5819  0.1303
 5185TIP3    H237115   0.818   1.887   0.973 -0.7499  1.6756 -0.3844
 5186TIP3   OH237116   4.864   0.675   8.530 -0.1651 -0.0287 -0.7958
 5186TIP3    H137117   4.898   0.617   8.462  2.0460  1.0093 -0.6792
 5186TIP3    H237118   4.780   0.706   8.496  0.1256 -0.7967 -2.2846
 5187TIP3   OH237119   1.018   6.736   0.023 -0.3781 -0.4928 -0.1823
 5187TIP3    H137120   0.923   6.745   0.030 -0.3350  0.3203 -0.5478
 5187TIP3    H237121   1.032   6.672  -0.047 -0.6494  0.0988 -0.7878
 5188TIP3   OH237122   3.274   4.856   2.725 -0.0244  0.5497 -0.4857
 5188TIP3    H137123   3.324   4.874   2.805 -1.4891 -0.0733  0.6330
 5188TIP3    H237124   3.340   4.848   2.657  1.2000  2.3620  0.3956
 5189TIP3   OH237125   5.387   2.824   8.538 -0.6159  0.3241 -0.5953
 5189TIP3    H137126   5.454   2.879   8.579 -1.4918  1.0624 -0.1525
 5189TIP3    H237127   5.344   2.881   8.475 -0.1108 -0.4635 -1.6905
 5190TIP3   OH237128   0.748   4.474   0.843 -0.9347  0.6279 -0.0948
 5190TIP3    H137129   0.747   4.462   0.938 -2.3252  1.8428  0.0836
 5190TIP3    H237130   0.793   4.397   0.809 -1.7540 -0.5798  1.4590
 5191TIP3   OH237131   4.565   0.312   1.885  0.1579 -0.1534  0.0241
 5191TIP3    H137132   4.568   0.220   1.858 -0.7558  0.2566 -1.5688
 5191TIP3    H237133   4.652   0.346   1.864 -0.0494 -0.2389 -1.0387
 5192TIP3   OH237134   0.756   1.692   3.911  0.1114  0.4147 -0.2017
 5192TIP3    H137135   0.672   1.652   3.936  0.8607 -0.6344  0.7258
 5192TIP3    H237136   0.821   1.626   3.933  1.0200  0.0907 -3.3867
 5193TIP3   OH237137   3.381   3.335   1.845  0.6419  0.2497  0.0028
 5193TIP3    H137138   3.437   3.362   1.918  2.0863 -0.1391 -0.9081
 5193TIP3    H237139   3.318   3.406   1.836  1.4341  1.0629  0.6146
 5194TIP3   OH237140   4.713   1.566   0.928  0.3132 -0.0787 -0.6499
 5194TIP3    H137141   4.801   1.543   0.957 -0.0924 -0.5887  0.2173
 5194TIP3    H237142   4.673   1.483   0.903 -0.0475  0.0987 -0.6731
 5195TIP3   OH237143   3.629   3.426   2.397  0.1450 -0.3483  0.0251
 5195TIP3    H137144   3.717   3.395   2.377  0.0889  0.2944 -1.3130
 5195TIP3    H237145   3.598   3.464   2.315 -1.7106 -1.3176  0.2371
 5196TIP3   OH237146   6.405   6.019   8.115 -0.4015  0.3396 -0.0766
 5196TIP3    H137147   6.322   6.061   8.090 -0.4002  0.2185 -0.2886
 5196TIP3    H237148   6.459   6.091   8.147 -0.5473  0.4378 -0.0509
 5197TIP3   OH237149   4.006   4.816   1.868  0.0731  0.0806  0.3024
 5197TIP3    H137150   4.002   4.904   1.832  0.9046 -0.0364 -0.0972
 5197TIP3    H237151   3.980   4.826   1.960 -0.4648  0.6302  0.0926
 5198TIP3   OH237152   2.827   0.917   2.470  0.5380 -0.3556  0.4569
 5198TIP3    H137153   2.764   0.976   2.512 -2.0349 -1.9338 -0.8625
 5198TIP3    H237154   2.877   0.972   2.411 -0.6351  0.7763  0.4660
 5199TIP3   OH237155   4.071   5.414   1.766 -0.9052  0.4328  0.2842
 5199TIP3    H137156   4.082   5.406   1.860  0.5645 -0.3315  0.0754
 5199TIP3    H237157   4.140   5.474   1.738  0.6760 -1.6951 -0.6508
 5200TIP3   OH237158   3.825   4.061   2.872  0.4280 -0.2018  0.1347
 5200TIP3    H137159   3.742   4.017   2.892  1.5916 -2.1686  0.9552
 5200TIP3    H237160   3.885   3.990   2.852  1.7925  1.2225 -1.0522
 5201TIP3   OH237161   0.205   5.682   2.702  0.7791  0.0697 -0.0338
 5201TIP3    H137162   0.258   5.730   2.766  0.0333 -1.0372  1.4998
 5201TIP3    H237163   0.260   5.608   2.677  0.4772 -0.3591  0.5515
 5202TIP3   OH237164   6.734   0.483   0.248 -0.5665  0.5661  0.0723
 5202TIP3    H137165   6.664   0.462   0.310 -0.5644 -0.0972 -0.1427
 5202TIP3    H237166   6.697   0.463   0.162 -0.4977  1.2914 -0.1337
 5203TIP3   OH237167   4.574   2.614   2.186 -0.5354  0.2732 -0.4371
 5203TIP3    H137168   4.482   2.633   2.202 -0.5451 -1.1113  1.5958
 5203TIP3    H237169   4.582   2.520   2.202  1.3171  0.4489 -0.0776
 5204TIP3   OH237170   0.998   3.202   0.904 -0.2357  0.4940  0.0856
 5204TIP3    H137171   0.987   3.126   0.848  4.0915 -0.4436  0.1843
 5204TIP3    H237172   1.033   3.270   0.846  1.5578  0.4321  1.0360
 5205TIP3   OH237173   5.491   3.822   2.972  0.2438 -0.1736 -0.0971
 5205TIP3    H137174   5.571   3.826   2.920 -0.3043 -0.9541 -1.0330
 5205TIP3    H237175   5.459   3.912   2.975  1.2872  0.1941  0.5204
 5206TIP3   OH237176   4.415   1.654   2.837  0.0421  0.0903  0.2066
 5206TIP3    H137177   4.487   1.651   2.774 -0.6245 -0.0545 -0.5543
 5206TIP3    H237178   4.450   1.706   2.910  1.9638 -2.3423  1.1665
 5207TIP3   OH237179   5.314   5.939   0.275  0.5363  0.6481  0.1105
 5207TIP3    H137180   5.253   5.870   0.246  1.7351  0.0124 -1.0050
 5207TIP3    H237181   5.324   5.923   0.369  1.7147 -1.5134 -0.3175
 5208TIP3   OH237182   0.200   2.508   8.287 -0.5154 -0.3085 -0.2183
 5208TIP3    H137183   0.125   2.537   8.234 -0.2852  0.7758  0.0206
 5208TIP3    H237184   0.225   2.585   8.338  0.5028 -0.7765  0.0229
 5209TIP3   OH237185   1.859   2.684   8.320 -0.6155 -0.0370  0.1543
 5209TIP3    H137186   1.793   2.631   8.275 -1.2330  0.1529  0.8086
 5209TIP3    H237187   1.874   2.758   8.261  0.4763 -1.0613 -0.9011
 5210TIP3   OH237188   4.396   4.662   2.482  0.3782 -0.1008 -0.6139
 5210TIP3    H137189   4.417   4.703   2.398  1.0678 -0.9634 -0.8737
 5210TIP3    H237190   4.451   4.584   2.485  0.3154 -0.1109  0.6201
 5211TIP3   OH237191   4.577   4.768   7.824 -0.2568  0.0544  0.0788
 5211TIP3    H137192   4.540   4.680   7.828  0.2079 -0.3902 -2.8754
 5211TIP3    H237193   4.514   4.819   7.774 -0.1458  1.2102  1.0782
 5212TIP3   OH237194   0.272   2.885   2.123 -0.2589  0.6778  0.2397
 5212TIP3    H137195   0.250   2.800   2.163  1.4319 -1.0360 -2.2312
 5212TIP3    H237196   0.323   2.930   2.190 -0.0306 -0.8203  1.1212
 5213TIP3   OH237197   3.331   2.817   0.609 -0.1381  0.3677  0.7001
 5213TIP3    H137198   3.415   2.811   0.564 -0.6325  1.3287 -0.3993
 5213TIP3    H237199   3.292   2.730   0.600  0.8005 -0.1458  1.3946
 5214TIP3   OH237200   0.660   0.197   2.444  0.3789  0.0404  0.2364
 5214TIP3    H137201   0.723   0.129   2.469 -0.7322 -0.7766  0.9162
 5214TIP3    H237202   0.679   0.270   2.502  1.2405  0.1203 -0.1314
 5215TIP3   OH237203   5.011   3.593   2.903  0.5736  0.1465  1.1433
 5215TIP3    H137204   4.986   3.652   2.832  3.9394  0.1134 -0.2116
 5215TIP3    H237205   4.938   3.531   2.909 -0.3549  0.8691 -1.4494
 5216TIP3   OH237206   6.357   5.586   3.075  0.4182 -0.6914 -0.3579
 5216TIP3    H137207   6.307   5.667   3.078 -0.1642 -1.0527  0.1454
 5216TIP3    H237208   6.407   5.591   2.994  0.2325  0.0745 -0.4323
 5217TIP3   OH237209   0.672   6.490   2.929  0.3249 -1.0329  0.1549
 5217TIP3    H137210   0.620   6.476   2.850 -1.7166 -1.6423  1.5390
 5217TIP3    H237211   0.632   6.434   2.995  2.2992 -0.9431  1.5196
 5218TIP3   OH237212   5.159   5.952   8.046  0.2937 -0.6812 -0.3613
 5218TIP3    H137213   5.199   5.868   8.025 -2.5637 -2.0133 -0.9215
 5218TIP3    H237214   5.078   5.929   8.092 -1.0979  1.7022 -1.4252
 5219TIP3   OH237215   1.093   0.567   2.263 -0.2351  0.2376 -0.4708
 5219TIP3    H137216   1.053   0.508   2.199 -1.3176 -0.3630  0.7202
 5219TIP3    H237217   1.187   0.549   2.257 -0.3007  0.2855 -1.9574
 5220TIP3   OH237218   1.512   1.105   1.844 -0.1634  0.2147  1.0099
 5220TIP3    H137219   1.488   1.013   1.856  2.3110 -0.5195  0.9134
 5220TIP3    H237220   1.496   1.145   1.930 -1.0502 -0.3342  1.1195
 5221TIP3   OH237221   0.877   2.985   0.679  0.3847 -0.5957 -1.0035
 5221TIP3    H137222   0.926   2.912   0.716  1.2992  0.8509  0.7988
 5221TIP3    H237223   0.789   2.975   0.716  0.0979 -1.5284 -1.8816
 5222TIP3   OH237224   3.677   3.140   3.035 -0.0711 -0.1666 -0.4906
 5222TIP3    H137225   3.593   3.140   3.082  0.6605  0.6990  0.9034
 5222TIP3    H237226   3.739   3.178   3.098  1.3466 -0.6851 -1.5317
 5223TIP3   OH237227   6.278   4.880   3.293  0.8134  0.2322  0.0548
 5223TIP3    H137228   6.280   4.940   3.367  2.1853  0.0907  0.1468
 5223TIP3    H237229   6.320   4.800   3.325  0.8601 -0.0494 -0.6840
 5224TIP3   OH237230   5.698   0.610   1.366  0.2369  1.5564 -0.2144
 5224TIP3    H137231   5.671   0.556   1.292 -1.2637  1.9304  0.0129
 5224TIP3    H237232   5.623   0.667   1.382 -0.3680  0.1458  2.8255
 5225TIP3   OH237233   4.773   5.305   2.672 -0.0467  0.2891  0.1160
 5225TIP3    H137234   4.771   5.353   2.589 -1.9347  0.4944  0.2434
 5225TIP3    H237235   4.756   5.371   2.739 -3.4713 -0.5319  0.2404
 5226TIP3   OH237236   5.823   5.869   0.220  0.3121  0.2376  0.1933
 5226TIP3    H137237   5.869   5.946   0.251  1.0993  0.3552 -1.1974
 5226TIP3    H237238   5.732   5.898   0.207  0.7796  1.2176 -1.1709
 5227TIP3   OH237239   4.745   3.254   1.567  0.7003  0.0387 -0.7132
 5227TIP3    H137240   4.775   3.292   1.484  0.7829  0.6719 -0.3971
 5227TIP3    H237241   4.803   3.292   1.633  0.5478 -0.3612 -0.3439
 5228TIP3   OH237242   4.704   5.153   4.106 -0.1227 -0.3022  0.1221
 5228TIP3    H137243   4.641   5.081   4.104  2.8833 -3.2996  2.5897
 5228TIP3    H237244   4.761   5.137   4.030  0.2115 -0.1624  0.3420
 5229TIP3   OH237245   4.580   2.952   8.449  0.1678  0.5114 -0.1445
 5229TIP3    H137246   4.528   2.889   8.400  1.6291  0.6644 -1.9887
 5229TIP3    H237247   4.671   2.934   8.423  0.8615  1.6542  1.3086
 5230TIP3   OH237248   5.683   1.969   1.442  0.5746  0.4815 -0.1200
 5230TIP3    H137249   5.699   1.890   1.391  0.0445  1.1118 -1.2883
 5230TIP3    H237250   5.606   1.949   1.494 -0.1114  0.5288 -1.0955
 5231TIP3   OH237251   2.819   1.375   2.313 -0.1211  0.0307  0.4244
 5231TIP3    H137252   2.825   1.460   2.357  0.0957 -0.2876  1.0165
 5231TIP3    H237253   2.865   1.388   2.230  0.4654  0.3153  0.7864
 5232TIP3   OH237254   1.135   5.576   3.071 -0.5273  0.4576 -0.0128
 5232TIP3    H137255   1.147   5.671   3.070 -1.2959  0.6137  1.8402
 5232TIP3    H237256   1.057   5.561   3.017 -0.9558  0.9856  0.4478
 5233TIP3   OH237257   4.366   4.216   1.189 -0.2893  0.1474  0.2854
 5233TIP3    H137258   4.380   4.309   1.171  1.9705  0.1374  1.5671
 5233TIP3    H237259   4.396   4.172   1.109  1.1174  0.4484  0.6239
 5234TIP3   OH237260   6.252   5.327   8.209  0.3355  0.1564 -0.1082
 5234TIP3    H137261   6.343   5.358   8.211  1.2702 -2.3548 -0.4953
 5234TIP3    H237262   6.236   5.294   8.297  0.3299 -0.7802 -0.4538
 5235TIP3   OH237263   5.936   0.014   1.963 -0.3404 -0.3281  0.2012
 5235TIP3    H137264   5.943   0.100   2.005 -1.5466 -0.7436  1.3517
 5235TIP3    H237265   5.890  -0.040   2.028 -0.8708 -1.4533 -1.0669
 5236TIP3   OH237266   6.329   6.010   1.478  0.1011 -0.1727 -0.0016
 5236TIP3    H137267   6.415   6.052   1.469 -0.4680  0.6924 -1.8908
 5236TIP3    H237268   6.333   5.966   1.563  1.5712  1.7543  1.0021
 5237TIP3   OH237269   6.189   4.872   0.601 -0.1056 -0.5831  0.0937
 5237TIP3    H137270   6.111   4.872   0.546  0.1099  0.2716 -0.2295
 5237TIP3    H237271   6.157   4.896   0.688 -0.0601  0.9069 -0.2789
 5238TIP3   OH237272   5.310   3.623   3.078 -0.1615 -0.3959  0.4644
 5238TIP3    H137273   5.319   3.562   3.151 -0.0260 -1.6471 -0.5591
 5238TIP3    H237274   5.394   3.667   3.073  0.2669 -1.2091  0.3002
 5239TIP3   OH237275   1.843   0.728   1.935 -0.2484 -0.1948 -0.7094
 5239TIP3    H137276   1.748   0.726   1.918 -0.2163 -0.1122 -0.8982
 5239TIP3    H237277   1.878   0.788   1.869 -0.3474  1.5096  0.6994
 5240TIP3   OH237278   0.942   0.953   1.415 -0.3062 -0.3674 -0.6232
 5240TIP3    H137279   0.967   0.894   1.486 -1.5347 -0.5043 -0.2878
 5240TIP3    H237280   0.965   1.040   1.448  2.4841 -0.6575 -1.5345
 5241TIP3   OH237281   2.689   3.335   0.760 -0.1381  0.1895  0.0954
 5241TIP3    H137282   2.755   3.384   0.809  0.1559  1.2306 -1.2743
 5241TIP3    H237283   2.693   3.371   0.672 -1.0653 -1.2138 -0.5594
 5242TIP3   OH237284   5.019   4.360   1.061  0.2137 -0.2435 -0.1311
 5242TIP3    H137285   4.939   4.321   1.027  1.1442 -1.1496 -1.3941
 5242TIP3    H237286   5.031   4.320   1.147 -1.0364  0.4515  0.3987
 5243TIP3   OH237287   5.828   0.504   2.747 -0.0361  0.6880 -0.3759
 5243TIP3    H137288   5.743   0.541   2.772 -0.2962  0.1232 -0.4178
 5243TIP3    H237289   5.865   0.470   2.829 -0.6653 -0.7097 -0.6480
 5244TIP3   OH237290   4.392   4.209   0.015  0.2385 -0.1644  0.0731
 5244TIP3    H137291   4.420   4.188  -0.074  1.2654 -0.9818  0.5685
 5244TIP3    H237292   4.439   4.147   0.071 -0.6435  0.1087  1.1650
 5245TIP3   OH237293   4.858   4.599   1.333 -0.3179 -0.4887 -0.0011
 5245TIP3    H137294   4.778   4.579   1.381 -0.2699 -1.0881 -0.1712
 5245TIP3    H237295   4.849   4.553   1.250 -1.1315  1.8143 -1.2823
 5246TIP3   OH237296   3.228   3.614   3.610  0.7977  0.4359 -0.3003
 5246TIP3    H137297   3.314   3.655   3.599  1.0375 -0.0473 -0.2589
 5246TIP3    H237298   3.176   3.680   3.655  1.6929  0.0725  1.3535
 5247TIP3   OH237299   0.638   5.964   3.249 -0.1155 -0.3164 -0.3188
 5247TIP3    H137300   0.554   5.936   3.211  1.2699 -0.8610 -3.3423
 5247TIP3    H237301   0.650   6.053   3.216  0.7049 -0.4450 -0.3902
 5248TIP3   OH237302   0.222   2.200   0.426  0.1181  0.0421 -0.0523
 5248TIP3    H137303   0.291   2.264   0.444 -0.4992  0.6389  0.2331
 5248TIP3    H237304   0.145   2.233   0.472 -0.0148 -1.3335  0.7757
 5249TIP3   OH237305   5.636   3.605   8.659 -0.9377 -0.0655 -0.2141
 5249TIP3    H137306   5.666   3.515   8.649  0.3853  0.3100  0.2066
 5249TIP3    H237307   5.636   3.641   8.571  1.0780  0.2822 -0.1131
 5250TIP3   OH237308   0.507   0.855   2.233 -0.3918  0.0882  0.3821
 5250TIP3    H137309   0.487   0.943   2.202  1.2508 -0.4595 -2.5801
 5250TIP3    H237310   0.430   0.803   2.210  0.1865  0.0131 -1.5553
 5251TIP3   OH237311   1.576   3.369   1.370 -0.2338 -0.4584  0.1989
 5251TIP3    H137312   1.658   3.413   1.349 -0.1244 -0.5936  0.3436
 5251TIP3    H237313   1.532   3.359   1.286 -1.0003  1.3841  0.3276
 5252TIP3   OH237314   3.961   3.775   0.955 -0.3616  0.2846  0.2207
 5252TIP3    H137315   3.890   3.804   1.012 -0.7858 -1.5820  0.6976
 5252TIP3    H237316   4.041   3.810   0.995 -0.8349  0.7541  0.7612
 5253TIP3   OH237317   3.215   3.429   1.137  0.2126 -0.1573  0.6297
 5253TIP3    H137318   3.148   3.380   1.185 -0.4451 -0.3799 -0.4713
 5253TIP3    H237319   3.251   3.365   1.075 -1.1302  0.8544 -1.3038
 5254TIP3   OH237320   5.472   1.463   0.873  0.4287 -0.7353  0.1937
 5254TIP3    H137321   5.547   1.463   0.933  1.0111 -1.6428 -0.5043
 5254TIP3    H237322   5.497   1.523   0.802  0.8873 -1.7019 -0.4838
 5255TIP3   OH237323   1.350   1.844   2.696  0.3975 -0.5899 -0.2018
 5255TIP3    H137324   1.337   1.930   2.736 -3.2464 -1.6691  1.3349
 5255TIP3    H237325   1.262   1.807   2.689  1.7283 -3.8459 -1.6380
 5256TIP3   OH237326   3.179   3.692   3.167 -0.1040 -0.0692  0.3072
 5256TIP3    H137327   3.115   3.700   3.238  1.7955 -0.2722  2.1541
 5256TIP3    H237328   3.243   3.628   3.200  0.2542 -1.0739 -2.1128
 5257TIP3   OH237329   4.862   5.812   3.476  0.2939  0.3417  0.3444
 5257TIP3    H137330   4.810   5.797   3.555  1.1433  1.8611  1.2434
 5257TIP3    H237331   4.924   5.740   3.474  0.4397  0.4276  1.2252
 5258TIP3   OH237332   4.563   5.551   0.922  0.0886  0.6147 -0.1677
 5258TIP3    H137333   4.586   5.603   0.845 -0.4891  1.2870  0.0956
 5258TIP3    H237334   4.631   5.484   0.927 -0.2203  0.1605 -1.6231
 5259TIP3   OH237335   5.536   5.854   8.390 -0.5179 -0.0820 -0.2113
 5259TIP3    H137336   5.485   5.785   8.348  1.8883 -1.0679 -1.7402
 5259TIP3    H237337   5.539   5.924   8.325 -0.6472  0.3257  0.2181
 5260TIP3   OH237338   3.502   2.336   1.442  0.0378  0.3695 -0.4785
 5260TIP3    H137339   3.470   2.305   1.527  1.1226 -2.6467 -1.0292
 5260TIP3    H237340   3.495   2.431   1.447 -1.2890  0.2461  2.4166
 5261TIP3   OH237341   1.729   2.752   2.671  0.1407  0.0398  0.1086
 5261TIP3    H137342   1.800   2.693   2.647 -0.3835 -0.4240 -0.3280
 5261TIP3    H237343   1.693   2.782   2.588  0.1457  0.6685  0.3281
 5262TIP3   OH237344   4.779   0.925   0.557 -0.6426  0.9205  0.8247
 5262TIP3    H137345   4.851   0.868   0.531  0.8758  2.8476  0.5060
 5262TIP3    H237346   4.721   0.927   0.481 -0.4892  0.1595  0.6800
 5263TIP3   OH237347   3.624   4.312   0.817  0.7621 -0.5383 -0.2418
 5263TIP3    H137348   3.558   4.297   0.749  2.1228  3.3772 -2.7762
 5263TIP3    H237349   3.702   4.266   0.786  0.7132 -0.7700 -0.0257
 5264TIP3   OH237350   1.610   2.444   1.332  0.2945 -0.2825  0.0461
 5264TIP3    H137351   1.549   2.379   1.367 -0.1861 -0.0340 -0.3171
 5264TIP3    H237352   1.697   2.406   1.348 -0.0060 -1.8821 -1.8000
 5265TIP3   OH237353   2.927   5.537   1.922  0.0108 -0.4012  0.5179
 5265TIP3    H137354   2.865   5.531   1.849 -0.5321 -0.8433  0.9955
 5265TIP3    H237355   2.967   5.623   1.913 -3.6811  1.7668  2.5073
 5266TIP3   OH237356   3.204   2.857   0.358 -0.6346  0.0308 -0.1938
 5266TIP3    H137357   3.241   2.838   0.445 -1.1645 -0.5250 -0.0852
 5266TIP3    H237358   3.133   2.919   0.376  1.5756  2.8642 -0.6221
 5267TIP3   OH237359   2.549   6.249   2.965  0.4783  0.2212  0.5309
 5267TIP3    H137360   2.471   6.196   2.983 -0.6999  1.7401  0.1074
 5267TIP3    H237361   2.549   6.259   2.870 -0.7378  2.9445  0.7423
 5268TIP3   OH237362   2.899   3.680   2.406 -0.1105  0.5454  0.1598
 5268TIP3    H137363   2.905   3.628   2.486 -0.3743  0.4007  0.0859
 5268TIP3    H237364   2.830   3.744   2.423 -0.6965  0.0236 -0.2293
 5269TIP3   OH237365   1.958   4.108   7.972 -0.2175 -0.3324 -0.4619
 5269TIP3    H137366   1.999   4.027   7.941  0.1934  0.0218 -0.8650
 5269TIP3    H237367   2.001   4.177   7.922  0.8297  0.3135  1.2376
 5270TIP3   OH237368   5.451   5.512   0.916  0.1443 -0.4855  0.0450
 5270TIP3    H137369   5.411   5.543   0.998  1.4619 -0.5653  0.7410
 5270TIP3    H237370   5.500   5.434   0.941 -1.3452 -1.9428 -1.2838
 5271TIP3   OH237371   3.193   4.843   0.792 -0.1161 -0.9207 -0.1912
 5271TIP3    H137372   3.126   4.908   0.774  1.2985  1.0389  1.1094
 5271TIP3    H237373   3.201   4.843   0.888  0.0649 -2.9165 -0.1548
 5272TIP3   OH237374   0.639   0.050   1.452 -0.1564 -0.0688 -0.0208
 5272TIP3    H137375   0.571   0.002   1.500 -0.8939  0.0700 -0.9095
 5272TIP3    H237376   0.698   0.082   1.521 -0.2358 -1.3269  0.6662
 5273TIP3   OH237377   2.477   3.674   8.181  0.2321  0.0371  0.0835
 5273TIP3    H137378   2.434   3.733   8.119 -0.6601 -0.7789 -0.1012
 5273TIP3    H237379   2.510   3.602   8.127 -0.4706 -0.6340  0.5227
 5274TIP3   OH237380   4.613   5.458   1.715  0.5611  0.0825 -0.0943
 5274TIP3    H137381   4.667   5.402   1.659  2.0346  0.7801  0.5625
 5274TIP3    H237382   4.620   5.418   1.802  0.0077  0.1896  0.0024
 5275TIP3   OH237383   5.469   4.493   8.009  0.1986 -0.2590  0.6442
 5275TIP3    H137384   5.555   4.494   7.967 -0.0261 -1.0388  0.1413
 5275TIP3    H237385   5.439   4.583   8.004  0.3310 -0.2634 -0.5868
 5276TIP3   OH237386   1.993   5.975   0.442 -0.4554 -0.1979 -0.5624
 5276TIP3    H137387   2.006   6.069   0.450 -0.4336 -0.3374  1.6419
 5276TIP3    H237388   1.900   5.961   0.461  0.0976 -0.8128  2.1493
 5277TIP3   OH237389   3.298   1.900   2.756 -0.4404  0.4468  0.6996
 5277TIP3    H137390   3.333   1.983   2.724 -1.3053 -0.2584 -2.3738
 5277TIP3    H237391   3.375   1.847   2.775  0.1911  0.7204 -0.9114
 5278TIP3   OH237392   2.298   1.119   2.290  0.1488 -0.3027 -0.6872
 5278TIP3    H137393   2.371   1.167   2.251  1.1408 -0.2671  1.1150
 5278TIP3    H237394   2.242   1.187   2.329  1.1487 -0.4706  1.1832
 5279TIP3   OH237395   6.793   2.998   1.967 -0.1515  0.0283  0.1909
 5279TIP3    H137396   6.699   2.990   1.958 -0.0169 -1.6153 -0.0127
 5279TIP3    H237397   6.819   3.060   1.899 -0.8922 -0.8754 -0.9500
 5280TIP3   OH237398   4.316   2.296   2.046  0.4977 -0.0235  0.0513
 5280TIP3    H137399   4.326   2.327   1.955 -1.0593  0.6806  0.0886
 5280TIP3    H237400   4.339   2.372   2.099  0.3016 -0.0834  0.2206
 5281TIP3   OH237401   2.140   3.985   8.316 -0.0594 -0.4423 -0.0512
 5281TIP3    H137402   2.073   3.918   8.298  0.5673 -0.8940 -0.7646
 5281TIP3    H237403   2.172   3.964   8.404  0.1935 -1.1364 -0.3067
 5282TIP3   OH237404   0.026   4.985   1.756 -0.1742 -0.1629  0.3840
 5282TIP3    H137405  -0.048   4.941   1.714 -0.1439  0.0693  0.0900
 5282TIP3    H237406  -0.012   5.026   1.834  0.1764 -2.5233  1.9005
 5283TIP3   OH237407   6.815   2.411   2.662 -0.3020  0.3825  0.2220
 5283TIP3    H137408   6.756   2.396   2.737 -1.0271  0.4828 -0.3172
 5283TIP3    H237409   6.874   2.336   2.664 -0.4596  0.2611  0.7619
 5284TIP3   OH237410   1.145   5.935   1.830  0.0078 -0.0558 -0.1627
 5284TIP3    H137411   1.105   5.878   1.895 -0.1811 -0.1139 -0.3263
 5284TIP3    H237412   1.148   5.881   1.750  0.1818  0.0330 -0.2160
 5285TIP3   OH237413   6.558   5.591   2.858 -0.6903 -0.5482  0.2428
 5285TIP3    H137414   6.573   5.623   2.769 -0.3985 -0.9408  0.1503
 5285TIP3    H237415   6.592   5.502   2.858 -0.4887 -0.4761  0.8102
 5286TIP3   OH237416   2.182   1.355   2.368 -0.4941  0.9053  0.2498
 5286TIP3    H137417   2.106   1.368   2.311  0.3693  0.7421 -0.9915
 5286TIP3    H237418   2.153   1.386   2.454 -1.8158  1.2491 -0.2871
 5287TIP3   OH237419   2.213   0.602   0.987 -0.1724 -0.1755 -0.8983
 5287TIP3    H137420   2.171   0.673   0.940  0.7146  1.4976  0.7069
 5287TIP3    H237421   2.174   0.522   0.950 -1.4714  1.1224 -2.4864
 5288TIP3   OH237422   6.801   0.420   8.125  0.0011  0.0835 -0.0635
 5288TIP3    H137423   6.840   0.504   8.148  0.9992 -0.2461 -0.4948
 5288TIP3    H237424   6.837   0.399   8.039 -2.4014  0.5401 -1.2815
 5289TIP3   OH237425   1.959   4.565   0.428  0.2237  0.3791 -0.0086
 5289TIP3    H137426   1.891   4.623   0.395  1.0099  1.6362  0.4907
 5289TIP3    H237427   1.919   4.519   0.502 -0.0719  1.1660  0.3271
 5290TIP3   OH237428   6.814   2.100   2.100 -0.1410  0.1022  0.0671
 5290TIP3    H137429   6.909   2.101   2.111  0.0122 -1.5902 -0.7162
 5290TIP3    H237430   6.799   2.035   2.031 -1.6897  2.5475 -2.0814
 5291TIP3   OH237431   5.338   0.282   7.700  0.0515  0.2464 -0.5087
 5291TIP3    H137432   5.423   0.291   7.743 -0.3387 -2.0161  0.8975
 5291TIP3    H237433   5.350   0.208   7.640 -0.6776  0.5350 -1.0189
 5292TIP3   OH237434   6.705   4.572   2.526  0.5044 -0.1371 -0.2994
 5292TIP3    H137435   6.626   4.582   2.473  0.4629  1.6566  0.0358
 5292TIP3    H237436   6.777   4.573   2.462  0.2795 -2.6355 -0.6868
 5293TIP3   OH237437   5.806   6.070   3.637 -0.0268 -0.2634  0.0526
 5293TIP3    H137438   5.775   5.991   3.681 -0.5787 -0.2222 -0.2476
 5293TIP3    H237439   5.732   6.130   3.640  1.3159  1.4805  3.0407
 5294TIP3   OH237440   6.581   0.104   0.516 -0.1071  0.3743  0.5968
 5294TIP3    H137441   6.650   0.058   0.468 -0.6526  1.7242 -1.6090
 5294TIP3    H237442   6.527   0.034   0.553  0.5599 -0.7190 -0.4406
 5295TIP3   OH237443   0.950   1.107   1.187 -0.0149 -0.3700  0.5475
 5295TIP3    H137444   1.039   1.134   1.162 -0.7185  0.9220 -0.6811
 5295TIP3    H237445   0.964   1.040   1.254  1.9361 -2.2162 -1.5294
 5296TIP3   OH237446   3.443   5.524   0.263 -0.2253 -0.2809 -0.0735
 5296TIP3    H137447   3.491   5.495   0.341 -0.5819  0.3528  0.3991
 5296TIP3    H237448   3.355   5.488   0.274 -0.2612 -0.2353 -0.2073
 5297TIP3   OH237449   5.037   1.335   2.574  0.1837  0.0816 -0.1993
 5297TIP3    H137450   5.071   1.246   2.561  0.0381  0.1129 -0.7962
 5297TIP3    H237451   5.051   1.351   2.667 -0.4408 -0.8357  0.0658
 5298TIP3   OH237452   6.307   1.793   1.301 -0.8976  0.0573  0.5152
 5298TIP3    H137453   6.272   1.876   1.332  0.0705  0.9109 -0.5558
 5298TIP3    H237454   6.291   1.732   1.372 -3.2583  0.7030  0.6102
 5299TIP3   OH237455   1.913   6.273   0.468 -0.1630  0.2612 -0.7177
 5299TIP3    H137456   1.934   6.327   0.545  1.0940  1.6013 -1.9369
 5299TIP3    H237457   1.822   6.249   0.480 -0.0151  0.4861  1.1704
 5300TIP3   OH237458   1.615   2.000   1.306  0.1291 -0.2857  0.4204
 5300TIP3    H137459   1.662   1.953   1.236 -0.5298 -0.4505  0.0828
 5300TIP3    H237460   1.546   1.940   1.334 -1.6400  0.9695 -1.0001
 5301TIP3   OH237461   4.145   0.985   1.536  0.0004 -0.2741 -0.3092
 5301TIP3    H137462   4.089   1.059   1.514  0.0662 -0.5078 -1.3147
 5301TIP3    H237463   4.097   0.908   1.507  0.0338 -0.6236  0.5219
 5302TIP3   OH237464   6.084   1.601   2.622 -0.0859  0.0772 -0.2233
 5302TIP3    H137465   6.037   1.684   2.624 -0.1141  0.0831 -0.8753
 5302TIP3    H237466   6.128   1.596   2.707  2.0615  2.0270 -1.1292
 5303TIP3   OH237467   5.893   2.197   1.165 -0.2587 -0.7481 -0.0848
 5303TIP3    H137468   5.982   2.167   1.144 -0.2101 -1.1155  0.6330
 5303TIP3    H237469   5.898   2.292   1.158  0.5984 -0.6478  1.4166
 5304TIP3   OH237470   2.555   4.618   8.412  0.3800 -0.3976  0.2274
 5304TIP3    H137471   2.477   4.659   8.374  1.2797  0.5172 -0.7326
 5304TIP3    H237472   2.536   4.611   8.505 -0.7805 -0.0399  0.0344
 5305TIP3   OH237473   2.044   5.594   1.013  0.0729 -0.2605  0.0926
 5305TIP3    H137474   2.055   5.597   1.108 -0.5691  0.4830  0.1513
 5305TIP3    H237475   1.970   5.652   0.995 -1.0611 -1.8280 -0.6709
 5306TIP3   OH237476   0.044   5.242   8.619  0.0671  0.1833  0.1034
 5306TIP3    H137477  -0.002   5.283   8.546 -0.2768  0.2214  0.3357
 5306TIP3    H237478   0.123   5.295   8.631  0.4483 -0.2133 -0.6544
 5307TIP3   OH237479   1.319   2.780   8.683  0.6972 -0.9518 -0.8128
 5307TIP3    H137480   1.360   2.859   8.719 -2.8292  0.8444 -0.2636
 5307TIP3    H237481   1.320   2.717   8.755 -2.2842  1.0566  1.2504
 5308TIP3   OH237482   4.444   2.334   0.792  0.1575  0.1911 -0.0105
 5308TIP3    H137483   4.474   2.256   0.837 -1.5612 -0.8583 -0.6124
 5308TIP3    H237484   4.376   2.370   0.849 -0.7784 -0.1542 -0.8866
 5309TIP3   OH237485   1.461   4.899   8.069 -0.0471 -0.0206  0.2199
 5309TIP3    H137486   1.404   4.943   8.007 -1.5095  0.7978  2.0410
 5309TIP3    H237487   1.451   4.806   8.050 -0.1729  0.2222 -0.9615
 5310TIP3   OH237488   0.285   0.441   2.891  0.6937  0.5262  0.4102
 5310TIP3    H137489   0.342   0.496   2.837 -0.3394  0.0125 -1.2801
 5310TIP3    H237490   0.217   0.411   2.831 -1.2099  0.8660  2.2754
 5311TIP3   OH237491   4.618   6.463   2.461 -0.0289  0.2642  0.3167
 5311TIP3    H137492   4.599   6.554   2.438  0.6953  0.7169  1.4428
 5311TIP3    H237493   4.713   6.456   2.453  0.1993  0.2766  2.4309
 5312TIP3   OH237494   0.732   3.070   1.394  0.1461  0.1554  0.4897
 5312TIP3    H137495   0.640   3.059   1.419  0.1755 -0.0434  0.5135
 5312TIP3    H237496   0.763   2.981   1.378 -0.3328  0.3585 -1.9654
 5313TIP3   OH237497   5.352   3.142   2.524  0.5768  0.3621 -0.3514
 5313TIP3    H137498   5.404   3.199   2.467 -0.5471  0.5276 -1.2532
 5313TIP3    H237499   5.279   3.196   2.552  1.4121  0.4824  1.8141
 5314TIP3   OH237500   3.835   4.290   3.121  1.0011  0.0537 -0.3339
 5314TIP3    H137501   3.765   4.245   3.074 -0.4188  1.9014 -0.1306
 5314TIP3    H237502   3.912   4.279   3.065  0.2008 -0.7969 -1.3126
 5315TIP3   OH237503   5.713   3.782   0.120  0.6185  0.3439 -0.2220
 5315TIP3    H137504   5.694   3.727   0.044 -3.0489  0.9759  0.0397
 5315TIP3    H237505   5.780   3.843   0.089  0.3857 -0.4340 -2.4387
 5316TIP3   OH237506   0.102   6.652   1.535 -1.0686  0.5305  0.3581
 5316TIP3    H137507   0.082   6.656   1.628 -1.7572 -0.1484  0.2437
 5316TIP3    H237508   0.154   6.571   1.525  1.8391  2.2251  0.6524
 5317TIP3   OH237509   5.421   0.813   1.882  0.0023  0.2380 -0.4778
 5317TIP3    H137510   5.445   0.757   1.955  1.2137  2.0290  0.5838
 5317TIP3    H237511   5.428   0.757   1.805 -1.2741 -1.6896  0.7424
 5318TIP3   OH237512   6.651   1.631   2.507 -0.6572  0.1687 -0.3067
 5318TIP3    H137513   6.696   1.613   2.424 -1.5106  0.4480 -0.8479
 5318TIP3    H237514   6.559   1.642   2.482 -1.3572 -2.1368  0.9835
 5319TIP3   OH237515   6.435   6.741   0.620 -0.4224  0.0739  0.3153
 5319TIP3    H137516   6.503   6.679   0.596 -0.0473  1.1022 -1.4691
 5319TIP3    H237517   6.397   6.706   0.701  0.8506 -1.5779  0.2364
 5320TIP3   OH237518   1.783   1.237   2.209 -0.3531  0.0988 -0.1156
 5320TIP3    H137519   1.723   1.288   2.263 -0.7013 -0.7346  0.3054
 5320TIP3    H237520   1.729   1.168   2.171  0.2065 -0.2776 -0.2408
 5321TIP3   OH237521   0.086   0.790   1.931  0.5875 -0.8460 -0.2546
 5321TIP3    H137522   0.053   0.784   1.842  1.6764  1.6507 -0.9112
 5321TIP3    H237523   0.011   0.821   1.982  0.5475 -0.1178 -0.7431
 5322TIP3   OH237524   5.353   2.226   0.843  0.4816  0.0364  0.1237
 5322TIP3    H137525   5.342   2.208   0.936 -1.4948  0.4738  0.0191
 5322TIP3    H237526   5.342   2.321   0.836  1.5316  0.1359 -0.4670
 5323TIP3   OH237527   1.742   3.891   1.551  0.3442 -0.2960 -0.0456
 5323TIP3    H137528   1.805   3.933   1.609  0.9430  0.1887 -1.0358
 5323TIP3    H237529   1.763   3.923   1.464 -0.4951 -1.0737 -0.5581
 5324TIP3   OH237530   5.828   2.912   1.869 -0.5166  0.2116  0.3326
 5324TIP3    H137531   5.758   2.972   1.896 -1.0027 -0.9103  1.7603
 5324TIP3    H237532   5.795   2.871   1.789 -1.0044  0.4928  0.3830
 5325TIP3   OH237533   3.042   0.062   2.413  0.3944  0.3094  0.1060
 5325TIP3    H137534   3.029   0.062   2.508 -0.1674 -1.9968  0.0870
 5325TIP3    H237535   3.094   0.140   2.396 -0.4533  1.4008  2.1576
 5326TIP3   OH237536   5.155   5.445   3.276 -0.0087 -0.4131  0.3540
 5326TIP3    H137537   5.096   5.379   3.314 -0.8898  1.0936  1.7139
 5326TIP3    H237538   5.214   5.469   3.348  0.1542  0.4339 -0.0484
 5327TIP3   OH237539   5.090   2.270   3.726  0.9669  0.8688 -0.1520
 5327TIP3    H137540   5.179   2.299   3.745  0.5886  2.0709 -0.1326
 5327TIP3    H237541   5.036   2.312   3.793  0.4404 -0.3566  0.2329
 5328TIP3   OH237542   4.879   1.198   0.650 -0.0879 -0.0154  0.2087
 5328TIP3    H137543   4.953   1.190   0.589 -0.1574  0.8489 -0.0128
 5328TIP3    H237544   4.835   1.114   0.645  1.7163 -1.0950  1.4756
 5329TIP3   OH237545   5.773   4.282   0.179  0.0867  0.2219 -0.0408
 5329TIP3    H137546   5.829   4.347   0.137 -1.2523  2.2659  1.1413
 5329TIP3    H237547   5.811   4.270   0.266 -0.8231  1.0870  0.5102
 5330TIP3   OH237548   0.693   0.424   2.638 -0.3406  0.6977  0.2233
 5330TIP3    H137549   0.683   0.516   2.611  3.2668  1.0399 -0.4705
 5330TIP3    H237550   0.732   0.430   2.726 -0.7085 -0.2169  0.4592
 5331TIP3   OH237551   2.503   0.644   8.416 -0.7147  0.1554 -0.2183
 5331TIP3    H137552   2.481   0.735   8.396 -0.9734  0.2369  0.3985
 5331TIP3    H237553   2.427   0.594   8.388 -0.4417  0.0843 -0.8561
 5332TIP3   OH237554   6.260   5.024   2.415 -0.0826  0.3457 -0.0893
 5332TIP3    H137555   6.296   4.980   2.338 -1.9776 -1.8571  0.1812
 5332TIP3    H237556   6.198   5.087   2.380  0.2914  0.5535 -0.3879
 5333TIP3   OH237557   2.001   0.011   8.507 -0.3189 -0.2201  0.0040
 5333TIP3    H137558   2.044   0.034   8.425 -0.8076  0.1452 -0.1470
 5333TIP3    H237559   1.976  -0.081   8.496 -1.6240  0.2114 -0.7971
 5334TIP3   OH237560   6.513   0.336   0.396  0.6399  0.3622 -0.0864
 5334TIP3    H137561   6.474   0.303   0.315  0.4699  2.0458 -0.7412
 5334TIP3    H237562   6.536   0.258   0.446 -1.8692 -0.7395 -0.4870
 5335TIP3   OH237563   3.483   2.004   0.973  0.3900 -0.1717  0.1265
 5335TIP3    H137564   3.452   1.977   1.060 -0.0798 -1.6357 -0.4608
 5335TIP3    H237565   3.575   2.026   0.986  0.7660 -1.9107  0.7321
 5336TIP3   OH237566   3.905   1.894   2.145  0.8398 -0.1387 -0.6074
 5336TIP3    H137567   3.928   1.842   2.068  0.3644  0.8872 -1.4805
 5336TIP3    H237568   3.952   1.976   2.133  1.4876 -0.3058  0.6839
 5337TIP3   OH237569   2.652   1.340   2.908 -0.4614  0.2760  0.4332
 5337TIP3    H137570   2.628   1.248   2.898 -0.2871  0.0698  1.7355
 5337TIP3    H237571   2.581   1.377   2.960 -0.4470  0.8393  0.0542
 5338TIP3   OH237572   4.563   3.113   3.405  0.1062 -0.4547  0.3768
 5338TIP3    H137573   4.485   3.058   3.414  1.5791 -2.6006  0.7534
 5338TIP3    H237574   4.543   3.190   3.459 -2.0482 -0.5239 -0.2024
 5339TIP3   OH237575   0.418   6.733   3.057 -0.3239  0.0261  0.2862
 5339TIP3    H137576   0.412   6.821   3.019  0.0544 -0.1659 -0.2319
 5339TIP3    H237577   0.504   6.731   3.099 -0.2113 -0.1909  0.0476
 5340TIP3   OH237578   4.441   1.349   2.848  0.0031 -0.4241  0.1123
 5340TIP3    H137579   4.523   1.372   2.892  0.8942  0.2464 -1.7949
 5340TIP3    H237580   4.379   1.417   2.875  0.1926 -0.6578  1.1830
 5341TIP3   OH237581   2.267   0.237   0.358  0.5090 -0.0980 -0.2543
 5341TIP3    H137582   2.297   0.268   0.443  3.0834 -2.8974  0.0421
 5341TIP3    H237583   2.342   0.250   0.300  0.0435 -1.3585 -1.1946
 5342TIP3   OH237584   1.027   2.552   7.932  0.3199 -0.3669 -0.3893
 5342TIP3    H137585   1.015   2.593   7.847 -0.2648  1.1224  0.3709
 5342TIP3    H237586   1.102   2.596   7.970  0.2371 -0.6274  0.0881
 5343TIP3   OH237587   1.925   5.296   2.339  0.7265 -0.3930  0.2752
 5343TIP3    H137588   1.918   5.317   2.432 -1.4398 -1.6505  0.4544
 5343TIP3    H237589   1.991   5.227   2.334 -0.2631 -1.4281  1.1056
 5344TIP3   OH237590   0.796   5.228   0.810 -0.0515 -0.2696 -0.3656
 5344TIP3    H137591   0.858   5.222   0.883  0.1340 -1.7782 -0.6189
 5344TIP3    H237592   0.719   5.271   0.847  1.1377  1.7633 -0.0709
 5345TIP3   OH237593   0.641   5.228   1.745 -0.0952 -0.2315 -0.1792
 5345TIP3    H137594   0.579   5.210   1.674  0.1286  0.5817 -0.6032
 5345TIP3    H237595   0.725   5.242   1.700  0.0511  0.2808  0.2465
 5346TIP3   OH237596   4.001   2.600   8.519  0.4625 -0.2512  0.1336
 5346TIP3    H137597   3.996   2.610   8.614 -2.4873  0.0081  0.0445
 5346TIP3    H237598   4.021   2.507   8.505  3.4397  0.1596  0.9042
 5347TIP3   OH237599   2.289   3.279   8.650 -0.0504 -0.0670  0.8363
 5347TIP3    H137600   2.317   3.367   8.676  1.0284  0.0998 -0.7542
 5347TIP3    H237601   2.202   3.292   8.612 -0.4785  0.0740  1.8068
 5348TIP3   OH237602   1.770   3.657   1.693 -0.2613  0.2609  0.0190
 5348TIP3    H137603   1.694   3.621   1.648 -0.3586  2.0006 -1.3116
 5348TIP3    H237604   1.769   3.750   1.671  1.1538  0.6926  1.5865
 5349TIP3   OH237605   1.679   0.877   0.469 -0.4183 -0.5902  0.3316
 5349TIP3    H137606   1.727   0.797   0.447  1.0469 -0.3915  2.5632
 5349TIP3    H237607   1.624   0.893   0.391  0.4276 -2.8288 -0.8374
 5350TIP3   OH237608   5.585   3.017   1.919  0.1403 -0.2808 -0.4447
 5350TIP3    H137609   5.570   2.923   1.929  2.2561 -0.7254 -0.9178
 5350TIP3    H237610   5.530   3.058   1.986  0.0595 -1.9167  0.5275
 5351TIP3   OH237611   1.776   4.822   0.593  0.4135  0.3962  0.0373
 5351TIP3    H137612   1.727   4.891   0.637  0.0557  0.8747 -1.0842
 5351TIP3    H237613   1.803   4.861   0.509  1.3013 -0.4001 -0.0655
 5352TIP3   OH237614   0.336   1.709   8.157  0.5130 -0.2746 -0.7007
 5352TIP3    H137615   0.380   1.632   8.193 -1.1893 -0.6797  0.6251
 5352TIP3    H237616   0.325   1.767   8.232 -0.2151  0.2902 -1.2350
 5353TIP3   OH237617   5.186   6.219   0.500 -0.1306  0.2537  0.0093
 5353TIP3    H137618   5.115   6.219   0.565 -0.0418 -0.8521  0.1252
 5353TIP3    H237619   5.266   6.216   0.552 -0.0304  0.3673 -0.1382
 5354TIP3   OH237620   1.150   6.281   0.234 -0.4366 -0.1053  0.1752
 5354TIP3    H137621   1.147   6.307   0.142 -1.2616  1.2195  0.5450
 5354TIP3    H237622   1.203   6.201   0.235 -0.1136  0.0593 -1.3935
 5355TIP3   OH237623   2.774   6.071   2.922  0.1721 -0.7464  0.3297
 5355TIP3    H137624   2.717   6.142   2.950  0.4588 -1.1482  2.0323
 5355TIP3    H237625   2.863   6.106   2.934  0.3162 -1.3863  1.2703
 5356TIP3   OH237626   3.711   2.557   3.129 -0.2999 -0.0783 -0.2803
 5356TIP3    H137627   3.749   2.641   3.155 -0.0615 -0.6228  1.2468
 5356TIP3    H237628   3.658   2.531   3.204 -0.9657 -0.9484 -1.0373
 5357TIP3   OH237629   2.196   6.212   2.341  0.1253 -0.5156  0.2733
 5357TIP3    H137630   2.246   6.131   2.335  0.9611 -0.0745  1.0161
 5357TIP3    H237631   2.217   6.247   2.428  0.9092  1.2021 -0.5578
 5358TIP3   OH237632   2.413   3.045   1.327  0.1517  0.1897 -0.0903
 5358TIP3    H137633   2.368   3.016   1.248 -0.0431  0.0085  0.0839
 5358TIP3    H237634   2.359   3.011   1.399  0.8338 -0.4447  0.1268
 5359TIP3   OH237635   5.175   5.944   8.668  0.4301  0.6834 -0.0507
 5359TIP3    H137636   5.147   5.874   8.609  0.2812  1.8782 -1.4342
 5359TIP3    H237637   5.270   5.944   8.663  0.4856 -0.0235  0.7047
 5360TIP3   OH237638   2.173   1.806   2.847 -1.1540 -0.1659  0.0095
 5360TIP3    H137639   2.129   1.829   2.765 -1.6738  1.3931  0.6844
 5360TIP3    H237640   2.123   1.733   2.883 -0.1821 -1.7201 -1.6262
 5361TIP3   OH237641   5.258   1.563   3.030  0.7120 -0.1899  0.2235
 5361TIP3    H137642   5.282   1.654   3.015  1.6437 -0.7341 -1.9550
 5361TIP3    H237643   5.341   1.518   3.047  0.1109 -0.3960  3.2468
 5362TIP3   OH237644   1.563   5.882   8.131  0.3243 -0.4096 -0.1928
 5362TIP3    H137645   1.583   5.976   8.127  2.4683 -0.8181 -0.4534
 5362TIP3    H237646   1.470   5.876   8.110 -0.2114  1.7685  1.2221
 5363TIP3   OH237647   1.219   2.038   1.956  0.5069 -0.0456  0.5005
 5363TIP3    H137648   1.310   2.062   1.976  1.0057  0.4808 -2.0996
 5363TIP3    H237649   1.208   2.061   1.864 -2.1760 -0.4591  0.6565
 5364TIP3   OH237650   3.861   4.891   2.106 -0.3998 -0.4795 -0.3590
 5364TIP3    H137651   3.850   4.816   2.165 -0.3169 -0.6064 -0.5008
 5364TIP3    H237652   3.888   4.963   2.162 -0.3773 -0.5855 -0.2346
 5365TIP3   OH237653   6.595   1.680   0.788 -0.3086 -0.2349 -0.5506
 5365TIP3    H137654   6.578   1.754   0.846  1.9782 -0.7346  0.8804
 5365TIP3    H237655   6.577   1.714   0.700  0.0231  1.8143  0.1074
 5366TIP3   OH237656   5.722   1.590   2.029  0.2749 -0.3913  0.1923
 5366TIP3    H137657   5.770   1.658   2.076  0.9149 -1.1896  0.7250
 5366TIP3    H237658   5.713   1.624   1.940  2.1609 -0.3797 -0.0194
 5367TIP3   OH237659   2.125   4.151   3.265 -0.2958  0.8892 -0.3493
 5367TIP3    H137660   2.061   4.214   3.231  0.8906  3.2410  1.4940
 5367TIP3    H237661   2.209   4.184   3.235  0.4217  0.6668  1.3195
 5368TIP3   OH237662   5.913   0.743   2.956 -0.2378  0.3574  0.5271
 5368TIP3    H137663   5.866   0.753   3.039 -2.6210 -2.2073 -0.3661
 5368TIP3    H237664   5.950   0.655   2.959 -0.9404 -0.0414 -1.3695
 5369TIP3   OH237665   0.501   4.266   2.652  0.2096 -0.7915 -0.1799
 5369TIP3    H137666   0.409   4.283   2.673  0.7524  2.2689  0.1585
 5369TIP3    H237667   0.510   4.292   2.561  0.9346 -0.0076  0.1008
 5370TIP3   OH237668   2.089   3.353   3.797  0.1670  0.0338 -0.2589
 5370TIP3    H137669   2.009   3.319   3.837  0.6065 -1.3090 -0.4739
 5370TIP3    H237670   2.075   3.448   3.793 -1.1965 -0.1237  0.1637
 5371TIP3   OH237671   5.063   4.123   2.469 -0.3237  0.0898  0.0107
 5371TIP3    H137672   4.982   4.166   2.497 -1.0497 -1.8237  0.9963
 5371TIP3    H237673   5.131   4.165   2.522 -0.7329  1.1892 -0.2886
 5372TIP3   OH237674   3.320   3.288   0.690  0.4663  0.1259  0.7991
 5372TIP3    H137675   3.398   3.233   0.697  0.7919  0.7341  2.2672
 5372TIP3    H237676   3.251   3.237   0.733  0.3416  0.1285  0.6052
 5373TIP3   OH237677   4.840   3.722   0.574 -0.2492 -0.0510  0.5760
 5373TIP3    H137678   4.885   3.637   0.581 -2.1439 -1.4786 -2.4981
 5373TIP3    H237679   4.880   3.764   0.498 -0.3783  1.1854  1.1690
 5374TIP3   OH237680   2.979   3.388   7.518  0.5062  0.1175  0.3179
 5374TIP3    H137681   2.916   3.459   7.501  0.0236 -0.2446  0.5522
 5374TIP3    H237682   2.924   3.310   7.523  1.0925 -0.3519 -0.4901
 5375TIP3   OH237683   3.735   4.784   2.705  0.1532  0.5282 -0.5244
 5375TIP3    H137684   3.684   4.709   2.733  1.2509 -0.3706 -0.8479
 5375TIP3    H237685   3.824   4.764   2.733  0.3434  2.0968  0.1102
 5376TIP3   OH237686   5.941   5.691   3.557  0.3099 -0.1946  0.4639
 5376TIP3    H137687   5.860   5.729   3.523  0.5791 -0.2652 -0.2731
 5376TIP3    H237688   5.933   5.700   3.652 -0.3465  0.2361  0.3794
 5377TIP3   OH237689   1.426   0.878   8.126  0.3740  0.4342 -0.1408
 5377TIP3    H137690   1.498   0.817   8.140 -0.4084 -0.4094  0.3498
 5377TIP3    H237691   1.380   0.845   8.049 -0.9361 -0.5297  0.9860
 5378TIP3   OH237692   2.218   3.759   0.277  0.0429 -0.2007 -0.0194
 5378TIP3    H137693   2.178   3.846   0.287  2.4743  0.8694  1.2966
 5378TIP3    H237694   2.174   3.705   0.342 -2.6263 -0.4794 -1.9235
 5379TIP3   OH237695   4.795   2.850   8.092  0.3617 -0.2040 -0.0424
 5379TIP3    H137696   4.869   2.801   8.057 -0.5284 -0.0345 -2.3931
 5379TIP3    H237697   4.718   2.804   8.060 -0.5129  1.1843 -0.0390
 5380TIP3   OH237698   5.894   2.466   1.164 -0.3450  0.7110 -0.2684
 5380TIP3    H137699   5.850   2.547   1.136  0.4918  0.7637 -1.5190
 5380TIP3    H237700   5.980   2.471   1.123  0.6184  0.3184  1.6214
 5381TIP3   OH237701   2.725   0.710   8.131 -0.0390 -0.8849 -0.1430
 5381TIP3    H137702   2.658   0.767   8.092 -0.8813 -1.8626 -0.1559
 5381TIP3    H237703   2.778   0.769   8.185 -0.8969 -0.0821 -0.1497
 5382TIP3   OH237704   5.585   1.837   0.114  0.3795  0.1004  0.4573
 5382TIP3    H137705   5.529   1.776   0.065  0.5528  0.7277 -0.5469
 5382TIP3    H237706   5.547   1.923   0.097  2.5410  0.7676 -1.6300
 5383TIP3   OH237707   6.802   3.771   0.833 -0.0695 -0.1976 -0.0414
 5383TIP3    H137708   6.747   3.847   0.850  0.0290 -0.1691  0.1523
 5383TIP3    H237709   6.759   3.699   0.878  0.6775  0.0584  1.1157
 5384TIP3   OH237710   4.823   1.651   2.229 -0.0853 -0.7374  0.0454
 5384TIP3    H137711   4.870   1.568   2.224 -0.3653 -0.9722  1.0929
 5384TIP3    H237712   4.887   1.714   2.262  0.3432 -0.3391 -1.4562
 5385TIP3   OH237713   4.406   5.812   8.481 -0.7228  0.1541  0.3115
 5385TIP3    H137714   4.321   5.826   8.438 -0.6455 -0.3575 -0.0189
 5385TIP3    H237715   4.424   5.894   8.526 -1.1979  0.4130  0.0367
 5386TIP3   OH237716   6.298   2.276   8.407  0.1402 -0.2779  0.7450
 5386TIP3    H137717   6.216   2.291   8.453 -0.9573 -0.0207 -1.1661
 5386TIP3    H237718   6.304   2.348   8.345  1.4745 -0.6667  0.3834
 5387TIP3   OH237719   6.445   1.441   1.882 -1.0911  0.3157  0.5815
 5387TIP3    H137720   6.362   1.447   1.834 -0.4690 -1.8584 -0.9567
 5387TIP3    H237721   6.419   1.428   1.973 -2.4550 -0.1122  0.1570
 5388TIP3   OH237722   6.084   3.799   2.438 -0.4408  0.3390  0.2272
 5388TIP3    H137723   6.062   3.890   2.420 -0.5099 -0.0827 -2.0330
 5388TIP3    H237724   6.002   3.759   2.467 -1.0551  0.3939 -1.3844
 5389TIP3   OH237725   0.605   1.214   0.574  0.4348 -0.6066 -0.4978
 5389TIP3    H137726   0.580   1.164   0.497  1.8044 -0.7822 -0.8451
 5389TIP3    H237727   0.523   1.224   0.623 -0.2184 -1.5453 -1.3528
 5390TIP3   OH237728   3.711   5.214   7.783  0.1569  0.1059  0.3559
 5390TIP3    H137729   3.673   5.251   7.703  1.2262  1.8188  0.5828
 5390TIP3    H237730   3.637   5.173   7.827 -0.1704 -2.4927 -2.2991
 5391TIP3   OH237731   1.599   6.032   8.440  0.4999 -0.3355  0.5536
 5391TIP3    H137732   1.627   5.941   8.436  0.2804 -0.4197  0.9127
 5391TIP3    H237733   1.599   6.062   8.348 -3.6514 -1.9774 -0.2188
 5392TIP3   OH237734   5.309   5.411   3.500  0.0926  0.3096 -0.6786
 5392TIP3    H137735   5.252   5.435   3.573  1.1785  0.8451  0.0135
 5392TIP3    H237736   5.344   5.325   3.523  1.0880  0.8439 -0.1502
 5393TIP3   OH237737   3.359   4.949   1.256  0.5198 -0.2288  0.2472
 5393TIP3    H137738   3.301   4.876   1.275  1.2224 -0.1453  3.1690
 5393TIP3    H237739   3.447   4.917   1.278  1.2299  0.5626 -1.2832
 5394TIP3   OH237740   3.825   4.572   2.985  0.4740  0.1062 -0.2787
 5394TIP3    H137741   3.857   4.565   3.075 -1.0947  3.6701  0.7283
 5394TIP3    H237742   3.888   4.630   2.942 -0.8255  1.5521 -0.2891
 5395TIP3   OH237743   3.068   3.829   3.694  0.4412 -0.2645  0.5312
 5395TIP3    H137744   2.991   3.876   3.662  1.3727  1.5457  0.8494
 5395TIP3    H237745   3.042   3.795   3.780 -0.0563  0.2007  0.5663
 5396TIP3   OH237746   5.835   4.389   0.670 -0.0223  0.2815 -0.2990
 5396TIP3    H137747   5.814   4.429   0.755 -1.4481 -1.3317  0.1863
 5396TIP3    H237748   5.858   4.462   0.614  0.8093  1.4287  1.4311
 5397TIP3   OH237749   3.507   3.702   7.992 -0.2007  0.5815  0.2984
 5397TIP3    H137750   3.574   3.767   8.009  0.3885  0.4298 -1.3421
 5397TIP3    H237751   3.489   3.708   7.898  0.0453 -1.7629  0.0382
 5398TIP3   OH237752   4.687   6.084   1.586 -0.1129  0.6280 -0.0517
 5398TIP3    H137753   4.733   6.154   1.539 -2.1641  2.2725  0.2106
 5398TIP3    H237754   4.640   6.036   1.518 -0.0998  0.6254 -0.0591
 5399TIP3   OH237755   4.193   1.243   0.265 -0.7393  0.1501 -0.5288
 5399TIP3    H137756   4.190   1.246   0.361  0.3913  0.9941 -0.4900
 5399TIP3    H237757   4.279   1.279   0.243  0.3343 -2.8689 -1.7578
 5400TIP3   OH237758   4.143   5.475   8.388  0.0865 -0.9688 -0.1237
 5400TIP3    H137759   4.191   5.403   8.428  0.6124 -0.7168 -0.2837
 5400TIP3    H237760   4.204   5.512   8.324  0.1099  0.0922  0.4884
 5401TIP3   OH237761   2.055   4.993   3.407  0.1221 -0.0486  0.5022
 5401TIP3    H137762   1.984   4.943   3.366  0.0585 -0.3547  0.9694
 5401TIP3    H237763   2.011   5.067   3.448 -0.0132 -0.5086  1.2283
 5402TIP3   OH237764   1.960   3.841   2.027  0.1114  0.6099 -0.0913
 5402TIP3    H137765   2.034   3.833   2.087  0.5046  0.2201 -0.6235
 5402TIP3    H237766   1.905   3.765   2.047  1.3385 -0.7599 -1.7050
 5403TIP3   OH237767   1.982   1.016   1.267  0.4068  0.4678 -0.0505
 5403TIP3    H137768   1.982   0.921   1.255  1.4236  0.6049 -1.4730
 5403TIP3    H237769   2.024   1.030   1.351 -0.1199 -0.3534  0.3568
 5404TIP3   OH237770   1.298   4.571   2.944 -0.2263  0.2284 -0.0328
 5404TIP3    H137771   1.293   4.488   2.897 -2.7417 -0.3839  1.1319
 5404TIP3    H237772   1.333   4.633   2.880 -2.2094 -0.8410 -2.3167
 5405TIP3   OH237773   2.748   6.616   2.702  0.6950 -0.4445  0.3673
 5405TIP3    H137774   2.750   6.677   2.776  2.2139  0.8771 -0.6854
 5405TIP3    H237775   2.720   6.669   2.628 -0.9526 -1.7848 -0.0285
 5406TIP3   OH237776   0.069   5.314   2.075 -0.0243 -0.1481 -0.7694
 5406TIP3    H137777   0.086   5.383   2.139 -0.6039 -1.5059  0.8980
 5406TIP3    H237778   0.145   5.318   2.016  1.3594  0.0691  0.9486
 5407TIP3   OH237779   0.311   2.614   3.126 -0.3108  0.0127  0.0799
 5407TIP3    H137780   0.328   2.582   3.037  0.2824  1.5117 -0.3759
 5407TIP3    H237781   0.396   2.603   3.171 -0.6871 -1.0230  0.5833
 5408TIP3   OH237782   4.342   2.955   0.124 -0.3974  0.3453  0.2163
 5408TIP3    H137783   4.326   2.978   0.033  1.0498  1.9820  0.3380
 5408TIP3    H237784   4.256   2.928   0.157 -0.7752 -1.2234 -1.8371
 5409TIP3   OH237785   4.842   2.213   8.644 -0.0769  0.3442  0.1331
 5409TIP3    H137786   4.827   2.122   8.667 -0.2055  0.6730  1.4153
 5409TIP3    H237787   4.755   2.249   8.627 -0.1107  0.4607  0.5487
 5410TIP3   OH237788   4.314   4.165   0.736  0.5210 -0.0068 -0.3250
 5410TIP3    H137789   4.373   4.098   0.769  0.9531  1.0946  1.2516
 5410TIP3    H237790   4.363   4.247   0.743 -0.2968  0.6032 -1.3887
 5411TIP3   OH237791   4.720   1.109   0.950 -0.5417  0.1616  0.3721
 5411TIP3    H137792   4.660   1.172   0.990  0.4311 -0.1131  2.4074
 5411TIP3    H237793   4.678   1.085   0.867 -2.5152  1.0276  1.0564
 5412TIP3   OH237794   3.165   4.794   8.154 -0.4983  0.1138 -0.2081
 5412TIP3    H137795   3.145   4.702   8.142 -2.6149  0.5151 -0.0924
 5412TIP3    H237796   3.230   4.814   8.087 -0.7183 -1.2239 -0.8426
 5413TIP3   OH237797   3.303   5.099   2.309 -0.5810 -0.5544  0.5059
 5413TIP3    H137798   3.321   5.110   2.215 -0.2740 -0.6789  0.5496
 5413TIP3    H237799   3.387   5.077   2.347 -0.5773  0.1469  0.9194
 5414TIP3   OH237800   1.487   5.946   1.223  0.0852 -0.2405  0.1407
 5414TIP3    H137801   1.439   5.907   1.296 -0.6331  1.3327  0.5342
 5414TIP3    H237802   1.443   6.029   1.206  1.9557  0.7423 -0.2318
 5415TIP3   OH237803   0.503   6.503   2.056  0.4795  0.2429 -0.2503
 5415TIP3    H137804   0.471   6.421   2.094  0.2767 -0.2819 -1.4918
 5415TIP3    H237805   0.432   6.566   2.070  0.5087  0.1259  0.4388
 5416TIP3   OH237806   5.225   5.845   8.426  0.3037  0.5261 -0.5163
 5416TIP3    H137807   5.152   5.899   8.396 -0.2170  0.2009  0.1454
 5416TIP3    H237808   5.265   5.812   8.345  0.3452  1.5029 -0.9162
 5417TIP3   OH237809   3.063   5.869   2.395 -0.1272  0.4767  0.5823
 5417TIP3    H137810   3.023   5.802   2.340  0.9814  0.7405 -0.6042
 5417TIP3    H237811   3.000   5.941   2.396 -0.2615  0.3737 -0.1620
 5418TIP3   OH237812   5.896   3.063   1.024 -0.5165  0.2303  0.2801
 5418TIP3    H137813   5.941   3.121   1.086 -0.5541 -0.3238  0.8382
 5418TIP3    H237814   5.965   3.005   0.992 -0.2053  1.4212 -1.2992
 5419TIP3   OH237815   5.114   6.212   1.882  0.7126 -0.1660  0.2971
 5419TIP3    H137816   5.115   6.265   1.962  0.7385  1.1746 -0.5540
 5419TIP3    H237817   5.173   6.139   1.901  1.7759  0.8445  1.0570
 5420TIP3   OH237818   0.264   3.628   0.010  0.9343 -0.6371 -0.2847
 5420TIP3    H137819   0.316   3.581   0.075  0.4935 -2.9458 -1.4942
 5420TIP3    H237820   0.268   3.573  -0.068  0.5944  1.5215 -1.9176
 5421TIP3   OH237821   2.920   6.442   0.204 -0.1788 -0.1136 -0.3480
 5421TIP3    H137822   2.934   6.464   0.296 -0.0574 -0.5077 -0.2715
 5421TIP3    H237823   2.837   6.394   0.203  1.0932 -2.4277 -0.0698
 5422TIP3   OH237824   1.807   2.626   2.127 -0.2713 -0.3586  0.5545
 5422TIP3    H137825   1.849   2.554   2.080  0.3008  0.5621 -0.3817
 5422TIP3    H237826   1.717   2.627   2.095  0.0605  0.1373 -0.4262
 5423TIP3   OH237827   6.058   1.023   2.276  0.4113  0.1467  0.3271
 5423TIP3    H137828   6.030   1.057   2.362  0.3758  0.9044  0.0230
 5423TIP3    H237829   6.114   1.091   2.240 -0.2195  0.1924 -0.6027
 5424TIP3   OH237830   2.621   2.949   8.710 -0.5510 -0.7850 -0.1377
 5424TIP3    H137831   2.619   2.967   8.804 -0.9699 -0.5944 -0.1784
 5424TIP3    H237832   2.627   3.035   8.669 -1.6901 -0.7640 -0.3125
 5425TIP3   OH237833   2.815   4.311   1.894  0.0612  0.6379  0.7094
 5425TIP3    H137834   2.817   4.253   1.818  0.8693  0.4763  0.8454
 5425TIP3    H237835   2.749   4.377   1.872  1.0290  1.2186 -0.6043
 5426TIP3   OH237836   2.413   1.672   0.696 -0.3680  0.4999  0.0386
 5426TIP3    H137837   2.363   1.658   0.776  0.1166  1.1866  0.4675
 5426TIP3    H237838   2.453   1.587   0.677 -0.6930  0.2702  0.3757
 5427TIP3   OH237839   0.650   4.755   1.201 -0.2425 -0.3320  0.2668
 5427TIP3    H137840   0.732   4.803   1.199 -0.1894 -0.4372 -0.4787
 5427TIP3    H237841   0.599   4.792   1.129 -0.6623 -0.5857  0.4292
 5428TIP3   OH237842   3.645   1.739   8.444 -0.1923 -0.2401  0.2389
 5428TIP3    H137843   3.685   1.720   8.359  0.7566  1.8571  0.1373
 5428TIP3    H237844   3.692   1.816   8.475 -1.2107 -0.3622  2.2162
 5429TIP3   OH237845   3.403   3.394   3.591 -0.1976  0.5726  0.2470
 5429TIP3    H137846   3.469   3.443   3.641  0.4187 -0.8154  0.8386
 5429TIP3    H237847   3.325   3.451   3.593  0.8642  2.1166 -0.2376
 5430TIP3   OH237848   6.195   6.036   3.929  0.2189 -0.5582  0.1897
 5430TIP3    H137849   6.129   5.987   3.881  1.0368 -1.2903 -0.2072
 5430TIP3    H237850   6.167   6.031   4.021 -0.1351 -1.0804  0.0581
 5431TIP3   OH237851   3.201   5.926   0.226  0.4825  0.1477  0.6304
 5431TIP3    H137852   3.269   5.982   0.189 -0.2057  0.6450  0.1009
 5431TIP3    H237853   3.201   5.848   0.171  0.1808  0.4309  0.2284
 5432TIP3   OH237854   2.490   3.603   1.517  0.1038 -0.0701 -0.2893
 5432TIP3    H137855   2.510   3.517   1.555  0.3424  1.3017  3.0151
 5432TIP3    H237856   2.395   3.601   1.504  0.4407 -1.9558 -3.6350
 5433TIP3   OH237857   5.698   1.329   1.723 -0.5943 -0.4484  0.3911
 5433TIP3    H137858   5.633   1.379   1.673 -0.8496 -0.3668  0.8008
 5433TIP3    H237859   5.664   1.327   1.812 -1.2924 -2.5319  0.1418
 5434TIP3   OH237860   4.601   3.294   0.397 -0.1043  0.0790  0.0853
 5434TIP3    H137861   4.580   3.206   0.366  0.3209 -0.6530  1.7773
 5434TIP3    H237862   4.604   3.287   0.492  0.2799  1.8565  0.2544
 5435TIP3   OH237863   1.367   2.202   8.533 -0.0835  0.7552 -0.6286
 5435TIP3    H137864   1.411   2.263   8.474 -1.2675  0.8856 -1.4157
 5435TIP3    H237865   1.343   2.254   8.609  0.2268  0.9099 -0.6355
 5436TIP3   OH237866   3.287   2.259   8.644  0.1578 -0.1475  0.7536
 5436TIP3    H137867   3.203   2.225   8.613  0.7771 -2.6429  1.5899
 5436TIP3    H237868   3.269   2.350   8.666 -1.9744 -0.2329 -0.3384
 5437TIP3   OH237869   4.820   5.927   2.255  0.2050  0.2695 -0.2545
 5437TIP3    H137870   4.730   5.916   2.225  0.5057 -1.3462 -0.6636
 5437TIP3    H237871   4.824   5.879   2.337  0.4336  1.2511  0.3228
 5438TIP3   OH237872   3.435   3.171   1.598 -0.4813  0.8203  0.3318
 5438TIP3    H137873   3.357   3.158   1.545  0.3576 -0.0440 -0.7276
 5438TIP3    H237874   3.404   3.216   1.676 -1.4803  3.8531 -1.6596
 5439TIP3   OH237875   0.773   1.139   1.966 -0.2506 -0.2803 -0.0284
 5439TIP3    H137876   0.793   1.227   1.933 -3.1807 -0.0018 -1.4094
 5439TIP3    H237877   0.858   1.099   1.982  1.2763  1.6965 -2.4509
 5440TIP3   OH237878   3.611   3.804   1.568 -0.2614  0.2529  0.1189
 5440TIP3    H137879   3.628   3.711   1.554  1.2737  0.3345  1.1329
 5440TIP3    H237880   3.571   3.834   1.487  0.5232 -0.9933 -0.7666
 5441TIP3   OH237881   4.851   3.209   1.142 -0.6680 -0.1295  0.3393
 5441TIP3    H137882   4.867   3.133   1.198 -1.0991  0.8136  1.7897
 5441TIP3    H237883   4.781   3.257   1.186 -0.4448  1.0857 -0.5798
 5442TIP3   OH237884   3.060   0.923   2.076 -0.6326  0.3741 -0.4555
 5442TIP3    H137885   3.116   0.869   2.133 -1.3634 -1.2665 -1.2035
 5442TIP3    H237886   2.979   0.933   2.125 -0.0129  2.1053  0.3025
 5443TIP3   OH237887   5.054   5.379   3.026 -0.3681 -0.2850 -0.1571
 5443TIP3    H137888   4.965   5.414   3.030 -0.6044 -0.9439  1.3289
 5443TIP3    H237889   5.092   5.399   3.112  0.1243 -1.9341  0.0616
 5444TIP3   OH237890   0.904   6.453   1.471 -0.0588  0.3089 -0.3007
 5444TIP3    H137891   0.959   6.528   1.448  0.3653  0.4784  1.1518
 5444TIP3    H237892   0.893   6.460   1.566 -0.6715 -1.0279 -0.2557
 5445TIP3   OH237893   3.559   5.282   2.220 -0.1132  0.7082 -0.1152
 5445TIP3    H137894   3.591   5.192   2.226 -0.0491  0.8234  1.5398
 5445TIP3    H237895   3.638   5.335   2.205 -0.1705  0.4944 -1.2554
 5446TIP3   OH237896   6.450   0.750   8.463 -0.1862  0.0712 -0.2076
 5446TIP3    H137897   6.461   0.824   8.404  1.0930 -0.1402 -0.2597
 5446TIP3    H237898   6.536   0.708   8.465 -0.5282 -0.6156  0.8877
 5447TIP3   OH237899   3.574   3.536   3.754 -0.1658 -1.0120  0.7975
 5447TIP3    H137900   3.544   3.607   3.698 -0.3614 -1.5154  0.2513
 5447TIP3    H237901   3.664   3.518   3.726 -0.8184 -2.4030 -0.5587
 5448TIP3   OH237902   3.464   5.349   8.648  0.5197 -0.0357  0.1611
 5448TIP3    H137903   3.420   5.268   8.625  2.2167 -1.3873  1.4320
 5448TIP3    H237904   3.551   5.342   8.607  1.5997 -0.0492  2.3282
 5449TIP3   OH237905   3.283   0.501   1.158 -0.1539  0.1992  0.1692
 5449TIP3    H137906   3.261   0.422   1.108  0.2036 -0.9906  1.8101
 5449TIP3    H237907   3.241   0.488   1.243  1.1714  1.0696  0.9990
 5450TIP3   OH237908   1.036   0.781   7.865 -0.4228 -0.8661  0.3276
 5450TIP3    H137909   1.004   0.789   7.955  0.8789  1.3834  0.6683
 5450TIP3    H237910   1.017   0.690   7.841 -2.0134 -1.1550  2.3794
 5451TIP3   OH237911   4.225   4.279   2.424 -0.3531 -0.0593  0.2782
 5451TIP3    H137912   4.184   4.202   2.385 -3.2159  2.5643 -2.5187
 5451TIP3    H237913   4.304   4.293   2.373  0.1286 -1.0067  0.7346
 5452TIP3   OH237914   0.777   0.511   3.488 -0.3209  0.1833  0.5583
 5452TIP3    H137915   0.848   0.573   3.504 -1.2246  1.0338  1.3404
 5452TIP3    H237916   0.819   0.425   3.495  0.6201  0.6667  1.0380
 5453TIP3   OH237917   0.675   5.586   2.680 -0.2586  0.2610  0.0407
 5453TIP3    H137918   0.684   5.495   2.652  0.1152  0.4456 -0.4519
 5453TIP3    H237919   0.671   5.636   2.599  2.5791  0.9887  0.2449
 5454TIP3   OH237920   5.560   4.639   1.748  0.0553 -0.0453  0.2471
 5454TIP3    H137921   5.619   4.592   1.689  0.1685 -0.6443  0.8245
 5454TIP3    H237922   5.591   4.616   1.836 -2.1026 -1.8151  0.6363
 5455TIP3   OH237923   2.278   2.143   0.442  0.2694  0.4564  0.5057
 5455TIP3    H137924   2.329   2.072   0.480  1.3418  0.1246 -1.4275
 5455TIP3    H237925   2.211   2.162   0.508 -0.3389 -2.6172  0.9311
 5456TIP3   OH237926   6.532   0.632   3.130  0.2925  0.2279  0.0712
 5456TIP3    H137927   6.517   0.571   3.058 -2.7626 -0.3153  1.0092
 5456TIP3    H237928   6.497   0.715   3.098 -1.5415 -0.1325  1.0083
 5457TIP3   OH237929   0.270   2.538   8.704  0.0239 -0.3231 -0.3010
 5457TIP3    H137930   0.308   2.626   8.701 -1.4527  0.4008  0.7080
 5457TIP3    H237931   0.226   2.527   8.620 -1.2558  0.6268  0.2247
 5458TIP3   OH237932   1.110   4.787   2.423 -0.1495 -0.5470 -0.1008
 5458TIP3    H137933   1.129   4.695   2.443  0.7842 -0.7507 -1.7822
 5458TIP3    H237934   1.083   4.824   2.507  1.3094 -1.8815  1.0282
 5459TIP3   OH237935   4.972   4.792   0.823  0.0078 -0.1475 -0.1135
 5459TIP3    H137936   5.020   4.722   0.779 -0.5078 -0.2511 -0.5047
 5459TIP3    H237937   4.944   4.753   0.906 -0.5731 -0.5144 -0.4789
 5460TIP3   OH237938   1.661   4.961   2.821 -0.0532 -0.2373 -0.0915
 5460TIP3    H137939   1.661   4.916   2.905 -0.7505 -0.8062 -0.3930
 5460TIP3    H237940   1.580   5.012   2.820 -1.0200 -1.7331 -1.2043
 5461TIP3   OH237941   3.653   1.874   8.064  0.2011 -0.8100 -0.4322
 5461TIP3    H137942   3.654   1.958   8.109 -0.7557 -0.6856 -0.6361
 5461TIP3    H237943   3.685   1.812   8.129 -2.2486 -0.8292  0.8557
 5462TIP3   OH237944   1.960   4.400   1.427  0.1014  0.1168  0.6323
 5462TIP3    H137945   2.002   4.482   1.402  1.7038 -0.5831  0.9383
 5462TIP3    H237946   1.990   4.384   1.517  0.6766 -1.3454  0.2008
 5463TIP3   OH237947   2.923   3.283   8.317 -0.0268 -0.2669  0.6715
 5463TIP3    H137948   2.979   3.361   8.321  2.5278 -1.7420 -1.9127
 5463TIP3    H237949   2.972   3.216   8.366 -0.0289 -1.2914 -0.6594
 5464TIP3   OH237950   3.109   5.532   1.290  0.7135 -0.8543  0.0027
 5464TIP3    H137951   3.111   5.552   1.383 -0.0561  0.2619 -0.2050
 5464TIP3    H237952   3.026   5.568   1.259  1.9385  0.8174 -1.5511
 5465TIP3   OH237953   4.285   0.435   1.189 -0.6121  0.6490 -0.0880
 5465TIP3    H137954   4.258   0.352   1.229  1.8475  0.7227  2.0252
 5465TIP3    H237955   4.332   0.410   1.109  0.1016 -0.0430  0.5268
 5466TIP3   OH237956   0.163   0.189   0.380  0.1666  0.0015  0.2164
 5466TIP3    H137957   0.254   0.187   0.350  0.3612 -0.9380  0.8084
 5466TIP3    H237958   0.145   0.281   0.396  1.3389  0.1214  1.0123
 5467TIP3   OH237959   3.124   2.723   1.418  0.4980  0.0557 -0.1959
 5467TIP3    H137960   3.097   2.632   1.404 -1.1960  0.5142 -0.1811
 5467TIP3    H237961   3.143   2.756   1.330  1.6505 -0.4389 -0.1523
 5468TIP3   OH237962   4.382   4.582   8.052  0.1702  0.5488  0.2482
 5468TIP3    H137963   4.362   4.675   8.043  0.0390  0.4950 -0.0348
 5468TIP3    H237964   4.396   4.553   7.962 -1.5716 -0.1032  0.1445
 5469TIP3   OH237965   2.702   2.796   3.686 -0.2404 -0.2328 -0.1319
 5469TIP3    H137966   2.705   2.886   3.718 -0.0108  0.1740 -1.2835
 5469TIP3    H237967   2.788   2.760   3.709 -0.4353 -0.2658  0.5901
 5470TIP3   OH237968   5.370   3.972   1.642 -0.1380  0.0032 -0.0982
 5470TIP3    H137969   5.413   4.026   1.709 -0.4248 -0.2468  0.2916
 5470TIP3    H237970   5.426   3.980   1.565  0.4797 -0.1399  0.3355
 5471TIP3   OH237971   4.793   5.081   0.062 -0.2934  0.3219 -0.1698
 5471TIP3    H137972   4.817   5.164   0.104 -0.9118  0.0032  0.8543
 5471TIP3    H237973   4.730   5.041   0.122 -1.7506  0.1547 -1.7124
 5472TIP3   OH237974   4.078   2.310   1.419  0.2174  0.1591 -0.3301
 5472TIP3    H137975   4.052   2.234   1.366  0.1842  0.9882 -1.5537
 5472TIP3    H237976   4.074   2.384   1.358  1.6496  0.9305  0.4482
 5473TIP3   OH237977   0.080   3.565   1.097 -0.0755  0.3187  0.1287
 5473TIP3    H137978   0.084   3.481   1.142  1.7743  0.4506  0.2606
 5473TIP3    H237979   0.165   3.573   1.054  0.6629  3.0947  1.8974
 5474TIP3   OH237980   0.716   5.262   2.909 -0.4482 -0.8590  0.4289
 5474TIP3    H137981   0.709   5.241   3.002 -2.7779 -1.0204  0.2788
 5474TIP3    H237982   0.663   5.341   2.898  0.9688 -0.0024 -0.5495
 5475TIP3   OH237983   0.346   5.250   2.929 -0.3069  0.5693 -0.5628
 5475TIP3    H137984   0.401   5.327   2.916 -0.5211  0.7518 -0.3921
 5475TIP3    H237985   0.316   5.257   3.019  1.5453 -0.9400  0.2377
 5476TIP3   OH237986   6.008   3.430   3.563 -0.4274  0.1691  0.2591
 5476TIP3    H137987   5.916   3.404   3.551 -0.5969  0.1174  1.5542
 5476TIP3    H237988   6.039   3.375   3.635  0.0349  1.5644  1.1459
 5477TIP3   OH237989   3.664   5.199   0.091 -0.2556  0.2864  0.1275
 5477TIP3    H137990   3.651   5.106   0.107 -0.6021  0.3495  0.2170
 5477TIP3    H237991   3.584   5.227   0.048  0.4573  0.2145 -1.3172
 5478TIP3   OH237992   6.475   1.352   1.114  0.0494 -0.2543 -0.8191
 5478TIP3    H137993   6.566   1.357   1.085  0.9358 -1.4854  1.4568
 5478TIP3    H237994   6.445   1.443   1.115  1.4857  0.2511 -0.9917
 5479TIP3   OH237995   4.321   3.778   2.090  0.1872 -0.7323  0.7201
 5479TIP3    H137996   4.345   3.803   2.001 -1.3305 -1.9182 -0.0706
 5479TIP3    H237997   4.230   3.806   2.099  1.3370  2.9188  3.3244
 5480TIP3   OH237998   2.335   3.717   0.671  0.3427 -0.0124  0.1672
 5480TIP3    H137999   2.277   3.657   0.717  0.6772 -0.6859 -0.2675
 5480TIP3    H238000   2.280   3.760   0.605  0.3157 -0.5987 -0.1998
 5481TIP3   OH238001   4.535   2.125   1.837 -0.1079  0.1394  0.1013
 5481TIP3    H138002   4.598   2.068   1.881  0.1188 -0.2954 -0.7553
 5481TIP3    H238003   4.523   2.199   1.897 -1.2091 -1.2899  1.7250
 5482TIP3   OH238004   1.224   3.352   2.522  0.0502 -0.4145  0.1191
 5482TIP3    H138005   1.283   3.369   2.448 -0.9126 -0.4329 -0.6723
 5482TIP3    H238006   1.280   3.359   2.599  0.6433  1.8965 -0.4413
 5483TIP3   OH238007   1.285   3.471   0.727 -0.0113  0.1906 -0.2427
 5483TIP3    H138008   1.281   3.476   0.823 -0.7281  0.6474 -0.2894
 5483TIP3    H238009   1.363   3.419   0.709 -1.3281 -2.2180  0.6348
 5484TIP3   OH238010   1.573   4.331   0.727 -0.3353 -0.7244 -0.1607
 5484TIP3    H138011   1.516   4.364   0.797  1.6000 -0.9606  1.6084
 5484TIP3    H238012   1.618   4.408   0.694  1.0938 -0.9817  1.0931
 5485TIP3   OH238013   4.627   6.282   2.234 -0.2348 -0.3034  0.4548
 5485TIP3    H138014   4.582   6.325   2.306  0.9225 -0.5499  1.3380
 5485TIP3    H238015   4.557   6.238   2.185 -0.9688 -0.5799  1.7308
 5486TIP3   OH238016   2.109   4.559   3.365 -0.4602 -0.0274 -0.4315
 5486TIP3    H138017   2.072   4.617   3.299 -0.1314 -0.8796 -1.3860
 5486TIP3    H238018   2.034   4.510   3.398 -0.5060 -0.1654 -0.7423
 5487TIP3   OH238019   5.469   4.209   2.641 -0.1076 -1.3172  0.2560
 5487TIP3    H138020   5.432   4.261   2.713 -0.1673  0.1117 -0.7796
 5487TIP3    H238021   5.552   4.176   2.676 -0.1602 -0.6914  1.0022
 5488TIP3   OH238022   1.812   4.152   1.519  0.1047 -0.0370  0.0734
 5488TIP3    H138023   1.795   4.204   1.440 -0.5084 -0.6210 -0.1860
 5488TIP3    H238024   1.901   4.118   1.506 -0.5995 -1.5176 -1.1807
 5489TIP3   OH238025   6.804   4.124   0.585  0.1889  0.0227  0.5436
 5489TIP3    H138026   6.846   4.204   0.555 -0.9775  0.8462  0.9992
 5489TIP3    H238027   6.854   4.098   0.663  2.4467 -1.4254 -1.2747
 5490TIP3   OH238028   4.743   0.662   0.995  0.6659  0.0493  0.0616
 5490TIP3    H138029   4.719   0.661   0.902 -0.6851 -2.7716  0.3096
 5490TIP3    H238030   4.792   0.581   1.007 -1.7611 -1.2361  2.2997
 5491TIP3   OH238031   6.363   6.311   3.930 -0.3932 -0.7291  0.3791
 5491TIP3    H138032   6.385   6.395   3.971 -0.6279 -0.7629  0.5803
 5491TIP3    H238033   6.424   6.248   3.970 -0.8194 -0.8178  0.9178
 5492TIP3   OH238034   0.442   1.637   0.851 -0.2385 -0.1051  0.1435
 5492TIP3    H138035   0.383   1.707   0.825 -1.5545 -1.8008 -1.6772
 5492TIP3    H238036   0.400   1.596   0.927 -0.0144  0.3828  0.5337
 5493TIP3   OH238037   5.214   4.933   0.897 -0.8656  0.0410 -0.8598
 5493TIP3    H138038   5.248   4.895   0.816 -0.1601 -1.7489  0.2127
 5493TIP3    H238039   5.119   4.940   0.882 -0.5468  1.4891 -2.4777
 5494TIP3   OH238040   1.632   5.792   1.727 -0.2538 -0.3170  0.0427
 5494TIP3    H138041   1.559   5.760   1.675 -0.7718  0.8037  0.0645
 5494TIP3    H238042   1.647   5.723   1.793 -0.7910 -0.8850 -0.4290
 5495TIP3   OH238043   2.589   5.501   0.911  0.4136  0.4306  0.1621
 5495TIP3    H138044   2.594   5.479   0.818 -0.6527 -1.8741  0.6025
 5495TIP3    H238045   2.658   5.449   0.952  0.5276  1.0265  0.7519
 5496TIP3   OH238046   4.644   4.332   3.035  0.4457 -0.2676  0.1420
 5496TIP3    H138047   4.670   4.369   2.951  2.3892  0.3310  0.9462
 5496TIP3    H238048   4.657   4.403   3.098  0.2648 -1.0820  1.1306
 5497TIP3   OH238049   0.610   5.031   2.394  0.5324  0.3194 -0.0098
 5497TIP3    H138050   0.646   4.942   2.389  0.4882  0.3275 -0.6305
 5497TIP3    H238051   0.652   5.077   2.321 -0.4448  0.4291 -0.5279
 5498TIP3   OH238052   4.210   6.688   1.212 -0.2960  0.0469  0.7914
 5498TIP3    H138053   4.174   6.687   1.123  1.7739  0.0177 -0.1124
 5498TIP3    H238054   4.223   6.596   1.233  0.3045  0.0925  0.6356
 5499TIP3   OH238055   0.170   0.276   1.231  0.2052 -0.2078 -0.0748
 5499TIP3    H138056   0.169   0.302   1.323  0.2879  0.5693 -0.2857
 5499TIP3    H238057   0.261   0.251   1.215  0.2524 -0.0820 -0.0100
 5500TIP3   OH238058   3.544   4.765   1.647 -0.2642 -0.0801  0.1716
 5500TIP3    H138059   3.453   4.755   1.621 -0.5721  0.1966  1.1145
 5500TIP3    H238060   3.555   4.703   1.719  0.3318 -0.1924 -0.0084
 5501TIP3   OH238061   5.359   6.056   0.962  0.4127  0.0681  0.1529
 5501TIP3    H138062   5.425   6.105   1.011  0.8554  1.0325 -1.3275
 5501TIP3    H238063   5.282   6.113   0.961 -0.0248 -0.5009  0.7957
 5502TIP3   OH238064   1.154   1.056   7.612  0.1225 -0.1805 -0.1106
 5502TIP3    H138065   1.103   1.077   7.691  0.5550 -0.9915  0.3895
 5502TIP3    H238066   1.104   1.097   7.540 -0.5411  0.1360  0.5161
 5503TIP3   OH238067   3.205   4.517   0.683 -0.0506 -0.6059  0.3225
 5503TIP3    H138068   3.150   4.595   0.686  0.9600  0.2436 -1.5971
 5503TIP3    H238069   3.295   4.550   0.687  0.3882 -1.7725  0.7261
 5504TIP3   OH238070   2.762   4.359   2.362 -0.1048 -0.2722 -0.2551
 5504TIP3    H138071   2.813   4.438   2.382  0.3818 -0.5898 -0.2161
 5504TIP3    H238072   2.796   4.293   2.422 -0.1111 -0.6625 -0.6734
 5505TIP3   OH238073   2.899   0.945   0.994  0.0411  0.0842 -0.5847
 5505TIP3    H138074   2.928   1.036   1.001 -0.1543  0.1156 -0.1112
 5505TIP3    H238075   2.976   0.894   1.017  0.3273  0.1102 -1.4557
 5506TIP3   OH238076   0.275   6.472   3.732  0.1142 -0.3853 -0.0009
 5506TIP3    H138077   0.185   6.441   3.719  0.3020 -0.4141 -1.3511
 5506TIP3    H238078   0.317   6.404   3.785 -0.2489 -1.0895 -0.6026
 5507TIP3   OH238079   6.226   3.694   2.223 -0.0888 -0.2130 -0.1306
 5507TIP3    H138080   6.146   3.656   2.259  0.2896 -1.4911 -0.5608
 5507TIP3    H238081   6.221   3.675   2.129 -0.9061  2.7638 -0.7876
 5508TIP3   OH238082   6.191   2.838   1.564  0.3604  0.6378 -0.7352
 5508TIP3    H138083   6.181   2.804   1.653 -2.1086 -1.2463 -1.6158
 5508TIP3    H238084   6.125   2.906   1.556 -0.7857 -0.5361 -1.6605
 5509TIP3   OH238085   3.889   1.871   2.461 -0.6534  0.5375  0.5913
 5509TIP3    H138086   3.917   1.963   2.466 -0.3590  0.4220  1.1610
 5509TIP3    H238087   3.867   1.848   2.551  0.6402 -0.3782  0.6987
 5510TIP3   OH238088   5.256   0.191   0.548 -0.1490 -0.4324 -0.1103
 5510TIP3    H138089   5.341   0.184   0.591  0.4083  0.3985 -1.0424
 5510TIP3    H238090   5.208   0.254   0.602  0.9949  1.5821 -1.3021
 5511TIP3   OH238091   5.910   4.895   8.269 -0.2779 -0.4862  0.4118
 5511TIP3    H138092   5.955   4.887   8.353  1.0179 -0.4372 -0.2625
 5511TIP3    H238093   5.978   4.919   8.207 -0.9378 -1.8745 -0.9246
 5512TIP3   OH238094   5.328   0.883   3.059  0.1718  0.2622  0.0593
 5512TIP3    H138095   5.266   0.828   3.012  1.3150 -0.0870 -1.0938
 5512TIP3    H238096   5.314   0.971   3.024  0.3451  0.1736 -0.2392
 5513TIP3   OH238097   6.787   1.848   2.689  0.2654 -0.4779  0.7906
 5513TIP3    H138098   6.736   1.851   2.608  0.9777  0.4867  0.3636
 5513TIP3    H238099   6.765   1.930   2.734  1.2191 -0.1758  0.7275
 5514TIP3   OH238100   2.505   3.885   0.487  0.5752  0.0932  0.3854
 5514TIP3    H138101   2.543   3.837   0.561  2.3672  1.4721  0.4509
 5514TIP3    H238102   2.467   3.964   0.527 -1.9860 -0.9923  0.2410
 5515TIP3   OH238103   4.565   0.220   0.002 -0.2745  0.1201 -0.2066
 5515TIP3    H138104   4.556   0.315   0.018 -1.8526 -0.3209  2.0594
 5515TIP3    H238105   4.499   0.200  -0.063 -1.3514  0.2942  0.8003
 5516TIP3   OH238106   5.714   6.387   2.103  0.3731  0.2242  0.0257
 5516TIP3    H138107   5.731   6.473   2.065  1.0070 -0.3084 -0.9382
 5516TIP3    H238108   5.799   6.359   2.138  0.7236 -0.9021 -1.5886
 5517TIP3   OH238109   1.002   4.292   7.643  0.7850 -0.0592 -0.5754
 5517TIP3    H138110   0.931   4.258   7.588  1.7731  0.1296 -2.0279
 5517TIP3    H238111   1.004   4.234   7.719 -2.0558  0.9798  0.4072
 5518TIP3   OH238112   3.354   6.470   0.430 -0.6540  0.1349  0.2201
 5518TIP3    H138113   3.273   6.501   0.469 -0.2461  0.8700  0.5071
 5518TIP3    H238114   3.331   6.387   0.388 -1.4412  0.0990  0.7048
 5519TIP3   OH238115   3.500   3.423   0.504 -0.6477  0.1817  0.2461
 5519TIP3    H138116   3.429   3.418   0.568  0.6285 -0.2843  1.7013
 5519TIP3    H238117   3.526   3.516   0.504 -1.8543  0.5385 -1.0067
 5520TIP3   OH238118   6.434   0.670   1.272 -0.2456  0.0765  0.1402
 5520TIP3    H138119   6.402   0.623   1.195  0.3044 -1.5656  0.8708
 5520TIP3    H238120   6.396   0.757   1.264  1.0777  0.5153 -2.8389
 5521TIP3   OH238121   5.813   3.206   2.957 -0.3480  0.1327 -0.3520
 5521TIP3    H138122   5.907   3.222   2.945 -0.2587 -0.4350 -0.4231
 5521TIP3    H238123   5.776   3.218   2.870 -0.5421  1.6394 -0.0878
 5522TIP3   OH238124   2.763   4.068   1.745 -0.3553 -0.5436  0.2850
 5522TIP3    H138125   2.766   4.070   1.649  0.2768  0.7325  0.2989
 5522TIP3    H238126   2.763   3.975   1.768  0.0471 -0.8646 -0.9383
 5523TIP3   OH238127   5.201   1.606   2.638  0.1356  0.9847 -0.3277
 5523TIP3    H138128   5.169   1.539   2.698  0.6777  1.7987  0.9368
 5523TIP3    H238129   5.292   1.620   2.665  0.2132  1.7958 -0.9648
 5524TIP3   OH238130   0.974   4.603   3.087 -0.6597 -0.2402  0.7603
 5524TIP3    H138131   0.980   4.515   3.050  0.2952 -0.5384  1.5569
 5524TIP3    H238132   1.046   4.651   3.045 -1.1214  0.1373  0.3964
 5525TIP3   OH238133   2.533   3.399   7.808  0.0288 -0.0530 -0.0602
 5525TIP3    H138134   2.619   3.440   7.812 -0.0898  0.5338 -2.2126
 5525TIP3    H238135   2.551   3.307   7.787  0.1648 -0.3126  1.1389
 5526TIP3   OH238136   2.704   4.026   2.034 -0.0542  0.5104 -0.1484
 5526TIP3    H138137   2.757   4.055   1.959  0.1022 -2.1254 -1.1569
 5526TIP3    H238138   2.767   4.011   2.104  0.3018 -0.6292 -0.6986
 5527TIP3   OH238139   6.071   3.715   8.068  0.1682  0.5639  0.0780
 5527TIP3    H138140   6.095   3.679   8.154 -0.1756 -1.7227 -0.7213
 5527TIP3    H238141   6.066   3.809   8.083  2.3259  0.4706  2.0343
 5528TIP3   OH238142   0.818   2.192   8.171 -0.6237  0.0875  0.3620
 5528TIP3    H138143   0.797   2.116   8.117 -0.6414  0.2701  0.1114
 5528TIP3    H238144   0.767   2.179   8.251 -2.6565  1.0787 -0.6751
 5529TIP3   OH238145   5.492   0.933   2.247 -0.1825  0.3017 -0.4253
 5529TIP3    H138146   5.471   0.918   2.339  0.9755  1.2380  0.0154
 5529TIP3    H238147   5.584   0.959   2.247 -0.3045  0.8130 -1.8000
 5530TIP3   OH238148   6.217   0.802   2.206 -0.1267  0.3862 -0.0921
 5530TIP3    H138149   6.288   0.784   2.267 -1.4969 -0.2460  1.3777
 5530TIP3    H238150   6.158   0.859   2.255 -2.0023 -1.3287 -0.2584
 5531TIP3   OH238151   3.988   2.333   8.500 -0.2594 -0.5739  0.1898
 5531TIP3    H138152   4.020   2.243   8.510  0.7691 -0.2610 -0.1736
 5531TIP3    H238153   3.896   2.323   8.475 -0.4782 -1.4957  1.2620
 5532TIP3   OH238154   2.925   2.527   2.192 -0.2357 -0.1115  0.3894
 5532TIP3    H138155   2.857   2.540   2.127 -0.9459  0.7059  1.2575
 5532TIP3    H238156   2.892   2.572   2.271  0.9715 -0.3225  1.0464
 5533TIP3   OH238157   6.131   5.359   8.498 -0.2151 -0.4617  0.0818
 5533TIP3    H138158   6.184   5.437   8.514  0.2728 -0.5711 -0.9060
 5533TIP3    H238159   6.145   5.304   8.575 -0.6225  0.4491  0.8093
 5534TIP3   OH238160   1.981   0.742   1.278  0.3213 -0.0742  0.1996
 5534TIP3    H138161   2.027   0.714   1.357  1.0512  0.9082  0.1442
 5534TIP3    H238162   1.979   0.664   1.223 -1.0273 -1.0347  1.5362
 5535TIP3   OH238163   0.963   1.761   0.811 -0.2738 -0.8839  0.1054
 5535TIP3    H138164   0.872   1.767   0.839 -0.4993  0.4053 -0.7832
 5535TIP3    H238165   0.983   1.849   0.777  0.5895 -1.7746 -1.8244
 5536TIP3   OH238166   6.701   6.136   1.242 -0.5418  0.3370 -0.3231
 5536TIP3    H138167   6.706   6.082   1.164 -0.1197 -0.7727  0.4524
 5536TIP3    H238168   6.615   6.117   1.279  0.6986 -2.1597  1.5549
 5537TIP3   OH238169   4.108   2.079   8.526 -0.0463 -0.3946  0.3981
 5537TIP3    H138170   4.155   2.047   8.603  0.8481 -2.0067 -0.7494
 5537TIP3    H238171   4.175   2.090   8.459 -1.1620 -2.1616 -1.1098
 5538TIP3   OH238172   4.217   1.258   7.685  0.1307  0.7025  0.1048
 5538TIP3    H138173   4.124   1.279   7.679  0.3161  1.8455  0.9276
 5538TIP3    H238174   4.235   1.207   7.606 -1.5911 -1.2490  0.8822
 5539TIP3   OH238175   5.206   5.358   0.909 -0.0817  0.6286  0.3199
 5539TIP3    H138176   5.233   5.295   0.976 -0.6275  0.5106  0.4320
 5539TIP3    H238177   5.288   5.382   0.865  0.3905  1.2958  1.5320
 5540TIP3   OH238178   5.609   4.386   1.027  0.2859  0.1106 -0.1959
 5540TIP3    H138179   5.562   4.460   1.065 -1.1838  0.0059 -1.6836
 5540TIP3    H238180   5.620   4.410   0.934 -0.1134 -1.4802 -0.6719
 5541TIP3   OH238181   1.079   1.889   1.336 -0.3428  0.2526  0.1329
 5541TIP3    H138182   1.112   1.970   1.299  1.2767 -0.6329 -0.4931
 5541TIP3    H238183   1.022   1.853   1.268  0.7682 -0.2216 -0.5892
 5542TIP3   OH238184   0.564   0.441   1.106  0.1772 -0.7199 -0.1917
 5542TIP3    H138185   0.522   0.359   1.081 -1.9652  0.1820  0.2100
 5542TIP3    H238186   0.550   0.498   1.030 -1.6488  0.3682  0.8851
 5543TIP3   OH238187   1.259   6.124   1.177  0.1209 -0.2590 -0.2812
 5543TIP3    H138188   1.286   6.180   1.104 -0.5916  0.7844  0.2273
 5543TIP3    H238189   1.261   6.182   1.254  0.7686 -1.3128  0.5244
 5544TIP3   OH238190   4.671   4.535   8.137  0.0547  0.0309 -0.0908
 5544TIP3    H138191   4.701   4.533   8.046 -0.1962  0.8853 -0.2014
 5544TIP3    H238192   4.580   4.562   8.132 -0.4453 -1.4879  0.3217
 5545TIP3   OH238193   3.857   4.206   7.416 -0.4402 -0.0603 -0.1438
 5545TIP3    H138194   3.884   4.272   7.480  1.3120 -1.7301  0.9562
 5545TIP3    H238195   3.762   4.209   7.417 -0.4516  0.5329  1.9762
 5546TIP3   OH238196   4.423   6.172   0.719  0.5960 -0.3405  0.1203
 5546TIP3    H138197   4.455   6.088   0.684 -0.6471 -0.8118  0.0821
 5546TIP3    H238198   4.337   6.183   0.679  0.6875  0.9013  0.2408
 5547TIP3   OH238199   0.841   2.894   1.634  0.2145 -0.3419 -0.1250
 5547TIP3    H138200   0.879   2.963   1.688  2.0752 -1.4520  0.0950
 5547TIP3    H238201   0.912   2.867   1.576 -0.4633 -1.9796 -0.2576
 5548TIP3   OH238202   6.413   2.955   8.369  0.0333  0.2824 -0.5009
 5548TIP3    H138203   6.391   3.014   8.441 -1.0037 -1.2019  0.4702
 5548TIP3    H238204   6.437   2.873   8.412 -2.3257 -1.2164 -1.8108
 5549TIP3   OH238205   1.748   5.731   8.045  0.3055 -0.1551  0.6481
 5549TIP3    H138206   1.678   5.795   8.055 -0.4920 -1.1682  1.9650
 5549TIP3    H238207   1.828   5.783   8.043 -0.4580  1.0220 -0.8137
 5550TIP3   OH238208   1.181   6.619   1.293 -0.1620 -0.2261  0.5919
 5550TIP3    H138209   1.236   6.686   1.334  0.1927 -0.4966  0.5698
 5550TIP3    H238210   1.092   6.654   1.297 -0.2153 -0.4799  2.0586
 5551TIP3   OH238211   2.491   6.199   3.532 -0.1529  0.0162 -0.3047
 5551TIP3    H138212   2.484   6.239   3.618  0.7092 -1.2414  0.3762
 5551TIP3    H238213   2.538   6.263   3.479 -0.0012  0.4678  0.3645
 5552TIP3   OH238214   2.098   6.438   2.715 -0.4889 -1.0348 -0.5950
 5552TIP3    H138215   2.055   6.494   2.779  0.1583 -0.9997 -0.1784
 5552TIP3    H238216   2.054   6.456   2.632  0.2387  0.7090 -0.6393
 5553TIP3   OH238217   3.110   4.338   0.036 -0.2221  0.3851  0.2248
 5553TIP3    H138218   3.096   4.402   0.105 -0.2972 -0.9266  1.4655
 5553TIP3    H238219   3.101   4.253   0.079 -1.5661 -0.5023 -1.6390
 5554TIP3   OH238220   1.255   3.510   3.633 -0.2537  0.2623  0.8004
 5554TIP3    H138221   1.216   3.506   3.546 -0.9570  1.6549  1.0107
 5554TIP3    H238222   1.201   3.453   3.687 -0.4045  0.1434  0.5246
 5555TIP3   OH238223   5.017   6.140   2.442  0.2239 -0.2410  0.4263
 5555TIP3    H138224   4.972   6.060   2.469 -0.5684 -0.0600 -0.3084
 5555TIP3    H238225   5.016   6.137   2.347  3.5448 -1.1871  0.3207
 5556TIP3   OH238226   0.103   3.419   3.752  0.1140  0.1376 -0.4508
 5556TIP3    H138227   0.118   3.505   3.792 -0.7839  0.2312 -0.3058
 5556TIP3    H238228   0.102   3.358   3.826  1.1235 -0.0668 -0.5842
 5557TIP3   OH238229   1.409   4.848   0.545 -0.3607 -0.1051  0.1374
 5557TIP3    H138230   1.314   4.850   0.537 -0.4716 -0.0173  1.3108
 5557TIP3    H238231   1.429   4.911   0.615  0.5730  0.0394 -0.2493
 5558TIP3   OH238232   3.540   2.428   3.577  0.3298 -0.2060 -0.4094
 5558TIP3    H138233   3.635   2.425   3.568  0.2761  0.6684 -1.5409
 5558TIP3    H238234   3.524   2.483   3.654  0.7392  0.8212 -1.0426
 5559TIP3   OH238235   3.318   4.660   2.477 -0.7180 -0.0397  0.0219
 5559TIP3    H138236   3.279   4.603   2.410 -0.9809  0.1161  0.0393
 5559TIP3    H238237   3.268   4.742   2.470 -2.8943 -1.0148  2.4804
 5560TIP3   OH238238   5.454   6.337   2.538 -0.7840 -0.2018  0.4243
 5560TIP3    H138239   5.365   6.310   2.559 -0.5156 -0.6327  1.0733
 5560TIP3    H238240   5.448   6.380   2.453 -1.5093 -0.7736  0.1802
 5561TIP3   OH238241   1.900   1.083   0.346 -0.3863  0.1714 -0.6510
 5561TIP3    H138242   1.906   1.126   0.261 -0.9025 -2.3204 -2.0363
 5561TIP3    H238243   1.806   1.071   0.361 -0.2604 -0.5706 -0.3869
 5562TIP3   OH238244   1.194   1.521   0.482  0.4042  0.3531 -0.5128
 5562TIP3    H138245   1.261   1.581   0.450  0.4171  0.1751 -0.8295
 5562TIP3    H238246   1.133   1.576   0.531  1.0709  0.4323  0.2409
 5563TIP3   OH238247   0.208   3.699   0.917 -0.5304 -0.0024 -0.2379
 5563TIP3    H138248   0.249   3.694   0.831  0.1362  1.8895 -0.0724
 5563TIP3    H238249   0.121   3.735   0.901  0.1446  1.8245 -0.0184
 5564TIP3   OH238250   6.739   3.845   2.918 -0.1120 -0.3429 -0.1863
 5564TIP3    H138251   6.684   3.771   2.945  0.3051 -0.6775 -0.2301
 5564TIP3    H238252   6.790   3.866   2.996  1.1651 -1.3718 -0.6900
 5565TIP3   OH238253   5.598   3.563   2.914 -0.0968 -0.6425 -0.4771
 5565TIP3    H138254   5.547   3.499   2.963 -1.9562  1.3342  0.3479
 5565TIP3    H238255   5.623   3.629   2.980  2.5981 -0.9218 -1.0924
 5566TIP3   OH238256   2.425   5.281   0.555 -0.3861  0.4067 -0.3543
 5566TIP3    H138257   2.437   5.202   0.503 -1.5433  0.1721 -0.2801
 5566TIP3    H238258   2.333   5.280   0.581  0.5888 -0.7880  3.7826
 5567TIP3   OH238259   1.998   1.226   0.154 -0.0971 -0.9606 -0.0122
 5567TIP3    H138260   2.000   1.318   0.127 -1.7627 -1.1061 -0.7140
 5567TIP3    H238261   2.072   1.186   0.108  0.8895  0.0785  0.6080
 5568TIP3   OH238262   5.922   0.204   8.550 -0.1299  0.4403  0.7007
 5568TIP3    H138263   5.897   0.292   8.524  0.1092  0.6547  1.1984
 5568TIP3    H238264   5.953   0.212   8.640  0.6993  0.0004  0.4674
 5569TIP3   OH238265   4.690   5.992   0.487  0.7362  0.4601 -0.4595
 5569TIP3    H138266   4.628   6.050   0.442 -0.2157  0.4720  0.8260
 5569TIP3    H238267   4.749   6.052   0.533 -0.6177  0.4682  1.3670
 5570TIP3   OH238268   4.157   0.652   0.959 -0.0298  0.7542 -1.3184
 5570TIP3    H138269   4.091   0.660   1.027 -1.2526  0.7355 -2.4628
 5570TIP3    H238270   4.186   0.561   0.963 -2.4179 -0.1841 -2.8295
 5571TIP3   OH238271   0.276   1.171   3.906 -0.0321  0.3080 -0.6796
 5571TIP3    H138272   0.228   1.090   3.885  1.1439 -0.3428 -0.9312
 5571TIP3    H238273   0.289   1.213   3.821  1.2130 -0.3118 -0.8064
 5572TIP3   OH238274   5.658   3.252   3.287 -0.0700 -0.1638 -0.0109
 5572TIP3    H138275   5.697   3.292   3.210  1.3131 -2.1363 -0.4156
 5572TIP3    H238276   5.716   3.278   3.359  0.5184 -0.9302 -0.1894
 5573TIP3   OH238277   3.852   5.231   1.963  0.2731 -0.1122 -0.5457
 5573TIP3    H138278   3.804   5.306   1.997  1.9761  0.5355  0.5852
 5573TIP3    H238279   3.918   5.213   2.030  0.8495 -1.6856 -1.4855
 5574TIP3   OH238280   3.750   1.342   0.257 -0.4593  0.2028  0.2422
 5574TIP3    H138281   3.827   1.336   0.200  0.3158  2.6579  0.8855
 5574TIP3    H238282   3.680   1.301   0.208  0.3985  1.3433 -2.0931
 5575TIP3   OH238283   1.117   2.404   0.949  0.0833 -0.1961  0.0111
 5575TIP3    H138284   1.072   2.487   0.959  4.3897  2.5687 -0.8837
 5575TIP3    H238285   1.164   2.391   1.032 -0.0977 -1.5099 -0.0598
 5576TIP3   OH238286   6.060   2.369   8.569 -0.0887 -0.3529  0.7017
 5576TIP3    H138287   6.023   2.417   8.494 -0.6132 -2.4985 -0.5142
 5576TIP3    H238288   5.991   2.307   8.594  0.6651 -0.7029  1.9956
 5577TIP3   OH238289   6.655   2.348   0.336 -0.4065  0.4637 -0.5185
 5577TIP3    H138290   6.574   2.393   0.309 -0.0110  1.9669  0.6547
 5577TIP3    H238291   6.705   2.340   0.255 -1.4365  0.1126 -1.1475
 5578TIP3   OH238292   3.879   0.873   0.517  0.4067 -0.6278  0.2127
 5578TIP3    H138293   3.905   0.909   0.432 -2.2222 -0.6936 -0.7253
 5578TIP3    H238294   3.904   0.781   0.514 -1.1052 -1.0422 -1.2352
 5579TIP3   OH238295   5.609   2.590   0.676 -0.2265  0.5697 -0.0325
 5579TIP3    H138296   5.669   2.549   0.613  0.0409  0.8176  0.0558
 5579TIP3    H238297   5.559   2.653   0.624  0.2744  1.0642  0.0702
 5580TIP3   OH238298   3.490   3.763   1.312  0.0322  0.2287 -0.8194
 5580TIP3    H138299   3.558   3.818   1.275 -0.4937  0.9823 -0.6913
 5580TIP3    H238300   3.527   3.675   1.313  1.0940  0.6743 -0.5055
 5581TIP3   OH238301   1.917   1.802   2.215 -0.4405 -0.0489  0.2855
 5581TIP3    H138302   1.927   1.710   2.238  3.4355  0.0982 -0.0753
 5581TIP3    H238303   1.910   1.803   2.119  1.7000  0.0306  0.0854
 5582TIP3   OH238304   4.715   6.304   3.020 -0.1631 -0.6579  0.4678
 5582TIP3    H138305   4.667   6.384   3.041 -2.2243 -1.8618  0.6660
 5582TIP3    H238306   4.773   6.329   2.948  0.1519  1.2686  1.3312
 5583TIP3   OH238307   2.962   3.504   0.163 -0.1999 -0.3201 -0.0695
 5583TIP3    H138308   2.949   3.596   0.138 -0.1215 -0.1268  0.5923
 5583TIP3    H238309   3.054   3.499   0.188 -0.6857 -0.0764  1.9137
 5584TIP3   OH238310   4.894   4.068   2.862  0.6251  0.3832  0.2138
 5584TIP3    H138311   4.870   4.126   2.789  0.9754  0.3616  0.0806
 5584TIP3    H238312   4.943   4.125   2.921  0.0514  0.4853  0.6001
 5585TIP3   OH238313   5.469   5.105   0.907 -0.0784 -0.6234  0.0627
 5585TIP3    H138314   5.375   5.125   0.913 -0.2123 -1.3711  0.5430
 5585TIP3    H238315   5.474   5.010   0.921  0.6044 -0.8520 -1.5268
 5586TIP3   OH238316   0.055   3.345   8.597  0.4679  0.0731  0.2121
 5586TIP3    H138317   0.130   3.303   8.555  1.1881  1.5209 -0.0111
 5586TIP3    H238318   0.081   3.351   8.689  0.5562  0.4402  0.1616
 5587TIP3   OH238319   4.376   5.225   3.666 -0.1508 -0.2286 -0.0947
 5587TIP3    H138320   4.366   5.143   3.618 -1.9232 -0.9369  1.3461
 5587TIP3    H238321   4.463   5.220   3.706 -0.5701 -1.8735  0.7161
 5588TIP3   OH238322   2.690   2.690   2.928 -0.0775  0.2505  0.1579
 5588TIP3    H138323   2.742   2.694   3.009 -1.6012  1.0938  1.1333
 5588TIP3    H238324   2.668   2.598   2.919  4.8557 -1.0174 -2.5230
 5589TIP3   OH238325   3.622   3.903   3.303  0.4922 -0.4528 -0.1047
 5589TIP3    H138326   3.631   3.992   3.337  1.5510 -0.1069 -1.2193
 5589TIP3    H238327   3.711   3.878   3.278  0.0033 -1.3045 -1.0543
 5590TIP3   OH238328   3.818   2.493   1.575  0.4241  0.2307  0.4104
 5590TIP3    H138329   3.747   2.534   1.526  0.3445  0.0376  0.3643
 5590TIP3    H238330   3.892   2.552   1.563 -0.5226  2.1971  3.0974
 5591TIP3   OH238331   6.227   4.583   2.560  0.5185  0.3948  0.3355
 5591TIP3    H138332   6.169   4.577   2.485 -1.3618  0.4627  1.7000
 5591TIP3    H238333   6.228   4.676   2.582  1.2750  0.4143  0.2500
 5592TIP3   OH238334   4.178   3.659   0.554 -0.2851 -0.0150  0.4510
 5592TIP3    H138335   4.172   3.680   0.460 -2.4045 -1.2840  0.2310
 5592TIP3    H238336   4.257   3.606   0.561 -0.2018 -0.0753 -0.6899
 5593TIP3   OH238337   2.646   0.594   3.513  0.3396  0.5536  0.0500
 5593TIP3    H138338   2.559   0.602   3.551  0.4335 -0.2822  0.4599
 5593TIP3    H238339   2.668   0.683   3.486 -0.5999  0.7899  0.0189
 5594TIP3   OH238340   2.835   0.928   0.434 -0.0703 -0.3497  0.2291
 5594TIP3    H138341   2.885   0.870   0.492 -0.0134 -0.5247  0.0078
 5594TIP3    H238342   2.744   0.908   0.452 -0.0675  0.0211  0.6866
 5595TIP3   OH238343   0.365   1.237   2.890 -0.3123  0.2327  0.3241
 5595TIP3    H138344   0.273   1.255   2.908 -0.4091  0.9948 -0.8340
 5595TIP3    H238345   0.391   1.173   2.957 -2.4119 -2.0786 -0.9062
 5596TIP3   OH238346   1.100   0.912   1.861  0.1593 -0.1229 -0.4897
 5596TIP3    H138347   1.154   0.988   1.840  0.4439 -0.3974 -0.7688
 5596TIP3    H238348   1.039   0.943   1.927 -0.7572  0.7484 -1.7171
 5597TIP3   OH238349   0.862   1.237   0.441  0.0154 -0.1226 -0.1171
 5597TIP3    H138350   0.809   1.294   0.385 -0.3567 -1.2997 -0.9915
 5597TIP3    H238351   0.832   1.258   0.530 -0.2607  0.8811 -0.4227
 5598TIP3   OH238352   4.096   4.224   8.407 -0.7487  0.0657  0.4255
 5598TIP3    H138353   4.018   4.250   8.456 -0.8484 -0.1442  0.3802
 5598TIP3    H238354   4.135   4.154   8.460 -0.3130  0.5086  0.7039
 5599TIP3   OH238355   3.697   0.812   1.124  0.2919  0.6908  0.1408
 5599TIP3    H138356   3.640   0.764   1.063  0.8333  1.3490 -0.9227
 5599TIP3    H238357   3.638   0.840   1.194 -0.7514  1.4370 -0.9777
 5600TIP3   OH238358   5.755   2.172   1.624  0.2697  0.1866  0.0914
 5600TIP3    H138359   5.761   2.088   1.579 -0.2739  0.5862 -0.7407
 5600TIP3    H238360   5.844   2.206   1.624  0.4613 -0.3024  0.2819
 5601TIP3   OH238361   5.018   1.013   2.082 -0.3637 -0.1706 -0.4751
 5601TIP3    H138362   5.111   1.035   2.088 -0.2348 -0.4925 -1.1798
 5601TIP3    H238363   5.001   1.006   1.988 -1.4521  1.2821 -0.4197
 5602TIP3   OH238364   0.785   2.939   0.414 -0.1788  0.0260  0.0390
 5602TIP3    H138365   0.807   2.900   0.498 -0.8505 -2.2798 -0.7747
 5602TIP3    H238366   0.847   2.900   0.352 -0.9999  0.0925 -0.8512
 5603TIP3   OH238367   0.437   0.600   1.854  0.5850 -0.6842  0.3523
 5603TIP3    H138368   0.348   0.576   1.827  1.1293 -1.6689 -0.6781
 5603TIP3    H238369   0.482   0.619   1.771  0.9065  1.4560  0.9629
 5604TIP3   OH238370   2.053   0.109   2.388 -0.0176 -0.9673  0.4905
 5604TIP3    H138371   2.124   0.156   2.344  0.7224 -2.4972  0.0026
 5604TIP3    H238372   2.075   0.114   2.481 -1.8504  2.7294  0.9421
 5605TIP3   OH238373   5.658   1.096   3.816  0.0935  0.5362  0.4598
 5605TIP3    H138374   5.655   1.135   3.729  0.5412  1.3749  0.8086
 5605TIP3    H238375   5.678   1.004   3.800  0.1022  0.6660 -0.3242
 5606TIP3   OH238376   6.560   2.360   3.246  0.2677  0.3830  0.9411
 5606TIP3    H138377   6.614   2.374   3.324  1.0149  0.2490  0.4544
 5606TIP3    H238378   6.553   2.447   3.206  0.0894  0.4058  1.0190
 5607TIP3   OH238379   1.490   4.847   7.720 -0.0702 -0.6414 -0.2533
 5607TIP3    H138380   1.466   4.923   7.773 -0.0565 -0.9170  0.1563
 5607TIP3    H238381   1.568   4.812   7.763  0.8562  0.0199 -1.3379
 5608TIP3   OH238382   5.505   2.845   2.289  0.1235  0.1607  0.3570
 5608TIP3    H138383   5.508   2.799   2.204 -1.7958  2.6121 -1.1866
 5608TIP3    H238384   5.562   2.921   2.277 -0.6126  0.8401  1.0284
 5609TIP3   OH238385   3.156   0.853   0.863  0.2818  0.3527 -0.6998
 5609TIP3    H138386   3.153   0.938   0.818 -0.8019  0.1288 -1.0794
 5609TIP3    H238387   3.246   0.822   0.849  0.2747  0.7702 -1.8245
 5610TIP3   OH238388   5.225   6.058   3.282  0.1001 -0.2843 -0.0340
 5610TIP3    H138389   5.275   6.028   3.207  0.5692  2.5588 -0.9850
 5610TIP3    H238390   5.148   6.102   3.245  0.8375  2.0580  0.9789
 5611TIP3   OH238391   0.082   0.876   0.085 -0.2963  0.1141 -0.3628
 5611TIP3    H138392   0.083   0.917   0.171 -0.5267 -2.0130  0.7090
 5611TIP3    H238393   0.086   0.782   0.102  2.2283 -0.3549 -2.7166
 5612TIP3   OH238394   3.798   3.976   2.008 -0.3427  0.0197 -0.1229
 5612TIP3    H138395   3.830   3.975   2.098  0.3495 -0.5860 -0.3628
 5612TIP3    H238396   3.706   3.951   2.015 -0.1320 -0.6453  0.3561
 5613TIP3   OH238397   2.730   6.662   8.423  0.0024 -0.2021 -0.2030
 5613TIP3    H138398   2.739   6.598   8.494  0.5033  1.3041  1.1567
 5613TIP3    H238399   2.820   6.689   8.404 -0.1681 -0.2434 -1.1039
 5614TIP3   OH238400   3.777   0.798   2.829  0.3033 -0.2481 -0.5231
 5614TIP3    H138401   3.811   0.815   2.741  2.3747 -3.3447 -0.4948
 5614TIP3    H238402   3.709   0.731   2.816 -0.0490 -0.0314  0.1601
 5615TIP3   OH238403   6.224   4.611   8.453  0.5144 -0.5044  0.2066
 5615TIP3    H138404   6.299   4.619   8.394  1.2205  0.8081  1.2315
 5615TIP3    H238405   6.235   4.683   8.515 -1.0420 -0.9280  1.0061
 5616TIP3   OH238406   5.706   4.249   1.604  0.3180 -0.0818  0.4889
 5616TIP3    H138407   5.728   4.342   1.595 -0.5022  0.2196  1.4783
 5616TIP3    H238408   5.697   4.235   1.699  2.1069 -1.5750  0.5109
 5617TIP3   OH238409   3.273   3.816   1.114 -0.1559 -0.7954 -0.4506
 5617TIP3    H138410   3.351   3.795   1.165  0.2493 -0.7407 -1.0414
 5617TIP3    H238411   3.256   3.908   1.133  2.3542  0.4513 -3.4408
 5618TIP3   OH238412   3.234   5.401   0.759 -0.6868 -0.8008 -0.3129
 5618TIP3    H138413   3.250   5.455   0.682 -1.2499  0.2961  0.3144
 5618TIP3    H238414   3.142   5.416   0.781 -0.3004 -0.3078  1.1300
 5619TIP3   OH238415   0.725   0.440   1.896 -0.0611  0.1552 -0.1905
 5619TIP3    H138416   0.656   0.503   1.918 -0.1133  0.7322 -1.8546
 5619TIP3    H238417   0.681   0.375   1.842  0.6990  0.5875 -1.3525
 5620TIP3   OH238418   5.156   1.032   3.809 -0.3287  0.1941  0.4418
 5620TIP3    H138419   5.224   1.006   3.871 -0.3715  1.0909  0.8820
 5620TIP3    H238420   5.089   1.074   3.863 -0.5007  0.7266 -0.1791
 5621TIP3   OH238421   3.203   2.798   2.216 -0.0034 -0.1412  0.0963
 5621TIP3    H138422   3.276   2.846   2.253 -0.4283 -1.6288  3.2607
 5621TIP3    H238423   3.153   2.768   2.292 -1.6113 -2.6550 -1.7605
 5622TIP3   OH238424   1.070   2.045   3.268  0.4201  0.0551 -0.7319
 5622TIP3    H138425   1.006   2.032   3.338 -1.3353  1.1636 -2.0245
 5622TIP3    H238426   1.154   2.021   3.307 -0.3755  1.1932  1.9494
 5623TIP3   OH238427   2.820   6.785   2.274  0.0878  0.2800 -0.3421
 5623TIP3    H138428   2.809   6.697   2.311 -0.1039 -0.1816 -1.4502
 5623TIP3    H238429   2.882   6.828   2.333 -0.6633 -0.2057  0.8488
 5624TIP3   OH238430   1.058   5.127   8.591 -0.4103  0.4906 -0.0527
 5624TIP3    H138431   1.142   5.170   8.610  1.3292 -1.1850 -3.0927
 5624TIP3    H238432   1.010   5.190   8.537 -0.7074  1.0554  0.8494
 5625TIP3   OH238433   3.145   1.972   1.019  0.2335  0.4676 -0.5123
 5625TIP3    H138434   3.213   2.006   1.077 -1.2438 -0.9687  2.2424
 5625TIP3    H238435   3.179   1.888   0.989  0.5960  0.7808 -0.9996
 5626TIP3   OH238436   0.642   0.674   2.807 -0.0475 -0.5006 -0.7694
 5626TIP3    H138437   0.579   0.662   2.736  0.2290 -2.1640 -0.7741
 5626TIP3    H238438   0.647   0.769   2.819 -3.4971 -0.2792  0.0957
 5627TIP3   OH238439   0.848   5.732   1.140  0.1110  0.3642 -0.1516
 5627TIP3    H138440   0.829   5.775   1.057  1.9645  0.3074 -0.6488
 5627TIP3    H238441   0.827   5.798   1.206 -1.6462  0.3197 -0.6076
 5628TIP3   OH238442   6.580   1.593   3.440 -0.1999 -0.1333 -0.3301
 5628TIP3    H138443   6.502   1.647   3.453  0.6725  1.1208 -0.0417
 5628TIP3    H238444   6.565   1.515   3.492 -1.9527 -0.6788 -1.5694
 5629TIP3   OH238445   1.199   2.916   1.839 -0.1650 -0.1867  0.1335
 5629TIP3    H138446   1.233   2.837   1.881  1.8243  0.2715 -0.5189
 5629TIP3    H238447   1.236   2.915   1.751 -2.1731  0.2079 -0.7757
 5630TIP3   OH238448   5.567   6.501   1.500 -0.5316  0.3697 -0.3000
 5630TIP3    H138449   5.587   6.423   1.551 -1.4618  0.6630  0.5625
 5630TIP3    H238450   5.645   6.516   1.446 -0.8260 -1.8528 -1.4330
 5631TIP3   OH238451   2.296   3.548   2.201  0.4227  0.1974  0.5015
 5631TIP3    H138452   2.291   3.562   2.296  0.7957  0.7078  0.4521
 5631TIP3    H238453   2.298   3.636   2.165 -1.4565  0.0413 -0.0946
 5632TIP3   OH238454   5.075   0.272   0.327 -0.5699  0.4150 -0.1207
 5632TIP3    H138455   5.126   0.232   0.397  1.4456  1.9623 -0.5998
 5632TIP3    H238456   5.056   0.200   0.267 -2.1619 -0.8965  1.8396
 5633TIP3   OH238457   1.635   3.290   2.940 -0.0668 -0.1031 -0.2333
 5633TIP3    H138458   1.557   3.315   2.988 -0.4667 -0.8120 -0.4976
 5633TIP3    H238459   1.642   3.195   2.952  0.0379 -0.2404 -1.2272
 5634TIP3   OH238460   4.099   4.691   7.802 -0.1468  0.2586  0.0749
 5634TIP3    H138461   4.062   4.698   7.890 -0.4277  0.4113 -0.0529
 5634TIP3    H238462   4.124   4.599   7.794 -2.2153 -0.3201 -0.4992
 5635TIP3   OH238463   6.508   1.451   2.977 -0.6495 -0.0901  0.7940
 5635TIP3    H138464   6.427   1.409   2.945 -2.7098  2.4820  2.2572
 5635TIP3    H238465   6.495   1.458   3.072  1.6048 -0.1230  1.1530
 5636TIP3   OH238466   2.851   6.776   1.093 -0.5691 -0.8118 -0.5351
 5636TIP3    H138467   2.831   6.726   1.014  0.9205 -1.3592 -0.5931
 5636TIP3    H238468   2.798   6.734   1.161 -0.7267 -1.3024 -0.9541
 5637TIP3   OH238469   5.297   5.871   2.554  0.4586 -0.2233  0.4189
 5637TIP3    H138470   5.240   5.796   2.535  1.5930 -1.1635  0.5888
 5637TIP3    H238471   5.316   5.908   2.468 -0.2250 -0.0364  0.3424
 5638TIP3   OH238472   5.761   5.362   7.583  0.0134  0.6008 -0.2165
 5638TIP3    H138473   5.836   5.321   7.540 -2.1834 -3.6574 -0.5189
 5638TIP3    H238474   5.781   5.359   7.676 -0.7001 -3.1674 -0.0376
 5639TIP3   OH238475   3.649   3.685   0.519  0.0228 -0.8972  0.5799
 5639TIP3    H138476   3.682   3.687   0.609  0.8181  1.3014  0.3017
 5639TIP3    H238477   3.696   3.756   0.475 -1.2187 -1.1609 -1.2754
 5640TIP3   OH238478   0.901   5.018   3.096  0.5394  0.6683 -0.3323
 5640TIP3    H138479   0.915   5.012   3.001  0.2645 -0.3582 -0.3231
 5640TIP3    H238480   0.828   4.958   3.113  1.1453  0.1910  0.6552
 5641TIP3   OH238481   6.485   0.584   2.185  0.0794  0.2467  0.2556
 5641TIP3    H138482   6.418   0.633   2.233  0.3353  1.0434 -0.2014
 5641TIP3    H238483   6.548   0.558   2.253 -0.5183 -0.2363  0.6375
 5642TIP3   OH238484   3.610   3.213   8.648 -0.4843  0.0411  0.3752
 5642TIP3    H138485   3.602   3.304   8.619 -0.1028 -0.7698 -2.6847
 5642TIP3    H238486   3.698   3.207   8.687 -0.4972  0.9540  0.5577
 5643TIP3   OH238487   5.606   5.229   0.672 -0.4223  0.1001 -0.3282
 5643TIP3    H138488   5.570   5.214   0.759  0.7716 -0.4008  0.1092
 5643TIP3    H238489   5.628   5.141   0.640 -1.0816  0.2588 -1.2432
 5644TIP3   OH238490   0.079   2.951   8.518 -0.4144  0.6357  0.0880
 5644TIP3    H138491   0.131   2.971   8.595 -0.2907  2.1161 -0.3401
 5644TIP3    H238492  -0.011   2.945   8.550 -0.2877  0.6214  0.4379
 5645TIP3   OH238493   6.780   6.448   8.443  0.2188 -0.0098  0.4834
 5645TIP3    H138494   6.856   6.414   8.395  0.9220  1.1635  0.7262
 5645TIP3    H238495   6.795   6.421   8.533  0.8372  0.9806  0.6977
 5646TIP3   OH238496   5.234   3.039   3.472  0.1935 -0.0051 -0.2470
 5646TIP3    H138497   5.236   2.945   3.491 -1.1673  0.1189  0.6201
 5646TIP3    H238498   5.221   3.081   3.557  1.4124  1.0247 -0.5371
 5647TIP3   OH238499   6.426   2.670   0.761  0.0341  0.3902 -0.6397
 5647TIP3    H138500   6.520   2.667   0.741  0.3455 -3.7645  0.6042
 5647TIP3    H238501   6.422   2.661   0.857 -1.4929 -3.4692 -0.8858
 5648TIP3   OH238502   6.133   1.342   1.558  0.0436 -0.0712 -0.4901
 5648TIP3    H138503   6.139   1.272   1.493 -0.2104  0.1523 -0.7552
 5648TIP3    H238504   6.135   1.296   1.642  2.4446 -0.2524 -0.5711
 5649TIP3   OH238505   5.116   0.616   1.078 -0.4296  0.1370  0.0732
 5649TIP3    H138506   5.148   0.528   1.058  1.7047  0.6541  0.8417
 5649TIP3    H238507   5.025   0.604   1.104 -0.1657 -1.8522  0.2387
 5650TIP3   OH238508   3.082   4.397   1.087  0.2876  0.0439  0.0325
 5650TIP3    H138509   2.990   4.425   1.091  0.4454  1.1890 -2.5371
 5650TIP3    H238510   3.078   4.304   1.065 -0.2832  0.2249 -0.6629
 5651TIP3   OH238511   3.863   6.074   2.770 -0.2180 -0.6441 -0.0364
 5651TIP3    H138512   3.818   6.132   2.831 -1.1408  0.4034 -1.6373
 5651TIP3    H238513   3.800   6.004   2.752  0.2313 -1.2109  0.5415
 5652TIP3   OH238514   6.544   1.180   1.923 -0.0147 -0.0810 -0.3187
 5652TIP3    H138515   6.551   1.275   1.917 -0.3878  0.1104  1.7736
 5652TIP3    H238516   6.631   1.148   1.901  1.3081  1.0030  2.8992
 5653TIP3   OH238517   5.064   5.069   2.291  0.1481 -0.5290 -0.6614
 5653TIP3    H138518   5.039   4.977   2.288 -3.3005 -0.1196  4.0978
 5653TIP3    H238519   4.991   5.115   2.250  0.4684  0.1810 -0.4475
 5654TIP3   OH238520   5.542   0.592   0.817  0.5960 -0.2132 -0.2934
 5654TIP3    H138521   5.480   0.520   0.831 -0.1468  0.4496 -0.1302
 5654TIP3    H238522   5.615   0.551   0.770 -0.1586 -0.9095 -0.8886
 5655TIP3   OH238523   3.813   0.508   2.643 -0.1684  0.1055  0.5121
 5655TIP3    H138524   3.870   0.574   2.681 -1.0308  0.7847  0.6751
 5655TIP3    H238525   3.801   0.443   2.713  0.3189  0.0107  0.5068
 5656TIP3   OH238526   5.868   5.452   8.560  0.2249  0.1611 -0.5671
 5656TIP3    H138527   5.839   5.409   8.641 -0.6304 -1.3195 -1.5979
 5656TIP3    H238528   5.949   5.407   8.537  0.4057  0.4984 -0.5909
 5657TIP3   OH238529   4.527   2.183   1.043  0.0296 -0.0108 -0.2256
 5657TIP3    H138530   4.587   2.119   1.004 -0.2491 -0.2812 -0.2133
 5657TIP3    H238531   4.484   2.135   1.113 -0.3822  0.1096 -0.3933
 5658TIP3   OH238532   4.101   1.320   2.364 -0.5947  0.4465 -0.1219
 5658TIP3    H138533   4.100   1.388   2.431  1.2521  0.2721  0.1279
 5658TIP3    H238534   4.178   1.340   2.311 -1.0298 -0.4415 -1.1291
 5659TIP3   OH238535   3.391   1.021   1.594  0.0416 -0.5224 -0.5961
 5659TIP3    H138536   3.482   1.039   1.621  0.2930 -1.2725 -0.9242
 5659TIP3    H238537   3.338   1.072   1.655  0.6996  0.4395 -0.8045
 5660TIP3   OH238538   6.145   0.464   2.307 -0.3700 -0.4513  0.1347
 5660TIP3    H138539   6.066   0.517   2.308  0.8559  1.5443 -1.1414
 5660TIP3    H238540   6.213   0.521   2.345  1.0867 -0.8634 -1.6922
 5661TIP3   OH238541   1.338   3.988   0.055  0.4753  0.1290  0.0604
 5661TIP3    H138542   1.388   3.988   0.136 -0.7666  0.9975  0.8636
 5661TIP3    H238543   1.247   4.004   0.082 -0.4848 -2.4586 -1.2274
 5662TIP3   OH238544   3.223   0.346   0.905  0.3631 -0.2175 -0.5197
 5662TIP3    H138545   3.161   0.273   0.901  0.5243 -0.4089  0.4032
 5662TIP3    H238546   3.298   0.315   0.854 -0.0379 -0.2266 -1.1230
 5663TIP3   OH238547   6.211   0.639   8.569  0.1661 -0.2614 -0.0440
 5663TIP3    H138548   6.285   0.658   8.512 -0.4360 -1.5046 -1.2958
 5663TIP3    H238549   6.231   0.686   8.651  1.5807  0.6464 -0.8687
 5664TIP3   OH238550   5.178   2.910   0.481 -0.2066 -0.0202  0.8044
 5664TIP3    H138551   5.248   2.976   0.477 -0.2308 -0.0216  0.2952
 5664TIP3    H238552   5.194   2.863   0.563 -0.0621  0.4771  1.0666
 5665TIP3   OH238553   6.803   5.523   7.786  0.1415 -0.2232 -0.9991
 5665TIP3    H138554   6.752   5.472   7.848  1.4699 -1.3093 -0.7567
 5665TIP3    H238555   6.837   5.459   7.723  0.3677  0.6060 -1.7541
 5666TIP3   OH238556   4.418   1.261   3.332 -0.4038  0.3328  0.4674
 5666TIP3    H138557   4.448   1.190   3.388 -0.8430  0.3213  0.6906
 5666TIP3    H238558   4.334   1.231   3.297 -0.7155  0.8325  0.7596
 5667TIP3   OH238559   0.325   2.047   0.146  0.0973  0.0176  0.0863
 5667TIP3    H138560   0.270   2.124   0.161 -1.4049 -0.8335 -0.7479
 5667TIP3    H238561   0.376   2.070   0.068 -0.5646  0.0833 -0.3440
 5668TIP3   OH238562   2.775   1.037   1.447  0.6590 -0.1000  0.1586
 5668TIP3    H138563   2.824   0.987   1.382  3.7747 -1.6819  3.3741
 5668TIP3    H238564   2.776   1.127   1.414 -1.7298 -1.3464 -3.9202
 5669TIP3   OH238565   3.674   3.791   0.026 -0.1561 -0.1337  0.0865
 5669TIP3    H138566   3.754   3.825   0.068 -0.5978  0.6293  0.3203
 5669TIP3    H238567   3.645   3.720   0.085  0.3057 -0.3697  0.0353
 5670TIP3   OH238568   6.844   3.735   8.691  0.7449 -0.0795  0.1895
 5670TIP3    H138569   6.935   3.723   8.717  1.2566 -1.5060 -2.0168
 5670TIP3    H238570   6.842   3.821   8.649  1.3955 -0.5620 -0.8693
 5671TIP3   OH238571   2.155   3.903   1.033 -0.0479 -0.1756 -0.1481
 5671TIP3    H138572   2.071   3.930   0.995 -0.6937  0.5263  1.6920
 5671TIP3    H238573   2.211   3.885   0.957 -1.0710  1.8081 -1.4569
 5672TIP3   OH238574   0.883   2.041   3.481 -0.1435  0.0087  0.0055
 5672TIP3    H138575   0.810   2.099   3.504  0.8546  1.3647 -0.0678
 5672TIP3    H238576   0.877   1.969   3.543 -1.0170  0.5557  0.5874
 5673TIP3   OH238577   2.404   0.286   3.674  0.2397  0.4508  0.5606
 5673TIP3    H138578   2.396   0.304   3.580 -0.8523  0.6049  0.6648
 5673TIP3    H238579   2.468   0.216   3.679 -0.0483  0.0974 -0.3470
 5674TIP3   OH238580   4.852   2.450   3.195  0.0975  0.9057  0.5769
 5674TIP3    H138581   4.807   2.509   3.255 -2.1309  0.1252 -0.2038
 5674TIP3    H238582   4.834   2.362   3.231 -2.6491  0.2841 -1.8803
 5675TIP3   OH238583   4.250   4.457   8.707  0.2136  0.4349 -0.5027
 5675TIP3    H138584   4.160   4.449   8.673  0.0093 -0.7781  0.2484
 5675TIP3    H238585   4.277   4.367   8.722  0.0407  0.8449  3.1536
 5676TIP3   OH238586   3.613   5.087   1.053  0.0686 -0.1618  0.4247
 5676TIP3    H138587   3.538   5.043   1.093 -1.9135  2.0006 -0.7100
 5676TIP3    H238588   3.638   5.153   1.117  1.0518 -0.8530  0.7832
 5677TIP3   OH238589   4.946   1.246   2.982 -0.1312 -0.0129  0.0095
 5677TIP3    H138590   4.946   1.158   3.021 -0.4615 -0.5285 -1.0865
 5677TIP3    H238591   4.916   1.231   2.892 -0.5340  1.2794 -0.0863
 5678TIP3   OH238592   6.388   3.532   0.158 -0.6650  0.0238  0.1587
 5678TIP3    H138593   6.377   3.627   0.150  2.4299  0.3495 -1.9473
 5678TIP3    H238594   6.468   3.522   0.209 -0.8851 -1.4523  0.2420
 5679TIP3   OH238595   3.434   6.665   2.460 -0.6184 -0.0273  0.2049
 5679TIP3    H138596   3.422   6.635   2.550  0.3559  0.7540  0.6034
 5679TIP3    H238597   3.514   6.622   2.431 -0.5215  0.3153 -0.0386
 5680TIP3   OH238598   3.905   3.867   8.283  0.2125  0.0636  0.1128
 5680TIP3    H138599   3.816   3.900   8.295  0.5905  0.4723  2.1857
 5680TIP3    H238600   3.954   3.942   8.248  0.1328  0.3961  0.7102
 5681TIP3   OH238601   5.573   0.322   2.830 -0.4712 -0.5487 -0.2770
 5681TIP3    H138602   5.534   0.234   2.830 -0.4002 -0.5820 -0.0171
 5681TIP3    H238603   5.641   0.318   2.762 -0.1956 -0.8196  0.0091
 5682TIP3   OH238604   4.554   2.306   8.661 -0.3433  0.0023 -0.5254
 5682TIP3    H138605   4.585   2.345   8.579  1.8075  0.2433  0.3468
 5682TIP3    H238606   4.459   2.321   8.660  0.0611  3.3003 -1.2620
 5683TIP3   OH238607   1.427   0.944   3.045 -0.3433 -1.4636 -0.1406
 5683TIP3    H138608   1.340   0.931   3.083  0.3708 -1.8650  1.4220
 5683TIP3    H238609   1.476   0.990   3.113  0.4381 -0.4459 -1.3351
 5684TIP3   OH238610   5.495   0.791   1.025 -0.0900  0.3462  0.4559
 5684TIP3    H138611   5.402   0.801   1.004 -0.1425  0.5798  0.7853
 5684TIP3    H238612   5.528   0.729   0.961 -0.4479  0.3572  0.2592
 5685TIP3   OH238613   6.534   4.615   3.266 -0.6168  0.1475  0.2316
 5685TIP3    H138614   6.448   4.594   3.303 -0.7953  0.2435 -0.1206
 5685TIP3    H238615   6.563   4.532   3.226  0.0808 -0.2675  1.5467
 5686TIP3   OH238616   2.064   2.719   0.688  0.4705  0.4700 -0.1463
 5686TIP3    H138617   2.133   2.675   0.640  1.4603  0.4041  1.2622
 5686TIP3    H238618   2.032   2.653   0.750  1.0776  1.2917  1.0962
 5687TIP3   OH238619   3.531   4.242   3.099 -0.1209 -0.6740 -0.5016
 5687TIP3    H138620   3.444   4.248   3.137 -0.1070 -0.5343 -0.4926
 5687TIP3    H238621   3.550   4.330   3.066  0.8397 -0.1503  1.2909
 5688TIP3   OH238622   4.868   2.100   1.749 -0.4253 -0.1101 -0.0995
 5688TIP3    H138623   4.915   2.095   1.666 -1.5926 -0.9941 -0.7372
 5688TIP3    H238624   4.842   2.010   1.768  2.5095 -0.5410  2.8905
 5689TIP3   OH238625   2.682   1.532   2.526  0.0216 -0.2769  0.4254
 5689TIP3    H138626   2.605   1.553   2.579 -0.6083 -2.5713  0.5293
 5689TIP3    H238627   2.752   1.518   2.590  0.6454  2.0420  0.3195
 5690TIP3   OH238628   5.412   1.935   2.135  0.5218 -0.8435  0.2236
 5690TIP3    H138629   5.441   1.917   2.224  1.6358  1.0672  0.3164
 5690TIP3    H238630   5.324   1.898   2.130  1.2149 -2.7886  1.4401
 5691TIP3   OH238631   1.024   6.516   3.119  0.4793  0.0848  0.0662
 5691TIP3    H138632   0.949   6.464   3.091 -0.0889 -1.2598  3.6189
 5691TIP3    H238633   0.988   6.603   3.139  0.0772 -0.2068  0.6324
 5692TIP3   OH238634   4.336   0.195   2.564  0.5072 -0.0044 -0.4148
 5692TIP3    H138635   4.245   0.203   2.593  1.3807  1.6471  2.3135
 5692TIP3    H238636   4.331   0.195   2.469 -2.2899  1.2216 -0.3853
 5693TIP3   OH238637   0.405   0.662   8.527  0.1245  0.1124 -0.3792
 5693TIP3    H138638   0.389   0.667   8.433  2.1681  0.2167 -0.7803
 5693TIP3    H238639   0.349   0.592   8.558  0.3650 -0.8058 -1.9205
 5694TIP3   OH238640   6.716   0.317   0.652  0.1126  0.0957 -0.0178
 5694TIP3    H138641   6.662   0.239   0.635 -0.1330 -0.0190  1.1699
 5694TIP3    H238642   6.660   0.373   0.707  0.0725  1.3876 -1.3092
 5695TIP3   OH238643   0.075   6.208   3.295  0.6200  0.4418  0.2788
 5695TIP3    H138644   0.107   6.152   3.224 -2.2785 -0.5183 -0.4010
 5695TIP3    H238645   0.097   6.297   3.266 -0.5943  0.0989 -1.9957
 5696TIP3   OH238646   1.512   6.675   3.445  0.0124 -0.7436  0.1591
 5696TIP3    H138647   1.471   6.642   3.525  0.9099  0.6580  1.2616
 5696TIP3    H238648   1.576   6.739   3.476  2.0546 -1.8260 -1.5411
 5697TIP3   OH238649   3.716   2.703   2.035 -0.2391 -0.2921 -0.0568
 5697TIP3    H138650   3.788   2.640   2.037  0.9569  0.7492 -3.2658
 5697TIP3    H238651   3.668   2.683   1.954 -0.7894  1.8396 -0.3318
 5698TIP3   OH238652   5.172   4.757   0.005 -0.0949  0.9161  0.1466
 5698TIP3    H138653   5.146   4.839   0.048 -2.5117 -0.7158  2.0822
 5698TIP3    H238654   5.112   4.748  -0.068 -2.0545 -0.5426  1.8102
 5699TIP3   OH238655   5.892   5.573   8.142 -0.0583 -0.2042 -0.4945
 5699TIP3    H138656   5.852   5.649   8.098  1.3861  0.4141 -0.7810
 5699TIP3    H238657   5.972   5.607   8.180 -1.2747 -0.6845  2.8162
 5700TIP3   OH238658   0.447   6.438   1.724 -0.3936 -0.1759 -0.6037
 5700TIP3    H138659   0.528   6.427   1.675  0.0467  1.4292 -0.2755
 5700TIP3    H238660   0.475   6.453   1.814 -1.1472 -1.5539 -0.0939
 5701TIP3   OH238661   2.509   4.932   3.163  0.3996  0.2736  0.5635
 5701TIP3    H138662   2.512   4.838   3.143  0.2263 -0.5045  3.6590
 5701TIP3    H238663   2.600   4.956   3.177  0.3761  0.4113  0.4822
 5702TIP3   OH238664   3.520   0.988   0.713  0.2484 -0.0980  0.2989
 5702TIP3    H138665   3.463   1.061   0.738  0.4718 -0.4030  1.8248
 5702TIP3    H238666   3.558   1.015   0.630  0.5502  1.6701  0.9604
 5703TIP3   OH238667   0.217   3.456   0.325 -0.2667  0.1006  0.0133
 5703TIP3    H138668   0.308   3.437   0.347 -0.4184 -1.5533 -0.6549
 5703TIP3    H238669   0.191   3.524   0.386  1.3950  0.5591  0.2620
 5704TIP3   OH238670   3.039   2.395   0.337  0.2397 -0.3825  0.7382
 5704TIP3    H138671   3.052   2.386   0.242 -0.3898  0.3203  0.5743
 5704TIP3    H238672   3.124   2.425   0.370  0.1847  0.3547  0.2458
 5705TIP3   OH238673   3.303   6.065   2.374 -0.2701 -0.1260  0.4825
 5705TIP3    H138674   3.243   6.015   2.318 -0.5769 -0.0207  0.7114
 5705TIP3    H238675   3.264   6.058   2.462  1.7649 -2.8589  1.3128
 5706TIP3   OH238676   3.552   5.664   1.116 -0.1655 -0.1694  0.7478
 5706TIP3    H138677   3.502   5.705   1.045  3.1261  1.2270 -0.9976
 5706TIP3    H238678   3.604   5.596   1.073 -0.8199 -1.8890  2.5392
 5707TIP3   OH238679   6.113   0.054   7.982  0.1070  0.1138 -0.2286
 5707TIP3    H138680   6.130   0.097   7.898  0.6075  0.8660  0.2394
 5707TIP3    H238681   6.045   0.107   8.022  1.2509  0.9456  0.6757
 5708TIP3   OH238682   6.254   3.912   3.008  0.2771  0.1967 -0.2063
 5708TIP3    H138683   6.328   3.963   2.976  1.1316 -0.2164  1.0048
 5708TIP3    H238684   6.245   3.840   2.946 -0.9281  1.7477 -1.9224
 5709TIP3   OH238685   4.861   4.243   1.822  0.0742 -0.0087  0.3523
 5709TIP3    H138686   4.937   4.300   1.832  0.6278 -0.7960  0.7506
 5709TIP3    H238687   4.797   4.277   1.884  0.9010 -0.6095  1.5876
 5710TIP3   OH238688   6.471   1.108   3.630  0.5271 -0.2206 -0.5404
 5710TIP3    H138689   6.532   1.041   3.660  0.4096 -0.5803 -1.0947
 5710TIP3    H238690   6.408   1.061   3.576  0.7286  0.4017 -1.3522
 5711TIP3   OH238691   5.436   2.287   2.671 -0.2168  0.0657  0.2513
 5711TIP3    H138692   5.363   2.298   2.609  0.2202 -0.7095 -0.4327
 5711TIP3    H238693   5.409   2.334   2.749 -1.4125 -0.1284 -0.0270
 5712TIP3   OH238694   2.663   3.879   3.614  0.5804  0.2802  0.5510
 5712TIP3    H138695   2.725   3.929   3.561  0.5676 -0.1192  0.1572
 5712TIP3    H238696   2.584   3.934   3.615  0.6426  0.3764  0.3128
 5713TIP3   OH238697   3.694   3.297   1.521  0.2362  0.1781  0.3264
 5713TIP3    H138698   3.759   3.333   1.581  0.0668  1.0029  0.0212
 5713TIP3    H238699   3.635   3.247   1.577  0.5580  0.2446  0.7303
 5714TIP3   OH238700   0.903   5.076   8.289 -0.0709  0.6029  0.4124
 5714TIP3    H138701   0.918   5.159   8.334  0.9392  0.4891  0.3155
 5714TIP3    H238702   0.824   5.040   8.330  0.1918  1.0236  1.3135
 5715TIP3   OH238703   1.466   4.593   0.469 -0.0093  0.0109  0.1363
 5715TIP3    H138704   1.453   4.687   0.483 -0.8480 -0.2489  1.2201
 5715TIP3    H238705   1.524   4.588   0.393 -0.0418  1.4007 -0.0040
 5716TIP3   OH238706   0.936   1.554   0.617  0.2279 -0.5104 -0.0442
 5716TIP3    H138707   0.973   1.628   0.666  0.4666  0.7895 -2.0647
 5716TIP3    H238708   0.848   1.582   0.593  0.3739 -0.7814 -0.9592
 5717TIP3   OH238709   2.382   2.751   8.298  0.4037 -0.7174  0.0784
 5717TIP3    H138710   2.327   2.760   8.220  0.7299  1.6548  0.0587
 5717TIP3    H238711   2.321   2.732   8.369 -0.3977  1.1310 -0.0758
 5718TIP3   OH238712   0.614   0.921   3.023 -0.7015 -0.8136  0.4296
 5718TIP3    H138713   0.647   0.865   3.092  0.5893 -0.9139 -0.2377
 5718TIP3    H238714   0.541   0.969   3.063  0.1520 -0.7142  1.9087
 5719TIP3   OH238715   3.491   0.466   8.430  0.1969 -0.7892  0.1279
 5719TIP3    H138716   3.517   0.548   8.473  0.2400 -0.1569 -1.0312
 5719TIP3    H238717   3.433   0.423   8.492  1.6614 -0.8009  1.5519
 5720TIP3   OH238718   3.550   2.969   1.898  0.1723  0.3275  0.4188
 5720TIP3    H138719   3.512   3.045   1.943 -1.1536  0.2294 -0.4768
 5720TIP3    H238720   3.492   2.897   1.921 -1.2397  0.4882 -2.2824
 5721TIP3   OH238721   0.950   2.215   0.011 -0.2543  0.2700 -0.5110
 5721TIP3    H138722   0.988   2.179   0.092  0.2803  0.2594 -0.7614
 5721TIP3    H238723   1.024   2.255  -0.034 -0.5518  0.2848 -0.9945
 5722TIP3   OH238724   4.485   4.591   0.126  0.1663 -0.1005  0.0603
 5722TIP3    H138725   4.473   4.508   0.081 -0.6572  0.3244 -0.5433
 5722TIP3    H238726   4.566   4.627   0.089  0.4329 -0.5529  0.2043
 5723TIP3   OH238727   1.995   5.413   2.589  0.1369  0.2926 -0.0683
 5723TIP3    H138728   2.079   5.386   2.625 -0.2841  1.3270  1.8736
 5723TIP3    H238729   1.937   5.416   2.665 -1.3194  0.8228 -1.1586
 5724TIP3   OH238730   4.479   1.708   0.379 -0.2738  0.3777  0.2440
 5724TIP3    H138731   4.396   1.717   0.332  0.7067  0.7074 -1.4893
 5724TIP3    H238732   4.454   1.715   0.472 -2.3363 -0.8658 -0.1434
 5725TIP3   OH238733   4.251   4.764   3.238  0.0413  0.6404 -0.1641
 5725TIP3    H138734   4.320   4.730   3.295 -2.1939 -1.1489  1.6208
 5725TIP3    H238735   4.211   4.835   3.288 -0.5118  0.5366 -0.4552
 5726TIP3   OH238736   1.451   2.200   0.963  0.0370  0.0421 -0.0878
 5726TIP3    H138737   1.404   2.270   1.009  1.4086  0.8373  0.1716
 5726TIP3    H238738   1.534   2.192   1.010 -0.1148 -1.8418 -0.0662
 5727TIP3   OH238739   2.638   3.473   8.087  0.2638 -0.3175  0.6987
 5727TIP3    H138740   2.716   3.510   8.129  1.2935 -1.3641 -0.1934
 5727TIP3    H238741   2.650   3.491   7.994 -0.7035 -0.2681  0.5736
 5728TIP3   OH238742   6.045   2.090   0.230  0.6856 -0.4775  0.5053
 5728TIP3    H138743   6.072   2.120   0.143  1.4932 -2.6626 -0.0487
 5728TIP3    H238744   5.958   2.128   0.243  1.5997  2.0276 -0.1026
 5729TIP3   OH238745   6.593   2.191   3.772 -0.4906  0.3105 -1.0566
 5729TIP3    H138746   6.671   2.245   3.788 -0.6401  1.0029 -2.5001
 5729TIP3    H238747   6.543   2.196   3.854  0.5195  0.6447 -0.4514
 5730TIP3   OH238748   5.159   1.124   3.186  0.6424 -0.1649 -0.0361
 5730TIP3    H138749   5.145   1.109   3.092  3.1131  1.8493 -0.8246
 5730TIP3    H238750   5.071   1.122   3.223 -0.5623  0.2970 -2.6222
 5731TIP3   OH238751   1.526   1.253   3.463  0.4224 -0.7983 -0.1286
 5731TIP3    H138752   1.573   1.276   3.384 -0.4974 -0.4899 -0.5988
 5731TIP3    H238753   1.494   1.336   3.498  0.8026 -0.9290  0.5689
 5732TIP3   OH238754   4.199   4.825   2.591 -0.6094  0.1204 -0.9188
 5732TIP3    H138755   4.289   4.804   2.566 -1.0703 -1.0175 -1.6926
 5732TIP3    H238756   4.208   4.884   2.666  0.7906 -1.5889  0.3463
 5733TIP3   OH238757   1.036   2.195   8.382  0.0319 -0.2113 -0.4489
 5733TIP3    H138758   1.069   2.284   8.369 -1.2359  0.4948  0.8986
 5733TIP3    H238759   0.977   2.181   8.307 -1.6658  1.0632  0.5819
 5734TIP3   OH238760   0.546   2.727   1.163 -0.3013  0.1355  0.2002
 5734TIP3    H138761   0.565   2.745   1.255 -0.5440 -1.0102  0.4844
 5734TIP3    H238762   0.545   2.813   1.122  1.3425  0.5587  0.9671
 5735TIP3   OH238763   1.398   4.997   8.313 -0.0532  0.0465 -0.4332
 5735TIP3    H138764   1.308   5.030   8.313 -0.2380 -0.3888  0.8334
 5735TIP3    H238765   1.418   4.981   8.221 -1.4967 -0.4200 -0.6903
 5736TIP3   OH238766   5.631   0.023   2.771  0.1580  0.4109  0.0536
 5736TIP3    H138767   5.714  -0.023   2.774 -0.4810 -0.8803 -0.9347
 5736TIP3    H238768   5.569  -0.034   2.816 -1.3406 -1.3887 -3.8190
 5737TIP3   OH238769   0.787   0.773   0.926  0.2491 -0.5391 -0.2700
 5737TIP3    H138770   0.714   0.712   0.918 -0.2277  0.0057 -0.1801
 5737TIP3    H238771   0.751   0.848   0.974  1.0482 -0.5428  0.3491
 5738TIP3   OH238772   2.308   1.648   0.953  0.5821 -0.2905  0.4571
 5738TIP3    H138773   2.256   1.688   1.023 -0.0381  0.2930 -0.3123
 5738TIP3    H238774   2.397   1.679   0.967  0.7152 -1.1675  1.6971
 5739TIP3   OH238775   5.415   1.212   3.186  0.3812  0.2363 -0.4199
 5739TIP3    H138776   5.326   1.181   3.167 -0.4692  1.9148  0.6874
 5739TIP3    H238777   5.418   1.301   3.150  0.9041  0.9807  1.3845
 5740TIP3   OH238778   5.851   6.717   0.039  0.1365  0.2244  0.8761
 5740TIP3    H138779   5.835   6.698  -0.053  0.6226 -0.1942  0.8729
 5740TIP3    H238780   5.772   6.687   0.084  0.2126 -0.2816  0.6787
 5741TIP3   OH238781   5.613   1.625   3.254  0.0027 -0.1748  0.0573
 5741TIP3    H138782   5.579   1.593   3.171 -0.9502  1.8626 -0.3702
 5741TIP3    H238783   5.536   1.651   3.304  0.5649 -1.2091  1.5544
 5742TIP3   OH238784   6.029   1.862   8.037 -0.1195  0.0251 -0.1688
 5742TIP3    H138785   6.030   1.931   8.103  0.3042  1.0077 -1.1638
 5742TIP3    H238786   5.939   1.828   8.039  0.4370 -1.4614  2.3735
 5743TIP3   OH238787   0.426   6.689   8.326  0.1674 -0.4587 -0.2871
 5743TIP3    H138788   0.369   6.660   8.255 -0.2571 -1.4868  0.4475
 5743TIP3    H238789   0.369   6.693   8.403  0.1595  2.5015 -0.3124
 5744TIP3   OH238790   4.970   4.088   7.763  0.4982 -0.5335 -0.6979
 5744TIP3    H138791   4.960   4.001   7.725  1.3721 -0.3956 -1.2916
 5744TIP3    H238792   4.955   4.148   7.689  1.0512 -0.2238 -0.5675
 5745TIP3   OH238793   6.237   0.283   0.084  0.2166 -0.4310 -0.0910
 5745TIP3    H138794   6.303   0.222   0.118 -0.4162 -1.5482 -0.7826
 5745TIP3    H238795   6.162   0.272   0.143  0.7993  1.2239  1.0102
 5746TIP3   OH238796   2.391   0.297   2.562  0.4991  0.3915 -0.2222
 5746TIP3    H138797   2.410   0.236   2.633  3.3421  0.2712 -0.9923
 5746TIP3    H238798   2.400   0.383   2.603 -2.0928  0.3979  0.5100
 5747TIP3   OH238799   4.396   3.205   1.817 -0.2203 -0.6144 -1.2205
 5747TIP3    H138800   4.347   3.244   1.744 -0.5955 -2.4284 -1.9916
 5747TIP3    H238801   4.342   3.131   1.845  0.2697 -0.3624  0.4474
 5748TIP3   OH238802   3.743   4.913   0.242 -0.1412 -0.0364  0.2407
 5748TIP3    H138803   3.772   4.990   0.292 -1.1194 -0.3857  1.3637
 5748TIP3    H238804   3.814   4.899   0.179 -0.3965  2.4189 -0.7146
 5749TIP3   OH238805   5.406   3.925   8.597  0.4539 -0.1057 -0.1160
 5749TIP3    H138806   5.497   3.921   8.627  0.3206  0.3834  0.3677
 5749TIP3    H238807   5.410   3.975   8.515  0.3390  2.1645  1.1736
 5750TIP3   OH238808   6.513   0.026   3.314  0.6623 -0.3610  0.1208
 5750TIP3    H138809   6.428   0.027   3.358  0.8372  4.5425  0.8840
 5750TIP3    H238810   6.575  -0.006   3.380  0.0580  1.1329  1.4768
 5751TIP3   OH238811   1.489   2.724   3.568 -0.2330 -0.2759 -0.1061
 5751TIP3    H138812   1.508   2.653   3.630 -0.8588 -0.4809 -0.1379
 5751TIP3    H238813   1.398   2.747   3.585 -0.0689  0.4520 -0.1752
 5752TIP3   OH238814   1.835   1.287   2.902 -0.2174 -0.3940 -0.0062
 5752TIP3    H138815   1.873   1.226   2.966 -1.3536 -1.3083 -0.1486
 5752TIP3    H238816   1.740   1.275   2.912 -0.4802  1.3512 -0.0723
 5753TIP3   OH238817   6.007   4.843   0.237  0.6669 -0.4521 -0.5058
 5753TIP3    H138818   5.991   4.930   0.200 -0.2574 -0.6803 -0.6713
 5753TIP3    H238819   5.965   4.845   0.323  1.9465 -0.2510  0.1263
 5754TIP3   OH238820   0.079   5.560   1.556 -0.2404 -0.2735 -0.1414
 5754TIP3    H138821   0.133   5.512   1.618 -0.3508 -0.6290 -0.3217
 5754TIP3    H238822   0.142   5.602   1.497 -0.1637 -1.0196 -0.6017
 5755TIP3   OH238823   0.576   5.546   0.661 -0.0718  0.0052 -0.0409
 5755TIP3    H138824   0.514   5.478   0.638  0.9994 -1.4767  1.2686
 5755TIP3    H238825   0.523   5.626   0.667 -1.7245 -1.0718  0.3837
 5756TIP3   OH238826   6.035   1.207   1.796 -0.5396  0.2235  0.9282
 5756TIP3    H138827   6.084   1.156   1.860  0.7026 -0.5620 -0.5640
 5756TIP3    H238828   5.970   1.145   1.762 -0.2396  0.1767  0.4250
 5757TIP3   OH238829   2.957   0.138   0.047  0.3569  0.2230  0.1199
 5757TIP3    H138830   3.027   0.156  -0.015 -0.1352 -0.2507 -0.5862
 5757TIP3    H238831   2.972   0.048   0.076  1.2254  0.7922  1.5539
 5758TIP3   OH238832   6.346   2.996   2.280  0.4065  0.5036 -0.4139
 5758TIP3    H138833   6.435   2.962   2.266  0.5647  0.3524  0.8524
 5758TIP3    H238834   6.294   2.918   2.297  0.2780  0.6914  0.0639
 5759TIP3   OH238835   4.635   5.053   0.351 -0.1132  0.4581 -0.8170
 5759TIP3    H138836   4.614   5.017   0.437 -0.0044 -1.1496 -1.4366
 5759TIP3    H238837   4.609   5.145   0.357 -2.2945 -0.1415  0.1971
 5760TIP3   OH238838   1.004   4.165   3.559  0.3845  0.4308  0.2218
 5760TIP3    H138839   0.964   4.252   3.562  0.3608  0.4381 -0.2157
 5760TIP3    H238840   0.957   4.120   3.489 -1.5460 -0.9049  2.2473
 5761TIP3   OH238841   6.398   5.476   0.345 -0.7220  1.2595 -0.1252
 5761TIP3    H138842   6.380   5.537   0.273  1.3850  0.1165 -1.7391
 5761TIP3    H238843   6.434   5.531   0.414 -0.4798  2.0643 -0.8717
 5762TIP3   OH238844   2.034   0.291   8.360 -0.6148 -0.1216 -0.4430
 5762TIP3    H138845   1.949   0.247   8.355 -0.7104 -0.0521  0.4281
 5762TIP3    H238846   2.089   0.244   8.297 -1.2255 -0.3199 -0.8416
 5763TIP3   OH238847   5.191   2.670   3.055  0.4149 -0.0115  0.0927
 5763TIP3    H138848   5.232   2.752   3.030 -0.1213  0.5732  1.0414
 5763TIP3    H238849   5.228   2.650   3.141 -0.3724 -0.1024  0.4216
 5764TIP3   OH238850   4.034   5.079   1.787  0.1121 -0.1668 -0.1344
 5764TIP3    H138851   3.940   5.095   1.781  0.3340  0.6604 -1.9336
 5764TIP3    H238852   4.074   5.166   1.785  0.9608 -0.5496 -0.4443
 5765TIP3   OH238853   5.612   2.360   2.161  0.0485  0.0206  0.8561
 5765TIP3    H138854   5.648   2.295   2.221  0.0751  0.4389  1.3013
 5765TIP3    H238855   5.522   2.373   2.190 -0.8043 -1.7160 -0.8380
 5766TIP3   OH238856   6.449   4.060   2.883  0.3154 -0.1379  0.5105
 5766TIP3    H138857   6.405   4.051   2.799  4.0587  0.7624 -1.7963
 5766TIP3    H238858   6.436   4.151   2.908 -1.5952 -0.6322  1.5238
 5767TIP3   OH238859   3.037   6.371   1.914  0.3836 -0.0112  0.4375
 5767TIP3    H138860   3.036   6.391   1.821 -0.3088 -0.1341  0.4119
 5767TIP3    H238861   3.085   6.443   1.954 -3.2213  2.5809  0.5326
 5768TIP3   OH238862   5.822   2.518   0.146  0.3603  0.1198  0.1105
 5768TIP3    H138863   5.821   2.506   0.051  2.3280 -1.2971  0.2113
 5768TIP3    H238864   5.900   2.572   0.162  0.5228 -0.3658  0.9842
 5769TIP3   OH238865   1.807   4.981   2.065  0.0198 -0.3886 -0.2079
 5769TIP3    H138866   1.717   4.956   2.044 -1.4459  1.4962  2.9536
 5769TIP3    H238867   1.842   4.907   2.113 -0.4964 -0.4442  0.0904
 5770TIP3   OH238868   4.933   1.339   2.283  0.4368  0.2466 -0.3823
 5770TIP3    H138869   4.974   1.376   2.360  0.3378  0.1479 -0.2817
 5770TIP3    H238870   4.904   1.252   2.310  1.8297 -0.4306 -0.9768
 5771TIP3   OH238871   4.743   5.122   8.511  0.1398 -0.4508 -0.0359
 5771TIP3    H138872   4.751   5.078   8.595 -0.2193  0.0096  0.2380
 5771TIP3    H238873   4.745   5.215   8.531 -1.0514 -0.3195 -0.4071
 5772TIP3   OH238874   5.298   2.062   0.591 -0.6910 -0.2513 -0.3153
 5772TIP3    H138875   5.300   2.119   0.667 -1.0601 -0.1149 -0.4047
 5772TIP3    H238876   5.269   2.118   0.519 -0.2883 -0.3649 -0.5696
 5773TIP3   OH238877   6.079   2.546   0.511 -0.0199 -0.1362  0.1325
 5773TIP3    H138878   6.150   2.538   0.447  2.3365  0.3056  2.5038
 5773TIP3    H238879   6.072   2.641   0.525 -1.5972 -0.1255 -0.5200
 5774TIP3   OH238880   0.872   1.209   7.919  0.3969 -0.1747 -0.0151
 5774TIP3    H138881   0.961   1.175   7.918  0.4972  0.0979 -0.3813
 5774TIP3    H238882   0.866   1.257   8.002  1.0764  1.0843 -0.6789
 5775TIP3   OH238883   0.269   6.565   1.269 -0.3547 -0.1491 -0.3117
 5775TIP3    H138884   0.278   6.538   1.360  0.4614  0.3357 -0.2379
 5775TIP3    H238885   0.359   6.582   1.240 -0.7206  1.4896 -0.6281
 5776TIP3   OH238886   0.205   4.686   0.083 -0.2564  0.1993  0.1339
 5776TIP3    H138887   0.120   4.644   0.100  0.3725 -1.1296  0.1159
 5776TIP3    H238888   0.194   4.730  -0.001  0.0390 -2.8310 -1.6384
 5777TIP3   OH238889   5.810   1.078   2.945  0.1837  0.3523 -0.2456
 5777TIP3    H138890   5.884   1.138   2.947  0.5257 -0.0636  2.0252
 5777TIP3    H238891   5.849   0.992   2.933 -0.0759  0.2736 -0.5550
 5778TIP3   OH238892   0.721   5.460   0.394 -0.4003  0.1457  0.3967
 5778TIP3    H138893   0.660   5.417   0.454 -1.2784  0.3396 -0.3387
 5778TIP3    H238894   0.803   5.411   0.404 -1.0960 -1.0630  0.3031
 5779TIP3   OH238895   5.906   5.450   1.277 -0.0155  0.1114  0.3461
 5779TIP3    H138896   5.897   5.505   1.356  1.5920  1.6691 -0.4755
 5779TIP3    H238897   5.844   5.488   1.215 -0.5597 -0.4886  0.5094
 5780TIP3   OH238898   0.798   0.199   1.665 -0.4584  0.6630 -0.2045
 5780TIP3    H138899   0.785   0.293   1.660  0.9564  0.8388 -1.6886
 5780TIP3    H238900   0.851   0.186   1.744  0.2009  1.2446 -0.5391
 5781TIP3   OH238901   1.635   0.577   0.990 -0.0394  0.2768  0.0507
 5781TIP3    H138902   1.574   0.623   1.048 -1.2438 -0.6891 -0.4206
 5781TIP3    H238903   1.616   0.612   0.903 -1.1295 -1.2184 -0.3519
 5782TIP3   OH238904   6.080   6.781   2.436 -0.5011  0.3657 -0.8887
 5782TIP3    H138905   6.082   6.708   2.374  0.5644  1.5964 -2.3967
 5782TIP3    H238906   6.109   6.856   2.384 -0.4832  1.6346  0.8934
 5783TIP3   OH238907   6.052   2.446   8.287  0.1161 -0.1808  0.3723
 5783TIP3    H138908   6.098   2.491   8.215 -1.4245 -0.6602 -0.9639
 5783TIP3    H238909   5.972   2.413   8.247 -0.5115 -0.9773  2.2058
 5784TIP3   OH238910   3.102   3.638   1.007  0.1286 -0.2669  0.4623
 5784TIP3    H138911   3.154   3.562   1.034  0.3480 -0.0172  0.7471
 5784TIP3    H238912   3.161   3.712   1.018 -1.0214  0.3501  3.1458
 5785TIP3   OH238913   1.474   5.461   0.350  0.0293 -0.5698  0.0423
 5785TIP3    H138914   1.524   5.430   0.425 -0.3548 -0.5851  0.2965
 5785TIP3    H238915   1.386   5.477   0.385 -0.6984 -2.3941 -0.8025
 5786TIP3   OH238916   3.705   4.778   8.697  0.7387  0.0392 -0.2106
 5786TIP3    H138917   3.666   4.758   8.611  0.0463 -0.2451  0.1585
 5786TIP3    H238918   3.771   4.844   8.678  1.6316 -1.0658 -1.1767
 5787TIP3   OH238919   2.975   2.944   2.741 -0.7442 -0.5282 -0.2045
 5787TIP3    H138920   3.058   2.957   2.695  0.0641  1.5942  1.6632
 5787TIP3    H238921   2.942   2.860   2.708  1.4335 -0.7613 -2.0312
 5788TIP3   OH238922   1.965   5.285   2.032  0.2358 -0.3754  0.3434
 5788TIP3    H138923   1.883   5.240   2.009 -0.6266  1.2780 -0.0032
 5788TIP3    H238924   1.960   5.298   2.126 -0.3317  0.4453  0.2191
 5789TIP3   OH238925   2.937   1.471   0.248 -0.2133 -0.1058 -0.3998
 5789TIP3    H138926   2.866   1.491   0.308  0.3014  1.3996 -0.2558
 5789TIP3    H238927   2.948   1.376   0.255 -1.3585 -0.1929  0.5079
 5790TIP3   OH238928   2.255   2.752   0.098 -0.0659  0.1939  0.6406
 5790TIP3    H138929   2.274   2.750   0.191 -0.1306 -1.9365  0.6713
 5790TIP3    H238930   2.334   2.715   0.057 -0.3206  0.4260 -0.0755
 5791TIP3   OH238931   3.847   5.866   0.969 -0.1559  0.2960 -0.6747
 5791TIP3    H138932   3.820   5.774   0.958 -2.5236  0.8822 -0.2493
 5791TIP3    H238933   3.774   5.907   1.015  1.2043  2.2443 -0.1334
 5792TIP3   OH238934   5.849   0.961   3.566 -0.7255 -0.4336 -0.3996
 5792TIP3    H138935   5.928   1.015   3.563 -2.0503  1.5610 -1.2947
 5792TIP3    H238936   5.826   0.957   3.659  0.4354 -1.1169 -0.1211
 5793TIP3   OH238937   5.852   4.862   1.436  0.2535  0.4962 -0.5217
 5793TIP3    H138938   5.850   4.788   1.375 -1.5203  0.1812 -0.1347
 5793TIP3    H238939   5.888   4.935   1.385 -1.2653  0.2651 -1.9753
 5794TIP3   OH238940   6.215   5.211   0.908  0.3219 -0.9011  0.5091
 5794TIP3    H138941   6.299   5.215   0.862  0.6653 -0.4768  1.1408
 5794TIP3    H238942   6.239   5.223   1.000 -0.5568  0.5186  0.5679
 5795TIP3   OH238943   1.954   2.885   8.153  0.6480  0.2283 -0.5756
 5795TIP3    H138944   1.941   2.937   8.074  0.5714  0.0294 -0.6960
 5795TIP3    H238945   2.022   2.822   8.130 -0.1954 -0.5953 -0.8674
 5796TIP3   OH238946   6.500   6.283   2.371 -0.5135 -0.1774  0.1671
 5796TIP3    H138947   6.575   6.251   2.321 -0.7912 -0.1770 -0.2547
 5796TIP3    H238948   6.431   6.296   2.306 -0.1101  2.3289  0.1464
 5797TIP3   OH238949   4.925   6.658   1.897  0.3901 -0.7939 -0.2036
 5797TIP3    H138950   4.870   6.734   1.879 -0.0963 -1.0515  0.2025
 5797TIP3    H238951   4.988   6.689   1.962 -0.2389 -0.9308  0.4713
 5798TIP3   OH238952   6.538   4.117   0.314 -0.7046  0.3271  0.7011
 5798TIP3    H138953   6.626   4.091   0.342 -0.0929  0.3520 -1.0846
 5798TIP3    H238954   6.525   4.203   0.354  0.6605  0.9427 -0.0964
 5799TIP3   OH238955   1.808   4.760   8.294 -0.2968 -0.3612 -0.0647
 5799TIP3    H138956   1.809   4.820   8.219  2.5098 -1.1000 -0.7109
 5799TIP3    H238957   1.743   4.694   8.271 -1.4028  0.8551 -0.5921
 5800TIP3   OH238958   1.243   0.084   8.243 -0.2091  0.2435 -0.0200
 5800TIP3    H138959   1.267   0.056   8.155 -3.0294 -1.4927 -0.3603
 5800TIP3    H238960   1.319   0.061   8.297  0.4803 -1.3096 -1.5508
 5801TIP3   OH238961   5.067   4.245   0.683 -0.1544  0.3638  0.3373
 5801TIP3    H138962   5.054   4.151   0.674 -1.7101 -0.1643  5.3136
 5801TIP3    H238963   5.156   4.261   0.651 -0.1190 -2.5702 -1.3320
 5802TIP3   OH238964   3.123   3.075   0.746  0.6382  0.2063  0.1703
 5802TIP3    H138965   3.177   3.002   0.717  1.3248  1.2312 -1.2671
 5802TIP3    H238966   3.034   3.039   0.753  0.7952 -0.5839 -1.3983
 5803TIP3   OH238967   2.743   0.874   0.784  0.1811  0.2730 -0.3215
 5803TIP3    H138968   2.797   0.899   0.858  1.0197  0.2811 -0.9281
 5803TIP3    H238969   2.790   0.801   0.743 -0.0069  0.6046 -1.1430
 5804TIP3   OH238970   6.830   5.003   8.724  0.2695  0.3989  0.5166
 5804TIP3    H138971   6.857   5.086   8.685 -0.0226 -0.3495 -1.4235
 5804TIP3    H238972   6.734   5.007   8.724  0.0877 -0.9796 -2.3175
 5805TIP3   OH238973   2.643   5.646   1.415  0.3840 -0.2580 -0.7072
 5805TIP3    H138974   2.605   5.694   1.341 -0.4568 -0.1381 -0.2106
 5805TIP3    H238975   2.596   5.563   1.417 -3.2623  1.5344  2.6023
 5806TIP3   OH238976   2.880   5.206   8.729 -0.6252  0.2441  0.5355
 5806TIP3    H138977   2.927   5.162   8.658 -1.7954  0.6870 -0.5455
 5806TIP3    H238978   2.788   5.200   8.704 -0.9196  2.0203  1.1011
 5807TIP3   OH238979   0.461   5.650   8.640  0.4641  0.0235 -0.0043
 5807TIP3    H138980   0.499   5.619   8.722  1.2326  1.7166  0.3144
 5807TIP3    H238981   0.474   5.745   8.641 -2.1421  0.4806 -0.7386
 5808TIP3   OH238982   1.134   5.539   0.814 -0.0064  0.4594 -0.0928
 5808TIP3    H138983   1.059   5.536   0.755 -0.8954  2.6031  0.8230
 5808TIP3    H238984   1.104   5.589   0.889  2.3661  1.5136  0.2541
 5809TIP3   OH238985   3.437   4.237   7.899  0.1596  0.4338 -0.0730
 5809TIP3    H138986   3.350   4.275   7.886  0.3971  1.7902  1.9178
 5809TIP3    H238987   3.458   4.256   7.990  0.9054 -3.3794  0.7174
 5810TIP3   OH238988   1.052   3.058   1.424 -0.0272 -0.4511 -0.0150
 5810TIP3    H138989   0.986   3.126   1.439  1.3224  0.8679  0.1428
 5810TIP3    H238990   1.043   3.036   1.332 -0.8575 -0.4877  0.0619
 5811TIP3   OH238991   1.028   4.887   8.112 -0.2255  0.2387 -0.6065
 5811TIP3    H138992   0.997   4.950   8.177  2.7710  1.4687 -0.1843
 5811TIP3    H238993   1.020   4.933   8.029  1.4191  1.0340 -0.3634
 5812TIP3   OH238994   0.399   2.541   2.874  0.1964  0.0597 -0.5125
 5812TIP3    H138995   0.458   2.616   2.882 -1.1322  1.1032 -0.1684
 5812TIP3    H238996   0.457   2.465   2.877  1.6087  1.0566 -1.0876
 5813TIP3   OH238997   3.709   5.884   2.659  0.2738 -0.0212 -0.4554
 5813TIP3    H138998   3.691   5.814   2.723  0.8963 -0.5085 -0.7978
 5813TIP3    H238999   3.692   5.843   2.574  2.9881 -0.6020 -0.8430
 5814TIP3   OH239000   3.657   3.170   0.879 -0.1896 -0.0415  0.1556
 5814TIP3    H139001   3.592   3.106   0.850  0.5432 -0.4062 -0.7150
 5814TIP3    H239002   3.678   3.221   0.801 -0.4845  1.0311  0.7537
 5815TIP3   OH239003   0.964   5.318   8.408  0.5134 -0.1052 -0.1624
 5815TIP3    H139004   0.957   5.397   8.463  1.7410  0.4822 -0.8098
 5815TIP3    H239005   0.955   5.351   8.319  1.9788 -0.5377 -0.4926
 5816TIP3   OH239006   2.808   3.683   8.458  0.4419 -0.2994 -0.2002
 5816TIP3    H139007   2.716   3.709   8.450  0.4127 -0.4147 -0.2496
 5816TIP3    H239008   2.819   3.616   8.391 -0.2850 -2.6132  1.8266
 5817TIP3   OH239009   0.357   1.215   1.070  0.1804  0.0300  0.3094
 5817TIP3    H139010   0.263   1.204   1.054  0.3110  0.2782 -0.7257
 5817TIP3    H239011   0.388   1.126   1.088 -0.1175 -0.1747 -0.1443
 5818TIP3   OH239012   0.868   3.204   7.984 -0.1640  0.1741  0.1572
 5818TIP3    H139013   0.904   3.150   7.913 -1.6083  0.1816 -0.6117
 5818TIP3    H239014   0.945   3.248   8.021  0.8449 -1.1377 -0.2613
 5819TIP3   OH239015   4.799   5.412   4.163  0.0207 -0.0518 -0.3078
 5819TIP3    H139016   4.743   5.429   4.238  0.5866 -0.9738  0.3477
 5819TIP3    H239017   4.777   5.322   4.137  2.4474 -1.1573  1.1300
 5820TIP3   OH239018   5.952   4.028   1.914 -0.3960  0.3496  0.0544
 5820TIP3    H139019   5.958   4.123   1.910  1.2878  0.3261  0.7501
 5820TIP3    H239020   5.875   4.006   1.862  1.0168  1.8800 -2.9424
 5821TIP3   OH239021   3.388   3.627   2.650 -0.0828 -0.7003 -0.1636
 5821TIP3    H139022   3.395   3.652   2.742 -2.5449  2.4817 -0.6649
 5821TIP3    H239023   3.477   3.638   2.616  0.7457 -1.3427  1.6613
 5822TIP3   OH239024   4.012   2.097   0.849 -0.0252  0.3424  0.0151
 5822TIP3    H139025   4.061   2.043   0.787 -1.3362 -0.7089 -0.1576
 5822TIP3    H239026   4.074   2.116   0.919  0.8472 -0.3047 -0.5618
 5823TIP3   OH239027   0.206   5.760   8.429  0.3497  0.4905  0.0398
 5823TIP3    H139028   0.172   5.792   8.512 -0.3120 -0.5711  0.2006
 5823TIP3    H239029   0.154   5.806   8.363 -0.0748  0.3199  0.2486
 5824TIP3   OH239030   2.587   3.939   7.704 -0.2067 -0.1734 -0.5003
 5824TIP3    H139031   2.649   3.898   7.763 -0.1859  0.2296 -0.2326
 5824TIP3    H239032   2.595   4.033   7.723 -0.1715 -0.0366 -1.1727
 5825TIP3   OH239033   1.373   5.674   0.717 -0.3136  0.5615 -0.1190
 5825TIP3    H139034   1.282   5.650   0.736 -0.7444  1.0697 -1.3955
 5825TIP3    H239035   1.425   5.607   0.760 -1.3353 -0.3418 -0.2301
 5826TIP3   OH239036   3.534   5.200   2.479  0.5490  0.8083 -0.0130
 5826TIP3    H139037   3.498   5.241   2.401  1.1141  0.0491 -0.6878
 5826TIP3    H239038   3.495   5.249   2.552  1.3528  2.6977 -0.7733
 5827TIP3   OH239039   4.566   4.906   1.004 -0.4737  0.2795 -0.5057
 5827TIP3    H139040   4.644   4.868   1.045 -0.8179  0.7654  0.6259
 5827TIP3    H239041   4.562   4.864   0.918  2.3847  1.9601 -1.5952
 5828TIP3   OH239042   3.758   1.519   2.618 -0.3683 -0.3468 -0.1480
 5828TIP3    H139043   3.698   1.489   2.686 -1.9226 -0.4778 -1.5239
 5828TIP3    H239044   3.769   1.443   2.560 -2.3161  0.8626 -2.2530
 5829TIP3   OH239045   3.874   5.687   2.051  0.0769 -0.0135 -0.2598
 5829TIP3    H139046   3.798   5.698   1.994 -2.2431 -3.0992  1.9099
 5829TIP3    H239047   3.867   5.758   2.115 -1.0940 -0.3359 -0.0146
 5830TIP3   OH239048   6.130   3.891   8.597 -0.6021 -0.4353  0.1038
 5830TIP3    H139049   6.051   3.870   8.546 -0.7946  0.9220 -0.1978
 5830TIP3    H239050   6.197   3.907   8.531 -0.1236 -1.3357  0.3582
 5831TIP3   OH239051   6.080   6.582   4.062 -0.2659 -0.4392 -0.2258
 5831TIP3    H139052   6.077   6.488   4.047 -0.0332 -0.2114 -1.8918
 5831TIP3    H239053   6.140   6.615   3.995 -0.1519  0.8633  0.4923
 5832TIP3   OH239054   6.056   3.290   2.881  0.1093 -0.3012 -0.5841
 5832TIP3    H139055   6.144   3.313   2.910 -0.2410 -0.6411  0.8386
 5832TIP3    H239056   6.068   3.213   2.827  0.7405 -0.0102 -0.8659
 5833TIP3   OH239057   5.377   0.523   1.849  1.2473 -1.0484  0.4454
 5833TIP3    H139058   5.296   0.572   1.865  1.9047  0.1133  0.3124
 5833TIP3    H239059   5.383   0.462   1.922  1.1532  0.0980  1.4460
 5834TIP3   OH239060   5.005   2.144   8.367  0.3924  0.1308  0.0933
 5834TIP3    H139061   4.922   2.157   8.320 -0.1443 -1.0613  0.6513
 5834TIP3    H239062   5.055   2.084   8.310  1.5244  1.9709 -0.9526
 5835TIP3   OH239063   0.741   2.380   8.581 -0.5361  0.0179 -0.1647
 5835TIP3    H139064   0.726   2.461   8.630 -0.9273 -1.5222  2.4229
 5835TIP3    H239065   0.826   2.349   8.612  0.1124 -0.0766 -1.9279
 5836TIP3   OH239066   4.470   3.557   0.452  0.0272  0.4261 -0.6856
 5836TIP3    H139067   4.437   3.514   0.531  2.0056  1.0078  0.5339
 5836TIP3    H239068   4.519   3.489   0.406  1.1530  0.7120  0.0297
 5837TIP3   OH239069   4.516   5.403   1.184 -0.2188  0.0004 -0.0915
 5837TIP3    H139070   4.523   5.452   1.103  1.4517 -0.4858 -0.2723
 5837TIP3    H239071   4.508   5.311   1.157 -0.7675 -0.0709  0.2847
 5838TIP3   OH239072   2.262   3.250   1.117  0.2768 -0.2499 -0.4608
 5838TIP3    H139073   2.263   3.180   1.052 -1.1476 -0.3223 -0.4419
 5838TIP3    H239074   2.245   3.205   1.200 -1.2345  0.1397 -0.5295
 5839TIP3   OH239075   6.459   3.306   1.796 -0.1480 -0.5031 -0.3591
 5839TIP3    H139076   6.534   3.252   1.773  0.0748 -1.5677  2.4808
 5839TIP3    H239077   6.406   3.250   1.853 -2.9138  0.3731 -1.9173
 5840TIP3   OH239078   0.352   1.431   8.555  0.1989 -0.3980  0.4861
 5840TIP3    H139079   0.334   1.409   8.463  0.6083 -1.2358  0.6038
 5840TIP3    H239080   0.343   1.526   8.558 -0.0702 -0.3835 -0.3682
 5841TIP3   OH239081   5.214   5.913   0.753 -0.9144  0.3507  0.2056
 5841TIP3    H139082   5.238   5.948   0.838 -1.1154 -0.5835  0.6592
 5841TIP3    H239083   5.202   5.819   0.768  0.1219 -0.0123 -1.0820
 5842TIP3   OH239084   1.306   1.316   2.941 -0.2244 -0.4606  0.3679
 5842TIP3    H139085   1.263   1.253   2.883  0.8285 -0.2495 -0.6697
 5842TIP3    H239086   1.399   1.302   2.927  0.0733 -0.6299  2.2814
 5843TIP3   OH239087   2.433   5.426   8.621 -0.6866  0.0320  0.6316
 5843TIP3    H139088   2.390   5.481   8.555 -0.6171  1.0122  1.3751
 5843TIP3    H239089   2.509   5.477   8.650  0.0209 -0.9451  0.5504
 5844TIP3   OH239090   1.690   5.689   2.844  0.5313 -0.1825 -0.3141
 5844TIP3    H139091   1.595   5.690   2.857  0.4518  0.4877 -0.9101
 5844TIP3    H239092   1.710   5.598   2.822 -0.4078  0.1711 -3.0895
 5845TIP3   OH239093   0.421   6.759   1.588 -0.3920 -0.4773  0.6666
 5845TIP3    H139094   0.457   6.703   1.657  0.4877 -0.9203 -0.1258
 5845TIP3    H239095   0.373   6.698   1.531 -0.5643 -0.2113  0.5251
 5846TIP3   OH239096   3.258   1.441   1.266  0.4400 -0.2624  0.4716
 5846TIP3    H139097   3.281   1.459   1.357 -1.8614  1.6067  0.7632
 5846TIP3    H239098   3.165   1.418   1.268 -0.8204  3.7022 -1.6902
 5847TIP3   OH239099   2.440   4.691   2.420  0.4702 -0.2127 -0.3631
 5847TIP3    H139100   2.396   4.629   2.362 -0.3350 -1.3091  1.3185
 5847TIP3    H239101   2.409   4.667   2.508  0.6394  2.1801  0.4252
 5848TIP3   OH239102   6.211   0.173   2.347  0.0426 -0.4111 -0.5212
 5848TIP3    H139103   6.269   0.223   2.290  1.4126 -0.9491  0.3587
 5848TIP3    H239104   6.185   0.235   2.415  0.4439 -0.4566 -0.3256
 5849TIP3   OH239105   0.897   0.192   2.880 -0.2246 -0.3065  0.0335
 5849TIP3    H139106   0.833   0.255   2.846 -0.5777 -0.3636  0.5810
 5849TIP3    H239107   0.942   0.239   2.950 -0.4795 -0.6608  0.4355
 5850TIP3   OH239108   4.181   5.041   0.153  0.1054 -0.0629  0.1491
 5850TIP3    H139109   4.251   4.996   0.200  0.4259 -0.5060 -0.7222
 5850TIP3    H239110   4.225   5.080   0.077 -0.4914  0.1508 -0.0901
 5851TIP3   OH239111   1.085   3.481   3.415  0.1014  0.2660  0.1713
 5851TIP3    H139112   1.084   3.417   3.344 -1.2198  2.1688 -1.6450
 5851TIP3    H239113   1.017   3.451   3.475 -0.5438 -0.0111 -0.6829
 5852TIP3   OH239114   2.357   1.038   1.759  0.6316 -0.5622 -0.3150
 5852TIP3    H139115   2.382   1.086   1.838 -0.0739 -0.3470 -0.2110
 5852TIP3    H239116   2.262   1.030   1.765  0.5118 -0.1769 -1.3378
 5853TIP3   OH239117   1.859   5.341   8.715 -0.0909  0.2574 -0.6325
 5853TIP3    H139118   1.838   5.434   8.723  0.8313  0.4944 -0.8468
 5853TIP3    H239119   1.835   5.318   8.626 -0.4018  0.2616 -0.5527
 5854TIP3   OH239120   3.174   6.100   2.621  0.5100  0.3884 -0.1222
 5854TIP3    H139121   3.230   6.090   2.698  0.9571 -1.2404 -0.6150
 5854TIP3    H239122   3.092   6.057   2.645  0.7507 -0.3716 -0.6411
 5855TIP3   OH239123   3.992   1.337   0.093 -0.0848  0.1228 -0.1822
 5855TIP3    H139124   4.057   1.292   0.146  1.4322 -0.1127 -2.1495
 5855TIP3    H239125   4.037   1.414   0.058 -1.6003  1.2912  0.2995
 5856TIP3   OH239126   1.200   2.133   1.281  0.1479  0.4640  0.0489
 5856TIP3    H139127   1.163   2.199   1.340  1.9436  2.8247 -1.2958
 5856TIP3    H239128   1.293   2.133   1.301  0.2578 -1.4610 -0.2814
 5857TIP3   OH239129   0.747   5.039   1.040  0.1482  0.2596  0.4396
 5857TIP3    H139130   0.810   4.982   0.996  0.4521  0.7878  0.1782
 5857TIP3    H239131   0.800   5.108   1.079 -0.0932 -0.3406  1.8941
 5858TIP3   OH239132   5.848   5.955   3.391  0.3530  0.2958 -0.5088
 5858TIP3    H139133   5.903   6.024   3.355 -0.4815  0.7480 -0.9622
 5858TIP3    H239134   5.822   5.987   3.477  1.2834 -0.1942 -0.0351
 5859TIP3   OH239135   6.451   4.562   0.005  0.9592 -0.3236  0.3826
 5859TIP3    H139136   6.523   4.598   0.056 -0.2926  0.6415  1.5187
 5859TIP3    H239137   6.400   4.638  -0.023  0.7297 -0.9434 -0.9723
 5860TIP3   OH239138   5.928   3.959   0.034  0.1295  0.4369 -0.0743
 5860TIP3    H139139   6.003   3.900   0.035 -0.8045 -0.8130  1.7490
 5860TIP3    H239140   5.960   4.038   0.078  0.2143 -0.3907  1.4276
 5861TIP3   OH239141   3.161   6.512   8.398 -0.0596 -0.0329 -0.0206
 5861TIP3    H139142   3.249   6.484   8.374  0.7523  1.1311  1.3966
 5861TIP3    H239143   3.165   6.608   8.397 -0.4814  0.1079  2.6092
 5862TIP3   OH239144   3.512   2.614   1.417 -0.1118 -0.1256  0.5525
 5862TIP3    H139145   3.559   2.690   1.382 -1.3810 -0.2805 -1.6381
 5862TIP3    H239146   3.458   2.649   1.487  0.3410  0.7360  0.4809
 5863TIP3   OH239147   4.381   1.891   1.838 -0.1095  0.1542  0.0062
 5863TIP3    H139148   4.380   1.848   1.752  0.6910 -1.5241  0.7922
 5863TIP3    H239149   4.441   1.965   1.827 -0.0927  0.0215 -0.8962
 5864TIP3   OH239150   5.555   4.638   2.343  0.1474 -0.6093 -0.4482
 5864TIP3    H139151   5.526   4.707   2.403  1.6688  0.3521 -0.7707
 5864TIP3    H239152   5.495   4.566   2.360 -1.4467  0.7384 -0.0168
 5865TIP3   OH239153   3.326   6.209   1.786 -0.7572 -0.0037  0.2664
 5865TIP3    H139154   3.261   6.157   1.740  0.3744  0.5140 -2.0476
 5865TIP3    H239155   3.392   6.147   1.814 -0.3862 -0.0659 -0.7381
 5866TIP3   OH239156   2.586   1.384   3.218 -0.2463  0.4091 -0.0413
 5866TIP3    H139157   2.665   1.337   3.247 -0.4766  0.0866  0.0681
 5866TIP3    H239158   2.619   1.455   3.163  0.0616 -0.3553 -0.8525
 5867TIP3   OH239159   3.711   6.552   2.377 -0.4123  0.8404  0.4349
 5867TIP3    H139160   3.750   6.475   2.419 -0.3414  1.3763  1.3543
 5867TIP3    H239161   3.674   6.517   2.295  0.1388 -0.0613  0.5523
 5868TIP3   OH239162   5.765   0.915   0.669  0.4775 -0.1275 -0.0677
 5868TIP3    H139163   5.832   0.951   0.727 -2.0166  3.4097  0.9548
 5868TIP3    H239164   5.799   0.928   0.581  1.3472  1.1855  0.4356
 5869TIP3   OH239165   6.533   4.492   1.786 -0.2567 -0.2625  0.7371
 5869TIP3    H139166   6.450   4.530   1.757  0.1815 -0.0905 -0.3518
 5869TIP3    H239167   6.596   4.522   1.721  0.5003 -1.1074  1.0661
 5870TIP3   OH239168   0.403   0.102   2.852 -0.7130 -0.1060 -0.0636
 5870TIP3    H139169   0.417   0.161   2.778 -0.2412  0.1733  0.2487
 5870TIP3    H239170   0.389   0.160   2.927 -1.9350 -0.3731 -0.0508
 5871TIP3   OH239171   0.167   6.747   1.010 -0.2019 -0.1601 -0.2871
 5871TIP3    H139172   0.108   6.791   1.071 -0.6281 -0.1924 -0.6703
 5871TIP3    H239173   0.255   6.769   1.041 -0.3999  1.0696 -0.5363
 5872TIP3   OH239174   0.726   4.772   1.848  0.3262 -0.2583  0.2285
 5872TIP3    H139175   0.666   4.791   1.777 -1.8654 -0.4720  1.9230
 5872TIP3    H239176   0.801   4.830   1.833 -0.1950 -0.0818 -2.0174
 5873TIP3   OH239177   1.949   0.195   7.534  0.1171 -0.0433  0.3952
 5873TIP3    H139178   1.878   0.134   7.552  0.7147 -0.5757  1.0125
 5873TIP3    H239179   1.907   0.281   7.535 -1.2032 -0.5084 -2.8653
 5874TIP3   OH239180   0.719   4.356   0.491 -0.2833  0.0194  0.3029
 5874TIP3    H139181   0.655   4.325   0.427 -0.8089 -1.1388  1.3510
 5874TIP3    H239182   0.696   4.448   0.506 -2.5918 -0.6985  1.6473
 5875TIP3   OH239183   3.414   5.707   1.463 -0.2968  0.1033 -0.5908
 5875TIP3    H139184   3.421   5.653   1.542 -1.2528  0.5867 -0.1624
 5875TIP3    H239185   3.412   5.797   1.495  0.6855  0.3806 -1.2657
 5876TIP3   OH239186   6.767   1.663   1.173 -0.0196  0.2292 -0.1339
 5876TIP3    H139187   6.793   1.745   1.131 -0.3889  0.0120 -0.7974
 5876TIP3    H239188   6.734   1.689   1.258 -2.7039  1.1021 -1.3515
 5877TIP3   OH239189   1.048   6.658   0.303  0.1518  0.6481  0.7548
 5877TIP3    H139190   1.115   6.590   0.298  0.5783  1.1247 -0.2055
 5877TIP3    H239191   1.035   6.687   0.212 -3.2553 -1.2462  0.4672
 5878TIP3   OH239192   3.912   3.888   0.124 -0.0705 -0.4271 -0.3161
 5878TIP3    H139193   3.946   3.972   0.154  0.0306 -1.1778  1.7892
 5878TIP3    H239194   3.986   3.846   0.080 -0.0289  0.4170 -1.0842
 5879TIP3   OH239195   6.052   2.115   8.212 -0.3886 -0.8948 -0.2587
 5879TIP3    H139196   6.083   2.199   8.178  0.6957 -1.2079 -0.0852
 5879TIP3    H239197   5.958   2.116   8.197 -0.2588 -0.0336 -1.0990
 5880TIP3   OH239198   0.172   6.170   1.510 -0.3528  0.7005  0.3225
 5880TIP3    H139199   0.159   6.085   1.468 -0.2043  1.0494 -0.4487
 5880TIP3    H239200   0.085   6.210   1.511 -0.7983 -0.2069  2.3929
 5881TIP3   OH239201   3.141   1.304   2.175  0.0684  0.0483 -0.5936
 5881TIP3    H139202   3.172   1.392   2.152  1.7561 -0.1983  0.5466
 5881TIP3    H239203   3.091   1.276   2.099 -2.4144  2.8008 -0.1772
 5882TIP3   OH239204   1.531   5.309   2.127 -0.6025 -0.4798  0.6116
 5882TIP3    H139205   1.590   5.379   2.153 -0.0585 -0.8682  0.4510
 5882TIP3    H239206   1.546   5.239   2.191 -0.8222 -0.6188  0.5147
 5883TIP3   OH239207   2.169   6.711   0.515 -0.1615  0.3655  0.2784
 5883TIP3    H139208   2.105   6.699   0.586 -0.4152  1.4166  0.2492
 5883TIP3    H239209   2.140   6.791   0.471 -0.3845 -0.6016 -1.4170
 5884TIP3   OH239210   3.099   0.847   1.790 -0.3908  0.2769 -0.4707
 5884TIP3    H139211   3.089   0.862   1.884  1.6713 -2.3820  0.3017
 5884TIP3    H239212   3.043   0.913   1.749 -0.3888  2.3505  2.5529
 5885TIP3   OH239213   1.943   4.373   3.445 -0.0247 -0.4039  0.1674
 5885TIP3    H139214   1.935   4.325   3.363 -0.1605 -1.1094  0.5848
 5885TIP3    H239215   1.886   4.326   3.506 -1.7284  1.4220  0.0897
 5886TIP3   OH239216   4.491   3.549   3.201  0.5396  0.2122  0.2365
 5886TIP3    H139217   4.515   3.550   3.293 -0.9263  0.6667  0.6382
 5886TIP3    H239218   4.446   3.465   3.189 -0.4882  0.7380  0.2881
 5887TIP3   OH239219   1.056   0.192   2.414  0.2652 -0.4415 -0.8631
 5887TIP3    H139220   1.043   0.186   2.508 -0.5089  1.9486 -0.7629
 5887TIP3    H239221   1.146   0.162   2.401  1.1463  1.2015  0.9463
 5888TIP3   OH239222   1.886   0.038   0.731 -0.4107 -0.2215 -0.7886
 5888TIP3    H139223   1.793   0.058   0.734 -0.2455  0.4894 -0.3906
 5888TIP3    H239224   1.920   0.089   0.657  0.1802  1.7606  0.7832
 5889TIP3   OH239225   3.725   4.965   0.505  0.0186  0.1592  0.3920
 5889TIP3    H139226   3.732   4.889   0.448 -0.2799  0.4528 -0.0460
 5889TIP3    H239227   3.791   4.951   0.574 -0.6767 -0.9360  0.8455
 5890TIP3   OH239228   3.885   4.573   8.668  0.4907  0.1819  0.2389
 5890TIP3    H139229   3.895   4.590   8.761  0.0928  0.1009  0.3007
 5890TIP3    H239230   3.820   4.637   8.638  1.7644  1.2503 -0.3159
 5891TIP3   OH239231   6.038   4.499   2.742 -0.0524 -0.3465  0.3190
 5891TIP3    H139232   6.123   4.485   2.701  0.0379 -3.4937  1.2922
 5891TIP3    H239233   6.053   4.570   2.805  0.6244  2.2085 -2.4844
 5892TIP3   OH239234   6.765   0.774   3.243 -0.0904  0.2216 -0.7424
 5892TIP3    H139235   6.734   0.751   3.330  1.1353 -0.2819 -0.4256
 5892TIP3    H239236   6.702   0.734   3.184 -0.9417  0.5805 -0.0982
 5893TIP3   OH239237   3.128   5.818   3.306 -0.8156 -0.1331  0.1945
 5893TIP3    H139238   3.104   5.785   3.219  0.3974  2.0555 -1.0765
 5893TIP3    H239239   3.046   5.819   3.355 -1.6690 -0.7606 -1.1465
 5894TIP3   OH239240   1.144   1.222   1.852  0.3556 -0.5788 -0.4607
 5894TIP3    H139241   1.217   1.242   1.910 -0.7674 -1.6666  1.4266
 5894TIP3    H239242   1.095   1.305   1.847  0.7106 -0.3496 -0.2281
 5895TIP3   OH239243   2.582   5.483   0.627 -0.1107  0.2867 -0.1838
 5895TIP3    H139244   2.515   5.426   0.588  1.9374 -1.0348 -1.9887
 5895TIP3    H239245   2.590   5.555   0.566  3.2418 -1.8812 -2.6141
 5896TIP3   OH239246   6.118   2.117   4.236 -0.4607 -0.6238  0.2094
 5896TIP3    H139247   6.025   2.109   4.256 -0.5889  2.2511  1.1808
 5896TIP3    H239248   6.161   2.103   4.321 -0.3245  1.6399  0.5772
 5897TIP3   OH239249   0.481   3.632   0.211  0.0776  0.7309 -0.3086
 5897TIP3    H139250   0.475   3.675   0.296 -1.5815  0.9722 -0.5312
 5897TIP3    H239251   0.548   3.564   0.223 -0.5247  0.3978  1.3371
 5898TIP3   OH239252   0.568   0.387   8.565  0.5720 -0.3120  0.4241
 5898TIP3    H139253   0.474   0.401   8.566 -0.0862 -1.8404 -5.0778
 5898TIP3    H239254   0.578   0.292   8.559  2.4399 -0.1482  0.2392
 5899TIP3   OH239255   6.797   2.027   0.207  0.0085 -0.1424 -0.2414
 5899TIP3    H139256   6.755   2.030   0.293 -0.7304 -2.5878 -0.4277
 5899TIP3    H239257   6.730   2.059   0.146 -0.3083 -0.5515 -0.1198
 5900TIP3   OH239258   3.811   3.979   1.072  0.3029  0.4550  0.3432
 5900TIP3    H139259   3.747   3.975   1.000  0.3660  0.6050  0.2777
 5900TIP3    H239260   3.844   4.069   1.069  0.2971  0.4658  0.5686
 5901TIP3   OH239261   4.050   1.239   0.941  0.3102  0.3503 -0.2287
 5901TIP3    H139262   4.080   1.158   0.983 -2.6732 -0.1142  1.3755
 5901TIP3    H239263   4.055   1.305   1.011  1.5535  1.2843 -1.1661
 5902TIP3   OH239264   3.941   3.948   7.485  0.0074 -0.2695  0.1023
 5902TIP3    H139265   3.930   4.041   7.466  0.8616 -0.2467 -0.3042
 5902TIP3    H239266   3.971   3.909   7.403 -0.5288 -0.9385  0.2175
 5903TIP3   OH239267   0.448   2.343   8.585 -0.4170 -0.2642  0.1134
 5903TIP3    H139268   0.542   2.352   8.570 -0.2272 -2.3534 -0.1427
 5903TIP3    H239269   0.438   2.348   8.680 -0.2196  1.1661  0.0806
 5904TIP3   OH239270   3.432   1.415   2.416  0.1526 -0.5699 -0.0945
 5904TIP3    H139271   3.410   1.327   2.386 -3.4831  0.7616 -1.9291
 5904TIP3    H239272   3.361   1.470   2.383  1.5805  2.8887  2.0577
 5905TIP3   OH239273   5.371   3.748   2.486  0.0272  0.1626 -0.1654
 5905TIP3    H139274   5.310   3.822   2.479  0.4940  0.5355 -0.3832
 5905TIP3    H239275   5.356   3.713   2.574 -0.0220  0.6753  0.0331
 5906TIP3   OH239276   1.339   4.246   1.941  0.0178 -0.2303  0.1460
 5906TIP3    H139277   1.300   4.331   1.919 -1.6861 -0.5153  1.8152
 5906TIP3    H239278   1.368   4.210   1.857  1.2999  2.2081 -0.5538
 5907TIP3   OH239279   4.682   4.109   2.447  0.4836 -0.1868 -0.1030
 5907TIP3    H139280   4.703   4.020   2.477  0.2333 -0.8790 -1.8359
 5907TIP3    H239281   4.701   4.165   2.522  3.6464 -1.3392  0.1149
 5908TIP3   OH239282   4.780   3.407   2.951 -0.3278  0.5581  0.5397
 5908TIP3    H139283   4.710   3.464   2.983 -2.1109  0.7112 -3.0921
 5908TIP3    H239284   4.761   3.321   2.988  0.1322  1.4233  2.9610
 5909TIP3   OH239285   2.099   4.138   1.922 -0.2444  0.2477 -0.0205
 5909TIP3    H139286   2.182   4.104   1.889  1.0482  0.6240  2.5900
 5909TIP3    H239287   2.052   4.060   1.952 -0.6982  0.0730 -1.1404
 5910TIP3   OH239288   5.120   3.262   2.601  0.0677  0.5968 -0.6643
 5910TIP3    H139289   5.029   3.290   2.610  0.2584  1.1296 -0.3730
 5910TIP3    H239290   5.166   3.305   2.673  0.5797  0.4559 -0.9024
 5911TIP3   OH239291   4.957   4.798   8.577 -0.0296 -0.1900  0.2112
 5911TIP3    H139292   4.930   4.793   8.669 -0.7397  1.3914  0.1074
 5911TIP3    H239293   4.887   4.753   8.529 -2.6775  3.7016 -0.0371
 5912TIP3   OH239294   5.826   2.698   2.285  0.1358 -0.0532  0.2464
 5912TIP3    H139295   5.803   2.634   2.218  0.4974  1.2938 -1.2206
 5912TIP3    H239296   5.785   2.780   2.255 -0.0061  0.5157  1.8741
 5913TIP3   OH239297   0.212   6.209   0.310 -0.7910 -0.1033  0.0093
 5913TIP3    H139298   0.256   6.294   0.316 -3.4504  1.3378  1.5064
 5913TIP3    H239299   0.236   6.163   0.391  1.0603 -1.0938 -1.0348
 5914TIP3   OH239300   1.143   1.642   7.978  0.4959  0.0236 -0.5828
 5914TIP3    H139301   1.071   1.616   7.920  1.4202  0.8652 -2.1861
 5914TIP3    H239302   1.158   1.565   8.033 -4.0771  1.0127  2.5576
 5915TIP3   OH239303   6.081   4.117   0.384 -0.0338 -0.2245  0.3828
 5915TIP3    H139304   6.097   4.111   0.290  0.3095  0.2102  0.4067
 5915TIP3    H239305   6.140   4.187   0.414 -0.2331 -0.2687  0.8967
 5916TIP3   OH239306   0.867   4.906   1.264  0.0424  0.2049  0.1906
 5916TIP3    H139307   0.952   4.947   1.279 -0.6897  1.9716 -0.2242
 5916TIP3    H239308   0.847   4.860   1.346  1.2217  0.0632  0.4097
 5917TIP3   OH239309   2.897   5.144   1.604 -0.2155  0.4791  0.0347
 5917TIP3    H139310   2.842   5.068   1.622  0.4805 -0.1331 -0.3938
 5917TIP3    H239311   2.986   5.110   1.600  0.0811  1.2735 -0.4124
 5918TIP3   OH239312   1.709   5.777   7.569  0.5344 -0.1197  0.3721
 5918TIP3    H139313   1.734   5.733   7.650 -1.1617  0.2962  1.1628
 5918TIP3    H239314   1.614   5.765   7.563  0.4372  0.9807 -0.8743
 5919TIP3   OH239315   4.995   3.482   0.513  0.1482 -0.0199 -0.2255
 5919TIP3    H139316   4.957   3.395   0.498 -1.0661 -0.1689  2.9266
 5919TIP3    H239317   5.073   3.464   0.566 -0.2379  0.7927  0.6400
 5920TIP3   OH239318   5.901   5.809   0.553 -0.4150 -0.4721  0.1648
 5920TIP3    H139319   5.988   5.822   0.592  0.6361 -1.1213 -1.8170
 5920TIP3    H239320   5.910   5.843   0.464 -3.1970  2.4728  0.8218
 5921TIP3   OH239321   6.459   2.971   1.566  0.1613  0.1555 -0.0519
 5921TIP3    H139322   6.373   2.929   1.565 -0.3177  1.0995  0.2996
 5921TIP3    H239323   6.507   2.925   1.635  0.1802 -0.8102 -0.6846
 5922TIP3   OH239324   2.187   6.456   0.250 -0.2802  1.1313 -0.2314
 5922TIP3    H139325   2.168   6.447   0.344  1.3857 -0.7368 -0.0068
 5922TIP3    H239326   2.270   6.504   0.247 -1.0441  2.4664 -0.8480
 5923TIP3   OH239327   6.395   6.639   0.937 -0.0846 -0.5277  0.1152
 5923TIP3    H139328   6.460   6.698   0.976 -1.2541  0.3060  0.8648
 5923TIP3    H239329   6.386   6.568   1.000 -0.1054 -0.4899  0.1553
 5924TIP3   OH239330   3.404   0.199   0.770  0.3366 -0.1290  0.3033
 5924TIP3    H139331   3.417   0.182   0.677  1.8179  0.8972  0.2894
 5924TIP3    H239332   3.383   0.113   0.807 -1.9932 -0.2941 -1.1957
 5925TIP3   OH239333   3.723   6.291   0.189 -0.3510 -0.0246  0.8033
 5925TIP3    H139334   3.678   6.207   0.198 -0.3062 -0.1427  0.0382
 5925TIP3    H239335   3.654   6.353   0.165 -0.0702 -0.3031 -0.8631
 5926TIP3   OH239336   6.293   4.756   1.461  0.1835 -0.5112 -0.0295
 5926TIP3    H139337   6.258   4.836   1.422  2.1429  0.3517 -0.1520
 5926TIP3    H239338   6.311   4.779   1.552  0.3904 -0.9397  0.0405
 5927TIP3   OH239339   3.078   0.836   0.514 -0.1522 -0.5069 -0.1778
 5927TIP3    H139340   3.165   0.828   0.552  0.9246  0.1880 -2.3209
 5927TIP3    H239341   3.073   0.927   0.485 -1.4473 -0.6414 -0.4527
 5928TIP3   OH239342   1.101   4.486   8.308  0.3208 -0.4816  0.3656
 5928TIP3    H139343   1.052   4.555   8.353  0.0328 -0.9236  0.7439
 5928TIP3    H239344   1.035   4.440   8.256  0.7592  0.4630 -1.1074
 5929TIP3   OH239345   2.802   6.142   1.484 -0.6650 -0.1256 -0.3376
 5929TIP3    H139346   2.718   6.148   1.437 -0.2823  1.0578 -0.9051
 5929TIP3    H239347   2.819   6.048   1.490 -1.1234 -0.3318 -1.8584
 5930TIP3   OH239348   0.010   3.113   2.239 -0.2174  1.2311  0.6111
 5930TIP3    H139349   0.092   3.095   2.285 -0.3012  0.5276  0.4960
 5930TIP3    H239350   0.013   3.057   2.161 -0.4708  1.7582  0.2131
 5931TIP3   OH239351   2.363   2.287   1.835 -0.0684  0.7381 -0.4184
 5931TIP3    H139352   2.385   2.201   1.872 -0.4305  1.0099  0.4471
 5931TIP3    H239353   2.443   2.315   1.791  0.1786  0.1284 -0.3675
 5932TIP3   OH239354   2.296   1.623   2.425 -0.3026  0.1789  0.6256
 5932TIP3    H139355   2.221   1.636   2.483  0.3560 -0.8759  1.7487
 5932TIP3    H239356   2.279   1.539   2.383 -0.4886  0.6634 -0.2996
 5933TIP3   OH239357   0.937   4.413   1.571  0.4966 -0.0132  0.3929
 5933TIP3    H139358   0.975   4.476   1.633  1.1954 -0.6460  0.6228
 5933TIP3    H239359   0.844   4.413   1.592  0.4169  1.2035  0.1469
 5934TIP3   OH239360   4.085   5.859   0.132 -0.2507 -0.1311  0.2985
 5934TIP3    H139361   4.175   5.828   0.138  0.0737  0.7303 -0.0964
 5934TIP3    H239362   4.062   5.849   0.040 -1.0944 -1.7768  0.6361
 5935TIP3   OH239363   3.550   2.360   2.032  0.1364  0.2476 -0.0110
 5935TIP3    H139364   3.626   2.392   1.983 -1.1862  1.6717 -1.2456
 5935TIP3    H239365   3.547   2.415   2.111  0.4740  0.0680  0.1290
 5936TIP3   OH239366   4.502   6.238   7.987 -0.0849 -0.5248  0.0637
 5936TIP3    H139367   4.422   6.189   7.967 -0.4253  0.6889 -1.7889
 5936TIP3    H239368   4.566   6.207   7.923  0.8750 -1.2682  1.3419
 5937TIP3   OH239369   0.779   3.901   2.429 -0.1499  0.0608 -0.7020
 5937TIP3    H139370   0.850   3.951   2.469 -0.5153  0.5492 -0.6502
 5937TIP3    H239371   0.750   3.956   2.356 -3.0539  1.7940  1.5340
 5938TIP3   OH239372   0.860   3.413   3.573 -0.1926 -0.2516 -0.0054
 5938TIP3    H139373   0.811   3.495   3.573  0.8933  0.4328  0.9849
 5938TIP3    H239374   0.796   3.347   3.547 -0.9901  0.9525 -1.2382
 5939TIP3   OH239375   5.462   0.347   3.647  0.2961 -0.3807  0.6876
 5939TIP3    H139376   5.399   0.325   3.577 -0.4290 -1.8930  1.7534
 5939TIP3    H239377   5.542   0.369   3.601 -0.7414  0.6993 -0.6935
 5940TIP3   OH239378   1.639   5.463   0.577  0.5492 -0.2534  0.2566
 5940TIP3    H139379   1.713   5.426   0.529 -0.5593 -1.1191 -0.8539
 5940TIP3    H239380   1.644   5.422   0.663  0.2191 -1.8635 -0.4640
 5941TIP3   OH239381   1.199   1.786   3.569  0.1499 -0.3549  0.4443
 5941TIP3    H139382   1.186   1.876   3.600 -0.2176  0.3065 -1.5364
 5941TIP3    H239383   1.287   1.764   3.599  0.3339  0.7305  0.7837
 5942TIP3   OH239384   5.456   3.000   2.839  0.0023  0.2644  0.4003
 5942TIP3    H139385   5.490   3.084   2.808 -1.6886  0.2428 -1.7613
 5942TIP3    H239386   5.531   2.956   2.879  1.3890  1.9925 -0.1939
 5943TIP3   OH239387   3.147   0.521   2.675  0.0392 -0.3694 -0.7148
 5943TIP3    H139388   3.227   0.569   2.653  0.4919 -0.1907  1.1517
 5943TIP3    H239389   3.136   0.459   2.604  2.0238 -0.6045 -0.8588
 5944TIP3   OH239390   1.523   3.831   3.720  0.3076  0.2213 -0.3272
 5944TIP3    H139391   1.573   3.857   3.797 -1.2410  1.9477  0.1815
 5944TIP3    H239392   1.532   3.905   3.660 -0.2639 -0.1567 -0.8910
 5945TIP3   OH239393   0.888   3.957   3.407  0.2337 -0.2445 -0.2272
 5945TIP3    H139394   0.886   3.916   3.493  2.1695 -0.0273 -0.0235
 5945TIP3    H239395   0.879   3.884   3.345  1.0527 -0.6790  0.1553
 5946TIP3   OH239396   4.721   1.572   2.982 -0.0151 -0.2222  0.0964
 5946TIP3    H139397   4.687   1.521   3.055  1.2987  0.2652  1.0889
 5946TIP3    H239398   4.682   1.659   2.992  0.7513  0.0642  0.6827
 5947TIP3   OH239399   6.397   2.470   2.534  0.2957  0.5230 -0.5708
 5947TIP3    H139400   6.435   2.536   2.591  0.1466  0.3799 -0.3015
 5947TIP3    H239401   6.432   2.387   2.567  1.5785  0.5590 -1.7610
 5948TIP3   OH239402   5.625   5.474   8.254 -0.1038  0.2936 -0.3924
 5948TIP3    H139403   5.573   5.507   8.181 -1.3323  0.2689  0.4490
 5948TIP3    H239404   5.715   5.475   8.221 -0.4331  1.8236 -1.3449
 5949TIP3   OH239405   0.410   5.197   2.252  0.2042  0.2059  0.4472
 5949TIP3    H139406   0.432   5.196   2.159 -0.4264 -0.7051  0.2918
 5949TIP3    H239407   0.357   5.118   2.265  1.2598 -0.3279  1.8229
 5950TIP3   OH239408   0.594   3.020   0.122 -0.1945  0.0803 -0.4162
 5950TIP3    H139409   0.601   2.925   0.114 -0.5741  0.0074  0.0672
 5950TIP3    H239410   0.509   3.035   0.163  0.3386  0.5802  0.5479
 5951TIP3   OH239411   3.498   5.802   0.042  0.1418  0.2604 -0.1062
 5951TIP3    H139412   3.585   5.766   0.028 -0.4732 -2.3194  1.7928
 5951TIP3    H239413   3.440   5.725   0.040 -1.7451  1.5706  1.0102
 5952TIP3   OH239414   6.242   0.441   0.358  0.0568  0.2645  0.5192
 5952TIP3    H139415   6.243   0.379   0.432  0.7161  0.4964  0.7121
 5952TIP3    H239416   6.263   0.525   0.397  1.2878  0.2472 -0.0492
 5953TIP3   OH239417   3.317   6.804   2.955 -0.5514  0.2783 -0.0186
 5953TIP3    H139418   3.354   6.845   2.877 -1.0269  1.4517  0.3574
 5953TIP3    H239419   3.305   6.712   2.930  0.2099  0.4303 -0.9951
 5954TIP3   OH239420   3.365   3.346   2.720 -0.0804  0.2903  0.4159
 5954TIP3    H139421   3.437   3.295   2.757 -3.0916 -2.1199  3.5405
 5954TIP3    H239422   3.395   3.437   2.726  2.6496 -0.5830  1.6301
 5955TIP3   OH239423   5.555   5.306   8.695 -0.1110 -0.4526 -0.2357
 5955TIP3    H139424   5.645   5.322   8.725  0.2249  0.2892 -1.5937
 5955TIP3    H239425   5.501   5.325   8.772  0.8093  0.2876  0.2464
 5956TIP3   OH239426   4.030   0.272   0.344  0.0589  0.0660 -0.3387
 5956TIP3    H139427   4.026   0.274   0.248 -0.0944  2.5820 -0.3471
 5956TIP3    H239428   3.939   0.286   0.372 -0.0514 -1.5708  0.2234
 5957TIP3   OH239429   4.243   3.058   8.630  0.5271  0.3254  0.5644
 5957TIP3    H139430   4.172   3.003   8.599 -0.1797  0.9307  1.0731
 5957TIP3    H239431   4.209   3.147   8.623  1.3821  0.6510  0.4437
 5958TIP3   OH239432   2.551   4.777   3.426  0.3815 -0.0288 -0.5342
 5958TIP3    H139433   2.462   4.794   3.393 -0.6066  1.0531  2.3698
 5958TIP3    H239434   2.545   4.690   3.465  1.1463 -0.7019 -1.8491
 5959TIP3   OH239435   1.086   6.263   0.546 -0.3918  0.3030  0.3639
 5959TIP3    H139436   1.033   6.342   0.533 -0.4389  0.8514  3.1660
 5959TIP3    H239437   1.034   6.192   0.509 -1.9100  1.1788  0.7249
 5960TIP3   OH239438   2.676   3.305   2.803 -0.3228 -0.6092  0.1315
 5960TIP3    H139439   2.709   3.394   2.811 -0.2460 -0.6003 -0.2702
 5960TIP3    H239440   2.605   3.300   2.867 -1.8651  0.4607 -1.3974
 5961TIP3   OH239441   5.417   6.423   1.028 -0.0058 -0.0111  0.0413
 5961TIP3    H139442   5.459   6.499   1.069  0.2476 -0.2100  0.1542
 5961TIP3    H239443   5.341   6.459   0.983 -1.2004  0.0149  1.9755
 5962TIP3   OH239444   3.933   4.229   1.084 -0.0873 -0.0599 -0.1887
 5962TIP3    H139445   3.866   4.297   1.095 -0.7931 -0.7465 -0.2380
 5962TIP3    H239446   4.008   4.276   1.046 -0.8707  0.5352 -1.0447
 5963TIP3   OH239447   0.561   1.450   8.391 -0.3319 -0.6184 -0.0994
 5963TIP3    H139448   0.642   1.424   8.433 -0.6017 -0.6317  0.4234
 5963TIP3    H239449   0.520   1.510   8.454 -0.2966  0.1041 -0.7501
 5964TIP3   OH239450   0.069   4.062   0.835 -0.2928 -0.4522  0.3948
 5964TIP3    H139451  -0.022   4.051   0.863  0.0622 -2.3894  0.9157
 5964TIP3    H239452   0.105   4.125   0.898 -0.9771 -0.5222  0.8704
 5965TIP3   OH239453   1.502   4.474   1.887  0.0271 -0.0423 -0.2277
 5965TIP3    H139454   1.561   4.532   1.838 -0.8308  0.5979 -0.5192
 5965TIP3    H239455   1.554   4.394   1.901  0.9265  0.4685 -0.5609
 5966TIP3   OH239456   5.766   2.997   0.558 -0.0193  0.3425 -0.5002
 5966TIP3    H139457   5.752   2.929   0.492 -0.6423 -0.1612  0.1302
 5966TIP3    H239458   5.768   2.950   0.641  3.8279  0.5527 -0.3109
 5967TIP3   OH239459   2.514   5.001   1.155  0.2077 -0.0082 -0.0114
 5967TIP3    H139460   2.578   5.065   1.125  1.2465 -1.3303 -0.7101
 5967TIP3    H239461   2.460   4.984   1.078  0.2906 -0.3761  0.0093
 5968TIP3   OH239462   3.780   3.939   2.564  0.2389 -0.2507 -0.5066
 5968TIP3    H139463   3.814   3.854   2.591 -0.0980 -0.3925 -0.5237
 5968TIP3    H239464   3.688   3.922   2.541  0.9094 -0.4897 -3.3642
 5969TIP3   OH239465   1.613   4.765   1.709  0.5141 -0.0433 -0.3700
 5969TIP3    H139466   1.686   4.716   1.747 -0.0721  0.0374  0.8807
 5969TIP3    H239467   1.582   4.821   1.779 -0.6742  0.0167 -0.9239
 5970TIP3   OH239468   5.064   0.302   7.779  0.0031 -0.1981  0.0746
 5970TIP3    H139469   5.147   0.285   7.734  0.3955  0.4773  0.5196
 5970TIP3    H239470   5.066   0.396   7.798 -0.7914 -0.2078  0.2441
 5971TIP3   OH239471   3.454   6.000   7.762 -0.3731 -0.0775  0.6759
 5971TIP3    H139472   3.363   6.003   7.788  0.1641 -0.5782  2.7693
 5971TIP3    H239473   3.469   5.909   7.737 -0.2975 -0.1228  0.8886
 5972TIP3   OH239474   2.436   4.604   2.784 -0.2447 -0.4256 -0.3862
 5972TIP3    H139475   2.444   4.584   2.877  4.0760 -0.1445 -0.4741
 5972TIP3    H239476   2.436   4.699   2.780  0.9244 -0.4151 -0.6390
 5973TIP3   OH239477   4.847   4.731   0.255  0.5785  0.1290  0.2633
 5973TIP3    H139478   4.807   4.802   0.305  1.3587  1.3137 -0.7397
 5973TIP3    H239479   4.911   4.692   0.316  0.9727  1.0514  0.4593
 5974TIP3   OH239480   1.347   6.092   0.324  1.0208  0.0407  0.7000
 5974TIP3    H139481   1.376   6.079   0.414 -1.3586  0.7614  1.6498
 5974TIP3    H239482   1.425   6.124   0.278  2.1520  0.2214  2.6188
 5975TIP3   OH239483   6.009   3.150   0.168 -0.4210  0.1092  0.6885
 5975TIP3    H139484   5.946   3.123   0.101 -0.2601 -1.8719  1.2658
 5975TIP3    H239485   6.086   3.178   0.118 -1.8379  3.1039 -0.0520
 5976TIP3   OH239486   0.028   1.373   1.336  0.1751 -0.2814 -0.0486
 5976TIP3    H139487  -0.057   1.383   1.380  0.1086 -0.2079 -0.1932
 5976TIP3    H239488   0.040   1.278   1.330  0.3792 -0.2961  0.4992
 5977TIP3   OH239489   2.175   0.335   7.997  0.4810  0.1572  0.1600
 5977TIP3    H139490   2.112   0.380   7.941 -0.6787 -0.6712  0.7530
 5977TIP3    H239491   2.161   0.242   7.978  0.3684 -0.1156  1.5054
 5978TIP3   OH239492   4.858   0.238   1.980  0.4035  0.1053 -0.3435
 5978TIP3    H139493   4.820   0.307   2.033  1.1946  0.1768  0.1304
 5978TIP3    H239494   4.946   0.269   1.958  1.3410 -1.3572  1.1095
 5979TIP3   OH239495   2.841   5.274   1.341 -0.1425 -0.1301 -0.3428
 5979TIP3    H139496   2.871   5.285   1.431 -0.6068 -1.6939  0.0252
 5979TIP3    H239497   2.919   5.249   1.292 -0.2770 -1.4632  0.0798
 5980TIP3   OH239498   2.875   6.247   3.668  0.0583  0.1924 -0.1050
 5980TIP3    H139499   2.798   6.211   3.623  0.0944  1.6760 -1.4185
 5980TIP3    H239500   2.948   6.196   3.634 -0.0253  0.6823 -1.0336
 5981TIP3   OH239501   4.187   2.681   0.606  0.5200  0.8401  0.3863
 5981TIP3    H139502   4.179   2.681   0.701  1.4325  0.6177  0.4658
 5981TIP3    H239503   4.100   2.654   0.575  0.1642  1.0883  1.1422
 5982TIP3   OH239504   5.371   0.714   0.628 -0.3685 -0.2831 -0.0662
 5982TIP3    H139505   5.364   0.630   0.582  1.5571 -0.7097  0.3315
 5982TIP3    H239506   5.396   0.691   0.717 -0.0120  0.6998  0.0993
 5983TIP3   OH239507   1.611   4.777   1.256 -0.2257  0.1244  0.0314
 5983TIP3    H139508   1.641   4.694   1.292  0.2735  1.2956  2.5263
 5983TIP3    H239509   1.516   4.767   1.249 -0.4414  0.0239  2.3867
 5984TIP3   OH239510   3.940   6.336   1.790  0.0817  0.3270 -0.2339
 5984TIP3    H139511   4.025   6.348   1.746 -0.0149 -1.5314 -1.0503
 5984TIP3    H239512   3.900   6.262   1.743 -0.6057 -0.9321  2.1689
 5985TIP3   OH239513   4.248   0.790   0.030  0.3910 -0.0819 -0.0259
 5985TIP3    H139514   4.180   0.726   0.052 -1.3250  1.3503 -0.9572
 5985TIP3    H239515   4.280   0.763  -0.056  0.0614 -0.0067 -0.1728
 5986TIP3   OH239516   5.205   4.228   1.789 -0.1475  0.5800  0.0049
 5986TIP3    H139517   5.217   4.255   1.880  0.4255 -1.8696  0.7281
 5986TIP3    H239518   5.276   4.272   1.741  0.1264  1.1423  0.9145
 5987TIP3   OH239519   3.988   6.318   2.240  0.1128  0.0314 -0.4871
 5987TIP3    H139520   4.083   6.326   2.242  0.1152  0.0742 -0.8001
 5987TIP3    H239521   3.964   6.327   2.148 -0.4310  2.7611 -0.1621
 5988TIP3   OH239522   2.001   4.570   2.478 -0.2078 -0.4172  0.8132
 5988TIP3    H139523   2.013   4.548   2.386 -0.9505 -2.0566  1.0806
 5988TIP3    H239524   1.910   4.545   2.497 -0.0663 -0.0956  1.9893
 5989TIP3   OH239525   1.893   6.675   3.087 -0.2081 -0.3141 -0.1701
 5989TIP3    H139526   1.905   6.701   3.178 -1.1564  1.6379 -0.5660
 5989TIP3    H239527   1.833   6.601   3.090 -0.6797  0.0997  0.7617
 5990TIP3   OH239528   6.767   2.555   7.829 -0.4573 -0.4328  0.0952
 5990TIP3    H139529   6.800   2.470   7.858  0.1136  0.0337  0.8510
 5990TIP3    H239530   6.672   2.547   7.836 -0.4349 -1.1672 -0.3111
 5991TIP3   OH239531   5.500   4.849   1.363 -0.9316 -0.0627  0.1002
 5991TIP3    H139532   5.423   4.901   1.339 -0.0498  1.8941  1.2320
 5991TIP3    H239533   5.487   4.831   1.457  0.1825  0.6895  0.4113
 5992TIP3   OH239534   1.702   3.701   2.736  0.5165  0.3035  0.3480
 5992TIP3    H139535   1.729   3.791   2.755  1.1856  0.2830 -0.4411
 5992TIP3    H239536   1.775   3.664   2.686 -0.5557 -0.0604 -1.0242
 5993TIP3   OH239537   0.816   2.858   1.051  0.6605  0.1953 -0.3500
 5993TIP3    H139538   0.802   2.807   0.971  0.6007 -1.4434  0.6600
 5993TIP3    H239539   0.765   2.938   1.037 -1.5808 -1.2346 -0.8834
 5994TIP3   OH239540   1.804   4.352   0.894 -0.2256 -0.5458  0.1286
 5994TIP3    H139541   1.729   4.330   0.838  1.0386 -2.8856 -0.7971
 5994TIP3    H239542   1.770   4.344   0.983 -1.6944  0.9608 -0.2557
 5995TIP3   OH239543   1.955   5.739   1.816  0.1040  0.4584  0.7628
 5995TIP3    H139544   1.888   5.673   1.834  0.7221 -0.1628  0.8481
 5995TIP3    H239545   1.907   5.813   1.778 -0.4643 -0.4856 -0.4137
 5996TIP3   OH239546   5.944   2.990   2.650  0.3745 -0.3096 -0.1965
 5996TIP3    H139547   5.959   2.917   2.590 -0.5679 -1.7671  1.2612
 5996TIP3    H239548   5.851   3.009   2.643  0.2340 -0.5596  0.8435
 5997TIP3   OH239549   1.764   4.021   1.952  0.0552 -0.3167 -0.3343
 5997TIP3    H139550   1.824   3.977   2.013  1.7023 -0.2468 -1.8279
 5997TIP3    H239551   1.714   3.950   1.912  0.3479 -0.5370 -0.3126
 5998TIP3   OH239552   1.638   1.249   3.886 -0.4601 -0.0259  0.1572
 5998TIP3    H139553   1.598   1.314   3.829 -0.5015  1.8463  2.1751
 5998TIP3    H239554   1.574   1.178   3.891 -1.9722  1.3088  0.5188
 5999TIP3   OH239555   6.527   6.608   2.201  0.1775 -0.3155  0.4552
 5999TIP3    H139556   6.460   6.565   2.255  0.9502 -1.1730  0.7600
 5999TIP3    H239557   6.516   6.568   2.114  0.4747 -0.6707  0.5779
 6000TIP3   OH239558   6.148   6.397   1.707  0.2589  0.1702 -0.0782
 6000TIP3    H139559   6.066   6.362   1.742 -0.0225  1.0468  0.1480
 6000TIP3    H239560   6.124   6.477   1.661  0.8923  0.0437 -0.6558
 6001TIP3   OH239561   5.943   6.535   2.328  0.1192 -0.2640 -0.2395
 6001TIP3    H139562   5.946   6.443   2.302  1.0715 -0.7224  1.3596
 6001TIP3    H239563   5.937   6.533   2.424 -0.9874  1.3421 -0.2242
 6002TIP3   OH239564   0.414   3.864   2.221  0.2065 -0.3516 -0.8416
 6002TIP3    H139565   0.477   3.820   2.164  0.7603 -0.8243  0.0999
 6002TIP3    H239566   0.435   3.831   2.309 -1.3423 -0.4814 -0.5024
 6003TIP3   OH239567   0.704   6.459   8.370  0.2847 -0.0731 -0.0462
 6003TIP3    H139568   0.656   6.444   8.289  1.2275  0.0694 -0.6361
 6003TIP3    H239569   0.668   6.395   8.431 -1.5395  0.8238 -0.0856
 6004TIP3   OH239570   1.864   0.287   1.559  0.3978 -1.0584 -0.3557
 6004TIP3    H139571   1.930   0.295   1.628  1.9261  2.4243 -2.0270
 6004TIP3    H239572   1.914   0.261   1.481 -1.0936 -3.5418 -0.5888
 6005TIP3   OH239573   4.288   2.003   3.211  0.2313 -0.1325 -0.6162
 6005TIP3    H139574   4.340   2.052   3.274  3.2863  0.0873 -3.0315
 6005TIP3    H239575   4.201   1.999   3.249  0.6053  4.2624  1.3023
 6006TIP3   OH239576   1.288   1.823   0.677 -0.0058  0.0547 -0.0864
 6006TIP3    H139577   1.364   1.877   0.700 -0.4842  0.5693  0.2888
 6006TIP3    H239578   1.251   1.796   0.760 -0.5504  0.2468 -0.2627
 6007TIP3   OH239579   4.017   2.574   2.329 -0.0895  0.3241 -0.3234
 6007TIP3    H139580   3.932   2.545   2.296  0.3286 -0.4457 -0.7597
 6007TIP3    H239581   3.998   2.655   2.377 -1.0886  0.0649 -0.2564
 6008TIP3   OH239582   0.657   6.143   3.038  0.3464 -0.2104 -0.0496
 6008TIP3    H139583   0.683   6.228   3.074  1.2204 -1.1412  1.6366
 6008TIP3    H239584   0.564   6.153   3.018  0.9689  1.9739 -2.4916
 6009TIP3   OH239585   0.872   2.211   1.219 -0.0878 -0.2246  0.1967
 6009TIP3    H139586   0.812   2.282   1.238 -0.4369  0.2035 -2.1822
 6009TIP3    H239587   0.958   2.253   1.209 -0.1926 -0.1904 -0.6436
 6010TIP3   OH239588   3.349   3.270   2.451  0.2208  0.5484  0.3048
 6010TIP3    H139589   3.338   3.302   2.541  0.3149 -0.5680  0.7246
 6010TIP3    H239590   3.444   3.266   2.439  0.2348  1.8576 -0.2958
 6011TIP3   OH239591   3.168   3.380   1.652  0.5650 -0.1433 -0.3175
 6011TIP3    H139592   3.210   3.464   1.670 -0.5263  0.3414  0.0635
 6011TIP3    H239593   3.187   3.363   1.560  3.2232 -0.9150  0.2793
 6012TIP3   OH239594   0.453   0.021   1.043 -1.0754 -0.9249 -0.7006
 6012TIP3    H139595   0.406   0.085   0.989 -3.4064 -2.0792 -0.1952
 6012TIP3    H239596   0.453   0.060   1.130 -1.6567 -1.1641 -0.5854
 6013TIP3   OH239597   0.325   4.273   0.044 -0.4074  0.0638 -0.1865
 6013TIP3    H139598   0.293   4.265  -0.046  0.4354 -2.4854 -0.3293
 6013TIP3    H239599   0.357   4.363   0.050 -2.2778  0.8989 -1.7869
 6014TIP3   OH239600   6.280   1.918   1.678 -0.2135  0.2451  0.2302
 6014TIP3    H139601   6.215   1.961   1.734  0.0237  0.3259  0.4413
 6014TIP3    H239602   6.259   1.824   1.685 -2.0371  0.3981 -1.8148
 6015TIP3   OH239603   4.803   0.291   0.507 -0.4259  0.1638 -0.1080
 6015TIP3    H139604   4.783   0.384   0.499 -0.8108  0.0804 -0.1397
 6015TIP3    H239605   4.837   0.267   0.421  1.7087  0.7430  0.5209
 6016TIP3   OH239606   3.451   1.800   0.364  0.1404 -0.3100  0.2374
 6016TIP3    H139607   3.368   1.780   0.319  0.5312  0.6954 -0.9870
 6016TIP3    H239608   3.428   1.869   0.426 -0.1031 -0.6336  0.5110
 6017TIP3   OH239609   0.362   5.243   1.336  0.3163  0.5407 -0.0657
 6017TIP3    H139610   0.270   5.236   1.311  0.3145  0.0527  0.0684
 6017TIP3    H239611   0.410   5.224   1.255  0.3012  0.7266 -0.1191
 6018TIP3   OH239612   4.734   6.423   8.105  0.0989 -0.1079  0.2541
 6018TIP3    H139613   4.676   6.386   8.039  1.9375 -0.8732 -1.0114
 6018TIP3    H239614   4.726   6.518   8.094 -0.3738 -0.2197 -0.4000
 6019TIP3   OH239615   4.589   3.811   8.329 -0.5182 -0.2780 -0.0193
 6019TIP3    H139616   4.616   3.842   8.416 -0.7460  0.3718 -0.1762
 6019TIP3    H239617   4.592   3.716   8.336 -2.7971 -0.3320  1.4480
 6020TIP3   OH239618   2.687   6.707   1.675 -0.2631  0.8470 -0.6847
 6020TIP3    H139619   2.672   6.778   1.612 -0.2143 -0.0063 -1.6837
 6020TIP3    H239620   2.614   6.713   1.736 -0.8590  1.0709 -1.4102
 6021TIP3   OH239621   6.488   0.601   0.433 -0.6775  0.1357 -0.2963
 6021TIP3    H139622   6.458   0.618   0.522 -2.5247  1.3515 -1.0798
 6021TIP3    H239623   6.525   0.513   0.437  0.4591  0.6423  1.9145
 6022TIP3   OH239624   0.148   4.601   3.042 -0.1242 -0.5175  0.5863
 6022TIP3    H139625   0.160   4.616   2.948  2.2764  0.6824  1.0134
 6022TIP3    H239626   0.142   4.506   3.051 -0.7687 -0.6297 -0.7840
 6023TIP3   OH239627   1.280   6.475   0.380 -0.5445 -0.3708  0.3068
 6023TIP3    H139628   1.332   6.497   0.458 -0.1017 -0.6128  0.0827
 6023TIP3    H239629   1.246   6.387   0.398  0.6634 -0.9894 -0.3358
 6024TIP3   OH239630   5.430   1.547   2.015  0.2586  0.3350 -0.1547
 6024TIP3    H139631   5.517   1.570   2.048  0.1526  1.9786 -0.9474
 6024TIP3    H239632   5.405   1.621   1.960 -1.6058 -0.1734 -0.0307
 6025TIP3   OH239633   0.592   0.165   8.010 -0.2700 -0.4617 -0.6224
 6025TIP3    H139634   0.609   0.119   7.928 -0.5622  0.0416 -0.9739
 6025TIP3    H239635   0.538   0.240   7.984  0.8730  0.5526 -0.2121
 6026TIP3   OH239636   2.422   2.850   3.011  0.2845  0.1959 -0.3699
 6026TIP3    H139637   2.423   2.822   3.103 -0.3077  0.7570 -0.1864
 6026TIP3    H239638   2.515   2.852   2.986  0.3666 -1.3719 -0.2326
 6027TIP3   OH239639   5.354   0.270   3.088 -0.0854 -0.3916  0.0736
 6027TIP3    H139640   5.426   0.236   3.141  0.3293  1.3015  0.6517
 6027TIP3    H239641   5.280   0.277   3.148  0.1150  0.6371  0.2131
 6028TIP3   OH239642   6.246   5.409   3.654  0.0085  0.5875  0.3049
 6028TIP3    H139643   6.179   5.340   3.654  0.6972 -0.1763  2.9928
 6028TIP3    H239644   6.329   5.362   3.659  0.7606  1.5808 -1.6330
 6029TIP3   OH239645   4.063   4.500   1.161  0.3487 -0.1750  0.5402
 6029TIP3    H139646   4.025   4.458   1.238  2.1259 -1.2246  0.9173
 6029TIP3    H239647   4.076   4.591   1.187  3.0753 -0.9662  2.4587
 6030TIP3   OH239648   0.641   4.786   8.654  0.1394 -0.6412  0.6443
 6030TIP3    H139649   0.632   4.704   8.604  0.3328 -0.5403  0.4416
 6030TIP3    H239650   0.735   4.796   8.667  0.2622  0.3777 -0.7426
 6031TIP3   OH239651   5.990   2.734   0.197  0.2951 -0.0985 -0.1139
 6031TIP3    H139652   5.994   2.780   0.280 -2.2576 -1.4149  0.8456
 6031TIP3    H239653   5.978   2.803   0.132 -1.0351  0.7846  1.0105
 6032TIP3   OH239654   4.227   2.801   8.115 -0.3506 -0.0053  0.1284
 6032TIP3    H139655   4.198   2.884   8.078  0.5539  0.4713  0.4625
 6032TIP3    H239656   4.190   2.734   8.057  0.5668  0.6920 -1.3211
 6033TIP3   OH239657   3.397   0.252   2.542  0.2168 -0.0529 -0.5477
 6033TIP3    H139658   3.412   0.201   2.462 -1.8700  0.0550 -1.0478
 6033TIP3    H239659   3.329   0.314   2.518  0.5405  0.9159  0.9503
 6034TIP3   OH239660   0.992   0.719   2.708  0.9496 -0.0290 -0.3591
 6034TIP3    H139661   1.021   0.642   2.659 -0.5608  0.2439 -1.7926
 6034TIP3    H239662   0.930   0.763   2.649 -0.3294  0.7932  1.4759
 6035TIP3   OH239663   4.702   0.682   0.725  0.0066  0.6350 -0.2304
 6035TIP3    H139664   4.706   0.751   0.658  1.2922 -1.3122 -2.3107
 6035TIP3    H239665   4.653   0.612   0.683 -0.6690 -0.0212  1.5812
 6036TIP3   OH239666   3.194   4.160   1.612  0.0481  0.4606  0.2292
 6036TIP3    H139667   3.207   4.089   1.548 -0.0380  1.2467 -0.6829
 6036TIP3    H239668   3.269   4.218   1.597 -1.2730  1.9523 -0.9256
 6037TIP3   OH239669   4.465   2.484   0.554 -0.1762  0.7902 -0.3091
 6037TIP3    H139670   4.393   2.536   0.519 -1.0942 -0.0139  0.3335
 6037TIP3    H239671   4.427   2.438   0.629  0.0480 -2.2896 -1.9439
 6038TIP3   OH239672   5.969   0.603   2.535  0.0701  0.2206  0.2935
 6038TIP3    H139673   5.946   0.696   2.547 -2.2824 -0.3020  0.2284
 6038TIP3    H239674   5.940   0.561   2.615  0.1492 -0.6295 -0.1203
 6039TIP3   OH239675   3.967   0.142   2.912  0.3560  0.2250 -0.0004
 6039TIP3    H139676   4.029   0.181   2.973 -2.6575  0.8542  2.9513
 6039TIP3    H239677   3.932   0.066   2.959 -2.1085  0.7311 -0.8887
 6040TIP3   OH239678   5.210   4.465   8.237 -0.4773  0.8897  0.1387
 6040TIP3    H139679   5.124   4.429   8.259 -0.1219 -1.6864 -2.1547
 6040TIP3    H239680   5.191   4.541   8.181 -1.2831  0.5338 -0.0904
 6041TIP3   OH239681   1.971   3.763   8.580 -0.1329  0.0676  0.4525
 6041TIP3    H139682   1.950   3.672   8.604  1.6423 -0.7726 -0.8945
 6041TIP3    H239683   2.015   3.755   8.495 -0.4640  2.2716  0.0179
 6042TIP3   OH239684   3.996   4.765   0.762  0.0479 -0.6349 -0.0811
 6042TIP3    H139685   3.939   4.713   0.818 -2.6948  3.9050  1.9496
 6042TIP3    H239686   4.081   4.764   0.807 -0.3500 -2.0531  0.6865
 6043TIP3   OH239687   6.257   1.649   1.874  0.1833 -0.0302  0.4310
 6043TIP3    H139688   6.219   1.566   1.904 -1.8322  0.8524  0.4428
 6043TIP3    H239689   6.237   1.711   1.943  1.4490  0.5526  0.2984
 6044TIP3   OH239690   2.621   0.616   0.897 -0.0592  0.2847  0.2596
 6044TIP3    H139691   2.702   0.635   0.945 -0.8807  1.5226  1.2087
 6044TIP3    H239692   2.600   0.696   0.851 -1.0105  0.1530  0.4364
 6045TIP3   OH239693   5.005   1.941   3.213 -0.8907 -0.3487 -0.4399
 6045TIP3    H139694   4.952   1.874   3.256 -0.5993 -1.5671 -1.8755
 6045TIP3    H239695   5.028   1.902   3.128 -0.1678  1.3265 -1.0543
 6046TIP3   OH239696   5.047   4.417   1.949  0.2559  0.0006  0.6403
 6046TIP3    H139697   4.993   4.370   2.012 -0.9835  1.3236  0.6244
 6046TIP3    H239698   5.094   4.482   2.002  0.8939 -0.3144  0.4757
 6047TIP3   OH239699   3.803   3.099   1.833 -0.2414 -0.2353 -0.6899
 6047TIP3    H139700   3.787   3.193   1.827  0.4768  0.2070  2.6074
 6047TIP3    H239701   3.717   3.061   1.851 -0.0937  0.2949  1.4633
 6048TIP3   OH239702   4.282   5.859   3.327  0.1812 -0.0975 -0.0769
 6048TIP3    H139703   4.308   5.819   3.244 -1.4523 -2.7253  0.5547
 6048TIP3    H239704   4.326   5.806   3.394  0.6463  1.3333  0.7939
 6049TIP3   OH239705   0.682   4.849   2.879  0.4072  0.5740  0.2662
 6049TIP3    H139706   0.636   4.930   2.860  1.8053  1.1776 -0.7260
 6049TIP3    H239707   0.644   4.784   2.819 -0.4626  0.5704  0.8104
 6050TIP3   OH239708   2.792   3.826   8.116 -0.8599  0.7491 -0.1628
 6050TIP3    H139709   2.712   3.862   8.077 -0.0817  1.2745 -1.3159
 6050TIP3    H239710   2.806   3.880   8.194 -1.4472  0.8584 -0.1258
 6051TIP3   OH239711   1.394   0.480   2.264  0.4641 -0.3237 -0.3225
 6051TIP3    H139712   1.412   0.390   2.238  0.9482 -1.0820  2.3984
 6051TIP3    H239713   1.447   0.494   2.343  0.4118  2.3657 -0.6588
 6052TIP3   OH239714   5.054   1.351   0.290 -0.0348  0.5318 -0.2706
 6052TIP3    H139715   4.960   1.336   0.300 -0.4280  1.3611 -2.2187
 6052TIP3    H239716   5.060   1.439   0.253  1.3926 -0.1823 -1.8420
 6053TIP3   OH239717   0.549   5.815   1.271 -0.7707  0.5955 -0.1112
 6053TIP3    H139718   0.585   5.809   1.360 -0.8585 -1.3506 -0.1713
 6053TIP3    H239719   0.465   5.768   1.276  0.0359 -1.1147 -1.6045
 6054TIP3   OH239720   1.604   1.009   3.242 -0.5431 -0.2724 -0.2463
 6054TIP3    H139721   1.659   1.050   3.175 -0.2520 -0.6367 -0.2316
 6054TIP3    H239722   1.666   0.973   3.305 -0.6194 -3.4384 -1.7870
 6055TIP3   OH239723   5.576   4.432   0.757  0.5067 -0.0518  0.2633
 6055TIP3    H139724   5.581   4.496   0.687  1.7215  0.7555  1.0540
 6055TIP3    H239725   5.616   4.353   0.721  0.3893  0.1039 -0.2082
 6056TIP3   OH239726   0.297   2.126   1.321 -0.3106  0.1544  0.5277
 6056TIP3    H139727   0.213   2.095   1.355 -0.7799 -0.0853 -0.7908
 6056TIP3    H239728   0.297   2.099   1.229 -0.1890  2.9334 -0.3824
 6057TIP3   OH239729   3.796   6.094   3.581 -0.0253 -0.3121 -0.1201
 6057TIP3    H139730   3.854   6.023   3.607 -2.4026 -2.1740  0.4807
 6057TIP3    H239731   3.854   6.169   3.567  2.4250 -1.9260  0.7588
 6058TIP3   OH239732   3.214   3.575   7.909 -0.1778 -0.4373  0.3722
 6058TIP3    H139733   3.224   3.656   7.959 -1.1264 -1.3166  2.0544
 6058TIP3    H239734   3.124   3.579   7.876 -0.9012 -1.6566  2.0984
 6059TIP3   OH239735   5.656   2.717   1.511 -0.3477  0.3686  0.0615
 6059TIP3    H139736   5.614   2.633   1.532 -0.8890 -0.1163 -2.5929
 6059TIP3    H239737   5.732   2.720   1.568 -1.6924 -0.6988  2.0483
 6060TIP3   OH239738   5.335   2.052   1.550  0.1381 -0.2545 -0.0298
 6060TIP3    H139739   5.381   2.053   1.634  1.3523  0.3944 -0.6649
 6060TIP3    H239740   5.248   2.020   1.571  0.3233  0.1458  1.5217
 6061TIP3   OH239741   5.948   4.715   3.523  0.3532 -0.0421 -0.7551
 6061TIP3    H139742   5.962   4.716   3.429  0.4362 -0.2271 -0.7455
 6061TIP3    H239743   6.031   4.743   3.560  0.5165 -0.5556 -0.7180
 6062TIP3   OH239744   1.694   6.429   1.711  0.7029 -0.6009  0.4087
 6062TIP3    H139745   1.729   6.402   1.796  2.5718  1.2814  0.3125
 6062TIP3    H239746   1.685   6.524   1.718 -1.6524 -0.6723 -0.6524
 6063TIP3   OH239747   5.648   5.901   1.675 -0.3671  0.0045  0.1593
 6063TIP3    H139748   5.740   5.874   1.666 -0.0560  0.6376  1.2381
 6063TIP3    H239749   5.653   5.996   1.689 -0.9334 -0.3178  3.2784
 6064TIP3   OH239750   1.028   5.932   8.045  0.3594 -0.1806  0.3029
 6064TIP3    H139751   0.937   5.932   8.074  0.2628  2.0500  0.1631
 6064TIP3    H239752   1.024   5.959   7.953  1.1909  0.6297  0.4930
 6065TIP3   OH239753   6.548   4.159   3.153  0.1183 -1.1319  0.2381
 6065TIP3    H139754   6.536   4.153   3.058  1.6418  0.1013 -0.0559
 6065TIP3    H239755   6.487   4.094   3.188 -0.5528 -1.5406 -1.5684
 6066TIP3   OH239756   1.760   3.329   8.446 -0.2137 -0.0362  0.1304
 6066TIP3    H139757   1.814   3.333   8.367  0.0165 -0.2833  0.2730
 6066TIP3    H239758   1.725   3.417   8.456 -3.8543 -0.9151 -2.7430
 6067TIP3   OH239759   4.896   3.122   8.038  0.0712  0.0771  0.2867
 6067TIP3    H139760   4.843   3.043   8.031 -0.7963  0.6467  0.2749
 6067TIP3    H239761   4.855   3.183   7.977  0.7036  0.5513  0.3319
 6068TIP3   OH239762   6.598   1.846   1.359 -0.1986 -0.0526  0.3616
 6068TIP3    H139763   6.656   1.910   1.317  1.3162 -1.5971 -0.0227
 6068TIP3    H239764   6.523   1.839   1.300  0.2462  0.3993 -0.2736
 6069TIP3   OH239765   5.163   1.232   0.508  0.4196  0.7842  0.5211
 6069TIP3    H139766   5.238   1.286   0.532  0.6578  1.0519 -0.7418
 6069TIP3    H239767   5.131   1.270   0.426 -0.8910  0.4668  0.8547
 6070TIP3   OH239768   4.073   2.476   1.198  0.3573  0.0575 -0.8214
 6070TIP3    H139769   4.014   2.440   1.132  0.5761 -0.2144 -0.8707
 6070TIP3    H239770   4.038   2.563   1.217 -2.8500 -1.6771  2.5479
 6071TIP3   OH239771   1.832   0.442   3.355 -0.1591  1.0704 -0.1798
 6071TIP3    H139772   1.820   0.384   3.280 -0.5484 -1.0350  1.4395
 6071TIP3    H239773   1.744   0.476   3.373 -0.6678 -0.7431  1.0544
 6072TIP3   OH239774   6.091   6.665   0.172  0.5423 -0.0592  0.5256
 6072TIP3    H139775   6.140   6.614   0.107  0.2868  2.4947 -1.9001
 6072TIP3    H239776   6.005   6.677   0.132  1.1471  3.6953 -0.0034
 6073TIP3   OH239777   4.883   5.523   2.386 -0.0551 -0.1968 -0.6121
 6073TIP3    H139778   4.947   5.463   2.423 -0.3446  0.2292  0.6080
 6073TIP3    H239779   4.864   5.486   2.299  1.0260 -0.9148 -0.5674
 6074TIP3   OH239780   3.860   5.139   1.412 -0.1783  0.3632 -0.2889
 6074TIP3    H139781   3.907   5.057   1.429 -0.3668  0.0703 -1.1366
 6074TIP3    H239782   3.889   5.198   1.482  0.5644 -0.1735 -0.1303
 6075TIP3   OH239783   2.440   1.867   1.368 -0.3523 -0.5627  0.1914
 6075TIP3    H139784   2.457   1.784   1.324 -1.2011  0.3741 -2.0938
 6075TIP3    H239785   2.347   1.883   1.353 -0.0589  1.1113 -0.0121
 6076TIP3   OH239786   6.181   3.189   2.187 -0.0148 -0.1539  0.0171
 6076TIP3    H139787   6.245   3.205   2.118 -0.8368  0.0252 -0.7162
 6076TIP3    H239788   6.223   3.124   2.244 -0.7035 -3.1622 -2.6236
 6077TIP3   OH239789   2.265   4.956   7.742  0.1925 -0.0463  0.0178
 6077TIP3    H139790   2.292   4.876   7.786 -0.9305  0.4212  1.6398
 6077TIP3    H239791   2.188   4.930   7.691 -0.3971  0.0388  0.8351
 6078TIP3   OH239792   3.161   2.939   0.097  0.2665 -0.6049 -0.5486
 6078TIP3    H139793   3.212   2.928   0.177 -1.7428  0.4126  0.9607
 6078TIP3    H239794   3.197   3.018   0.056  0.7916 -0.6944 -0.2731
 6079TIP3   OH239795   2.887   1.016   1.715 -0.3689  0.1947 -0.4533
 6079TIP3    H139796   2.870   1.005   1.622  0.1874  0.4968 -0.5931
 6079TIP3    H239797   2.853   0.936   1.756  0.4829 -0.4758 -1.0472
 6080TIP3   OH239798   6.089   5.728   0.049 -0.0164  0.9038  0.0901
 6080TIP3    H139799   6.036   5.709   0.126  0.7512  1.1570  0.7005
 6080TIP3    H239800   6.026   5.749  -0.019 -0.6982  1.3314  0.8321
 6081TIP3   OH239801   1.233   2.355   1.804 -0.2040 -0.0084  0.1317
 6081TIP3    H139802   1.154   2.310   1.833 -0.1150  0.4957  1.1956
 6081TIP3    H239803   1.228   2.441   1.845  0.4633  0.3402 -0.5071
 6082TIP3   OH239804   2.808   0.478   1.406 -0.3287  0.0721 -0.2330
 6082TIP3    H139805   2.862   0.401   1.387 -1.3666 -0.3002 -1.8653
 6082TIP3    H239806   2.777   0.464   1.495  1.1252 -0.3714  0.2415
 6083TIP3   OH239807   2.069   5.705   7.966  0.2478 -0.0336  0.6262
 6083TIP3    H139808   2.084   5.786   7.918 -2.2396  0.5997  0.7702
 6083TIP3    H239809   2.068   5.637   7.900 -2.1732  0.6999 -0.1771
 6084TIP3   OH239810   0.451   4.429   2.428 -0.6986 -0.0043 -0.1895
 6084TIP3    H139811   0.530   4.446   2.376 -0.3188  1.1383  0.7486
 6084TIP3    H239812   0.379   4.455   2.370 -0.2606  1.7355 -0.0035
 6085TIP3   OH239813   4.135   4.009   3.168  1.0501  0.1904  0.0321
 6085TIP3    H139814   4.184   4.091   3.162 -0.0488  1.0337  1.7585
 6085TIP3    H239815   4.146   3.981   3.259  0.1196 -0.7362 -0.1201
 6086TIP3   OH239816   5.955   6.828   3.430 -0.5062  0.2704 -0.3635
 6086TIP3    H139817   5.938   6.922   3.426  0.2755  0.3768 -1.7202
 6086TIP3    H239818   6.050   6.820   3.420 -0.2833 -0.5708  1.8665
 6087TIP3   OH239819   3.709   3.389   3.983  0.1935  0.4368 -0.1246
 6087TIP3    H139820   3.635   3.406   3.925 -3.1454 -1.3731  3.1340
 6087TIP3    H239821   3.740   3.302   3.956  0.2908  0.6323 -0.6643
 6088TIP3   OH239822   0.992   1.889   1.581  0.0786  0.0957 -0.5525
 6088TIP3    H139823   1.018   1.978   1.607  0.6539  0.1518 -1.2672
 6088TIP3    H239824   1.008   1.887   1.486 -1.7335 -0.1517 -0.8959
 6089TIP3   OH239825   0.067   2.322   7.954  0.0686 -0.0637 -0.1233
 6089TIP3    H139826  -0.014   2.272   7.956 -1.5450  2.2559 -2.0241
 6089TIP3    H239827   0.136   2.256   7.969 -1.7235 -3.2558 -3.8833
 6090TIP3   OH239828   3.416   5.782   1.824 -0.1079  0.0782 -0.0865
 6090TIP3    H139829   3.401   5.701   1.775  1.4288  0.3371 -1.0658
 6090TIP3    H239830   3.368   5.849   1.776 -1.4302 -0.2397  0.7590
 6091TIP3   OH239831   2.345   0.074   1.403  0.1684 -0.3636 -0.6628
 6091TIP3    H139832   2.391   0.063   1.486 -0.1614 -2.2947 -0.6902
 6091TIP3    H239833   2.396   0.140   1.356 -0.0462  1.3156  1.3297
 6092TIP3   OH239834   2.833   2.457   2.756 -0.2330  0.3390  0.4013
 6092TIP3    H139835   2.879   2.403   2.692  0.0097  0.0482  0.8159
 6092TIP3    H239836   2.867   2.545   2.743  0.9518  0.0111  1.1542
 6093TIP3   OH239837   5.907   6.557   0.458  0.2752 -0.1686 -0.0296
 6093TIP3    H139838   5.873   6.493   0.521 -1.0296  0.3286 -0.1980
 6093TIP3    H239839   5.847   6.552   0.384  0.5609  0.7673 -0.3344
 6094TIP3   OH239840   1.364   4.198   8.581  0.2736 -0.1960  0.0160
 6094TIP3    H139841   1.447   4.176   8.540  0.8736  0.2407  0.9598
 6094TIP3    H239842   1.348   4.126   8.643 -0.5433 -0.7673 -0.8165
 6095TIP3   OH239843   0.826   2.649   2.760 -0.0686  0.2183 -0.2105
 6095TIP3    H139844   0.833   2.643   2.665 -3.4234 -1.4020 -0.4878
 6095TIP3    H239845   0.896   2.592   2.792  0.6089  0.1537 -1.7060
 6096TIP3   OH239846   5.725   4.017   1.277 -0.2628  0.4786  0.1989
 6096TIP3    H139847   5.710   3.964   1.199  0.0233 -0.9771  1.1003
 6096TIP3    H239848   5.792   4.080   1.250 -0.8646  0.6480 -0.9964
 6097TIP3   OH239849   1.915   2.256   2.187  0.8848  0.2285  0.2878
 6097TIP3    H139850   1.971   2.235   2.262  2.0681  0.9953 -0.3415
 6097TIP3    H239851   1.977   2.274   2.116 -0.2028 -0.1635 -0.7939
 6098TIP3   OH239852   0.889   3.844   1.032  0.1042  0.3180 -0.0357
 6098TIP3    H139853   0.825   3.858   0.963 -1.0238 -2.4621  0.2911
 6098TIP3    H239854   0.845   3.786   1.095  2.5719 -0.9106  0.7090
 6099TIP3   OH239855   0.687   2.096   8.412  0.0837  0.5094  0.3590
 6099TIP3    H139856   0.717   2.086   8.502 -1.2280 -0.3653  0.7207
 6099TIP3    H239857   0.656   2.010   8.387 -0.6079  1.0012 -0.5416
 6100TIP3   OH239858   0.550   5.985   0.121  0.1257 -0.1443  0.0341
 6100TIP3    H139859   0.540   5.965   0.028 -1.4749 -0.7301  0.3050
 6100TIP3    H239860   0.525   6.077   0.129  1.0662  0.1504 -0.2109
 6101TIP3   OH239861   6.565   3.676   2.066  0.6077 -0.2912 -0.2057
 6101TIP3    H139862   6.492   3.736   2.052  0.3931 -0.5062 -0.0166
 6101TIP3    H239863   6.627   3.697   1.995  0.4695  0.0485 -0.2275
 6102TIP3   OH239864   2.587   0.142   1.600 -0.1810 -0.0776  0.4194
 6102TIP3    H139865   2.571   0.105   1.687  1.2354  1.1585  1.2502
 6102TIP3    H239866   2.573   0.236   1.611  2.7263  0.4892  0.0689
 6103TIP3   OH239867   1.906   6.667   1.580 -0.8992 -0.3048 -0.2756
 6103TIP3    H139868   1.945   6.585   1.551  1.0540  0.5182 -0.1071
 6103TIP3    H239869   1.957   6.736   1.538 -2.4495  0.8624 -0.3752
 6104TIP3   OH239870   3.405   3.591   2.931 -0.3445  0.7908  0.1400
 6104TIP3    H139871   3.451   3.509   2.949 -0.6447  1.1206  2.8896
 6104TIP3    H239872   3.443   3.654   2.992 -0.1201  2.7527 -1.9160
 6105TIP3   OH239873   2.650   0.678   2.301 -0.9014 -0.6578  0.0485
 6105TIP3    H139874   2.626   0.630   2.222 -2.0849  1.3863 -0.9112
 6105TIP3    H239875   2.571   0.726   2.326  0.3869  1.4489  0.4199
 6106TIP3   OH239876   1.206   5.852   2.398  0.5342 -0.5524  0.0207
 6106TIP3    H139877   1.202   5.839   2.493 -0.9971 -1.1526 -0.0908
 6106TIP3    H239878   1.244   5.939   2.387  0.3554 -0.3054  1.2024
 6107TIP3   OH239879   2.838   6.182   8.635 -0.1683 -0.2129 -0.1038
 6107TIP3    H139880   2.908   6.242   8.661 -1.1182  0.3144  1.3855
 6107TIP3    H239881   2.883   6.101   8.610  0.9411 -0.8438  3.4046
 6108TIP3   OH239882   0.127   2.508   1.599  0.2207 -0.8242  0.2694
 6108TIP3    H139883   0.167   2.516   1.686  2.1443 -2.6604 -0.3714
 6108TIP3    H239884   0.201   2.492   1.540 -1.0963 -0.1938 -1.6542
 6109TIP3   OH239885   3.439   3.682   7.446  0.1104 -0.3152 -0.4588
 6109TIP3    H139886   3.411   3.765   7.406 -0.3988 -1.0466 -1.6673
 6109TIP3    H239887   3.362   3.651   7.493  0.3023 -0.1242 -0.0043
 6110TIP3   OH239888   3.894   0.420   8.551  0.5649 -0.9258 -0.8475
 6110TIP3    H139889   3.831   0.408   8.622  1.7519  0.5203  0.5177
 6110TIP3    H239890   3.974   0.379   8.583  1.0643 -0.4294 -1.4341
 6111TIP3   OH239891   1.109   1.340   8.509  0.1405  0.5393 -0.1584
 6111TIP3    H139892   1.050   1.413   8.526  1.3965  1.7931 -0.9448
 6111TIP3    H239893   1.098   1.282   8.584 -1.0424  1.4378  0.3866
 6112TIP3   OH239894   2.749   0.127   1.345  0.1344  0.3244  0.4224
 6112TIP3    H139895   2.687   0.177   1.398  0.6834  0.8754  0.5591
 6112TIP3    H239896   2.711   0.040   1.340 -1.0701  0.8531 -0.1822
 6113TIP3   OH239897   3.879   5.291   0.423 -0.0738 -0.5027 -0.4648
 6113TIP3    H139898   3.911   5.209   0.385  0.5060 -0.2271 -0.5815
 6113TIP3    H239899   3.902   5.285   0.516 -1.2364 -1.0522 -0.1955
 6114TIP3   OH239900   0.651   4.662   3.386 -0.3883  0.3732  0.1522
 6114TIP3    H139901   0.565   4.705   3.383 -0.5726  0.0543  0.7743
 6114TIP3    H239902   0.647   4.605   3.463  0.3544  0.2992  0.1449
 6115TIP3   OH239903   2.993   4.671   0.622  0.0220  0.0164  0.4450
 6115TIP3    H139904   2.926   4.672   0.690  0.9265 -0.4246  1.3610
 6115TIP3    H239905   3.017   4.763   0.609  0.5822  0.0300  1.4829
 6116TIP3   OH239906   2.308   4.514   1.012  0.2923 -1.0572  0.5570
 6116TIP3    H139907   2.214   4.519   1.029 -0.5919  1.1216 -3.7302
 6116TIP3    H239908   2.321   4.427   0.975 -1.0274 -0.0715 -2.5978
 6117TIP3   OH239909   5.283   5.259   2.264  0.1276 -0.2791  0.1235
 6117TIP3    H139910   5.276   5.164   2.273  2.0782 -0.3857  1.0770
 6117TIP3    H239911   5.376   5.275   2.248 -0.0537  1.5027  0.5657
 6118TIP3   OH239912   0.391   1.282   0.731  0.4082  0.1488 -0.1519
 6118TIP3    H139913   0.321   1.338   0.696  0.7606  0.1892 -0.7937
 6118TIP3    H239914   0.386   1.296   0.826  0.1347  0.8527 -0.2596
 6119TIP3   OH239915   4.007   1.379   0.708 -0.1189 -0.0642 -0.0705
 6119TIP3    H139916   4.012   1.350   0.799 -0.5137 -1.3897 -0.4368
 6119TIP3    H239917   3.952   1.312   0.665  0.0101  0.5667 -1.2585
 6120TIP3   OH239918   3.699   0.127   2.453 -0.1602 -0.2383  0.1996
 6120TIP3    H139919   3.718   0.080   2.534 -0.4076 -1.4331 -0.4127
 6120TIP3    H239920   3.672   0.059   2.391 -0.0020  0.6514 -0.8866
 6121TIP3   OH239921   1.007   6.536   8.568 -0.1118  0.4304  0.1303
 6121TIP3    H139922   1.080   6.475   8.579 -1.6799 -1.5331  0.2304
 6121TIP3    H239923   0.991   6.537   8.474  1.3777  2.6095 -0.1784
 6122TIP3   OH239924   1.435   6.043   1.628 -0.1273  0.1117 -0.0609
 6122TIP3    H139925   1.434   6.052   1.723  2.1372 -0.4154  0.0608
 6122TIP3    H239926   1.500   6.107   1.598  0.3668 -0.8344 -1.0955
 6123TIP3   OH239927   4.886   4.871   1.384  0.0912 -0.3176 -0.0974
 6123TIP3    H139928   4.851   4.783   1.383  1.2667 -0.8357 -2.9773
 6123TIP3    H239929   4.978   4.860   1.408 -0.4188  0.5340  2.6140
 6124TIP3   OH239930   3.978   4.110   8.175 -0.5521 -0.0490  0.4798
 6124TIP3    H139931   4.013   4.149   8.095  0.2371  0.5055  1.0768
 6124TIP3    H239932   4.043   4.130   8.242  1.0503 -4.2896  0.4599
 6125TIP3   OH239933   0.786   1.615   3.294  0.5706  0.3394 -0.0447
 6125TIP3    H139934   0.880   1.607   3.306  0.6343  1.4700  0.3394
 6125TIP3    H239935   0.753   1.646   3.378  0.2360  2.5486 -0.9100
 6126TIP3   OH239936   3.146   3.640   2.294  0.0407  0.4297  0.0245
 6126TIP3    H139937   3.152   3.553   2.255  0.9351 -0.1050  1.3336
 6126TIP3    H239938   3.065   3.638   2.345 -1.8967  1.5747 -2.7313
 6127TIP3   OH239939   0.512   0.491   3.639 -0.5328 -0.4808 -0.5084
 6127TIP3    H139940   0.603   0.464   3.649 -0.4201 -0.2371 -0.8543
 6127TIP3    H239941   0.512   0.584   3.662 -0.3607 -0.0295 -2.1920
 6128TIP3   OH239942   1.257   4.423   2.449 -0.5035 -0.3215  0.4719
 6128TIP3    H139943   1.312   4.499   2.466  1.1092 -1.8401  2.5690
 6128TIP3    H239944   1.254   4.417   2.353 -0.5784  2.2104  0.2365
 6129TIP3   OH239945   1.162   0.590   8.338  1.0772  0.0273 -0.4376
 6129TIP3    H139946   1.194   0.500   8.336  0.8511 -0.0688 -2.8118
 6129TIP3    H239947   1.240   0.643   8.355  1.4507 -0.5391 -0.3693
 6130TIP3   OH239948   2.861   0.822   0.182  0.0915  0.2409 -0.6588
 6130TIP3    H139949   2.784   0.869   0.153 -0.9272 -0.2087  1.1464
 6130TIP3    H239950   2.842   0.798   0.273  0.1800 -4.3241 -1.6162
 6131TIP3   OH239951   5.735   2.814   0.363  0.1028 -0.4684 -0.0408
 6131TIP3    H139952   5.673   2.831   0.292 -0.1810  1.1115  0.5476
 6131TIP3    H239953   5.749   2.719   0.360 -1.0889 -0.6401 -1.2200
 6132TIP3   OH239954   4.271   2.805   7.754 -0.7907 -0.2991  0.8207
 6132TIP3    H139955   4.236   2.893   7.766 -0.6970  0.1912 -1.8787
 6132TIP3    H239956   4.203   2.759   7.704  0.0500 -1.1131  0.3973
 6133TIP3   OH239957   4.487   2.020   8.591  0.3875  0.7880 -1.3705
 6133TIP3    H139958   4.496   2.105   8.636  1.4958  1.1043 -2.1676
 6133TIP3    H239959   4.514   1.955   8.656 -0.6428  1.0026 -0.6907
 6134TIP3   OH239960   6.458   3.385   2.133 -0.2243 -0.3347  0.1169
 6134TIP3    H139961   6.444   3.471   2.092 -0.1554  0.4853  1.7124
 6134TIP3    H239962   6.547   3.361   2.109 -0.8165 -0.8053 -1.7701
 6135TIP3   OH239963   5.880   0.674   3.489 -0.1619 -0.0514  0.0981
 6135TIP3    H139964   5.837   0.756   3.513 -0.3357 -0.4529  1.2002
 6135TIP3    H239965   5.816   0.607   3.509  0.3871 -0.5410  0.2320
 6136TIP3   OH239966   5.141   1.442   2.823 -0.0730  0.3455 -0.2451
 6136TIP3    H139967   5.195   1.485   2.890  0.3764  2.4056 -1.8512
 6136TIP3    H239968   5.052   1.474   2.840 -0.0973  0.2255 -0.1431
 6137TIP3   OH239969   5.036   4.488   1.634 -0.4554 -0.2387 -0.0451
 6137TIP3    H139970   5.115   4.461   1.680 -0.7493  1.3044  1.4596
 6137TIP3    H239971   4.981   4.528   1.702 -2.0341 -0.2211 -1.2728
 6138TIP3   OH239972   3.342   3.521   3.298  0.3984 -0.4899  0.6332
 6138TIP3    H139973   3.401   3.462   3.251 -0.9913 -0.5283 -1.1989
 6138TIP3    H239974   3.360   3.505   3.390  0.9187 -2.9098  0.1908
 6139TIP3   OH239975   6.236   5.137   2.112 -0.0368 -0.2829 -0.6053
 6139TIP3    H139976   6.249   5.219   2.065  0.5299 -0.9676 -1.6800
 6139TIP3    H239977   6.145   5.139   2.140  0.3800  1.4388  0.8407
 6140TIP3   OH239978   4.476   3.790   7.650 -0.1199  0.1605  0.4167
 6140TIP3    H139979   4.565   3.788   7.615  0.6607  0.2734  2.2473
 6140TIP3    H239980   4.420   3.809   7.575  1.3340 -0.4928 -0.8856
 6141TIP3   OH239981   0.775   0.243   0.011  0.4402  0.8305 -0.8507
 6141TIP3    H139982   0.819   0.307  -0.045  1.5647  1.8519  1.1015
 6141TIP3    H239983   0.710   0.294   0.060 -0.4203 -0.0125 -1.0824
 6142TIP3   OH239984   1.684   6.499   0.015  0.1655 -0.7547 -0.2878
 6142TIP3    H139985   1.718   6.418   0.054  0.5460 -0.0612  0.8694
 6142TIP3    H239986   1.589   6.489   0.018  0.2080 -1.1717 -0.1877
 6143TIP3   OH239987   3.577   3.251   0.273  0.2975  0.2325 -0.3797
 6143TIP3    H139988   3.599   3.325   0.215 -1.9116  1.5363  0.3111
 6143TIP3    H239989   3.540   3.293   0.351  1.2436 -1.5616  1.0921
 6144TIP3   OH239990   3.644   0.706   0.627  0.0604  0.1445  0.5637
 6144TIP3    H139991   3.609   0.794   0.640  1.0767  0.6114  0.2827
 6144TIP3    H239992   3.622   0.685   0.536 -0.1842  0.1025  0.6314
 6145TIP3   OH239993   3.419   4.426   0.994 -0.0613 -0.1360 -0.3840
 6145TIP3    H139994   3.329   4.396   0.999  0.5696 -1.9368  1.4949
 6145TIP3    H239995   3.461   4.367   0.931 -0.1101  0.4824 -1.0015
 6146TIP3   OH239996   4.466   3.889   2.278 -0.1123  0.0867 -0.9988
 6146TIP3    H139997   4.449   3.833   2.202 -1.0866 -0.0404 -0.6924
 6146TIP3    H239998   4.528   3.838   2.331  0.4167  0.0886 -1.5895
 6147TIP3   OH239999   3.300   1.106   3.134  0.4011 -0.0884 -0.4870
 6147TIP3    H140000   3.303   1.049   3.210  1.3734  0.2645 -0.2507
 6147TIP3    H240001   3.388   1.141   3.126  0.1043  0.5235 -1.2870
 6148TIP3   OH240002   5.562   5.902   0.164  0.2871  0.0768 -0.0931
 6148TIP3    H140003   5.583   5.809   0.177  0.8196  0.1541 -0.3849
 6148TIP3    H240004   5.469   5.908   0.187  0.1402 -0.6108 -0.4522
 6149TIP3   OH240005   1.476   5.813   3.686 -0.2782  0.3290 -0.4884
 6149TIP3    H140006   1.502   5.822   3.594  0.0640  1.3476 -0.3089
 6149TIP3    H240007   1.529   5.878   3.732  1.0457 -1.5204  0.7451
 6150TIP3   OH240008   1.855   1.087   2.556  0.5727  0.6421 -0.3168
 6150TIP3    H140009   1.787   1.145   2.590  0.6383 -0.4440  1.8690
 6150TIP3    H240010   1.809   1.006   2.533  0.9757  0.2231  0.3115
 6151TIP3   OH240011   3.552   1.755   1.807 -0.0657 -0.4772  0.4234
 6151TIP3    H140012   3.466   1.797   1.804 -0.9539 -2.1883  0.5617
 6151TIP3    H240013   3.613   1.826   1.823 -1.1132  1.2217 -2.3732
 6152TIP3   OH240014   5.761   3.124   1.583  0.2689 -0.1924 -0.2578
 6152TIP3    H140015   5.749   3.217   1.601  1.2804  0.1442 -1.2397
 6152TIP3    H240016   5.698   3.104   1.514 -0.4139 -0.4004  0.4192
 6153TIP3   OH240017   2.045   5.714   0.749  0.0374  0.1556 -0.2109
 6153TIP3    H140018   2.082   5.797   0.777 -1.9130  0.7763  0.7382
 6153TIP3    H240019   2.093   5.648   0.798 -0.0830  0.9074  0.9511
 6154TIP3   OH240020   3.915   6.441   0.511 -0.1535 -0.2323 -0.5438
 6154TIP3    H140021   3.830   6.484   0.510 -1.1334 -1.9717 -2.8961
 6154TIP3    H240022   3.912   6.383   0.587 -0.7055  0.3347 -0.1237
 6155TIP3   OH240023   4.705   2.773   2.798 -0.0172 -0.3842  0.1237
 6155TIP3    H140024   4.733   2.697   2.849  1.1782 -0.8997 -1.2329
 6155TIP3    H240025   4.645   2.737   2.733 -0.3456  0.0246  0.1999
 6156TIP3   OH240026   2.890   3.330   1.645 -0.3184  0.0345 -0.5187
 6156TIP3    H140027   2.984   3.325   1.660 -0.3472  1.9312  0.5907
 6156TIP3    H240028   2.852   3.328   1.733 -1.2921 -0.1606 -0.9306
 6157TIP3   OH240029   5.040   0.838   3.303 -0.3020  0.5736 -0.1068
 6157TIP3    H140030   5.019   0.895   3.229 -1.3204 -0.1592 -0.3980
 6157TIP3    H240031   4.991   0.875   3.376 -1.7622 -0.4661 -0.5217
 6158TIP3   OH240032   1.678   4.567   0.646  0.5541  0.2803 -0.1939
 6158TIP3    H140033   1.593   4.576   0.603 -0.8266 -0.3694  2.1819
 6158TIP3    H240034   1.719   4.653   0.637 -0.5713  0.7590 -0.9642
 6159TIP3   OH240035   2.969   4.508   2.243 -0.4100  0.1545  0.2041
 6159TIP3    H140036   2.882   4.540   2.216 -0.4561  0.0710  0.2556
 6159TIP3    H240037   2.972   4.418   2.211 -0.5178  0.0101  0.6050
 6160TIP3   OH240038   0.368   0.173   3.846  0.8293 -0.1823  0.0105
 6160TIP3    H140039   0.354   0.246   3.786 -2.8653 -0.8432 -0.1942
 6160TIP3    H240040   0.354   0.095   3.792 -1.0068 -0.8214  1.2943
 6161TIP3   OH240041   2.266   2.931   0.526 -0.3754  0.5281 -0.3490
 6161TIP3    H140042   2.188   2.986   0.533 -0.1236  0.8147  0.3159
 6161TIP3    H240043   2.324   2.977   0.465  0.2385  1.5183  0.9365
 6162TIP3   OH240044   0.381   5.420   3.558  0.1716 -0.4911  0.6242
 6162TIP3    H140045   0.443   5.455   3.494  0.6305  0.6122  1.6474
 6162TIP3    H240046   0.435   5.399   3.635 -0.8902  2.5565  2.3911
 6163TIP3   OH240047   2.981   1.795   8.439  0.0692 -0.2431 -0.1642
 6163TIP3    H140048   3.016   1.868   8.388 -0.5056  2.2000  2.7023
 6163TIP3    H240049   3.059   1.747   8.468  0.6278  0.6602 -0.1249
 6164TIP3   OH240050   6.304   5.038   1.412  0.6790 -0.1042 -0.3154
 6164TIP3    H140051   6.337   5.016   1.325 -0.8314  0.5355 -1.0922
 6164TIP3    H240052   6.376   5.085   1.454  1.2749 -0.0276 -1.3968
 6165TIP3   OH240053   4.011   0.776   1.407 -0.0991 -0.1894 -0.0247
 6165TIP3    H140054   3.977   0.709   1.466  0.1378  0.7340  1.2082
 6165TIP3    H240055   4.102   0.750   1.391 -0.4116 -0.9162 -0.7300
 6166TIP3   OH240056   5.090   2.350   3.079  0.5165  0.6150  0.0380
 6166TIP3    H140057   5.073   2.329   2.987  0.4684 -0.1122  0.2129
 6166TIP3    H240058   5.011   2.397   3.107  0.3153  0.3864 -0.1468
 6167TIP3   OH240059   5.211   4.598   0.242  0.1584  0.2528  0.7109
 6167TIP3    H140060   5.180   4.641   0.162 -1.4896 -0.9918  0.6436
 6167TIP3    H240061   5.227   4.507   0.217  2.0797  0.3916  1.2332
 6168TIP3   OH240062   3.385   0.614   2.611 -0.8979  0.2323  0.9253
 6168TIP3    H140063   3.436   0.538   2.584 -2.8800 -1.1970  0.9360
 6168TIP3    H240064   3.353   0.652   2.529  0.2074  1.1714  0.9130
 6169TIP3   OH240065   4.461   0.916   1.872  0.0649 -0.3873  0.1036
 6169TIP3    H140066   4.527   0.949   1.811  0.8713 -0.1190  1.0895
 6169TIP3    H240067   4.416   0.995   1.903  0.5472 -0.3800  0.8275
 6170TIP3   OH240068   2.386   0.266   2.050 -0.7826  0.0597 -0.2426
 6170TIP3    H140069   2.446   0.254   2.123 -1.4873  0.2721  0.3767
 6170TIP3    H240070   2.443   0.295   1.978 -0.0663 -0.2826  0.1655
 6171TIP3   OH240071   3.360   0.841   3.290  0.0516  0.0404 -0.3624
 6171TIP3    H140072   3.392   0.756   3.317 -0.8481 -0.1322  0.2017
 6171TIP3    H240073   3.433   0.901   3.307 -0.0870 -0.2475  1.3946
 6172TIP3   OH240074   4.643   3.758   2.442 -0.1464  0.6778 -0.2284
 6172TIP3    H140075   4.667   3.734   2.353 -0.0937 -2.3021  0.4671
 6172TIP3    H240076   4.726   3.782   2.484 -0.2281  2.4980 -1.0276
 6173TIP3   OH240077   3.209   2.189   2.936  0.1505  0.3006  0.1603
 6173TIP3    H140078   3.288   2.170   2.884  0.7138  1.0564  0.7273
 6173TIP3    H240079   3.242   2.234   3.014 -0.9553  1.7708 -0.1919
 6174TIP3   OH240080   2.149   0.647   2.746 -0.2318  0.3729 -0.5946
 6174TIP3    H140081   2.177   0.594   2.820  0.1354 -1.5633 -2.0370
 6174TIP3    H240082   2.058   0.669   2.765 -0.2699 -0.4592  0.2473
 6175TIP3   OH240083   4.825   1.676   2.538 -0.6185  0.1346  0.4738
 6175TIP3    H140084   4.829   1.627   2.455  1.5461 -0.8630  1.1024
 6175TIP3    H240085   4.736   1.713   2.539 -1.1715 -0.9382 -1.6379
 6176TIP3   OH240086   6.562   3.750   1.164 -0.2801 -0.2377 -0.2636
 6176TIP3    H140087   6.477   3.713   1.188  0.6206 -1.3820  1.3720
 6176TIP3    H240088   6.556   3.842   1.190 -1.1245 -0.2319 -0.4564
 6177TIP3   OH240089   5.886   0.415   3.642 -0.2962 -0.1801 -0.1776
 6177TIP3    H140090   5.845   0.480   3.699  0.2079 -0.3320  0.3640
 6177TIP3    H240091   5.965   0.457   3.610 -0.9450  0.1874 -1.3874
 6178TIP3   OH240092   2.739   4.957   2.792 -0.1747 -0.0504  0.0441
 6178TIP3    H140093   2.807   4.929   2.853 -1.8871 -3.0080  0.7955
 6178TIP3    H240094   2.744   4.895   2.720 -1.3825  0.3268 -0.3971
 6179TIP3   OH240095   1.370   3.277   3.065 -0.0887 -0.1083  0.0029
 6179TIP3    H140096   1.398   3.245   3.151 -0.0632 -1.3183 -0.4454
 6179TIP3    H240097   1.335   3.200   3.020 -1.2713  0.7578 -0.6156
 6180TIP3   OH240098   3.214   0.404   0.363 -0.2354  0.3286 -0.0770
 6180TIP3    H140099   3.127   0.443   0.372 -0.1557  0.3662  0.5713
 6180TIP3    H240100   3.274   0.471   0.396 -0.0213  0.0281  0.1464
 6181TIP3   OH240101   5.591   1.564   0.652 -0.2464 -0.2672  0.2814
 6181TIP3    H140102   5.615   1.618   0.577 -0.5089 -0.8432 -0.2240
 6181TIP3    H240103   5.520   1.509   0.620 -0.0396 -0.8522  0.8152
 6182TIP3   OH240104   3.639   3.611   0.250 -0.0729 -0.1468 -0.0033
 6182TIP3    H140105   3.623   3.649   0.337  0.7761 -0.3107  0.2337
 6182TIP3    H240106   3.734   3.603   0.245 -0.2079 -2.0704 -0.1250
 6183TIP3   OH240107   1.924   2.559   1.085  0.0295  0.1705 -0.0914
 6183TIP3    H140108   1.951   2.503   1.013  0.9406  1.1436 -0.5272
 6183TIP3    H240109   1.999   2.559   1.145 -1.2770 -1.8790  1.6878
 6184TIP3   OH240110   6.394   3.108   8.595 -0.1781  0.4277 -0.3859
 6184TIP3    H140111   6.448   3.186   8.611 -1.0552  1.3109 -1.5347
 6184TIP3    H240112   6.304   3.137   8.612 -0.4598 -0.5437 -0.1484
 6185TIP3   OH240113   2.956   3.800   1.654 -0.1751  0.2270 -0.0388
 6185TIP3    H140114   2.940   3.804   1.559  0.5067  0.7665 -0.1325
 6185TIP3    H240115   2.869   3.785   1.692 -0.3562 -0.7983 -0.7936
 6186TIP3   OH240116   3.836   2.461   8.230 -0.2138  1.0014  0.0453
 6186TIP3    H140117   3.908   2.439   8.289 -0.5049 -0.1249 -0.0127
 6186TIP3    H240118   3.762   2.475   8.288 -0.4242  0.2022 -0.0247
 6187TIP3   OH240119   4.343   4.927   7.753 -0.7945 -0.0308  0.3999
 6187TIP3    H140120   4.326   5.007   7.703 -0.8326 -1.5204 -2.1635
 6187TIP3    H240121   4.284   4.862   7.714  0.0646 -1.6041  1.6003
 6188TIP3   OH240122   3.367   1.042   2.769 -0.3477 -0.0046 -0.6192
 6188TIP3    H140123   3.435   1.061   2.704 -1.1199 -0.1849 -1.4871
 6188TIP3    H240124   3.296   1.003   2.719 -0.9825 -0.0824  0.3295
 6189TIP3   OH240125   2.548   6.792   3.206 -0.9841 -0.1750 -0.3612
 6189TIP3    H140126   2.487   6.776   3.278  0.1115 -2.4033  0.1379
 6189TIP3    H240127   2.628   6.747   3.231  0.1686  0.8519 -1.9977
 6190TIP3   OH240128   0.229   5.941   1.119  0.0123  0.4313  0.2208
 6190TIP3    H140129   0.309   5.994   1.129 -0.5463  0.8207  3.6490
 6190TIP3    H240130   0.248   5.860   1.166 -0.3787 -1.1354 -2.1264
 6191TIP3   OH240131   6.335   3.403   8.563  0.7034 -0.2889  0.2732
 6191TIP3    H140132   6.365   3.419   8.474 -2.1182  1.4094 -0.5008
 6191TIP3    H240133   6.341   3.488   8.606  0.5812 -0.7544  1.2459
 6192TIP3   OH240134   2.262   0.634   1.989  0.5680  0.0642  0.0650
 6192TIP3    H140135   2.191   0.583   1.950 -0.4978 -0.5162  2.5186
 6192TIP3    H240136   2.217   0.699   2.043  1.7493 -1.6693  3.4041
 6193TIP3   OH240137   5.428   5.488   2.828  0.4073 -0.2733 -0.0581
 6193TIP3    H140138   5.484   5.540   2.769  0.2549 -0.0750 -0.0287
 6193TIP3    H240139   5.350   5.468   2.777  1.1839 -1.9269 -0.6507
 6194TIP3   OH240140   1.122   2.870   0.493  0.0131  0.7702 -1.0593
 6194TIP3    H140141   1.088   2.796   0.544  1.9310  0.6457  0.1410
 6194TIP3    H240142   1.182   2.830   0.429 -2.0356  0.9670 -3.2503
 6195TIP3   OH240143   2.997   6.422   0.582  0.0603  0.3752  0.1944
 6195TIP3    H140144   3.072   6.368   0.605  1.0364  0.7192 -1.9833
 6195TIP3    H240145   3.035   6.505   0.552 -1.0290  0.0351 -2.3957
 6196TIP3   OH240146   4.302   5.033   0.504 -0.3236  0.1850  0.0431
 6196TIP3    H140147   4.308   5.108   0.564 -1.2024  1.6623 -1.6152
 6196TIP3    H240148   4.393   5.013   0.482 -0.0792  1.2110  0.0437
 6197TIP3   OH240149   0.933   2.103   2.321 -0.6321  0.3070 -0.0249
 6197TIP3    H140150   0.951   2.157   2.398 -0.7423  0.8596 -0.3844
 6197TIP3    H240151   1.003   2.125   2.260 -1.3173  0.8846 -0.6112
 6198TIP3   OH240152   1.741   3.058   0.146  0.3850 -0.8455  0.5329
 6198TIP3    H140153   1.827   3.026   0.122 -0.0635 -2.5866  1.0824
 6198TIP3    H240154   1.743   3.062   0.242  0.2449  0.3089  0.5008
 6199TIP3   OH240155   4.675   4.461   2.792  0.4368 -0.3482 -0.2558
 6199TIP3    H140156   4.605   4.524   2.775  0.7344  0.7895  2.3951
 6199TIP3    H240157   4.756   4.512   2.786  0.8372 -0.9538 -0.1215
 6200TIP3   OH240158   2.030   3.975   1.402  0.0491  0.0381  0.6902
 6200TIP3    H140159   2.073   3.948   1.483  0.3640  0.0330  0.5212
 6200TIP3    H240160   2.019   3.894   1.352  1.1954  0.2278  0.0848
 6201TIP3   OH240161   5.201   1.367   1.822  0.5061  0.2158 -0.3713
 6201TIP3    H140162   5.111   1.337   1.808  0.4671  0.7554 -1.4239
 6201TIP3    H240163   5.228   1.402   1.737  0.4587  3.3514  0.7786
 6202TIP3   OH240164   6.173   3.772   3.437 -0.0480 -0.4797 -0.5308
 6202TIP3    H140165   6.161   3.730   3.522  0.9970 -1.3766 -0.8001
 6202TIP3    H240166   6.151   3.864   3.452 -0.3363 -0.7220  0.5920
 6203TIP3   OH240167   0.440   2.506   2.446 -0.3143  0.2076  0.2933
 6203TIP3    H140168   0.382   2.582   2.453 -1.9013 -0.6867 -1.8476
 6203TIP3    H240169   0.386   2.433   2.474  0.4553 -0.4188  0.1694
 6204TIP3   OH240170   6.109   3.901   7.738 -0.0024  0.2713 -0.5674
 6204TIP3    H140171   6.199   3.888   7.769 -0.3471 -0.5789  0.1222
 6204TIP3    H240172   6.097   3.996   7.737  0.9305  0.3976 -0.7722
 6205TIP3   OH240173   5.563   4.249   0.562  0.0209  0.1446 -0.3093
 6205TIP3    H140174   5.501   4.321   0.549 -1.1945 -0.7449  0.4014
 6205TIP3    H240175   5.631   4.265   0.497 -0.6376  1.4804 -0.7147
 6206TIP3   OH240176   1.774   2.786   1.132 -0.1479  0.0981 -1.1151
 6206TIP3    H140177   1.814   2.847   1.194 -3.3616 -0.5695  1.9525
 6206TIP3    H240178   1.846   2.731   1.102  1.5394 -0.4009  3.1690
 6207TIP3   OH240179   2.660   4.521   2.663 -0.4809  0.8900 -0.1834
 6207TIP3    H140180   2.573   4.530   2.701 -0.7560 -0.5581 -0.4450
 6207TIP3    H240181   2.682   4.429   2.674  1.2701  1.3372  0.3908
 6208TIP3   OH240182   0.104   5.176   7.913 -0.2051 -0.1127 -0.4161
 6208TIP3    H140183   0.172   5.216   7.967 -0.6949  0.3558 -0.1392
 6208TIP3    H240184   0.088   5.240   7.844  2.0551 -1.6478 -2.5524
 6209TIP3   OH240185   2.088   6.687   2.894  0.2720 -0.1707 -0.0302
 6209TIP3    H140186   2.018   6.672   2.957  0.5270 -0.2535  0.2385
 6209TIP3    H240187   2.169   6.680   2.946  0.5129 -0.9662 -0.5047
 6210TIP3   OH240188   3.349   0.883   3.875  0.3797  0.2420  0.5942
 6210TIP3    H140189   3.359   0.939   3.798 -0.6845 -0.8197 -0.3631
 6210TIP3    H240190   3.422   0.820   3.868  2.1322  1.9509  2.1617
 6211TIP3   OH240191   5.496   1.562   8.149 -0.3101 -0.6175 -0.0060
 6211TIP3    H140192   5.454   1.624   8.209 -0.2903 -0.3269 -0.2871
 6211TIP3    H240193   5.484   1.602   8.063  0.3153 -0.6620 -0.1128
 6212TIP3   OH240194   3.136   1.630   2.722  0.3014  0.2963 -0.1656
 6212TIP3    H140195   3.192   1.584   2.784  1.1502 -0.6196 -1.5498
 6212TIP3    H240196   3.153   1.723   2.738  2.0671  0.0407 -0.3966
 6213TIP3   OH240197   4.322   4.855   1.422  0.7095  0.0025 -0.1366
 6213TIP3    H140198   4.256   4.919   1.449  1.9082  1.5783 -0.7677
 6213TIP3    H240199   4.317   4.854   1.327  0.7610 -0.7935 -0.1321
 6214TIP3   OH240200   4.281   4.791   1.840 -0.0023 -0.1650  0.1821
 6214TIP3    H140201   4.188   4.785   1.818 -0.0831 -0.1738  0.5258
 6214TIP3    H240202   4.283   4.791   1.936  0.2348  1.4551  0.2102
 6215TIP3   OH240203   4.422   0.739   3.090  0.0770  0.2067 -0.5446
 6215TIP3    H140204   4.501   0.737   3.036 -0.0700 -0.7755 -0.7429
 6215TIP3    H240205   4.380   0.821   3.068  1.8282  1.5297  0.7191
 6216TIP3   OH240206   1.020   1.624   8.544  0.1602 -0.0616  0.1934
 6216TIP3    H140207   0.953   1.661   8.601  1.0732  1.1136  0.5429
 6216TIP3    H240208   1.101   1.631   8.594  0.8927  0.4932 -1.0228
 6217TIP3   OH240209   1.815   1.663   0.301  0.3323  0.0343 -0.0734
 6217TIP3    H140210   1.833   1.721   0.227  0.2510  0.1985  0.0338
 6217TIP3    H240211   1.783   1.722   0.370  1.1877 -0.0070  0.3691
 6218TIP3   OH240212   0.452   3.054   1.480  0.2996  0.2210  0.2841
 6218TIP3    H140213   0.468   2.972   1.526 -0.3401 -0.3585 -0.4966
 6218TIP3    H240214   0.363   3.045   1.444  1.5802 -0.4090 -3.1479
 6219TIP3   OH240215   2.446   6.600   3.433 -0.8300 -0.0296  0.0689
 6219TIP3    H140216   2.417   6.628   3.520 -0.7175  1.0548 -0.2208
 6219TIP3    H240217   2.368   6.610   3.378 -0.4865  0.8403 -0.2748
 6220TIP3   OH240218   5.930   4.305   2.202 -0.5996  0.3048  0.1701
 6220TIP3    H140219   5.949   4.331   2.112 -1.6334  0.6650  0.0423
 6220TIP3    H240220   5.921   4.388   2.250  1.1340  0.1197  0.8907
 6221TIP3   OH240221   0.094   5.134   2.285  0.3579 -0.1806 -0.0125
 6221TIP3    H140222   0.057   5.199   2.226  1.3151  1.4454  1.1014
 6221TIP3    H240223   0.019   5.079   2.310 -0.3229 -0.0087 -1.5586
 6222TIP3   OH240224   0.604   3.042   1.014 -0.2372  0.2115 -0.2902
 6222TIP3    H140225   0.529   3.101   1.024  0.7106  1.3708  0.2990
 6222TIP3    H240226   0.567   2.963   0.974 -1.8224  0.6136  0.2819
 6223TIP3   OH240227   5.444   6.309   0.286  0.5273 -0.9789  0.1525
 6223TIP3    H140228   5.367   6.268   0.325 -1.3286  1.7304 -0.3296
 6223TIP3    H240229   5.423   6.316   0.193  0.5448  1.2351  0.2545
 6224TIP3   OH240230   3.079   2.598   2.698  0.2343  0.3330  0.2558
 6224TIP3    H140231   3.068   2.636   2.785 -2.1757 -0.0104  0.1742
 6224TIP3    H240232   3.153   2.539   2.706  0.7886  1.1738  1.7442
 6225TIP3   OH240233   0.438   6.278   2.922 -0.2085 -0.3368  0.3940
 6225TIP3    H140234   0.394   6.212   2.868  0.8524 -0.1241 -0.7851
 6225TIP3    H240235   0.386   6.357   2.910  0.9041  0.1540 -1.7224
 6226TIP3   OH240236   0.787   1.976   8.664  0.0948  0.4266  0.0880
 6226TIP3    H140237   0.807   1.921   8.588  0.4793  0.9226 -0.1711
 6226TIP3    H240238   0.869   2.023   8.683 -0.2842  1.0577  0.1906
 6227TIP3   OH240239   5.905   4.552   0.421 -0.0464  0.4328 -0.4347
 6227TIP3    H140240   5.899   4.548   0.326  0.2077  2.0300 -0.5502
 6227TIP3    H240241   5.999   4.544   0.439  0.0241  1.2572 -0.4060
 6228TIP3   OH240242   6.123   1.996   8.492  0.5421  0.1575 -0.0498
 6228TIP3    H140243   6.074   1.915   8.480 -0.3796  0.1118  3.0161
 6228TIP3    H240244   6.086   2.057   8.429 -1.3054 -0.8009  0.0470
 6229TIP3   OH240245   3.274   2.736   8.329 -0.6156 -1.0508  0.5831
 6229TIP3    H140246   3.302   2.703   8.243  0.8868  1.5272 -0.0531
 6229TIP3    H240247   3.208   2.802   8.308  0.4490  0.2811  1.2920
 6230TIP3   OH240248   5.221   2.492   0.100  0.0071  0.1575 -0.4660
 6230TIP3    H140249   5.298   2.493   0.156 -0.5805  0.1417  0.3583
 6230TIP3    H240250   5.162   2.557   0.138 -0.2432  0.4300 -1.3011
 6231TIP3   OH240251   1.243   0.509   1.991  0.2432  0.0958 -0.8456
 6231TIP3    H140252   1.158   0.493   2.033  1.1987 -0.4162  0.9653
 6231TIP3    H240253   1.282   0.423   1.981  2.9119  0.4333  3.6342
 6232TIP3   OH240254   6.753   4.942   0.235 -0.1950 -0.4339  0.2709
 6232TIP3    H140255   6.810   4.959   0.160 -0.9682  1.5545  0.0642
 6232TIP3    H240256   6.699   4.868   0.208  1.5084 -1.6667  0.0552
 6233TIP3   OH240257   6.765   5.691   1.285  0.9073  0.2472 -0.4432
 6233TIP3    H140258   6.859   5.680   1.298  1.0091  0.7384 -0.7026
 6233TIP3    H240259   6.758   5.750   1.209  0.4236  1.6597  0.6504
 6234TIP3   OH240260   1.553   2.398   0.634 -0.0397  0.1925 -0.0863
 6234TIP3    H140261   1.462   2.417   0.657 -0.0577 -1.0336  1.0035
 6234TIP3    H240262   1.603   2.423   0.712  0.5408  0.6536 -0.5956
 6235TIP3   OH240263   5.083   4.919   2.566 -0.4739  0.1928  0.1724
 6235TIP3    H140264   5.074   4.974   2.488 -1.3769  0.5689  0.5381
 6235TIP3    H240265   5.055   4.974   2.638 -0.5030 -0.4482  0.6617
 6236TIP3   OH240266   1.577   4.745   0.884 -0.0734  0.1045 -0.1452
 6236TIP3    H140267   1.649   4.690   0.855 -0.6135 -0.2749 -0.7880
 6236TIP3    H240268   1.498   4.701   0.852 -0.6617  0.0688  1.2471
 6237TIP3   OH240269   3.597   4.972   2.235 -0.2462  0.4852  0.0800
 6237TIP3    H140270   3.589   4.908   2.165 -0.8553  1.6070 -0.9098
 6237TIP3    H240271   3.640   4.924   2.306  0.6577 -0.6052 -1.1482
 6238TIP3   OH240272   0.928   5.813   8.533 -0.1426 -0.2020  0.0341
 6238TIP3    H140273   0.876   5.817   8.614 -0.8506  0.0811 -0.4337
 6238TIP3    H240274   0.866   5.831   8.463  0.2512 -1.4259 -0.6707
 6239TIP3   OH240275   1.954   2.414   0.517 -0.3922  0.4020 -0.4450
 6239TIP3    H140276   1.954   2.325   0.481 -0.0627  0.6914 -1.1936
 6239TIP3    H240277   1.959   2.402   0.611  0.0831 -0.3720 -0.5579
 6240TIP3   OH240278   1.096   0.170   1.402 -0.2063 -0.3862 -0.0822
 6240TIP3    H140279   1.053   0.176   1.317  0.5149 -4.0219 -0.8701
 6240TIP3    H240280   1.183   0.135   1.382  1.7848  2.9580  1.8335
 6241TIP3   OH240281   3.212   5.927   8.101  0.3802 -0.4157 -0.3246
 6241TIP3    H140282   3.121   5.916   8.072  0.2111 -2.5403  0.7709
 6241TIP3    H240283   3.260   5.856   8.058  1.2394 -0.1287  0.1352
 6242TIP3   OH240284   4.149   1.893   7.947  0.0928 -0.2944  0.2966
 6242TIP3    H140285   4.059   1.877   7.920  0.2398  2.0562 -2.0055
 6242TIP3    H240286   4.193   1.809   7.938 -1.4783 -1.1030 -0.1611
 6243TIP3   OH240287   4.905   5.023   0.361 -0.1545  0.2126 -0.5602
 6243TIP3    H140288   4.823   5.066   0.337  0.4610  1.8787  0.1676
 6243TIP3    H240289   4.887   4.980   0.444 -0.7112 -0.7681 -1.1748
 6244TIP3   OH240290   5.805   5.952   8.110 -0.3982  0.1770  0.3900
 6244TIP3    H140291   5.765   5.869   8.086  0.1081  0.4680 -1.7430
 6244TIP3    H240292   5.769   6.015   8.048 -0.1193  1.3758  1.4035
 6245TIP3   OH240293   5.940   5.338   8.249 -0.2894 -0.1724  0.0380
 6245TIP3    H140294   6.012   5.369   8.305 -0.0965 -0.4395 -0.0598
 6245TIP3    H240295   5.899   5.418   8.216  0.6030 -0.0035 -0.7110
 6246TIP3   OH240296   2.871   0.650   0.932 -0.1643 -0.5762 -0.4897
 6246TIP3    H140297   2.929   0.654   1.009 -2.1291 -0.6887  1.0744
 6246TIP3    H240298   2.931   0.634   0.859  1.8002 -0.5157  0.9977
 6247TIP3   OH240299   0.557   3.720   1.276  0.1424 -0.1295 -0.0995
 6247TIP3    H140300   0.513   3.782   1.335 -3.2590 -1.7460 -0.7367
 6247TIP3    H240301   0.592   3.775   1.206  1.1136  1.4434  1.5051
 6248TIP3   OH240302   0.870   3.730   0.318 -0.4132 -0.2192  0.3426
 6248TIP3    H140303   0.835   3.819   0.312  0.2272  0.0149  0.0351
 6248TIP3    H240304   0.868   3.697   0.228 -0.9766 -0.6501  0.5050
 6249TIP3   OH240305   5.437   2.213   8.279 -0.2340  0.5741 -0.0909
 6249TIP3    H140306   5.440   2.127   8.237  0.8329  1.1432 -1.2678
 6249TIP3    H240307   5.405   2.272   8.210 -0.7220  1.1734  0.6262
 6250TIP3   OH240308   2.755   0.486   0.143  0.3793  0.4890 -0.4963
 6250TIP3    H140309   2.795   0.550   0.085  0.1720  0.6059 -0.5090
 6250TIP3    H240310   2.742   0.533   0.225  0.1232  0.4955 -0.5405
 6251TIP3   OH240311   2.364   2.215   1.062  0.3227 -0.1611 -0.0632
 6251TIP3    H140312   2.357   2.145   0.997  4.3663 -0.2377 -0.6819
 6251TIP3    H240313   2.333   2.293   1.017 -1.1201 -0.9375 -0.4829
 6252TIP3   OH240314   6.573   2.852   0.983  0.5867  0.4730 -0.0544
 6252TIP3    H140315   6.625   2.796   0.926  0.4973  0.0705  0.2505
 6252TIP3    H240316   6.628   2.864   1.061 -0.0591 -0.5804  0.5975
 6253TIP3   OH240317   5.894   3.825   0.444  0.4129 -0.3796  0.2124
 6253TIP3    H140318   5.818   3.854   0.393 -0.3349 -0.9046  1.0029
 6253TIP3    H240319   5.869   3.740   0.481  2.0237 -1.3847 -0.8688
 6254TIP3   OH240320   3.777   6.544   3.137  0.2535 -0.0881  0.0574
 6254TIP3    H140321   3.683   6.544   3.121  0.7611  0.9375 -4.3738
 6254TIP3    H240322   3.800   6.452   3.151 -1.3174 -0.4110  0.6635
 6255TIP3   OH240323   4.575   1.379   3.113 -0.9419  0.0058 -0.1688
 6255TIP3    H140324   4.494   1.388   3.164 -0.1024 -0.0508  1.2250
 6255TIP3    H240325   4.636   1.336   3.173  0.6281  1.5118 -0.6216
 6256TIP3   OH240326   6.462   2.033   2.311 -0.0456 -0.1073  0.3707
 6256TIP3    H140327   6.490   1.990   2.393 -0.2392 -0.8046  0.0786
 6256TIP3    H240328   6.380   2.077   2.334  1.3272  2.1571  1.3022
 6257TIP3   OH240329   2.283   2.014   2.204 -0.0184 -0.2412 -0.3676
 6257TIP3    H140330   2.327   2.076   2.146 -0.4348  1.2975  0.8968
 6257TIP3    H240331   2.197   2.053   2.221 -1.0574 -2.1034 -1.0280
 6258TIP3   OH240332   2.215   5.082   1.302  0.1097  0.1914 -0.0524
 6258TIP3    H140333   2.128   5.102   1.336 -0.1718 -0.5894 -0.2877
 6258TIP3    H240334   2.199   5.059   1.210  0.7282  1.2873 -0.4590
 6259TIP3   OH240335   0.043   3.240   0.525  0.2803 -0.1999 -1.1324
 6259TIP3    H140336   0.104   3.228   0.451 -1.6860 -0.1699 -2.8524
 6259TIP3    H240337  -0.018   3.166   0.518  0.1290 -0.2762  0.5870
 6260TIP3   OH240338   3.616   1.907   3.070  0.2651 -0.7097  0.2117
 6260TIP3    H140339   3.625   1.884   2.978 -1.4512 -2.5622  0.4422
 6260TIP3    H240340   3.524   1.890   3.091  0.2454  1.0812  1.9208
 6261TIP3   OH240341   3.370   5.298   2.680  0.3003  0.3196 -0.9007
 6261TIP3    H140342   3.337   5.371   2.629  1.3872  0.6844 -1.1217
 6261TIP3    H240343   3.381   5.333   2.768  1.4931  0.6597 -1.1618
 6262TIP3   OH240344   5.050   1.303   0.853  0.2509 -0.0776  0.2923
 6262TIP3    H140345   5.130   1.257   0.829  1.2385  1.7962 -0.1981
 6262TIP3    H240346   4.994   1.297   0.775  0.1726 -0.8152  0.3991
 6263TIP3   OH240347   4.053   0.290   1.267  0.1092 -0.6477  0.8399
 6263TIP3    H140348   4.034   0.200   1.240 -1.2315 -0.5922  1.5061
 6263TIP3    H240349   3.975   0.339   1.243  0.7695  0.3099  0.6266
 6264TIP3   OH240350   1.488   1.811   2.120 -0.3889  0.2205 -0.3197
 6264TIP3    H140351   1.558   1.860   2.077  0.7870 -1.1164 -0.0052
 6264TIP3    H240352   1.462   1.866   2.194  0.9336  0.3544  0.0674
 6265TIP3   OH240353   1.573   4.304   3.191  0.0960 -0.0591 -0.2757
 6265TIP3    H140354   1.547   4.326   3.280  0.6138  1.4725 -0.4871
 6265TIP3    H240355   1.492   4.310   3.140 -0.5315 -2.4718  0.3131
 6266TIP3   OH240356   0.727   3.156   3.089  0.0775  0.2890  0.1214
 6266TIP3    H140357   0.801   3.155   3.149  0.1561  0.4847  0.0299
 6266TIP3    H240358   0.762   3.194   3.008  0.2504 -0.9634 -0.4229
 6267TIP3   OH240359   3.891   5.535   0.321  0.5732  0.2081 -0.5974
 6267TIP3    H140360   3.889   5.451   0.366  2.1135  0.2051 -0.4828
 6267TIP3    H240361   3.829   5.525   0.249  1.1772 -1.2617 -0.9549
 6268TIP3   OH240362   2.302   4.363   8.454 -0.2885 -0.2589  0.3928
 6268TIP3    H140363   2.225   4.343   8.401  1.3698 -1.3865 -1.7734
 6268TIP3    H240364   2.311   4.458   8.448 -0.7723 -0.2549 -0.4833
 6269TIP3   OH240365   1.580   4.395   8.690 -0.1657  0.0090 -0.5086
 6269TIP3    H140366   1.504   4.450   8.673 -1.5559 -2.1529 -1.8663
 6269TIP3    H240367   1.648   4.455   8.718 -1.4912  2.4184 -2.1514
 6270TIP3   OH240368   5.764   4.029   3.850  0.2545  0.2365  0.1242
 6270TIP3    H140369   5.680   4.054   3.811  0.0320  0.8371  0.9565
 6270TIP3    H240370   5.827   4.036   3.779 -0.3030  0.3375 -0.3683
 6271TIP3   OH240371   2.968   5.827   3.567 -0.2573  0.4304 -0.2865
 6271TIP3    H140372   2.931   5.739   3.577 -0.1203  0.1797 -1.7773
 6271TIP3    H240373   2.902   5.875   3.517  0.5287  0.5674 -1.2252
 6272TIP3   OH240374   0.561   6.425   3.423  0.4378  0.3024 -0.0727
 6272TIP3    H140375   0.487   6.484   3.422  1.0605  1.1174  0.8826
 6272TIP3    H240376   0.637   6.481   3.439  1.1880 -0.5970 -0.3642
 6273TIP3   OH240377   2.378   3.646   3.187 -0.9639  0.0356 -0.3270
 6273TIP3    H140378   2.373   3.550   3.186  0.8221 -0.0934  0.5812
 6273TIP3    H240379   2.330   3.671   3.267  1.3771 -0.3603  1.2896
 6274TIP3   OH240380   6.592   2.167   1.619 -0.4328 -0.4273 -0.2536
 6274TIP3    H140381   6.682   2.165   1.650 -0.8427 -1.7287  0.9806
 6274TIP3    H240382   6.564   2.075   1.622 -2.0053  0.0380  0.0627
 6275TIP3   OH240383   1.688   2.189   1.072  0.5737 -0.3951  0.4729
 6275TIP3    H140384   1.655   2.230   1.152  0.5354 -0.2174  0.3673
 6275TIP3    H240385   1.780   2.217   1.067  0.7854 -1.0004  0.8390
 6276TIP3   OH240386   0.388   5.150   0.322 -0.2340 -0.1750  0.3433
 6276TIP3    H140387   0.333   5.075   0.299 -0.6306  0.3627 -0.5066
 6276TIP3    H240388   0.339   5.226   0.293  0.0076  0.4503  1.5147
 6277TIP3   OH240389   3.506   6.394   2.601  0.1918 -0.1589 -0.7854
 6277TIP3    H140390   3.552   6.311   2.595  1.8214  0.7818 -2.4187
 6277TIP3    H240391   3.552   6.442   2.670  0.5677  0.1284 -1.2287
 6278TIP3   OH240392   1.893   3.127   1.899 -0.1822  0.0891  0.0565
 6278TIP3    H140393   1.935   3.160   1.820 -0.0665 -0.1672  0.0098
 6278TIP3    H240394   1.799   3.125   1.878 -0.0523 -1.0416 -0.4686
 6279TIP3   OH240395   3.714   4.227   7.770 -0.2780  0.0692 -0.0893
 6279TIP3    H140396   3.644   4.237   7.834  0.2739 -1.2769  0.7770
 6279TIP3    H240397   3.734   4.317   7.741 -0.6320  0.7012  1.5392
 6280TIP3   OH240398   4.044   1.298   2.729  0.2109  0.0009 -0.0864
 6280TIP3    H140399   4.069   1.381   2.687  1.9745 -1.6632 -2.6573
 6280TIP3    H240400   3.994   1.251   2.661  2.3034 -2.4210 -0.1072
 6281TIP3   OH240401   0.639   1.679   2.464  0.2191 -0.5362  0.6749
 6281TIP3    H140402   0.544   1.687   2.454 -0.1963 -3.7602  0.9106
 6281TIP3    H240403   0.675   1.746   2.407 -2.1730  1.4596  1.3389
 6282TIP3   OH240404   4.737   6.829   0.771  0.4951 -0.2231  0.2305
 6282TIP3    H140405   4.706   6.768   0.704 -0.8148 -0.4536  1.0124
 6282TIP3    H240406   4.721   6.784   0.854  2.2765 -0.0312  0.7313
 6283TIP3   OH240407   0.527   4.086   0.198 -0.3010 -0.6745  0.0974
 6283TIP3    H140408   0.439   4.124   0.201 -0.9391 -2.0170 -0.8048
 6283TIP3    H240409   0.582   4.157   0.165 -1.4105 -0.4025 -1.2550
 6284TIP3   OH240410   1.860   4.877   2.671  0.1529  0.0266 -0.5544
 6284TIP3    H140411   1.897   4.805   2.722  0.1577  0.9727  0.8300
 6284TIP3    H240412   1.779   4.900   2.716 -0.0359  0.6437 -1.1802
 6285TIP3   OH240413   0.219   1.740   2.792 -0.2111  0.1006 -0.1491
 6285TIP3    H140414   0.132   1.774   2.773 -0.0877 -0.0214 -0.9618
 6285TIP3    H240415   0.276   1.785   2.730  0.3986  0.6249  0.7687
 6286TIP3   OH240416   2.067   4.545   2.222  0.0467  0.0724  0.6738
 6286TIP3    H140417   2.100   4.460   2.193 -0.3427 -0.4822  1.8004
 6286TIP3    H240418   2.067   4.599   2.143 -0.0696 -1.0818 -0.1413
 6287TIP3   OH240419   4.717   5.509   0.348  0.8245  0.4177  0.0592
 6287TIP3    H140420   4.678   5.588   0.311 -0.2193  0.9239  2.1413
 6287TIP3    H240421   4.779   5.541   0.413  0.2568 -0.4584  1.0610
 6288TIP3   OH240422   3.910   5.257   2.473 -0.2451  0.1216 -0.6664
 6288TIP3    H140423   3.868   5.340   2.449 -0.7818 -0.9286 -3.7993
 6288TIP3    H240424   3.856   5.222   2.544 -1.0853  1.5888 -0.5494
 6289TIP3   OH240425   0.879   5.177   2.298  0.2459 -0.4188 -0.1504
 6289TIP3    H140426   0.896   5.150   2.208 -2.0197 -0.2427 -0.6915
 6289TIP3    H240427   0.864   5.272   2.292 -2.0620 -0.7153 -0.0145
 6290TIP3   OH240428   5.330   6.018   1.929 -0.7829 -0.3966  0.1237
 6290TIP3    H140429   5.381   5.945   1.965 -0.2299 -0.8577 -1.5302
 6290TIP3    H240430   5.390   6.092   1.931 -0.7857 -0.3957  0.2098
 6291TIP3   OH240431   4.740   4.084   0.511  0.4873  0.2555 -0.7892
 6291TIP3    H140432   4.811   4.023   0.534  0.0773  0.6008  1.6359
 6291TIP3    H240433   4.660   4.032   0.522  0.2323  0.6261 -0.8877
 6292TIP3   OH240434   3.234   4.527   2.254  0.3025 -0.1804 -0.5928
 6292TIP3    H140435   3.236   4.431   2.253 -0.4093 -0.2004 -1.5564
 6292TIP3    H240436   3.143   4.549   2.234  0.6340  0.6997 -1.1771
 6293TIP3   OH240437   1.098   5.661   1.073 -0.0889  0.0206  0.0667
 6293TIP3    H140438   1.005   5.684   1.076 -0.6411 -1.9639 -0.3101
 6293TIP3    H240439   1.104   5.578   1.121  1.1988 -0.6834 -1.2174
 6294TIP3   OH240440   0.764   2.443   8.289 -0.2297  0.8312 -0.3794
 6294TIP3    H140441   0.770   2.390   8.369 -0.4059  0.6048 -0.5152
 6294TIP3    H240442   0.671   2.445   8.268 -0.3224  1.8951  0.0874
 6295TIP3   OH240443   1.352   1.041   7.799  0.1095 -0.1896  0.4228
 6295TIP3    H140444   1.288   1.018   7.732  1.1162 -1.6039 -0.0875
 6295TIP3    H240445   1.339   0.978   7.869  1.7389 -1.3333 -0.2361
 6296TIP3   OH240446   2.561   2.461   2.322  0.4275 -0.0707  0.3383
 6296TIP3    H140447   2.625   2.425   2.383 -0.3467 -1.8372  0.1714
 6296TIP3    H240448   2.480   2.414   2.341 -0.9368  2.2685  0.7028
 6297TIP3   OH240449   0.601   3.221   2.806 -0.5583 -0.5989 -0.4622
 6297TIP3    H140450   0.596   3.264   2.891  0.7435 -0.5953 -0.3587
 6297TIP3    H240451   0.616   3.292   2.744  1.2404 -0.8126 -0.3327
 6298TIP3   OH240452   3.810   3.688   2.946  0.6374  0.0403  0.5845
 6298TIP3    H140453   3.863   3.718   2.872  0.2465  0.2439  0.3820
 6298TIP3    H240454   3.803   3.593   2.933 -1.0310  0.2923 -0.7369
 6299TIP3   OH240455   3.585   4.081   1.389 -0.3182 -0.4570 -0.1714
 6299TIP3    H140456   3.613   4.165   1.425  1.3919 -0.2654 -1.8019
 6299TIP3    H240457   3.491   4.079   1.404 -0.1269  0.9344  1.5153
 6300TIP3   OH240458   3.430   5.064   0.320  0.0502  0.4663  0.2470
 6300TIP3    H140459   3.451   5.005   0.249  0.3400 -1.0148  1.5056
 6300TIP3    H240460   3.367   5.126   0.283 -1.9707 -1.9511 -0.5772
 6301TIP3   OH240461   1.901   1.960   2.844 -0.5643  0.2453 -0.3709
 6301TIP3    H140462   1.970   2.012   2.803 -0.3934  0.7477  0.5298
 6301TIP3    H240463   1.947   1.887   2.884 -0.5943  0.3704 -0.1043
 6302TIP3   OH240464   1.306   0.086   2.383 -0.1418 -0.0145  0.0949
 6302TIP3    H140465   1.346   0.053   2.463  0.4230  1.1816  0.3286
 6302TIP3    H240466   1.378   0.126   2.335 -0.8022  0.9116 -0.1420
 6303TIP3   OH240467   5.162   0.475   2.379  0.4296 -0.1951 -0.0673
 6303TIP3    H140468   5.189   0.396   2.426 -0.8979 -0.2091  0.7311
 6303TIP3    H240469   5.128   0.443   2.295  0.5691 -0.3955 -0.0493
 6304TIP3   OH240470   1.964   4.091   2.774 -0.8917  0.5778 -0.0134
 6304TIP3    H140471   1.871   4.070   2.762 -0.6248  0.1216 -1.4003
 6304TIP3    H240472   2.001   4.014   2.817 -1.0876  0.6442  0.2814
 6305TIP3   OH240473   6.084   1.572   8.064 -0.2132 -0.2443 -0.3004
 6305TIP3    H140474   6.179   1.558   8.064 -0.1429  0.0989  1.0544
 6305TIP3    H240475   6.073   1.663   8.036 -0.0167  0.2690  1.2102
 6306TIP3   OH240476   6.846   6.003   2.017 -0.1063 -0.2419 -0.0679
 6306TIP3    H140477   6.886   6.065   1.957  0.8905 -0.9197 -0.1174
 6306TIP3    H240478   6.797   5.943   1.961 -0.6467  0.1796 -0.0568
 6307TIP3   OH240479   1.244   0.480   0.278  0.0629 -0.2770 -0.2593
 6307TIP3    H140480   1.210   0.503   0.364 -0.6534  1.1031 -0.8888
 6307TIP3    H240481   1.339   0.484   0.288  0.1112 -2.6354  1.1023
 6308TIP3   OH240482   3.371   6.439   2.149  0.2797 -0.0389  0.3613
 6308TIP3    H140483   3.349   6.397   2.233 -1.0144  0.1690  0.1498
 6308TIP3    H240484   3.422   6.373   2.102  0.5388 -0.3669  1.0844
 6309TIP3   OH240485   4.386   5.173   3.174 -0.0621 -0.3795  0.8954
 6309TIP3    H140486   4.415   5.263   3.188  0.6673 -0.5454  0.4968
 6309TIP3    H240487   4.347   5.147   3.258 -2.8616  1.2223  0.1872
 6310TIP3   OH240488   6.736   2.600   3.106 -0.0774 -0.0086 -0.6892
 6310TIP3    H140489   6.782   2.583   3.188  0.6480  0.8500 -0.9059
 6310TIP3    H240490   6.746   2.694   3.092 -1.4791  0.1197 -1.0048
 6311TIP3   OH240491   6.562   3.638   2.982  0.6390 -0.5807  0.4399
 6311TIP3    H140492   6.526   3.661   3.067 -1.7375  0.8113 -0.8478
 6311TIP3    H240493   6.596   3.549   2.993  0.2733 -0.4791  2.7688
 6312TIP3   OH240494   2.436   4.906   8.468  0.1331  0.3468  0.3718
 6312TIP3    H140495   2.387   4.829   8.498 -0.1439  0.3885  0.0209
 6312TIP3    H240496   2.378   4.980   8.485 -0.1741  0.3393 -0.5824
 6313TIP3   OH240497   2.952   2.129   2.853  0.0574 -0.3512 -0.1327
 6313TIP3    H140498   3.040   2.159   2.874 -0.2394  0.9873 -0.6488
 6313TIP3    H240499   2.956   2.034   2.858  1.0042 -0.2480  1.8891
 6314TIP3   OH240500   0.711   2.543   1.064 -0.2793  0.6894 -0.3354
 6314TIP3    H140501   0.639   2.492   1.027  0.1526  0.2994 -0.6518
 6314TIP3    H240502   0.668   2.618   1.106 -0.7530  1.7318 -2.5114
 6315TIP3   OH240503   2.544   2.578   2.073 -0.1929  0.2555  0.1021
 6315TIP3    H140504   2.543   2.527   2.154  0.6707 -0.9116 -0.5879
 6315TIP3    H240505   2.601   2.528   2.014 -2.6532 -0.2277 -2.0409
 6316TIP3   OH240506   4.716   4.128   8.250 -0.1225 -0.0459 -0.4640
 6316TIP3    H140507   4.718   4.170   8.164 -0.8120  1.1212  0.0550
 6316TIP3    H240508   4.625   4.100   8.260 -0.0129 -0.2933 -0.1733
 6317TIP3   OH240509   0.325   5.532   0.903  0.1811 -0.1066 -0.4065
 6317TIP3    H140510   0.314   5.457   0.846  0.7652 -0.2899 -0.2839
 6317TIP3    H240511   0.241   5.542   0.947  0.6768 -1.9218  1.0661
 6318TIP3   OH240512   1.388   0.580   3.625  0.0956  0.2018  0.2593
 6318TIP3    H140513   1.376   0.650   3.561  1.4566  1.0125  0.8322
 6318TIP3    H240514   1.320   0.595   3.690 -0.2031  0.4206 -0.1010
 6319TIP3   OH240515   1.397   2.919   0.361  0.2561 -0.2150 -0.8615
 6319TIP3    H140516   1.476   2.865   0.356 -0.4885 -1.2239 -3.1281
 6319TIP3    H240517   1.333   2.872   0.307 -1.2307  1.6557 -0.8099
 6320TIP3   OH240518   2.190   4.992   8.645 -0.9662 -0.3003  0.0061
 6320TIP3    H140519   2.167   4.917   8.590 -0.1794 -1.0399  0.6441
 6320TIP3    H240520   2.218   4.952   8.728  0.8272  0.6013 -0.1204
 6321TIP3   OH240521   2.057   1.611   2.997  0.2784  0.0290 -0.1032
 6321TIP3    H140522   2.063   1.516   2.987 -0.7645 -0.3685  2.3368
 6321TIP3    H240523   1.963   1.629   2.998  0.3615  0.6462  2.3332
 6322TIP3   OH240524   1.193   2.000   0.057  0.6480  0.0998  0.5457
 6322TIP3    H140525   1.216   2.081   0.102  0.2874  0.7884 -0.4636
 6322TIP3    H240526   1.277   1.962   0.032  0.8971 -0.6894  2.3989
 6323TIP3   OH240527   3.345   5.574   0.019  0.0285  0.3708 -0.0175
 6323TIP3    H140528   3.340   5.543   0.109 -0.0361  0.9299  0.1804
 6323TIP3    H240529   3.394   5.507  -0.027 -1.2190 -0.6520  0.0991
 6324TIP3   OH240530   4.960   0.557   0.030  0.7859  0.0882 -0.0125
 6324TIP3    H140531   5.002   0.498  -0.033 -2.1066 -0.6493 -1.4254
 6324TIP3    H240532   4.927   0.629  -0.024  0.7419  0.9408  1.1158
 6325TIP3   OH240533   3.229   3.514   0.207 -0.7606  0.2866  0.8036
 6325TIP3    H140534   3.307   3.510   0.152 -0.6629  1.2661  0.8625
 6325TIP3    H240535   3.253   3.465   0.286 -1.1599 -1.7990 -0.2911
 6326TIP3   OH240536   3.325   4.278   0.274 -0.2235  0.2156  0.2879
 6326TIP3    H140537   3.320   4.245   0.363  2.7321 -1.1403  0.0883
 6326TIP3    H240538   3.326   4.373   0.283 -0.2969  0.0960  1.6697
 6327TIP3   OH240539   0.067   0.323   3.524  0.2047  0.0889  0.5390
 6327TIP3    H140540   0.122   0.293   3.452 -1.2002 -1.7222  0.1580
 6327TIP3    H240541   0.109   0.289   3.603 -0.5963 -1.7966  0.2090
 6328TIP3   OH240542   0.953   1.422   1.125 -0.4085  0.2046 -0.2495
 6328TIP3    H140543   0.985   1.441   1.213  1.7241 -0.5318 -0.8113
 6328TIP3    H240544   0.965   1.328   1.115 -0.3647  0.3170 -1.4048
 6329TIP3   OH240545   6.163   2.215   1.131 -0.1956  0.5425 -0.0194
 6329TIP3    H140546   6.128   2.266   1.058 -2.3237  0.7503  1.0697
 6329TIP3    H240547   6.203   2.280   1.189  1.5844  0.3673 -0.9771
 6330TIP3   OH240548   0.251   5.031   0.616  0.1174 -1.1256 -0.3992
 6330TIP3    H140549   0.183   5.096   0.634  1.3007 -0.4155  1.8323
 6330TIP3    H240550   0.255   5.027   0.520  0.4464  2.5904 -0.6757
 6331TIP3   OH240551   4.339   2.471   3.845 -0.1351  0.0875 -0.3671
 6331TIP3    H140552   4.419   2.481   3.794 -0.6211  2.0804 -0.8222
 6331TIP3    H240553   4.317   2.378   3.837  2.0349 -0.4817 -0.3154
 6332TIP3   OH240554   3.474   0.002   2.724 -0.1932  0.5911  0.1359
 6332TIP3    H140555   3.460   0.066   2.654  0.0668  0.1233 -0.3529
 6332TIP3    H240556   3.558  -0.038   2.702 -1.7538 -2.1497 -1.3407
 6333TIP3   OH240557   5.460   1.939   0.401  0.3269 -0.2045 -0.1360
 6333TIP3    H140558   5.410   1.981   0.471  0.9681  0.6333 -0.1622
 6333TIP3    H240559   5.490   2.012   0.347  0.2358 -0.8129 -1.0233
 6334TIP3   OH240560   2.072   3.282   2.965 -0.0757 -0.3612 -0.3694
 6334TIP3    H140561   2.015   3.210   2.992  2.1670 -2.9522 -2.0157
 6334TIP3    H240562   2.122   3.304   3.043 -1.4929  0.2246  0.4221
 6335TIP3   OH240563   0.257   3.780   7.862 -0.0522  0.0589  0.0012
 6335TIP3    H140564   0.202   3.802   7.787 -0.2095  0.1674  0.1473
 6335TIP3    H240565   0.197   3.737   7.923 -0.4542  2.0205  1.0561
 6336TIP3   OH240566   1.662   0.130   0.495  0.0248  0.1850  0.2819
 6336TIP3    H140567   1.708   0.049   0.475  0.3608  1.0005 -2.8619
 6336TIP3    H240568   1.726   0.199   0.476 -1.4091  1.2448 -1.0118
 6337TIP3   OH240569   1.679   1.326   0.931 -0.2348 -0.0089 -0.3871
 6337TIP3    H140570   1.759   1.284   0.964 -0.1666 -0.3402 -0.9554
 6337TIP3    H240571   1.699   1.346   0.840 -0.4950  0.7049 -0.2901
 6338TIP3   OH240572   4.954   0.510   8.336  0.4167 -0.2179 -0.3916
 6338TIP3    H140573   4.996   0.555   8.263  0.8077  0.0986  0.0247
 6338TIP3    H240574   5.018   0.444   8.363  0.7582  0.4202  0.3960
 6339TIP3   OH240575   1.732   1.750   0.667  0.5198  0.4815 -0.4441
 6339TIP3    H140576   1.653   1.700   0.690  2.1954 -2.2962 -0.2509
 6339TIP3    H240577   1.791   1.738   0.741  1.6574  1.3320 -1.1748
 6340TIP3   OH240578   1.694   3.551   0.641  0.0232 -0.9066  0.8666
 6340TIP3    H140579   1.611   3.503   0.650  0.4010 -1.6411  0.4947
 6340TIP3    H240580   1.669   3.636   0.605 -0.8259 -0.2600  2.8603
 6341TIP3   OH240581   0.525   1.815   2.775 -0.0157  0.4370 -0.3762
 6341TIP3    H140582   0.529   1.724   2.806 -2.6637 -0.1110 -1.4261
 6341TIP3    H240583   0.609   1.827   2.730  1.5920 -0.5084  2.0676
 6342TIP3   OH240584   4.699   5.691   1.865  0.1231  0.9468  0.2168
 6342TIP3    H140585   4.678   5.648   1.782  1.7323 -1.5325  0.9901
 6342TIP3    H240586   4.786   5.728   1.852  0.8212 -0.3406  1.0744
 6343TIP3   OH240587   0.657   2.137   0.774  0.0809  0.4000 -0.1258
 6343TIP3    H140588   0.704   2.081   0.835 -1.1315 -0.2861  0.2046
 6343TIP3    H240589   0.601   2.078   0.725  0.3239  1.0677 -1.2589
 6344TIP3   OH240590   1.355   6.812   1.373 -0.1341  0.2547 -0.7957
 6344TIP3    H140591   1.351   6.848   1.284 -0.1687 -0.5712 -1.1392
 6344TIP3    H240592   1.430   6.856   1.413  0.2012  0.2681 -1.4143
 6345TIP3   OH240593   4.717   5.820   2.840 -0.2358  0.6016  0.1792
 6345TIP3    H140594   4.765   5.849   2.918 -0.3244  0.7140  0.1923
 6345TIP3    H240595   4.669   5.898   2.812  0.7016  0.8972 -0.6683
 6346TIP3   OH240596   5.239   3.634   1.427 -0.2727  0.0816  0.0937
 6346TIP3    H140597   5.317   3.652   1.479  1.5013  1.8957 -2.9327
 6346TIP3    H240598   5.268   3.570   1.362 -1.7626 -0.4473 -0.0735
 6347TIP3   OH240599   4.625   3.557   8.371 -0.0706 -0.2670  0.1665
 6347TIP3    H140600   4.639   3.481   8.314 -2.0266 -0.6147  0.0888
 6347TIP3    H240601   4.619   3.520   8.459 -0.8352 -0.1960  0.1514
 6348TIP3   OH240602   5.164   2.198   2.859  0.5734 -0.2501  0.2021
 6348TIP3    H140603   5.124   2.116   2.832 -0.4151  0.4323 -0.4979
 6348TIP3    H240604   5.218   2.176   2.934 -0.2180 -1.4139  0.4492
 6349TIP3   OH240605   3.780   2.468   8.703 -0.3388 -0.0512 -0.1423
 6349TIP3    H140606   3.857   2.423   8.669  0.7540  0.1556  1.9067
 6349TIP3    H240607   3.730   2.401   8.749 -0.3581  0.1934  0.2024
 6350TIP3   OH240608   1.087   0.130   8.632  0.1083 -0.4944  0.7173
 6350TIP3    H140609   1.029   0.127   8.556 -1.0536 -0.1390  1.5587
 6350TIP3    H240610   1.060   0.056   8.686  0.2595 -0.1759  1.2417
 6351TIP3   OH240611   5.906   5.576   0.733 -0.6024 -0.2486  0.2363
 6351TIP3    H140612   5.871   5.521   0.663 -2.9923  0.4940  0.7636
 6351TIP3    H240613   5.900   5.665   0.700 -0.5958  0.0147  0.9254
 6352TIP3   OH240614   1.943   5.094   2.864  0.3114 -0.1607  0.4803
 6352TIP3    H140615   1.999   5.042   2.805 -0.9665 -0.3198 -0.6440
 6352TIP3    H240616   1.854   5.064   2.845 -0.3313  1.4211  0.8555
 6353TIP3   OH240617   4.287   5.963   1.416 -0.7236 -0.4556 -0.4401
 6353TIP3    H140618   4.301   5.896   1.483 -1.0984  0.4100  0.5438
 6353TIP3    H240619   4.240   5.918   1.346  0.0605 -1.4895 -0.3223
 6354TIP3   OH240620   4.761   0.496   1.702  0.4748  0.0725 -0.1198
 6354TIP3    H140621   4.670   0.494   1.674  0.5854  0.1946 -0.4976
 6354TIP3    H240622   4.808   0.445   1.637  0.4264 -1.5977  1.0842
 6355TIP3   OH240623   1.150   3.899   1.110  0.2877  0.5607  0.1685
 6355TIP3    H140624   1.072   3.859   1.072  0.9749 -0.0777 -0.6247
 6355TIP3    H240625   1.191   3.947   1.038  0.8067  0.5972  0.4803
 6356TIP3   OH240626   0.145   4.007   1.635  0.2733  0.1154 -0.2298
 6356TIP3    H140627   0.237   3.980   1.628  0.3335  0.4858 -0.9223
 6356TIP3    H240628   0.096   3.925   1.623  0.4997  0.0292 -0.5982
 6357TIP3   OH240629   2.685   6.673   0.876 -0.0787 -0.2144  0.2192
 6357TIP3    H140630   2.738   6.643   0.801  0.0555  0.2211  0.1388
 6357TIP3    H240631   2.627   6.599   0.894 -1.0123  0.1473 -1.1427
 6358TIP3   OH240632   2.198   0.467   0.619  0.0446 -1.1883 -0.0937
 6358TIP3    H140633   2.177   0.484   0.527  1.9431  1.4352 -0.1726
 6358TIP3    H240634   2.129   0.511   0.668  0.0301 -1.0178 -0.2660
 6359TIP3   OH240635   1.248   3.424   0.109 -0.4796  0.1377  0.4542
 6359TIP3    H140636   1.221   3.351   0.164  0.8192 -1.2706 -0.7024
 6359TIP3    H240637   1.332   3.397   0.073 -1.3291  0.9335 -2.3324
 6360TIP3   OH240638   5.862   1.920   8.721 -0.5627 -0.0111  0.1608
 6360TIP3    H140639   5.871   1.891   8.812  1.5913  1.5647  0.5247
 6360TIP3    H240640   5.805   1.854   8.681 -1.1533 -1.0451  2.4945
 6361TIP3   OH240641   5.521   4.144   7.869  0.2896  0.7956 -0.2316
 6361TIP3    H140642   5.436   4.101   7.858  0.5616  0.6961 -2.2298
 6361TIP3    H240643   5.537   4.189   7.787  2.6628 -0.0931 -0.3528
 6362TIP3   OH240644   1.260   0.744   0.004  0.0901  0.1763 -0.1018
 6362TIP3    H140645   1.219   0.821  -0.037  0.9269  1.0361  0.6361
 6362TIP3    H240646   1.303   0.699  -0.068 -1.2310 -0.1568 -0.7094
 6363TIP3   OH240647   5.496   4.097   1.004  0.6252 -0.2476  0.7665
 6363TIP3    H140648   5.520   4.178   1.049  1.2046 -0.1151  0.2407
 6363TIP3    H240649   5.403   4.085   1.023  0.3327  0.9605  0.2159
 6364TIP3   OH240650   2.372   1.861   8.154 -0.1048 -0.2233 -0.7600
 6364TIP3    H140651   2.338   1.782   8.114 -0.0357 -0.4600 -0.3558
 6364TIP3    H240652   2.467   1.858   8.138 -0.1287 -0.1169 -0.9259
 6365TIP3   OH240653   4.228   3.257   0.119  0.0478 -0.1139 -0.1359
 6365TIP3    H140654   4.251   3.165   0.118 -1.5471 -0.5470 -0.9007
 6365TIP3    H240655   4.235   3.282   0.211  0.0067 -1.1414  0.1607
 6366TIP3   OH240656   1.317   4.879   0.030  0.3715 -0.0324 -0.9166
 6366TIP3    H140657   1.370   4.850   0.104 -0.7115 -1.0803 -0.5401
 6366TIP3    H240658   1.325   4.975   0.032 -0.3565  0.0365  1.1090
 6367TIP3   OH240659   1.728   5.100   0.195 -0.2345  0.3854 -0.4290
 6367TIP3    H140660   1.757   5.097   0.103 -1.6776 -1.6578 -0.8729
 6367TIP3    H240661   1.781   5.170   0.234  0.1985  1.5362 -2.8841
 6368TIP3   OH240662   2.636   6.253   0.716  0.1313  0.3753  0.2278
 6368TIP3    H140663   2.607   6.298   0.636  0.1916  0.0811  0.0362
 6368TIP3    H240664   2.653   6.163   0.687  1.8558  0.6806  0.1889
 6369TIP3   OH240665   2.690   0.727   1.476  0.3773 -0.4793  0.1186
 6369TIP3    H140666   2.705   0.778   1.396 -0.1724 -1.2153 -0.4744
 6369TIP3    H240667   2.731   0.642   1.459  3.8094  0.5739  2.1805
 6370TIP3   OH240668   5.803   5.904   8.391 -0.7579  0.3857  0.0029
 6370TIP3    H140669   5.824   5.939   8.304  0.4439  1.8997  0.8455
 6370TIP3    H240670   5.710   5.885   8.387 -0.4533 -0.9447 -2.0557
 6371TIP3   OH240671   5.276   0.234   2.518  0.3701 -0.5517 -0.0447
 6371TIP3    H140672   5.253   0.254   2.608 -0.0972 -0.1941 -0.2363
 6371TIP3    H240673   5.273   0.139   2.512 -0.1968 -0.5483  0.1642
 6372TIP3   OH240674   5.036   1.623   1.542  0.7390 -0.4126  0.2469
 6372TIP3    H140675   5.015   1.701   1.491  0.7518 -1.1937 -1.0060
 6372TIP3    H240676   4.970   1.622   1.611  1.3002  1.1816  0.8411
 6373TIP3   OH240677   3.943   0.098   1.837 -0.3936 -0.9083  1.0395
 6373TIP3    H140678   3.945   0.016   1.788 -0.3163 -0.2795 -0.0430
 6373TIP3    H240679   3.850   0.116   1.851 -0.4245 -0.9199  0.8405
 6374TIP3   OH240680   2.751   4.765   2.573  0.4662 -0.0931 -0.1353
 6374TIP3    H140681   2.740   4.769   2.478 -0.3563  0.7754 -0.0166
 6374TIP3    H240682   2.713   4.681   2.599 -0.7909  0.3844 -0.3942
 6375TIP3   OH240683   2.450   2.418   3.330 -0.0626 -0.3663 -0.0518
 6375TIP3    H140684   2.386   2.487   3.344  0.8266  0.0155  2.6697
 6375TIP3    H240685   2.530   2.464   3.303 -0.3479 -0.6913 -1.5924
 6376TIP3   OH240686   4.930   6.811   2.321 -0.0393 -0.0375  0.9172
 6376TIP3    H140687   4.983   6.749   2.272 -0.4532  0.6545 -0.4705
 6376TIP3    H240688   4.859   6.835   2.261 -1.2449 -0.0330  2.2892
 6377TIP3   OH240689   2.933   0.729   2.688 -0.2954 -0.5945 -0.2376
 6377TIP3    H140690   2.904   0.761   2.774 -1.9019 -2.8772  0.1814
 6377TIP3    H240691   2.996   0.660   2.708 -0.9506 -1.3925 -0.8424
 6378TIP3   OH240692   0.672   5.574   3.789 -0.6890  0.1506 -0.0619
 6378TIP3    H140693   0.733   5.546   3.720 -2.4068 -0.2465 -1.4924
 6378TIP3    H240694   0.689   5.668   3.799  1.1814 -0.2214  0.6832
 6379TIP3   OH240695   3.662   6.178   2.568 -0.3661  0.3441 -0.3593
 6379TIP3    H140696   3.753   6.207   2.566  0.0861 -1.0388 -2.0955
 6379TIP3    H240697   3.667   6.084   2.589 -1.4254  0.3424 -0.0426
 6380TIP3   OH240698   2.588   5.390   1.447  0.1062  0.2309  0.3715
 6380TIP3    H140699   2.515   5.329   1.459  0.7321 -0.3377  1.4818
 6380TIP3    H240700   2.661   5.334   1.419  0.7863  0.3827  1.7673
 6381TIP3   OH240701   5.560   3.529   2.624  0.3206 -0.5713  0.6236
 6381TIP3    H140702   5.515   3.610   2.598  2.8944  1.0438  0.7500
 6381TIP3    H240703   5.565   3.534   2.719  0.5862 -0.8005  0.6230
 6382TIP3   OH240704   5.865   0.155   8.117  0.0539 -0.4044  0.1633
 6382TIP3    H140705   5.786   0.205   8.096 -0.3359 -0.7072  0.8379
 6382TIP3    H240706   5.831   0.070   8.146  0.6699 -0.8185 -0.3240
 6383TIP3   OH240707   2.600   5.015   3.650  0.0354 -0.4530  0.2268
 6383TIP3    H140708   2.562   4.938   3.608 -0.9210  0.2824 -0.2872
 6383TIP3    H240709   2.624   5.073   3.578  0.5394 -0.1547  0.6198
 6384TIP3   OH240710   1.425   0.790   3.455 -0.0259 -0.1569  0.1144
 6384TIP3    H140711   1.450   0.857   3.519  0.4159 -1.0418  0.8996
 6384TIP3    H240712   1.483   0.805   3.381 -0.0890  0.4768  0.1882
 6385TIP3   OH240713   3.433   2.063   3.317 -0.2174 -0.8187 -0.1024
 6385TIP3    H140714   3.355   2.009   3.328 -0.2336 -0.7255  0.2291
 6385TIP3    H240715   3.504   2.012   3.354  0.0812 -1.3861 -1.3853
 6386TIP3   OH240716   2.686   0.337   0.428 -1.1199 -0.2138 -0.1107
 6386TIP3    H140717   2.600   0.308   0.398 -0.4000 -2.5804 -0.0194
 6386TIP3    H240718   2.747   0.310   0.359  0.0033 -1.8939  1.4489
 6387TIP3   OH240719   0.205   3.736   1.438  0.2685  0.3382 -0.1896
 6387TIP3    H140720   0.260   3.715   1.514 -0.6181  1.1001  0.6787
 6387TIP3    H240721   0.155   3.655   1.422  0.2559  0.2625  0.2136
 6388TIP3   OH240722   5.782   3.211   8.383  0.3351  0.2835 -0.6531
 6388TIP3    H140723   5.874   3.234   8.372  0.0549  0.7344 -2.3886
 6388TIP3    H240724   5.759   3.164   8.303 -0.6402 -0.9370  0.2961
 6389TIP3   OH240725   6.621   1.323   1.397 -0.8576 -0.3910  0.0337
 6389TIP3    H140726   6.554   1.254   1.399 -0.4409 -0.8744 -1.4191
 6389TIP3    H240727   6.609   1.367   1.313  0.9161 -0.7967 -0.4818
 6390TIP3   OH240728   6.790   2.316   8.535 -0.0038  0.1082  0.7106
 6390TIP3    H140729   6.877   2.328   8.497 -0.3491  1.9497  0.3848
 6390TIP3    H240730   6.743   2.263   8.471  0.4317  0.3639  0.1684
 6391TIP3   OH240731   3.583   1.006   8.018  0.2627  0.3859 -0.1820
 6391TIP3    H140732   3.540   1.009   7.932 -1.1151  0.4475  0.4839
 6391TIP3    H240733   3.582   1.096   8.048  1.8601  0.5711 -0.6014
 6392TIP3   OH240734   0.842   6.441   1.747 -0.2454  0.3676  0.5659
 6392TIP3    H140735   0.818   6.529   1.775  0.4492  0.5312  0.6549
 6392TIP3    H240736   0.844   6.389   1.828  1.3572  0.7465  0.7954
 6393TIP3   OH240737   0.086   1.180   1.813 -0.1746 -0.1052 -0.4528
 6393TIP3    H140738   0.116   1.222   1.732  1.4920  0.3181  0.3294
 6393TIP3    H240739   0.091   1.249   1.879  1.7984 -1.2196  0.6762
 6394TIP3   OH240740   5.066   6.516   1.717 -0.4727  0.8489  0.1420
 6394TIP3    H140741   5.008   6.569   1.771  0.4965 -0.0092  2.1186
 6394TIP3    H240742   5.068   6.431   1.761  0.2856  0.0730 -1.3184
 6395TIP3   OH240743   4.161   3.424   1.246  0.3184 -0.3595  0.0375
 6395TIP3    H140744   4.203   3.338   1.258  0.8875 -0.4791 -2.2967
 6395TIP3    H240745   4.132   3.424   1.155  0.0384  1.8202  0.0764
 6396TIP3   OH240746   2.123   5.452   0.599 -0.3151 -0.7043 -0.0813
 6396TIP3    H140747   2.157   5.502   0.673 -1.7158  0.6229 -0.2933
 6396TIP3    H240748   2.076   5.516   0.546 -1.2724 -2.0560 -0.9260
 6397TIP3   OH240749   2.258   3.952   7.621 -0.3741 -0.4363 -0.2972
 6397TIP3    H140750   2.271   3.984   7.532 -1.8703  1.1975  0.0288
 6397TIP3    H240751   2.325   3.996   7.673  0.7195 -1.6467 -0.6225
 6398TIP3   OH240752   4.664   3.052   2.792  0.5604  0.2811  0.4168
 6398TIP3    H140753   4.697   3.084   2.708  2.0362  0.6075  1.0975
 6398TIP3    H240754   4.705   2.966   2.802 -1.0385 -0.5769 -0.0056
 6399TIP3   OH240755   0.364   0.560   1.551  0.2374 -0.2129  0.7685
 6399TIP3    H140756   0.412   0.607   1.483 -1.5469  0.3639 -0.1657
 6399TIP3    H240757   0.342   0.476   1.511 -1.4532  0.4127  0.3042
 6400TIP3   OH240758   1.198   5.146   8.168 -0.1305  0.9832 -0.5327
 6400TIP3    H140759   1.186   5.098   8.087  0.0289  0.4380 -0.2401
 6400TIP3    H240760   1.119   5.200   8.176 -0.3092  0.7741 -0.8671
 6401TIP3   OH240761   2.207   5.382   0.975  0.6521  0.3144  0.5810
 6401TIP3    H140762   2.257   5.442   0.918 -0.9599 -0.0933 -1.3882
 6401TIP3    H240763   2.139   5.438   1.013  1.1665  0.3852  1.4316
 6402TIP3   OH240764   5.949   3.165   2.047  0.0270 -0.1290 -0.3041
 6402TIP3    H140765   5.998   3.136   1.971  1.7104  2.8510 -0.5252
 6402TIP3    H240766   6.015   3.170   2.117 -0.6537  0.8317  0.2855
 6403TIP3   OH240767   2.950   5.344   2.143 -0.3400 -0.2547  0.5773
 6403TIP3    H140768   2.973   5.378   2.056 -0.4160 -0.7989  0.3428
 6403TIP3    H240769   3.031   5.353   2.194  0.3324 -1.8348 -0.1454
 6404TIP3   OH240770   2.998   1.701   3.083  0.5250  0.6842  0.3705
 6404TIP3    H140771   2.988   1.734   3.172 -0.5222  1.6089 -0.0739
 6404TIP3    H240772   2.970   1.610   3.088  0.7173  0.6561  1.0292
 6405TIP3   OH240773   1.887   4.288   1.181  0.4499 -0.5758 -0.3654
 6405TIP3    H140774   1.895   4.333   1.265 -1.0253  1.2386 -1.1257
 6405TIP3    H240775   1.976   4.290   1.145  1.0597 -1.1729  0.9943
 6406TIP3   OH240776   1.592   0.542   3.426  0.2101 -0.0921  0.1909
 6406TIP3    H140777   1.553   0.613   3.375  1.2196 -0.2263 -0.8136
 6406TIP3    H240778   1.538   0.536   3.505  0.1632  1.8252  0.3314
 6407TIP3   OH240779   4.535   4.441   0.996  0.0233 -0.3176 -1.1057
 6407TIP3    H140780   4.443   4.468   1.002  0.0168 -0.4137 -0.7977
 6407TIP3    H240781   4.582   4.506   1.049 -0.0009 -0.9538 -0.2897
 6408TIP3   OH240782   5.323   1.999   3.566  0.3002  0.2436  0.6878
 6408TIP3    H140783   5.270   2.027   3.491 -0.8191  1.0957  1.7520
 6408TIP3    H240784   5.408   2.039   3.552  0.4679 -0.5225 -0.6717
 6409TIP3   OH240785   0.153   6.680   2.191  0.4498  0.3804 -0.3808
 6409TIP3    H140786   0.188   6.719   2.111 -0.8879  0.5378 -0.9204
 6409TIP3    H240787   0.090   6.745   2.223  1.3845  0.5840  1.1427
 6410TIP3   OH240788   2.760   4.071   8.242  0.2450  0.3016 -0.1351
 6410TIP3    H140789   2.743   4.165   8.237 -1.1487  0.0884  0.2316
 6410TIP3    H240790   2.838   4.064   8.297  1.0642  1.2798 -1.1103
 6411TIP3   OH240791   0.483   4.972   3.113  0.3106 -0.2058  0.5157
 6411TIP3    H140792   0.495   5.056   3.158 -0.0839 -0.2656  0.7431
 6411TIP3    H240793   0.517   4.986   3.025  1.9825 -0.3628  1.0994
 6412TIP3   OH240794   5.296   1.783   0.275 -0.0039 -0.1096  0.6895
 6412TIP3    H140795   5.359   1.835   0.325  1.2676 -1.1418  0.2129
 6412TIP3    H240796   5.349   1.738   0.210 -1.5995  1.1450 -1.6148
 6413TIP3   OH240797   4.360   6.820   1.860 -0.4165 -0.2316  0.0325
 6413TIP3    H140798   4.314   6.739   1.840 -0.4535 -0.1037 -0.4155
 6413TIP3    H240799   4.422   6.831   1.788  0.6028 -0.6096  0.8341
 6414TIP3   OH240800   3.403   4.781   3.085  0.6326  0.4066  0.5032
 6414TIP3    H140801   3.460   4.839   3.136 -0.5663  0.8297  1.4284
 6414TIP3    H240802   3.321   4.831   3.077  0.2243 -0.3867 -0.3417
 6415TIP3   OH240803   5.110   5.573   2.047 -0.1924  0.1542  0.3635
 6415TIP3    H140804   5.085   5.622   1.969  0.1393 -0.1933  0.0393
 6415TIP3    H240805   5.088   5.632   2.120  0.2935  0.8241 -0.0280
 6416TIP3   OH240806   5.707   4.453   3.326  0.4553  0.1479 -0.5274
 6416TIP3    H140807   5.693   4.466   3.419  1.2324 -1.0549 -0.2217
 6416TIP3    H240808   5.803   4.453   3.315  0.4071 -0.9429 -1.1176
 6417TIP3   OH240809   5.893   2.656   3.348  0.2123  0.1309  0.2042
 6417TIP3    H140810   5.926   2.602   3.420  1.2280  0.1469 -0.2322
 6417TIP3    H240811   5.950   2.733   3.348 -0.3318  0.5374 -0.0692
 6418TIP3   OH240812   5.169   4.771   1.379 -0.2708  0.3627  0.0000
 6418TIP3    H140813   5.162   4.768   1.283  1.4600  1.0036 -0.1833
 6418TIP3    H240814   5.206   4.686   1.403 -1.7772 -0.2577  0.2529
 6419TIP3   OH240815   2.427   4.647   8.660  0.2136 -0.4989 -0.0662
 6419TIP3    H140816   2.360   4.585   8.690  0.8090 -1.1246 -0.0117
 6419TIP3    H240817   2.451   4.695   8.739 -0.5836  0.1447 -0.1957
 6420TIP3   OH240818   1.422   6.839   2.630  0.6077  0.4088 -0.4944
 6420TIP3    H140819   1.431   6.805   2.719  0.9716  0.3022 -0.5677
 6420TIP3    H240820   1.474   6.778   2.576  0.4659  0.5243 -0.7635
 6421TIP3   OH240821   4.566   4.910   8.720 -0.6643  0.5091  0.6094
 6421TIP3    H140822   4.536   4.904   8.629 -0.2541  2.2576  0.3155
 6421TIP3    H240823   4.623   4.834   8.732 -1.5845 -0.3501 -0.2304
 6422TIP3   OH240824   5.479   0.273   1.691 -0.5319  0.2999  0.3540
 6422TIP3    H140825   5.571   0.285   1.670 -0.9617  1.4242 -1.0336
 6422TIP3    H240826   5.452   0.357   1.730 -0.7488 -0.3694  1.7305
 6423TIP3   OH240827   4.856   0.279   1.529 -0.2466  0.0347  0.9657
 6423TIP3    H140828   4.889   0.190   1.529 -2.0696 -0.6993  1.1286
 6423TIP3    H240829   4.762   0.269   1.514 -0.1003  2.1151 -2.2723
 6424TIP3   OH240830   6.366   2.411   1.212 -0.3260  0.3361 -0.1665
 6424TIP3    H140831   6.431   2.376   1.274  0.2667  0.3459 -0.7756
 6424TIP3    H240832   6.396   2.382   1.126  1.3581  3.9623 -0.9823
 6425TIP3   OH240833   0.031   4.097   1.273  0.4945  0.0130  0.2179
 6425TIP3    H140834   0.112   4.090   1.323  0.8472 -0.9495 -0.4573
 6425TIP3    H240835   0.035   4.025   1.210  0.5723  1.8068 -1.9345
 6426TIP3   OH240836   4.994   1.080   1.016  0.1754 -0.7516  0.5294
 6426TIP3    H140837   5.040   1.158   0.986  1.8451 -1.4565  1.1276
 6426TIP3    H240838   4.911   1.081   0.968  0.8308  0.5311 -0.6570
 6427TIP3   OH240839   5.605   2.244   1.339 -0.6712 -0.5602  0.5260
 6427TIP3    H140840   5.640   2.164   1.380 -1.4303 -2.1554 -1.7459
 6427TIP3    H240841   5.681   2.284   1.296 -0.3685 -0.2829  1.3096
 6428TIP3   OH240842   3.515   3.541   1.702  0.3847  0.3660 -0.2092
 6428TIP3    H140843   3.609   3.528   1.694  0.4393 -0.3522  1.1790
 6428TIP3    H240844   3.484   3.464   1.749 -1.0279  0.2173 -1.3128
 6429TIP3   OH240845   6.756   2.900   1.501  0.1772  0.4281 -0.0432
 6429TIP3    H140846   6.806   2.917   1.581  0.3531  1.3036 -0.3340
 6429TIP3    H240847   6.674   2.861   1.531  0.8677 -0.6654  0.4653
 6430TIP3   OH240848   0.454   4.956   0.039  0.0446  0.3046 -0.0010
 6430TIP3    H140849   0.373   4.932  -0.006 -0.5592 -1.7537  2.0317
 6430TIP3    H240850   0.521   4.900  -0.000 -0.3619 -1.0296  1.1315
 6431TIP3   OH240851   0.100   1.170   3.002  0.2241 -0.1783  0.0112
 6431TIP3    H140852   0.032   1.135   3.059 -0.6811  0.0896 -0.8950
 6431TIP3    H240853   0.153   1.093   2.979 -1.1162 -0.8014 -1.1033
 6432TIP3   OH240854   3.830   1.890   0.414 -0.1593  0.0434 -0.3804
 6432TIP3    H140855   3.764   1.956   0.434  0.6138  0.8444 -0.3842
 6432TIP3    H240856   3.807   1.815   0.469 -2.6116 -0.7448 -2.3072
 6433TIP3   OH240857   3.917   1.601   2.970 -0.4359  0.1234 -0.0730
 6433TIP3    H140858   3.938   1.508   2.982  0.6430  0.5375  1.5258
 6433TIP3    H240859   3.821   1.604   2.974 -0.5100 -0.4538  4.7458
 6434TIP3   OH240860   6.093   6.320   0.795 -0.3158 -0.0440  0.1975
 6434TIP3    H140861   6.104   6.312   0.889  0.7031 -2.3149 -0.0253
 6434TIP3    H240862   6.151   6.392   0.769 -2.0456  1.8787  1.4642
 6435TIP3   OH240863   1.712   4.293   1.966  0.2316 -0.8626  0.2734
 6435TIP3    H140864   1.655   4.310   2.041 -2.9443  0.0044 -2.1196
 6435TIP3    H240865   1.723   4.198   1.966 -1.8925 -1.1568  0.4379
 6436TIP3   OH240866   1.572   4.560   8.324  0.9758 -0.0121 -0.1621
 6436TIP3    H140867   1.596   4.544   8.233  2.3294  0.3788  0.1034
 6436TIP3    H240868   1.571   4.473   8.364 -0.3621 -0.2682 -0.6946
 6437TIP3   OH240869   3.492   4.139   8.516 -0.6266 -0.0285 -0.1747
 6437TIP3    H140870   3.565   4.173   8.567  0.7800 -0.6715 -1.6549
 6437TIP3    H240871   3.421   4.130   8.578  0.0609  2.0766  1.0230
 6438TIP3   OH240872   3.913   1.826   8.291 -0.7718  0.2480  0.3623
 6438TIP3    H140873   3.846   1.766   8.260 -0.4807  0.2766 -0.3617
 6438TIP3    H240874   3.882   1.913   8.263 -0.8920  0.3666  0.8574
 6439TIP3   OH240875   1.734   4.981   8.117 -0.1528 -0.0251  0.0223
 6439TIP3    H140876   1.733   5.071   8.149  0.2651  1.3041 -3.3385
 6439TIP3    H240877   1.652   4.970   8.070 -0.8935 -1.9913  1.5969
 6440TIP3   OH240878   1.240   3.501   1.958 -0.2800 -0.4906  0.3138
 6440TIP3    H140879   1.160   3.489   2.010  1.0826 -1.1182  2.3935
 6440TIP3    H240880   1.292   3.564   2.009  0.7249 -0.4011 -0.7898
 6441TIP3   OH240881   3.102   4.199   8.027  0.1827 -0.3072  0.0538
 6441TIP3    H140882   3.074   4.277   8.075 -0.7163 -1.2960  1.1949
 6441TIP3    H240883   3.152   4.233   7.953  0.5800  1.3129  1.0272
 6442TIP3   OH240884   3.529   4.795   0.399  0.1221  0.2836 -0.5973
 6442TIP3    H140885   3.454   4.808   0.458 -2.2689  0.2609 -3.3810
 6442TIP3    H240886   3.551   4.883   0.370  2.3705  0.4720  1.3930
 6443TIP3   OH240887   2.489   3.860   2.078 -0.1528 -0.7822  0.5028
 6443TIP3    H140888   2.571   3.900   2.050  0.3787 -0.5015  2.2870
 6443TIP3    H240889   2.428   3.877   2.007  1.4528 -1.4641 -1.1004
 6444TIP3   OH240890   4.246   4.073   2.064 -0.0046 -0.0931 -0.0624
 6444TIP3    H140891   4.273   4.059   2.155  0.5880 -1.4146 -0.4108
 6444TIP3    H240892   4.310   4.136   2.030 -0.1325  0.2843  0.3876
 6445TIP3   OH240893   4.188   2.733   0.894 -0.2512 -0.2650  0.1469
 6445TIP3    H140894   4.198   2.653   0.946 -1.1590 -0.4253  0.0928
 6445TIP3    H240895   4.266   2.784   0.914  0.5813 -1.3650 -0.1819
 6446TIP3   OH240896   5.091   2.193   1.282 -0.8758  1.0185 -0.5517
 6446TIP3    H140897   5.101   2.171   1.189 -1.0942  0.4042 -0.4325
 6446TIP3    H240898   5.181   2.198   1.315 -0.7385  2.5405 -1.0847
 6447TIP3   OH240899   2.509   3.402   2.081 -0.5737 -0.0010  0.2433
 6447TIP3    H140900   2.513   3.323   2.135  0.3687  0.4485  0.8634
 6447TIP3    H240901   2.458   3.464   2.133  0.1235  0.3482  0.5353
 6448TIP3   OH240902   1.891   5.389   2.863 -0.2404  0.2766 -0.3592
 6448TIP3    H140903   1.872   5.403   2.956 -1.4323  1.5475 -0.7756
 6448TIP3    H240904   1.928   5.300   2.860 -0.4325  0.1072  1.2787
 6449TIP3   OH240905   1.938   6.585   8.519 -0.1476 -0.1177 -0.0935
 6449TIP3    H140906   1.932   6.507   8.463  0.4672 -0.2313 -0.0089
 6449TIP3    H240907   1.943   6.549   8.608  0.6305 -0.0150 -0.0825
 6450TIP3   OH240908   2.663   4.372   8.309  0.1290 -0.1192  0.6936
 6450TIP3    H140909   2.595   4.412   8.364 -0.4727  0.4926 -0.4734
 6450TIP3    H240910   2.633   4.386   8.219  1.2124 -0.9049  0.1919
 6451TIP3   OH240911   5.977   5.729   2.153 -0.1952  0.1697  0.1293
 6451TIP3    H140912   5.885   5.713   2.174 -1.0650  2.8197 -1.1338
 6451TIP3    H240913   5.985   5.706   2.060  0.6003 -0.6516  0.3917
 6452TIP3   OH240914   4.006   2.001   2.795  0.4217  0.2352  0.1051
 6452TIP3    H140915   4.051   1.929   2.752  3.0209  1.2357  0.9479
 6452TIP3    H240916   3.992   2.066   2.726  1.4222  0.4116  0.0575
 6453TIP3   OH240917   6.603   5.381   0.055  0.0624  0.2096  0.2772
 6453TIP3    H140918   6.667   5.415   0.117  0.9305 -1.7523  0.5375
 6453TIP3    H240919   6.551   5.318   0.106 -1.4376  1.0332 -0.1785
 6454TIP3   OH240920   5.572   3.760   1.225 -0.3353  0.2046 -0.0363
 6454TIP3    H140921   5.615   3.803   1.151  0.8425 -0.0737  0.4730
 6454TIP3    H240922   5.507   3.702   1.184  2.3108 -2.2577 -1.0939
 6455TIP3   OH240923   1.078   5.430   1.811  0.6449  0.5364 -0.1532
 6455TIP3    H140924   0.994   5.413   1.853  0.9018 -4.1001 -1.0188
 6455TIP3    H240925   1.143   5.418   1.880  0.7690 -1.3509 -0.5430
 6456TIP3   OH240926   2.218   0.243   8.578 -0.6002  0.2226  0.0821
 6456TIP3    H140927   2.129   0.220   8.550 -1.1939 -0.4701  2.3327
 6456TIP3    H240928   2.254   0.162   8.614  1.0446  0.4550 -0.9405
 6457TIP3   OH240929   0.834   2.271   2.958 -0.2068 -0.1892  0.0800
 6457TIP3    H140930   0.825   2.284   3.052 -2.0754 -0.6327 -0.0025
 6457TIP3    H240931   0.883   2.189   2.950 -0.0783 -0.1752  0.6691
 6458TIP3   OH240932   4.689   1.926   1.987 -0.2073  0.1842 -0.2527
 6458TIP3    H140933   4.777   1.910   1.952 -1.2775 -1.3374 -2.5476
 6458TIP3    H240934   4.703   1.946   2.079  2.4493 -1.4927 -0.1636
 6459TIP3   OH240935   5.499   0.164   0.703 -0.4098 -0.4030 -0.2267
 6459TIP3    H140936   5.549   0.206   0.773 -2.0043 -0.3511  0.9477
 6459TIP3    H240937   5.563   0.148   0.634  0.5763  2.5169 -0.1019
 6460TIP3   OH240938   2.574   6.078   0.152  0.2159 -0.0280  0.0228
 6460TIP3    H140939   2.506   6.072   0.086 -0.1164 -2.4679  0.4742
 6460TIP3    H240940   2.639   6.012   0.126  0.2275 -0.8365  1.8916
 6461TIP3   OH240941   4.830   1.045   1.471  0.5592 -0.0851 -0.0583
 6461TIP3    H140942   4.751   1.000   1.441  1.4847 -1.9296  0.0937
 6461TIP3    H240943   4.799   1.124   1.514 -1.2990 -1.2805  0.9189
 6462TIP3   OH240944   3.281   2.928   1.203 -0.0617  0.0601 -0.2138
 6462TIP3    H140945   3.213   2.939   1.137 -0.1839 -1.8590 -0.4682
 6462TIP3    H240946   3.351   2.881   1.158  2.0988  3.0373 -0.3252
 6463TIP3   OH240947   3.212   3.951   0.726  0.2167 -0.7156 -0.3680
 6463TIP3    H140948   3.126   3.925   0.760 -0.1374  0.4440 -0.3288
 6463TIP3    H240949   3.275   3.898   0.776 -0.4849 -1.9103 -0.7170
 6464TIP3   OH240950   2.407   5.332   2.522  0.7337 -0.2337 -0.0364
 6464TIP3    H140951   2.391   5.373   2.437 -1.9938  0.0766  0.5215
 6464TIP3    H240952   2.452   5.400   2.573 -1.5267  1.2973  0.0813
 6465TIP3   OH240953   6.434   4.963   3.049  0.1438 -0.4138 -0.3754
 6465TIP3    H140954   6.391   4.971   3.134  0.4780  1.2355 -0.3321
 6465TIP3    H240955   6.385   4.893   3.004 -1.2769  0.0114  0.4402
 6466TIP3   OH240956   3.213   6.589   1.971 -0.2048 -0.2685  0.1239
 6466TIP3    H140957   3.252   6.545   2.046  0.7361  0.0389 -0.1688
 6466TIP3    H240958   3.140   6.639   2.007  0.5177  0.2383  0.9150
 6467TIP3   OH240959   6.601   0.854   0.467 -0.1567 -0.4791  0.5041
 6467TIP3    H140960   6.575   0.767   0.435 -1.1143  0.1020 -0.3692
 6467TIP3    H240961   6.581   0.852   0.561 -3.4211 -0.1307 -0.0550
 6468TIP3   OH240962   0.979   0.420   2.016 -0.5528 -0.6637  0.0823
 6468TIP3    H140963   0.979   0.328   1.987 -2.2511 -0.0127 -2.3202
 6468TIP3    H240964   0.892   0.452   1.994 -0.3715  1.2777  1.8718
 6469TIP3   OH240965   5.771   4.460   2.694  0.2072 -0.0450  0.2554
 6469TIP3    H140966   5.861   4.470   2.727 -0.1582 -2.1428  2.1855
 6469TIP3    H240967   5.751   4.368   2.709 -2.6402  0.5850  0.9060
 6470TIP3   OH240968   4.609   0.383   0.782  0.1228  0.1606  0.0635
 6470TIP3    H140969   4.684   0.324   0.784 -1.7165 -2.3713  2.1703
 6470TIP3    H240970   4.558   0.354   0.705  0.0117  0.0654  0.1718
 6471TIP3   OH240971   1.997   2.219   0.201  0.0858 -0.3009  0.0821
 6471TIP3    H140972   1.943   2.264   0.136  1.0375  3.7405  1.7946
 6471TIP3    H240973   1.934   2.169   0.253 -1.1657 -0.4055 -1.4441
 6472TIP3   OH240974   5.966   5.405   1.745  0.1100 -0.3919 -0.0108
 6472TIP3    H140975   6.061   5.399   1.733  0.2330  1.7675 -0.5104
 6472TIP3    H240976   5.930   5.340   1.684  1.2500 -1.2561  0.2027
 6473TIP3   OH240977   6.396   3.024   0.850  0.5569 -0.3647 -0.0923
 6473TIP3    H140978   6.442   2.962   0.907 -0.5640 -0.8291  0.3343
 6473TIP3    H240979   6.452   3.102   0.850  1.6448 -1.1241 -0.0912
 6474TIP3   OH240980   1.332   4.918   2.380 -0.0159 -0.3842 -0.1708
 6474TIP3    H140981   1.339   4.955   2.292 -0.7151  1.4340  0.4866
 6474TIP3    H240982   1.238   4.920   2.399  0.1409 -0.6257  0.6679
 6475TIP3   OH240983   0.423   6.611   2.697 -0.1161 -0.4343 -0.8958
 6475TIP3    H140984   0.368   6.646   2.627  0.9140  1.4836 -0.7924
 6475TIP3    H240985   0.381   6.640   2.778 -1.5262 -2.9697 -0.5843
 6476TIP3   OH240986   6.356   3.819   1.485  0.2428  0.2637  0.6068
 6476TIP3    H140987   6.289   3.767   1.441  1.6233  0.2033 -1.5695
 6476TIP3    H240988   6.418   3.755   1.519 -0.3213  0.3616  1.9164
 6477TIP3   OH240989   4.980   1.508   8.399 -0.5268 -0.6628  0.5643
 6477TIP3    H140990   4.928   1.479   8.324 -0.0731 -0.2658  0.0926
 6477TIP3    H240991   5.067   1.524   8.364 -0.9403  2.1091  0.5864
 6478TIP3   OH240992   5.987   1.091   0.034 -0.0015 -0.1124 -0.5915
 6478TIP3    H140993   5.972   1.001   0.062  1.5604 -0.0886  0.4182
 6478TIP3    H240994   6.078   1.109   0.056  0.0656  1.3392 -1.8648
 6479TIP3   OH240995   3.654   5.254   7.540  0.1571  0.6940 -0.5751
 6479TIP3    H140996   3.574   5.294   7.507  0.1397  0.8710 -0.3234
 6479TIP3    H240997   3.701   5.226   7.461  0.9905  2.7739 -0.9022
 6480TIP3   OH240998   6.676   0.658   8.357 -0.6977 -0.0330  0.4119
 6480TIP3    H140999   6.736   0.603   8.408 -0.5290  0.2685  0.5389
 6480TIP3    H241000   6.731   0.696   8.288 -0.8854 -0.2912  0.1194
 6481TIP3   OH241001   0.513   0.051   1.887  0.2135 -0.3152  0.5879
 6481TIP3    H141002   0.609   0.053   1.882  0.2989  2.5172  1.6636
 6481TIP3    H241003   0.485   0.109   1.817 -0.7834 -1.2695  0.1658
 6482TIP3   OH241004   6.058   0.171   0.504  0.0834  0.3179 -0.3076
 6482TIP3    H141005   5.988   0.215   0.455  0.0853 -0.6790 -1.2524
 6482TIP3    H241006   6.040   0.192   0.596 -1.1156  0.5660 -0.5750
 6483TIP3   OH241007   2.905   1.452   3.043 -1.0027  0.2125 -0.1372
 6483TIP3    H141008   2.975   1.388   3.048 -0.7108  0.6170  2.4384
 6483TIP3    H241009   2.834   1.408   2.996  0.0314 -1.0992 -0.5167
 6484TIP3   OH241010   6.277   4.114   3.280 -0.3972 -0.0592  0.0345
 6484TIP3    H141011   6.286   4.191   3.337 -0.4759  0.3622 -0.5174
 6484TIP3    H241012   6.226   4.052   3.332  1.5222 -0.6206  1.3582
 6485TIP3   OH241013   2.931   4.968   1.280  0.3978 -0.2236 -0.1103
 6485TIP3    H141014   2.854   4.971   1.336  0.4029  0.6942 -0.1306
 6485TIP3    H241015   3.002   5.002   1.335  0.2266  1.5412 -0.9126
 6486TIP3   OH241016   1.322   2.629   2.381 -0.1827  0.3933  0.0099
 6486TIP3    H141017   1.370   2.554   2.345 -0.8080 -0.6906  1.3953
 6486TIP3    H241018   1.367   2.705   2.343  0.3855 -0.6477 -1.5254
 6487TIP3   OH241019   6.014   2.805   0.971  0.0197  0.1397  0.0236
 6487TIP3    H141020   5.927   2.771   0.992 -0.6205  1.4001 -0.4903
 6487TIP3    H241021   6.048   2.744   0.905 -0.0539 -0.9086  0.9274
 6488TIP3   OH241022   2.353   1.523   8.329  0.0209  0.4856 -0.1609
 6488TIP3    H141023   2.293   1.448   8.338 -1.4167  1.6587  0.4693
 6488TIP3    H241024   2.375   1.525   8.236 -1.8485  0.6796 -0.6339
 6489TIP3   OH241025   5.366   0.152   8.468 -0.5091  0.6028 -0.1587
 6489TIP3    H141026   5.321   0.222   8.421  1.8953  2.3305 -0.0511
 6489TIP3    H241027   5.356   0.175   8.561  0.7660  1.1573 -0.1443
 6490TIP3   OH241028   0.207   5.403   3.148 -0.8754  0.3111 -0.1334
 6490TIP3    H141029   0.165   5.462   3.085 -0.5193  3.2072  2.1257
 6490TIP3    H241030   0.134   5.355   3.188 -1.1841 -0.8114 -1.9466
 6491TIP3   OH241031   4.374   6.615   3.672 -0.6108 -0.0921 -0.4271
 6491TIP3    H141032   4.306   6.624   3.605 -0.0918  0.9512 -0.8439
 6491TIP3    H241033   4.387   6.521   3.681 -1.7365 -0.2919 -0.7187
 6492TIP3   OH241034   3.849   0.451   1.196  0.1002  0.1050  0.5621
 6492TIP3    H141035   3.753   0.457   1.200 -0.0946 -0.9116 -1.4668
 6492TIP3    H241036   3.878   0.540   1.179 -0.7359 -0.0032 -1.7500
 6493TIP3   OH241037   6.653   4.891   1.335 -0.3795 -0.0998  0.4131
 6493TIP3    H141038   6.722   4.825   1.336  0.1913  0.4952  1.7204
 6493TIP3    H241039   6.659   4.931   1.248 -0.2172 -1.2155 -0.1061
 6494TIP3   OH241040   0.948   2.748   0.199 -0.3062 -0.6360  0.3043
 6494TIP3    H141041   0.946   2.822   0.138  0.5706 -1.4036 -0.7048
 6494TIP3    H241042   0.859   2.712   0.194 -0.9160  0.6743  1.2591
 6495TIP3   OH241043   6.217   6.381   2.354 -0.0156  0.6256 -0.7598
 6495TIP3    H141044   6.232   6.462   2.305 -1.3835  0.2480 -1.8824
 6495TIP3    H241045   6.160   6.407   2.426  0.9051  0.9463 -0.1377
 6496TIP3   OH241046   1.912   0.123   1.196 -0.1761  0.6064 -0.1402
 6496TIP3    H141047   1.972   0.140   1.123 -0.8254  1.8859 -0.3989
 6496TIP3    H241048   1.829   0.101   1.154 -0.5299  1.2749  0.1959
 6497TIP3   OH241049   0.905   6.580   2.778 -0.4488  0.2402  0.1916
 6497TIP3    H141050   0.947   6.494   2.780  1.3480  1.1034  1.1875
 6497TIP3    H241051   0.837   6.574   2.845 -0.6615 -0.5338 -0.0742
 6498TIP3   OH241052   5.236   2.070   1.865  0.6892  0.6375 -0.5006
 6498TIP3    H141053   5.178   2.146   1.869  0.1004  0.1448  1.9162
 6498TIP3    H241054   5.315   2.098   1.911  0.2089 -0.3524  1.0171
 6499TIP3   OH241055   4.152   4.406   2.708  0.1831  0.1303 -0.1113
 6499TIP3    H141056   4.246   4.400   2.724 -0.0825 -1.4622  1.1616
 6499TIP3    H241057   4.139   4.362   2.625  0.5952  0.7523 -0.5163
 6500TIP3   OH241058   5.246   6.023   2.793  0.3713 -0.0762 -1.0027
 6500TIP3    H141059   5.156   5.992   2.796  1.0042 -2.1408  1.8799
 6500TIP3    H241060   5.288   5.968   2.727 -0.2311  0.1399 -1.5736
 6501TIP3   OH241061   0.239   0.201   2.341 -0.1180  0.0109 -0.3876
 6501TIP3    H141062   0.155   0.243   2.359  0.6628  1.2049  0.6075
 6501TIP3    H241063   0.269   0.242   2.260  0.7158  1.5749  0.6620
 6502TIP3   OH241064   5.803   3.672   3.288  0.5294  0.0803 -0.5805
 6502TIP3    H141065   5.886   3.652   3.246 -0.3656 -1.4036 -1.7043
 6502TIP3    H241066   5.826   3.685   3.380  1.8292 -1.7783 -0.5873
 6503TIP3   OH241067   3.230   3.853   2.528  0.1425 -0.1861 -0.3963
 6503TIP3    H141068   3.245   3.901   2.609 -0.6192  0.0920 -0.4088
 6503TIP3    H241069   3.243   3.761   2.552  0.6858 -0.0472 -0.1481
 6504TIP3   OH241070   0.495   2.086   0.375 -0.8792  0.0424  0.3139
 6504TIP3    H141071   0.449   2.062   0.294  0.0551 -0.3494 -0.1123
 6504TIP3    H241072   0.434   2.060   0.445 -1.6641  0.3129 -0.2482
 6505TIP3   OH241073   1.644   1.568   8.315  0.1859 -0.4887 -0.6155
 6505TIP3    H141074   1.577   1.531   8.257  0.5785 -1.0207 -0.7430
 6505TIP3    H241075   1.712   1.599   8.256 -0.6008  1.4337 -0.5638
 6506TIP3   OH241076   6.835   6.077   0.488  0.3587  0.1144  0.0404
 6506TIP3    H141077   6.797   5.993   0.464  0.1511  0.5877 -1.3878
 6506TIP3    H241078   6.927   6.058   0.502  0.0387 -0.6319  1.3471
 6507TIP3   OH241079   6.327   4.886   1.133 -0.0568 -0.4566  0.1444
 6507TIP3    H141080   6.403   4.836   1.106  0.0726  0.3335 -1.0123
 6507TIP3    H241081   6.274   4.895   1.054 -1.2446 -0.7746  0.8695
 6508TIP3   OH241082   4.968   0.854   1.213  0.4989 -0.0368  0.6397
 6508TIP3    H141083   4.893   0.844   1.155 -1.2141 -0.4294  2.7724
 6508TIP3    H241084   5.009   0.936   1.184 -0.5968  0.0693 -0.7467
 6509TIP3   OH241085   4.434   3.310   1.526 -0.6194 -0.1732  0.1697
 6509TIP3    H141086   4.520   3.304   1.566 -1.3231 -1.5607  1.5723
 6509TIP3    H241087   4.451   3.313   1.432  0.9655  0.3567  0.4471
 6510TIP3   OH241088   4.581   6.442   0.250 -0.3950  0.0710  0.3456
 6510TIP3    H141089   4.529   6.365   0.228 -0.3737  0.2229 -0.2581
 6510TIP3    H241090   4.651   6.409   0.306  0.5601 -0.6489 -1.2024
 6511TIP3   OH241091   2.499   6.370   1.527  0.3754 -0.0273 -0.6413
 6511TIP3    H141092   2.489   6.436   1.458 -0.5483  2.6958  1.8904
 6511TIP3    H241093   2.412   6.331   1.535 -0.2508  1.5416  0.6597
 6512TIP3   OH241094   2.459   0.648   8.692 -0.3934  0.4719 -0.1276
 6512TIP3    H141095   2.369   0.658   8.662 -0.4968  0.8720  0.2973
 6512TIP3    H241096   2.511   0.643   8.612 -0.9976 -2.0897 -0.4445
 6513TIP3   OH241097   0.810   1.911   1.841  0.7983  0.3381  0.2876
 6513TIP3    H141098   0.853   1.865   1.913  1.7865  1.7940  0.6776
 6513TIP3    H241099   0.864   1.892   1.764  1.0538  0.6123  0.3964
 6514TIP3   OH241100   3.591   1.545   2.955 -0.3886  0.6650 -0.2314
 6514TIP3    H141101   3.540   1.530   2.876 -0.5462  0.4935 -0.0954
 6514TIP3    H241102   3.531   1.528   3.027 -0.2946  0.9944 -0.0748
 6515TIP3   OH241103   2.130   4.014   0.278  0.0077  0.1665  0.2987
 6515TIP3    H141104   2.103   4.098   0.317 -0.0619  0.7334 -0.9356
 6515TIP3    H241105   2.079   4.007   0.198  0.0186 -1.0714  0.3833
 6516TIP3   OH241106   6.763   1.215   0.797 -0.1904  0.0581  0.5522
 6516TIP3    H141107   6.725   1.188   0.713 -1.3911 -0.1859  1.1485
 6516TIP3    H241108   6.763   1.310   0.794  1.3033  0.0690 -0.3630
 6517TIP3   OH241109   0.625   0.475   0.094  0.2866 -0.1182 -0.1061
 6517TIP3    H141110   0.557   0.524   0.141  0.4964 -0.2134  0.3039
 6517TIP3    H241111   0.584   0.449   0.012 -0.8087 -1.7528  0.8890
 6518TIP3   OH241112   3.064   5.179   1.879  0.3960  0.8761 -0.1770
 6518TIP3    H141113   3.056   5.085   1.861 -0.6756  0.7605  0.8065
 6518TIP3    H241114   3.153   5.189   1.914  0.4720  0.2100 -0.1619
 6519TIP3   OH241115   5.946   1.011   2.017 -0.2692  0.3249  0.1445
 6519TIP3    H141116   5.979   1.010   2.106 -0.7808  1.1323  0.3453
 6519TIP3    H241117   5.858   1.048   2.023 -1.0657 -1.3491 -0.4444
 6520TIP3   OH241118   1.434   5.713   2.956 -0.5019  0.0190  0.0892
 6520TIP3    H141119   1.361   5.764   2.920 -0.3953  0.1108  0.0067
 6520TIP3    H241120   1.473   5.771   3.022  0.3516  0.4985 -0.8191
 6521TIP3   OH241121   5.719   2.831   0.752  0.0720 -0.3297 -0.1148
 6521TIP3    H141122   5.681   2.743   0.756 -0.4850 -0.2233 -2.0479
 6521TIP3    H241123   5.796   2.826   0.809  0.3853 -2.2543 -0.6229
 6522TIP3   OH241124   2.298   4.244   0.965 -0.2351 -0.0840  0.3156
 6522TIP3    H141125   2.217   4.240   1.017 -0.8736 -0.7689 -0.7058
 6522TIP3    H241126   2.337   4.158   0.975 -1.8947 -1.3412 -2.6629
 6523TIP3   OH241127   0.802   5.916   0.247  0.3458 -0.1532 -0.1450
 6523TIP3    H141128   0.718   5.924   0.203 -0.8914  0.8720  2.1793
 6523TIP3    H241129   0.827   6.007   0.267  1.3972 -0.5124  0.2244
 6524TIP3   OH241130   2.219   6.442   0.529 -0.2704 -0.2487 -0.4722
 6524TIP3    H141131   2.180   6.389   0.598  0.4303 -0.3860 -0.1754
 6524TIP3    H241132   2.196   6.532   0.552 -0.4797 -0.3354 -0.3419
 6525TIP3   OH241133   3.882   4.815   1.370  0.0237 -0.5016 -0.5791
 6525TIP3    H141134   3.923   4.818   1.457 -0.2042  1.2188 -0.4941
 6525TIP3    H241135   3.834   4.732   1.369 -0.9202 -0.0436  1.4061
 6526TIP3   OH241136   4.085   2.999   2.260 -0.2338  0.0065  0.1037
 6526TIP3    H141137   4.066   3.061   2.189 -0.5200  0.6675  0.7520
 6526TIP3    H241138   4.173   3.021   2.289 -0.1699 -0.1738  0.0484
 6527TIP3   OH241139   2.825   3.075   2.069 -0.3093  0.3766  0.1925
 6527TIP3    H141140   2.915   3.094   2.092 -0.2178 -1.9118  2.2680
 6527TIP3    H241141   2.831   3.003   2.006 -0.6595 -0.2750  0.8894
 6528TIP3   OH241142   2.541   4.661   1.274 -0.0490 -0.7335  0.9732
 6528TIP3    H141143   2.462   4.713   1.292  0.8946  0.2900  2.4009
 6528TIP3    H241144   2.600   4.683   1.346  1.1992 -2.1914  0.4337
 6529TIP3   OH241145   0.178   6.725   3.317  0.0199 -0.3368  0.0769
 6529TIP3    H141146   0.222   6.642   3.334 -0.2273 -0.4997 -0.0770
 6529TIP3    H241147   0.125   6.741   3.395 -1.1660 -1.1171 -0.5414
 6530TIP3   OH241148   3.715   0.940   3.052 -0.4303 -0.6323 -0.5436
 6530TIP3    H141149   3.744   0.909   2.966  1.7337  3.2798 -1.4419
 6530TIP3    H241150   3.793   0.976   3.093 -1.9457  0.1466  1.9146
 6531TIP3   OH241151   0.728   1.399   0.268  0.3907 -0.0880 -0.0966
 6531TIP3    H141152   0.730   1.487   0.304  1.3879 -0.8156  1.7254
 6531TIP3    H241153   0.692   1.410   0.180  1.6987  2.2950 -0.3987
 6532TIP3   OH241154   3.550   6.141   8.390 -0.5755  0.3145  0.5670
 6532TIP3    H141155   3.580   6.092   8.466  1.0136  0.0204 -0.2089
 6532TIP3    H241156   3.615   6.123   8.322 -1.0701  1.8511 -0.3785
 6533TIP3   OH241157   2.976   0.608   0.400  0.6772  0.1841 -0.4146
 6533TIP3    H141158   2.881   0.617   0.393  0.8096  1.2042 -1.2052
 6533TIP3    H241159   3.006   0.695   0.425  1.3389 -0.3571  0.7274
 6534TIP3   OH241160   6.780   6.713   8.542 -0.1129 -0.1852 -0.4556
 6534TIP3    H141161   6.845   6.696   8.610 -2.8542 -0.7160  2.2721
 6534TIP3    H241162   6.753   6.626   8.512 -0.7457 -0.0493 -0.3042
 6535TIP3   OH241163   1.724   3.075   8.519  0.2005  0.1362 -0.7770
 6535TIP3    H141164   1.725   3.037   8.431  1.7007  0.4084 -0.9072
 6535TIP3    H241165   1.737   3.169   8.505  3.0908 -0.0694 -0.2321
 6536TIP3   OH241166   1.792   6.632   0.869  0.3134  0.0555 -0.1654
 6536TIP3    H141167   1.705   6.612   0.902  0.5112  0.2311  0.4815
 6536TIP3    H241168   1.785   6.722   0.836  0.7402  0.8609  1.7693
 6537TIP3   OH241169   0.493   2.032   2.346 -0.4204 -0.5328 -0.2799
 6537TIP3    H141170   0.516   1.980   2.268 -0.4936  0.1765 -0.7872
 6537TIP3    H241171   0.571   2.029   2.400 -0.5988 -1.6066 -0.0469
 6538TIP3   OH241172   2.693   3.257   1.277 -0.7239  0.2410  0.1918
 6538TIP3    H141173   2.683   3.172   1.319  2.3355 -0.1516  0.3009
 6538TIP3    H241174   2.760   3.302   1.328 -2.3516  2.8341  0.2085
 6539TIP3   OH241175   5.390   3.247   3.819  0.1987  0.1466 -0.0347
 6539TIP3    H141176   5.395   3.323   3.877  0.0901  0.1598 -0.0439
 6539TIP3    H241177   5.463   3.260   3.758 -0.4642  0.7961 -0.7096
 6540TIP3   OH241178   2.934   3.881   2.605  0.0261 -0.0074  0.0246
 6540TIP3    H141179   2.854   3.863   2.556  0.0392  1.0745 -0.4214
 6540TIP3    H241180   3.004   3.879   2.540  0.2422 -0.0368  0.2558
 6541TIP3   OH241181   4.132   2.957   4.014  0.6956  0.9573  0.0201
 6541TIP3    H141182   4.043   2.937   4.044  0.9161 -0.4071 -0.1719
 6541TIP3    H241183   4.143   3.050   4.033 -0.3976  0.9125  1.0141
 6542TIP3   OH241184   0.692   1.426   2.007 -0.1961  0.2050  0.9929
 6542TIP3    H141185   0.677   1.390   2.094 -1.4404 -1.1189  0.2707
 6542TIP3    H241186   0.608   1.415   1.961  1.4197 -2.8869 -1.6460
 6543TIP3   OH241187   5.824   2.261   0.295 -0.2438 -0.2127 -0.2931
 6543TIP3    H141188   5.747   2.225   0.339  0.4309 -0.3530  0.8254
 6543TIP3    H241189   5.798   2.349   0.269 -0.3974  0.2289  1.2398
 6544TIP3   OH241190   3.438   2.265   1.694  0.0750  1.0041 -0.5832
 6544TIP3    H141191   3.399   2.211   1.762  1.7666  1.6252  0.9560
 6544TIP3    H241192   3.413   2.355   1.717 -0.3496  1.1375 -1.5003
 6545TIP3   OH241193   2.952   2.114   0.873 -0.0373 -0.1451  0.9930
 6545TIP3    H141194   2.997   2.143   0.793 -0.7639  2.2719  1.4093
 6545TIP3    H241195   3.021   2.072   0.924  0.9583  0.3378  0.1021
 6546TIP3   OH241196   3.298   6.644   0.045  0.2592 -0.0382  0.0096
 6546TIP3    H141197   3.260   6.558   0.028  0.6950 -0.1827 -0.2469
 6546TIP3    H241198   3.376   6.625   0.098  0.8186  0.1239 -0.7430
 6547TIP3   OH241199   2.395   2.887   1.946  0.0788 -0.5249 -0.1344
 6547TIP3    H141200   2.343   2.946   1.892 -1.6934 -1.2715  0.6735
 6547TIP3    H241201   2.357   2.896   2.034 -0.4856 -3.0917 -0.0465
 6548TIP3   OH241202   6.274   0.067   0.327  0.5057  0.2206  0.0268
 6548TIP3    H141203   6.196   0.100   0.372  1.2080  0.9371  0.7597
 6548TIP3    H241204   6.252  -0.022   0.301 -0.2106  0.0714  1.1027
 6549TIP3   OH241205   3.889   1.747   1.722 -0.1659  0.1874 -0.2658
 6549TIP3    H141206   3.839   1.828   1.732 -2.5132 -1.3691  1.5473
 6549TIP3    H241207   3.933   1.735   1.806 -1.0989 -1.1736  0.0567
 6550TIP3   OH241208   0.506   4.815   3.777 -0.0286  0.5171 -0.4799
 6550TIP3    H141209   0.411   4.816   3.789 -0.0407 -0.9692 -0.1727
 6550TIP3    H241210   0.531   4.725   3.798  1.5800  1.1209  0.3443
 6551TIP3   OH241211   0.231   4.557   2.083 -0.7652  0.4455 -0.0059
 6551TIP3    H141212   0.299   4.507   2.037 -2.7535 -1.9444 -0.5860
 6551TIP3    H241213   0.256   4.648   2.070  1.4620 -0.2824 -1.5412
 6552TIP3   OH241214   4.640   6.736   2.407  0.8371 -0.2738  0.2308
 6552TIP3    H141215   4.623   6.755   2.499 -0.5808  1.6993 -0.3582
 6552TIP3    H241216   4.728   6.769   2.391  1.6915 -1.9888  1.1778
 6553TIP3   OH241217   3.695   4.689   8.442  0.0583 -0.2864  0.0339
 6553TIP3    H141218   3.771   4.640   8.410  0.1895 -0.0908  0.0446
 6553TIP3    H241219   3.625   4.667   8.381  0.2963  0.0471 -0.3612
 6554TIP3   OH241220   6.799   1.261   2.491  0.7474  0.2950 -0.6361
 6554TIP3    H141221   6.848   1.220   2.563  0.1583 -0.7756 -0.8260
 6554TIP3    H241222   6.735   1.318   2.535 -1.0218 -1.9223 -0.1709
 6555TIP3   OH241223   4.758   5.674   1.214  0.0946  0.4916 -0.3344
 6555TIP3    H141224   4.730   5.588   1.183  0.7098  0.2600 -0.2636
 6555TIP3    H241225   4.709   5.736   1.161  1.2523  0.1105 -1.9209
 6556TIP3   OH241226   6.137   6.051   0.063  0.2392  0.2644  0.0298
 6556TIP3    H141227   6.177   5.965   0.047  0.2029  0.0699  0.8831
 6556TIP3    H241228   6.055   6.049   0.015 -0.1102 -0.4749  0.6314
 6557TIP3   OH241229   3.350   2.199   0.859  0.0152 -0.0907 -0.6415
 6557TIP3    H141230   3.396   2.133   0.911 -0.5749  0.3689  0.5124
 6557TIP3    H241231   3.415   2.268   0.844 -0.0761  0.2441  0.3993
 6558TIP3   OH241232   5.434   3.412   1.419 -0.1106  0.0042 -0.2661
 6558TIP3    H141233   5.525   3.432   1.397 -0.0585  0.1958  0.1073
 6558TIP3    H241234   5.432   3.414   1.515 -0.5325  0.1177 -0.2753
 6559TIP3   OH241235   5.498   3.304   0.839  0.3090 -0.1566 -0.1631
 6559TIP3    H141236   5.530   3.391   0.814 -0.1613  0.5271  1.5315
 6559TIP3    H241237   5.523   3.294   0.931 -1.1390 -1.1126  0.1512
 6560TIP3   OH241238   2.721   0.076   8.327 -0.1948 -0.3693 -0.6499
 6560TIP3    H141239   2.638   0.030   8.339 -1.3128  1.2040 -1.9174
 6560TIP3    H241240   2.785   0.007   8.308 -1.6361 -1.4773 -1.6618
 6561TIP3   OH241241   5.636   5.120   2.328 -0.4212 -0.0182  0.3897
 6561TIP3    H141242   5.702   5.051   2.336 -0.6739 -0.5819 -1.6784
 6561TIP3    H241243   5.567   5.095   2.389  0.5816 -0.2366  1.4703
 6562TIP3   OH241244   0.977   4.006   2.586  0.2822 -0.0296  0.1281
 6562TIP3    H141245   1.009   4.096   2.592 -0.1546  0.2253 -1.0952
 6562TIP3    H241246   1.045   3.953   2.628  0.1261  0.9451  1.6877
 6563TIP3   OH241247   3.843   2.525   2.598 -0.3134  0.5715  0.2997
 6563TIP3    H141248   3.840   2.566   2.685 -0.4728 -1.8594  1.5539
 6563TIP3    H241249   3.765   2.559   2.553  0.6096  3.0819  0.4407
 6564TIP3   OH241250   1.855   5.220   0.589 -0.4135 -0.1551 -0.0099
 6564TIP3    H141251   1.772   5.199   0.545 -0.9217 -0.3978  1.0263
 6564TIP3    H241252   1.841   5.192   0.679 -0.2444  2.3911  0.8885
 6565TIP3   OH241253   3.288   5.314   2.965  0.5672 -0.3667 -0.7385
 6565TIP3    H141254   3.211   5.258   2.968  0.2994  0.0310 -0.1857
 6565TIP3    H241255   3.357   5.263   3.008 -0.0649  0.3182  1.1587
 6566TIP3   OH241256   3.731   1.396   3.781  0.2441  0.1204  0.4655
 6566TIP3    H141257   3.778   1.315   3.802  0.6203  0.1910 -0.0683
 6566TIP3    H241258   3.639   1.371   3.779  0.3861 -0.4012 -0.1214
 6567TIP3   OH241259   2.942   4.820   7.509  0.1870 -0.1795 -0.4102
 6567TIP3    H141260   2.947   4.755   7.439  1.5586 -0.5912  0.0359
 6567TIP3    H241261   3.033   4.835   7.535 -0.0367  2.1449 -0.6789
 6568TIP3   OH241262   4.652   1.200   8.462 -0.0973 -0.4321 -0.2896
 6568TIP3    H141263   4.711   1.263   8.503  0.1663 -1.0337  0.2613
 6568TIP3    H241264   4.617   1.247   8.386 -1.8227  1.2935  1.4416
 6569TIP3   OH241265   4.156   5.260   1.520  0.5197 -0.3894 -0.0171
 6569TIP3    H141266   4.229   5.320   1.506  0.2855  0.2385  1.2974
 6569TIP3    H241267   4.079   5.317   1.523  0.0031 -1.0075 -1.0558
 6570TIP3   OH241268   4.896   6.032   8.680  0.1585  0.1146  0.0232
 6570TIP3    H141269   4.873   6.084   8.603 -0.8979  0.9125  0.8459
 6570TIP3    H241270   4.991   6.021   8.675  0.3053  1.5272 -0.5459
 6571TIP3   OH241271   3.518   6.064   0.177  0.1605 -0.4091  0.1678
 6571TIP3    H141272   3.492   5.978   0.145 -3.1384 -0.5356  2.6608
 6571TIP3    H241273   3.574   6.046   0.253  1.8047 -0.2390 -0.9637
 6572TIP3   OH241274   6.350   2.836   4.137 -0.1165 -0.5291 -0.1026
 6572TIP3    H141275   6.390   2.753   4.111 -0.3928 -0.5640 -0.4310
 6572TIP3    H241276   6.394   2.860   4.218 -0.6909 -1.4786  0.5149
 6573TIP3   OH241277   6.562   0.878   2.338  0.0987 -0.5017  0.3507
 6573TIP3    H141278   6.623   0.839   2.275 -0.0775  1.6291 -1.2501
 6573TIP3    H241279   6.615   0.896   2.415  1.4112  0.8250 -0.8130
 6574TIP3   OH241280   4.120   5.106   8.037 -0.3418 -0.2372  0.2286
 6574TIP3    H141281   4.096   5.055   7.959 -2.7909  0.1071  0.6659
 6574TIP3    H241282   4.052   5.173   8.043  0.0402  0.0155  2.4196
 6575TIP3   OH241283   2.467   4.295   2.314  0.0504 -0.3740 -0.2265
 6575TIP3    H141284   2.561   4.308   2.316 -0.0628  0.9345 -1.5681
 6575TIP3    H241285   2.435   4.334   2.395  0.5486  0.5086 -0.4383
 6576TIP3   OH241286   4.216   6.730   2.279 -0.3828  0.0385 -0.3432
 6576TIP3    H141287   4.205   6.647   2.326  0.6353  0.6923  1.1042
 6576TIP3    H241288   4.285   6.712   2.215 -0.0537 -0.2040  0.0724
 6577TIP3   OH241289   2.800   5.536   1.645  0.1957  0.3022 -0.7158
 6577TIP3    H141290   2.820   5.458   1.594 -1.9281 -0.9952  0.2902
 6577TIP3    H241291   2.768   5.600   1.581 -1.3111 -0.8902 -1.2100
 6578TIP3   OH241292   2.929   5.076   2.194  0.1451  0.1539 -0.7150
 6578TIP3    H141293   2.920   5.165   2.162  0.9804  0.7821  0.6973
 6578TIP3    H241294   2.907   5.081   2.287  3.0597 -0.4527  0.1282
 6579TIP3   OH241295   4.658   4.259   2.220 -0.5638  0.2569 -0.1696
 6579TIP3    H141296   4.747   4.291   2.234 -1.3657  2.6939 -0.1981
 6579TIP3    H241297   4.651   4.182   2.278  1.1064  0.8418  0.8803
 6580TIP3   OH241298   5.969   2.406   3.215  0.4688  0.1625 -0.2260
 6580TIP3    H141299   5.910   2.362   3.276 -0.3022  0.5997 -0.6507
 6580TIP3    H241300   5.959   2.500   3.235  0.6103  0.2733 -0.6614
 6581TIP3   OH241301   4.486   2.761   7.597  0.4164 -0.2746 -0.4382
 6581TIP3    H141302   4.409   2.763   7.653  0.9695 -0.1151  0.3363
 6581TIP3    H241303   4.493   2.850   7.562 -0.6237 -0.6765 -1.7580
 6582TIP3   OH241304   1.060   1.635   1.662  0.1979  0.1907  0.1458
 6582TIP3    H141305   1.030   1.725   1.653 -0.5271  0.0069  0.6689
 6582TIP3    H241306   1.143   1.633   1.613 -0.5021  0.7598 -1.1040
 6583TIP3   OH241307   2.338   0.830   1.423  0.1770  0.1866 -0.1520
 6583TIP3    H141308   2.245   0.809   1.433  0.4932 -0.7744  1.0377
 6583TIP3    H241309   2.367   0.776   1.350 -0.3481  1.0653 -1.0385
 6584TIP3   OH241310   4.964   2.359   0.708  0.3959 -0.0981 -0.4416
 6584TIP3    H141311   4.954   2.266   0.728 -0.8641  0.1842  0.3347
 6584TIP3    H241312   4.940   2.367   0.616 -0.4024 -0.4003 -0.2606
 6585TIP3   OH241313   1.843   4.634   1.105 -0.0550  0.0321  0.4545
 6585TIP3    H141314   1.889   4.712   1.136  0.0431  0.0702  0.2094
 6585TIP3    H241315   1.750   4.657   1.113 -0.0237  0.5507 -0.5833
 6586TIP3   OH241316   1.058   0.075   0.356  0.0585 -0.1495  0.1744
 6586TIP3    H141317   1.053  -0.020   0.359  1.9218 -0.2627  1.1185
 6586TIP3    H241318   0.967   0.104   0.351 -0.5198 -1.9758 -0.5516
 6587TIP3   OH241319   2.014   5.474   3.133  0.3436  0.0377 -0.4423
 6587TIP3    H141320   2.066   5.528   3.073  0.9530 -0.1877 -0.1191
 6587TIP3    H241321   2.035   5.508   3.220  1.5242 -1.3696 -0.1486
 6588TIP3   OH241322   4.247   1.696   0.251  0.3048 -0.2346  0.0099
 6588TIP3    H141323   4.210   1.775   0.290 -0.7743 -1.1168  0.8160
 6588TIP3    H241324   4.185   1.671   0.183  1.0198  0.0049 -0.7532
 6589TIP3   OH241325   5.829   4.488   2.401 -0.0138 -0.1920 -0.6262
 6589TIP3    H141326   5.741   4.524   2.408 -0.8261 -1.8215 -1.6609
 6589TIP3    H241327   5.845   4.446   2.485 -0.3130 -0.0583 -0.5014
 6590TIP3   OH241328   5.074   2.573   2.813 -0.6549 -0.3056 -0.3949
 6590TIP3    H141329   5.069   2.609   2.901  0.5153  0.0775 -0.4812
 6590TIP3    H241330   5.011   2.500   2.814 -1.1133  0.0875  0.5565
 6591TIP3   OH241331   5.043   0.932   1.829 -0.3251 -0.0056 -0.0044
 6591TIP3    H141332   5.085   0.856   1.869 -0.2967  0.4463  0.8629
 6591TIP3    H241333   5.106   0.964   1.765  0.5988  0.5537  1.1469
 6592TIP3   OH241334   0.560   3.550   1.581  0.3424  0.3700 -0.3978
 6592TIP3    H141335   0.580   3.607   1.507 -1.9015  0.2089 -1.1950
 6592TIP3    H241336   0.468   3.568   1.602  0.5227 -0.5916  1.4600
 6593TIP3   OH241337   4.577   6.374   0.807 -0.9513  0.5346 -0.1308
 6593TIP3    H141338   4.551   6.451   0.756  1.2579  0.0484 -2.1836
 6593TIP3    H241339   4.509   6.309   0.789 -3.1520  2.0733  2.0783
 6594TIP3   OH241340   3.201   4.506   8.104  0.1572 -0.0704 -0.5159
 6594TIP3    H141341   3.276   4.507   8.045  0.8178  0.6589  0.3056
 6594TIP3    H241342   3.237   4.479   8.188 -0.6859 -0.6563 -0.3352
 6595TIP3   OH241343   5.885   6.821   2.640  0.1413  0.1552  0.1669
 6595TIP3    H141344   5.932   6.852   2.563 -0.2274  1.1954  0.3467
 6595TIP3    H241345   5.945   6.759   2.681 -0.3692 -1.8135 -1.9069
 6596TIP3   OH241346   6.333   5.353   1.971 -0.5193 -0.4934 -0.2196
 6596TIP3    H141347   6.336   5.395   2.056 -1.2895 -1.3718  0.2585
 6596TIP3    H241348   6.352   5.423   1.908  2.4596 -0.2542  0.7677
 6597TIP3   OH241349   5.675   1.830   8.528  0.3552  0.2469 -0.2273
 6597TIP3    H141350   5.732   1.836   8.452 -0.7216 -2.9619 -1.4436
 6597TIP3    H241351   5.701   1.749   8.572 -3.3942 -1.6558 -1.1153
 6598TIP3   OH241352   0.818   5.555   3.228  0.1798 -0.0768  0.2739
 6598TIP3    H141353   0.843   5.646   3.242  1.0318 -0.2982  0.2375
 6598TIP3    H241354   0.797   5.522   3.316  0.3921  0.0044  0.3558
 6599TIP3   OH241355   5.787   1.712   8.160 -0.4758 -0.2327 -0.4134
 6599TIP3    H141356   5.732   1.790   8.164 -1.3535 -0.8678  1.0687
 6599TIP3    H241357   5.729   1.644   8.126  0.5630 -0.0612 -2.6666
 6600TIP3   OH241358   3.689   4.504   2.085  0.6524  0.3483 -0.9589
 6600TIP3    H141359   3.737   4.504   2.167 -1.5941  0.4471  0.4593
 6600TIP3    H241360   3.707   4.418   2.046  0.7555 -0.2164  0.2864
 6601TIP3   OH241361   4.268   4.693   2.150 -0.1712  0.1182  0.1653
 6601TIP3    H141362   4.242   4.704   2.242 -1.8680  1.6072 -0.4207
 6601TIP3    H241363   4.204   4.630   2.115  1.4714 -1.7490  0.3292
 6602TIP3   OH241364   4.403   2.778   1.962  1.3424 -0.1435 -0.5352
 6602TIP3    H141365   4.316   2.750   1.990  1.5725  1.0044  1.4369
 6602TIP3    H241366   4.461   2.706   1.988  1.3376  0.2474  0.5880
 6603TIP3   OH241367   0.731   6.647   2.068 -0.0278 -0.4612  0.3663
 6603TIP3    H141368   0.647   6.603   2.058 -0.1813 -0.4887  1.6392
 6603TIP3    H241369   0.725   6.693   2.152  0.6324  0.8823 -0.2807
 6604TIP3   OH241370   5.680   3.986   8.586 -0.0007  0.1223 -0.2744
 6604TIP3    H141371   5.693   4.052   8.518 -0.2511 -1.7479 -2.2361
 6604TIP3    H241372   5.761   3.989   8.637 -0.6276  2.9820  0.7196
 6605TIP3   OH241373   1.361   4.600   0.735  0.1997 -0.4871  0.8392
 6605TIP3    H141374   1.265   4.597   0.730  0.1553  1.2510 -0.2800
 6605TIP3    H241375   1.390   4.599   0.644  1.1419  0.5381  1.1077
 6606TIP3   OH241376   2.355   5.604   2.919 -0.3800 -0.0070 -0.0531
 6606TIP3    H141377   2.448   5.595   2.941 -0.2809 -0.5171 -0.6490
 6606TIP3    H241378   2.332   5.520   2.879 -1.0208  0.2316 -0.1936
 6607TIP3   OH241379   4.674   4.233   1.598 -0.3028  0.3661 -0.6290
 6607TIP3    H141380   4.648   4.312   1.644 -0.3384 -0.1637  0.2966
 6607TIP3    H241381   4.592   4.183   1.588  0.0417 -0.5531  0.8119
 6608TIP3   OH241382   0.548   5.080   2.842  0.0463  0.0020  0.6534
 6608TIP3    H141383   0.616   5.140   2.871  0.2749 -0.6642  1.5775
 6608TIP3    H241384   0.470   5.134   2.832 -0.0273  0.3048  2.5190
 6609TIP3   OH241385   3.375   1.282   1.783  0.0841  1.0526  0.6823
 6609TIP3    H141386   3.460   1.326   1.774  0.1935  0.9872  1.3429
 6609TIP3    H241387   3.323   1.316   1.710  1.1345  0.0048 -0.5893
 6610TIP3   OH241388   4.161   3.701   0.269 -0.4685 -0.2322 -0.0149
 6610TIP3    H141389   4.256   3.705   0.254  0.3136 -2.8441  3.2089
 6610TIP3    H241390   4.123   3.699   0.181  2.3749  1.2345 -1.4185
 6611TIP3   OH241391   5.388   1.304   2.772  0.1953 -0.1782  0.1637
 6611TIP3    H141392   5.435   1.370   2.721 -0.0886 -1.0869 -1.3383
 6611TIP3    H241393   5.295   1.329   2.762  0.0719 -0.9179 -0.5994
 6612TIP3   OH241394   2.795   2.681   2.372 -0.1042  0.1529 -0.0890
 6612TIP3    H141395   2.731   2.656   2.439 -0.9432  2.6536  0.1268
 6612TIP3    H241396   2.743   2.694   2.293  0.4209  0.2977 -0.4154
 6613TIP3   OH241397   4.983   0.730   0.472  0.0125 -0.0529 -0.4845
 6613TIP3    H141398   4.971   0.669   0.399  2.7011 -0.1981 -0.9105
 6613TIP3    H241399   5.060   0.782   0.447  0.2411  0.7377  1.6933
 6614TIP3   OH241400   2.510   3.999   8.410  0.6821 -0.2244 -0.5783
 6614TIP3    H141401   2.442   4.028   8.470  1.4035 -0.3573  0.3340
 6614TIP3    H241402   2.572   4.072   8.407  1.8198 -1.0952  0.6752
 6615TIP3   OH241403   1.967   1.485   0.195 -0.0892  0.3422 -0.4032
 6615TIP3    H141404   1.920   1.496   0.112 -0.3551 -0.6034 -0.3906
 6615TIP3    H241405   1.932   1.554   0.252 -0.7888  0.2378 -0.6955
 6616TIP3   OH241406   3.417   0.937   2.205 -0.2365  0.1347  0.0269
 6616TIP3    H141407   3.376   0.996   2.141  1.3767 -0.0030 -1.1899
 6616TIP3    H241408   3.458   0.869   2.152  2.0979  0.6132  1.1020
 6617TIP3   OH241409   3.986   4.644   2.753 -0.4217 -0.1853 -0.5222
 6617TIP3    H141410   4.002   4.651   2.659 -2.4992 -0.3699 -0.9217
 6617TIP3    H241411   4.061   4.595   2.786  1.6205  1.9593 -1.6323
 6618TIP3   OH241412   2.670   6.312   0.232  0.2852 -0.3848 -0.5023
 6618TIP3    H141413   2.628   6.241   0.184  0.2321 -1.5604  1.1864
 6618TIP3    H241414   2.677   6.279   0.322  0.1916  1.7766  0.3620
 6619TIP3   OH241415   0.067   0.414   0.493  0.1971 -0.0150 -0.2687
 6619TIP3    H141416   0.006   0.353   0.535  0.6936 -1.3266 -1.3625
 6619TIP3    H241417   0.011   0.475   0.446 -0.3046 -0.8110 -0.7338
 6620TIP3   OH241418   0.431   4.665   8.297  0.3509  0.3717  0.6147
 6620TIP3    H141419   0.521   4.689   8.274 -0.0463 -0.3803 -2.0317
 6620TIP3    H241420   0.426   4.572   8.276 -1.4959  0.7747 -1.0171
 6621TIP3   OH241421   6.754   3.860   0.449 -0.1510 -0.4887 -0.2156
 6621TIP3    H141422   6.772   3.931   0.512 -0.2259 -0.0803 -0.6461
 6621TIP3    H241423   6.767   3.901   0.363  1.1783 -1.3621 -0.4641
 6622TIP3   OH241424   2.428   0.617   3.979  0.4961  0.0400 -0.2326
 6622TIP3    H141425   2.338   0.641   4.001  0.4853 -0.4457  0.2739
 6622TIP3    H241426   2.428   0.609   3.884  0.0167  0.0940 -0.2399
 6623TIP3   OH241427   0.354   6.744   3.741 -0.0222  0.2712  0.2325
 6623TIP3    H141428   0.320   6.712   3.825  0.1699  3.2842  1.6084
 6623TIP3    H241429   0.342   6.671   3.680 -1.5117 -1.5391  2.5283
 6624TIP3   OH241430   5.662   4.069   8.113  0.5137 -0.3151  0.1248
 6624TIP3    H141431   5.636   4.123   8.037 -2.4725  0.6690  1.6722
 6624TIP3    H241432   5.730   4.120   8.157 -1.6590  1.9621  1.0864
 6625TIP3   OH241433   0.699   4.468   1.684 -0.4615  0.9383 -0.5945
 6625TIP3    H141434   0.631   4.448   1.621 -1.8296 -1.7031  1.5058
 6625TIP3    H241435   0.658   4.528   1.746 -1.2325 -1.1052  0.9993
 6626TIP3   OH241436   3.756   6.055   3.262  0.0478  0.1281  0.0727
 6626TIP3    H141437   3.800   6.140   3.266 -0.4925  0.4445 -0.5539
 6626TIP3    H241438   3.663   6.077   3.259 -0.0420 -0.3918 -2.2325
 6627TIP3   OH241439   5.899   2.110   2.072  0.0978  0.3669  0.6091
 6627TIP3    H141440   5.838   2.078   2.006  0.9758  0.1189 -0.0982
 6627TIP3    H241441   5.904   2.204   2.058  0.2437  0.3214  0.3422
 6628TIP3   OH241442   0.574   2.336   0.128  0.1641 -0.0095 -0.1658
 6628TIP3    H141443   0.621   2.403   0.079 -0.2104  1.1807  1.0379
 6628TIP3    H241444   0.638   2.266   0.141  0.4287 -0.1090 -1.8222
 6629TIP3   OH241445   5.959   4.025   0.671 -0.8044  0.2239 -0.2564
 6629TIP3    H141446   5.877   4.033   0.719  0.6498 -1.2444  2.7809
 6629TIP3    H241447   5.935   3.981   0.589 -3.1166  0.5582  0.1779
 6630TIP3   OH241448   6.759   0.001   2.245 -0.1959  0.4972  0.5594
 6630TIP3    H141449   6.725   0.090   2.234 -0.2496  0.3434 -0.6425
 6630TIP3    H241450   6.681  -0.055   2.246 -0.1055  0.3402 -0.1601
 6631TIP3   OH241451   1.703   0.605   0.449 -0.0676 -0.0958 -0.6845
 6631TIP3    H141452   1.702   0.587   0.355  0.3421 -0.3465 -0.6434
 6631TIP3    H241453   1.619   0.571   0.481 -1.3658  2.2384 -1.3551
 6632TIP3   OH241454   3.638   2.591   1.796 -0.6469 -0.0316  0.2964
 6632TIP3    H141455   3.562   2.590   1.737 -0.1113  1.1444 -0.4511
 6632TIP3    H241456   3.711   2.562   1.742 -0.0539  1.5368  0.1878
 6633TIP3   OH241457   0.504   4.240   0.641  0.4797 -0.1816 -0.4130
 6633TIP3    H141458   0.574   4.289   0.597 -0.5627  1.9963  0.2553
 6633TIP3    H241459   0.436   4.305   0.660 -1.3569 -2.0571 -0.2146
 6634TIP3   OH241460   3.204   0.420   2.073 -0.0038  0.4097  0.5007
 6634TIP3    H141461   3.128   0.379   2.031  0.6426 -1.2500  0.8582
 6634TIP3    H241462   3.189   0.409   2.166 -0.1958  1.7554  0.6421
 6635TIP3   OH241463   5.951   1.900   2.590  0.3415  0.3951 -0.1655
 6635TIP3    H141464   5.983   1.988   2.568 -1.6865  1.1590 -0.3233
 6635TIP3    H241465   5.937   1.902   2.684 -1.7863  1.0557 -0.4395
 6636TIP3   OH241466   6.373   1.524   2.149 -0.0291 -0.0580 -0.0457
 6636TIP3    H141467   6.324   1.592   2.102  0.3852 -0.3797 -0.9704
 6636TIP3    H241468   6.359   1.544   2.241 -0.4616  0.8875 -0.3017
 6637TIP3   OH241469   3.103   6.845   1.167 -0.6670  0.1316 -0.2860
 6637TIP3    H141470   3.010   6.828   1.159 -0.5984  0.1383 -1.1701
 6637TIP3    H241471   3.144   6.759   1.162 -0.5698  0.2072 -0.7981
 6638TIP3   OH241472   3.042   4.603   0.115 -0.7794 -0.0487  0.9603
 6638TIP3    H141473   2.952   4.604   0.081 -0.5656 -0.0844  0.3860
 6638TIP3    H241474   3.072   4.694   0.105 -0.8980  0.0639  1.5643
 6639TIP3   OH241475   0.054   4.705   3.769  0.5036  0.0826  0.0244
 6639TIP3    H141476  -0.015   4.739   3.827 -0.5602  0.7479 -1.5753
 6639TIP3    H241477   0.103   4.643   3.824 -2.1363 -1.3848  0.8663
 6640TIP3   OH241478   6.835   3.748   3.428 -0.4473 -0.0798 -0.1245
 6640TIP3    H141479   6.803   3.679   3.487  0.5156 -1.7780 -1.5166
 6640TIP3    H241480   6.919   3.774   3.465 -1.4732  1.4641  1.2345
 6641TIP3   OH241481   2.677   2.303   8.353 -0.2960 -0.4408 -0.1057
 6641TIP3    H141482   2.747   2.265   8.300 -1.0792 -0.3659 -1.2335
 6641TIP3    H241483   2.722   2.345   8.426  0.8172 -0.5863 -0.6865
 6642TIP3   OH241484   3.900   5.519   2.949 -0.0331  0.2197 -0.4755
 6642TIP3    H141485   3.874   5.531   2.857 -0.8608 -0.9256 -0.4000
 6642TIP3    H241486   3.824   5.482   2.991  0.6436 -0.1006  0.4946
 6643TIP3   OH241487   2.172   5.281   8.655  0.2617  0.2615  0.2229
 6643TIP3    H141488   2.185   5.202   8.604 -0.7169  1.1629 -1.5282
 6643TIP3    H241489   2.252   5.332   8.642  0.3818  0.1006  0.3312
 6644TIP3   OH241490   0.422   5.528   3.926  0.1285  0.0832  0.7215
 6644TIP3    H141491   0.501   5.569   3.891  0.5871 -0.0560  1.5774
 6644TIP3    H241492   0.353   5.556   3.866  1.1783 -1.8444 -1.5462
 6645TIP3   OH241493   2.072   1.940   3.683 -0.5018 -0.2123 -0.4960
 6645TIP3    H141494   2.000   1.943   3.746  1.1331  1.5622  1.4627
 6645TIP3    H241495   2.146   1.904   3.733  0.6450  0.4635 -1.6277
 6646TIP3   OH241496   6.129   3.206   8.554  0.2396  0.5714 -0.1944
 6646TIP3    H141497   6.091   3.177   8.471 -0.1681 -0.1211  0.2189
 6646TIP3    H241498   6.190   3.275   8.530  1.0525 -0.4613 -1.1942
 6647TIP3   OH241499   5.033   1.814   0.222 -0.3548  0.2692  0.5602
 6647TIP3    H141500   5.002   1.755   0.290  0.1994 -1.5493 -0.6948
 6647TIP3    H241501   5.128   1.808   0.226 -0.2862 -1.3381 -1.4989
 6648TIP3   OH241502   3.029   1.609   0.039  0.2687  0.9018 -0.2044
 6648TIP3    H141503   2.952   1.656   0.007  0.8751  2.5448  0.6735
 6648TIP3    H241504   2.995   1.546   0.102 -0.6037 -0.2479 -1.7457
 6649TIP3   OH241505   6.198   5.775   8.062 -0.1576  0.2001 -0.5968
 6649TIP3    H141506   6.165   5.853   8.107  1.4899  1.2526 -1.0901
 6649TIP3    H241507   6.159   5.780   7.975 -0.0095  0.5216 -0.6476
 6650TIP3   OH241508   4.970   3.766   3.467 -0.0218 -0.2926 -0.3863
 6650TIP3    H141509   4.894   3.716   3.436  0.0658 -2.3086  2.2458
 6650TIP3    H241510   4.936   3.854   3.484 -1.8404 -1.1357  0.6900
 6651TIP3   OH241511   5.778   2.351   8.143 -0.1199  0.3820 -0.0911
 6651TIP3    H141512   5.744   2.289   8.207 -2.0549  1.3867 -0.0920
 6651TIP3    H241513   5.769   2.307   8.058  0.6134 -0.1797  0.1144
 6652TIP3   OH241514   4.752   5.755   2.479 -0.3234  0.1913  0.1942
 6652TIP3    H141515   4.810   5.683   2.452  0.8016 -0.3816  3.6210
 6652TIP3    H241516   4.667   5.712   2.495  0.2053 -0.3424  1.7250
 6653TIP3   OH241517   2.788   0.282   8.612 -0.0771 -0.4228  0.0833
 6653TIP3    H141518   2.701   0.316   8.634  0.8568  1.1407  1.6220
 6653TIP3    H241519   2.819   0.241   8.693  0.2089 -1.9439 -0.7646
 6654TIP3   OH241520   0.160   2.806   1.907  0.2132  0.4245  0.1307
 6654TIP3    H141521   0.083   2.856   1.933 -1.2439 -1.3537 -0.5898
 6654TIP3    H241522   0.226   2.829   1.972 -1.2917  1.0618  1.5102
 6655TIP3   OH241523   1.374   3.204   3.335  0.0256  0.8240  0.3134
 6655TIP3    H141524   1.294   3.171   3.377  0.4835 -1.8058 -0.7331
 6655TIP3    H241525   1.425   3.241   3.407 -1.0870  0.3507  1.3816
 6656TIP3   OH241526   6.225   4.187   1.907  0.6074  0.6764 -0.6370
 6656TIP3    H141527   6.211   4.101   1.866  0.8417 -0.5454  1.6796
 6656TIP3    H241528   6.200   4.250   1.839 -4.6566 -1.1722 -0.9198
 6657TIP3   OH241529   1.854   6.768   0.450  0.0968 -0.2084 -0.1939
 6657TIP3    H141530   1.897   6.712   0.515 -0.2234 -1.6958 -1.2321
 6657TIP3    H241531   1.926   6.808   0.402  0.3433  1.0019  1.0997
 6658TIP3   OH241532   4.253   6.353   2.190 -0.3797 -0.3079 -0.0272
 6658TIP3    H141533   4.222   6.279   2.137 -0.9092  0.1395 -0.3592
 6658TIP3    H241534   4.333   6.381   2.146  0.7939 -1.7579  1.0952
 6659TIP3   OH241535   2.175   4.872   2.142 -0.1865  0.0027  0.9712
 6659TIP3    H141536   2.116   4.895   2.214  0.2698  0.0709  1.3320
 6659TIP3    H241537   2.262   4.899   2.173 -0.0616  0.5771  0.1557
 6660TIP3   OH241538   5.030   3.658   0.312 -0.3051  0.4041  0.0982
 6660TIP3    H141539   5.035   3.593   0.242 -0.4261 -1.2912  1.5985
 6660TIP3    H241540   5.015   3.607   0.391 -2.6960  2.4115  1.0857
 6661TIP3   OH241541   2.216   0.439   0.067  0.0508 -0.3539  0.3191
 6661TIP3    H141542   2.221   0.354   0.024  0.1361  0.3781 -1.1914
 6661TIP3    H241543   2.124   0.463   0.063  0.2407  0.2815 -0.6538
 6662TIP3   OH241544   6.664   1.845   3.411  0.3731  0.0295 -0.3045
 6662TIP3    H141545   6.665   1.855   3.316  0.3745 -0.8217 -0.4042
 6662TIP3    H241546   6.692   1.754   3.426 -0.0311  0.0248  0.4859
 6663TIP3   OH241547   1.240   1.822   3.879  0.3164  0.0815  0.5959
 6663TIP3    H141548   1.302   1.886   3.913  0.3634 -0.0154  0.6935
 6663TIP3    H241549   1.295   1.756   3.836  0.3661 -0.6525  1.7553
 6664TIP3   OH241550   3.278   0.204   0.181 -0.2008 -0.3081  0.0477
 6664TIP3    H141551   3.232   0.281   0.213  0.9162  0.9066 -1.1402
 6664TIP3    H241552   3.276   0.212   0.086  1.8601 -0.5357 -0.0710
 6665TIP3   OH241553   5.319   0.563   2.792 -0.6420  0.2376 -0.5345
 6665TIP3    H141554   5.265   0.614   2.852 -0.0505  2.8014 -2.0288
 6665TIP3    H241555   5.331   0.620   2.716  2.0631 -1.2010 -1.3291
 6666TIP3   OH241556   6.097   6.448   3.414 -0.3270 -0.0738  0.7341
 6666TIP3    H141557   6.077   6.510   3.344 -0.6019  1.1288  1.8285
 6666TIP3    H241558   6.034   6.470   3.484  1.1379  0.0273  2.0772
 6667TIP3   OH241559   5.292   6.779   3.486  0.1553 -0.3299  0.3102
 6667TIP3    H141560   5.239   6.705   3.457 -0.6355  0.2469  0.2447
 6667TIP3    H241561   5.353   6.742   3.550 -0.7157 -0.9064  0.8238
 6668TIP3   OH241562   3.370   0.731   1.834  0.7724 -0.1140  0.2480
 6668TIP3    H141563   3.285   0.754   1.797  1.1326 -0.2844 -0.7130
 6668TIP3    H241564   3.404   0.813   1.870  1.2939  0.5599 -1.6245
 6669TIP3   OH241565   3.386   0.073   2.290 -0.1692 -0.0657 -0.4995
 6669TIP3    H141566   3.380  -0.015   2.328 -0.5229  0.0415 -0.3094
 6669TIP3    H241567   3.303   0.086   2.245 -0.6900  0.7011  0.6218
 6670TIP3   OH241568   0.253   2.736   8.461 -0.2966 -0.1632 -0.0050
 6670TIP3    H141569   0.244   2.803   8.530 -1.2534  0.2006 -0.4607
 6670TIP3    H241570   0.345   2.738   8.437 -0.3160  1.0467 -0.0504
 6671TIP3   OH241571   6.406   1.416   0.788 -0.0858  0.5310  0.2061
 6671TIP3    H141572   6.343   1.433   0.858 -0.7575  3.2460 -0.9560
 6671TIP3    H241573   6.481   1.471   0.811  0.2254  0.4249 -0.5502
 6672TIP3   OH241574   2.936   3.274   1.001 -0.1015 -0.0476 -0.6439
 6672TIP3    H141575   2.868   3.217   0.964 -1.5586  0.4459  1.1164
 6672TIP3    H241576   2.911   3.362   0.974  0.1341  0.0903 -0.4238
 6673TIP3   OH241577   6.302   4.071   0.944  0.8076  0.4834  0.5575
 6673TIP3    H141578   6.211   4.070   0.974  0.6389  0.8963  0.0648
 6673TIP3    H241579   6.297   4.047   0.851  1.1637  0.9075  0.4292
 6674TIP3   OH241580   5.646   1.239   1.337 -0.3308 -0.0611 -0.3231
 6674TIP3    H141581   5.737   1.209   1.331 -0.0924 -0.3133  2.6748
 6674TIP3    H241582   5.598   1.160   1.363 -0.9910  0.5437  0.3189
 6675TIP3   OH241583   0.461   2.776   8.309  0.2244  0.1853 -0.7205
 6675TIP3    H141584   0.457   2.763   8.214  0.0338  2.1422 -1.0196
 6675TIP3    H241585   0.501   2.862   8.320  0.9935 -0.3456  1.0224
 6676TIP3   OH241586   1.603   3.633   2.184 -0.2854 -0.5213  0.6494
 6676TIP3    H141587   1.630   3.676   2.104  0.8347 -0.1167  1.2213
 6676TIP3    H241588   1.682   3.590   2.217 -1.5782 -4.2547 -0.5703
 6677TIP3   OH241589   1.928   1.379   1.404  0.0974  0.2565  0.8271
 6677TIP3    H141590   1.859   1.332   1.358  0.8948 -0.2533  0.1234
 6677TIP3    H241591   1.935   1.335   1.489  0.5546 -0.6505  0.3320
 6678TIP3   OH241592   0.380   1.050   3.115  0.5260 -0.2343 -0.2865
 6678TIP3    H141593   0.299   1.004   3.138 -0.4045  0.8741 -1.2054
 6678TIP3    H241594   0.429   1.052   3.197 -0.6711 -0.3598  0.4726
 6679TIP3   OH241595   3.660   0.503   8.727 -0.2311 -0.1168  0.3366
 6679TIP3    H141596   3.569   0.481   8.747 -0.6335  1.5758  0.5728
 6679TIP3    H241597   3.697   0.532   8.810  0.0088  0.7897 -0.0656
 6680TIP3   OH241598   3.909   3.518   1.355 -0.5359  0.2722  0.1084
 6680TIP3    H141599   3.943   3.600   1.392  1.9156 -0.3840 -0.4685
 6680TIP3    H241600   3.986   3.476   1.316 -2.0360 -1.5303 -1.0876
 6681TIP3   OH241601   5.699   2.408   0.870 -0.0149 -0.1585 -0.3679
 6681TIP3    H141602   5.669   2.451   0.790  0.0476  0.0764 -0.2633
 6681TIP3    H241603   5.629   2.347   0.892 -1.3069  1.6751  0.9090
 6682TIP3   OH241604   4.487   6.562   0.653  0.2749  0.5270 -0.5204
 6682TIP3    H141605   4.437   6.643   0.667  0.1746  0.3791 -0.0419
 6682TIP3    H241606   4.433   6.510   0.594 -0.8303 -0.2575  1.1252
 6683TIP3   OH241607   4.331   5.571   2.676  0.0485 -0.3195 -0.3061
 6683TIP3    H141608   4.254   5.626   2.663 -0.3877 -1.2108 -1.7501
 6683TIP3    H241609   4.296   5.482   2.683  0.9181 -0.6949 -0.5992
 6684TIP3   OH241610   5.354   1.315   2.451  0.2794  0.1088  0.0973
 6684TIP3    H141611   5.349   1.366   2.370 -0.2731  1.1968  0.7790
 6684TIP3    H241612   5.447   1.316   2.475  0.1353  1.9284  0.7529
 6685TIP3   OH241613   1.491   5.828   2.124  0.3028 -0.0861  0.2361
 6685TIP3    H141614   1.554   5.840   2.195  0.3546  1.5307 -0.0570
 6685TIP3    H241615   1.439   5.752   2.151 -0.4092  1.1419  2.5536
 6686TIP3   OH241616   5.905   2.738   2.538 -0.3645 -0.6292 -0.1483
 6686TIP3    H141617   5.863   2.708   2.458  0.3688  0.0715 -0.8037
 6686TIP3    H241618   5.895   2.665   2.599 -1.5743 -0.8906 -0.6317
 6687TIP3   OH241619   4.475   4.552   2.019  0.0199  0.2256 -0.1050
 6687TIP3    H141620   4.550   4.609   2.036  0.5348 -0.8746  1.4547
 6687TIP3    H241621   4.401   4.595   2.063 -0.5125  1.7144 -2.2842
 6688TIP3   OH241622   0.641   2.495   1.652  0.0822  0.3311 -0.2340
 6688TIP3    H141623   0.561   2.527   1.694  0.4466 -0.9316  1.5328
 6688TIP3    H241624   0.622   2.404   1.629  0.6520  0.3489 -0.8241
 6689TIP3   OH241625   0.447   5.824   2.360  0.3771 -0.5403 -0.0149
 6689TIP3    H141626   0.369   5.778   2.391  0.2928 -1.3602 -1.3820
 6689TIP3    H241627   0.414   5.901   2.314  0.3753 -0.8242 -0.4913
 6690TIP3   OH241628   1.449   3.300   3.570 -0.0582  0.3667 -0.9678
 6690TIP3    H141629   1.441   3.238   3.643 -1.4787  0.6350 -0.8636
 6690TIP3    H241630   1.384   3.368   3.590  1.1117  1.6280 -1.3416
 6691TIP3   OH241631   0.123   5.342   2.715 -0.4241 -0.5838 -0.3246
 6691TIP3    H141632   0.196   5.368   2.658  0.6709 -2.8330 -0.0445
 6691TIP3    H241633   0.162   5.335   2.802 -1.4329 -0.0416  0.1902
 6692TIP3   OH241634   3.912   6.781   3.084 -0.2551  1.0689  0.8201
 6692TIP3    H141635   3.980   6.792   3.151  0.2007  0.7853  0.4079
 6692TIP3    H241636   3.858   6.709   3.115  1.3838 -0.7165 -0.2666
 6693TIP3   OH241637   2.196   5.328   2.979  0.9231 -0.0544  0.1863
 6693TIP3    H141638   2.131   5.261   3.002  0.2297  0.9695  1.3341
 6693TIP3    H241639   2.209   5.317   2.885 -0.8108 -0.3848 -0.0545
 6694TIP3   OH241640   2.187   5.246   2.699  0.7949  0.0830  0.4489
 6694TIP3    H141641   2.144   5.161   2.692 -0.2144  0.7053 -1.6712
 6694TIP3    H241642   2.253   5.245   2.630  0.7934  1.0200  0.4295
 6695TIP3   OH241643   3.716   3.511   3.351  0.7135  0.1267 -0.4693
 6695TIP3    H141644   3.675   3.546   3.430 -0.8012  0.7012 -1.4714
 6695TIP3    H241645   3.688   3.420   3.347  2.3752 -0.4709  0.6510
 6696TIP3   OH241646   1.118   4.010   0.734  0.6809  0.1624  0.4102
 6696TIP3    H141647   1.121   3.915   0.748 -0.3193  0.0930  0.1790
 6696TIP3    H241648   1.153   4.023   0.646  2.8358  0.2167  1.2117
 6697TIP3   OH241649   5.773   3.238   2.434  0.3472  0.4583  0.2214
 6697TIP3    H141650   5.679   3.256   2.428 -0.9188 -3.7180  3.1936
 6697TIP3    H241651   5.808   3.312   2.483 -1.5376  1.5856  0.0075
 6698TIP3   OH241652   2.392   1.356   0.765 -0.1917  0.0098  0.0276
 6698TIP3    H141653   2.472   1.312   0.793  0.0440  0.8852  0.7585
 6698TIP3    H241654   2.322   1.293   0.786  0.3170 -0.9563 -1.0557
 6699TIP3   OH241655   4.792   4.188   0.234  0.0169  0.1790 -0.2657
 6699TIP3    H141656   4.761   4.177   0.144  0.3560  0.0658 -0.3686
 6699TIP3    H241657   4.739   4.125   0.285 -0.3401  0.4128 -0.3465
 6700TIP3   OH241658   5.183   5.526   1.481  0.0212  0.3356 -0.4229
 6700TIP3    H141659   5.257   5.580   1.453  1.6498 -1.8140 -0.5307
 6700TIP3    H241660   5.211   5.487   1.564 -0.6577 -1.0966 -0.8252
 6701TIP3   OH241661   6.726   5.374   1.458 -0.0449  0.8446  0.1950
 6701TIP3    H141662   6.757   5.464   1.450 -0.6042  1.0987  0.7695
 6701TIP3    H241663   6.782   5.335   1.525  0.9941  0.3868 -0.9083
 6702TIP3   OH241664   2.987   3.074   0.377  0.2542  0.2986  0.1587
 6702TIP3    H141665   2.962   3.164   0.358  0.8548  0.3816 -0.2699
 6702TIP3    H241666   2.922   3.043   0.440 -0.5676  0.6840 -0.4933
 6703TIP3   OH241667   1.955   0.730   0.297  0.4644 -0.5996  0.1986
 6703TIP3    H141668   1.877   0.706   0.247  0.6924 -0.5124 -0.2028
 6703TIP3    H241669   1.997   0.798   0.244 -0.1597  0.6932  1.3047
 6704TIP3   OH241670   2.306   4.452   0.224 -0.1306 -0.3507  0.1185
 6704TIP3    H141671   2.267   4.518   0.281 -0.8947 -2.0830  1.7031
 6704TIP3    H241672   2.288   4.369   0.268  1.3068 -1.5837 -1.5013
 6705TIP3   OH241673   3.277   3.157   8.717 -0.0514  0.7335  0.0830
 6705TIP3    H141674   3.221   3.189   8.646  0.0125 -0.9640 -0.7777
 6705TIP3    H241675   3.351   3.217   8.717 -0.6052  1.4428 -0.5285
 6706TIP3   OH241676   0.429   1.708   3.413 -0.2919  0.5334  0.1262
 6706TIP3    H141677   0.369   1.783   3.412 -2.1092 -0.8366  1.3181
 6706TIP3    H241678   0.423   1.674   3.502  0.7974 -0.8108 -0.2895
 6707TIP3   OH241679   4.799   2.950   1.069  0.3961  0.0939 -0.1411
 6707TIP3    H141680   4.857   2.975   0.997  1.2021  0.2005  0.5350
 6707TIP3    H241681   4.858   2.925   1.140 -0.3920  0.2495  0.5800
 6708TIP3   OH241682   4.078   3.827   2.169 -0.1381  0.3767 -0.0214
 6708TIP3    H141683   4.019   3.900   2.190  0.5451  1.1918 -0.8167
 6708TIP3    H241684   4.019   3.757   2.142 -0.7815  0.9647 -0.1988
 6709TIP3   OH241685   0.183   0.760   0.394 -0.4820  0.4992 -0.1722
 6709TIP3    H141686   0.164   0.709   0.315 -2.4547  0.5622  0.1961
 6709TIP3    H241687   0.245   0.707   0.444 -0.1320 -0.0839 -1.2149
 6710TIP3   OH241688   2.371   4.960   2.335  0.2242  0.6383 -0.2345
 6710TIP3    H141689   2.390   4.880   2.385 -2.1758 -0.4262 -0.8628
 6710TIP3    H241690   2.428   5.026   2.373  2.2321 -1.3338  0.3871
 6711TIP3   OH241691   1.405   0.928   1.328  0.0366  0.3931  0.0501
 6711TIP3    H141692   1.405   0.988   1.402 -0.0614  0.2337  0.1785
 6711TIP3    H241693   1.478   0.958   1.273 -0.5853  1.1989 -0.3502
 6712TIP3   OH241694   4.338   1.111   2.788  0.6888 -0.0264  0.2643
 6712TIP3    H141695   4.279   1.134   2.716  0.2383 -1.8424 -0.0073
 6712TIP3    H241696   4.389   1.190   2.803  0.4642  0.5634 -1.7332
 6713TIP3   OH241697   1.772   6.261   3.255 -0.0683 -0.1219  0.2648
 6713TIP3    H141698   1.791   6.338   3.201  1.1734 -1.1604 -0.8659
 6713TIP3    H241699   1.741   6.296   3.338 -2.0170  1.5614 -1.0760
 6714TIP3   OH241700   1.397   3.260   8.572 -0.2134  0.5451  0.1716
 6714TIP3    H141701   1.488   3.289   8.568 -0.4334  1.3741  0.8153
 6714TIP3    H241702   1.346   3.341   8.578 -1.1137  0.1841 -1.6775
 6715TIP3   OH241703   0.638   4.677   0.356  0.1202 -0.0851  0.1529
 6715TIP3    H141704   0.664   4.768   0.342  2.4345 -0.4831  1.3681
 6715TIP3    H241705   0.543   4.678   0.349  0.1629  2.1922 -1.0829
 6716TIP3   OH241706   0.850   3.843   8.455  0.0661 -0.7726  0.7963
 6716TIP3    H141707   0.785   3.888   8.401  0.6486 -1.4706 -0.5290
 6716TIP3    H241708   0.839   3.882   8.542  0.2783  1.6519 -0.1776
 6717TIP3   OH241709   3.793   2.857   0.514 -0.3158 -0.6113  0.0910
 6717TIP3    H141710   3.850   2.866   0.591 -0.7783  2.1819  0.2243
 6717TIP3    H241711   3.715   2.812   0.546 -0.5505  0.6144  1.3203
 6718TIP3   OH241712   4.970   1.773   2.975 -0.3101  0.4825 -0.3159
 6718TIP3    H141713   4.935   1.689   2.946  0.2993  0.9142 -2.4538
 6718TIP3    H241714   5.036   1.795   2.910  0.8137  1.7913  1.1857
 6719TIP3   OH241715   6.653   4.396   3.150 -0.3276  0.4167  0.1186
 6719TIP3    H141716   6.745   4.377   3.165 -0.5524 -0.2033  0.7873
 6719TIP3    H241717   6.609   4.311   3.157 -1.0234  0.7857  0.4548
 6720TIP3   OH241718   0.135   0.596   0.180  0.0493  0.1651 -0.2527
 6720TIP3    H141719   0.169   0.530   0.119 -1.2456 -0.2335 -0.5620
 6720TIP3    H241720   0.052   0.559   0.211  0.1087  0.9105  0.8387
 6721TIP3   OH241721   0.107   2.939   0.393  0.7715 -0.1996  0.0285
 6721TIP3    H141722   0.059   2.976   0.466  1.6543 -0.1365  0.5913
 6721TIP3    H241723   0.086   2.845   0.395  1.1529 -0.2733  0.6441
 6722TIP3   OH241724   4.183   3.543   2.266 -0.5164 -0.3318 -0.4293
 6722TIP3    H141725   4.236   3.464   2.251  1.3459  0.5676  1.0054
 6722TIP3    H241726   4.245   3.616   2.256 -1.4733  0.7737  1.2282
 6723TIP3   OH241727   2.133   0.852   3.083  0.4311 -0.0357 -0.2192
 6723TIP3    H141728   2.121   0.834   3.176  0.0849  0.2828 -0.2008
 6723TIP3    H241729   2.122   0.767   3.040  0.7571 -0.2138  0.0409
 6724TIP3   OH241730   1.735   2.106   0.813 -0.5995  0.4099 -0.5717
 6724TIP3    H141731   1.691   2.136   0.893  0.5223 -0.3712  0.3834
 6724TIP3    H241732   1.822   2.079   0.843  0.1048  0.7654 -2.1862
 6725TIP3   OH241733   5.213   1.186   0.115  0.4652 -0.0751 -0.0965
 6725TIP3    H141734   5.298   1.162   0.153  1.0939  0.1068 -1.3157
 6725TIP3    H241735   5.165   1.228   0.187  1.1348 -0.8113  0.7994
 6726TIP3   OH241736   5.117   0.353   0.718 -0.5752 -0.3730  0.0596
 6726TIP3    H141737   5.045   0.303   0.755  0.2687  1.0937  4.2941
 6726TIP3    H241738   5.084   0.443   0.711  0.0010 -0.2030 -0.6897
 6727TIP3   OH241739   0.172   0.902   2.920 -0.0951 -0.2976  0.1674
 6727TIP3    H141740   0.191   0.863   2.834  1.6305  1.4549 -0.3011
 6727TIP3    H241741   0.227   0.852   2.981 -0.1066 -0.4931  0.0214
 6728TIP3   OH241742   4.866   6.161   3.523  0.1211  0.5770  0.3490
 6728TIP3    H141743   4.954   6.125   3.536  0.0738  0.5021  0.4592
 6728TIP3    H241744   4.876   6.223   3.451  0.1780  0.2558  0.0784
 6729TIP3   OH241745   4.764   1.979   1.005 -0.1683 -0.0030 -0.1327
 6729TIP3    H141746   4.782   1.957   1.097 -0.2791  0.6382  0.0494
 6729TIP3    H241747   4.735   1.897   0.966  1.3722 -0.6670  0.0110
 6730TIP3   OH241748   5.865   0.510   2.271  0.0477 -0.5788 -0.2289
 6730TIP3    H141749   5.778   0.527   2.235 -0.2665 -0.8241  0.3864
 6730TIP3    H241750   5.857   0.530   2.364  1.2719  1.5907 -0.5264
 6731TIP3   OH241751   1.866   0.247   2.781 -0.0032  0.5391  0.1355
 6731TIP3    H141752   1.791   0.307   2.784 -0.2812  0.1648  0.8347
 6731TIP3    H241753   1.829   0.163   2.756  0.3546  0.5911 -0.6164
 6732TIP3   OH241754   1.409   5.692   1.048  0.5870 -0.4507 -0.0104
 6732TIP3    H141755   1.420   5.610   0.998 -1.4349  0.3492 -1.9199
 6732TIP3    H241756   1.315   5.704   1.054  0.7991  2.4379 -1.0411
 6733TIP3   OH241757   1.054   6.209   1.863  0.0843 -0.0238  0.2911
 6733TIP3    H141758   1.114   6.284   1.861  1.0663 -0.7943 -0.7209
 6733TIP3    H241759   1.107   6.136   1.896  0.4300 -1.2321 -2.5810
 6734TIP3   OH241760   1.091   3.533   1.257  0.0112 -0.2156  0.0905
 6734TIP3    H141761   1.087   3.438   1.262  2.2941 -0.4351 -0.9766
 6734TIP3    H241762   1.157   3.557   1.323 -0.7304  0.6695  0.5324
 6735TIP3   OH241763   3.049   4.912   1.771 -0.1670  0.1160  0.3837
 6735TIP3    H141764   3.037   4.861   1.691  2.0287 -1.0944  0.7373
 6735TIP3    H241765   3.045   4.847   1.841 -0.2805  0.8959  1.1190
 6736TIP3   OH241766   0.661   2.370   1.318 -0.2729 -0.2361 -0.3616
 6736TIP3    H141767   0.611   2.430   1.264 -0.0685 -0.9935 -1.4261
 6736TIP3    H241768   0.596   2.324   1.371 -0.5528 -0.0376 -0.5349
 6737TIP3   OH241769   5.850   0.801   2.681 -0.0720 -0.1954  0.4637
 6737TIP3    H141770   5.864   0.774   2.772 -1.2988  0.2231  0.7899
 6737TIP3    H241771   5.772   0.753   2.653  1.6451 -2.2501 -1.2043
 6738TIP3   OH241772   4.022   3.403   1.020  0.3488 -0.2018 -0.3054
 6738TIP3    H141773   3.935   3.422   1.053 -1.0622 -2.2248 -2.5219
 6738TIP3    H241774   4.036   3.468   0.951  0.7734  0.3251  0.2638
 6739TIP3   OH241775   0.897   5.695   2.855  0.1924 -0.4780 -0.5073
 6739TIP3    H141776   0.857   5.763   2.909  3.0361 -0.0167  1.1963
 6739TIP3    H241777   0.823   5.641   2.826 -1.7233  0.8597  1.5904
 6740TIP3   OH241778   5.234   1.068   2.900 -0.6793  0.4851 -0.2695
 6740TIP3    H141779   5.161   1.041   2.844 -2.2762  2.3301  0.8135
 6740TIP3    H241780   5.284   1.129   2.846 -0.8609  0.4685 -0.4570
 6741TIP3   OH241781   4.827   1.785   1.675  1.0422 -0.1828 -0.0818
 6741TIP3    H141782   4.741   1.827   1.681  0.3037 -1.4035 -1.3073
 6741TIP3    H241783   4.821   1.709   1.733  1.2477 -0.3235 -0.2413
 6742TIP3   OH241784   0.022   2.540   4.031  0.3069 -0.5674 -0.3828
 6742TIP3    H141785   0.017   2.467   3.969 -2.6664 -1.4124  0.6700
 6742TIP3    H241786  -0.042   2.603   3.998  1.2369  0.5717 -0.0476
 6743TIP3   OH241787   0.137   6.162   0.876  0.6841  0.0302  0.0342
 6743TIP3    H141788   0.202   6.101   0.842  1.7713  0.9737  0.3676
 6743TIP3    H241789   0.085   6.188   0.800  1.0008 -0.3644 -0.3176
 6744TIP3   OH241790   6.673   5.558   3.569 -0.3462  0.4908 -0.1956
 6744TIP3    H141791   6.655   5.620   3.498  0.0211  0.4307 -0.3440
 6744TIP3    H241792   6.640   5.602   3.648 -2.4346 -0.2046 -0.6171
 6745TIP3   OH241793   5.259   1.439   2.189  0.0482 -0.0292  0.2296
 6745TIP3    H141794   5.302   1.476   2.111 -3.6400 -0.5716 -2.3078
 6745TIP3    H241795   5.267   1.345   2.178 -0.4456 -0.1062  0.5330
 6746TIP3   OH241796   2.651   3.320   8.343  0.1813 -0.0917  0.2777
 6746TIP3    H141797   2.742   3.289   8.336  0.1667 -0.6893  2.2728
 6746TIP3    H241798   2.636   3.366   8.260  1.4221 -2.2103 -1.2309
 6747TIP3   OH241799   1.783   5.409   0.815  0.0912 -0.0147 -0.2010
 6747TIP3    H141800   1.837   5.466   0.760  1.1412 -2.9902 -2.4881
 6747TIP3    H241801   1.845   5.348   0.855 -1.2099 -1.2105  0.0768
 6748TIP3   OH241802   3.821   3.228   3.254  0.7179  0.1828  0.4091
 6748TIP3    H141803   3.758   3.161   3.280 -0.0959  0.1118 -1.5474
 6748TIP3    H241804   3.892   3.221   3.317 -1.3620  0.5024  2.9269
 6749TIP3   OH241805   4.536   2.029   0.798 -0.5490 -0.0357  0.1159
 6749TIP3    H141806   4.466   1.969   0.824 -0.5624 -0.0398  0.0711
 6749TIP3    H241807   4.588   1.980   0.735 -0.6826  0.0722 -0.0791
 6750TIP3   OH241808   2.759   6.258   1.991 -0.7964 -0.0768 -0.2555
 6750TIP3    H141809   2.742   6.271   1.897 -0.1861 -0.6348 -0.4481
 6750TIP3    H241810   2.852   6.279   2.001 -1.1638  1.3504  0.4924
 6751TIP3   OH241811   4.699   1.670   0.212  0.0818  0.4112 -0.7338
 6751TIP3    H141812   4.770   1.707   0.264  1.0461 -0.8600 -1.0915
 6751TIP3    H241813   4.627   1.659   0.273  1.5542 -2.1604  0.7146
 6752TIP3   OH241814   0.380   0.951   0.854  0.1928  0.6610  0.3015
 6752TIP3    H141815   0.317   0.946   0.782  0.2745  0.1823  0.2649
 6752TIP3    H241816   0.440   1.021   0.828 -1.3374  2.3854  1.1502
 6753TIP3   OH241817   2.794   1.260   3.337 -0.0953  0.2730 -0.4178
 6753TIP3    H141818   2.889   1.263   3.333 -0.1070  1.6642 -0.2655
 6753TIP3    H241819   2.775   1.207   3.414  0.5687  0.2152 -0.2876
 6754TIP3   OH241820   3.347   3.793   2.230  0.3581  0.5387  0.0923
 6754TIP3    H141821   3.307   3.724   2.283 -0.3220  0.9632  0.1484
 6754TIP3    H241822   3.275   3.828   2.177  0.4563  1.8717  0.7808
 6755TIP3   OH241823   6.137   2.055   2.229  0.3888 -0.6709  0.2042
 6755TIP3    H141824   6.060   2.086   2.181  0.0304  0.1208  1.2391
 6755TIP3    H241825   6.177   2.136   2.263 -0.2790 -1.2322  2.5580
 6756TIP3   OH241826   1.753   0.061   3.000 -0.1267  0.2686  0.1735
 6756TIP3    H141827   1.724  -0.022   3.036 -0.3834  0.1340 -0.3319
 6756TIP3    H241828   1.832   0.039   2.950  0.1608  0.4337  0.5498
 6757TIP3   OH241829   0.057   1.466   2.836  0.2324  0.4162  0.2928
 6757TIP3    H141830   0.031   1.382   2.799 -1.4529  0.5964  0.9687
 6757TIP3    H241831   0.149   1.477   2.810  0.3064 -1.3426 -0.2958
 6758TIP3   OH241832   1.582   6.494   0.990 -0.2778  0.7406 -0.1580
 6758TIP3    H141833   1.534   6.511   1.071 -0.9217 -1.0872 -0.1267
 6758TIP3    H241834   1.519   6.450   0.932  0.3060  1.5879 -1.4952
 6759TIP3   OH241835   3.473   2.826   2.949 -0.0578 -0.0848 -0.4194
 6759TIP3    H141836   3.452   2.732   2.949 -3.3066  0.4742  1.0002
 6759TIP3    H241837   3.428   2.860   3.027 -0.5422  2.9387 -1.8667
 6760TIP3   OH241838   3.443   0.153   0.493  0.0565  0.5093 -0.0207
 6760TIP3    H141839   3.357   0.171   0.453  0.2405  2.3064  0.3303
 6760TIP3    H241840   3.494   0.114   0.423 -0.7624  0.2683 -0.4983
 6761TIP3   OH241841   5.079   6.539   2.242  0.1474 -0.0722 -0.4261
 6761TIP3    H141842   4.986   6.522   2.231  0.4704 -2.0541 -0.3642
 6761TIP3    H241843   5.094   6.621   2.195 -1.8881  1.0965  0.8228
 6762TIP3   OH241844   4.578   5.001   0.622  0.2793 -0.2877 -0.0935
 6762TIP3    H141845   4.529   4.967   0.697  0.7426  1.6436  1.1381
 6762TIP3    H241846   4.670   4.990   0.646  0.4346  0.8263 -0.1206
 6763TIP3   OH241847   5.955   3.793   8.422  0.3288  0.5033 -0.1797
 6763TIP3    H141848   5.971   3.821   8.332 -1.7998  0.8086 -0.5062
 6763TIP3    H241849   5.945   3.698   8.415 -0.9600  0.6473 -0.4728
 6764TIP3   OH241850   1.187   1.239   1.121 -0.5227 -0.6690 -0.1072
 6764TIP3    H141851   1.210   1.228   1.029 -1.5152  0.9223 -0.5740
 6764TIP3    H241852   1.220   1.325   1.145  0.1517 -1.2491  1.1974
 6765TIP3   OH241853   3.830   2.935   8.677 -0.2228 -0.2703 -0.3766
 6765TIP3    H141854   3.779   2.856   8.659 -0.7656  0.1655 -0.7883
 6765TIP3    H241855   3.902   2.932   8.614 -0.4583 -0.2466 -0.6492
 6766TIP3   OH241856   3.324   0.340   1.620  0.2769 -0.7251  0.2537
 6766TIP3    H141857   3.409   0.334   1.665 -0.0192  0.1619  0.9718
 6766TIP3    H241858   3.260   0.343   1.692 -0.1957  0.9728 -0.1993
 6767TIP3   OH241859   4.759   2.529   2.923  0.0247  0.9348  0.0629
 6767TIP3    H141860   4.700   2.517   2.997  0.0954 -0.3201 -0.0588
 6767TIP3    H241861   4.812   2.449   2.921 -0.4344  0.6203 -1.7322
 6768TIP3   OH241862   6.501   1.064   1.461 -0.0079  0.1350 -0.0188
 6768TIP3    H141863   6.460   0.991   1.414 -0.8946  0.2923  0.4810
 6768TIP3    H241864   6.467   1.056   1.550  0.8669  0.4339  0.3491
 6769TIP3   OH241865   2.732   1.421   8.150 -0.2655 -0.3779  0.0192
 6769TIP3    H141866   2.777   1.347   8.191 -1.5670 -1.9311 -1.1861
 6769TIP3    H241867   2.778   1.433   8.067  1.7143  2.0868  1.3352
 6770TIP3   OH241868   2.780   1.324   1.397 -0.1200  0.0319  0.4726
 6770TIP3    H141869   2.704   1.326   1.338 -0.1562 -1.0096  0.4772
 6770TIP3    H241870   2.788   1.415   1.428  1.2703  1.1970 -2.8424
 6771TIP3   OH241871   0.953   0.533   1.728  0.4810  0.0588  0.1386
 6771TIP3    H141872   0.871   0.537   1.777  1.1315  2.8173  1.1717
 6771TIP3    H241873   1.017   0.499   1.792  0.6778  0.5764  0.2246
 6772TIP3   OH241874   4.389   6.461   3.335 -0.3838 -0.1790 -0.5144
 6772TIP3    H141875   4.310   6.449   3.388 -0.4953  2.4478  0.0564
 6772TIP3    H241876   4.414   6.552   3.350  1.0914 -0.0872 -2.9785
 6773TIP3   OH241877   5.260   0.531   0.422 -0.0004  0.1953  0.0500
 6773TIP3    H141878   5.177   0.487   0.437  0.5799 -0.9729 -0.0421
 6773TIP3    H241879   5.237   0.611   0.374 -0.9540 -0.8401 -1.3032
 6774TIP3   OH241880   0.104   5.664   8.102 -0.3788 -0.0997  0.2429
 6774TIP3    H141881   0.063   5.748   8.121 -1.5417 -0.7102  0.5113
 6774TIP3    H241882   0.126   5.667   8.009  0.3332  0.7966  0.4229
 6775TIP3   OH241883   1.164   4.408   0.598  0.0486  0.5367 -0.0027
 6775TIP3    H141884   1.108   4.333   0.578 -0.6783  1.4507 -1.5844
 6775TIP3    H241885   1.246   4.390   0.553  0.4588 -0.0453  0.9613
 6776TIP3   OH241886   5.068   1.862   2.229 -0.5630  0.5406 -0.1978
 6776TIP3    H141887   5.132   1.924   2.265  0.6083 -1.2419  0.9426
 6776TIP3    H241888   5.095   1.777   2.264 -2.0708 -0.6406 -1.7628
 6777TIP3   OH241889   1.023   3.126   0.489 -0.1374  0.0908  0.5838
 6777TIP3    H141890   1.079   3.053   0.463  0.5407  1.3671 -1.8582
 6777TIP3    H241891   0.957   3.086   0.546  0.0875 -2.4726 -0.7965
 6778TIP3   OH241892   4.350   1.096   1.124  0.1805  0.0631 -0.2446
 6778TIP3    H141893   4.361   1.028   1.191 -0.5701  1.6299  1.5887
 6778TIP3    H241894   4.275   1.068   1.073  0.7530 -1.1680 -0.4365
 6779TIP3   OH241895   6.075   6.158   3.654  0.2297  0.4429  0.0041
 6779TIP3    H141896   5.988   6.118   3.654  0.6590 -0.5858 -1.2836
 6779TIP3    H241897   6.093   6.174   3.562  1.0336  1.5129  0.3375
 6780TIP3   OH241898   4.468   6.546   8.563 -0.1512 -0.4866 -0.9037
 6780TIP3    H141899   4.537   6.608   8.540 -0.5695  0.2051 -0.3466
 6780TIP3    H241900   4.488   6.467   8.512 -0.2712  0.5048 -2.5528
 6781TIP3   OH241901   0.139   6.282   2.720 -0.4829  0.1890 -0.1955
 6781TIP3    H141902   0.203   6.253   2.655 -0.1352  1.1024 -0.2784
 6781TIP3    H241903   0.119   6.204   2.771  0.7226 -0.1123 -0.1495
 6782TIP3   OH241904   2.394   2.157   2.763 -0.3073  0.0951 -0.2090
 6782TIP3    H141905   2.456   2.084   2.767  2.5208  2.3464  1.1547
 6782TIP3    H241906   2.379   2.170   2.669 -0.8372 -2.0854 -0.4993
 6783TIP3   OH241907   2.628   6.819   2.524 -0.2502 -0.3536  0.9353
 6783TIP3    H141908   2.541   6.789   2.500 -1.1618  2.0460  0.9304
 6783TIP3    H241909   2.677   6.823   2.442 -0.9441  0.6162  0.5554
 6784TIP3   OH241910   2.210   6.603   0.833  0.0460  0.2037  0.1721
 6784TIP3    H141911   2.125   6.625   0.794 -0.0316 -1.3335 -0.5830
 6784TIP3    H241912   2.261   6.683   0.825 -1.0959  0.9473  0.0096
 6785TIP3   OH241913   2.282   4.029   2.874 -0.3519  0.2098  0.3204
 6785TIP3    H141914   2.309   4.114   2.839 -0.7686  0.2671  0.1330
 6785TIP3    H241915   2.252   3.980   2.797 -2.1061  0.6485  0.6841
 6786TIP3   OH241916   0.992   6.000   2.800  0.8206 -0.1822 -0.1065
 6786TIP3    H141917   0.945   5.948   2.865  1.8446  0.1899  0.9558
 6786TIP3    H241918   0.925   6.023   2.735  0.2494 -2.4723 -0.4138
 6787TIP3   OH241919   2.904   1.295   8.445  0.0364 -0.4862  0.8315
 6787TIP3    H141920   2.828   1.343   8.478 -2.0705 -3.0624  0.0832
 6787TIP3    H241921   2.873   1.255   8.364  2.3365 -1.3617  0.3132
 6788TIP3   OH241922   1.678   5.737   0.582  0.2742  0.2730 -0.8791
 6788TIP3    H141923   1.750   5.687   0.543  0.3558 -1.0829  0.8583
 6788TIP3    H241924   1.610   5.672   0.599  1.1185  0.1396  3.2702
 6789TIP3   OH241925   1.742   4.231   0.310  0.3793  0.4908  0.3529
 6789TIP3    H141926   1.782   4.180   0.240 -0.9408  0.7802 -0.6513
 6789TIP3    H241927   1.730   4.169   0.382 -1.1592 -0.6563 -0.8280
 6790TIP3   OH241928   4.252   4.031   1.766 -0.1321 -0.4402  0.5684
 6790TIP3    H141929   4.162   3.999   1.764 -0.2580 -0.0805  0.3832
 6790TIP3    H241930   4.261   4.073   1.851 -0.1251 -0.5201  0.6069
 6791TIP3   OH241931   6.639   1.095   3.852 -0.0017 -0.1231  0.4637
 6791TIP3    H141932   6.650   1.024   3.915 -0.1206 -0.4293  0.1465
 6791TIP3    H241933   6.607   1.169   3.904  1.6176  0.1827  1.0667
 6792TIP3   OH241934   5.375   4.216   8.497  0.0429 -0.6569  0.2321
 6792TIP3    H141935   5.407   4.212   8.587 -0.5621 -0.5943  0.4505
 6792TIP3    H241936   5.283   4.241   8.505  0.0833 -0.2787 -0.4208
 6793TIP3   OH241937   1.522   3.356   0.073 -0.3019 -0.0622  0.0426
 6793TIP3    H141938   1.582   3.354   0.147  0.7269 -0.8230 -0.7680
 6793TIP3    H241939   1.547   3.435   0.024 -0.6251  0.1495  0.2130
 6794TIP3   OH241940   2.979   5.372   8.070  0.0897  0.1985 -0.0457
 6794TIP3    H141941   3.057   5.424   8.051 -1.1074  2.1003  0.0538
 6794TIP3    H241942   2.976   5.367   8.165  0.6187 -0.7643 -0.0637
 6795TIP3   OH241943   0.055   2.941   2.927 -0.1838 -0.3574  0.3615
 6795TIP3    H141944   0.119   3.002   2.889  0.6675 -1.3311  0.1880
 6795TIP3    H241945   0.102   2.898   2.998 -0.3648 -1.6798 -0.2889
 6796TIP3   OH241946   5.108   6.759   2.100  0.0391  0.5918 -0.4832
 6796TIP3    H141947   5.148   6.839   2.135  0.4650 -0.0421  0.5194
 6796TIP3    H241948   5.180   6.712   2.058  0.0137  0.2331 -0.1326
 6797TIP3   OH241949   0.295   4.941   2.271  0.3639  0.5339 -0.4250
 6797TIP3    H141950   0.305   4.917   2.179  0.0906  2.5846 -1.0359
 6797TIP3    H241951   0.213   4.989   2.275  0.2320  0.2379  0.9542
 6798TIP3   OH241952   3.164   5.111   2.684  0.5125  0.0094  0.5428
 6798TIP3    H141953   3.243   5.164   2.688 -0.3253  1.2248  1.5414
 6798TIP3    H241954   3.196   5.021   2.681  1.9283  0.4575  1.2488
 6799TIP3   OH241955   2.635   2.174   0.403  0.5228 -0.0466 -0.1701
 6799TIP3    H141956   2.686   2.236   0.455 -0.9931  0.2983  0.9690
 6799TIP3    H241957   2.644   2.090   0.449  1.7430 -0.4800 -1.1467
 6800TIP3   OH241958   6.220   4.749   7.532  0.4025  0.6460 -0.3897
 6800TIP3    H141959   6.170   4.670   7.511 -1.6852  1.0946  2.3956
 6800TIP3    H241960   6.301   4.716   7.571  0.6826 -0.0824 -1.5343
 6801TIP3   OH241961   6.309   6.482   0.745 -0.1192  0.9808 -0.1562
 6801TIP3    H141962   6.341   6.556   0.796  0.3762  1.2207 -0.8041
 6801TIP3    H241963   6.386   6.425   0.735 -0.2390  0.8790 -0.5241
 6802TIP3   OH241964   4.752   0.435   2.796  0.0412 -0.2401 -0.7392
 6802TIP3    H141965   4.794   0.384   2.727  2.2454 -0.7106  0.8491
 6802TIP3    H241966   4.664   0.454   2.762 -0.4605 -3.9534 -1.9371
 6803TIP3   OH241967   0.270   6.491   3.067 -0.4854 -0.1019 -0.3514
 6803TIP3    H141968   0.296   6.445   3.147 -0.6221  1.3311  0.5774
 6803TIP3    H241969   0.301   6.581   3.081 -0.1394  0.0801 -2.1212
 6804TIP3   OH241970   1.720   3.597   0.056  0.2184  0.1639 -0.0539
 6804TIP3    H141971   1.766   3.514   0.068  0.3301  0.2716  0.2689
 6804TIP3    H241972   1.703   3.602  -0.038  2.0369  0.7359 -0.3848
 6805TIP3   OH241973   5.274   3.492   2.312 -0.1344  0.4580 -0.1309
 6805TIP3    H141974   5.257   3.519   2.222 -0.7913  1.7811  0.3658
 6805TIP3    H241975   5.324   3.564   2.350 -1.3839  0.7566  1.0480
 6806TIP3   OH241976   0.509   0.068   3.569  0.1263 -0.0216  0.0820
 6806TIP3    H141977   0.449   0.018   3.624  1.6842 -0.0277  1.8573
 6806TIP3    H241978   0.541   0.006   3.505  1.7059 -1.2823  1.9885
 6807TIP3   OH241979   1.186   2.029   0.417 -0.0557  0.1958  0.4506
 6807TIP3    H141980   1.121   2.062   0.355 -1.7891 -2.1078  0.8865
 6807TIP3    H241981   1.134   1.989   0.486  1.8602 -0.4064  1.6071
 6808TIP3   OH241982   3.890   4.369   0.233  0.1337  0.6754  0.0099
 6808TIP3    H141983   3.807   4.415   0.224  0.2385  1.1093  1.0900
 6808TIP3    H241984   3.955   4.438   0.244  0.8017  0.3877 -1.7315
 6809TIP3   OH241985   0.060   2.837   0.642 -0.0049  0.1362 -0.3952
 6809TIP3    H141986   0.047   2.777   0.716  1.1940  0.2630 -0.0574
 6809TIP3    H241987   0.006   2.800   0.572 -0.1150 -0.7517  0.1352
 6810TIP3   OH241988   2.484   0.235   1.245  0.6341 -0.4341 -0.2581
 6810TIP3    H141989   2.566   0.248   1.197  0.0714  0.5585 -0.9971
 6810TIP3    H241990   2.421   0.290   1.199 -0.3838 -0.9607  0.4767
 6811TIP3   OH241991   6.447   3.249   3.027 -0.7637 -0.1138 -0.1883
 6811TIP3    H141992   6.372   3.190   3.032 -0.7786 -0.2836 -1.8122
 6811TIP3    H241993   6.522   3.192   3.013 -0.8761  0.2200 -2.5692
 6812TIP3   OH241994   4.621   4.837   3.585 -0.1141  0.1839 -0.1121
 6812TIP3    H141995   4.697   4.875   3.540 -2.1978  3.6728 -1.1193
 6812TIP3    H241996   4.637   4.856   3.678  0.0352  1.4603 -0.3742
 6813TIP3   OH241997   2.377   0.837   2.765 -0.1875 -0.0381 -0.1477
 6813TIP3    H141998   2.366   0.866   2.674 -0.9021 -1.2724 -0.4855
 6813TIP3    H241999   2.308   0.771   2.777  0.9644 -1.1242  0.7483
 6814TIP3   OH242000   1.585   6.125   0.141 -0.8572 -0.1289 -0.5307
 6814TIP3    H142001   1.653   6.180   0.179 -1.8953  1.6801 -1.1878
 6814TIP3    H242002   1.591   6.140   0.046  0.3866 -3.0421 -1.0496
 6815TIP3   OH242003   4.836   1.407   1.137  0.0215 -0.1695 -0.2101
 6815TIP3    H142004   4.887   1.344   1.188  1.0648  0.8190  0.0148
 6815TIP3    H242005   4.745   1.381   1.151  0.3244 -0.5027  1.4114
 6816TIP3   OH242006   3.440   4.028   0.479 -0.3804 -0.3836  0.2037
 6816TIP3    H142007   3.520   3.984   0.451  0.2184 -0.3977  1.8090
 6816TIP3    H242008   3.463   4.120   0.486 -0.8053 -0.2303 -0.2852
 6817TIP3   OH242009   6.359   0.593   2.745 -0.1277  0.1571 -0.0689
 6817TIP3    H142010   6.445   0.565   2.777  0.0168 -0.8434 -1.2642
 6817TIP3    H242011   6.373   0.683   2.716  1.5216 -1.0170 -3.5238
 6818TIP3   OH242012   4.144   0.029   0.467 -0.6062  0.0310  0.1916
 6818TIP3    H142013   4.096  -0.041   0.423  1.6331 -1.3873 -0.1094
 6818TIP3    H242014   4.115   0.109   0.423 -1.0855 -0.9933 -1.4242
 6819TIP3   OH242015   0.748   0.755   0.136  0.3996  0.3368  0.1973
 6819TIP3    H142016   0.747   0.663   0.164  0.7562  0.4470  0.5833
 6819TIP3    H242017   0.824   0.762   0.079 -1.0392 -0.1867 -1.8873
 6820TIP3   OH242018   5.585   0.017   8.656  0.2115  0.5505  0.0257
 6820TIP3    H142019   5.589  -0.077   8.669  3.5839  0.2083 -2.2670
 6820TIP3    H242020   5.492   0.035   8.641 -0.6469 -2.1918  1.3804
 6821TIP3   OH242021   5.586   1.908   3.068 -0.0638 -0.1642  0.0585
 6821TIP3    H142022   5.572   1.981   3.007 -0.6884 -1.1226 -0.9887
 6821TIP3    H242023   5.557   1.941   3.152 -1.7463  0.3375 -0.6801
 6822TIP3   OH242024   5.162   2.669   2.574 -0.2347 -0.3244  0.5169
 6822TIP3    H142025   5.120   2.636   2.653  0.2272 -1.5798  0.2594
 6822TIP3    H242026   5.221   2.738   2.605 -0.1579 -0.7115  1.2532
 6823TIP3   OH242027   0.495   5.132   8.579 -0.0761  0.1798 -0.2634
 6823TIP3    H142028   0.485   5.077   8.500 -0.1674  0.1705 -0.2452
 6823TIP3    H242029   0.486   5.071   8.652  1.2272 -0.0305 -0.2475
 6824TIP3   OH242030   1.647   2.829   8.647  0.7871 -0.1196  0.2053
 6824TIP3    H142031   1.669   2.913   8.608 -1.8679  1.2981  1.4404
 6824TIP3    H242032   1.574   2.797   8.594 -0.6754  0.2419  1.8892
 6825TIP3   OH242033   0.588   3.971   0.567  0.4494 -0.5598  0.3403
 6825TIP3    H142034   0.643   3.952   0.643 -0.4703 -1.3315  0.8405
 6825TIP3    H242035   0.538   4.049   0.592  0.5821 -0.4624  0.2985
 6826TIP3   OH242036   5.150   4.810   1.926 -0.1057  0.1170 -0.4087
 6826TIP3    H142037   5.116   4.797   1.838 -0.4231 -0.3740 -0.2161
 6826TIP3    H242038   5.078   4.784   1.984  0.8789 -1.7894  0.0131
 6827TIP3   OH242039   4.564   2.553   1.800  0.6366  0.3015 -0.1286
 6827TIP3    H142040   4.602   2.616   1.738  1.9583  0.2289  0.5713
 6827TIP3    H242041   4.630   2.484   1.807  0.3598  0.1491  1.1065
 6828TIP3   OH242042   2.414   2.445   0.337 -0.2137 -0.5530 -0.0161
 6828TIP3    H142043   2.419   2.426   0.431  1.5791 -0.1821 -0.0139
 6828TIP3    H242044   2.493   2.494   0.318 -0.5637 -0.6052 -1.7395
 6829TIP3   OH242045   1.901   6.182   1.481 -0.4137  0.4655  0.1488
 6829TIP3    H142046   1.833   6.236   1.442 -0.9521  1.7706  2.6719
 6829TIP3    H242047   1.978   6.197   1.427 -1.7747 -0.1012 -2.0580
 6830TIP3   OH242048   2.595   5.726   0.453 -0.1139  0.6005  0.2221
 6830TIP3    H142049   2.683   5.763   0.452 -0.6037  1.8344 -0.0790
 6830TIP3    H242050   2.579   5.701   0.362  0.4111 -0.8949  0.5186
 6831TIP3   OH242051   6.248   2.242   2.372  0.0804  0.0270 -0.1259
 6831TIP3    H142052   6.172   2.245   2.431  0.5411  0.2331  0.4705
 6831TIP3    H242053   6.294   2.324   2.388  0.4721 -0.1291 -0.4304
 6832TIP3   OH242054   1.847   4.372   2.815  0.2413 -1.2977  0.3108
 6832TIP3    H142055   1.761   4.379   2.857 -0.6615 -2.1057 -1.2954
 6832TIP3    H242056   1.843   4.289   2.767  0.3912  0.4526 -3.0083
 6833TIP3   OH242057   2.987   1.101   8.683 -0.3531 -0.1789  0.2447
 6833TIP3    H142058   2.949   1.152   8.611  0.7574 -0.9256 -0.9047
 6833TIP3    H242059   2.924   1.109   8.754 -2.3723 -0.8723 -1.3791
 6834TIP3   OH242060   0.443   4.995   8.322 -0.9680 -0.1890  0.3422
 6834TIP3    H142061   0.440   5.034   8.235  0.3072 -1.5299 -0.3412
 6834TIP3    H242062   0.363   4.942   8.328 -1.8212  1.0647  0.6151
 6835TIP3   OH242063   5.187   0.323   8.320 -0.1811  0.2186  0.3775
 6835TIP3    H142064   5.149   0.240   8.290 -0.1141  0.2788  0.1193
 6835TIP3    H242065   5.206   0.371   8.239 -1.8333  1.2242  0.5490
 6836TIP3   OH242066   4.080   5.112   8.409  0.1870  0.4908  0.0000
 6836TIP3    H142067   4.025   5.137   8.484 -1.6395  1.2051 -1.5090
 6836TIP3    H242068   4.018   5.083   8.342  1.8787 -1.9443 -0.6378
 6837TIP3   OH242069   6.573   4.278   0.984  0.0205 -0.1064 -0.5959
 6837TIP3    H142070   6.484   4.311   0.990  0.0952 -0.2166  2.4038
 6837TIP3    H242071   6.569   4.211   0.916 -1.3090  2.2286 -3.0554
 6838TIP3   OH242072   2.966   1.772   3.916  0.0751 -0.5552  0.3753
 6838TIP3    H142073   3.013   1.750   3.836  1.1877 -2.5917  1.5314
 6838TIP3    H242074   2.916   1.851   3.893  0.9400 -0.6410 -2.0692
 6839TIP3   OH242075   6.323   3.420   2.850  0.0195  0.2008 -0.0061
 6839TIP3    H142076   6.364   3.399   2.767  0.5943  0.8117  0.1140
 6839TIP3    H242077   6.378   3.378   2.916  0.2749  0.7513  0.1368
 6840TIP3   OH242078   0.464   3.038   3.484 -0.0462  0.5477  0.3170
 6840TIP3    H142079   0.503   3.113   3.439  0.0824  0.7190  0.7121
 6840TIP3    H242080   0.451   3.068   3.574  1.6029 -0.4507  0.9403
 6841TIP3   OH242081   6.816   0.300   2.401  0.4929 -0.6494 -0.0859
 6841TIP3    H142082   6.794   0.275   2.311 -1.9809 -0.4335  0.4019
 6841TIP3    H242083   6.757   0.372   2.422  0.5975 -1.0720  1.9146
 6842TIP3   OH242084   5.727   5.113   0.198 -0.6661  0.0203 -0.1466
 6842TIP3    H142085   5.683   5.083   0.119  1.0774 -1.0054 -0.8000
 6842TIP3    H242086   5.679   5.073   0.270 -1.3006 -0.3649 -0.7784
 6843TIP3   OH242087   1.811   6.302   0.188 -0.2600  0.9927 -0.0285
 6843TIP3    H142088   1.836   6.290   0.279  0.2331 -1.2898 -0.3907
 6843TIP3    H242089   1.894   6.305   0.140 -0.4769 -1.3468 -0.7000
 6844TIP3   OH242090   1.631   0.726   3.218  0.1459 -0.3785  0.1596
 6844TIP3    H142091   1.626   0.787   3.145  1.4872 -2.1345 -1.4973
 6844TIP3    H242092   1.722   0.698   3.220 -0.4555 -2.4908  0.6641
 6845TIP3   OH242093   3.345   5.106   8.666  0.6447 -0.0981  0.0189
 6845TIP3    H142094   3.334   5.061   8.749 -3.3020 -2.2519 -1.3964
 6845TIP3    H242095   3.399   5.047   8.613 -1.4452 -1.5297 -0.6258
 6846TIP3   OH242096   3.487   4.906   0.088  0.1408  0.0555 -0.0859
 6846TIP3    H142097   3.512   4.884  -0.002  0.1742  1.3260 -0.4130
 6846TIP3    H242098   3.562   4.879   0.141  0.3236 -0.2684 -0.4977
 6847TIP3   OH242099   0.072   6.026   2.791  0.6111 -0.5851  0.3459
 6847TIP3    H142100  -0.020   6.014   2.812  0.0687  1.6606 -0.4454
 6847TIP3    H242101   0.084   5.987   2.705  0.3618 -0.7166  0.3727
 6848TIP3   OH242102   4.861   6.225   1.398  0.3923  1.0368  0.0670
 6848TIP3    H142103   4.906   6.175   1.467 -0.0165  1.8252  0.9231
 6848TIP3    H242104   4.911   6.305   1.389  1.3523  0.2894 -1.6810
 6849TIP3   OH242105   6.740   5.501   0.406  0.0722 -0.2492 -0.0629
 6849TIP3    H142106   6.668   5.559   0.433  2.1524  2.6146 -0.1359
 6849TIP3    H242107   6.799   5.499   0.481  1.2532 -0.2029 -0.9605
 6850TIP3   OH242108   3.811   1.173   0.751  0.1825  0.0983  0.3669
 6850TIP3    H142109   3.761   1.245   0.788  0.0350  0.3004 -0.2231
 6850TIP3    H242110   3.814   1.190   0.657  0.2929 -0.5718  0.2394
 6851TIP3   OH242111   0.214   2.327   8.478  0.1623 -0.2217 -0.3959
 6851TIP3    H142112   0.307   2.319   8.500 -0.0735  0.0721  0.7915
 6851TIP3    H242113   0.212   2.380   8.398  0.9311  2.2103  1.0680
 6852TIP3   OH242114   1.742   0.296   2.165 -0.0882  0.4884  0.2298
 6852TIP3    H142115   1.717   0.214   2.207 -0.3724  1.3642  1.8535
 6852TIP3    H242116   1.829   0.315   2.200 -0.1721  1.0623  0.1356
 6853TIP3   OH242117   3.475   5.980   2.974 -0.5723  0.0976 -0.3843
 6853TIP3    H142118   3.558   6.026   2.958 -0.6660  0.3497 -0.1429
 6853TIP3    H242119   3.452   6.003   3.063 -0.5557 -0.5252 -0.2138
 6854TIP3   OH242120   5.533   4.250   7.622  0.0905 -0.4649 -0.1052
 6854TIP3    H142121   5.597   4.321   7.628  0.9147 -1.1137 -0.9918
 6854TIP3    H242122   5.473   4.279   7.553  1.3004 -1.2686 -1.5483
 6855TIP3   OH242123   3.715   5.357   8.533  0.0039 -0.0250 -0.0712
 6855TIP3    H142124   3.790   5.301   8.553  1.1152  1.1012 -0.9570
 6855TIP3    H242125   3.731   5.388   8.443 -0.7416  1.4342  0.2656
 6856TIP3   OH242126   0.232   4.904   8.638 -0.2384 -0.1456 -0.0879
 6856TIP3    H142127   0.196   4.890   8.551 -0.1915  1.5864 -0.4190
 6856TIP3    H242128   0.165   4.955   8.684  0.7980  1.1556  0.0264
 6857TIP3   OH242129   4.822   4.852   1.089 -0.7950 -0.0999  0.2708
 6857TIP3    H142130   4.846   4.884   1.176 -0.8388  2.1338 -0.4814
 6857TIP3    H242131   4.860   4.764   1.085 -1.0836 -0.3968  2.6483
 6858TIP3   OH242132   2.837   5.335   2.506 -0.4071 -0.6503  0.4262
 6858TIP3    H142133   2.775   5.310   2.438 -0.3545 -0.9406  0.4831
 6858TIP3    H242134   2.918   5.291   2.482  0.1379  0.6945 -0.3229
 6859TIP3   OH242135   5.384   4.800   2.088 -0.1888 -0.1383 -0.1307
 6859TIP3    H142136   5.300   4.812   2.043  0.3430 -0.6963 -1.3206
 6859TIP3    H242137   5.437   4.874   2.058  0.2716 -0.6838 -0.6777
 6860TIP3   OH242138   4.928   4.488   8.302  0.7341 -0.3537 -0.0622
 6860TIP3    H142139   4.874   4.468   8.226 -1.4467 -3.3273  2.0495
 6860TIP3    H242140   4.882   4.560   8.346  0.8306 -0.0697 -0.4217
 6861TIP3   OH242141   6.501   1.784   0.278  0.2982 -0.0677 -0.1209
 6861TIP3    H142142   6.581   1.760   0.232 -0.1603 -0.1635 -0.8919
 6861TIP3    H242143   6.459   1.848   0.221  0.0122  0.2672  0.4580
 6862TIP3   OH242144   0.678   6.785   2.839 -0.0307  0.4062  0.3948
 6862TIP3    H142145   0.589   6.815   2.859 -0.3239  0.0212 -0.3162
 6862TIP3    H242146   0.680   6.693   2.867 -0.1069  0.1822 -0.3182
 6863TIP3   OH242147   1.550   4.337   2.821 -0.0648  0.0810 -0.1955
 6863TIP3    H142148   1.551   4.428   2.790 -0.5387 -0.7560 -2.9104
 6863TIP3    H242149   1.556   4.284   2.742 -0.2437 -2.2979  1.2758
 6864TIP3   OH242150   1.796   6.447   1.989  0.2129  0.0822 -0.0250
 6864TIP3    H142151   1.870   6.507   1.983  0.3328  0.1784  1.8272
 6864TIP3    H242152   1.734   6.492   2.048 -0.1689 -1.1131  0.5127
 6865TIP3   OH242153   5.666   0.567   3.251 -0.1702 -0.0119  0.0222
 6865TIP3    H142154   5.671   0.508   3.177  0.3626 -2.3827  1.8282
 6865TIP3    H242155   5.723   0.641   3.228  0.7499 -1.1507 -1.4863
 6866TIP3   OH242156   2.252   4.948   1.579 -0.2889 -0.0567  0.3353
 6866TIP3    H142157   2.227   4.935   1.671 -1.4671 -0.4759 -0.0274
 6866TIP3    H242158   2.196   5.019   1.550 -0.4549 -0.4318 -0.2665
 6867TIP3   OH242159   0.917   5.364   1.552  0.0412 -0.4041 -0.2327
 6867TIP3    H142160   0.977   5.309   1.502  1.1441 -0.1261  0.7496
 6867TIP3    H242161   0.973   5.431   1.592 -1.3498  2.2930 -2.3825
 6868TIP3   OH242162   2.480   5.855   8.683 -0.1970 -0.1717  0.2355
 6868TIP3    H142163   2.413   5.792   8.657 -0.2136 -0.2940  0.5655
 6868TIP3    H242164   2.461   5.934   8.633  0.5053 -0.7881 -1.0610
 6869TIP3   OH242165   1.157   1.668   2.440 -0.5437 -0.3023 -0.1841
 6869TIP3    H142166   1.126   1.758   2.451 -0.8195 -0.4367  0.1637
 6869TIP3    H242167   1.090   1.615   2.482 -0.5456 -0.6944 -0.6729
 6870TIP3   OH242168   4.489   0.573   1.708 -0.2155  0.7135  0.2450
 6870TIP3    H142169   4.406   0.615   1.728 -1.2064 -0.1987 -1.6051
 6870TIP3    H242170   4.555   0.631   1.745 -1.5689  2.8768 -0.5117
 6871TIP3   OH242171   2.574   1.305   2.398 -0.2221  0.2710 -0.0536
 6871TIP3    H142172   2.651   1.361   2.387  1.0476 -1.3591  0.1883
 6871TIP3    H242173   2.536   1.299   2.311  2.2174 -2.0295 -1.0887
 6872TIP3   OH242174   3.068   2.486   7.958 -0.5767 -0.2047  0.4782
 6872TIP3    H142175   3.138   2.421   7.951 -0.2215  0.2563 -0.5172
 6872TIP3    H242176   3.045   2.505   7.867 -1.5960  0.0823  0.7851
 6873TIP3   OH242177   2.812   6.466   1.233  0.1426 -0.6217  0.6388
 6873TIP3    H142178   2.728   6.430   1.205  0.3005 -1.7235  1.5456
 6873TIP3    H242179   2.799   6.492   1.324  0.7927 -0.8695  0.8121
 6874TIP3   OH242180   2.234   6.174   0.262 -0.4750  0.0398  0.5630
 6874TIP3    H142181   2.256   6.259   0.227 -2.0529  0.3736  0.3050
 6874TIP3    H242182   2.244   6.183   0.357  0.9868 -0.0093  0.4264
 6875TIP3   OH242183   5.643   2.161   7.994 -0.1667  0.0990 -0.3403
 6875TIP3    H142184   5.686   2.201   7.918  0.0128  0.3859 -0.0955
 6875TIP3    H242185   5.561   2.209   8.003  0.9163  1.8088  1.1277
 6876TIP3   OH242186   1.418   5.168   2.858 -0.0340 -0.1500 -0.2002
 6876TIP3    H142187   1.327   5.155   2.884 -0.2898  0.3929 -0.7809
 6876TIP3    H242188   1.430   5.263   2.857 -0.4727 -0.0032 -3.3180
 6877TIP3   OH242189   4.194   0.430   1.472 -0.0658 -0.8459  0.5723
 6877TIP3    H142190   4.133   0.408   1.402 -0.4560  0.4014  0.4959
 6877TIP3    H242191   4.148   0.408   1.552 -0.8127  0.4744  0.5322
 6878TIP3   OH242192   6.511   4.325   2.382 -0.0202  0.5607 -0.1710
 6878TIP3    H142193   6.502   4.294   2.472 -0.7054  0.2180 -0.3513
 6878TIP3    H242194   6.463   4.408   2.380 -1.7473 -0.3863 -0.6842
 6879TIP3   OH242195   6.592   0.019   1.363  0.1274  0.3428  0.7459
 6879TIP3    H142196   6.587  -0.016   1.452 -0.8333 -1.6184 -0.0101
 6879TIP3    H242197   6.508  -0.005   1.324  0.9373  0.2196 -1.0092
 6880TIP3   OH242198   1.826   1.691   2.946 -0.7700 -0.4927  0.1769
 6880TIP3    H142199   1.786   1.683   2.859 -1.2075 -1.8000  0.4725
 6880TIP3    H242200   1.753   1.709   3.004 -0.5851 -0.4046  0.3814
 6881TIP3   OH242201   5.196   5.682   0.133  0.6178  0.9605 -0.1924
 6881TIP3    H142202   5.254   5.695   0.059  3.5499  2.3561  2.1603
 6881TIP3    H242203   5.205   5.589   0.154  0.9721  0.8929 -0.6269
 6882TIP3   OH242204   1.806   4.903   3.353  0.4435 -0.5023 -0.1057
 6882TIP3    H142205   1.718   4.919   3.320  0.8897  0.1203 -1.0031
 6882TIP3    H242206   1.792   4.870   3.442 -0.6265  1.5461  0.5271
 6883TIP3   OH242207   5.773   5.796   2.469 -0.0591  0.0727  0.0655
 6883TIP3    H142208   5.679   5.813   2.477 -0.3242  0.7564 -3.1951
 6883TIP3    H242209   5.780   5.701   2.457 -0.7360  0.2869 -2.6648
 6884TIP3   OH242210   5.772   3.122   8.675  0.3047  0.5685  0.5582
 6884TIP3    H142211   5.792   3.182   8.603  1.6102  0.6517  0.9580
 6884TIP3    H242212   5.745   3.180   8.747 -1.5117  0.4538  0.0067
 6885TIP3   OH242213   5.047   3.958   0.675  0.4899 -0.0943 -0.1543
 6885TIP3    H142214   5.136   3.924   0.686 -0.0356 -1.5395 -0.1732
 6885TIP3    H242215   5.028   3.946   0.582  0.5620  0.9750 -0.3134
 6886TIP3   OH242216   3.425   2.706   1.124 -0.3435  0.4125  0.1555
 6886TIP3    H142217   3.376   2.642   1.072  0.2976  1.1082 -1.3610
 6886TIP3    H242218   3.452   2.658   1.203  0.9049 -1.4713 -1.3368
 6887TIP3   OH242219   0.583   3.408   2.599  0.6559 -0.3746  0.2406
 6887TIP3    H142220   0.631   3.488   2.579  0.5369 -0.3568  0.0282
 6887TIP3    H242221   0.606   3.348   2.528 -0.5129  0.0031 -0.4784
 6888TIP3   OH242222   2.488   1.739   0.375  0.4867 -0.2575 -0.3306
 6888TIP3    H142223   2.430   1.750   0.300  1.3095  0.2075 -0.8953
 6888TIP3    H242224   2.485   1.645   0.393  2.6242 -0.9003 -2.8496
 6889TIP3   OH242225   5.501   4.107   1.838  0.0834  0.5212 -0.4333
 6889TIP3    H142226   5.499   4.032   1.897 -1.2720 -1.3177 -2.6281
 6889TIP3    H242227   5.490   4.183   1.895  0.2842 -1.0098  1.7768
 6890TIP3   OH242228   2.685   6.381   3.412 -0.5059  0.4561 -0.0609
 6890TIP3    H142229   2.623   6.443   3.374 -1.4127  0.1425  0.8693
 6890TIP3    H242230   2.698   6.412   3.502 -0.4655 -0.3226  0.2120
 6891TIP3   OH242231   2.796   4.673   8.283 -0.5429  0.0199  0.7457
 6891TIP3    H142232   2.851   4.713   8.350  1.6202  0.4248 -1.1297
 6891TIP3    H242233   2.717   4.647   8.329  0.2265  1.5649  3.1344
 6892TIP3   OH242234   5.547   2.389   3.320 -0.4130  0.4249  0.3191
 6892TIP3    H142235   5.453   2.373   3.313 -0.6269  1.3180  0.9118
 6892TIP3    H242236   5.566   2.450   3.248 -0.3467  0.4473  0.3550
 6893TIP3   OH242237   6.467   4.924   2.734 -0.3113 -0.2632 -0.2931
 6893TIP3    H142238   6.509   4.839   2.744  0.4765 -0.1112 -1.9896
 6893TIP3    H242239   6.533   4.979   2.691 -1.7864  0.3212 -1.9615
 6894TIP3   OH242240   6.846   2.542   8.118 -0.0013  0.3376 -0.2578
 6894TIP3    H142241   6.865   2.485   8.044  1.0807 -0.2689  0.4529
 6894TIP3    H242242   6.751   2.557   8.114 -0.7792 -3.3211  0.7723
 6895TIP3   OH242243   3.337   6.179   8.095 -0.3657 -0.1976 -0.1464
 6895TIP3    H142244   3.299   6.099   8.060  0.8537 -1.2543  0.8350
 6895TIP3    H242245   3.424   6.183   8.056 -0.9172  1.4300 -1.2815
 6896TIP3   OH242246   3.995   1.659   2.304 -0.2083 -0.1507 -0.6721
 6896TIP3    H142247   4.028   1.699   2.224 -1.8578  0.6703 -0.9775
 6896TIP3    H242248   3.923   1.715   2.332 -0.4461 -1.0877  0.7310
 6897TIP3   OH242249   5.419   1.299   1.135  0.2500 -0.4971  0.1644
 6897TIP3    H142250   5.369   1.380   1.137  0.2552 -0.4991  1.4436
 6897TIP3    H242251   5.498   1.319   1.186  0.9560 -0.8709 -0.7522
 6898TIP3   OH242252   3.717   1.227   2.807  0.2006  0.3950  0.4700
 6898TIP3    H142253   3.678   1.249   2.891  1.0934  3.4849  0.1696
 6898TIP3    H242254   3.646   1.239   2.744  0.7923  3.2410  0.2512
 6899TIP3   OH242255   4.071   3.566   8.243 -0.2255 -0.6934  0.2143
 6899TIP3    H142256   4.159   3.577   8.206 -0.7842 -2.2283 -1.7141
 6899TIP3    H242257   4.080   3.489   8.300  0.2024  0.6120  2.0134
 6900TIP3   OH242258   6.546   1.136   8.669 -0.0198  0.2979  0.0894
 6900TIP3    H142259   6.515   1.201   8.732  2.5222  1.1707  0.5485
 6900TIP3    H242260   6.568   1.060   8.722 -1.6691 -0.4961 -0.2911
 6901TIP3   OH242261   1.868   3.439   2.123 -0.1428 -0.5486  0.3795
 6901TIP3    H142262   1.911   3.465   2.041 -0.2085 -1.0987  0.1682
 6901TIP3    H242263   1.938   3.397   2.173  0.5587  1.9176  1.6573
 6902TIP3   OH242264   2.035   5.895   3.801  0.1240  0.4505  0.4555
 6902TIP3    H142265   2.028   5.830   3.870  0.8105  0.8755  0.9467
 6902TIP3    H242266   2.066   5.974   3.845  0.8962  0.6405 -0.3793
 6903TIP3   OH242267   4.780   6.402   8.694 -0.1614 -0.3710  0.1968
 6903TIP3    H142268   4.698   6.420   8.741 -0.7678 -1.6747 -0.3028
 6903TIP3    H242269   4.833   6.353   8.757  0.0101 -0.0285  0.3225
 6904TIP3   OH242270   6.350   5.469   2.217 -0.1894  0.1377 -0.4738
 6904TIP3    H142271   6.382   5.558   2.206  1.3056 -0.1542  1.0660
 6904TIP3    H242272   6.302   5.470   2.300  0.4339 -0.6051 -0.0813
 6905TIP3   OH242273   5.179   2.931   0.038 -0.2260 -0.6110 -0.1425
 6905TIP3    H142274   5.097   2.911   0.084 -0.4115  1.0823  0.3091
 6905TIP3    H242275   5.162   3.012  -0.009  0.9913 -0.5934 -0.6011
 6906TIP3   OH242276   6.349   5.182   2.716 -0.4112 -0.3613  0.3549
 6906TIP3    H142277   6.335   5.089   2.733  0.2374 -0.3743  0.8409
 6906TIP3    H242278   6.410   5.183   2.641 -1.8363 -0.3084 -0.8536
 6907TIP3   OH242279   1.416   6.522   0.137  0.3884 -0.2850  0.1680
 6907TIP3    H142280   1.391   6.505   0.228 -2.0725  1.4648 -0.0681
 6907TIP3    H242281   1.391   6.442   0.090  0.1843 -0.6012  0.8050
 6908TIP3   OH242282   0.959   4.248   0.524 -0.2893 -0.4779  0.2224
 6908TIP3    H142283   0.995   4.232   0.437  0.4142  0.4913  0.3052
 6908TIP3    H242284   0.883   4.305   0.509  1.1623  1.6248  0.3365
 6909TIP3   OH242285   0.918   0.494   1.232  0.0576 -0.7853  0.2508
 6909TIP3    H142286   0.944   0.583   1.207 -2.4529  0.5697  1.9405
 6909TIP3    H242287   0.953   0.484   1.321  1.0422 -1.8638 -0.2401
 6910TIP3   OH242288   5.532   3.014   8.672 -0.4118 -0.6145  0.0765
 6910TIP3    H142289   5.492   3.064   8.743 -2.1143 -0.6150 -0.8255
 6910TIP3    H242290   5.604   3.068   8.641 -0.2258 -0.2059  1.2067
 6911TIP3   OH242291   1.076   3.633   8.546 -0.0306  0.6881  0.0794
 6911TIP3    H142292   0.994   3.679   8.526  0.0652  0.9168  0.2111
 6911TIP3    H242293   1.117   3.619   8.461 -0.3509  0.2989 -0.0164
 6912TIP3   OH242294   2.412   3.857   2.332  0.0178 -0.1330 -0.1513
 6912TIP3    H142295   2.465   3.782   2.361  1.4284  1.0845  0.5714
 6912TIP3    H242296   2.439   3.872   2.242 -1.0677 -1.1320 -0.6694
 6913TIP3   OH242297   2.797   1.727   8.645  0.0675 -0.3489 -0.1606
 6913TIP3    H142298   2.718   1.758   8.600  1.0776  3.0885  0.0815
 6913TIP3    H242299   2.868   1.743   8.581  0.7093 -2.5338 -0.0525
 6914TIP3   OH242300   1.399   3.382   2.315  0.0070  0.7622 -0.0092
 6914TIP3    H142301   1.358   3.450   2.262 -0.8156 -0.3936 -0.9037
 6914TIP3    H242302   1.484   3.367   2.274 -0.5805 -0.0477 -0.9761
 6915TIP3   OH242303   5.902   3.525   8.374  0.0034 -0.5131  0.3927
 6915TIP3    H142304   5.997   3.517   8.363  0.0342  0.5810 -0.2145
 6915TIP3    H242305   5.865   3.485   8.296 -0.1526 -3.2177  1.7465
 6916TIP3   OH242306   0.348   5.859   8.132  0.2066  0.0638  0.5761
 6916TIP3    H142307   0.324   5.904   8.051  0.7620  1.9706  1.4231
 6916TIP3    H242308   0.266   5.849   8.180  0.3203  2.1145  1.2862
 6917TIP3   OH242309   4.051   0.614   0.393  0.1139 -0.0061 -0.2554
 6917TIP3    H142310   4.037   0.618   0.487  0.4644  0.7981 -0.2277
 6917TIP3    H242311   4.145   0.628   0.382  0.0176  0.3012 -0.7431
 6918TIP3   OH242312   5.270   5.179   1.104 -0.7234 -0.2763  0.3365
 6918TIP3    H142313   5.240   5.211   1.189  0.7439 -0.4006  0.9312
 6918TIP3    H242314   5.242   5.087   1.103 -3.0864  0.3878 -0.4854
 6919TIP3   OH242315   5.866   5.584   0.218 -0.3223 -0.0643  0.8082
 6919TIP3    H142316   5.913   5.561   0.298  0.6889  0.9349  0.5307
 6919TIP3    H242317   5.843   5.676   0.230 -0.1475  0.0999 -0.0564
 6920TIP3   OH242318   2.280   6.013   8.515  0.9345  0.1333 -0.5487
 6920TIP3    H142319   2.275   5.947   8.446  0.2012  1.4031 -1.7555
 6920TIP3    H242320   2.301   6.095   8.470  0.3579  1.0196  0.7089
 6921TIP3   OH242321   0.317   3.728   8.472 -0.2568  0.1384 -0.0406
 6921TIP3    H142322   0.266   3.808   8.482  2.4485  2.1034 -0.7744
 6921TIP3    H242323   0.313   3.709   8.378 -0.6399 -0.4456  0.0888
 6922TIP3   OH242324   0.870   6.837   7.831 -0.0057 -0.1786 -0.2917
 6922TIP3    H142325   0.776   6.838   7.809 -0.3882  0.1528  1.2402
 6922TIP3    H242326   0.912   6.877   7.755 -1.2010  0.5240 -0.6187
 6923TIP3   OH242327   5.866   3.522   2.809 -0.5589 -0.0607 -0.6400
 6923TIP3    H142328   5.780   3.522   2.853  0.7587  4.2160  2.7003
 6923TIP3    H242329   5.924   3.477   2.870  0.3733  1.4404 -0.3537
 6924TIP3   OH242330   2.928   2.200   0.542 -0.0248 -0.5374  0.3932
 6924TIP3    H142331   3.011   2.226   0.583  0.5273 -0.2394 -0.8849
 6924TIP3    H242332   2.918   2.260   0.468 -0.1094 -2.2104 -0.9960
 6925TIP3   OH242333   4.293   2.542   2.216  0.0749  0.6808  0.5925
 6925TIP3    H142334   4.205   2.517   2.244  1.5854 -2.4681  3.2272
 6925TIP3    H242335   4.310   2.625   2.261 -1.9630  2.2463 -1.2682
 6926TIP3   OH242336   6.068   0.392   1.217 -0.1940  0.1506  0.6396
 6926TIP3    H142337   5.979   0.402   1.249 -0.5061  1.2983 -0.4975
 6926TIP3    H242338   6.113   0.473   1.243  0.6209 -0.5578  1.4954
 6927TIP3   OH242339   6.004   0.064   1.461 -0.3179 -0.0638 -0.1785
 6927TIP3    H142340   5.920   0.047   1.418  0.2961  0.3299 -1.6088
 6927TIP3    H242341   6.012   0.159   1.461  0.7556 -0.1338 -1.3819
 6928TIP3   OH242342   4.285   0.681   1.361  0.3511  0.2854 -0.5283
 6928TIP3    H142343   4.302   0.642   1.276 -1.3365 -0.2376 -0.6610
 6928TIP3    H242344   4.247   0.610   1.413  1.2152  0.6360  0.6346
 6929TIP3   OH242345   1.159   4.041   3.756 -0.0267 -0.3200 -0.5132
 6929TIP3    H142346   1.163   3.948   3.731  0.4448 -0.2640 -0.6495
 6929TIP3    H242347   1.110   4.082   3.685 -0.2274 -0.4646 -0.4584
 6930TIP3   OH242348   6.475   3.826   8.108  0.0019 -0.1188  0.7115
 6930TIP3    H142349   6.503   3.794   8.193  0.3296 -0.6034  0.4321
 6930TIP3    H242350   6.500   3.918   8.107  0.2066 -0.1689  1.0482
 6931TIP3   OH242351   6.541   5.914   0.006  0.3446 -0.2685  0.4064
 6931TIP3    H142352   6.623   5.946  -0.030 -0.9174  2.0098 -0.7173
 6931TIP3    H242353   6.517   5.840  -0.051  1.4576 -0.7976  0.6034
 6932TIP3   OH242354   4.728   0.804   1.684  0.6895 -0.1434 -0.0443
 6932TIP3    H142355   4.736   0.895   1.712  0.0964 -0.2270  0.4306
 6932TIP3    H242356   4.742   0.806   1.590  1.1426  0.3736  0.0306
 6933TIP3   OH242357   3.806   6.402   2.023 -0.2060  0.0356  0.2326
 6933TIP3    H142358   3.827   6.389   1.931  1.8560 -3.2414  0.9768
 6933TIP3    H242359   3.729   6.349   2.039  1.6840 -2.7115  1.0212
 6934TIP3   OH242360   3.382   1.292   1.053 -0.2952  0.1150  0.1198
 6934TIP3    H142361   3.386   1.349   1.130  0.8664 -0.4567  0.5012
 6934TIP3    H242362   3.411   1.206   1.085  2.5310  0.3840 -1.3976
 6935TIP3   OH242363   1.050   0.344   3.029  0.3987  0.0081  0.4023
 6935TIP3    H142364   1.030   0.415   2.968 -1.8160 -0.9961 -0.1752
 6935TIP3    H242365   1.045   0.384   3.116 -1.2901  0.5135  0.1130
 6936TIP3   OH242366   1.326   2.302   2.497  0.2082  0.2097  0.0988
 6936TIP3    H142367   1.339   2.288   2.403 -0.9901  2.0062 -0.3728
 6936TIP3    H242368   1.413   2.326   2.530  0.4102  0.6997 -0.7724
 6937TIP3   OH242369   0.211   3.004   0.827  0.1116  0.0188 -0.1322
 6937TIP3    H142370   0.166   2.982   0.746  1.1323 -0.9592 -0.4591
 6937TIP3    H242371   0.150   3.061   0.873 -0.2979  0.9863 -1.7879
 6938TIP3   OH242372   3.867   4.324   8.544  0.2875 -0.2970 -0.2142
 6938TIP3    H142373   3.895   4.408   8.580 -0.5921  0.8343 -2.0892
 6938TIP3    H242374   3.785   4.305   8.589  0.4676 -0.1569  0.1840
 6939TIP3   OH242375   4.796   4.074   3.216 -0.7001 -0.2225 -0.3346
 6939TIP3    H142376   4.802   4.131   3.139  1.0666 -0.9890 -0.8057
 6939TIP3    H242377   4.829   4.127   3.288 -0.6470 -0.1030 -0.4463
 6940TIP3   OH242378   4.450   2.017   0.228 -0.5695 -0.2845 -0.1601
 6940TIP3    H142379   4.484   1.963   0.156 -0.1578  0.8026 -0.8083
 6940TIP3    H242380   4.528   2.048   0.274 -0.8363 -1.0189  0.8105
 6941TIP3   OH242381   6.320   5.246   1.188 -0.3069 -0.4397 -0.1992
 6941TIP3    H142382   6.232   5.217   1.213  0.5273 -3.0002  0.0553
 6941TIP3    H242383   6.351   5.296   1.263 -0.0161 -3.1541  1.6193
 6942TIP3   OH242384   6.602   2.965   1.220  0.2251 -0.3814  0.4511
 6942TIP3    H142385   6.513   2.942   1.248 -0.4647  1.4204 -0.1201
 6942TIP3    H242386   6.649   2.979   1.302 -0.4361  0.0510  0.7746
 6943TIP3   OH242387   6.589   3.693   2.334  0.7000 -0.9541 -0.0671
 6943TIP3    H142388   6.580   3.680   2.240  1.6640 -0.7267 -0.2033
 6943TIP3    H242389   6.500   3.690   2.368  0.2244  0.2484 -1.1554
 6944TIP3   OH242390   6.801   6.698   1.219  0.3758  0.7455 -0.3998
 6944TIP3    H142391   6.865   6.741   1.276 -0.8988  0.1867  1.5882
 6944TIP3    H242392   6.718   6.739   1.242 -0.2235  0.3191 -1.7349
 6945TIP3   OH242393   4.913   5.062   2.719  0.5278 -0.3887 -0.0504
 6945TIP3    H142394   4.859   5.135   2.691 -0.3150 -1.0795 -0.2684
 6945TIP3    H242395   4.929   5.078   2.812 -0.0348 -0.1681  0.0109
 6946TIP3   OH242396   3.656   5.260   1.246  0.4244 -0.5284 -0.2065
 6946TIP3    H142397   3.612   5.342   1.269  0.5829  0.0410 -1.8152
 6946TIP3    H242398   3.730   5.255   1.307 -0.6092 -0.4254  1.1092
 6947TIP3   OH242399   1.928   2.517   1.816  0.3714  0.1187  0.4401
 6947TIP3    H142400   2.021   2.527   1.796  0.1704  1.7589  0.1779
 6947TIP3    H242401   1.897   2.452   1.753  1.1072  0.3975 -0.2316
 6948TIP3   OH242402   3.406   3.442   7.663  0.3559  0.3430  0.7672
 6948TIP3    H142403   3.402   3.469   7.755 -1.9934  1.0165  0.5159
 6948TIP3    H242404   3.323   3.470   7.626  1.2801  0.1367 -1.6097
 6949TIP3   OH242405   5.102   3.448   1.713  0.4443 -0.7795  0.0007
 6949TIP3    H142406   5.173   3.414   1.766  0.2580 -1.5112 -0.2139
 6949TIP3    H242407   5.022   3.424   1.761  0.3508  1.2049  0.9433
 6950TIP3   OH242408   0.332   5.719   3.238  0.3020 -0.6700  0.2277
 6950TIP3    H142409   0.274   5.772   3.185  2.9604  1.8585 -0.3975
 6950TIP3    H242410   0.280   5.697   3.316 -1.7334  0.7025 -0.6681
 6951TIP3   OH242411   3.903   4.179   1.591  0.4424  0.2801  0.9399
 6951TIP3    H142412   3.886   4.108   1.530  1.1308 -0.8780  2.0259
 6951TIP3    H242413   3.929   4.135   1.672  0.6136  1.7718  1.7404
 6952TIP3   OH242414   3.893   3.190   8.706 -0.0123 -0.1167  0.0898
 6952TIP3    H142415   3.874   3.097   8.711 -0.6717 -0.1222 -1.7430
 6952TIP3    H242416   3.917   3.215   8.795 -0.8731 -1.8024  0.8289
 6953TIP3   OH242417   3.599   0.614   0.932 -0.4216  0.3624 -0.1343
 6953TIP3    H142418   3.581   0.569   1.014  0.3332 -0.8940 -0.6233
 6953TIP3    H242419   3.661   0.557   0.886 -2.0991  0.1514 -2.3361
 6954TIP3   OH242420   1.862   0.316   0.502 -0.1648  0.1831  0.3433
 6954TIP3    H142421   1.954   0.289   0.494 -0.2124  0.3076 -0.6957
 6954TIP3    H242422   1.861   0.407   0.471 -0.9369 -0.3935 -1.4430
 6955TIP3   OH242423   6.694   3.283   1.642 -0.3897  0.2907  0.8628
 6955TIP3    H142424   6.674   3.228   1.567 -1.2914 -0.1044  1.3772
 6955TIP3    H242425   6.674   3.372   1.613  0.8408  0.3461  0.1108
 6956TIP3   OH242426   4.140   0.775   8.340 -0.0414  0.4272 -0.0961
 6956TIP3    H142427   4.139   0.870   8.332 -0.0752  0.5105  0.8529
 6956TIP3    H242428   4.153   0.744   8.250  0.4179  1.3329 -0.3527
 6957TIP3   OH242429   1.507   6.693   0.712 -0.3261  1.2812 -0.2725
 6957TIP3    H142430   1.448   6.714   0.640  0.3248  0.2183 -1.1494
 6957TIP3    H242431   1.502   6.598   0.720 -0.9034  1.4368  1.5539
 6958TIP3   OH242432   1.727   3.337   0.317 -0.2725  0.5922 -0.6129
 6958TIP3    H142433   1.742   3.248   0.349 -1.7808  0.4336 -0.2722
 6958TIP3    H242434   1.797   3.388   0.356  0.4702 -0.3952 -0.6101
 6959TIP3   OH242435   0.219   6.004   2.273 -0.2486 -0.9484 -0.1902
 6959TIP3    H142436   0.227   5.972   2.183 -0.0841  0.3630 -0.6636
 6959TIP3    H242437   0.182   5.930   2.322  1.1347 -2.2063 -0.9895
 6960TIP3   OH242438   1.162   4.972   0.449 -0.0624 -0.1039 -0.2294
 6960TIP3    H142439   1.089   5.019   0.489 -0.3856 -0.2773 -0.6167
 6960TIP3    H242440   1.130   4.883   0.435 -0.4492  0.2893 -2.1427
 6961TIP3   OH242441   4.893   5.888   1.611 -0.2661 -0.2467  0.3044
 6961TIP3    H142442   4.822   5.934   1.655  0.0392  2.2873 -1.5942
 6961TIP3    H242443   4.965   5.951   1.609  0.5243 -1.1207 -1.5961
 6962TIP3   OH242444   1.596   6.594   3.000  0.2141  0.3076 -0.4212
 6962TIP3    H142445   1.600   6.578   3.094  1.4909  1.4165 -0.2522
 6962TIP3    H242446   1.518   6.647   2.987 -0.2763 -0.3236 -0.0689
 6963TIP3   OH242447   6.397   2.306   0.148 -0.3309 -1.0779 -0.1410
 6963TIP3    H142448   6.442   2.261   0.077 -0.9140  1.5471 -2.3544
 6963TIP3    H242449   6.329   2.357   0.105 -0.8459  0.5236  2.3318
 6964TIP3   OH242450   3.747   1.945   8.623 -0.3804 -0.6578 -0.6020
 6964TIP3    H142451   3.782   1.948   8.712 -0.0003 -0.7056 -0.7475
 6964TIP3    H242452   3.653   1.929   8.635 -0.4299 -0.0722 -0.1949
 6965TIP3   OH242453   4.675   5.326   0.709  0.0783 -0.3400  0.1352
 6965TIP3    H142454   4.771   5.332   0.709  0.2692 -1.6016  3.2792
 6965TIP3    H242455   4.656   5.253   0.650  0.9656  0.4375 -1.1545
 6966TIP3   OH242456   1.769   5.630   1.224 -0.3244 -0.2570 -0.2014
 6966TIP3    H142457   1.774   5.723   1.203 -2.2494  0.0340  0.4077
 6966TIP3    H242458   1.676   5.614   1.242 -0.2551 -2.5759 -1.4880
 6967TIP3   OH242459   4.651   2.537   0.774 -0.2644 -0.0989 -0.4895
 6967TIP3    H142460   4.563   2.514   0.742 -1.2611 -0.3348  2.1250
 6967TIP3    H242461   4.655   2.496   0.861  2.4159  0.0382 -0.4808
 6968TIP3   OH242462   0.284   1.468   2.736 -0.5631  0.1918  0.3413
 6968TIP3    H142463   0.364   1.432   2.774 -1.1299 -0.7864  0.6798
 6968TIP3    H242464   0.283   1.559   2.763 -0.8465 -0.4132  2.5913
 6969TIP3   OH242465   3.905   3.301   7.539 -0.2429 -0.3810  0.0344
 6969TIP3    H142466   3.966   3.227   7.548 -0.2875 -0.3766  0.4192
 6969TIP3    H242467   3.962   3.377   7.527 -0.2215 -0.6513 -1.8916
 6970TIP3   OH242468   5.726   6.348   3.315  0.0117  0.0801 -0.8722
 6970TIP3    H142469   5.714   6.268   3.367 -3.1587  0.9064 -0.1532
 6970TIP3    H242470   5.778   6.405   3.371  0.6250 -0.7492 -0.5795
 6971TIP3   OH242471   6.840   2.605   3.345  0.7376 -0.5532 -0.3065
 6971TIP3    H142472   6.857   2.530   3.402 -0.0034 -1.5559 -1.3509
 6971TIP3    H242473   6.905   2.670   3.372  0.5084 -1.0337  1.5546
 6972TIP3   OH242474   2.378   0.223   0.612  0.0501  0.3147 -0.0516
 6972TIP3    H142475   2.462   0.189   0.641  0.3819  0.7574 -0.4612
 6972TIP3    H242476   2.363   0.301   0.666 -0.1817  0.1338  0.1442
 6973TIP3   OH242477   1.335   6.398   1.809 -0.3111  0.2132 -0.0168
 6973TIP3    H142478   1.307   6.489   1.813 -0.0480  0.3217 -0.5053
 6973TIP3    H242479   1.415   6.400   1.755 -0.6511 -0.3817 -0.5624
 6974TIP3   OH242480   1.936   4.404   1.838 -0.2094 -0.0932 -0.4782
 6974TIP3    H142481   1.999   4.342   1.800 -0.2106 -0.9274  0.8133
 6974TIP3    H242482   1.868   4.349   1.876 -1.2750  0.7795 -1.0566
 6975TIP3   OH242483   0.706   4.627   3.041  0.3495 -0.0632 -0.2560
 6975TIP3    H142484   0.696   4.694   2.973  0.3878 -0.3083 -0.5083
 6975TIP3    H242485   0.796   4.637   3.071  0.2838  0.1510 -0.1285
 6976TIP3   OH242486   0.166   6.785   0.712 -0.1547 -0.0073 -0.0830
 6976TIP3    H142487   0.160   6.744   0.798 -0.8375  0.1399 -0.0568
 6976TIP3    H242488   0.205   6.717   0.656 -0.1692 -0.2759  0.2269
 6977TIP3   OH242489   6.338   4.309   8.402 -0.9067 -0.6077  0.2127
 6977TIP3    H142490   6.383   4.232   8.435  0.1594 -0.5688 -1.1011
 6977TIP3    H242491   6.407   4.374   8.387 -1.5620 -0.0388 -0.4481
 6978TIP3   OH242492   2.226   3.122   2.589 -0.6199 -0.1159 -0.7127
 6978TIP3    H142493   2.196   3.073   2.513 -1.6102 -1.6757  0.6265
 6978TIP3    H242494   2.262   3.055   2.648 -0.3117  0.9948  0.4036
 6979TIP3   OH242495   3.967   4.102   7.809 -1.0233  0.1681 -0.1088
 6979TIP3    H142496   4.012   4.176   7.849 -1.3625 -0.0537  0.7188
 6979TIP3    H242497   3.879   4.134   7.790 -0.8654  0.2697 -0.6860
 6980TIP3   OH242498   2.011   3.762   2.851  0.1688  0.0103  0.8770
 6980TIP3    H142499   2.038   3.695   2.914 -1.2956 -0.6551  0.8401
 6980TIP3    H242500   1.985   3.837   2.905  1.1480  0.3157  0.9452
 6981TIP3   OH242501   2.386   6.021   3.031 -0.2554  0.0108  0.1962
 6981TIP3    H142502   2.416   5.970   2.956 -0.7638  0.2962 -0.2072
 6981TIP3    H242503   2.378   5.957   3.102  3.4969  0.2496  1.0216
 6982TIP3   OH242504   2.682   5.157   7.675 -0.2646  0.1279  0.6671
 6982TIP3    H142505   2.724   5.167   7.760  0.8539  0.8784  0.0543
 6982TIP3    H242506   2.752   5.129   7.616 -1.0654 -0.5955  0.0271
 6983TIP3   OH242507   4.410   4.264   7.976 -0.3281 -0.0272  0.0956
 6983TIP3    H142508   4.448   4.332   8.032  1.9280 -0.6521 -0.5625
 6983TIP3    H242509   4.474   4.193   7.978 -2.4665 -2.0831  0.5233
 6984TIP3   OH242510   1.002   1.051   8.354 -0.1869  0.1093  0.1050
 6984TIP3    H142511   0.975   1.128   8.402  0.8251 -0.1190  1.0822
 6984TIP3    H242512   0.928   0.991   8.360  0.1182 -0.1379  1.9093
 6985TIP3   OH242513   5.240   3.441   3.542  0.0218  0.2340 -0.6321
 6985TIP3    H142514   5.191   3.441   3.625 -0.6215  0.7121 -0.9994
 6985TIP3    H242515   5.332   3.433   3.568  0.1055  3.2763  0.3238
 6986TIP3   OH242516   0.459   6.601   7.935 -0.3704 -0.3400  0.2452
 6986TIP3    H142517   0.380   6.589   7.989 -0.6977  1.2851  0.1674
 6986TIP3    H242518   0.522   6.642   7.994 -0.1264 -0.1675 -0.1316
 6987TIP3   OH242519   6.276   4.274   0.548  0.2923 -0.0843  0.3157
 6987TIP3    H142520   6.217   4.279   0.623  1.0660  1.2375  0.8733
 6987TIP3    H242521   6.359   4.245   0.585  0.8528  1.1809  0.1090
 6988TIP3   OH242522   3.030   1.618   1.548  0.2962 -0.0215  0.2952
 6988TIP3    H142523   2.950   1.619   1.495  1.9355 -1.2412 -2.4351
 6988TIP3    H242524   3.064   1.707   1.542 -0.3028  0.2284  0.5528
 6989TIP3   OH242525   4.136   2.263   0.494 -0.2397 -0.4605  0.1465
 6989TIP3    H142526   4.052   2.240   0.532 -0.2554 -0.7864 -0.0830
 6989TIP3    H242527   4.182   2.180   0.485  0.0022 -0.3149  0.0259
 6990TIP3   OH242528   0.940   3.199   2.899  0.0591 -0.4273 -0.2113
 6990TIP3    H142529   0.956   3.263   2.967 -3.0101  0.0099  0.2369
 6990TIP3    H242530   1.027   3.171   2.870  1.4591  2.5295  0.8577
 6991TIP3   OH242531   2.104   0.176   0.595 -0.1436 -0.4418 -0.2365
 6991TIP3    H142532   2.189   0.147   0.560 -0.4281  0.3666 -1.7042
 6991TIP3    H242533   2.121   0.262   0.633 -0.3129 -0.2335 -0.6233
 6992TIP3   OH242534   1.746   1.185   1.290  0.5416 -0.0447 -0.0084
 6992TIP3    H142535   1.661   1.175   1.246  0.5528  2.1429 -0.6372
 6992TIP3    H242536   1.805   1.127   1.242 -0.7622 -2.4013  1.0836
 6993TIP3   OH242537   4.075   6.180   1.391  0.0581 -0.0517  0.0754
 6993TIP3    H142538   4.032   6.109   1.342  0.9557 -0.5248 -0.0554
 6993TIP3    H242539   4.136   6.135   1.450  0.1213  0.5863  0.5062
 6994TIP3   OH242540   3.860   3.393   2.897  0.1334  0.4540  0.0400
 6994TIP3    H142541   3.786   3.355   2.945  0.3561 -0.3426 -0.2412
 6994TIP3    H242542   3.837   3.383   2.805 -0.0753  1.5590 -0.0418
 6995TIP3   OH242543   4.466   0.541   2.784  0.7330  0.3586 -0.2056
 6995TIP3    H142544   4.519   0.601   2.836  0.9670  0.8650 -0.9995
 6995TIP3    H242545   4.430   0.596   2.714  1.2736 -0.4897 -1.1826
 6996TIP3   OH242546   6.516   6.729   8.653 -0.4507 -0.0384 -0.0740
 6996TIP3    H142547   6.470   6.797   8.604 -0.7788  0.8255  1.3877
 6996TIP3    H242548   6.607   6.737   8.625 -0.6380  0.3871 -0.5827
 6997TIP3   OH242549   6.029   4.421   1.176  0.2908 -0.2299  0.1391
 6997TIP3    H142550   6.082   4.501   1.163 -0.2655  0.5001  2.0971
 6997TIP3    H242551   6.067   4.380   1.253 -1.5438 -0.0520  1.1806
 6998TIP3   OH242552   4.250   4.737   0.827 -0.4844 -0.1214  0.3558
 6998TIP3    H142553   4.245   4.707   0.737  2.2355  0.6598 -0.1440
 6998TIP3    H242554   4.288   4.663   0.875  0.4477  0.3338  0.3364
 6999TIP3   OH242555   3.639   3.988   8.342  0.1193 -0.0746 -0.0319
 6999TIP3    H142556   3.700   4.057   8.316 -0.4545 -0.2034 -1.7821
 6999TIP3    H242557   3.565   4.034   8.380  0.8180  0.1244  1.1614
 7000TIP3   OH242558   3.892   2.341   0.992 -0.4205 -0.3364 -0.0753
 7000TIP3    H142559   3.840   2.261   0.999  0.1499 -0.6421  0.7921
 7000TIP3    H242560   3.956   2.323   0.924 -0.5358 -0.4817 -0.1448
 7001TIP3   OH242561   4.494   6.733   2.181 -0.4047 -0.3874 -0.2478
 7001TIP3    H142562   4.503   6.816   2.135 -1.2064  0.1222  0.4936
 7001TIP3    H242563   4.548   6.743   2.259 -0.3986 -0.6180 -0.2216
 7002TIP3   OH242564   4.271   0.905   2.370  0.0658  0.6748  0.1440
 7002TIP3    H142565   4.234   0.876   2.287  0.4399 -1.1430  0.5638
 7002TIP3    H242566   4.353   0.948   2.348  0.3846 -0.1982 -0.4144
 7003TIP3   OH242567   4.704   4.086   8.731 -0.4998  0.0719 -0.0461
 7003TIP3    H142568   4.728   4.111   8.643 -1.9432  2.3916  0.1261
 7003TIP3    H242569   4.633   4.022   8.719 -0.4852  0.1505 -0.5726
 7004TIP3   OH242570   3.360   5.541   1.696  0.1826 -0.4807 -0.7653
 7004TIP3    H142571   3.276   5.515   1.658  0.7220  0.8137 -3.0582
 7004TIP3    H242572   3.397   5.460   1.731 -1.7557 -1.1731 -0.2206
 7005TIP3   OH242573   5.537   4.087   3.004  0.4117  0.4514 -0.4886
 7005TIP3    H142574   5.585   4.126   2.931 -1.8359  2.5595 -0.9812
 7005TIP3    H242575   5.549   4.148   3.077 -0.5499  0.4350 -0.2973
 7006TIP3   OH242576   4.610   1.653   2.064 -0.1914 -0.3077  0.1443
 7006TIP3    H142577   4.635   1.740   2.032 -1.1574  0.5011  1.4611
 7006TIP3    H242578   4.650   1.647   2.151 -2.3144 -0.0282  1.2048
 7007TIP3   OH242579   1.500   4.120   2.370 -0.7234  0.0266  0.4424
 7007TIP3    H142580   1.456   4.171   2.438  0.6652  1.9311 -0.0011
 7007TIP3    H242581   1.543   4.186   2.315  0.0029 -1.5792 -0.9872
 7008TIP3   OH242582   2.819   5.605   3.541  0.4124  0.0888 -0.4025
 7008TIP3    H142583   2.724   5.612   3.545  0.5256  0.8432  1.7482
 7008TIP3    H242584   2.838   5.517   3.573  0.4303 -0.4815 -1.8755
 7009TIP3   OH242585   3.107   1.282   3.088 -0.5887 -0.1279 -0.3833
 7009TIP3    H142586   3.083   1.255   3.176  0.6182  0.9545  0.2954
 7009TIP3    H242587   3.198   1.256   3.078 -0.3072  0.9672 -0.8061
 7010TIP3   OH242588   1.601   0.430   2.486 -0.3103 -0.7979 -0.5972
 7010TIP3    H142589   1.621   0.350   2.534 -0.2929 -1.2995 -1.4418
 7010TIP3    H242590   1.588   0.496   2.555 -1.9545 -1.8745  0.1766
 7011TIP3   OH242591   4.150   6.010   3.109 -0.2277 -0.3888 -0.0827
 7011TIP3    H142592   4.211   6.082   3.091 -1.3812  0.9600  1.1328
 7011TIP3    H242593   4.206   5.932   3.117  0.9391  0.0953 -2.6780
 7012TIP3   OH242594   3.968   5.369   0.673  0.6762 -0.6312  0.1264
 7012TIP3    H142595   3.996   5.460   0.663  0.2929 -0.4918  0.2827
 7012TIP3    H242596   4.044   5.324   0.710  0.8727 -0.3767  0.0338
 7013TIP3   OH242597   2.581   0.353   3.272 -0.2954 -0.0064  0.4413
 7013TIP3    H142598   2.648   0.290   3.298 -0.0589 -0.5039 -1.2314
 7013TIP3    H242599   2.507   0.336   3.330  0.7763  0.1351  1.9068
 7014TIP3   OH242600   5.872   6.153   2.596 -0.3449 -0.5526 -0.1370
 7014TIP3    H142601   5.776   6.148   2.594 -0.7237  0.5921  4.1347
 7014TIP3    H242602   5.901   6.068   2.563 -2.7002 -0.6116 -2.4340
 7015TIP3   OH242603   2.028   3.334   2.702  0.3992  0.1472  0.0337
 7015TIP3    H142604   2.041   3.340   2.796  2.3147  2.0877 -0.2908
 7015TIP3    H242605   2.104   3.287   2.669  0.7485  1.1961 -0.7196
 7016TIP3   OH242606   5.339   2.235   8.016 -0.2285 -0.1307 -0.0443
 7016TIP3    H142607   5.257   2.191   8.039 -0.5390  0.8460  0.7782
 7016TIP3    H242608   5.311   2.318   7.978  0.3466 -0.6389 -1.6609
 7017TIP3   OH242609   3.850   6.029   2.316  0.3117 -0.3082  0.0858
 7017TIP3    H142610   3.817   6.102   2.263  1.3006  1.2139  1.4541
 7017TIP3    H242611   3.898   5.975   2.254 -2.0665 -0.9305 -1.3425
 7018TIP3   OH242612   3.807   0.906   8.133  0.0300 -0.2779 -0.4978
 7018TIP3    H142613   3.763   0.835   8.179  0.3864  0.5814  1.2622
 7018TIP3    H242614   3.735   0.963   8.104 -0.1536  0.8363  1.8841
 7019TIP3   OH242615   1.662   0.686   8.337 -0.4155 -0.3857 -0.2159
 7019TIP3    H142616   1.663   0.616   8.402  1.2641 -0.1903  0.0051
 7019TIP3    H242617   1.658   0.766   8.389  1.4682 -0.2065 -0.2661
 7020TIP3   OH242618   4.793   5.990   1.284  0.1735  0.2352 -0.3301
 7020TIP3    H142619   4.698   5.986   1.282  0.0944  1.1463  0.9197
 7020TIP3    H242620   4.813   6.075   1.323  1.5065  0.3534 -1.2020
 7021TIP3   OH242621   4.398   3.962   7.869 -0.5361 -0.0292 -0.0619
 7021TIP3    H142622   4.427   3.884   7.821 -0.9939  1.4634 -3.0121
 7021TIP3    H242623   4.303   3.962   7.860 -0.4850  1.2620 -0.8404
 7022TIP3   OH242624   4.489   4.635   2.804 -0.0014  0.1005 -0.5952
 7022TIP3    H142625   4.434   4.663   2.731  0.5891  0.0748 -1.0601
 7022TIP3    H242626   4.513   4.716   2.848  1.1172  0.3040 -1.5138
 7023TIP3   OH242627   0.719   5.669   1.522 -0.4598  0.1941  0.8366
 7023TIP3    H142628   0.672   5.586   1.533 -0.5835 -0.0637 -1.3611
 7023TIP3    H242629   0.769   5.678   1.604 -0.5539 -1.9664  1.2030
 7024TIP3   OH242630   1.571   5.477   0.042  0.0743  0.4862 -0.5933
 7024TIP3    H142631   1.494   5.531   0.057  0.5203  1.3921 -1.4618
 7024TIP3    H242632   1.581   5.476  -0.053  1.2853  0.5977 -0.4772
 7025TIP3   OH242633   1.243   5.879   0.140 -0.1779 -0.1623  0.1908
 7025TIP3    H142634   1.222   5.921   0.223 -0.6818  0.9785 -0.4736
 7025TIP3    H242635   1.251   5.952   0.078 -1.7801 -1.0690 -1.1813
 7026TIP3   OH242636   0.960   2.159   1.678 -0.1667  0.1210  0.2337
 7026TIP3    H142637   0.876   2.141   1.636 -0.7623  1.1817  0.9294
 7026TIP3    H242638   0.938   2.180   1.769  1.1862 -3.4907  1.6064
 7027TIP3   OH242639   4.609   2.680   0.014 -0.8914 -0.4060  0.0035
 7027TIP3    H142640   4.621   2.595   0.057 -0.0128 -0.4079 -0.2327
 7027TIP3    H242641   4.568   2.658  -0.070 -2.9613 -0.3715  0.9490
 7028TIP3   OH242642   4.758   2.276   2.076 -0.4391  0.2400 -0.4916
 7028TIP3    H142643   4.829   2.218   2.102  1.2230  2.4690  0.3384
 7028TIP3    H242644   4.691   2.265   2.144 -0.1743 -0.6795 -0.3717
 7029TIP3   OH242645   2.350   4.186   7.752  0.3117  0.2816 -0.6116
 7029TIP3    H142646   2.316   4.227   7.832 -0.6866 -0.0395 -0.8545
 7029TIP3    H242647   2.438   4.222   7.742  0.8228 -0.3503  1.1363
 7030TIP3   OH242648   1.678   5.779   8.374 -0.2839  0.1615  0.7545
 7030TIP3    H142649   1.643   5.808   8.290  0.4413 -0.6470  0.1571
 7030TIP3    H242650   1.602   5.741   8.420 -0.4733 -0.3433  0.0359
 7031TIP3   OH242651   2.685   2.783   0.775  0.0165 -0.2427  0.0213
 7031TIP3    H142652   2.682   2.776   0.679 -1.9187  1.4234 -0.1006
 7031TIP3    H242653   2.648   2.700   0.806  0.4900 -0.7221 -0.6530
 7032TIP3   OH242654   6.185   0.383   2.834 -0.7255  0.3358  0.3719
 7032TIP3    H142655   6.259   0.435   2.864 -0.5445  1.3560 -1.7081
 7032TIP3    H242656   6.115   0.403   2.896  0.9399 -1.4502  3.0065
 7033TIP3   OH242657   3.952   5.824   3.462  0.0662 -0.7496 -0.3911
 7033TIP3    H142658   3.942   5.730   3.447 -1.7650 -0.5181 -0.9101
 7033TIP3    H242659   3.938   5.835   3.556 -1.7337 -0.8207 -0.6161
 7034TIP3   OH242660   5.975   5.158   8.031  0.6635  0.6325 -0.0089
 7034TIP3    H142661   5.998   5.224   8.096  2.9893 -0.3319  0.2548
 7034TIP3    H242662   6.020   5.078   8.060  0.0376 -0.3957 -1.6740
 7035TIP3   OH242663   5.090   2.677   0.222  0.4521 -0.2319  0.1508
 7035TIP3    H142664   5.163   2.719   0.266  0.6200 -0.2511 -0.1100
 7035TIP3    H242665   5.026   2.747   0.210 -0.4274 -0.6068  2.1505
 7036TIP3   OH242666   5.038   2.947   2.196 -0.0859 -0.1292 -0.4340
 7036TIP3    H142667   5.114   2.929   2.251  0.8769  1.4237 -1.1812
 7036TIP3    H242668   5.003   3.030   2.230 -0.9058 -0.3753 -0.6621
 7037TIP3   OH242669   2.624   6.474   2.169  0.1493  0.3241 -0.2804
 7037TIP3    H142670   2.653   6.387   2.143  1.4309  0.7242 -0.2309
 7037TIP3    H242671   2.647   6.530   2.095  0.2909  0.8094  0.1319
 7038TIP3   OH242672   2.525   2.368   8.703 -0.9866  0.4500  0.0600
 7038TIP3    H142673   2.443   2.364   8.752 -0.1080  0.3997  1.6054
 7038TIP3    H242674   2.549   2.461   8.705 -0.4477  0.3075  0.6214
 7039TIP3   OH242675   6.482   1.136   2.241 -0.2599 -0.0146 -0.0687
 7039TIP3    H142676   6.503   1.045   2.264  0.3655 -0.2162 -1.3282
 7039TIP3    H242677   6.503   1.142   2.148  1.3786  1.8864  0.3550
 7040TIP3   OH242678   4.969   2.206   2.438  0.1553 -0.0547 -0.3878
 7040TIP3    H142679   5.023   2.177   2.364 -1.0863  0.2048 -1.4242
 7040TIP3    H242680   4.933   2.125   2.474 -0.8209 -0.0679 -1.3372
 7041TIP3   OH242681   0.614   2.369   2.825  0.1195 -0.1293  0.0643
 7041TIP3    H142682   0.643   2.370   2.734 -0.0936 -1.7579 -0.0570
 7041TIP3    H242683   0.688   2.332   2.873  0.3274  0.9616  0.6050
 7042TIP3   OH242684   3.555   6.614   1.644 -0.1776 -0.0667  0.4467
 7042TIP3    H142685   3.547   6.701   1.683 -0.8506 -0.3461  0.9377
 7042TIP3    H242686   3.468   6.575   1.651 -0.5795  0.1900 -2.1298
 7043TIP3   OH242687   3.323   3.093   8.017 -0.6164  0.2744  0.0182
 7043TIP3    H142688   3.401   3.038   8.029 -0.2668  0.8174  0.2593
 7043TIP3    H242689   3.356   3.182   8.020 -1.0686  0.5040 -1.1782
 7044TIP3   OH242690   2.660   1.677   2.284  0.2413  0.1282  0.5082
 7044TIP3    H142691   2.572   1.711   2.270 -0.4132 -1.6266 -0.0108
 7044TIP3    H242692   2.653   1.623   2.363  1.0293  0.5112  0.8526
 7045TIP3   OH242693   1.150   5.259   2.971  0.4236  0.2054  0.5499
 7045TIP3    H142694   1.186   5.345   2.948 -1.1221  0.6473 -0.3984
 7045TIP3    H242695   1.099   5.274   3.051 -2.6158  1.0466 -1.3488
 7046TIP3   OH242696   6.166   4.049   0.147 -0.3689 -0.5577 -0.2737
 7046TIP3    H142697   6.226   3.991   0.194 -0.3465 -1.7998 -1.7213
 7046TIP3    H242698   6.195   4.043   0.056 -2.0822 -0.4413 -0.8621
 7047TIP3   OH242699   5.713   1.079   2.296 -0.1871  0.3483 -0.3102
 7047TIP3    H142700   5.727   1.053   2.387 -0.5633 -1.5676 -0.7614
 7047TIP3    H242701   5.800   1.073   2.257 -0.3282 -0.6538 -0.4951
 7048TIP3   OH242702   0.000   3.540   1.747 -0.6289 -0.1701 -0.2019
 7048TIP3    H142703   0.012   3.465   1.806 -2.7011 -0.6313 -0.2809
 7048TIP3    H242704  -0.080   3.582   1.777 -1.3057  0.0660 -2.1694
 7049TIP3   OH242705   5.068   6.452   8.342 -0.3122 -0.2341  0.2134
 7049TIP3    H142706   5.102   6.512   8.408  0.7847  2.1360 -2.3355
 7049TIP3    H242707   4.975   6.443   8.363 -0.4916  2.2739  0.8174
 7050TIP3   OH242708   2.353   0.679   0.554 -0.3327 -0.4431  0.1205
 7050TIP3    H142709   2.322   0.594   0.586 -0.2199 -0.2923  0.6405
 7050TIP3    H242710   2.310   0.690   0.469 -1.4482 -0.3973  0.6702
 7051TIP3   OH242711   5.853   2.087   4.328 -0.5193  0.0998 -0.4165
 7051TIP3    H142712   5.867   2.020   4.396  1.0362  2.2662  1.6000
 7051TIP3    H242713   5.842   2.038   4.247  2.1050 -2.6096  0.6678
 7052TIP3   OH242714   0.314   4.681   2.780 -0.5296 -0.2024 -0.6568
 7052TIP3    H142715   0.400   4.674   2.740 -0.4809  1.6912 -0.9687
 7052TIP3    H242716   0.322   4.752   2.843 -1.6950 -0.4284 -0.2238
 7053TIP3   OH242717   4.486   5.247   1.415 -0.5948  0.1565 -0.3481
 7053TIP3    H142718   4.550   5.313   1.389 -0.5836  0.0505 -0.5967
 7053TIP3    H242719   4.531   5.164   1.401 -0.1699  0.1077  1.1289
 7054TIP3   OH242720   3.618   4.050   1.759  0.1950 -0.4737 -0.0955
 7054TIP3    H142721   3.527   4.066   1.783 -0.2924 -1.7235 -1.0053
 7054TIP3    H242722   3.617   3.963   1.718  1.6920 -0.2526 -0.6559
 7055LIG      O42723   0.655   3.755   2.090  0.3216  0.1056 -0.4443
 7055LIG      N42724   0.786   3.886   1.867  0.3843 -0.3962  0.4474
 7055LIG     C142725   0.538   3.544   2.044  0.1781  0.4197 -0.5031
 7055LIG     C242726   0.664   3.629   2.023  0.3437  0.6320  0.2669
 7055LIG     C342727   0.520   3.514   2.190 -0.6192  0.7379  0.0504
 7055LIG     C442728   0.408   3.600   1.977  0.1180 -0.0093 -0.5272
 7055LIG     C542729   0.685   3.662   1.872 -0.3293 -0.6864 -0.1456
 7055LIG     C642730   0.411   3.417   2.209 -0.1417 -0.2494  0.3302
 7055LIG     C742731   0.285   3.505   2.008 -1.0134  0.8607 -0.4496
 7055LIG     C842732   0.273   3.461   2.152  0.0784  0.4739  0.3438
 7055LIG     C942733   0.806   3.745   1.827 -0.6663  0.0292 -0.4701
 7055LIG    C1042734   0.790   3.541   2.065 -0.1944  0.4156 -0.5541
 7055LIG    C1142735   0.893   3.951   1.948 -0.3235 -0.0258  0.3067
 7055LIG    C1242736   0.760   3.979   1.744 -0.1774 -0.1898 -0.6014
 7055LIG    C1342737   1.031   3.951   1.867 -0.0434  0.5656 -0.3274
 7055LIG    C1442738   0.895   3.995   1.666  0.1336 -0.3961 -0.7732
 7055LIG    C1542739   1.023   4.035   1.743  0.4808  0.0251 -0.0489
 7055LIG    C1642740   0.808   3.415   2.018  0.1278  0.5021 -0.4981
 7055LIG    C1742741   0.886   3.589   2.153 -0.2697 -0.6945  0.1326
 7055LIG    C1842742   0.912   3.332   2.064  0.2690  0.7427 -0.8675
 7055LIG    C1942743   0.994   3.519   2.206  0.2367 -0.1163 -0.6413
 7055LIG    C2042744   1.000   3.384   2.165 -0.1865 -0.5729  0.1492
 7055LIG     H142745   0.555   3.461   1.971 -1.3802 -0.1470 -0.2538
 7055LIG     H242746   0.497   3.600   2.256 -1.0535  0.5197  0.1874
 7055LIG     H342747   0.608   3.466   2.236 -0.0304  0.6368 -1.1253
 7055LIG     H442748   0.413   3.613   1.867  0.5496 -3.0170 -0.9369
 7055LIG     H542749   0.382   3.693   2.033 -0.9425 -2.0453  2.6880
 7055LIG     H642750   0.597   3.710   1.824 -0.0860 -0.2539 -0.1697
 7055LIG     H742751   0.693   3.565   1.818  0.2608 -0.6460 -0.1372
 7055LIG     H842752   0.401   3.397   2.318 -1.9988 -1.1546  0.0322
 7055LIG     H942753   0.441   3.321   2.161  1.3043 -0.0842  0.8572
 7055LIG    H1042754   0.298   3.407   1.956  1.6808  1.8413 -1.8080
 7055LIG    H1142755   0.192   3.556   1.977 -0.0338  3.3038  0.3727
 7055LIG    H1242756   0.246   3.553   2.209 -0.1182 -0.9733  2.6975
 7055LIG    H1342757   0.197   3.382   2.169 -0.0009  0.2983 -0.7786
 7055LIG    H1442758   0.895   3.705   1.881  1.6089  4.5075 -0.3401
 7055LIG    H1542759   0.829   3.728   1.720  1.4131  0.3751 -0.1265
 7055LIG    H1642760   0.920   3.908   2.046 -1.6914  0.5137  0.9450
 7055LIG    H1742761   0.859   4.057   1.959  0.1253  0.6048 -3.1285
 7055LIG    H1842762   0.743   4.084   1.777 -1.5001 -0.7468  0.6159
 7055LIG    H1942763   0.670   3.961   1.681 -0.3241 -0.3162 -0.3574
 7055LIG    H2042764   0.727   3.813   2.061  0.0155 -0.2567 -2.0179
 7055LIG    H2142765   1.049   3.842   1.852  0.4954  0.3963  1.3560
 7055LIG    H2242766   1.112   3.993   1.930  1.3661  0.6378 -2.1132
 7055LIG    H2342767   0.884   4.076   1.591  0.2178  0.6444  0.3231
 7055LIG    H2442768   0.911   3.898   1.613 -0.7040 -0.8406 -0.2301
 7055LIG    H2542769   1.119   4.019   1.689  0.1412  0.2777 -0.7437
 7055LIG    H2642770   1.002   4.136   1.785 -0.6771  0.3166 -1.2549
 7055LIG    H2742771   0.733   3.373   1.953 -2.2224  0.9767  1.7624
 7055LIG    H2842772   0.884   3.692   2.184 -1.2061 -1.0321  1.2740
 7055LIG    H2942773   0.919   3.227   2.037 -0.5621  0.6926 -0.9136
 7055LIG    H3042774   1.068   3.573   2.264 -1.7027  1.4283  0.5009
 7055LIG    H3142775   1.073   3.317   2.208  0.8874 -0.3390 -1.2138
   6.84602   6.84602   8.73863
